<event>
 3    1  0.1573868E-001  0.1250000E+03  0.7546771E-02  0.1235069E+00
         21   -1    0    0  502  501  0.00000000000E+00  0.00000000000E+00  0.54071221277E+02  0.54071221277E+02  0.00000000000E+00 0. -1.
         21   -1    0    0  501  502 -0.00000000000E+00 -0.00000000000E+00 -0.72242681185E+02  0.72242681185E+02  0.00000000000E+00 0. -1.
         25    1    1    2    0    0  0.00000000000E+00  0.00000000000E+00 -0.18171459908E+02  0.12631390246E+03  0.12500000000E+03 0.  0.
<mgrwt>
<rscale>  0 0.12500000E+03</rscale>
<asrwt>0</asrwt>
<pdfrwt beam="1">  1       21 0.83186495E-02 0.12500000E+03</pdfrwt>
<pdfrwt beam="2">  1       21 0.11114259E-01 0.12500000E+03</pdfrwt>
<totfact> 0.73862871E+06</totfact>
</mgrwt>
</event>
<event>
 3    1  0.1573868E-001  0.1250000E+03  0.7546771E-02  0.1235069E+00
         21   -1    0    0  502  501  0.00000000000E+00  0.00000000000E+00  0.68778497765E+02  0.68778497765E+02  0.00000000000E+00 0. -1.
         21   -1    0    0  501  502 -0.00000000000E+00 -0.00000000000E+00 -0.56794639705E+02  0.56794639705E+02  0.00000000000E+00 0. -1.
         25    1    1    2    0    0  0.00000000000E+00  0.00000000000E+00  0.11983858061E+02  0.12557313747E+03  0.12500000000E+03 0.  0.
<mgrwt>
<rscale>  0 0.12500000E+03</rscale>
<asrwt>0</asrwt>
<pdfrwt beam="1">  1       21 0.10581307E-01 0.12500000E+03</pdfrwt>
<pdfrwt beam="2">  1       21 0.87376370E-02 0.12500000E+03</pdfrwt>
<totfact> 0.73965186E+06</totfact>
</mgrwt>
</event>
<event>
 3    1  0.1573868E-001  0.1250000E+03  0.7546771E-02  0.1235069E+00
         21   -1    0    0  502  501  0.00000000000E+00  0.00000000000E+00  0.15551408177E+02  0.15551408177E+02  0.00000000000E+00 0.  1.
         21   -1    0    0  501  502 -0.00000000000E+00 -0.00000000000E+00 -0.25118304114E+03  0.25118304114E+03  0.00000000000E+00 0.  1.
         25    1    1    2    0    0  0.00000000000E+00  0.00000000000E+00 -0.23563163297E+03  0.26673444932E+03  0.12500000000E+03 0.  0.
<mgrwt>
<rscale>  0 0.12500000E+03</rscale>
<asrwt>0</asrwt>
<pdfrwt beam="1">  1       21 0.23925242E-02 0.12500000E+03</pdfrwt>
<pdfrwt beam="2">  1       21 0.38643547E-01 0.12500000E+03</pdfrwt>
<totfact> 0.58337467E+06</totfact>
</mgrwt>
</event>
<event>
 3    1  0.1573868E-001  0.1250000E+03  0.7546771E-02  0.1235069E+00
         21   -1    0    0  502  501  0.00000000000E+00  0.00000000000E+00  0.80054899756E+03  0.80054899756E+03  0.00000000000E+00 0.  1.
         21   -1    0    0  501  502 -0.00000000000E+00 -0.00000000000E+00 -0.48794639827E+01  0.48794639827E+01  0.00000000000E+00 0.  1.
         25    1    1    2    0    0  0.00000000000E+00  0.00000000000E+00  0.79566953357E+03  0.80542846154E+03  0.12500000000E+03 0.  0.
<mgrwt>
<rscale>  0 0.12500000E+03</rscale>
<asrwt>0</asrwt>
<pdfrwt beam="1">  1       21 0.12316128E+00 0.12500000E+03</pdfrwt>
<pdfrwt beam="2">  1       21 0.75068740E-03 0.12500000E+03</pdfrwt>
<totfact> 0.29183764E+06</totfact>
</mgrwt>
</event>
<event>
 3    1  0.1573868E-001  0.1250000E+03  0.7546771E-02  0.1235069E+00
         21   -1    0    0  502  501  0.00000000000E+00  0.00000000000E+00  0.16610873156E+02  0.16610873156E+02  0.00000000000E+00 0. -1.
         21   -1    0    0  501  502 -0.00000000000E+00 -0.00000000000E+00 -0.23516223158E+03  0.23516223158E+03  0.00000000000E+00 0. -1.
         25    1    1    2    0    0  0.00000000000E+00  0.00000000000E+00 -0.21855135843E+03  0.25177310474E+03  0.12500000000E+03 0.  0.
<mgrwt>
<rscale>  0 0.12500000E+03</rscale>
<asrwt>0</asrwt>
<pdfrwt beam="1">  1       21 0.25555190E-02 0.12500000E+03</pdfrwt>
<pdfrwt beam="2">  1       21 0.36178804E-01 0.12500000E+03</pdfrwt>
<totfact> 0.59711655E+06</totfact>
</mgrwt>
</event>
<event>
 3    1  0.1573868E-001  0.1250000E+03  0.7546771E-02  0.1235069E+00
         21   -1    0    0  502  501  0.00000000000E+00  0.00000000000E+00  0.23369406056E+02  0.23369406056E+02  0.00000000000E+00 0.  1.
         21   -1    0    0  501  502 -0.00000000000E+00 -0.00000000000E+00 -0.16715230120E+03  0.16715230120E+03  0.00000000000E+00 0.  1.
         25    1    1    2    0    0  0.00000000000E+00  0.00000000000E+00 -0.14378289515E+03  0.19052170726E+03  0.12500000000E+03 0.  0.
<mgrwt>
<rscale>  0 0.12500000E+03</rscale>
<asrwt>0</asrwt>
<pdfrwt beam="1">  1       21 0.35952931E-02 0.12500000E+03</pdfrwt>
<pdfrwt beam="2">  1       21 0.25715739E-01 0.12500000E+03</pdfrwt>
<totfact> 0.65964527E+06</totfact>
</mgrwt>
</event>
<event>
 3    1  0.1573868E-001  0.1250000E+03  0.7546771E-02  0.1235069E+00
         21   -1    0    0  502  501  0.00000000000E+00  0.00000000000E+00  0.15631362400E+03  0.15631362400E+03  0.00000000000E+00 0.  1.
         21   -1    0    0  501  502 -0.00000000000E+00 -0.00000000000E+00 -0.24989824304E+02  0.24989824304E+02  0.00000000000E+00 0.  1.
         25    1    1    2    0    0  0.00000000000E+00  0.00000000000E+00  0.13132379970E+03  0.18130344830E+03  0.12500000000E+03 0.  0.
<mgrwt>
<rscale>  0 0.12500000E+03</rscale>
<asrwt>0</asrwt>
<pdfrwt beam="1">  1       21 0.24048249E-01 0.12500000E+03</pdfrwt>
<pdfrwt beam="2">  1       21 0.38445885E-02 0.12500000E+03</pdfrwt>
<totfact> 0.67002323E+06</totfact>
</mgrwt>
</event>
<event>
 3    1  0.1573868E-001  0.1250000E+03  0.7546771E-02  0.1235069E+00
         21   -1    0    0  502  501  0.00000000000E+00  0.00000000000E+00  0.55002796414E+03  0.55002796414E+03  0.00000000000E+00 0. -1.
         21   -1    0    0  501  502 -0.00000000000E+00 -0.00000000000E+00 -0.71019116384E+01  0.71019116384E+01  0.00000000000E+00 0. -1.
         25    1    1    2    0    0  0.00000000000E+00  0.00000000000E+00  0.54292605251E+03  0.55712987578E+03  0.12500000000E+03 0.  0.
<mgrwt>
<rscale>  0 0.12500000E+03</rscale>
<asrwt>0</asrwt>
<pdfrwt beam="1">  1       21 0.84619653E-01 0.12500000E+03</pdfrwt>
<pdfrwt beam="2">  1       21 0.10926022E-02 0.12500000E+03</pdfrwt>
<totfact> 0.39106055E+06</totfact>
</mgrwt>
</event>
<event>
 3    1  0.1573868E-001  0.1250000E+03  0.7546771E-02  0.1235069E+00
         21   -1    0    0  502  501  0.00000000000E+00  0.00000000000E+00  0.27203945101E+03  0.27203945101E+03  0.00000000000E+00 0. -1.
         21   -1    0    0  501  502 -0.00000000000E+00 -0.00000000000E+00 -0.14359130580E+02  0.14359130580E+02  0.00000000000E+00 0. -1.
         25    1    1    2    0    0  0.00000000000E+00  0.00000000000E+00  0.25768032043E+03  0.28639858159E+03  0.12500000000E+03 0.  0.
<mgrwt>
<rscale>  0 0.12500000E+03</rscale>
<asrwt>0</asrwt>
<pdfrwt beam="1">  1       21 0.41852219E-01 0.12500000E+03</pdfrwt>
<pdfrwt beam="2">  1       21 0.22090972E-02 0.12500000E+03</pdfrwt>
<totfact> 0.56605794E+06</totfact>
</mgrwt>
</event>
<event>
 3    1  0.1573868E-001  0.1250000E+03  0.7546771E-02  0.1235069E+00
         21   -1    0    0  502  501  0.00000000000E+00  0.00000000000E+00  0.17519233319E+02  0.17519233319E+02  0.00000000000E+00 0.  1.
         21   -1    0    0  501  502 -0.00000000000E+00 -0.00000000000E+00 -0.22296923209E+03  0.22296923209E+03  0.00000000000E+00 0.  1.
         25    1    1    2    0    0  0.00000000000E+00  0.00000000000E+00 -0.20544999877E+03  0.24048846541E+03  0.12500000000E+03 0.  0.
<mgrwt>
<rscale>  0 0.12500000E+03</rscale>
<asrwt>0</asrwt>
<pdfrwt beam="1">  1       21 0.26952665E-02 0.12500000E+03</pdfrwt>
<pdfrwt beam="2">  1       21 0.34302961E-01 0.12500000E+03</pdfrwt>
<totfact> 0.60785426E+06</totfact>
</mgrwt>
</event>
<event>
 3    1  0.1573868E-001  0.1250000E+03  0.7546771E-02  0.1235069E+00
         21   -1    0    0  502  501  0.00000000000E+00  0.00000000000E+00  0.25886074150E+03  0.25886074150E+03  0.00000000000E+00 0.  1.
         21   -1    0    0  501  502 -0.00000000000E+00 -0.00000000000E+00 -0.15090159973E+02  0.15090159973E+02  0.00000000000E+00 0.  1.
         25    1    1    2    0    0  0.00000000000E+00  0.00000000000E+00  0.24377058152E+03  0.27395090147E+03  0.12500000000E+03 0.  0.
<mgrwt>
<rscale>  0 0.12500000E+03</rscale>
<asrwt>0</asrwt>
<pdfrwt beam="1">  1       21 0.39824726E-01 0.12500000E+03</pdfrwt>
<pdfrwt beam="2">  1       21 0.23215633E-02 0.12500000E+03</pdfrwt>
<totfact> 0.57692896E+06</totfact>
</mgrwt>
</event>
<event>
 3    1  0.1573868E-001  0.1250000E+03  0.7546771E-02  0.1235069E+00
         21   -1    0    0  502  501  0.00000000000E+00  0.00000000000E+00  0.63721197427E+02  0.63721197427E+02  0.00000000000E+00 0.  1.
         21   -1    0    0  501  502 -0.00000000000E+00 -0.00000000000E+00 -0.61302206451E+02  0.61302206451E+02  0.00000000000E+00 0.  1.
         25    1    1    2    0    0  0.00000000000E+00  0.00000000000E+00  0.24189909760E+01  0.12502340388E+03  0.12500000000E+03 0.  0.
<mgrwt>
<rscale>  0 0.12500000E+03</rscale>
<asrwt>0</asrwt>
<pdfrwt beam="1">  1       21 0.98032611E-02 0.12500000E+03</pdfrwt>
<pdfrwt beam="2">  1       21 0.94311087E-02 0.12500000E+03</pdfrwt>
<totfact> 0.74040420E+06</totfact>
</mgrwt>
</event>
<event>
 3    1  0.1573868E-001  0.1250000E+03  0.7546771E-02  0.1235069E+00
         21   -1    0    0  502  501  0.00000000000E+00  0.00000000000E+00  0.30551066194E+02  0.30551066194E+02  0.00000000000E+00 0. -1.
         21   -1    0    0  501  502 -0.00000000000E+00 -0.00000000000E+00 -0.12785969482E+03  0.12785969482E+03  0.00000000000E+00 0. -1.
         25    1    1    2    0    0  0.00000000000E+00  0.00000000000E+00 -0.97308628628E+02  0.15841076102E+03  0.12500000000E+03 0.  0.
<mgrwt>
<rscale>  0 0.12500000E+03</rscale>
<asrwt>0</asrwt>
<pdfrwt beam="1">  1       21 0.47001639E-02 0.12500000E+03</pdfrwt>
<pdfrwt beam="2">  1       21 0.19670723E-01 0.12500000E+03</pdfrwt>
<totfact> 0.69714207E+06</totfact>
</mgrwt>
</event>
<event>
 3    1  0.1573868E-001  0.1250000E+03  0.7546771E-02  0.1235069E+00
         21   -1    0    0  502  501  0.00000000000E+00  0.00000000000E+00  0.16675343055E+02  0.16675343055E+02  0.00000000000E+00 0.  1.
         21   -1    0    0  501  502 -0.00000000000E+00 -0.00000000000E+00 -0.23425305177E+03  0.23425305177E+03  0.00000000000E+00 0.  1.
         25    1    1    2    0    0  0.00000000000E+00  0.00000000000E+00 -0.21757770871E+03  0.25092839483E+03  0.12500000000E+03 0.  0.
<mgrwt>
<rscale>  0 0.12500000E+03</rscale>
<asrwt>0</asrwt>
<pdfrwt beam="1">  1       21 0.25654375E-02 0.12500000E+03</pdfrwt>
<pdfrwt beam="2">  1       21 0.36038929E-01 0.12500000E+03</pdfrwt>
<totfact> 0.59790893E+06</totfact>
</mgrwt>
</event>
<event>
 3    1  0.1573868E-001  0.1250000E+03  0.7546771E-02  0.1235069E+00
         21   -1    0    0  502  501  0.00000000000E+00  0.00000000000E+00  0.70695740561E+01  0.70695740561E+01  0.00000000000E+00 0. -1.
         21   -1    0    0  501  502 -0.00000000000E+00 -0.00000000000E+00 -0.55254389713E+03  0.55254389713E+03  0.00000000000E+00 0. -1.
         25    1    1    2    0    0  0.00000000000E+00  0.00000000000E+00 -0.54547432307E+03  0.55961347118E+03  0.12500000000E+03 0.  0.
<mgrwt>
<rscale>  0 0.12500000E+03</rscale>
<asrwt>0</asrwt>
<pdfrwt beam="1">  1       21 0.10876270E-02 0.12500000E+03</pdfrwt>
<pdfrwt beam="2">  1       21 0.85006734E-01 0.12500000E+03</pdfrwt>
<totfact> 0.38985177E+06</totfact>
</mgrwt>
</event>
<event>
 3    1  0.1573868E-001  0.1250000E+03  0.7546771E-02  0.1235069E+00
         21   -1    0    0  502  501  0.00000000000E+00  0.00000000000E+00  0.16535535453E+02  0.16535535453E+02  0.00000000000E+00 0. -1.
         21   -1    0    0  501  502 -0.00000000000E+00 -0.00000000000E+00 -0.23623365636E+03  0.23623365636E+03  0.00000000000E+00 0. -1.
         25    1    1    2    0    0  0.00000000000E+00  0.00000000000E+00 -0.21969812091E+03  0.25276919182E+03  0.12500000000E+03 0.  0.
<mgrwt>
<rscale>  0 0.12500000E+03</rscale>
<asrwt>0</asrwt>
<pdfrwt beam="1">  1       21 0.25439287E-02 0.12500000E+03</pdfrwt>
<pdfrwt beam="2">  1       21 0.36343637E-01 0.12500000E+03</pdfrwt>
<totfact> 0.59618450E+06</totfact>
</mgrwt>
</event>
<event>
 3    1  0.1573868E-001  0.1250000E+03  0.7546771E-02  0.1235069E+00
         21   -1    0    0  502  501  0.00000000000E+00  0.00000000000E+00  0.10264619886E+02  0.10264619886E+02  0.00000000000E+00 0. -1.
         21   -1    0    0  501  502 -0.00000000000E+00 -0.00000000000E+00 -0.38055476417E+03  0.38055476417E+03  0.00000000000E+00 0. -1.
         25    1    1    2    0    0  0.00000000000E+00  0.00000000000E+00 -0.37029014429E+03  0.39081938406E+03  0.12500000000E+03 0.  0.
<mgrwt>
<rscale>  0 0.12500000E+03</rscale>
<asrwt>0</asrwt>
<pdfrwt beam="1">  1       21 0.15791723E-02 0.12500000E+03</pdfrwt>
<pdfrwt beam="2">  1       21 0.58546885E-01 0.12500000E+03</pdfrwt>
<totfact> 0.48656312E+06</totfact>
</mgrwt>
</event>
<event>
 3    1  0.1573868E-001  0.1250000E+03  0.7546771E-02  0.1235069E+00
         21   -1    0    0  502  501  0.00000000000E+00  0.00000000000E+00  0.83693480070E+02  0.83693480070E+02  0.00000000000E+00 0. -1.
         21   -1    0    0  501  502 -0.00000000000E+00 -0.00000000000E+00 -0.46673289207E+02  0.46673289207E+02  0.00000000000E+00 0. -1.
         25    1    1    2    0    0  0.00000000000E+00  0.00000000000E+00  0.37020190863E+02  0.13036676928E+03  0.12500000000E+03 0.  0.
<mgrwt>
<rscale>  0 0.12500000E+03</rscale>
<asrwt>0</asrwt>
<pdfrwt beam="1">  1       21 0.12875920E-01 0.12500000E+03</pdfrwt>
<pdfrwt beam="2">  1       21 0.71805060E-02 0.12500000E+03</pdfrwt>
<totfact> 0.73315937E+06</totfact>
</mgrwt>
</event>
<event>
 3    1  0.1573868E-001  0.1250000E+03  0.7546771E-02  0.1235069E+00
         21   -1    0    0  502  501  0.00000000000E+00  0.00000000000E+00  0.23924903866E+03  0.23924903866E+03  0.00000000000E+00 0.  1.
         21   -1    0    0  501  502 -0.00000000000E+00 -0.00000000000E+00 -0.16327129346E+02  0.16327129346E+02  0.00000000000E+00 0.  1.
         25    1    1    2    0    0  0.00000000000E+00  0.00000000000E+00  0.22292190931E+03  0.25557616800E+03  0.12500000000E+03 0.  0.
<mgrwt>
<rscale>  0 0.12500000E+03</rscale>
<asrwt>0</asrwt>
<pdfrwt beam="1">  1       21 0.36807542E-01 0.12500000E+03</pdfrwt>
<pdfrwt beam="2">  1       21 0.25118662E-02 0.12500000E+03</pdfrwt>
<totfact> 0.59357139E+06</totfact>
</mgrwt>
</event>
<event>
 3    1  0.1573868E-001  0.1250000E+03  0.7546771E-02  0.1235069E+00
         21   -1    0    0  502  501  0.00000000000E+00  0.00000000000E+00  0.54655716898E+02  0.54655716898E+02  0.00000000000E+00 0. -1.
         21   -1    0    0  501  502 -0.00000000000E+00 -0.00000000000E+00 -0.71470108192E+02  0.71470108192E+02  0.00000000000E+00 0. -1.
         25    1    1    2    0    0  0.00000000000E+00  0.00000000000E+00 -0.16814391294E+02  0.12612582509E+03  0.12500000000E+03 0.  0.
<mgrwt>
<rscale>  0 0.12500000E+03</rscale>
<asrwt>0</asrwt>
<pdfrwt beam="1">  1       21 0.84085718E-02 0.12500000E+03</pdfrwt>
<pdfrwt beam="2">  1       21 0.10995401E-01 0.12500000E+03</pdfrwt>
<totfact> 0.73888709E+06</totfact>
</mgrwt>
</event>
<event>
 3    1  0.1573868E-001  0.1250000E+03  0.7546771E-02  0.1235069E+00
         21   -1    0    0  502  501  0.00000000000E+00  0.00000000000E+00  0.28579778809E+03  0.28579778809E+03  0.00000000000E+00 0.  1.
         21   -1    0    0  501  502 -0.00000000000E+00 -0.00000000000E+00 -0.13667880448E+02  0.13667880448E+02  0.00000000000E+00 0.  1.
         25    1    1    2    0    0  0.00000000000E+00  0.00000000000E+00  0.27212990764E+03  0.29946566854E+03  0.12500000000E+03 0.  0.
<mgrwt>
<rscale>  0 0.12500000E+03</rscale>
<asrwt>0</asrwt>
<pdfrwt beam="1">  1       21 0.43968886E-01 0.12500000E+03</pdfrwt>
<pdfrwt beam="2">  1       21 0.21027511E-02 0.12500000E+03</pdfrwt>
<totfact> 0.55500610E+06</totfact>
</mgrwt>
</event>
<event>
 3    1  0.1573868E-001  0.1250000E+03  0.7546771E-02  0.1235069E+00
         21   -1    0    0  502  501  0.00000000000E+00  0.00000000000E+00  0.22340619337E+02  0.22340619337E+02  0.00000000000E+00 0. -1.
         21   -1    0    0  501  502 -0.00000000000E+00 -0.00000000000E+00 -0.17484967364E+03  0.17484967364E+03  0.00000000000E+00 0. -1.
         25    1    1    2    0    0  0.00000000000E+00  0.00000000000E+00 -0.15250905431E+03  0.19719029298E+03  0.12500000000E+03 0.  0.
<mgrwt>
<rscale>  0 0.12500000E+03</rscale>
<asrwt>0</asrwt>
<pdfrwt beam="1">  1       21 0.34370185E-02 0.12500000E+03</pdfrwt>
<pdfrwt beam="2">  1       21 0.26899949E-01 0.12500000E+03</pdfrwt>
<totfact> 0.65232096E+06</totfact>
</mgrwt>
</event>
<event>
 3    1  0.1573868E-001  0.1250000E+03  0.7546771E-02  0.1235069E+00
         21   -1    0    0  502  501  0.00000000000E+00  0.00000000000E+00  0.10832214551E+03  0.10832214551E+03  0.00000000000E+00 0. -1.
         21   -1    0    0  501  502 -0.00000000000E+00 -0.00000000000E+00 -0.36061416449E+02  0.36061416449E+02  0.00000000000E+00 0. -1.
         25    1    1    2    0    0  0.00000000000E+00  0.00000000000E+00  0.72260729066E+02  0.14438356196E+03  0.12500000000E+03 0.  0.
<mgrwt>
<rscale>  0 0.12500000E+03</rscale>
<asrwt>0</asrwt>
<pdfrwt beam="1">  1       21 0.16664945E-01 0.12500000E+03</pdfrwt>
<pdfrwt beam="2">  1       21 0.55479103E-02 0.12500000E+03</pdfrwt>
<totfact> 0.71472081E+06</totfact>
</mgrwt>
</event>
<event>
 3    1  0.1573868E-001  0.1250000E+03  0.7546771E-02  0.1235069E+00
         21   -1    0    0  502  501  0.00000000000E+00  0.00000000000E+00  0.48666663988E+01  0.48666663988E+01  0.00000000000E+00 0. -1.
         21   -1    0    0  501  502 -0.00000000000E+00 -0.00000000000E+00 -0.80265415377E+03  0.80265415377E+03  0.00000000000E+00 0. -1.
         25    1    1    2    0    0  0.00000000000E+00  0.00000000000E+00 -0.79778748737E+03  0.80752082017E+03  0.12500000000E+03 0.  0.
<mgrwt>
<rscale>  0 0.12500000E+03</rscale>
<asrwt>0</asrwt>
<pdfrwt beam="1">  1       21 0.74871773E-03 0.12500000E+03</pdfrwt>
<pdfrwt beam="2">  1       21 0.12348528E+00 0.12500000E+03</pdfrwt>
<totfact> 0.29115134E+06</totfact>
</mgrwt>
</event>
<event>
 3    1  0.1573868E-001  0.1250000E+03  0.7546771E-02  0.1235069E+00
         21   -1    0    0  502  501  0.00000000000E+00  0.00000000000E+00  0.37838223395E+02  0.37838223395E+02  0.00000000000E+00 0.  1.
         21   -1    0    0  501  502 -0.00000000000E+00 -0.00000000000E+00 -0.10323555520E+03  0.10323555520E+03  0.00000000000E+00 0.  1.
         25    1    1    2    0    0  0.00000000000E+00  0.00000000000E+00 -0.65397331807E+02  0.14107377860E+03  0.12500000000E+03 0.  0.
<mgrwt>
<rscale>  0 0.12500000E+03</rscale>
<asrwt>0</asrwt>
<pdfrwt beam="1">  1       21 0.58212652E-02 0.12500000E+03</pdfrwt>
<pdfrwt beam="2">  1       21 0.15882393E-01 0.12500000E+03</pdfrwt>
<totfact> 0.71899437E+06</totfact>
</mgrwt>
</event>
<event>
 3    1  0.1573868E-001  0.1250000E+03  0.7546771E-02  0.1235069E+00
         21   -1    0    0  502  501  0.00000000000E+00  0.00000000000E+00  0.24373765384E+03  0.24373765384E+03  0.00000000000E+00 0. -1.
         21   -1    0    0  501  502 -0.00000000000E+00 -0.00000000000E+00 -0.16026452780E+02  0.16026452780E+02  0.00000000000E+00 0. -1.
         25    1    1    2    0    0  0.00000000000E+00  0.00000000000E+00  0.22771120106E+03  0.25976410662E+03  0.12500000000E+03 0.  0.
<mgrwt>
<rscale>  0 0.12500000E+03</rscale>
<asrwt>0</asrwt>
<pdfrwt beam="1">  1       21 0.37498098E-01 0.12500000E+03</pdfrwt>
<pdfrwt beam="2">  1       21 0.24656083E-02 0.12500000E+03</pdfrwt>
<totfact> 0.58970900E+06</totfact>
</mgrwt>
</event>
<event>
 3    1  0.1573868E-001  0.1250000E+03  0.7546771E-02  0.1235069E+00
         21   -1    0    0  502  501  0.00000000000E+00  0.00000000000E+00  0.35726228917E+01  0.35726228917E+01  0.00000000000E+00 0. -1.
         21   -1    0    0  501  502 -0.00000000000E+00 -0.00000000000E+00 -0.10933843617E+04  0.10933843617E+04  0.00000000000E+00 0. -1.
         25    1    1    2    0    0  0.00000000000E+00  0.00000000000E+00 -0.10898117388E+04  0.10969569846E+04  0.12500000000E+03 0.  0.
<mgrwt>
<rscale>  0 0.12500000E+03</rscale>
<asrwt>0</asrwt>
<pdfrwt beam="1">  1       21 0.54963353E-03 0.12500000E+03</pdfrwt>
<pdfrwt beam="2">  1       21 0.16821321E+00 0.12500000E+03</pdfrwt>
<totfact> 0.21319172E+06</totfact>
</mgrwt>
</event>
<event>
 3    1  0.1573868E-001  0.1250000E+03  0.7546771E-02  0.1235069E+00
         21   -1    0    0  502  501  0.00000000000E+00  0.00000000000E+00  0.41330226396E+02  0.41330226396E+02  0.00000000000E+00 0. -1.
         21   -1    0    0  501  502 -0.00000000000E+00 -0.00000000000E+00 -0.94513152735E+02  0.94513152735E+02  0.00000000000E+00 0. -1.
         25    1    1    2    0    0  0.00000000000E+00  0.00000000000E+00 -0.53182926339E+02  0.13584337913E+03  0.12500000000E+03 0.  0.
<mgrwt>
<rscale>  0 0.12500000E+03</rscale>
<asrwt>0</asrwt>
<pdfrwt beam="1">  1       21 0.63584964E-02 0.12500000E+03</pdfrwt>
<pdfrwt beam="2">  1       21 0.14540485E-01 0.12500000E+03</pdfrwt>
<totfact> 0.72584995E+06</totfact>
</mgrwt>
</event>
<event>
 3    1  0.1573868E-001  0.1250000E+03  0.7546771E-02  0.1235069E+00
         21   -1    0    0  502  501  0.00000000000E+00  0.00000000000E+00  0.31666571535E+03  0.31666571535E+03  0.00000000000E+00 0.  1.
         21   -1    0    0  501  502 -0.00000000000E+00 -0.00000000000E+00 -0.12335563374E+02  0.12335563374E+02  0.00000000000E+00 0.  1.
         25    1    1    2    0    0  0.00000000000E+00  0.00000000000E+00  0.30433015197E+03  0.32900127872E+03  0.12500000000E+03 0.  0.
<mgrwt>
<rscale>  0 0.12500000E+03</rscale>
<asrwt>0</asrwt>
<pdfrwt beam="1">  1       21 0.48717796E-01 0.12500000E+03</pdfrwt>
<pdfrwt beam="2">  1       21 0.18977792E-02 0.12500000E+03</pdfrwt>
<totfact> 0.53127661E+06</totfact>
</mgrwt>
</event>
<event>
 3    1  0.1573868E-001  0.1250000E+03  0.7546771E-02  0.1235069E+00
         21   -1    0    0  502  501  0.00000000000E+00  0.00000000000E+00  0.31241782541E+03  0.31241782541E+03  0.00000000000E+00 0.  1.
         21   -1    0    0  501  502 -0.00000000000E+00 -0.00000000000E+00 -0.12503287848E+02  0.12503287848E+02  0.00000000000E+00 0.  1.
         25    1    1    2    0    0  0.00000000000E+00  0.00000000000E+00  0.29991453756E+03  0.32492111326E+03  0.12500000000E+03 0.  0.
<mgrwt>
<rscale>  0 0.12500000E+03</rscale>
<asrwt>0</asrwt>
<pdfrwt beam="1">  1       21 0.48064275E-01 0.12500000E+03</pdfrwt>
<pdfrwt beam="2">  1       21 0.19235830E-02 0.12500000E+03</pdfrwt>
<totfact> 0.53445662E+06</totfact>
</mgrwt>
</event>
<event>
 3    1  0.1573868E-001  0.1250000E+03  0.7546771E-02  0.1235069E+00
         21   -1    0    0  502  501  0.00000000000E+00  0.00000000000E+00  0.45316066290E+01  0.45316066290E+01  0.00000000000E+00 0. -1.
         21   -1    0    0  501  502 -0.00000000000E+00 -0.00000000000E+00 -0.86200112229E+03  0.86200112229E+03  0.00000000000E+00 0. -1.
         25    1    1    2    0    0  0.00000000000E+00  0.00000000000E+00 -0.85746951566E+03  0.86653272892E+03  0.12500000000E+03 0.  0.
<mgrwt>
<rscale>  0 0.12500000E+03</rscale>
<asrwt>0</asrwt>
<pdfrwt beam="1">  1       21 0.69717082E-03 0.12500000E+03</pdfrwt>
<pdfrwt beam="2">  1       21 0.13261545E+00 0.12500000E+03</pdfrwt>
<totfact> 0.27273257E+06</totfact>
</mgrwt>
</event>
<event>
 3    1  0.1573868E-001  0.1250000E+03  0.7546771E-02  0.1235069E+00
         21   -1    0    0  502  501  0.00000000000E+00  0.00000000000E+00  0.19437130297E+03  0.19437130297E+03  0.00000000000E+00 0. -1.
         21   -1    0    0  501  502 -0.00000000000E+00 -0.00000000000E+00 -0.20096845266E+02  0.20096845266E+02  0.00000000000E+00 0. -1.
         25    1    1    2    0    0  0.00000000000E+00  0.00000000000E+00  0.17427445770E+03  0.21446814824E+03  0.12500000000E+03 0.  0.
<mgrwt>
<rscale>  0 0.12500000E+03</rscale>
<asrwt>0</asrwt>
<pdfrwt beam="1">  1       21 0.29903276E-01 0.12500000E+03</pdfrwt>
<pdfrwt beam="2">  1       21 0.30918225E-02 0.12500000E+03</pdfrwt>
<totfact> 0.63392481E+06</totfact>
</mgrwt>
</event>
<event>
 3    1  0.1573868E-001  0.1250000E+03  0.7546771E-02  0.1235069E+00
         21   -1    0    0  502  501  0.00000000000E+00  0.00000000000E+00  0.40345705064E+01  0.40345705064E+01  0.00000000000E+00 0. -1.
         21   -1    0    0  501  502 -0.00000000000E+00 -0.00000000000E+00 -0.96819475426E+03  0.96819475426E+03  0.00000000000E+00 0. -1.
         25    1    1    2    0    0  0.00000000000E+00  0.00000000000E+00 -0.96416018375E+03  0.97222932476E+03  0.12500000000E+03 0.  0.
<mgrwt>
<rscale>  0 0.12500000E+03</rscale>
<asrwt>0</asrwt>
<pdfrwt beam="1">  1       21 0.62070329E-03 0.12500000E+03</pdfrwt>
<pdfrwt beam="2">  1       21 0.14895301E+00 0.12500000E+03</pdfrwt>
<totfact> 0.24325547E+06</totfact>
</mgrwt>
</event>
<event>
 3    1  0.1573868E-001  0.1250000E+03  0.7546771E-02  0.1235069E+00
         21   -1    0    0  502  501  0.00000000000E+00  0.00000000000E+00  0.20738138896E+02  0.20738138896E+02  0.00000000000E+00 0. -1.
         21   -1    0    0  501  502 -0.00000000000E+00 -0.00000000000E+00 -0.18836068268E+03  0.18836068268E+03  0.00000000000E+00 0. -1.
         25    1    1    2    0    0  0.00000000000E+00  0.00000000000E+00 -0.16762254378E+03  0.20909882158E+03  0.12500000000E+03 0.  0.
<mgrwt>
<rscale>  0 0.12500000E+03</rscale>
<asrwt>0</asrwt>
<pdfrwt beam="1">  1       21 0.31904830E-02 0.12500000E+03</pdfrwt>
<pdfrwt beam="2">  1       21 0.28978565E-01 0.12500000E+03</pdfrwt>
<totfact> 0.63954475E+06</totfact>
</mgrwt>
</event>
<event>
 3    1  0.1573868E-001  0.1250000E+03  0.7546771E-02  0.1235069E+00
         21   -1    0    0  502  501  0.00000000000E+00  0.00000000000E+00  0.36048401318E+03  0.36048401318E+03  0.00000000000E+00 0.  1.
         21   -1    0    0  501  502 -0.00000000000E+00 -0.00000000000E+00 -0.10836125479E+02  0.10836125479E+02  0.00000000000E+00 0.  1.
         25    1    1    2    0    0  0.00000000000E+00  0.00000000000E+00  0.34964788770E+03  0.37132013866E+03  0.12500000000E+03 0.  0.
<mgrwt>
<rscale>  0 0.12500000E+03</rscale>
<asrwt>0</asrwt>
<pdfrwt beam="1">  1       21 0.55459070E-01 0.12500000E+03</pdfrwt>
<pdfrwt beam="2">  1       21 0.16670965E-02 0.12500000E+03</pdfrwt>
<totfact> 0.50001405E+06</totfact>
</mgrwt>
</event>
<event>
 3    1  0.1573868E-001  0.1250000E+03  0.7546771E-02  0.1235069E+00
         21   -1    0    0  502  501  0.00000000000E+00  0.00000000000E+00  0.26531415986E+03  0.26531415986E+03  0.00000000000E+00 0.  1.
         21   -1    0    0  501  502 -0.00000000000E+00 -0.00000000000E+00 -0.14723111658E+02  0.14723111658E+02  0.00000000000E+00 0.  1.
         25    1    1    2    0    0  0.00000000000E+00  0.00000000000E+00  0.25059104821E+03  0.28003727152E+03  0.12500000000E+03 0.  0.
<mgrwt>
<rscale>  0 0.12500000E+03</rscale>
<asrwt>0</asrwt>
<pdfrwt beam="1">  1       21 0.40817560E-01 0.12500000E+03</pdfrwt>
<pdfrwt beam="2">  1       21 0.22650943E-02 0.12500000E+03</pdfrwt>
<totfact> 0.57157061E+06</totfact>
</mgrwt>
</event>
<event>
 3    1  0.1573868E-001  0.1250000E+03  0.7546771E-02  0.1235069E+00
         21   -1    0    0  502  501  0.00000000000E+00  0.00000000000E+00  0.96151833933E+03  0.96151833933E+03  0.00000000000E+00 0. -1.
         21   -1    0    0  501  502 -0.00000000000E+00 -0.00000000000E+00 -0.40625850181E+01  0.40625850181E+01  0.00000000000E+00 0. -1.
         25    1    1    2    0    0  0.00000000000E+00  0.00000000000E+00  0.95745575432E+03  0.96558092435E+03  0.12500000000E+03 0.  0.
<mgrwt>
<rscale>  0 0.12500000E+03</rscale>
<asrwt>0</asrwt>
<pdfrwt beam="1">  1       21 0.14792572E+00 0.12500000E+03</pdfrwt>
<pdfrwt beam="2">  1       21 0.62501384E-03 0.12500000E+03</pdfrwt>
<totfact> 0.24498866E+06</totfact>
</mgrwt>
</event>
<event>
 3    1  0.1573868E-001  0.1250000E+03  0.7546771E-02  0.1235069E+00
         21   -1    0    0  502  501  0.00000000000E+00  0.00000000000E+00  0.17602812560E+01  0.17602812560E+01  0.00000000000E+00 0.  1.
         21   -1    0    0  501  502 -0.00000000000E+00 -0.00000000000E+00 -0.22191056041E+04  0.22191056041E+04  0.00000000000E+00 0.  1.
         25    1    1    2    0    0  0.00000000000E+00  0.00000000000E+00 -0.22173453228E+04  0.22208658853E+04  0.12500000000E+03 0.  0.
<mgrwt>
<rscale>  0 0.12500000E+03</rscale>
<asrwt>0</asrwt>
<pdfrwt beam="1">  1       21 0.27081352E-03 0.12500000E+03</pdfrwt>
<pdfrwt beam="2">  1       21 0.34139958E+00 0.12500000E+03</pdfrwt>
<totfact> 0.59880712E+05</totfact>
</mgrwt>
</event>
<event>
 3    1  0.1573868E-001  0.1250000E+03  0.7546771E-02  0.1235069E+00
         21   -1    0    0  502  501  0.00000000000E+00  0.00000000000E+00  0.52833549987E+03  0.52833549987E+03  0.00000000000E+00 0. -1.
         21   -1    0    0  501  502 -0.00000000000E+00 -0.00000000000E+00 -0.73935028045E+01  0.73935028045E+01  0.00000000000E+00 0. -1.
         25    1    1    2    0    0  0.00000000000E+00  0.00000000000E+00  0.52094199707E+03  0.53572900268E+03  0.12500000000E+03 0.  0.
<mgrwt>
<rscale>  0 0.12500000E+03</rscale>
<asrwt>0</asrwt>
<pdfrwt beam="1">  1       21 0.81282355E-01 0.12500000E+03</pdfrwt>
<pdfrwt beam="2">  1       21 0.11374624E-02 0.12500000E+03</pdfrwt>
<totfact> 0.40170419E+06</totfact>
</mgrwt>
</event>
<event>
 3    1  0.1573868E-001  0.1250000E+03  0.7546771E-02  0.1235069E+00
         21   -1    0    0  502  501  0.00000000000E+00  0.00000000000E+00  0.67861880325E+01  0.67861880325E+01  0.00000000000E+00 0. -1.
         21   -1    0    0  501  502 -0.00000000000E+00 -0.00000000000E+00 -0.57561770781E+03  0.57561770781E+03  0.00000000000E+00 0. -1.
         25    1    1    2    0    0  0.00000000000E+00  0.00000000000E+00 -0.56883151978E+03  0.58240389584E+03  0.12500000000E+03 0.  0.
<mgrwt>
<rscale>  0 0.12500000E+03</rscale>
<asrwt>0</asrwt>
<pdfrwt beam="1">  1       21 0.10440289E-02 0.12500000E+03</pdfrwt>
<pdfrwt beam="2">  1       21 0.88556576E-01 0.12500000E+03</pdfrwt>
<totfact> 0.37900675E+06</totfact>
</mgrwt>
</event>
<event>
 3    1  0.1573868E-001  0.1250000E+03  0.7546771E-02  0.1235069E+00
         21   -1    0    0  502  501  0.00000000000E+00  0.00000000000E+00  0.15117341345E+02  0.15117341345E+02  0.00000000000E+00 0. -1.
         21   -1    0    0  501  502 -0.00000000000E+00 -0.00000000000E+00 -0.25839530317E+03  0.25839530317E+03  0.00000000000E+00 0. -1.
         25    1    1    2    0    0  0.00000000000E+00  0.00000000000E+00 -0.24327796183E+03  0.27351264452E+03  0.12500000000E+03 0.  0.
<mgrwt>
<rscale>  0 0.12500000E+03</rscale>
<asrwt>0</asrwt>
<pdfrwt beam="1">  1       21 0.23257450E-02 0.12500000E+03</pdfrwt>
<pdfrwt beam="2">  1       21 0.39753121E-01 0.12500000E+03</pdfrwt>
<totfact> 0.57731802E+06</totfact>
</mgrwt>
</event>
<event>
 3    1  0.1573868E-001  0.1250000E+03  0.7546771E-02  0.1235069E+00
         21   -1    0    0  502  501  0.00000000000E+00  0.00000000000E+00  0.20049782056E+02  0.20049782056E+02  0.00000000000E+00 0. -1.
         21   -1    0    0  501  502 -0.00000000000E+00 -0.00000000000E+00 -0.19482755419E+03  0.19482755419E+03  0.00000000000E+00 0. -1.
         25    1    1    2    0    0  0.00000000000E+00  0.00000000000E+00 -0.17477777213E+03  0.21487733624E+03  0.12500000000E+03 0.  0.
<mgrwt>
<rscale>  0 0.12500000E+03</rscale>
<asrwt>0</asrwt>
<pdfrwt beam="1">  1       21 0.30845819E-02 0.12500000E+03</pdfrwt>
<pdfrwt beam="2">  1       21 0.29973469E-01 0.12500000E+03</pdfrwt>
<totfact> 0.63350010E+06</totfact>
</mgrwt>
</event>
<event>
 3    1  0.1573868E-001  0.1250000E+03  0.7546771E-02  0.1235069E+00
         21   -1    0    0  502  501  0.00000000000E+00  0.00000000000E+00  0.75353178056E+02  0.75353178056E+02  0.00000000000E+00 0.  1.
         21   -1    0    0  501  502 -0.00000000000E+00 -0.00000000000E+00 -0.51839220333E+02  0.51839220333E+02  0.00000000000E+00 0.  1.
         25    1    1    2    0    0  0.00000000000E+00  0.00000000000E+00  0.23513957723E+02  0.12719239839E+03  0.12500000000E+03 0.  0.
<mgrwt>
<rscale>  0 0.12500000E+03</rscale>
<asrwt>0</asrwt>
<pdfrwt beam="1">  1       21 0.11592797E-01 0.12500000E+03</pdfrwt>
<pdfrwt beam="2">  1       21 0.79752647E-02 0.12500000E+03</pdfrwt>
<totfact> 0.73742968E+06</totfact>
</mgrwt>
</event>
<event>
 3    1  0.1573868E-001  0.1250000E+03  0.7546771E-02  0.1235069E+00
         21   -1    0    0  502  501  0.00000000000E+00  0.00000000000E+00  0.61089548321E+03  0.61089548321E+03  0.00000000000E+00 0.  1.
         21   -1    0    0  501  502 -0.00000000000E+00 -0.00000000000E+00 -0.63943016561E+01  0.63943016561E+01  0.00000000000E+00 0.  1.
         25    1    1    2    0    0  0.00000000000E+00  0.00000000000E+00  0.60450118156E+03  0.61728978487E+03  0.12500000000E+03 0.  0.
<mgrwt>
<rscale>  0 0.12500000E+03</rscale>
<asrwt>0</asrwt>
<pdfrwt beam="1">  1       21 0.93983874E-01 0.12500000E+03</pdfrwt>
<pdfrwt beam="2">  1       21 0.98373920E-03 0.12500000E+03</pdfrwt>
<totfact> 0.36322228E+06</totfact>
</mgrwt>
</event>
<event>
 3    1  0.1573868E-001  0.1250000E+03  0.7546771E-02  0.1235069E+00
         21   -1    0    0  502  501  0.00000000000E+00  0.00000000000E+00  0.67790365245E+02  0.67790365245E+02  0.00000000000E+00 0. -1.
         21   -1    0    0  501  502 -0.00000000000E+00 -0.00000000000E+00 -0.57622495260E+02  0.57622495260E+02  0.00000000000E+00 0. -1.
         25    1    1    2    0    0  0.00000000000E+00  0.00000000000E+00  0.10167869984E+02  0.12541286050E+03  0.12500000000E+03 0.  0.
<mgrwt>
<rscale>  0 0.12500000E+03</rscale>
<asrwt>0</asrwt>
<pdfrwt beam="1">  1       21 0.10429287E-01 0.12500000E+03</pdfrwt>
<pdfrwt beam="2">  1       21 0.88649993E-02 0.12500000E+03</pdfrwt>
<totfact> 0.73987605E+06</totfact>
</mgrwt>
</event>
<event>
 3    1  0.1573868E-001  0.1250000E+03  0.7546771E-02  0.1235069E+00
         21   -1    0    0  502  501  0.00000000000E+00  0.00000000000E+00  0.61221332965E+01  0.61221332965E+01  0.00000000000E+00 0. -1.
         21   -1    0    0  501  502 -0.00000000000E+00 -0.00000000000E+00 -0.63805373239E+03  0.63805373239E+03  0.00000000000E+00 0. -1.
         25    1    1    2    0    0  0.00000000000E+00  0.00000000000E+00 -0.63193159909E+03  0.64417586569E+03  0.12500000000E+03 0.  0.
<mgrwt>
<rscale>  0 0.12500000E+03</rscale>
<asrwt>0</asrwt>
<pdfrwt beam="1">  1       21 0.94186769E-03 0.12500000E+03</pdfrwt>
<pdfrwt beam="2">  1       21 0.98162005E-01 0.12500000E+03</pdfrwt>
<totfact> 0.35167949E+06</totfact>
</mgrwt>
</event>
<event>
 3    1  0.1573868E-001  0.1250000E+03  0.7546771E-02  0.1235069E+00
         21   -1    0    0  502  501  0.00000000000E+00  0.00000000000E+00  0.31309895981E+02  0.31309895981E+02  0.00000000000E+00 0. -1.
         21   -1    0    0  501  502 -0.00000000000E+00 -0.00000000000E+00 -0.12476087440E+03  0.12476087440E+03  0.00000000000E+00 0. -1.
         25    1    1    2    0    0  0.00000000000E+00  0.00000000000E+00 -0.93450978420E+02  0.15607077038E+03  0.12500000000E+03 0.  0.
<mgrwt>
<rscale>  0 0.12500000E+03</rscale>
<asrwt>0</asrwt>
<pdfrwt beam="1">  1       21 0.48169071E-02 0.12500000E+03</pdfrwt>
<pdfrwt beam="2">  1       21 0.19193981E-01 0.12500000E+03</pdfrwt>
<totfact> 0.70002820E+06</totfact>
</mgrwt>
</event>
<event>
 3    1  0.1573868E-001  0.1250000E+03  0.7546771E-02  0.1235069E+00
         21   -1    0    0  502  501  0.00000000000E+00  0.00000000000E+00  0.16436580368E+02  0.16436580368E+02  0.00000000000E+00 0.  1.
         21   -1    0    0  501  502 -0.00000000000E+00 -0.00000000000E+00 -0.23765588173E+03  0.23765588173E+03  0.00000000000E+00 0.  1.
         25    1    1    2    0    0  0.00000000000E+00  0.00000000000E+00 -0.22121930136E+03  0.25409246209E+03  0.12500000000E+03 0.  0.
<mgrwt>
<rscale>  0 0.12500000E+03</rscale>
<asrwt>0</asrwt>
<pdfrwt beam="1">  1       21 0.25287046E-02 0.12500000E+03</pdfrwt>
<pdfrwt beam="2">  1       21 0.36562445E-01 0.12500000E+03</pdfrwt>
<totfact> 0.59495015E+06</totfact>
</mgrwt>
</event>
<event>
 3    1  0.1573868E-001  0.1250000E+03  0.7546771E-02  0.1235069E+00
         21   -1    0    0  502  501  0.00000000000E+00  0.00000000000E+00  0.46134143608E+02  0.46134143608E+02  0.00000000000E+00 0.  1.
         21   -1    0    0  501  502 -0.00000000000E+00 -0.00000000000E+00 -0.84671561982E+02  0.84671561982E+02  0.00000000000E+00 0.  1.
         25    1    1    2    0    0  0.00000000000E+00  0.00000000000E+00 -0.38537418373E+02  0.13080570559E+03  0.12500000000E+03 0.  0.
<mgrwt>
<rscale>  0 0.12500000E+03</rscale>
<asrwt>0</asrwt>
<pdfrwt beam="1">  1       21 0.70975606E-02 0.12500000E+03</pdfrwt>
<pdfrwt beam="2">  1       21 0.13026394E-01 0.12500000E+03</pdfrwt>
<totfact> 0.73256866E+06</totfact>
</mgrwt>
</event>
<event>
 3    1  0.1573868E-001  0.1250000E+03  0.7546771E-02  0.1235069E+00
         21   -1    0    0  502  501  0.00000000000E+00  0.00000000000E+00  0.47186049076E+03  0.47186049076E+03  0.00000000000E+00 0.  1.
         21   -1    0    0  501  502 -0.00000000000E+00 -0.00000000000E+00 -0.82784002401E+01  0.82784002401E+01  0.00000000000E+00 0.  1.
         25    1    1    2    0    0  0.00000000000E+00  0.00000000000E+00  0.46358209052E+03  0.48013889100E+03  0.12500000000E+03 0.  0.
<mgrwt>
<rscale>  0 0.12500000E+03</rscale>
<asrwt>0</asrwt>
<pdfrwt beam="1">  1       21 0.72593901E-01 0.12500000E+03</pdfrwt>
<pdfrwt beam="2">  1       21 0.12736004E-02 0.12500000E+03</pdfrwt>
<totfact> 0.43142085E+06</totfact>
</mgrwt>
</event>
<event>
 3    1  0.1573868E-001  0.1250000E+03  0.7546771E-02  0.1235069E+00
         21   -1    0    0  502  501  0.00000000000E+00  0.00000000000E+00  0.11061750652E+03  0.11061750652E+03  0.00000000000E+00 0.  1.
         21   -1    0    0  501  502 -0.00000000000E+00 -0.00000000000E+00 -0.35313126493E+02  0.35313126493E+02  0.00000000000E+00 0.  1.
         25    1    1    2    0    0  0.00000000000E+00  0.00000000000E+00  0.75304380024E+02  0.14593063301E+03  0.12500000000E+03 0.  0.
<mgrwt>
<rscale>  0 0.12500000E+03</rscale>
<asrwt>0</asrwt>
<pdfrwt beam="1">  1       21 0.17018078E-01 0.12500000E+03</pdfrwt>
<pdfrwt beam="2">  1       21 0.54327887E-02 0.12500000E+03</pdfrwt>
<totfact> 0.71274213E+06</totfact>
</mgrwt>
</event>
<event>
 3    1  0.1573868E-001  0.1250000E+03  0.7546771E-02  0.1235069E+00
         21   -1    0    0  502  501  0.00000000000E+00  0.00000000000E+00  0.11288128982E+04  0.11288128982E+04  0.00000000000E+00 0.  1.
         21   -1    0    0  501  502 -0.00000000000E+00 -0.00000000000E+00 -0.34604937686E+01  0.34604937686E+01  0.00000000000E+00 0.  1.
         25    1    1    2    0    0  0.00000000000E+00  0.00000000000E+00  0.11253524044E+04  0.11322733919E+04  0.12500000000E+03 0.  0.
<mgrwt>
<rscale>  0 0.12500000E+03</rscale>
<asrwt>0</asrwt>
<pdfrwt beam="1">  1       21 0.17366323E+00 0.12500000E+03</pdfrwt>
<pdfrwt beam="2">  1       21 0.53238456E-03 0.12500000E+03</pdfrwt>
<totfact> 0.20547399E+06</totfact>
</mgrwt>
</event>
<event>
 3    1  0.1573868E-001  0.1250000E+03  0.7546771E-02  0.1235069E+00
         21   -1    0    0  502  501  0.00000000000E+00  0.00000000000E+00  0.90147136205E+02  0.90147136205E+02  0.00000000000E+00 0.  1.
         21   -1    0    0  501  502 -0.00000000000E+00 -0.00000000000E+00 -0.43331936703E+02  0.43331936703E+02  0.00000000000E+00 0.  1.
         25    1    1    2    0    0  0.00000000000E+00  0.00000000000E+00  0.46815199502E+02  0.13347907291E+03  0.12500000000E+03 0.  0.
<mgrwt>
<rscale>  0 0.12500000E+03</rscale>
<asrwt>0</asrwt>
<pdfrwt beam="1">  1       21 0.13868790E-01 0.12500000E+03</pdfrwt>
<pdfrwt beam="2">  1       21 0.66664518E-02 0.12500000E+03</pdfrwt>
<totfact> 0.72898492E+06</totfact>
</mgrwt>
</event>
<event>
 3    1  0.1573868E-001  0.1250000E+03  0.7546771E-02  0.1235069E+00
         21   -1    0    0  502  501  0.00000000000E+00  0.00000000000E+00  0.17122749738E+02  0.17122749738E+02  0.00000000000E+00 0.  1.
         21   -1    0    0  501  502 -0.00000000000E+00 -0.00000000000E+00 -0.22813216684E+03  0.22813216684E+03  0.00000000000E+00 0.  1.
         25    1    1    2    0    0  0.00000000000E+00  0.00000000000E+00 -0.21100941711E+03  0.24525491658E+03  0.12500000000E+03 0.  0.
<mgrwt>
<rscale>  0 0.12500000E+03</rscale>
<asrwt>0</asrwt>
<pdfrwt beam="1">  1       21 0.26342694E-02 0.12500000E+03</pdfrwt>
<pdfrwt beam="2">  1       21 0.35097254E-01 0.12500000E+03</pdfrwt>
<totfact> 0.60327832E+06</totfact>
</mgrwt>
</event>
<event>
 3    1  0.1573868E-001  0.1250000E+03  0.7546771E-02  0.1235069E+00
         21   -1    0    0  502  501  0.00000000000E+00  0.00000000000E+00  0.15763115979E+02  0.15763115979E+02  0.00000000000E+00 0. -1.
         21   -1    0    0  501  502 -0.00000000000E+00 -0.00000000000E+00 -0.24780950703E+03  0.24780950703E+03  0.00000000000E+00 0. -1.
         25    1    1    2    0    0  0.00000000000E+00  0.00000000000E+00 -0.23204639105E+03  0.26357262301E+03  0.12500000000E+03 0.  0.
<mgrwt>
<rscale>  0 0.12500000E+03</rscale>
<asrwt>0</asrwt>
<pdfrwt beam="1">  1       21 0.24250952E-02 0.12500000E+03</pdfrwt>
<pdfrwt beam="2">  1       21 0.38124533E-01 0.12500000E+03</pdfrwt>
<totfact> 0.58623364E+06</totfact>
</mgrwt>
</event>
<event>
 3    1  0.1573868E-001  0.1250000E+03  0.7546771E-02  0.1235069E+00
         21   -1    0    0  502  501  0.00000000000E+00  0.00000000000E+00  0.39602612317E+03  0.39602612317E+03  0.00000000000E+00 0. -1.
         21   -1    0    0  501  502 -0.00000000000E+00 -0.00000000000E+00 -0.98636169976E+01  0.98636169976E+01  0.00000000000E+00 0. -1.
         25    1    1    2    0    0  0.00000000000E+00  0.00000000000E+00  0.38616250617E+03  0.40588974017E+03  0.12500000000E+03 0.  0.
<mgrwt>
<rscale>  0 0.12500000E+03</rscale>
<asrwt>0</asrwt>
<pdfrwt beam="1">  1       21 0.60927084E-01 0.12500000E+03</pdfrwt>
<pdfrwt beam="2">  1       21 0.15174798E-02 0.12500000E+03</pdfrwt>
<totfact> 0.47653134E+06</totfact>
</mgrwt>
</event>
<event>
 3    1  0.1573868E-001  0.1250000E+03  0.7546771E-02  0.1235069E+00
         21   -1    0    0  502  501  0.00000000000E+00  0.00000000000E+00  0.38534518275E+03  0.38534518275E+03  0.00000000000E+00 0. -1.
         21   -1    0    0  501  502 -0.00000000000E+00 -0.00000000000E+00 -0.10137015266E+02  0.10137015266E+02  0.00000000000E+00 0. -1.
         25    1    1    2    0    0  0.00000000000E+00  0.00000000000E+00  0.37520816748E+03  0.39548219801E+03  0.12500000000E+03 0.  0.
<mgrwt>
<rscale>  0 0.12500000E+03</rscale>
<asrwt>0</asrwt>
<pdfrwt beam="1">  1       21 0.59283863E-01 0.12500000E+03</pdfrwt>
<pdfrwt beam="2">  1       21 0.15595411E-02 0.12500000E+03</pdfrwt>
<totfact> 0.48342467E+06</totfact>
</mgrwt>
</event>
<event>
 3    1  0.1573868E-001  0.1250000E+03  0.7546771E-02  0.1235069E+00
         21   -1    0    0  502  501  0.00000000000E+00  0.00000000000E+00  0.32422744905E+01  0.32422744905E+01  0.00000000000E+00 0.  1.
         21   -1    0    0  501  502 -0.00000000000E+00 -0.00000000000E+00 -0.12047869517E+04  0.12047869517E+04  0.00000000000E+00 0.  1.
         25    1    1    2    0    0  0.00000000000E+00  0.00000000000E+00 -0.12015446772E+04  0.12080292262E+04  0.12500000000E+03 0.  0.
<mgrwt>
<rscale>  0 0.12500000E+03</rscale>
<asrwt>0</asrwt>
<pdfrwt beam="1">  1       21 0.49881191E-03 0.12500000E+03</pdfrwt>
<pdfrwt beam="2">  1       21 0.18535167E+00 0.12500000E+03</pdfrwt>
<totfact> 0.18984110E+06</totfact>
</mgrwt>
</event>
<event>
 3    1  0.1573868E-001  0.1250000E+03  0.7546771E-02  0.1235069E+00
         21   -1    0    0  502  501  0.00000000000E+00  0.00000000000E+00  0.25040456474E+02  0.25040456474E+02  0.00000000000E+00 0.  1.
         21   -1    0    0  501  502 -0.00000000000E+00 -0.00000000000E+00 -0.15599755556E+03  0.15599755556E+03  0.00000000000E+00 0.  1.
         25    1    1    2    0    0  0.00000000000E+00  0.00000000000E+00 -0.13095709908E+03  0.18103801203E+03  0.12500000000E+03 0.  0.
<mgrwt>
<rscale>  0 0.12500000E+03</rscale>
<asrwt>0</asrwt>
<pdfrwt beam="1">  1       21 0.38523779E-02 0.12500000E+03</pdfrwt>
<pdfrwt beam="2">  1       21 0.23999624E-01 0.12500000E+03</pdfrwt>
<totfact> 0.67032658E+06</totfact>
</mgrwt>
</event>
<event>
 3    1  0.1573868E-001  0.1250000E+03  0.7546771E-02  0.1235069E+00
         21   -1    0    0  502  501  0.00000000000E+00  0.00000000000E+00  0.39378149444E+02  0.39378149444E+02  0.00000000000E+00 0.  1.
         21   -1    0    0  501  502 -0.00000000000E+00 -0.00000000000E+00 -0.99198414733E+02  0.99198414733E+02  0.00000000000E+00 0.  1.
         25    1    1    2    0    0  0.00000000000E+00  0.00000000000E+00 -0.59820265289E+02  0.13857656418E+03  0.12500000000E+03 0.  0.
<mgrwt>
<rscale>  0 0.12500000E+03</rscale>
<asrwt>0</asrwt>
<pdfrwt beam="1">  1       21 0.60581769E-02 0.12500000E+03</pdfrwt>
<pdfrwt beam="2">  1       21 0.15261294E-01 0.12500000E+03</pdfrwt>
<totfact> 0.72225684E+06</totfact>
</mgrwt>
</event>
<event>
 3    1  0.1573868E-001  0.1250000E+03  0.7546771E-02  0.1235069E+00
         21   -1    0    0  502  501  0.00000000000E+00  0.00000000000E+00  0.25827425608E+02  0.25827425608E+02  0.00000000000E+00 0.  1.
         21   -1    0    0  501  502 -0.00000000000E+00 -0.00000000000E+00 -0.15124426489E+03  0.15124426489E+03  0.00000000000E+00 0.  1.
         25    1    1    2    0    0  0.00000000000E+00  0.00000000000E+00 -0.12541683928E+03  0.17707169050E+03  0.12500000000E+03 0.  0.
<mgrwt>
<rscale>  0 0.12500000E+03</rscale>
<asrwt>0</asrwt>
<pdfrwt beam="1">  1       21 0.39734501E-02 0.12500000E+03</pdfrwt>
<pdfrwt beam="2">  1       21 0.23268349E-01 0.12500000E+03</pdfrwt>
<totfact> 0.67489060E+06</totfact>
</mgrwt>
</event>
<event>
 3    1  0.1573868E-001  0.1250000E+03  0.7546771E-02  0.1235069E+00
         21   -1    0    0  502  501  0.00000000000E+00  0.00000000000E+00  0.25419687464E+03  0.25419687464E+03  0.00000000000E+00 0.  1.
         21   -1    0    0  501  502 -0.00000000000E+00 -0.00000000000E+00 -0.15367026072E+02  0.15367026072E+02  0.00000000000E+00 0.  1.
         25    1    1    2    0    0  0.00000000000E+00  0.00000000000E+00  0.23882984856E+03  0.26956390071E+03  0.12500000000E+03 0.  0.
<mgrwt>
<rscale>  0 0.12500000E+03</rscale>
<asrwt>0</asrwt>
<pdfrwt beam="1">  1       21 0.39107208E-01 0.12500000E+03</pdfrwt>
<pdfrwt beam="2">  1       21 0.23641580E-02 0.12500000E+03</pdfrwt>
<totfact> 0.58083625E+06</totfact>
</mgrwt>
</event>
<event>
 3    1  0.1573868E-001  0.1250000E+03  0.7546771E-02  0.1235069E+00
         21   -1    0    0  502  501  0.00000000000E+00  0.00000000000E+00  0.15662909506E+03  0.15662909506E+03  0.00000000000E+00 0. -1.
         21   -1    0    0  501  502 -0.00000000000E+00 -0.00000000000E+00 -0.24939491597E+02  0.24939491597E+02  0.00000000000E+00 0. -1.
         25    1    1    2    0    0  0.00000000000E+00  0.00000000000E+00  0.13168960346E+03  0.18156858665E+03  0.12500000000E+03 0.  0.
<mgrwt>
<rscale>  0 0.12500000E+03</rscale>
<asrwt>0</asrwt>
<pdfrwt beam="1">  1       21 0.24096783E-01 0.12500000E+03</pdfrwt>
<pdfrwt beam="2">  1       21 0.38368450E-02 0.12500000E+03</pdfrwt>
<totfact> 0.66972048E+06</totfact>
</mgrwt>
</event>
<event>
 3    1  0.1573868E-001  0.1250000E+03  0.7546771E-02  0.1235069E+00
         21   -1    0    0  502  501  0.00000000000E+00  0.00000000000E+00  0.16020449427E+03  0.16020449427E+03  0.00000000000E+00 0. -1.
         21   -1    0    0  501  502 -0.00000000000E+00 -0.00000000000E+00 -0.24382898981E+02  0.24382898981E+02  0.00000000000E+00 0. -1.
         25    1    1    2    0    0  0.00000000000E+00  0.00000000000E+00  0.13582159529E+03  0.18458739325E+03  0.12500000000E+03 0.  0.
<mgrwt>
<rscale>  0 0.12500000E+03</rscale>
<asrwt>0</asrwt>
<pdfrwt beam="1">  1       21 0.24646845E-01 0.12500000E+03</pdfrwt>
<pdfrwt beam="2">  1       21 0.37512153E-02 0.12500000E+03</pdfrwt>
<totfact> 0.66629143E+06</totfact>
</mgrwt>
</event>
<event>
 3    1  0.1573868E-001  0.1250000E+03  0.7546771E-02  0.1235069E+00
         21   -1    0    0  502  501  0.00000000000E+00  0.00000000000E+00  0.19139485819E+02  0.19139485819E+02  0.00000000000E+00 0.  1.
         21   -1    0    0  501  502 -0.00000000000E+00 -0.00000000000E+00 -0.20409377958E+03  0.20409377958E+03  0.00000000000E+00 0.  1.
         25    1    1    2    0    0  0.00000000000E+00  0.00000000000E+00 -0.18495429376E+03  0.22323326540E+03  0.12500000000E+03 0.  0.
<mgrwt>
<rscale>  0 0.12500000E+03</rscale>
<asrwt>0</asrwt>
<pdfrwt beam="1">  1       21 0.29445364E-02 0.12500000E+03</pdfrwt>
<pdfrwt beam="2">  1       21 0.31399042E-01 0.12500000E+03</pdfrwt>
<totfact> 0.62493574E+06</totfact>
</mgrwt>
</event>
<event>
 3    1  0.1573868E-001  0.1250000E+03  0.7546771E-02  0.1235069E+00
         21   -1    0    0  502  501  0.00000000000E+00  0.00000000000E+00  0.12775794507E+02  0.12775794507E+02  0.00000000000E+00 0.  1.
         21   -1    0    0  501  502 -0.00000000000E+00 -0.00000000000E+00 -0.30575397858E+03  0.30575397858E+03  0.00000000000E+00 0.  1.
         25    1    1    2    0    0  0.00000000000E+00  0.00000000000E+00 -0.29297818407E+03  0.31852977309E+03  0.12500000000E+03 0.  0.
<mgrwt>
<rscale>  0 0.12500000E+03</rscale>
<asrwt>0</asrwt>
<pdfrwt beam="1">  1       21 0.19655069E-02 0.12500000E+03</pdfrwt>
<pdfrwt beam="2">  1       21 0.47039072E-01 0.12500000E+03</pdfrwt>
<totfact> 0.53950057E+06</totfact>
</mgrwt>
</event>
<event>
 3    1  0.1573868E-001  0.1250000E+03  0.7546771E-02  0.1235069E+00
         21   -1    0    0  502  501  0.00000000000E+00  0.00000000000E+00  0.14457741266E+02  0.14457741266E+02  0.00000000000E+00 0. -1.
         21   -1    0    0  501  502 -0.00000000000E+00 -0.00000000000E+00 -0.27018397467E+03  0.27018397467E+03  0.00000000000E+00 0. -1.
         25    1    1    2    0    0  0.00000000000E+00  0.00000000000E+00 -0.25572623341E+03  0.28464171594E+03  0.12500000000E+03 0.  0.
<mgrwt>
<rscale>  0 0.12500000E+03</rscale>
<asrwt>0</asrwt>
<pdfrwt beam="1">  1       21 0.22242682E-02 0.12500000E+03</pdfrwt>
<pdfrwt beam="2">  1       21 0.41566759E-01 0.12500000E+03</pdfrwt>
<totfact> 0.56757160E+06</totfact>
</mgrwt>
</event>
<event>
 3    1  0.1573868E-001  0.1250000E+03  0.7546771E-02  0.1235069E+00
         21   -1    0    0  502  501  0.00000000000E+00  0.00000000000E+00  0.18749475675E+03  0.18749475675E+03  0.00000000000E+00 0. -1.
         21   -1    0    0  501  502 -0.00000000000E+00 -0.00000000000E+00 -0.20833915933E+02  0.20833915933E+02  0.00000000000E+00 0. -1.
         25    1    1    2    0    0  0.00000000000E+00  0.00000000000E+00  0.16666084082E+03  0.20832867268E+03  0.12500000000E+03 0.  0.
<mgrwt>
<rscale>  0 0.12500000E+03</rscale>
<asrwt>0</asrwt>
<pdfrwt beam="1">  1       21 0.28845346E-01 0.12500000E+03</pdfrwt>
<pdfrwt beam="2">  1       21 0.32052179E-02 0.12500000E+03</pdfrwt>
<totfact> 0.64035809E+06</totfact>
</mgrwt>
</event>
<event>
 3    1  0.1573868E-001  0.1250000E+03  0.7546771E-02  0.1235069E+00
         21   -1    0    0  502  501  0.00000000000E+00  0.00000000000E+00  0.94251046908E+02  0.94251046908E+02  0.00000000000E+00 0. -1.
         21   -1    0    0  501  502 -0.00000000000E+00 -0.00000000000E+00 -0.41445162979E+02  0.41445162979E+02  0.00000000000E+00 0. -1.
         25    1    1    2    0    0  0.00000000000E+00  0.00000000000E+00  0.52805883929E+02  0.13569620989E+03  0.12500000000E+03 0.  0.
<mgrwt>
<rscale>  0 0.12500000E+03</rscale>
<asrwt>0</asrwt>
<pdfrwt beam="1">  1       21 0.14500161E-01 0.12500000E+03</pdfrwt>
<pdfrwt beam="2">  1       21 0.63761789E-02 0.12500000E+03</pdfrwt>
<totfact> 0.72604420E+06</totfact>
</mgrwt>
</event>
<event>
 3    1  0.1573868E-001  0.1250000E+03  0.7546771E-02  0.1235069E+00
         21   -1    0    0  502  501  0.00000000000E+00  0.00000000000E+00  0.14674332102E+03  0.14674332102E+03  0.00000000000E+00 0.  1.
         21   -1    0    0  501  502 -0.00000000000E+00 -0.00000000000E+00 -0.26619610166E+02  0.26619610166E+02  0.00000000000E+00 0.  1.
         25    1    1    2    0    0  0.00000000000E+00  0.00000000000E+00  0.12012371085E+03  0.17336293119E+03  0.12500000000E+03 0.  0.
<mgrwt>
<rscale>  0 0.12500000E+03</rscale>
<asrwt>0</asrwt>
<pdfrwt beam="1">  1       21 0.22575895E-01 0.12500000E+03</pdfrwt>
<pdfrwt beam="2">  1       21 0.40953247E-02 0.12500000E+03</pdfrwt>
<totfact> 0.67921198E+06</totfact>
</mgrwt>
</event>
<event>
 3    1  0.1573868E-001  0.1250000E+03  0.7546771E-02  0.1235069E+00
         21   -1    0    0  502  501  0.00000000000E+00  0.00000000000E+00  0.39306195708E+02  0.39306195708E+02  0.00000000000E+00 0.  1.
         21   -1    0    0  501  502 -0.00000000000E+00 -0.00000000000E+00 -0.99380006883E+02  0.99380006883E+02  0.00000000000E+00 0.  1.
         25    1    1    2    0    0  0.00000000000E+00  0.00000000000E+00 -0.60073811175E+02  0.13868620259E+03  0.12500000000E+03 0.  0.
<mgrwt>
<rscale>  0 0.12500000E+03</rscale>
<asrwt>0</asrwt>
<pdfrwt beam="1">  1       21 0.60471070E-02 0.12500000E+03</pdfrwt>
<pdfrwt beam="2">  1       21 0.15289232E-01 0.12500000E+03</pdfrwt>
<totfact> 0.72211289E+06</totfact>
</mgrwt>
</event>
<event>
 3    1  0.1573868E-001  0.1250000E+03  0.7546771E-02  0.1235069E+00
         21   -1    0    0  502  501  0.00000000000E+00  0.00000000000E+00  0.59486427149E+03  0.59486427149E+03  0.00000000000E+00 0. -1.
         21   -1    0    0  501  502 -0.00000000000E+00 -0.00000000000E+00 -0.65666239967E+01  0.65666239967E+01  0.00000000000E+00 0. -1.
         25    1    1    2    0    0  0.00000000000E+00  0.00000000000E+00  0.58829764750E+03  0.60143089549E+03  0.12500000000E+03 0.  0.
<mgrwt>
<rscale>  0 0.12500000E+03</rscale>
<asrwt>0</asrwt>
<pdfrwt beam="1">  1       21 0.91517537E-01 0.12500000E+03</pdfrwt>
<pdfrwt beam="2">  1       21 0.10102503E-02 0.12500000E+03</pdfrwt>
<totfact> 0.37028013E+06</totfact>
</mgrwt>
</event>
<event>
 3    1  0.1573868E-001  0.1250000E+03  0.7546771E-02  0.1235069E+00
         21   -1    0    0  502  501  0.00000000000E+00  0.00000000000E+00  0.31863028406E+02  0.31863028406E+02  0.00000000000E+00 0.  1.
         21   -1    0    0  501  502 -0.00000000000E+00 -0.00000000000E+00 -0.12259506379E+03  0.12259506379E+03  0.00000000000E+00 0.  1.
         25    1    1    2    0    0  0.00000000000E+00  0.00000000000E+00 -0.90732035387E+02  0.15445809220E+03  0.12500000000E+03 0.  0.
<mgrwt>
<rscale>  0 0.12500000E+03</rscale>
<asrwt>0</asrwt>
<pdfrwt beam="1">  1       21 0.49020043E-02 0.12500000E+03</pdfrwt>
<pdfrwt beam="2">  1       21 0.18860779E-01 0.12500000E+03</pdfrwt>
<totfact> 0.70203073E+06</totfact>
</mgrwt>
</event>
<event>
 3    1  0.1573868E-001  0.1250000E+03  0.7546771E-02  0.1235069E+00
         21   -1    0    0  502  501  0.00000000000E+00  0.00000000000E+00  0.27372997709E+02  0.27372997709E+02  0.00000000000E+00 0.  1.
         21   -1    0    0  501  502 -0.00000000000E+00 -0.00000000000E+00 -0.14270450177E+03  0.14270450177E+03  0.00000000000E+00 0.  1.
         25    1    1    2    0    0  0.00000000000E+00  0.00000000000E+00 -0.11533150406E+03  0.17007749948E+03  0.12500000000E+03 0.  0.
<mgrwt>
<rscale>  0 0.12500000E+03</rscale>
<asrwt>0</asrwt>
<pdfrwt beam="1">  1       21 0.42112304E-02 0.12500000E+03</pdfrwt>
<pdfrwt beam="2">  1       21 0.21954539E-01 0.12500000E+03</pdfrwt>
<totfact> 0.68308449E+06</totfact>
</mgrwt>
</event>
<event>
 3    1  0.1573868E-001  0.1250000E+03  0.7546771E-02  0.1235069E+00
         21   -1    0    0  502  501  0.00000000000E+00  0.00000000000E+00  0.10922457542E+03  0.10922457542E+03  0.00000000000E+00 0. -1.
         21   -1    0    0  501  502 -0.00000000000E+00 -0.00000000000E+00 -0.35763471591E+02  0.35763471591E+02  0.00000000000E+00 0. -1.
         25    1    1    2    0    0  0.00000000000E+00  0.00000000000E+00  0.73461103827E+02  0.14498804701E+03  0.12500000000E+03 0.  0.
<mgrwt>
<rscale>  0 0.12500000E+03</rscale>
<asrwt>0</asrwt>
<pdfrwt beam="1">  1       21 0.16803781E-01 0.12500000E+03</pdfrwt>
<pdfrwt beam="2">  1       21 0.55020726E-02 0.12500000E+03</pdfrwt>
<totfact> 0.71394628E+06</totfact>
</mgrwt>
</event>
<event>
 3    1  0.1573868E-001  0.1250000E+03  0.7546771E-02  0.1235069E+00
         21   -1    0    0  502  501  0.00000000000E+00  0.00000000000E+00  0.24474669035E+02  0.24474669035E+02  0.00000000000E+00 0. -1.
         21   -1    0    0  501  502 -0.00000000000E+00 -0.00000000000E+00 -0.15960379258E+03  0.15960379258E+03  0.00000000000E+00 0. -1.
         25    1    1    2    0    0  0.00000000000E+00  0.00000000000E+00 -0.13512912354E+03  0.18407846161E+03  0.12500000000E+03 0.  0.
<mgrwt>
<rscale>  0 0.12500000E+03</rscale>
<asrwt>0</asrwt>
<pdfrwt beam="1">  1       21 0.37653339E-02 0.12500000E+03</pdfrwt>
<pdfrwt beam="2">  1       21 0.24554428E-01 0.12500000E+03</pdfrwt>
<totfact> 0.66686721E+06</totfact>
</mgrwt>
</event>
<event>
 3    1  0.1573868E-001  0.1250000E+03  0.7546771E-02  0.1235069E+00
         21   -1    0    0  502  501  0.00000000000E+00  0.00000000000E+00  0.62858108014E+02  0.62858108014E+02  0.00000000000E+00 0. -1.
         21   -1    0    0  501  502 -0.00000000000E+00 -0.00000000000E+00 -0.62143932158E+02  0.62143932158E+02  0.00000000000E+00 0. -1.
         25    1    1    2    0    0  0.00000000000E+00  0.00000000000E+00  0.71417585561E+00  0.12500204017E+03  0.12500000000E+03 0.  0.
<mgrwt>
<rscale>  0 0.12500000E+03</rscale>
<asrwt>0</asrwt>
<pdfrwt beam="1">  1       21 0.96704781E-02 0.12500000E+03</pdfrwt>
<pdfrwt beam="2">  1       21 0.95606050E-02 0.12500000E+03</pdfrwt>
<totfact> 0.74043306E+06</totfact>
</mgrwt>
</event>
<event>
 3    1  0.1573868E-001  0.1250000E+03  0.7546771E-02  0.1235069E+00
         21   -1    0    0  502  501  0.00000000000E+00  0.00000000000E+00  0.23050753665E+02  0.23050753665E+02  0.00000000000E+00 0.  1.
         21   -1    0    0  501  502 -0.00000000000E+00 -0.00000000000E+00 -0.16946300571E+03  0.16946300571E+03  0.00000000000E+00 0.  1.
         25    1    1    2    0    0  0.00000000000E+00  0.00000000000E+00 -0.14641225205E+03  0.19251375938E+03  0.12500000000E+03 0.  0.
<mgrwt>
<rscale>  0 0.12500000E+03</rscale>
<asrwt>0</asrwt>
<pdfrwt beam="1">  1       21 0.35462697E-02 0.12500000E+03</pdfrwt>
<pdfrwt beam="2">  1       21 0.26071232E-01 0.12500000E+03</pdfrwt>
<totfact> 0.65744167E+06</totfact>
</mgrwt>
</event>
<event>
 3    1  0.1573868E-001  0.1250000E+03  0.7546771E-02  0.1235069E+00
         21   -1    0    0  502  501  0.00000000000E+00  0.00000000000E+00  0.24053913669E+03  0.24053913669E+03  0.00000000000E+00 0.  1.
         21   -1    0    0  501  502 -0.00000000000E+00 -0.00000000000E+00 -0.16239561070E+02  0.16239561070E+02  0.00000000000E+00 0.  1.
         25    1    1    2    0    0  0.00000000000E+00  0.00000000000E+00  0.22429957562E+03  0.25677869776E+03  0.12500000000E+03 0.  0.
<mgrwt>
<rscale>  0 0.12500000E+03</rscale>
<asrwt>0</asrwt>
<pdfrwt beam="1">  1       21 0.37006018E-01 0.12500000E+03</pdfrwt>
<pdfrwt beam="2">  1       21 0.24983942E-02 0.12500000E+03</pdfrwt>
<totfact> 0.59245792E+06</totfact>
</mgrwt>
</event>
<event>
 3    1  0.1573868E-001  0.1250000E+03  0.7546771E-02  0.1235069E+00
         21   -1    0    0  502  501  0.00000000000E+00  0.00000000000E+00  0.41011788505E+02  0.41011788505E+02  0.00000000000E+00 0. -1.
         21   -1    0    0  501  502 -0.00000000000E+00 -0.00000000000E+00 -0.95247004395E+02  0.95247004395E+02  0.00000000000E+00 0. -1.
         25    1    1    2    0    0  0.00000000000E+00  0.00000000000E+00 -0.54235215890E+02  0.13625879290E+03  0.12500000000E+03 0.  0.
<mgrwt>
<rscale>  0 0.12500000E+03</rscale>
<asrwt>0</asrwt>
<pdfrwt beam="1">  1       21 0.63095059E-02 0.12500000E+03</pdfrwt>
<pdfrwt beam="2">  1       21 0.14653385E-01 0.12500000E+03</pdfrwt>
<totfact> 0.72530226E+06</totfact>
</mgrwt>
</event>
<event>
 3    1  0.1573868E-001  0.1250000E+03  0.7546771E-02  0.1235069E+00
         21   -1    0    0  502  501  0.00000000000E+00  0.00000000000E+00  0.15259728474E+02  0.15259728474E+02  0.00000000000E+00 0. -1.
         21   -1    0    0  501  502 -0.00000000000E+00 -0.00000000000E+00 -0.25598424026E+03  0.25598424026E+03  0.00000000000E+00 0. -1.
         25    1    1    2    0    0  0.00000000000E+00  0.00000000000E+00 -0.24072451179E+03  0.27124396874E+03  0.12500000000E+03 0.  0.
<mgrwt>
<rscale>  0 0.12500000E+03</rscale>
<asrwt>0</asrwt>
<pdfrwt beam="1">  1       21 0.23476508E-02 0.12500000E+03</pdfrwt>
<pdfrwt beam="2">  1       21 0.39382186E-01 0.12500000E+03</pdfrwt>
<totfact> 0.57933777E+06</totfact>
</mgrwt>
</event>
<event>
 3    1  0.1573868E-001  0.1250000E+03  0.7546771E-02  0.1235069E+00
         21   -1    0    0  502  501  0.00000000000E+00  0.00000000000E+00  0.63183720928E+01  0.63183720928E+01  0.00000000000E+00 0.  1.
         21   -1    0    0  501  502 -0.00000000000E+00 -0.00000000000E+00 -0.61823677723E+03  0.61823677723E+03  0.00000000000E+00 0.  1.
         25    1    1    2    0    0  0.00000000000E+00  0.00000000000E+00 -0.61191840514E+03  0.62455514933E+03  0.12500000000E+03 0.  0.
<mgrwt>
<rscale>  0 0.12500000E+03</rscale>
<asrwt>0</asrwt>
<pdfrwt beam="1">  1       21 0.97205758E-03 0.12500000E+03</pdfrwt>
<pdfrwt beam="2">  1       21 0.95113318E-01 0.12500000E+03</pdfrwt>
<totfact> 0.36005194E+06</totfact>
</mgrwt>
</event>
<event>
 3    1  0.1573868E-001  0.1250000E+03  0.7546771E-02  0.1235069E+00
         21   -1    0    0  502  501  0.00000000000E+00  0.00000000000E+00  0.19674619223E+03  0.19674619223E+03  0.00000000000E+00 0.  1.
         21   -1    0    0  501  502 -0.00000000000E+00 -0.00000000000E+00 -0.19854259723E+02  0.19854259723E+02  0.00000000000E+00 0.  1.
         25    1    1    2    0    0  0.00000000000E+00  0.00000000000E+00  0.17689193251E+03  0.21660045195E+03  0.12500000000E+03 0.  0.
<mgrwt>
<rscale>  0 0.12500000E+03</rscale>
<asrwt>0</asrwt>
<pdfrwt beam="1">  1       21 0.30268644E-01 0.12500000E+03</pdfrwt>
<pdfrwt beam="2">  1       21 0.30545016E-02 0.12500000E+03</pdfrwt>
<totfact> 0.63171715E+06</totfact>
</mgrwt>
</event>
<event>
 3    1  0.1573868E-001  0.1250000E+03  0.7546771E-02  0.1235069E+00
         21   -1    0    0  502  501  0.00000000000E+00  0.00000000000E+00  0.53715417688E+02  0.53715417688E+02  0.00000000000E+00 0. -1.
         21   -1    0    0  501  502 -0.00000000000E+00 -0.00000000000E+00 -0.72721206836E+02  0.72721206836E+02  0.00000000000E+00 0. -1.
         25    1    1    2    0    0  0.00000000000E+00  0.00000000000E+00 -0.19005789148E+02  0.12643662452E+03  0.12500000000E+03 0.  0.
<mgrwt>
<rscale>  0 0.12500000E+03</rscale>
<asrwt>0</asrwt>
<pdfrwt beam="1">  1       21 0.82639104E-02 0.12500000E+03</pdfrwt>
<pdfrwt beam="2">  1       21 0.11187878E-01 0.12500000E+03</pdfrwt>
<totfact> 0.73846050E+06</totfact>
</mgrwt>
</event>
<event>
 3    1  0.1573868E-001  0.1250000E+03  0.7546771E-02  0.1235069E+00
         21   -1    0    0  502  501  0.00000000000E+00  0.00000000000E+00  0.41478711554E+03  0.41478711554E+03  0.00000000000E+00 0.  1.
         21   -1    0    0  501  502 -0.00000000000E+00 -0.00000000000E+00 -0.94174815312E+01  0.94174815312E+01  0.00000000000E+00 0.  1.
         25    1    1    2    0    0  0.00000000000E+00  0.00000000000E+00  0.40536963401E+03  0.42420459707E+03  0.12500000000E+03 0.  0.
<mgrwt>
<rscale>  0 0.12500000E+03</rscale>
<asrwt>0</asrwt>
<pdfrwt beam="1">  1       21 0.63813388E-01 0.12500000E+03</pdfrwt>
<pdfrwt beam="2">  1       21 0.14488436E-02 0.12500000E+03</pdfrwt>
<totfact> 0.46476265E+06</totfact>
</mgrwt>
</event>
<event>
 3    1  0.1573868E-001  0.1250000E+03  0.7546771E-02  0.1235069E+00
         21   -1    0    0  502  501  0.00000000000E+00  0.00000000000E+00  0.13429992361E+03  0.13429992361E+03  0.00000000000E+00 0. -1.
         21   -1    0    0  501  502 -0.00000000000E+00 -0.00000000000E+00 -0.29086018034E+02  0.29086018034E+02  0.00000000000E+00 0. -1.
         25    1    1    2    0    0  0.00000000000E+00  0.00000000000E+00  0.10521390557E+03  0.16338594164E+03  0.12500000000E+03 0.  0.
<mgrwt>
<rscale>  0 0.12500000E+03</rscale>
<asrwt>0</asrwt>
<pdfrwt beam="1">  1       21 0.20661526E-01 0.12500000E+03</pdfrwt>
<pdfrwt beam="2">  1       21 0.44747721E-02 0.12500000E+03</pdfrwt>
<totfact> 0.69108119E+06</totfact>
</mgrwt>
</event>
<event>
 3    1  0.1573868E-001  0.1250000E+03  0.7546771E-02  0.1235069E+00
         21   -1    0    0  502  501  0.00000000000E+00  0.00000000000E+00  0.12955531903E+03  0.12955531903E+03  0.00000000000E+00 0. -1.
         21   -1    0    0  501  502 -0.00000000000E+00 -0.00000000000E+00 -0.30151212852E+02  0.30151212852E+02  0.00000000000E+00 0. -1.
         25    1    1    2    0    0  0.00000000000E+00  0.00000000000E+00  0.99404106175E+02  0.15970653188E+03  0.12500000000E+03 0.  0.
<mgrwt>
<rscale>  0 0.12500000E+03</rscale>
<asrwt>0</asrwt>
<pdfrwt beam="1">  1       21 0.19931587E-01 0.12500000E+03</pdfrwt>
<pdfrwt beam="2">  1       21 0.46386482E-02 0.12500000E+03</pdfrwt>
<totfact> 0.69555372E+06</totfact>
</mgrwt>
</event>
<event>
 3    1  0.1573868E-001  0.1250000E+03  0.7546771E-02  0.1235069E+00
         21   -1    0    0  502  501  0.00000000000E+00  0.00000000000E+00  0.21876501756E+03  0.21876501756E+03  0.00000000000E+00 0. -1.
         21   -1    0    0  501  502 -0.00000000000E+00 -0.00000000000E+00 -0.17855917018E+02  0.17855917018E+02  0.00000000000E+00 0. -1.
         25    1    1    2    0    0  0.00000000000E+00  0.00000000000E+00  0.20090910054E+03  0.23662093458E+03  0.12500000000E+03 0.  0.
<mgrwt>
<rscale>  0 0.12500000E+03</rscale>
<asrwt>0</asrwt>
<pdfrwt beam="1">  1       21 0.33656155E-01 0.12500000E+03</pdfrwt>
<pdfrwt beam="2">  1       21 0.27470643E-02 0.12500000E+03</pdfrwt>
<totfact> 0.61161189E+06</totfact>
</mgrwt>
</event>
<event>
 3    1  0.1573868E-001  0.1250000E+03  0.7546771E-02  0.1235069E+00
         21   -1    0    0  502  501  0.00000000000E+00  0.00000000000E+00  0.12572493488E+04  0.12572493488E+04  0.00000000000E+00 0. -1.
         21   -1    0    0  501  502 -0.00000000000E+00 -0.00000000000E+00 -0.31069811282E+01  0.31069811282E+01  0.00000000000E+00 0. -1.
         25    1    1    2    0    0  0.00000000000E+00  0.00000000000E+00  0.12541423676E+04  0.12603563299E+04  0.12500000000E+03 0.  0.
<mgrwt>
<rscale>  0 0.12500000E+03</rscale>
<asrwt>0</asrwt>
<pdfrwt beam="1">  1       21 0.19342257E+00 0.12500000E+03</pdfrwt>
<pdfrwt beam="2">  1       21 0.47799810E-03 0.12500000E+03</pdfrwt>
<totfact> 0.17979539E+06</totfact>
</mgrwt>
</event>
<event>
 3    1  0.1573868E-001  0.1250000E+03  0.7546771E-02  0.1235069E+00
         21   -1    0    0  502  501  0.00000000000E+00  0.00000000000E+00  0.66754926842E+02  0.66754926842E+02  0.00000000000E+00 0.  1.
         21   -1    0    0  501  502 -0.00000000000E+00 -0.00000000000E+00 -0.58516280143E+02  0.58516280143E+02  0.00000000000E+00 0.  1.
         25    1    1    2    0    0  0.00000000000E+00  0.00000000000E+00  0.82386466984E+01  0.12527120698E+03  0.12500000000E+03 0.  0.
<mgrwt>
<rscale>  0 0.12500000E+03</rscale>
<asrwt>0</asrwt>
<pdfrwt beam="1">  1       21 0.10269989E-01 0.12500000E+03</pdfrwt>
<pdfrwt beam="2">  1       21 0.90025047E-02 0.12500000E+03</pdfrwt>
<totfact> 0.74006958E+06</totfact>
</mgrwt>
</event>
<event>
 3    1  0.1573868E-001  0.1250000E+03  0.7546771E-02  0.1235069E+00
         21   -1    0    0  502  501  0.00000000000E+00  0.00000000000E+00  0.23730715489E+03  0.23730715489E+03  0.00000000000E+00 0.  1.
         21   -1    0    0  501  502 -0.00000000000E+00 -0.00000000000E+00 -0.16460734198E+02  0.16460734198E+02  0.00000000000E+00 0.  1.
         25    1    1    2    0    0  0.00000000000E+00  0.00000000000E+00  0.22084642069E+03  0.25376788909E+03  0.12500000000E+03 0.  0.
<mgrwt>
<rscale>  0 0.12500000E+03</rscale>
<asrwt>0</asrwt>
<pdfrwt beam="1">  1       21 0.36508791E-01 0.12500000E+03</pdfrwt>
<pdfrwt beam="2">  1       21 0.25324208E-02 0.12500000E+03</pdfrwt>
<totfact> 0.59525252E+06</totfact>
</mgrwt>
</event>
<event>
 3    1  0.1573868E-001  0.1250000E+03  0.7546771E-02  0.1235069E+00
         21   -1    0    0  502  501  0.00000000000E+00  0.00000000000E+00  0.14305947417E+03  0.14305947417E+03  0.00000000000E+00 0.  1.
         21   -1    0    0  501  502 -0.00000000000E+00 -0.00000000000E+00 -0.27305077295E+02  0.27305077295E+02  0.00000000000E+00 0.  1.
         25    1    1    2    0    0  0.00000000000E+00  0.00000000000E+00  0.11575439688E+03  0.17036455147E+03  0.12500000000E+03 0.  0.
<mgrwt>
<rscale>  0 0.12500000E+03</rscale>
<asrwt>0</asrwt>
<pdfrwt beam="1">  1       21 0.22009150E-01 0.12500000E+03</pdfrwt>
<pdfrwt beam="2">  1       21 0.42007812E-02 0.12500000E+03</pdfrwt>
<totfact> 0.68274446E+06</totfact>
</mgrwt>
</event>
<event>
 3    1  0.1573868E-001  0.1250000E+03  0.7546771E-02  0.1235069E+00
         21   -1    0    0  502  501  0.00000000000E+00  0.00000000000E+00  0.17031702283E+02  0.17031702283E+02  0.00000000000E+00 0.  1.
         21   -1    0    0  501  502 -0.00000000000E+00 -0.00000000000E+00 -0.22935170748E+03  0.22935170748E+03  0.00000000000E+00 0.  1.
         25    1    1    2    0    0  0.00000000000E+00  0.00000000000E+00 -0.21232000520E+03  0.24638340977E+03  0.12500000000E+03 0.  0.
<mgrwt>
<rscale>  0 0.12500000E+03</rscale>
<asrwt>0</asrwt>
<pdfrwt beam="1">  1       21 0.26202619E-02 0.12500000E+03</pdfrwt>
<pdfrwt beam="2">  1       21 0.35284877E-01 0.12500000E+03</pdfrwt>
<totfact> 0.60220367E+06</totfact>
</mgrwt>
</event>
<event>
 3    1  0.1573868E-001  0.1250000E+03  0.7546771E-02  0.1235069E+00
         21   -1    0    0  502  501  0.00000000000E+00  0.00000000000E+00  0.12101465109E+02  0.12101465109E+02  0.00000000000E+00 0.  1.
         21   -1    0    0  501  502 -0.00000000000E+00 -0.00000000000E+00 -0.32279149381E+03  0.32279149381E+03  0.00000000000E+00 0.  1.
         25    1    1    2    0    0  0.00000000000E+00  0.00000000000E+00 -0.31069002870E+03  0.33489295892E+03  0.12500000000E+03 0.  0.
<mgrwt>
<rscale>  0 0.12500000E+03</rscale>
<asrwt>0</asrwt>
<pdfrwt beam="1">  1       21 0.18617639E-02 0.12500000E+03</pdfrwt>
<pdfrwt beam="2">  1       21 0.49660228E-01 0.12500000E+03</pdfrwt>
<totfact> 0.52673859E+06</totfact>
</mgrwt>
</event>
<event>
 3    1  0.1573868E-001  0.1250000E+03  0.7546771E-02  0.1235069E+00
         21   -1    0    0  502  501  0.00000000000E+00  0.00000000000E+00  0.21410365388E+02  0.21410365388E+02  0.00000000000E+00 0. -1.
         21   -1    0    0  501  502 -0.00000000000E+00 -0.00000000000E+00 -0.18244667614E+03  0.18244667614E+03  0.00000000000E+00 0. -1.
         25    1    1    2    0    0  0.00000000000E+00  0.00000000000E+00 -0.16103631075E+03  0.20385704153E+03  0.12500000000E+03 0.  0.
<mgrwt>
<rscale>  0 0.12500000E+03</rscale>
<asrwt>0</asrwt>
<pdfrwt beam="1">  1       21 0.32939024E-02 0.12500000E+03</pdfrwt>
<pdfrwt beam="2">  1       21 0.28068719E-01 0.12500000E+03</pdfrwt>
<totfact> 0.64511697E+06</totfact>
</mgrwt>
</event>
<event>
 3    1  0.1573868E-001  0.1250000E+03  0.7546771E-02  0.1235069E+00
         21   -1    0    0  502  501  0.00000000000E+00  0.00000000000E+00  0.89370666181E+02  0.89370666181E+02  0.00000000000E+00 0.  1.
         21   -1    0    0  501  502 -0.00000000000E+00 -0.00000000000E+00 -0.43708413140E+02  0.43708413140E+02  0.00000000000E+00 0.  1.
         25    1    1    2    0    0  0.00000000000E+00  0.00000000000E+00  0.45662253041E+02  0.13307907932E+03  0.12500000000E+03 0.  0.
<mgrwt>
<rscale>  0 0.12500000E+03</rscale>
<asrwt>0</asrwt>
<pdfrwt beam="1">  1       21 0.13749333E-01 0.12500000E+03</pdfrwt>
<pdfrwt beam="2">  1       21 0.67243712E-02 0.12500000E+03</pdfrwt>
<totfact> 0.72951840E+06</totfact>
</mgrwt>
</event>
<event>
 3    1  0.1573868E-001  0.1250000E+03  0.7546771E-02  0.1235069E+00
         21   -1    0    0  502  501  0.00000000000E+00  0.00000000000E+00  0.22181882711E+03  0.22181882711E+03  0.00000000000E+00 0. -1.
         21   -1    0    0  501  502 -0.00000000000E+00 -0.00000000000E+00 -0.17610092213E+02  0.17610092213E+02  0.00000000000E+00 0. -1.
         25    1    1    2    0    0  0.00000000000E+00  0.00000000000E+00  0.20420873489E+03  0.23942891932E+03  0.12500000000E+03 0.  0.
<mgrwt>
<rscale>  0 0.12500000E+03</rscale>
<asrwt>0</asrwt>
<pdfrwt beam="1">  1       21 0.34125971E-01 0.12500000E+03</pdfrwt>
<pdfrwt beam="2">  1       21 0.27092451E-02 0.12500000E+03</pdfrwt>
<totfact> 0.60887970E+06</totfact>
</mgrwt>
</event>
<event>
 3    1  0.1573868E-001  0.1250000E+03  0.7546771E-02  0.1235069E+00
         21   -1    0    0  502  501  0.00000000000E+00  0.00000000000E+00  0.66953426701E+01  0.66953426701E+01  0.00000000000E+00 0.  1.
         21   -1    0    0  501  502 -0.00000000000E+00 -0.00000000000E+00 -0.58342794275E+03  0.58342794275E+03  0.00000000000E+00 0.  1.
         25    1    1    2    0    0  0.00000000000E+00  0.00000000000E+00 -0.57673260008E+03  0.59012328542E+03  0.12500000000E+03 0.  0.
<mgrwt>
<rscale>  0 0.12500000E+03</rscale>
<asrwt>0</asrwt>
<pdfrwt beam="1">  1       21 0.10300527E-02 0.12500000E+03</pdfrwt>
<pdfrwt beam="2">  1       21 0.89758150E-01 0.12500000E+03</pdfrwt>
<totfact> 0.37543134E+06</totfact>
</mgrwt>
</event>
<event>
 3    1  0.1573868E-001  0.1250000E+03  0.7546771E-02  0.1235069E+00
         21   -1    0    0  502  501  0.00000000000E+00  0.00000000000E+00  0.20824274116E+02  0.20824274116E+02  0.00000000000E+00 0. -1.
         21   -1    0    0  501  502 -0.00000000000E+00 -0.00000000000E+00 -0.18758156843E+03  0.18758156843E+03  0.00000000000E+00 0. -1.
         25    1    1    2    0    0  0.00000000000E+00  0.00000000000E+00 -0.16675729431E+03  0.20840584254E+03  0.12500000000E+03 0.  0.
<mgrwt>
<rscale>  0 0.12500000E+03</rscale>
<asrwt>0</asrwt>
<pdfrwt beam="1">  1       21 0.32037346E-02 0.12500000E+03</pdfrwt>
<pdfrwt beam="2">  1       21 0.28858702E-01 0.12500000E+03</pdfrwt>
<totfact> 0.64027651E+06</totfact>
</mgrwt>
</event>
<event>
 3    1  0.1573868E-001  0.1250000E+03  0.7546771E-02  0.1235069E+00
         21   -1    0    0  502  501  0.00000000000E+00  0.00000000000E+00  0.44040733603E+03  0.44040733603E+03  0.00000000000E+00 0.  1.
         21   -1    0    0  501  502 -0.00000000000E+00 -0.00000000000E+00 -0.88696297278E+01  0.88696297278E+01  0.00000000000E+00 0.  1.
         25    1    1    2    0    0  0.00000000000E+00  0.00000000000E+00  0.43153770630E+03  0.44927696576E+03  0.12500000000E+03 0.  0.
<mgrwt>
<rscale>  0 0.12500000E+03</rscale>
<asrwt>0</asrwt>
<pdfrwt beam="1">  1       21 0.67754958E-01 0.12500000E+03</pdfrwt>
<pdfrwt beam="2">  1       21 0.13645588E-02 0.12500000E+03</pdfrwt>
<totfact> 0.44935572E+06</totfact>
</mgrwt>
</event>
<event>
 3    1  0.1573868E-001  0.1250000E+03  0.7546771E-02  0.1235069E+00
         21   -1    0    0  502  501  0.00000000000E+00  0.00000000000E+00  0.16330775555E+03  0.16330775555E+03  0.00000000000E+00 0. -1.
         21   -1    0    0  501  502 -0.00000000000E+00 -0.00000000000E+00 -0.23919562098E+02  0.23919562098E+02  0.00000000000E+00 0. -1.
         25    1    1    2    0    0  0.00000000000E+00  0.00000000000E+00  0.13938819345E+03  0.18722731765E+03  0.12500000000E+03 0.  0.
<mgrwt>
<rscale>  0 0.12500000E+03</rscale>
<asrwt>0</asrwt>
<pdfrwt beam="1">  1       21 0.25124269E-01 0.12500000E+03</pdfrwt>
<pdfrwt beam="2">  1       21 0.36799327E-02 0.12500000E+03</pdfrwt>
<totfact> 0.66331956E+06</totfact>
</mgrwt>
</event>
<event>
 3    1  0.1573868E-001  0.1250000E+03  0.7546771E-02  0.1235069E+00
         21   -1    0    0  502  501  0.00000000000E+00  0.00000000000E+00  0.19444225025E+03  0.19444225025E+03  0.00000000000E+00 0. -1.
         21   -1    0    0  501  502 -0.00000000000E+00 -0.00000000000E+00 -0.20089512413E+02  0.20089512413E+02  0.00000000000E+00 0. -1.
         25    1    1    2    0    0  0.00000000000E+00  0.00000000000E+00  0.17435273784E+03  0.21453176266E+03  0.12500000000E+03 0.  0.
<mgrwt>
<rscale>  0 0.12500000E+03</rscale>
<asrwt>0</asrwt>
<pdfrwt beam="1">  1       21 0.29914191E-01 0.12500000E+03</pdfrwt>
<pdfrwt beam="2">  1       21 0.30906943E-02 0.12500000E+03</pdfrwt>
<totfact> 0.63385875E+06</totfact>
</mgrwt>
</event>
<event>
 3    1  0.1573868E-001  0.1250000E+03  0.7546771E-02  0.1235069E+00
         21   -1    0    0  502  501  0.00000000000E+00  0.00000000000E+00  0.25754720226E+02  0.25754720226E+02  0.00000000000E+00 0.  1.
         21   -1    0    0  501  502 -0.00000000000E+00 -0.00000000000E+00 -0.15167122631E+03  0.15167122631E+03  0.00000000000E+00 0.  1.
         25    1    1    2    0    0  0.00000000000E+00  0.00000000000E+00 -0.12591650608E+03  0.17742594654E+03  0.12500000000E+03 0.  0.
<mgrwt>
<rscale>  0 0.12500000E+03</rscale>
<asrwt>0</asrwt>
<pdfrwt beam="1">  1       21 0.39622646E-02 0.12500000E+03</pdfrwt>
<pdfrwt beam="2">  1       21 0.23334035E-01 0.12500000E+03</pdfrwt>
<totfact> 0.67448057E+06</totfact>
</mgrwt>
</event>
<event>
 3    1  0.1573868E-001  0.1250000E+03  0.7546771E-02  0.1235069E+00
         21   -1    0    0  502  501  0.00000000000E+00  0.00000000000E+00  0.20457065426E+03  0.20457065426E+03  0.00000000000E+00 0.  1.
         21   -1    0    0  501  502 -0.00000000000E+00 -0.00000000000E+00 -0.19094869761E+02  0.19094869761E+02  0.00000000000E+00 0.  1.
         25    1    1    2    0    0  0.00000000000E+00  0.00000000000E+00  0.18547578450E+03  0.22366552402E+03  0.12500000000E+03 0.  0.
<mgrwt>
<rscale>  0 0.12500000E+03</rscale>
<asrwt>0</asrwt>
<pdfrwt beam="1">  1       21 0.31472407E-01 0.12500000E+03</pdfrwt>
<pdfrwt beam="2">  1       21 0.29376724E-02 0.12500000E+03</pdfrwt>
<totfact> 0.62449824E+06</totfact>
</mgrwt>
</event>
<event>
 3    1  0.1573868E-001  0.1250000E+03  0.7546771E-02  0.1235069E+00
         21   -1    0    0  502  501  0.00000000000E+00  0.00000000000E+00  0.33747981606E+03  0.33747981606E+03  0.00000000000E+00 0.  1.
         21   -1    0    0  501  502 -0.00000000000E+00 -0.00000000000E+00 -0.11574766294E+02  0.11574766294E+02  0.00000000000E+00 0.  1.
         25    1    1    2    0    0  0.00000000000E+00  0.00000000000E+00  0.32590504977E+03  0.34905458236E+03  0.12500000000E+03 0.  0.
<mgrwt>
<rscale>  0 0.12500000E+03</rscale>
<asrwt>0</asrwt>
<pdfrwt beam="1">  1       21 0.51919964E-01 0.12500000E+03</pdfrwt>
<pdfrwt beam="2">  1       21 0.17807335E-02 0.12500000E+03</pdfrwt>
<totfact> 0.51608332E+06</totfact>
</mgrwt>
</event>
<event>
 3    1  0.1573868E-001  0.1250000E+03  0.7546771E-02  0.1235069E+00
         21   -1    0    0  502  501  0.00000000000E+00  0.00000000000E+00  0.61488208803E+03  0.61488208803E+03  0.00000000000E+00 0. -1.
         21   -1    0    0  501  502 -0.00000000000E+00 -0.00000000000E+00 -0.63528440266E+01  0.63528440266E+01  0.00000000000E+00 0. -1.
         25    1    1    2    0    0  0.00000000000E+00  0.00000000000E+00  0.60852924400E+03  0.62123493206E+03  0.12500000000E+03 0.  0.
<mgrwt>
<rscale>  0 0.12500000E+03</rscale>
<asrwt>0</asrwt>
<pdfrwt beam="1">  1       21 0.94597197E-01 0.12500000E+03</pdfrwt>
<pdfrwt beam="2">  1       21 0.97736110E-03 0.12500000E+03</pdfrwt>
<totfact> 0.36149595E+06</totfact>
</mgrwt>
</event>
<event>
 3    1  0.1573868E-001  0.1250000E+03  0.7546771E-02  0.1235069E+00
         21   -1    0    0  502  501  0.00000000000E+00  0.00000000000E+00  0.13469021298E+02  0.13469021298E+02  0.00000000000E+00 0.  1.
         21   -1    0    0  501  502 -0.00000000000E+00 -0.00000000000E+00 -0.29001736011E+03  0.29001736011E+03  0.00000000000E+00 0.  1.
         25    1    1    2    0    0  0.00000000000E+00  0.00000000000E+00 -0.27654833881E+03  0.30348638141E+03  0.12500000000E+03 0.  0.
<mgrwt>
<rscale>  0 0.12500000E+03</rscale>
<asrwt>0</asrwt>
<pdfrwt beam="1">  1       21 0.20721573E-02 0.12500000E+03</pdfrwt>
<pdfrwt beam="2">  1       21 0.44618051E-01 0.12500000E+03</pdfrwt>
<totfact> 0.55167683E+06</totfact>
</mgrwt>
</event>
<event>
 3    1  0.1573868E-001  0.1250000E+03  0.7546771E-02  0.1235069E+00
         21   -1    0    0  502  501  0.00000000000E+00  0.00000000000E+00  0.92554950671E+02  0.92554950671E+02  0.00000000000E+00 0. -1.
         21   -1    0    0  501  502 -0.00000000000E+00 -0.00000000000E+00 -0.42204657576E+02  0.42204657576E+02  0.00000000000E+00 0. -1.
         25    1    1    2    0    0  0.00000000000E+00  0.00000000000E+00  0.50350293095E+02  0.13475960825E+03  0.12500000000E+03 0.  0.
<mgrwt>
<rscale>  0 0.12500000E+03</rscale>
<asrwt>0</asrwt>
<pdfrwt beam="1">  1       21 0.14239223E-01 0.12500000E+03</pdfrwt>
<pdfrwt beam="2">  1       21 0.64930242E-02 0.12500000E+03</pdfrwt>
<totfact> 0.72728317E+06</totfact>
</mgrwt>
</event>
<event>
 3    1  0.1573868E-001  0.1250000E+03  0.7546771E-02  0.1235069E+00
         21   -1    0    0  502  501  0.00000000000E+00  0.00000000000E+00  0.13438512578E+02  0.13438512578E+02  0.00000000000E+00 0.  1.
         21   -1    0    0  501  502 -0.00000000000E+00 -0.00000000000E+00 -0.29067577065E+03  0.29067577065E+03  0.00000000000E+00 0.  1.
         25    1    1    2    0    0  0.00000000000E+00  0.00000000000E+00 -0.27723725807E+03  0.30411428322E+03  0.12500000000E+03 0.  0.
<mgrwt>
<rscale>  0 0.12500000E+03</rscale>
<asrwt>0</asrwt>
<pdfrwt beam="1">  1       21 0.20674633E-02 0.12500000E+03</pdfrwt>
<pdfrwt beam="2">  1       21 0.44719353E-01 0.12500000E+03</pdfrwt>
<totfact> 0.55115982E+06</totfact>
</mgrwt>
</event>
<event>
 3    1  0.1573868E-001  0.1250000E+03  0.7546771E-02  0.1235069E+00
         21   -1    0    0  502  501  0.00000000000E+00  0.00000000000E+00  0.25063637126E+02  0.25063637126E+02  0.00000000000E+00 0. -1.
         21   -1    0    0  501  502 -0.00000000000E+00 -0.00000000000E+00 -0.15585327781E+03  0.15585327781E+03  0.00000000000E+00 0. -1.
         25    1    1    2    0    0  0.00000000000E+00  0.00000000000E+00 -0.13078964069E+03  0.18091691494E+03  0.12500000000E+03 0.  0.
<mgrwt>
<rscale>  0 0.12500000E+03</rscale>
<asrwt>0</asrwt>
<pdfrwt beam="1">  1       21 0.38559442E-02 0.12500000E+03</pdfrwt>
<pdfrwt beam="2">  1       21 0.23977427E-01 0.12500000E+03</pdfrwt>
<totfact> 0.67046507E+06</totfact>
</mgrwt>
</event>
<event>
 3    1  0.1573868E-001  0.1250000E+03  0.7546771E-02  0.1235069E+00
         21   -1    0    0  502  501  0.00000000000E+00  0.00000000000E+00  0.93583230234E+02  0.93583230234E+02  0.00000000000E+00 0. -1.
         21   -1    0    0  501  502 -0.00000000000E+00 -0.00000000000E+00 -0.41740918648E+02  0.41740918648E+02  0.00000000000E+00 0. -1.
         25    1    1    2    0    0  0.00000000000E+00  0.00000000000E+00  0.51842311586E+02  0.13532414888E+03  0.12500000000E+03 0.  0.
<mgrwt>
<rscale>  0 0.12500000E+03</rscale>
<asrwt>0</asrwt>
<pdfrwt beam="1">  1       21 0.14397420E-01 0.12500000E+03</pdfrwt>
<pdfrwt beam="2">  1       21 0.64216798E-02 0.12500000E+03</pdfrwt>
<totfact> 0.72653581E+06</totfact>
</mgrwt>
</event>
<event>
 3    1  0.1573868E-001  0.1250000E+03  0.7546771E-02  0.1235069E+00
         21   -1    0    0  502  501  0.00000000000E+00  0.00000000000E+00  0.44309428610E+02  0.44309428610E+02  0.00000000000E+00 0. -1.
         21   -1    0    0  501  502 -0.00000000000E+00 -0.00000000000E+00 -0.88158437664E+02  0.88158437664E+02  0.00000000000E+00 0. -1.
         25    1    1    2    0    0  0.00000000000E+00  0.00000000000E+00 -0.43849009054E+02  0.13246786627E+03  0.12500000000E+03 0.  0.
<mgrwt>
<rscale>  0 0.12500000E+03</rscale>
<asrwt>0</asrwt>
<pdfrwt beam="1">  1       21 0.68168353E-02 0.12500000E+03</pdfrwt>
<pdfrwt beam="2">  1       21 0.13562836E-01 0.12500000E+03</pdfrwt>
<totfact> 0.73033540E+06</totfact>
</mgrwt>
</event>
<event>
 3    1  0.1573868E-001  0.1250000E+03  0.7546771E-02  0.1235069E+00
         21   -1    0    0  502  501  0.00000000000E+00  0.00000000000E+00  0.48738491588E+02  0.48738491588E+02  0.00000000000E+00 0.  1.
         21   -1    0    0  501  502 -0.00000000000E+00 -0.00000000000E+00 -0.80147125459E+02  0.80147125459E+02  0.00000000000E+00 0.  1.
         25    1    1    2    0    0  0.00000000000E+00  0.00000000000E+00 -0.31408633871E+02  0.12888561705E+03  0.12500000000E+03 0.  0.
<mgrwt>
<rscale>  0 0.12500000E+03</rscale>
<asrwt>0</asrwt>
<pdfrwt beam="1">  1       21 0.74982295E-02 0.12500000E+03</pdfrwt>
<pdfrwt beam="2">  1       21 0.12330327E-01 0.12500000E+03</pdfrwt>
<totfact> 0.73514247E+06</totfact>
</mgrwt>
</event>
<event>
 3    1  0.1573868E-001  0.1250000E+03  0.7546771E-02  0.1235069E+00
         21   -1    0    0  502  501  0.00000000000E+00  0.00000000000E+00  0.63987095551E+02  0.63987095551E+02  0.00000000000E+00 0.  1.
         21   -1    0    0  501  502 -0.00000000000E+00 -0.00000000000E+00 -0.61047465373E+02  0.61047465373E+02  0.00000000000E+00 0.  1.
         25    1    1    2    0    0  0.00000000000E+00  0.00000000000E+00  0.29396301781E+01  0.12503456092E+03  0.12500000000E+03 0.  0.
<mgrwt>
<rscale>  0 0.12500000E+03</rscale>
<asrwt>0</asrwt>
<pdfrwt beam="1">  1       21 0.98441686E-02 0.12500000E+03</pdfrwt>
<pdfrwt beam="2">  1       21 0.93919177E-02 0.12500000E+03</pdfrwt>
<totfact> 0.74038913E+06</totfact>
</mgrwt>
</event>
<event>
 3    1  0.1573868E-001  0.1250000E+03  0.7546771E-02  0.1235069E+00
         21   -1    0    0  502  501  0.00000000000E+00  0.00000000000E+00  0.12832254321E+03  0.12832254321E+03  0.00000000000E+00 0.  1.
         21   -1    0    0  501  502 -0.00000000000E+00 -0.00000000000E+00 -0.30440871122E+02  0.30440871122E+02  0.00000000000E+00 0.  1.
         25    1    1    2    0    0  0.00000000000E+00  0.00000000000E+00  0.97881672089E+02  0.15876341433E+03  0.12500000000E+03 0.  0.
<mgrwt>
<rscale>  0 0.12500000E+03</rscale>
<asrwt>0</asrwt>
<pdfrwt beam="1">  1       21 0.19741929E-01 0.12500000E+03</pdfrwt>
<pdfrwt beam="2">  1       21 0.46832110E-02 0.12500000E+03</pdfrwt>
<totfact> 0.69670910E+06</totfact>
</mgrwt>
</event>
<event>
 3    1  0.1573868E-001  0.1250000E+03  0.7546771E-02  0.1235069E+00
         21   -1    0    0  502  501  0.00000000000E+00  0.00000000000E+00  0.52133711144E+03  0.52133711144E+03  0.00000000000E+00 0.  1.
         21   -1    0    0  501  502 -0.00000000000E+00 -0.00000000000E+00 -0.74927526053E+01  0.74927526053E+01  0.00000000000E+00 0.  1.
         25    1    1    2    0    0  0.00000000000E+00  0.00000000000E+00  0.51384435884E+03  0.52882986405E+03  0.12500000000E+03 0.  0.
<mgrwt>
<rscale>  0 0.12500000E+03</rscale>
<asrwt>0</asrwt>
<pdfrwt beam="1">  1       21 0.80205681E-01 0.12500000E+03</pdfrwt>
<pdfrwt beam="2">  1       21 0.11527316E-02 0.12500000E+03</pdfrwt>
<totfact> 0.40522523E+06</totfact>
</mgrwt>
</event>
<event>
 3    1  0.1573868E-001  0.1250000E+03  0.7546771E-02  0.1235069E+00
         21   -1    0    0  502  501  0.00000000000E+00  0.00000000000E+00  0.47399431429E+02  0.47399431429E+02  0.00000000000E+00 0. -1.
         21   -1    0    0  501  502 -0.00000000000E+00 -0.00000000000E+00 -0.82411326090E+02  0.82411326090E+02  0.00000000000E+00 0. -1.
         25    1    1    2    0    0  0.00000000000E+00  0.00000000000E+00 -0.35011894661E+02  0.12981075752E+03  0.12500000000E+03 0.  0.
<mgrwt>
<rscale>  0 0.12500000E+03</rscale>
<asrwt>0</asrwt>
<pdfrwt beam="1">  1       21 0.72922202E-02 0.12500000E+03</pdfrwt>
<pdfrwt beam="2">  1       21 0.12678666E-01 0.12500000E+03</pdfrwt>
<totfact> 0.73390218E+06</totfact>
</mgrwt>
</event>
<event>
 3    1  0.1573868E-001  0.1250000E+03  0.7546771E-02  0.1235069E+00
         21   -1    0    0  502  501  0.00000000000E+00  0.00000000000E+00  0.10496550970E+03  0.10496550970E+03  0.00000000000E+00 0. -1.
         21   -1    0    0  501  502 -0.00000000000E+00 -0.00000000000E+00 -0.37214605170E+02  0.37214605170E+02  0.00000000000E+00 0. -1.
         25    1    1    2    0    0  0.00000000000E+00  0.00000000000E+00  0.67750904529E+02  0.14218011487E+03  0.12500000000E+03 0.  0.
<mgrwt>
<rscale>  0 0.12500000E+03</rscale>
<asrwt>0</asrwt>
<pdfrwt beam="1">  1       21 0.16148540E-01 0.12500000E+03</pdfrwt>
<pdfrwt beam="2">  1       21 0.57253239E-02 0.12500000E+03</pdfrwt>
<totfact> 0.71755962E+06</totfact>
</mgrwt>
</event>
<event>
 3    1  0.1573868E-001  0.1250000E+03  0.7546771E-02  0.1235069E+00
         21   -1    0    0  502  501  0.00000000000E+00  0.00000000000E+00  0.42515383161E+02  0.42515383161E+02  0.00000000000E+00 0.  1.
         21   -1    0    0  501  502 -0.00000000000E+00 -0.00000000000E+00 -0.91878508662E+02  0.91878508662E+02  0.00000000000E+00 0.  1.
         25    1    1    2    0    0  0.00000000000E+00  0.00000000000E+00 -0.49363125502E+02  0.13439389182E+03  0.12500000000E+03 0.  0.
<mgrwt>
<rscale>  0 0.12500000E+03</rscale>
<asrwt>0</asrwt>
<pdfrwt beam="1">  1       21 0.65408282E-02 0.12500000E+03</pdfrwt>
<pdfrwt beam="2">  1       21 0.14135155E-01 0.12500000E+03</pdfrwt>
<totfact> 0.72776825E+06</totfact>
</mgrwt>
</event>
<event>
 3    1  0.1573868E-001  0.1250000E+03  0.7546771E-02  0.1235069E+00
         21   -1    0    0  502  501  0.00000000000E+00  0.00000000000E+00  0.29302177531E+03  0.29302177531E+03  0.00000000000E+00 0.  1.
         21   -1    0    0  501  502 -0.00000000000E+00 -0.00000000000E+00 -0.13330920529E+02  0.13330920529E+02  0.00000000000E+00 0.  1.
         25    1    1    2    0    0  0.00000000000E+00  0.00000000000E+00  0.27969085478E+03  0.30635269584E+03  0.12500000000E+03 0.  0.
<mgrwt>
<rscale>  0 0.12500000E+03</rscale>
<asrwt>0</asrwt>
<pdfrwt beam="1">  1       21 0.45080268E-01 0.12500000E+03</pdfrwt>
<pdfrwt beam="2">  1       21 0.20509111E-02 0.12500000E+03</pdfrwt>
<totfact> 0.54932340E+06</totfact>
</mgrwt>
</event>
<event>
 3    1  0.1573868E-001  0.1250000E+03  0.7546771E-02  0.1235069E+00
         21   -1    0    0  502  501  0.00000000000E+00  0.00000000000E+00  0.99393920920E+01  0.99393920920E+01  0.00000000000E+00 0. -1.
         21   -1    0    0  501  502 -0.00000000000E+00 -0.00000000000E+00 -0.39300693280E+03  0.39300693280E+03  0.00000000000E+00 0. -1.
         25    1    1    2    0    0  0.00000000000E+00  0.00000000000E+00 -0.38306754071E+03  0.40294632490E+03  0.12500000000E+03 0.  0.
<mgrwt>
<rscale>  0 0.12500000E+03</rscale>
<asrwt>0</asrwt>
<pdfrwt beam="1">  1       21 0.15291375E-02 0.12500000E+03</pdfrwt>
<pdfrwt beam="2">  1       21 0.60462597E-01 0.12500000E+03</pdfrwt>
<totfact> 0.47846540E+06</totfact>
</mgrwt>
</event>
<event>
 3    1  0.1573868E-001  0.1250000E+03  0.7546771E-02  0.1235069E+00
         21   -1    0    0  502  501  0.00000000000E+00  0.00000000000E+00  0.28732040851E+01  0.28732040851E+01  0.00000000000E+00 0.  1.
         21   -1    0    0  501  502 -0.00000000000E+00 -0.00000000000E+00 -0.13595449137E+04  0.13595449137E+04  0.00000000000E+00 0.  1.
         25    1    1    2    0    0  0.00000000000E+00  0.00000000000E+00 -0.13566717096E+04  0.13624181178E+04  0.12500000000E+03 0.  0.
<mgrwt>
<rscale>  0 0.12500000E+03</rscale>
<asrwt>0</asrwt>
<pdfrwt beam="1">  1       21 0.44203215E-03 0.12500000E+03</pdfrwt>
<pdfrwt beam="2">  1       21 0.20916040E+00 0.12500000E+03</pdfrwt>
<totfact> 0.16167552E+06</totfact>
</mgrwt>
</event>
<event>
 3    1  0.1573868E-001  0.1250000E+03  0.7546771E-02  0.1235069E+00
         21   -1    0    0  502  501  0.00000000000E+00  0.00000000000E+00  0.23904644931E+02  0.23904644931E+02  0.00000000000E+00 0. -1.
         21   -1    0    0  501  502 -0.00000000000E+00 -0.00000000000E+00 -0.16340966416E+03  0.16340966416E+03  0.00000000000E+00 0. -1.
         25    1    1    2    0    0  0.00000000000E+00  0.00000000000E+00 -0.13950501923E+03  0.18731430909E+03  0.12500000000E+03 0.  0.
<mgrwt>
<rscale>  0 0.12500000E+03</rscale>
<asrwt>0</asrwt>
<pdfrwt beam="1">  1       21 0.36776377E-02 0.12500000E+03</pdfrwt>
<pdfrwt beam="2">  1       21 0.25139948E-01 0.12500000E+03</pdfrwt>
<totfact> 0.66322205E+06</totfact>
</mgrwt>
</event>
<event>
 3    1  0.1573868E-001  0.1250000E+03  0.7546771E-02  0.1235069E+00
         21   -1    0    0  502  501  0.00000000000E+00  0.00000000000E+00  0.77197287072E+02  0.77197287072E+02  0.00000000000E+00 0.  1.
         21   -1    0    0  501  502 -0.00000000000E+00 -0.00000000000E+00 -0.50600871458E+02  0.50600871458E+02  0.00000000000E+00 0.  1.
         25    1    1    2    0    0  0.00000000000E+00  0.00000000000E+00  0.26596415615E+02  0.12779815853E+03  0.12500000000E+03 0.  0.
<mgrwt>
<rscale>  0 0.12500000E+03</rscale>
<asrwt>0</asrwt>
<pdfrwt beam="1">  1       21 0.11876506E-01 0.12500000E+03</pdfrwt>
<pdfrwt beam="2">  1       21 0.77847494E-02 0.12500000E+03</pdfrwt>
<totfact> 0.73660843E+06</totfact>
</mgrwt>
</event>
<event>
 3    1  0.1573868E-001  0.1250000E+03  0.7546771E-02  0.1235069E+00
         21   -1    0    0  502  501  0.00000000000E+00  0.00000000000E+00  0.24929727548E+03  0.24929727548E+03  0.00000000000E+00 0. -1.
         21   -1    0    0  501  502 -0.00000000000E+00 -0.00000000000E+00 -0.15669044086E+02  0.15669044086E+02  0.00000000000E+00 0. -1.
         25    1    1    2    0    0  0.00000000000E+00  0.00000000000E+00  0.23362823140E+03  0.26496631957E+03  0.12500000000E+03 0.  0.
<mgrwt>
<rscale>  0 0.12500000E+03</rscale>
<asrwt>0</asrwt>
<pdfrwt beam="1">  1       21 0.38353424E-01 0.12500000E+03</pdfrwt>
<pdfrwt beam="2">  1       21 0.24106224E-02 0.12500000E+03</pdfrwt>
<totfact> 0.58497053E+06</totfact>
</mgrwt>
</event>
<event>
 3    1  0.1573868E-001  0.1250000E+03  0.7546771E-02  0.1235069E+00
         21   -1    0    0  502  501  0.00000000000E+00  0.00000000000E+00  0.10734650610E+02  0.10734650610E+02  0.00000000000E+00 0. -1.
         21   -1    0    0  501  502 -0.00000000000E+00 -0.00000000000E+00 -0.36389167583E+03  0.36389167583E+03  0.00000000000E+00 0. -1.
         25    1    1    2    0    0  0.00000000000E+00  0.00000000000E+00 -0.35315702522E+03  0.37462632644E+03  0.12500000000E+03 0.  0.
<mgrwt>
<rscale>  0 0.12500000E+03</rscale>
<asrwt>0</asrwt>
<pdfrwt beam="1">  1       21 0.16514847E-02 0.12500000E+03</pdfrwt>
<pdfrwt beam="2">  1       21 0.55983334E-01 0.12500000E+03</pdfrwt>
<totfact> 0.49769562E+06</totfact>
</mgrwt>
</event>
<event>
 3    1  0.1573868E-001  0.1250000E+03  0.7546771E-02  0.1235069E+00
         21   -1    0    0  502  501  0.00000000000E+00  0.00000000000E+00  0.18897088243E+02  0.18897088243E+02  0.00000000000E+00 0.  1.
         21   -1    0    0  501  502 -0.00000000000E+00 -0.00000000000E+00 -0.20671174044E+03  0.20671174044E+03  0.00000000000E+00 0.  1.
         25    1    1    2    0    0  0.00000000000E+00  0.00000000000E+00 -0.18781465219E+03  0.22560882868E+03  0.12500000000E+03 0.  0.
<mgrwt>
<rscale>  0 0.12500000E+03</rscale>
<asrwt>0</asrwt>
<pdfrwt beam="1">  1       21 0.29072443E-02 0.12500000E+03</pdfrwt>
<pdfrwt beam="2">  1       21 0.31801807E-01 0.12500000E+03</pdfrwt>
<totfact> 0.62253709E+06</totfact>
</mgrwt>
</event>
<event>
 3    1  0.1573868E-001  0.1250000E+03  0.7546771E-02  0.1235069E+00
         21   -1    0    0  502  501  0.00000000000E+00  0.00000000000E+00  0.70115449817E+01  0.70115449817E+01  0.00000000000E+00 0.  1.
         21   -1    0    0  501  502 -0.00000000000E+00 -0.00000000000E+00 -0.55711687084E+03  0.55711687084E+03  0.00000000000E+00 0.  1.
         25    1    1    2    0    0  0.00000000000E+00  0.00000000000E+00 -0.55010532586E+03  0.56412841582E+03  0.12500000000E+03 0.  0.
<mgrwt>
<rscale>  0 0.12500000E+03</rscale>
<asrwt>0</asrwt>
<pdfrwt beam="1">  1       21 0.10786992E-02 0.12500000E+03</pdfrwt>
<pdfrwt beam="2">  1       21 0.85710288E-01 0.12500000E+03</pdfrwt>
<totfact> 0.38766811E+06</totfact>
</mgrwt>
</event>
<event>
 3    1  0.1573868E-001  0.1250000E+03  0.7546771E-02  0.1235069E+00
         21   -1    0    0  502  501  0.00000000000E+00  0.00000000000E+00  0.52059610945E+01  0.52059610945E+01  0.00000000000E+00 0.  1.
         21   -1    0    0  501  502 -0.00000000000E+00 -0.00000000000E+00 -0.75034175805E+03  0.75034175805E+03  0.00000000000E+00 0.  1.
         25    1    1    2    0    0  0.00000000000E+00  0.00000000000E+00 -0.74513579695E+03  0.75554771914E+03  0.12500000000E+03 0.  0.
<mgrwt>
<rscale>  0 0.12500000E+03</rscale>
<asrwt>0</asrwt>
<pdfrwt beam="1">  1       21 0.80091696E-03 0.12500000E+03</pdfrwt>
<pdfrwt beam="2">  1       21 0.11543721E+00 0.12500000E+03</pdfrwt>
<totfact> 0.30874690E+06</totfact>
</mgrwt>
</event>
<event>
 3    1  0.1573868E-001  0.1250000E+03  0.7546771E-02  0.1235069E+00
         21   -1    0    0  502  501  0.00000000000E+00  0.00000000000E+00  0.22656515339E+03  0.22656515339E+03  0.00000000000E+00 0.  1.
         21   -1    0    0  501  502 -0.00000000000E+00 -0.00000000000E+00 -0.17241177390E+02  0.17241177390E+02  0.00000000000E+00 0.  1.
         25    1    1    2    0    0  0.00000000000E+00  0.00000000000E+00  0.20932397600E+03  0.24380633078E+03  0.12500000000E+03 0.  0.
<mgrwt>
<rscale>  0 0.12500000E+03</rscale>
<asrwt>0</asrwt>
<pdfrwt beam="1">  1       21 0.34856175E-01 0.12500000E+03</pdfrwt>
<pdfrwt beam="2">  1       21 0.26524890E-02 0.12500000E+03</pdfrwt>
<totfact> 0.60466266E+06</totfact>
</mgrwt>
</event>
<event>
 3    1  0.1573868E-001  0.1250000E+03  0.7546771E-02  0.1235069E+00
         21   -1    0    0  502  501  0.00000000000E+00  0.00000000000E+00  0.40092441702E+01  0.40092441702E+01  0.00000000000E+00 0. -1.
         21   -1    0    0  501  502 -0.00000000000E+00 -0.00000000000E+00 -0.97431082622E+03  0.97431082622E+03  0.00000000000E+00 0. -1.
         25    1    1    2    0    0  0.00000000000E+00  0.00000000000E+00 -0.97030158205E+03  0.97832007039E+03  0.12500000000E+03 0.  0.
<mgrwt>
<rscale>  0 0.12500000E+03</rscale>
<asrwt>0</asrwt>
<pdfrwt beam="1">  1       21 0.61680719E-03 0.12500000E+03</pdfrwt>
<pdfrwt beam="2">  1       21 0.14989388E+00 0.12500000E+03</pdfrwt>
<totfact> 0.24168210E+06</totfact>
</mgrwt>
</event>
<event>
 3    1  0.1573868E-001  0.1250000E+03  0.7546771E-02  0.1235069E+00
         21   -1    0    0  502  501  0.00000000000E+00  0.00000000000E+00  0.10221549043E+03  0.10221549043E+03  0.00000000000E+00 0. -1.
         21   -1    0    0  501  502 -0.00000000000E+00 -0.00000000000E+00 -0.38215831903E+02  0.38215831903E+02  0.00000000000E+00 0. -1.
         25    1    1    2    0    0  0.00000000000E+00  0.00000000000E+00  0.63999658522E+02  0.14043132233E+03  0.12500000000E+03 0.  0.
<mgrwt>
<rscale>  0 0.12500000E+03</rscale>
<asrwt>0</asrwt>
<pdfrwt beam="1">  1       21 0.15725460E-01 0.12500000E+03</pdfrwt>
<pdfrwt beam="2">  1       21 0.58793588E-02 0.12500000E+03</pdfrwt>
<totfact> 0.71983050E+06</totfact>
</mgrwt>
</event>
<event>
 3    1  0.1573868E-001  0.1250000E+03  0.7546771E-02  0.1235069E+00
         21   -1    0    0  502  501  0.00000000000E+00  0.00000000000E+00  0.13026059853E+03  0.13026059853E+03  0.00000000000E+00 0.  1.
         21   -1    0    0  501  502 -0.00000000000E+00 -0.00000000000E+00 -0.29987962930E+02  0.29987962930E+02  0.00000000000E+00 0.  1.
         25    1    1    2    0    0  0.00000000000E+00  0.00000000000E+00  0.10027263560E+03  0.16024856146E+03  0.12500000000E+03 0.  0.
<mgrwt>
<rscale>  0 0.12500000E+03</rscale>
<asrwt>0</asrwt>
<pdfrwt beam="1">  1       21 0.20040092E-01 0.12500000E+03</pdfrwt>
<pdfrwt beam="2">  1       21 0.46135328E-02 0.12500000E+03</pdfrwt>
<totfact> 0.69489137E+06</totfact>
</mgrwt>
</event>
<event>
 3    1  0.1573868E-001  0.1250000E+03  0.7546771E-02  0.1235069E+00
         21   -1    0    0  502  501  0.00000000000E+00  0.00000000000E+00  0.30934005761E+02  0.30934005761E+02  0.00000000000E+00 0.  1.
         21   -1    0    0  501  502 -0.00000000000E+00 -0.00000000000E+00 -0.12627688862E+03  0.12627688862E+03  0.00000000000E+00 0.  1.
         25    1    1    2    0    0  0.00000000000E+00  0.00000000000E+00 -0.95342882856E+02  0.15721089438E+03  0.12500000000E+03 0.  0.
<mgrwt>
<rscale>  0 0.12500000E+03</rscale>
<asrwt>0</asrwt>
<pdfrwt beam="1">  1       21 0.47590778E-02 0.12500000E+03</pdfrwt>
<pdfrwt beam="2">  1       21 0.19427214E-01 0.12500000E+03</pdfrwt>
<totfact> 0.69861910E+06</totfact>
</mgrwt>
</event>
<event>
 3    1  0.1573868E-001  0.1250000E+03  0.7546771E-02  0.1235069E+00
         21   -1    0    0  502  501  0.00000000000E+00  0.00000000000E+00  0.27581510751E+03  0.27581510751E+03  0.00000000000E+00 0. -1.
         21   -1    0    0  501  502 -0.00000000000E+00 -0.00000000000E+00 -0.14162567218E+02  0.14162567218E+02  0.00000000000E+00 0. -1.
         25    1    1    2    0    0  0.00000000000E+00  0.00000000000E+00  0.26165254029E+03  0.28997767473E+03  0.12500000000E+03 0.  0.
<mgrwt>
<rscale>  0 0.12500000E+03</rscale>
<asrwt>0</asrwt>
<pdfrwt beam="1">  1       21 0.42433089E-01 0.12500000E+03</pdfrwt>
<pdfrwt beam="2">  1       21 0.21788567E-02 0.12500000E+03</pdfrwt>
<totfact> 0.56299492E+06</totfact>
</mgrwt>
</event>
<event>
 3    1  0.1573868E-001  0.1250000E+03  0.7546771E-02  0.1235069E+00
         21   -1    0    0  502  501  0.00000000000E+00  0.00000000000E+00  0.25152810315E+01  0.25152810315E+01  0.00000000000E+00 0.  1.
         21   -1    0    0  501  502 -0.00000000000E+00 -0.00000000000E+00 -0.15530073781E+04  0.15530073781E+04  0.00000000000E+00 0.  1.
         25    1    1    2    0    0  0.00000000000E+00  0.00000000000E+00 -0.15504920971E+04  0.15555226591E+04  0.12500000000E+03 0.  0.
<mgrwt>
<rscale>  0 0.12500000E+03</rscale>
<asrwt>0</asrwt>
<pdfrwt beam="1">  1       21 0.38696528E-03 0.12500000E+03</pdfrwt>
<pdfrwt beam="2">  1       21 0.23892485E+00 0.12500000E+03</pdfrwt>
<totfact> 0.13189239E+06</totfact>
</mgrwt>
</event>
<event>
 3    1  0.1573868E-001  0.1250000E+03  0.7546771E-02  0.1235069E+00
         21   -1    0    0  502  501  0.00000000000E+00  0.00000000000E+00  0.48007957662E+02  0.48007957662E+02  0.00000000000E+00 0.  1.
         21   -1    0    0  501  502 -0.00000000000E+00 -0.00000000000E+00 -0.81366718982E+02  0.81366718982E+02  0.00000000000E+00 0.  1.
         25    1    1    2    0    0  0.00000000000E+00  0.00000000000E+00 -0.33358761319E+02  0.12937467664E+03  0.12500000000E+03 0.  0.
<mgrwt>
<rscale>  0 0.12500000E+03</rscale>
<asrwt>0</asrwt>
<pdfrwt beam="1">  1       21 0.73858396E-02 0.12500000E+03</pdfrwt>
<pdfrwt beam="2">  1       21 0.12517957E-01 0.12500000E+03</pdfrwt>
<totfact> 0.73448610E+06</totfact>
</mgrwt>
</event>
<event>
 3    1  0.1573868E-001  0.1250000E+03  0.7546771E-02  0.1235069E+00
         21   -1    0    0  502  501  0.00000000000E+00  0.00000000000E+00  0.10118150301E+03  0.10118150301E+03  0.00000000000E+00 0.  1.
         21   -1    0    0  501  502 -0.00000000000E+00 -0.00000000000E+00 -0.38606364641E+02  0.38606364641E+02  0.00000000000E+00 0.  1.
         25    1    1    2    0    0  0.00000000000E+00  0.00000000000E+00  0.62575138366E+02  0.13978786765E+03  0.12500000000E+03 0.  0.
<mgrwt>
<rscale>  0 0.12500000E+03</rscale>
<asrwt>0</asrwt>
<pdfrwt beam="1">  1       21 0.15566385E-01 0.12500000E+03</pdfrwt>
<pdfrwt beam="2">  1       21 0.59394408E-02 0.12500000E+03</pdfrwt>
<totfact> 0.72067014E+06</totfact>
</mgrwt>
</event>
<event>
 3    1  0.1573868E-001  0.1250000E+03  0.7546771E-02  0.1235069E+00
         21   -1    0    0  502  501  0.00000000000E+00  0.00000000000E+00  0.27845813592E+03  0.27845813592E+03  0.00000000000E+00 0. -1.
         21   -1    0    0  501  502 -0.00000000000E+00 -0.00000000000E+00 -0.14028141024E+02  0.14028141024E+02  0.00000000000E+00 0. -1.
         25    1    1    2    0    0  0.00000000000E+00  0.00000000000E+00  0.26442999490E+03  0.29248627695E+03  0.12500000000E+03 0.  0.
<mgrwt>
<rscale>  0 0.12500000E+03</rscale>
<asrwt>0</asrwt>
<pdfrwt beam="1">  1       21 0.42839709E-01 0.12500000E+03</pdfrwt>
<pdfrwt beam="2">  1       21 0.21581758E-02 0.12500000E+03</pdfrwt>
<totfact> 0.56086433E+06</totfact>
</mgrwt>
</event>
<event>
 3    1  0.1573868E-001  0.1250000E+03  0.7546771E-02  0.1235069E+00
         21   -1    0    0  502  501  0.00000000000E+00  0.00000000000E+00  0.87696975517E+02  0.87696975517E+02  0.00000000000E+00 0.  1.
         21   -1    0    0  501  502 -0.00000000000E+00 -0.00000000000E+00 -0.44542585157E+02  0.44542585157E+02  0.00000000000E+00 0.  1.
         25    1    1    2    0    0  0.00000000000E+00  0.00000000000E+00  0.43154390360E+02  0.13223956067E+03  0.12500000000E+03 0.  0.
<mgrwt>
<rscale>  0 0.12500000E+03</rscale>
<asrwt>0</asrwt>
<pdfrwt beam="1">  1       21 0.13491842E-01 0.12500000E+03</pdfrwt>
<pdfrwt beam="2">  1       21 0.68527054E-02 0.12500000E+03</pdfrwt>
<totfact> 0.73064114E+06</totfact>
</mgrwt>
</event>
<event>
 3    1  0.1573868E-001  0.1250000E+03  0.7546771E-02  0.1235069E+00
         21   -1    0    0  502  501  0.00000000000E+00  0.00000000000E+00  0.15260711047E+03  0.15260711047E+03  0.00000000000E+00 0. -1.
         21   -1    0    0  501  502 -0.00000000000E+00 -0.00000000000E+00 -0.25596775851E+02  0.25596775851E+02  0.00000000000E+00 0. -1.
         25    1    1    2    0    0  0.00000000000E+00  0.00000000000E+00  0.12701033462E+03  0.17820388632E+03  0.12500000000E+03 0.  0.
<mgrwt>
<rscale>  0 0.12500000E+03</rscale>
<asrwt>0</asrwt>
<pdfrwt beam="1">  1       21 0.23478016E-01 0.12500000E+03</pdfrwt>
<pdfrwt beam="2">  1       21 0.39379656E-02 0.12500000E+03</pdfrwt>
<totfact> 0.67358181E+06</totfact>
</mgrwt>
</event>
<event>
 3    1  0.1573868E-001  0.1250000E+03  0.7546771E-02  0.1235069E+00
         21   -1    0    0  502  501  0.00000000000E+00  0.00000000000E+00  0.99701695856E+01  0.99701695856E+01  0.00000000000E+00 0.  1.
         21   -1    0    0  501  502 -0.00000000000E+00 -0.00000000000E+00 -0.39179373695E+03  0.39179373695E+03  0.00000000000E+00 0.  1.
         25    1    1    2    0    0  0.00000000000E+00  0.00000000000E+00 -0.38182356737E+03  0.40176390654E+03  0.12500000000E+03 0.  0.
<mgrwt>
<rscale>  0 0.12500000E+03</rscale>
<asrwt>0</asrwt>
<pdfrwt beam="1">  1       21 0.15338728E-02 0.12500000E+03</pdfrwt>
<pdfrwt beam="2">  1       21 0.60275937E-01 0.12500000E+03</pdfrwt>
<totfact> 0.47924582E+06</totfact>
</mgrwt>
</event>
<event>
 3    1  0.1573868E-001  0.1250000E+03  0.7546771E-02  0.1235069E+00
         21   -1    0    0  502  501  0.00000000000E+00  0.00000000000E+00  0.11851745862E+02  0.11851745862E+02  0.00000000000E+00 0. -1.
         21   -1    0    0  501  502 -0.00000000000E+00 -0.00000000000E+00 -0.32959279126E+03  0.32959279126E+03  0.00000000000E+00 0. -1.
         25    1    1    2    0    0  0.00000000000E+00  0.00000000000E+00 -0.31774104539E+03  0.34144453712E+03  0.12500000000E+03 0.  0.
<mgrwt>
<rscale>  0 0.12500000E+03</rscale>
<asrwt>0</asrwt>
<pdfrwt beam="1">  1       21 0.18233456E-02 0.12500000E+03</pdfrwt>
<pdfrwt beam="2">  1       21 0.50706582E-01 0.12500000E+03</pdfrwt>
<totfact> 0.52176551E+06</totfact>
</mgrwt>
</event>
<event>
 3    1  0.1573868E-001  0.1250000E+03  0.7546771E-02  0.1235069E+00
         21   -1    0    0  502  501  0.00000000000E+00  0.00000000000E+00  0.11303011812E+03  0.11303011812E+03  0.00000000000E+00 0. -1.
         21   -1    0    0  501  502 -0.00000000000E+00 -0.00000000000E+00 -0.34559372892E+02  0.34559372892E+02  0.00000000000E+00 0. -1.
         25    1    1    2    0    0  0.00000000000E+00  0.00000000000E+00  0.78470745226E+02  0.14758949101E+03  0.12500000000E+03 0.  0.
<mgrwt>
<rscale>  0 0.12500000E+03</rscale>
<asrwt>0</asrwt>
<pdfrwt beam="1">  1       21 0.17389249E-01 0.12500000E+03</pdfrwt>
<pdfrwt beam="2">  1       21 0.53168267E-02 0.12500000E+03</pdfrwt>
<totfact> 0.71063334E+06</totfact>
</mgrwt>
</event>
<event>
 3    1  0.1573868E-001  0.1250000E+03  0.7546771E-02  0.1235069E+00
         21   -1    0    0  502  501  0.00000000000E+00  0.00000000000E+00  0.42790962635E+02  0.42790962635E+02  0.00000000000E+00 0.  1.
         21   -1    0    0  501  502 -0.00000000000E+00 -0.00000000000E+00 -0.91286798882E+02  0.91286798882E+02  0.00000000000E+00 0.  1.
         25    1    1    2    0    0  0.00000000000E+00  0.00000000000E+00 -0.48495836247E+02  0.13407776152E+03  0.12500000000E+03 0.  0.
<mgrwt>
<rscale>  0 0.12500000E+03</rscale>
<asrwt>0</asrwt>
<pdfrwt beam="1">  1       21 0.65832250E-02 0.12500000E+03</pdfrwt>
<pdfrwt beam="2">  1       21 0.14044123E-01 0.12500000E+03</pdfrwt>
<totfact> 0.72818816E+06</totfact>
</mgrwt>
</event>
<event>
 3    1  0.1573868E-001  0.1250000E+03  0.7546771E-02  0.1235069E+00
         21   -1    0    0  502  501  0.00000000000E+00  0.00000000000E+00  0.11220530810E+03  0.11220530810E+03  0.00000000000E+00 0.  1.
         21   -1    0    0  501  502 -0.00000000000E+00 -0.00000000000E+00 -0.34813415392E+02  0.34813415392E+02  0.00000000000E+00 0.  1.
         25    1    1    2    0    0  0.00000000000E+00  0.00000000000E+00  0.77391892707E+02  0.14701872349E+03  0.12500000000E+03 0.  0.
<mgrwt>
<rscale>  0 0.12500000E+03</rscale>
<asrwt>0</asrwt>
<pdfrwt beam="1">  1       21 0.17262355E-01 0.12500000E+03</pdfrwt>
<pdfrwt beam="2">  1       21 0.53559101E-02 0.12500000E+03</pdfrwt>
<totfact> 0.71135744E+06</totfact>
</mgrwt>
</event>
<event>
 3    1  0.1573868E-001  0.1250000E+03  0.7546771E-02  0.1235069E+00
         21   -1    0    0  502  501  0.00000000000E+00  0.00000000000E+00  0.19572942743E+02  0.19572942743E+02  0.00000000000E+00 0.  1.
         21   -1    0    0  501  502 -0.00000000000E+00 -0.00000000000E+00 -0.19957397573E+03  0.19957397573E+03  0.00000000000E+00 0.  1.
         25    1    1    2    0    0  0.00000000000E+00  0.00000000000E+00 -0.18000103298E+03  0.21914691847E+03  0.12500000000E+03 0.  0.
<mgrwt>
<rscale>  0 0.12500000E+03</rscale>
<asrwt>0</asrwt>
<pdfrwt beam="1">  1       21 0.30112220E-02 0.12500000E+03</pdfrwt>
<pdfrwt beam="2">  1       21 0.30703688E-01 0.12500000E+03</pdfrwt>
<totfact> 0.62909839E+06</totfact>
</mgrwt>
</event>
<event>
 3    1  0.1573868E-001  0.1250000E+03  0.7546771E-02  0.1235069E+00
         21   -1    0    0  502  501  0.00000000000E+00  0.00000000000E+00  0.88485373761E+01  0.88485373761E+01  0.00000000000E+00 0. -1.
         21   -1    0    0  501  502 -0.00000000000E+00 -0.00000000000E+00 -0.44145713963E+03  0.44145713963E+03  0.00000000000E+00 0. -1.
         25    1    1    2    0    0  0.00000000000E+00  0.00000000000E+00 -0.43260860226E+03  0.45030567701E+03  0.12500000000E+03 0.  0.
<mgrwt>
<rscale>  0 0.12500000E+03</rscale>
<asrwt>0</asrwt>
<pdfrwt beam="1">  1       21 0.13613130E-02 0.12500000E+03</pdfrwt>
<pdfrwt beam="2">  1       21 0.67916505E-01 0.12500000E+03</pdfrwt>
<totfact> 0.44873975E+06</totfact>
</mgrwt>
</event>
<event>
 3    1  0.1573868E-001  0.1250000E+03  0.7546771E-02  0.1235069E+00
         21   -1    0    0  502  501  0.00000000000E+00  0.00000000000E+00  0.43792629500E+02  0.43792629500E+02  0.00000000000E+00 0.  1.
         21   -1    0    0  501  502 -0.00000000000E+00 -0.00000000000E+00 -0.89198799995E+02  0.89198799995E+02  0.00000000000E+00 0.  1.
         25    1    1    2    0    0  0.00000000000E+00  0.00000000000E+00 -0.45406170496E+02  0.13299142949E+03  0.12500000000E+03 0.  0.
<mgrwt>
<rscale>  0 0.12500000E+03</rscale>
<asrwt>0</asrwt>
<pdfrwt beam="1">  1       21 0.67373277E-02 0.12500000E+03</pdfrwt>
<pdfrwt beam="2">  1       21 0.13722892E-01 0.12500000E+03</pdfrwt>
<totfact> 0.72963543E+06</totfact>
</mgrwt>
</event>
<event>
 3    1  0.1573868E-001  0.1250000E+03  0.7546771E-02  0.1235069E+00
         21   -1    0    0  502  501  0.00000000000E+00  0.00000000000E+00  0.10802183298E+02  0.10802183298E+02  0.00000000000E+00 0. -1.
         21   -1    0    0  501  502 -0.00000000000E+00 -0.00000000000E+00 -0.36161671139E+03  0.36161671139E+03  0.00000000000E+00 0. -1.
         25    1    1    2    0    0  0.00000000000E+00  0.00000000000E+00 -0.35081452809E+03  0.37241889469E+03  0.12500000000E+03 0.  0.
<mgrwt>
<rscale>  0 0.12500000E+03</rscale>
<asrwt>0</asrwt>
<pdfrwt beam="1">  1       21 0.16618747E-02 0.12500000E+03</pdfrwt>
<pdfrwt beam="2">  1       21 0.55633329E-01 0.12500000E+03</pdfrwt>
<totfact> 0.49924170E+06</totfact>
</mgrwt>
</event>
<event>
 3    1  0.1573868E-001  0.1250000E+03  0.7546771E-02  0.1235069E+00
         21   -1    0    0  502  501  0.00000000000E+00  0.00000000000E+00  0.75033343316E+03  0.75033343316E+03  0.00000000000E+00 0. -1.
         21   -1    0    0  501  502 -0.00000000000E+00 -0.00000000000E+00 -0.52060188543E+01  0.52060188543E+01  0.00000000000E+00 0. -1.
         25    1    1    2    0    0  0.00000000000E+00  0.00000000000E+00  0.74512741430E+03  0.75553945201E+03  0.12500000000E+03 0.  0.
<mgrwt>
<rscale>  0 0.12500000E+03</rscale>
<asrwt>0</asrwt>
<pdfrwt beam="1">  1       21 0.11543583E+00 0.12500000E+03</pdfrwt>
<pdfrwt beam="2">  1       21 0.80092657E-03 0.12500000E+03</pdfrwt>
<totfact> 0.30875001E+06</totfact>
</mgrwt>
</event>
<event>
 3    1  0.1573868E-001  0.1250000E+03  0.7546771E-02  0.1235069E+00
         21   -1    0    0  502  501  0.00000000000E+00  0.00000000000E+00  0.55420675311E+02  0.55420675311E+02  0.00000000000E+00 0. -1.
         21   -1    0    0  501  502 -0.00000000000E+00 -0.00000000000E+00 -0.70483623270E+02  0.70483623270E+02  0.00000000000E+00 0. -1.
         25    1    1    2    0    0  0.00000000000E+00  0.00000000000E+00 -0.15062947959E+02  0.12590429858E+03  0.12500000000E+03 0.  0.
<mgrwt>
<rscale>  0 0.12500000E+03</rscale>
<asrwt>0</asrwt>
<pdfrwt beam="1">  1       21 0.85262578E-02 0.12500000E+03</pdfrwt>
<pdfrwt beam="2">  1       21 0.10843634E-01 0.12500000E+03</pdfrwt>
<totfact> 0.73919246E+06</totfact>
</mgrwt>
</event>
<event>
 3    1  0.1573868E-001  0.1250000E+03  0.7546771E-02  0.1235069E+00
         21   -1    0    0  502  501  0.00000000000E+00  0.00000000000E+00  0.23314540111E+03  0.23314540111E+03  0.00000000000E+00 0. -1.
         21   -1    0    0  501  502 -0.00000000000E+00 -0.00000000000E+00 -0.16754565955E+02  0.16754565955E+02  0.00000000000E+00 0. -1.
         25    1    1    2    0    0  0.00000000000E+00  0.00000000000E+00  0.21639083515E+03  0.24989996706E+03  0.12500000000E+03 0.  0.
<mgrwt>
<rscale>  0 0.12500000E+03</rscale>
<asrwt>0</asrwt>
<pdfrwt beam="1">  1       21 0.35868521E-01 0.12500000E+03</pdfrwt>
<pdfrwt beam="2">  1       21 0.25776257E-02 0.12500000E+03</pdfrwt>
<totfact> 0.59887609E+06</totfact>
</mgrwt>
</event>
<event>
 3    1  0.1573868E-001  0.1250000E+03  0.7546771E-02  0.1235069E+00
         21   -1    0    0  502  501  0.00000000000E+00  0.00000000000E+00  0.15318402860E+04  0.15318402860E+04  0.00000000000E+00 0. -1.
         21   -1    0    0  501  502 -0.00000000000E+00 -0.00000000000E+00 -0.25500373869E+01  0.25500373869E+01  0.00000000000E+00 0. -1.
         25    1    1    2    0    0  0.00000000000E+00  0.00000000000E+00  0.15292902486E+04  0.15343903233E+04  0.12500000000E+03 0.  0.
<mgrwt>
<rscale>  0 0.12500000E+03</rscale>
<asrwt>0</asrwt>
<pdfrwt beam="1">  1       21 0.23566700E+00 0.12500000E+03</pdfrwt>
<pdfrwt beam="2">  1       21 0.39231467E-03 0.12500000E+03</pdfrwt>
<totfact> 0.13490527E+06</totfact>
</mgrwt>
</event>
<event>
 3    1  0.1573868E-001  0.1250000E+03  0.7546771E-02  0.1235069E+00
         21   -1    0    0  502  501  0.00000000000E+00  0.00000000000E+00  0.35783364158E+02  0.35783364158E+02  0.00000000000E+00 0. -1.
         21   -1    0    0  501  502 -0.00000000000E+00 -0.00000000000E+00 -0.10916385566E+03  0.10916385566E+03  0.00000000000E+00 0. -1.
         25    1    1    2    0    0  0.00000000000E+00  0.00000000000E+00 -0.73380491503E+02  0.14494721982E+03  0.12500000000E+03 0.  0.
<mgrwt>
<rscale>  0 0.12500000E+03</rscale>
<asrwt>0</asrwt>
<pdfrwt beam="1">  1       21 0.55051329E-02 0.12500000E+03</pdfrwt>
<pdfrwt beam="2">  1       21 0.16794440E-01 0.12500000E+03</pdfrwt>
<totfact> 0.71399854E+06</totfact>
</mgrwt>
</event>
<event>
 3    1  0.1573868E-001  0.1250000E+03  0.7546771E-02  0.1235069E+00
         21   -1    0    0  502  501  0.00000000000E+00  0.00000000000E+00  0.46783704241E+03  0.46783704241E+03  0.00000000000E+00 0.  1.
         21   -1    0    0  501  502 -0.00000000000E+00 -0.00000000000E+00 -0.83495953631E+01  0.83495953631E+01  0.00000000000E+00 0.  1.
         25    1    1    2    0    0  0.00000000000E+00  0.00000000000E+00  0.45948744705E+03  0.47618663777E+03  0.12500000000E+03 0.  0.
<mgrwt>
<rscale>  0 0.12500000E+03</rscale>
<asrwt>0</asrwt>
<pdfrwt beam="1">  1       21 0.71974909E-01 0.12500000E+03</pdfrwt>
<pdfrwt beam="2">  1       21 0.12845535E-02 0.12500000E+03</pdfrwt>
<totfact> 0.43365689E+06</totfact>
</mgrwt>
</event>
<event>
 3    1  0.1573868E-001  0.1250000E+03  0.7546771E-02  0.1235069E+00
         21   -1    0    0  502  501  0.00000000000E+00  0.00000000000E+00  0.57431146551E+02  0.57431146551E+02  0.00000000000E+00 0.  1.
         21   -1    0    0  501  502 -0.00000000000E+00 -0.00000000000E+00 -0.68016228729E+02  0.68016228729E+02  0.00000000000E+00 0.  1.
         25    1    1    2    0    0  0.00000000000E+00  0.00000000000E+00 -0.10585082178E+02  0.12544737528E+03  0.12500000000E+03 0.  0.
<mgrwt>
<rscale>  0 0.12500000E+03</rscale>
<asrwt>0</asrwt>
<pdfrwt beam="1">  1       21 0.88355611E-02 0.12500000E+03</pdfrwt>
<pdfrwt beam="2">  1       21 0.10464035E-01 0.12500000E+03</pdfrwt>
<totfact> 0.73982763E+06</totfact>
</mgrwt>
</event>
<event>
 3    1  0.1573868E-001  0.1250000E+03  0.7546771E-02  0.1235069E+00
         21   -1    0    0  502  501  0.00000000000E+00  0.00000000000E+00  0.62649961641E+02  0.62649961641E+02  0.00000000000E+00 0. -1.
         21   -1    0    0  501  502 -0.00000000000E+00 -0.00000000000E+00 -0.62350397314E+02  0.62350397314E+02  0.00000000000E+00 0. -1.
         25    1    1    2    0    0  0.00000000000E+00  0.00000000000E+00  0.29956432740E+00  0.12500035895E+03  0.12500000000E+03 0.  0.
<mgrwt>
<rscale>  0 0.12500000E+03</rscale>
<asrwt>0</asrwt>
<pdfrwt beam="1">  1       21 0.96384556E-02 0.12500000E+03</pdfrwt>
<pdfrwt beam="2">  1       21 0.95923688E-02 0.12500000E+03</pdfrwt>
<totfact> 0.74043533E+06</totfact>
</mgrwt>
</event>
<event>
 3    1  0.1573868E-001  0.1250000E+03  0.7546771E-02  0.1235069E+00
         21   -1    0    0  502  501  0.00000000000E+00  0.00000000000E+00  0.26390237699E+03  0.26390237699E+03  0.00000000000E+00 0. -1.
         21   -1    0    0  501  502 -0.00000000000E+00 -0.00000000000E+00 -0.14801875014E+02  0.14801875014E+02  0.00000000000E+00 0. -1.
         25    1    1    2    0    0  0.00000000000E+00  0.00000000000E+00  0.24910050197E+03  0.27870425200E+03  0.12500000000E+03 0.  0.
<mgrwt>
<rscale>  0 0.12500000E+03</rscale>
<asrwt>0</asrwt>
<pdfrwt beam="1">  1       21 0.40600362E-01 0.12500000E+03</pdfrwt>
<pdfrwt beam="2">  1       21 0.22772117E-02 0.12500000E+03</pdfrwt>
<totfact> 0.57273709E+06</totfact>
</mgrwt>
</event>
<event>
 3    1  0.1573868E-001  0.1250000E+03  0.7546771E-02  0.1235069E+00
         21   -1    0    0  502  501  0.00000000000E+00  0.00000000000E+00  0.18669249649E+02  0.18669249649E+02  0.00000000000E+00 0.  1.
         21   -1    0    0  501  502 -0.00000000000E+00 -0.00000000000E+00 -0.20923444024E+03  0.20923444024E+03  0.00000000000E+00 0.  1.
         25    1    1    2    0    0  0.00000000000E+00  0.00000000000E+00 -0.19056519059E+03  0.22790368989E+03  0.12500000000E+03 0.  0.
<mgrwt>
<rscale>  0 0.12500000E+03</rscale>
<asrwt>0</asrwt>
<pdfrwt beam="1">  1       21 0.28721924E-02 0.12500000E+03</pdfrwt>
<pdfrwt beam="2">  1       21 0.32189913E-01 0.12500000E+03</pdfrwt>
<totfact> 0.62023220E+06</totfact>
</mgrwt>
</event>
<event>
 3    1  0.1573868E-001  0.1250000E+03  0.7546771E-02  0.1235069E+00
         21   -1    0    0  502  501  0.00000000000E+00  0.00000000000E+00  0.45323705111E+02  0.45323705111E+02  0.00000000000E+00 0.  1.
         21   -1    0    0  501  502 -0.00000000000E+00 -0.00000000000E+00 -0.86185584132E+02  0.86185584132E+02  0.00000000000E+00 0.  1.
         25    1    1    2    0    0  0.00000000000E+00  0.00000000000E+00 -0.40861879021E+02  0.13150928924E+03  0.12500000000E+03 0.  0.
<mgrwt>
<rscale>  0 0.12500000E+03</rscale>
<asrwt>0</asrwt>
<pdfrwt beam="1">  1       21 0.69728777E-02 0.12500000E+03</pdfrwt>
<pdfrwt beam="2">  1       21 0.13259321E-01 0.12500000E+03</pdfrwt>
<totfact> 0.73162123E+06</totfact>
</mgrwt>
</event>
<event>
 3    1  0.1573868E-001  0.1250000E+03  0.7546771E-02  0.1235069E+00
         21   -1    0    0  502  501  0.00000000000E+00  0.00000000000E+00  0.45532742413E+03  0.45532742413E+03  0.00000000000E+00 0.  1.
         21   -1    0    0  501  502 -0.00000000000E+00 -0.00000000000E+00 -0.85789912774E+01  0.85789912774E+01  0.00000000000E+00 0.  1.
         25    1    1    2    0    0  0.00000000000E+00  0.00000000000E+00  0.44674843285E+03  0.46390641541E+03  0.12500000000E+03 0.  0.
<mgrwt>
<rscale>  0 0.12500000E+03</rscale>
<asrwt>0</asrwt>
<pdfrwt beam="1">  1       21 0.70050354E-01 0.12500000E+03</pdfrwt>
<pdfrwt beam="2">  1       21 0.13198452E-02 0.12500000E+03</pdfrwt>
<totfact> 0.44071673E+06</totfact>
</mgrwt>
</event>
<event>
 3    1  0.1573868E-001  0.1250000E+03  0.7546771E-02  0.1235069E+00
         21   -1    0    0  502  501  0.00000000000E+00  0.00000000000E+00  0.31789536418E+02  0.31789536418E+02  0.00000000000E+00 0. -1.
         21   -1    0    0  501  502 -0.00000000000E+00 -0.00000000000E+00 -0.12287848267E+03  0.12287848267E+03  0.00000000000E+00 0. -1.
         25    1    1    2    0    0  0.00000000000E+00  0.00000000000E+00 -0.91088946257E+02  0.15466801909E+03  0.12500000000E+03 0.  0.
<mgrwt>
<rscale>  0 0.12500000E+03</rscale>
<asrwt>0</asrwt>
<pdfrwt beam="1">  1       21 0.48906978E-02 0.12500000E+03</pdfrwt>
<pdfrwt beam="2">  1       21 0.18904382E-01 0.12500000E+03</pdfrwt>
<totfact> 0.70176943E+06</totfact>
</mgrwt>
</event>
<event>
 3    1  0.1573868E-001  0.1250000E+03  0.7546771E-02  0.1235069E+00
         21   -1    0    0  502  501  0.00000000000E+00  0.00000000000E+00  0.28005283932E+02  0.28005283932E+02  0.00000000000E+00 0.  1.
         21   -1    0    0  501  502 -0.00000000000E+00 -0.00000000000E+00 -0.13948260655E+03  0.13948260655E+03  0.00000000000E+00 0.  1.
         25    1    1    2    0    0  0.00000000000E+00  0.00000000000E+00 -0.11147732262E+03  0.16748789048E+03  0.12500000000E+03 0.  0.
<mgrwt>
<rscale>  0 0.12500000E+03</rscale>
<asrwt>0</asrwt>
<pdfrwt beam="1">  1       21 0.43085053E-02 0.12500000E+03</pdfrwt>
<pdfrwt beam="2">  1       21 0.21458862E-01 0.12500000E+03</pdfrwt>
<totfact> 0.68615935E+06</totfact>
</mgrwt>
</event>
<event>
 3    1  0.1573868E-001  0.1250000E+03  0.7546771E-02  0.1235069E+00
         21   -1    0    0  502  501  0.00000000000E+00  0.00000000000E+00  0.24955887021E+02  0.24955887021E+02  0.00000000000E+00 0.  1.
         21   -1    0    0  501  502 -0.00000000000E+00 -0.00000000000E+00 -0.15652619346E+03  0.15652619346E+03  0.00000000000E+00 0.  1.
         25    1    1    2    0    0  0.00000000000E+00  0.00000000000E+00 -0.13157030644E+03  0.18148208049E+03  0.12500000000E+03 0.  0.
<mgrwt>
<rscale>  0 0.12500000E+03</rscale>
<asrwt>0</asrwt>
<pdfrwt beam="1">  1       21 0.38393673E-02 0.12500000E+03</pdfrwt>
<pdfrwt beam="2">  1       21 0.24080953E-01 0.12500000E+03</pdfrwt>
<totfact> 0.66981923E+06</totfact>
</mgrwt>
</event>
<event>
 3    1  0.1573868E-001  0.1250000E+03  0.7546771E-02  0.1235069E+00
         21   -1    0    0  502  501  0.00000000000E+00  0.00000000000E+00  0.83283151721E+01  0.83283151721E+01  0.00000000000E+00 0.  1.
         21   -1    0    0  501  502 -0.00000000000E+00 -0.00000000000E+00 -0.46903244165E+03  0.46903244165E+03  0.00000000000E+00 0.  1.
         25    1    1    2    0    0  0.00000000000E+00  0.00000000000E+00 -0.46070412648E+03  0.47736075682E+03  0.12500000000E+03 0.  0.
<mgrwt>
<rscale>  0 0.12500000E+03</rscale>
<asrwt>0</asrwt>
<pdfrwt beam="1">  1       21 0.12812789E-02 0.12500000E+03</pdfrwt>
<pdfrwt beam="2">  1       21 0.72158855E-01 0.12500000E+03</pdfrwt>
<totfact> 0.43299067E+06</totfact>
</mgrwt>
</event>
<event>
 3    1  0.1573868E-001  0.1250000E+03  0.7546771E-02  0.1235069E+00
         21   -1    0    0  502  501  0.00000000000E+00  0.00000000000E+00  0.38619946875E+03  0.38619946875E+03  0.00000000000E+00 0.  1.
         21   -1    0    0  501  502 -0.00000000000E+00 -0.00000000000E+00 -0.10114591852E+02  0.10114591852E+02  0.00000000000E+00 0.  1.
         25    1    1    2    0    0  0.00000000000E+00  0.00000000000E+00  0.37608487690E+03  0.39631406060E+03  0.12500000000E+03 0.  0.
<mgrwt>
<rscale>  0 0.12500000E+03</rscale>
<asrwt>0</asrwt>
<pdfrwt beam="1">  1       21 0.59415292E-01 0.12500000E+03</pdfrwt>
<pdfrwt beam="2">  1       21 0.15560913E-02 0.12500000E+03</pdfrwt>
<totfact> 0.48286804E+06</totfact>
</mgrwt>
</event>
<event>
 3    1  0.1573868E-001  0.1250000E+03  0.7546771E-02  0.1235069E+00
         21   -1    0    0  502  501  0.00000000000E+00  0.00000000000E+00  0.10472653781E+02  0.10472653781E+02  0.00000000000E+00 0.  1.
         21   -1    0    0  501  502 -0.00000000000E+00 -0.00000000000E+00 -0.37299523901E+03  0.37299523901E+03  0.00000000000E+00 0.  1.
         25    1    1    2    0    0  0.00000000000E+00  0.00000000000E+00 -0.36252258523E+03  0.38346789279E+03  0.12500000000E+03 0.  0.
<mgrwt>
<rscale>  0 0.12500000E+03</rscale>
<asrwt>0</asrwt>
<pdfrwt beam="1">  1       21 0.16111777E-02 0.12500000E+03</pdfrwt>
<pdfrwt beam="2">  1       21 0.57383877E-01 0.12500000E+03</pdfrwt>
<totfact> 0.49157594E+06</totfact>
</mgrwt>
</event>
<event>
 3    1  0.1573868E-001  0.1250000E+03  0.7546771E-02  0.1235069E+00
         21   -1    0    0  502  501  0.00000000000E+00  0.00000000000E+00  0.93610342949E+02  0.93610342949E+02  0.00000000000E+00 0.  1.
         21   -1    0    0  501  502 -0.00000000000E+00 -0.00000000000E+00 -0.41728829069E+02  0.41728829069E+02  0.00000000000E+00 0.  1.
         25    1    1    2    0    0  0.00000000000E+00  0.00000000000E+00  0.51881513880E+02  0.13533917202E+03  0.12500000000E+03 0.  0.
<mgrwt>
<rscale>  0 0.12500000E+03</rscale>
<asrwt>0</asrwt>
<pdfrwt beam="1">  1       21 0.14401591E-01 0.12500000E+03</pdfrwt>
<pdfrwt beam="2">  1       21 0.64198199E-02 0.12500000E+03</pdfrwt>
<totfact> 0.72651595E+06</totfact>
</mgrwt>
</event>
<event>
 3    1  0.1573868E-001  0.1250000E+03  0.7546771E-02  0.1235069E+00
         21   -1    0    0  502  501  0.00000000000E+00  0.00000000000E+00  0.21362058906E+03  0.21362058906E+03  0.00000000000E+00 0. -1.
         21   -1    0    0  501  502 -0.00000000000E+00 -0.00000000000E+00 -0.18285924672E+02  0.18285924672E+02  0.00000000000E+00 0. -1.
         25    1    1    2    0    0  0.00000000000E+00  0.00000000000E+00  0.19533466439E+03  0.23190651373E+03  0.12500000000E+03 0.  0.
<mgrwt>
<rscale>  0 0.12500000E+03</rscale>
<asrwt>0</asrwt>
<pdfrwt beam="1">  1       21 0.32864704E-01 0.12500000E+03</pdfrwt>
<pdfrwt beam="2">  1       21 0.28132193E-02 0.12500000E+03</pdfrwt>
<totfact> 0.61624759E+06</totfact>
</mgrwt>
</event>
<event>
 3    1  0.1573868E-001  0.1250000E+03  0.7546771E-02  0.1235069E+00
         21   -1    0    0  502  501  0.00000000000E+00  0.00000000000E+00  0.14249204965E+02  0.14249204965E+02  0.00000000000E+00 0. -1.
         21   -1    0    0  501  502 -0.00000000000E+00 -0.00000000000E+00 -0.27413810171E+03  0.27413810171E+03  0.00000000000E+00 0. -1.
         25    1    1    2    0    0  0.00000000000E+00  0.00000000000E+00 -0.25988889674E+03  0.28838730667E+03  0.12500000000E+03 0.  0.
<mgrwt>
<rscale>  0 0.12500000E+03</rscale>
<asrwt>0</asrwt>
<pdfrwt beam="1">  1       21 0.21921855E-02 0.12500000E+03</pdfrwt>
<pdfrwt beam="2">  1       21 0.42175091E-01 0.12500000E+03</pdfrwt>
<totfact> 0.56435257E+06</totfact>
</mgrwt>
</event>
<event>
 3    1  0.1573868E-001  0.1250000E+03  0.7546771E-02  0.1235069E+00
         21   -1    0    0  502  501  0.00000000000E+00  0.00000000000E+00  0.91047833712E+02  0.91047833712E+02  0.00000000000E+00 0.  1.
         21   -1    0    0  501  502 -0.00000000000E+00 -0.00000000000E+00 -0.42903272277E+02  0.42903272277E+02  0.00000000000E+00 0.  1.
         25    1    1    2    0    0  0.00000000000E+00  0.00000000000E+00  0.48144561435E+02  0.13395110599E+03  0.12500000000E+03 0.  0.
<mgrwt>
<rscale>  0 0.12500000E+03</rscale>
<asrwt>0</asrwt>
<pdfrwt beam="1">  1       21 0.14007359E-01 0.12500000E+03</pdfrwt>
<pdfrwt beam="2">  1       21 0.66005035E-02 0.12500000E+03</pdfrwt>
<totfact> 0.72835655E+06</totfact>
</mgrwt>
</event>
<event>
 3    1  0.1573868E-001  0.1250000E+03  0.7546771E-02  0.1235069E+00
         21   -1    0    0  502  501  0.00000000000E+00  0.00000000000E+00  0.51866567426E+02  0.51866567426E+02  0.00000000000E+00 0. -1.
         21   -1    0    0  501  502 -0.00000000000E+00 -0.00000000000E+00 -0.75313447446E+02  0.75313447446E+02  0.00000000000E+00 0. -1.
         25    1    1    2    0    0  0.00000000000E+00  0.00000000000E+00 -0.23446880020E+02  0.12718001487E+03  0.12500000000E+03 0.  0.
<mgrwt>
<rscale>  0 0.12500000E+03</rscale>
<asrwt>0</asrwt>
<pdfrwt beam="1">  1       21 0.79794719E-02 0.12500000E+03</pdfrwt>
<pdfrwt beam="2">  1       21 0.11586684E-01 0.12500000E+03</pdfrwt>
<totfact> 0.73744651E+06</totfact>
</mgrwt>
</event>
<event>
 3    1  0.1573868E-001  0.1250000E+03  0.7546771E-02  0.1235069E+00
         21   -1    0    0  502  501  0.00000000000E+00  0.00000000000E+00  0.11482233578E+02  0.11482233578E+02  0.00000000000E+00 0.  1.
         21   -1    0    0  501  502 -0.00000000000E+00 -0.00000000000E+00 -0.34019948936E+03  0.34019948936E+03  0.00000000000E+00 0.  1.
         25    1    1    2    0    0  0.00000000000E+00  0.00000000000E+00 -0.32871725578E+03  0.35168172294E+03  0.12500000000E+03 0.  0.
<mgrwt>
<rscale>  0 0.12500000E+03</rscale>
<asrwt>0</asrwt>
<pdfrwt beam="1">  1       21 0.17664976E-02 0.12500000E+03</pdfrwt>
<pdfrwt beam="2">  1       21 0.52338380E-01 0.12500000E+03</pdfrwt>
<totfact> 0.51414473E+06</totfact>
</mgrwt>
</event>
<event>
 3    1  0.1573868E-001  0.1250000E+03  0.7546771E-02  0.1235069E+00
         21   -1    0    0  502  501  0.00000000000E+00  0.00000000000E+00  0.12477276386E+02  0.12477276386E+02  0.00000000000E+00 0.  1.
         21   -1    0    0  501  502 -0.00000000000E+00 -0.00000000000E+00 -0.31306912495E+03  0.31306912495E+03  0.00000000000E+00 0.  1.
         25    1    1    2    0    0  0.00000000000E+00  0.00000000000E+00 -0.30059184856E+03  0.32554640134E+03  0.12500000000E+03 0.  0.
<mgrwt>
<rscale>  0 0.12500000E+03</rscale>
<asrwt>0</asrwt>
<pdfrwt beam="1">  1       21 0.19195811E-02 0.12500000E+03</pdfrwt>
<pdfrwt beam="2">  1       21 0.48164477E-01 0.12500000E+03</pdfrwt>
<totfact> 0.53396726E+06</totfact>
</mgrwt>
</event>
<event>
 3    1  0.1573868E-001  0.1250000E+03  0.7546771E-02  0.1235069E+00
         21   -1    0    0  502  501  0.00000000000E+00  0.00000000000E+00  0.37583482381E+03  0.37583482381E+03  0.00000000000E+00 0. -1.
         21   -1    0    0  501  502 -0.00000000000E+00 -0.00000000000E+00 -0.10393528626E+02  0.10393528626E+02  0.00000000000E+00 0. -1.
         25    1    1    2    0    0  0.00000000000E+00  0.00000000000E+00  0.36544129518E+03  0.38622835244E+03  0.12500000000E+03 0.  0.
<mgrwt>
<rscale>  0 0.12500000E+03</rscale>
<asrwt>0</asrwt>
<pdfrwt beam="1">  1       21 0.57820732E-01 0.12500000E+03</pdfrwt>
<pdfrwt beam="2">  1       21 0.15990047E-02 0.12500000E+03</pdfrwt>
<totfact> 0.48968431E+06</totfact>
</mgrwt>
</event>
<event>
 3    1  0.1573868E-001  0.1250000E+03  0.7546771E-02  0.1235069E+00
         21   -1    0    0  502  501  0.00000000000E+00  0.00000000000E+00  0.60696007503E+01  0.60696007503E+01  0.00000000000E+00 0.  1.
         21   -1    0    0  501  502 -0.00000000000E+00 -0.00000000000E+00 -0.64357610339E+03  0.64357610339E+03  0.00000000000E+00 0.  1.
         25    1    1    2    0    0  0.00000000000E+00  0.00000000000E+00 -0.63750650264E+03  0.64964570414E+03  0.12500000000E+03 0.  0.
<mgrwt>
<rscale>  0 0.12500000E+03</rscale>
<asrwt>0</asrwt>
<pdfrwt beam="1">  1       21 0.93378497E-03 0.12500000E+03</pdfrwt>
<pdfrwt beam="2">  1       21 0.99011683E-01 0.12500000E+03</pdfrwt>
<totfact> 0.34939278E+06</totfact>
</mgrwt>
</event>
<event>
 3    1  0.1573868E-001  0.1250000E+03  0.7546771E-02  0.1235069E+00
         21   -1    0    0  502  501  0.00000000000E+00  0.00000000000E+00  0.22077185134E+02  0.22077185134E+02  0.00000000000E+00 0.  1.
         21   -1    0    0  501  502 -0.00000000000E+00 -0.00000000000E+00 -0.17693605305E+03  0.17693605305E+03  0.00000000000E+00 0.  1.
         25    1    1    2    0    0  0.00000000000E+00  0.00000000000E+00 -0.15485886791E+03  0.19901323818E+03  0.12500000000E+03 0.  0.
<mgrwt>
<rscale>  0 0.12500000E+03</rscale>
<asrwt>0</asrwt>
<pdfrwt beam="1">  1       21 0.33964901E-02 0.12500000E+03</pdfrwt>
<pdfrwt beam="2">  1       21 0.27220931E-01 0.12500000E+03</pdfrwt>
<totfact> 0.65034331E+06</totfact>
</mgrwt>
</event>
<event>
 3    1  0.1573868E-001  0.1250000E+03  0.7546771E-02  0.1235069E+00
         21   -1    0    0  502  501  0.00000000000E+00  0.00000000000E+00  0.33398890978E+03  0.33398890978E+03  0.00000000000E+00 0. -1.
         21   -1    0    0  501  502 -0.00000000000E+00 -0.00000000000E+00 -0.11695747630E+02  0.11695747630E+02  0.00000000000E+00 0. -1.
         25    1    1    2    0    0  0.00000000000E+00  0.00000000000E+00  0.32229316215E+03  0.34568465741E+03  0.12500000000E+03 0.  0.
<mgrwt>
<rscale>  0 0.12500000E+03</rscale>
<asrwt>0</asrwt>
<pdfrwt beam="1">  1       21 0.51382902E-01 0.12500000E+03</pdfrwt>
<pdfrwt beam="2">  1       21 0.17993460E-02 0.12500000E+03</pdfrwt>
<totfact> 0.51858722E+06</totfact>
</mgrwt>
</event>
<event>
 3    1  0.1573868E-001  0.1250000E+03  0.7546771E-02  0.1235069E+00
         21   -1    0    0  502  501  0.00000000000E+00  0.00000000000E+00  0.46639661243E+02  0.46639661243E+02  0.00000000000E+00 0.  1.
         21   -1    0    0  501  502 -0.00000000000E+00 -0.00000000000E+00 -0.83753824447E+02  0.83753824447E+02  0.00000000000E+00 0.  1.
         25    1    1    2    0    0  0.00000000000E+00  0.00000000000E+00 -0.37114163205E+02  0.13039348569E+03  0.12500000000E+03 0.  0.
<mgrwt>
<rscale>  0 0.12500000E+03</rscale>
<asrwt>0</asrwt>
<pdfrwt beam="1">  1       21 0.71753325E-02 0.12500000E+03</pdfrwt>
<pdfrwt beam="2">  1       21 0.12885204E-01 0.12500000E+03</pdfrwt>
<totfact> 0.73312372E+06</totfact>
</mgrwt>
</event>
<event>
 3    1  0.1573868E-001  0.1250000E+03  0.7546771E-02  0.1235069E+00
         21   -1    0    0  502  501  0.00000000000E+00  0.00000000000E+00  0.22100792930E+02  0.22100792930E+02  0.00000000000E+00 0.  1.
         21   -1    0    0  501  502 -0.00000000000E+00 -0.00000000000E+00 -0.17674705213E+03  0.17674705213E+03  0.00000000000E+00 0.  1.
         25    1    1    2    0    0  0.00000000000E+00  0.00000000000E+00 -0.15464625920E+03  0.19884784506E+03  0.12500000000E+03 0.  0.
<mgrwt>
<rscale>  0 0.12500000E+03</rscale>
<asrwt>0</asrwt>
<pdfrwt beam="1">  1       21 0.34001220E-02 0.12500000E+03</pdfrwt>
<pdfrwt beam="2">  1       21 0.27191854E-01 0.12500000E+03</pdfrwt>
<totfact> 0.65052309E+06</totfact>
</mgrwt>
</event>
<event>
 3    1  0.1573868E-001  0.1250000E+03  0.7546771E-02  0.1235069E+00
         21   -1    0    0  502  501  0.00000000000E+00  0.00000000000E+00  0.17747568840E+02  0.17747568840E+02  0.00000000000E+00 0. -1.
         21   -1    0    0  501  502 -0.00000000000E+00 -0.00000000000E+00 -0.22010056900E+03  0.22010056900E+03  0.00000000000E+00 0. -1.
         25    1    1    2    0    0  0.00000000000E+00  0.00000000000E+00 -0.20235300016E+03  0.23784813784E+03  0.12500000000E+03 0.  0.
<mgrwt>
<rscale>  0 0.12500000E+03</rscale>
<asrwt>0</asrwt>
<pdfrwt beam="1">  1       21 0.27303955E-02 0.12500000E+03</pdfrwt>
<pdfrwt beam="2">  1       21 0.33861623E-01 0.12500000E+03</pdfrwt>
<totfact> 0.61041519E+06</totfact>
</mgrwt>
</event>
<event>
 3    1  0.1573868E-001  0.1250000E+03  0.7546771E-02  0.1235069E+00
         21   -1    0    0  502  501  0.00000000000E+00  0.00000000000E+00  0.66568238571E+02  0.66568238571E+02  0.00000000000E+00 0.  1.
         21   -1    0    0  501  502 -0.00000000000E+00 -0.00000000000E+00 -0.58680386981E+02  0.58680386981E+02  0.00000000000E+00 0.  1.
         25    1    1    2    0    0  0.00000000000E+00  0.00000000000E+00  0.78878515893E+01  0.12524862555E+03  0.12500000000E+03 0.  0.
<mgrwt>
<rscale>  0 0.12500000E+03</rscale>
<asrwt>0</asrwt>
<pdfrwt beam="1">  1       21 0.10241267E-01 0.12500000E+03</pdfrwt>
<pdfrwt beam="2">  1       21 0.90277519E-02 0.12500000E+03</pdfrwt>
<totfact> 0.74010007E+06</totfact>
</mgrwt>
</event>
<event>
 3    1  0.1573868E-001  0.1250000E+03  0.7546771E-02  0.1235069E+00
         21   -1    0    0  502  501  0.00000000000E+00  0.00000000000E+00  0.58512082458E+02  0.58512082458E+02  0.00000000000E+00 0. -1.
         21   -1    0    0  501  502 -0.00000000000E+00 -0.00000000000E+00 -0.66759715872E+02  0.66759715872E+02  0.00000000000E+00 0. -1.
         25    1    1    2    0    0  0.00000000000E+00  0.00000000000E+00 -0.82476334139E+01  0.12527179833E+03  0.12500000000E+03 0.  0.
<mgrwt>
<rscale>  0 0.12500000E+03</rscale>
<asrwt>0</asrwt>
<pdfrwt beam="1">  1       21 0.90018588E-02 0.12500000E+03</pdfrwt>
<pdfrwt beam="2">  1       21 0.10270726E-01 0.12500000E+03</pdfrwt>
<totfact> 0.74006879E+06</totfact>
</mgrwt>
</event>
<event>
 3    1  0.1573868E-001  0.1250000E+03  0.7546771E-02  0.1235069E+00
         21   -1    0    0  502  501  0.00000000000E+00  0.00000000000E+00  0.26260609297E+02  0.26260609297E+02  0.00000000000E+00 0. -1.
         21   -1    0    0  501  502 -0.00000000000E+00 -0.00000000000E+00 -0.14874940470E+03  0.14874940470E+03  0.00000000000E+00 0. -1.
         25    1    1    2    0    0  0.00000000000E+00  0.00000000000E+00 -0.12248879540E+03  0.17501001400E+03  0.12500000000E+03 0.  0.
<mgrwt>
<rscale>  0 0.12500000E+03</rscale>
<asrwt>0</asrwt>
<pdfrwt beam="1">  1       21 0.40400938E-02 0.12500000E+03</pdfrwt>
<pdfrwt beam="2">  1       21 0.22884524E-01 0.12500000E+03</pdfrwt>
<totfact> 0.67728634E+06</totfact>
</mgrwt>
</event>
<event>
 3    1  0.1573868E-001  0.1250000E+03  0.7546771E-02  0.1235069E+00
         21   -1    0    0  502  501  0.00000000000E+00  0.00000000000E+00  0.41554972212E+02  0.41554972212E+02  0.00000000000E+00 0. -1.
         21   -1    0    0  501  502 -0.00000000000E+00 -0.00000000000E+00 -0.94001988020E+02  0.94001988020E+02  0.00000000000E+00 0. -1.
         25    1    1    2    0    0  0.00000000000E+00  0.00000000000E+00 -0.52447015808E+02  0.13555696023E+03  0.12500000000E+03 0.  0.
<mgrwt>
<rscale>  0 0.12500000E+03</rscale>
<asrwt>0</asrwt>
<pdfrwt beam="1">  1       21 0.63930728E-02 0.12500000E+03</pdfrwt>
<pdfrwt beam="2">  1       21 0.14461844E-01 0.12500000E+03</pdfrwt>
<totfact> 0.72622811E+06</totfact>
</mgrwt>
</event>
<event>
 3    1  0.1573868E-001  0.1250000E+03  0.7546771E-02  0.1235069E+00
         21   -1    0    0  502  501  0.00000000000E+00  0.00000000000E+00  0.50640463261E+02  0.50640463261E+02  0.00000000000E+00 0. -1.
         21   -1    0    0  501  502 -0.00000000000E+00 -0.00000000000E+00 -0.77136932573E+02  0.77136932573E+02  0.00000000000E+00 0. -1.
         25    1    1    2    0    0  0.00000000000E+00  0.00000000000E+00 -0.26496469312E+02  0.12777739583E+03  0.12500000000E+03 0.  0.
<mgrwt>
<rscale>  0 0.12500000E+03</rscale>
<asrwt>0</asrwt>
<pdfrwt beam="1">  1       21 0.77908405E-02 0.12500000E+03</pdfrwt>
<pdfrwt beam="2">  1       21 0.11867220E-01 0.12500000E+03</pdfrwt>
<totfact> 0.73663652E+06</totfact>
</mgrwt>
</event>
<event>
 3    1  0.1573868E-001  0.1250000E+03  0.7546771E-02  0.1235069E+00
         21   -1    0    0  502  501  0.00000000000E+00  0.00000000000E+00  0.18197731826E+03  0.18197731826E+03  0.00000000000E+00 0.  1.
         21   -1    0    0  501  502 -0.00000000000E+00 -0.00000000000E+00 -0.21465587236E+02  0.21465587236E+02  0.00000000000E+00 0.  1.
         25    1    1    2    0    0  0.00000000000E+00  0.00000000000E+00  0.16051173102E+03  0.20344290549E+03  0.12500000000E+03 0.  0.
<mgrwt>
<rscale>  0 0.12500000E+03</rscale>
<asrwt>0</asrwt>
<pdfrwt beam="1">  1       21 0.27996509E-01 0.12500000E+03</pdfrwt>
<pdfrwt beam="2">  1       21 0.33023982E-02 0.12500000E+03</pdfrwt>
<totfact> 0.64556089E+06</totfact>
</mgrwt>
</event>
<event>
 3    1  0.1573868E-001  0.1250000E+03  0.7546771E-02  0.1235069E+00
         21   -1    0    0  502  501  0.00000000000E+00  0.00000000000E+00  0.74300048997E+02  0.74300048997E+02  0.00000000000E+00 0. -1.
         21   -1    0    0  501  502 -0.00000000000E+00 -0.00000000000E+00 -0.52573989556E+02  0.52573989556E+02  0.00000000000E+00 0. -1.
         25    1    1    2    0    0  0.00000000000E+00  0.00000000000E+00  0.21726059441E+02  0.12687403855E+03  0.12500000000E+03 0.  0.
<mgrwt>
<rscale>  0 0.12500000E+03</rscale>
<asrwt>0</asrwt>
<pdfrwt beam="1">  1       21 0.11430777E-01 0.12500000E+03</pdfrwt>
<pdfrwt beam="2">  1       21 0.80883061E-02 0.12500000E+03</pdfrwt>
<totfact> 0.73786293E+06</totfact>
</mgrwt>
</event>
<event>
 3    1  0.1573868E-001  0.1250000E+03  0.7546771E-02  0.1235069E+00
         21   -1    0    0  502  501  0.00000000000E+00  0.00000000000E+00  0.30344679766E+02  0.30344679766E+02  0.00000000000E+00 0.  1.
         21   -1    0    0  501  502 -0.00000000000E+00 -0.00000000000E+00 -0.12872932027E+03  0.12872932027E+03  0.00000000000E+00 0.  1.
         25    1    1    2    0    0  0.00000000000E+00  0.00000000000E+00 -0.98384640501E+02  0.15907400003E+03  0.12500000000E+03 0.  0.
<mgrwt>
<rscale>  0 0.12500000E+03</rscale>
<asrwt>0</asrwt>
<pdfrwt beam="1">  1       21 0.46684122E-02 0.12500000E+03</pdfrwt>
<pdfrwt beam="2">  1       21 0.19804511E-01 0.12500000E+03</pdfrwt>
<totfact> 0.69632820E+06</totfact>
</mgrwt>
</event>
<event>
 3    1  0.1573868E-001  0.1250000E+03  0.7546771E-02  0.1235069E+00
         21   -1    0    0  502  501  0.00000000000E+00  0.00000000000E+00  0.22945969614E+03  0.22945969614E+03  0.00000000000E+00 0.  1.
         21   -1    0    0  501  502 -0.00000000000E+00 -0.00000000000E+00 -0.17023686798E+02  0.17023686798E+02  0.00000000000E+00 0.  1.
         25    1    1    2    0    0  0.00000000000E+00  0.00000000000E+00  0.21243600934E+03  0.24648338294E+03  0.12500000000E+03 0.  0.
<mgrwt>
<rscale>  0 0.12500000E+03</rscale>
<asrwt>0</asrwt>
<pdfrwt beam="1">  1       21 0.35301489E-01 0.12500000E+03</pdfrwt>
<pdfrwt beam="2">  1       21 0.26190289E-02 0.12500000E+03</pdfrwt>
<totfact> 0.60210863E+06</totfact>
</mgrwt>
</event>
<event>
 3    1  0.1573868E-001  0.1250000E+03  0.7546771E-02  0.1235069E+00
         21   -1    0    0  502  501  0.00000000000E+00  0.00000000000E+00  0.27853085241E+03  0.27853085241E+03  0.00000000000E+00 0.  1.
         21   -1    0    0  501  502 -0.00000000000E+00 -0.00000000000E+00 -0.14024478675E+02  0.14024478675E+02  0.00000000000E+00 0.  1.
         25    1    1    2    0    0  0.00000000000E+00  0.00000000000E+00  0.26450637374E+03  0.29255533109E+03  0.12500000000E+03 0.  0.
<mgrwt>
<rscale>  0 0.12500000E+03</rscale>
<asrwt>0</asrwt>
<pdfrwt beam="1">  1       21 0.42850896E-01 0.12500000E+03</pdfrwt>
<pdfrwt beam="2">  1       21 0.21576123E-02 0.12500000E+03</pdfrwt>
<totfact> 0.56080587E+06</totfact>
</mgrwt>
</event>
<event>
 3    1  0.1573868E-001  0.1250000E+03  0.7546771E-02  0.1235069E+00
         21   -1    0    0  502  501  0.00000000000E+00  0.00000000000E+00  0.12600877082E+03  0.12600877082E+03  0.00000000000E+00 0. -1.
         21   -1    0    0  501  502 -0.00000000000E+00 -0.00000000000E+00 -0.30999826239E+02  0.30999826239E+02  0.00000000000E+00 0. -1.
         25    1    1    2    0    0  0.00000000000E+00  0.00000000000E+00  0.95008944582E+02  0.15700859706E+03  0.12500000000E+03 0.  0.
<mgrwt>
<rscale>  0 0.12500000E+03</rscale>
<asrwt>0</asrwt>
<pdfrwt beam="1">  1       21 0.19385964E-01 0.12500000E+03</pdfrwt>
<pdfrwt beam="2">  1       21 0.47692041E-02 0.12500000E+03</pdfrwt>
<totfact> 0.69886872E+06</totfact>
</mgrwt>
</event>
<event>
 3    1  0.1573868E-001  0.1250000E+03  0.7546771E-02  0.1235069E+00
         21   -1    0    0  502  501  0.00000000000E+00  0.00000000000E+00  0.72887155116E+01  0.72887155116E+01  0.00000000000E+00 0. -1.
         21   -1    0    0  501  502 -0.00000000000E+00 -0.00000000000E+00 -0.53593119306E+03  0.53593119306E+03  0.00000000000E+00 0. -1.
         25    1    1    2    0    0  0.00000000000E+00  0.00000000000E+00 -0.52864247755E+03  0.54321990857E+03  0.12500000000E+03 0.  0.
<mgrwt>
<rscale>  0 0.12500000E+03</rscale>
<asrwt>0</asrwt>
<pdfrwt beam="1">  1       21 0.11213405E-02 0.12500000E+03</pdfrwt>
<pdfrwt beam="2">  1       21 0.82450977E-01 0.12500000E+03</pdfrwt>
<totfact> 0.39793132E+06</totfact>
</mgrwt>
</event>
<event>
 3    1  0.1573868E-001  0.1250000E+03  0.7546771E-02  0.1235069E+00
         21   -1    0    0  502  501  0.00000000000E+00  0.00000000000E+00  0.11604458044E+03  0.11604458044E+03  0.00000000000E+00 0. -1.
         21   -1    0    0  501  502 -0.00000000000E+00 -0.00000000000E+00 -0.33661632325E+02  0.33661632325E+02  0.00000000000E+00 0. -1.
         25    1    1    2    0    0  0.00000000000E+00  0.00000000000E+00  0.82382948112E+02  0.14970621276E+03  0.12500000000E+03 0.  0.
<mgrwt>
<rscale>  0 0.12500000E+03</rscale>
<asrwt>0</asrwt>
<pdfrwt beam="1">  1       21 0.17853012E-01 0.12500000E+03</pdfrwt>
<pdfrwt beam="2">  1       21 0.51787127E-02 0.12500000E+03</pdfrwt>
<totfact> 0.70796125E+06</totfact>
</mgrwt>
</event>
<event>
 3    1  0.1573868E-001  0.1250000E+03  0.7546771E-02  0.1235069E+00
         21   -1    0    0  502  501  0.00000000000E+00  0.00000000000E+00  0.20851585999E+03  0.20851585999E+03  0.00000000000E+00 0.  1.
         21   -1    0    0  501  502 -0.00000000000E+00 -0.00000000000E+00 -0.18733586981E+02  0.18733586981E+02  0.00000000000E+00 0.  1.
         25    1    1    2    0    0  0.00000000000E+00  0.00000000000E+00  0.18978227301E+03  0.22724944697E+03  0.12500000000E+03 0.  0.
<mgrwt>
<rscale>  0 0.12500000E+03</rscale>
<asrwt>0</asrwt>
<pdfrwt beam="1">  1       21 0.32079361E-01 0.12500000E+03</pdfrwt>
<pdfrwt beam="2">  1       21 0.28820905E-02 0.12500000E+03</pdfrwt>
<totfact> 0.62088778E+06</totfact>
</mgrwt>
</event>
<event>
 3    1  0.1573868E-001  0.1250000E+03  0.7546771E-02  0.1235069E+00
         21   -1    0    0  502  501  0.00000000000E+00  0.00000000000E+00  0.10521371156E+03  0.10521371156E+03  0.00000000000E+00 0.  1.
         21   -1    0    0  501  502 -0.00000000000E+00 -0.00000000000E+00 -0.37126814958E+02  0.37126814958E+02  0.00000000000E+00 0.  1.
         25    1    1    2    0    0  0.00000000000E+00  0.00000000000E+00  0.68086896599E+02  0.14234052651E+03  0.12500000000E+03 0.  0.
<mgrwt>
<rscale>  0 0.12500000E+03</rscale>
<asrwt>0</asrwt>
<pdfrwt beam="1">  1       21 0.16186725E-01 0.12500000E+03</pdfrwt>
<pdfrwt beam="2">  1       21 0.57118178E-02 0.12500000E+03</pdfrwt>
<totfact> 0.71735211E+06</totfact>
</mgrwt>
</event>
<event>
 3    1  0.1573868E-001  0.1250000E+03  0.7546771E-02  0.1235069E+00
         21   -1    0    0  502  501  0.00000000000E+00  0.00000000000E+00  0.19533593746E+03  0.19533593746E+03  0.00000000000E+00 0.  1.
         21   -1    0    0  501  502 -0.00000000000E+00 -0.00000000000E+00 -0.19997600292E+02  0.19997600292E+02  0.00000000000E+00 0.  1.
         25    1    1    2    0    0  0.00000000000E+00  0.00000000000E+00  0.17533833717E+03  0.21533353775E+03  0.12500000000E+03 0.  0.
<mgrwt>
<rscale>  0 0.12500000E+03</rscale>
<asrwt>0</asrwt>
<pdfrwt beam="1">  1       21 0.30051681E-01 0.12500000E+03</pdfrwt>
<pdfrwt beam="2">  1       21 0.30765540E-02 0.12500000E+03</pdfrwt>
<totfact> 0.63302719E+06</totfact>
</mgrwt>
</event>
<event>
 3    1  0.1573868E-001  0.1250000E+03  0.7546771E-02  0.1235069E+00
         21   -1    0    0  502  501  0.00000000000E+00  0.00000000000E+00  0.71825346523E+01  0.71825346523E+01  0.00000000000E+00 0.  1.
         21   -1    0    0  501  502 -0.00000000000E+00 -0.00000000000E+00 -0.54385397204E+03  0.54385397204E+03  0.00000000000E+00 0.  1.
         25    1    1    2    0    0  0.00000000000E+00  0.00000000000E+00 -0.53667143739E+03  0.55103650670E+03  0.12500000000E+03 0.  0.
<mgrwt>
<rscale>  0 0.12500000E+03</rscale>
<asrwt>0</asrwt>
<pdfrwt beam="1">  1       21 0.11050057E-02 0.12500000E+03</pdfrwt>
<pdfrwt beam="2">  1       21 0.83669814E-01 0.12500000E+03</pdfrwt>
<totfact> 0.39404917E+06</totfact>
</mgrwt>
</event>
<event>
 3    1  0.1573868E-001  0.1250000E+03  0.7546771E-02  0.1235069E+00
         21   -1    0    0  502  501  0.00000000000E+00  0.00000000000E+00  0.52267975523E+02  0.52267975523E+02  0.00000000000E+00 0. -1.
         21   -1    0    0  501  502 -0.00000000000E+00 -0.00000000000E+00 -0.74735054513E+02  0.74735054513E+02  0.00000000000E+00 0. -1.
         25    1    1    2    0    0  0.00000000000E+00  0.00000000000E+00 -0.22467078989E+02  0.12700303004E+03  0.12500000000E+03 0.  0.
<mgrwt>
<rscale>  0 0.12500000E+03</rscale>
<asrwt>0</asrwt>
<pdfrwt beam="1">  1       21 0.80412270E-02 0.12500000E+03</pdfrwt>
<pdfrwt beam="2">  1       21 0.11497701E-01 0.12500000E+03</pdfrwt>
<totfact> 0.73768724E+06</totfact>
</mgrwt>
</event>
<event>
 3    1  0.1573868E-001  0.1250000E+03  0.7546771E-02  0.1235069E+00
         21   -1    0    0  502  501  0.00000000000E+00  0.00000000000E+00  0.23752236701E+02  0.23752236701E+02  0.00000000000E+00 0. -1.
         21   -1    0    0  501  502 -0.00000000000E+00 -0.00000000000E+00 -0.16445819605E+03  0.16445819605E+03  0.00000000000E+00 0. -1.
         25    1    1    2    0    0  0.00000000000E+00  0.00000000000E+00 -0.14070595935E+03  0.18821043275E+03  0.12500000000E+03 0.  0.
<mgrwt>
<rscale>  0 0.12500000E+03</rscale>
<asrwt>0</asrwt>
<pdfrwt beam="1">  1       21 0.36541903E-02 0.12500000E+03</pdfrwt>
<pdfrwt beam="2">  1       21 0.25301261E-01 0.12500000E+03</pdfrwt>
<totfact> 0.66221912E+06</totfact>
</mgrwt>
</event>
<event>
 3    1  0.1573868E-001  0.1250000E+03  0.7546771E-02  0.1235069E+00
         21   -1    0    0  502  501  0.00000000000E+00  0.00000000000E+00  0.70257851748E+03  0.70257851748E+03  0.00000000000E+00 0.  1.
         21   -1    0    0  501  502 -0.00000000000E+00 -0.00000000000E+00 -0.55598768007E+01  0.55598768007E+01  0.00000000000E+00 0.  1.
         25    1    1    2    0    0  0.00000000000E+00  0.00000000000E+00  0.69701864068E+03  0.70813839428E+03  0.12500000000E+03 0.  0.
<mgrwt>
<rscale>  0 0.12500000E+03</rscale>
<asrwt>0</asrwt>
<pdfrwt beam="1">  1       21 0.10808893E+00 0.12500000E+03</pdfrwt>
<pdfrwt beam="2">  1       21 0.85536622E-03 0.12500000E+03</pdfrwt>
<totfact> 0.32598748E+06</totfact>
</mgrwt>
</event>
<event>
 3    1  0.1573868E-001  0.1250000E+03  0.7546771E-02  0.1235069E+00
         21   -1    0    0  502  501  0.00000000000E+00  0.00000000000E+00  0.38040095344E+03  0.38040095344E+03  0.00000000000E+00 0. -1.
         21   -1    0    0  501  502 -0.00000000000E+00 -0.00000000000E+00 -0.10268770266E+02  0.10268770266E+02  0.00000000000E+00 0. -1.
         25    1    1    2    0    0  0.00000000000E+00  0.00000000000E+00  0.37013218317E+03  0.39066972371E+03  0.12500000000E+03 0.  0.
<mgrwt>
<rscale>  0 0.12500000E+03</rscale>
<asrwt>0</asrwt>
<pdfrwt beam="1">  1       21 0.58523213E-01 0.12500000E+03</pdfrwt>
<pdfrwt beam="2">  1       21 0.15798111E-02 0.12500000E+03</pdfrwt>
<totfact> 0.48666442E+06</totfact>
</mgrwt>
</event>
<event>
 3    1  0.1573868E-001  0.1250000E+03  0.7546771E-02  0.1235069E+00
         21   -1    0    0  502  501  0.00000000000E+00  0.00000000000E+00  0.89951040443E+02  0.89951040443E+02  0.00000000000E+00 0.  1.
         21   -1    0    0  501  502 -0.00000000000E+00 -0.00000000000E+00 -0.43426401527E+02  0.43426401527E+02  0.00000000000E+00 0.  1.
         25    1    1    2    0    0  0.00000000000E+00  0.00000000000E+00  0.46524638916E+02  0.13337744197E+03  0.12500000000E+03 0.  0.
<mgrwt>
<rscale>  0 0.12500000E+03</rscale>
<asrwt>0</asrwt>
<pdfrwt beam="1">  1       21 0.13838622E-01 0.12500000E+03</pdfrwt>
<pdfrwt beam="2">  1       21 0.66809848E-02 0.12500000E+03</pdfrwt>
<totfact> 0.72912038E+06</totfact>
</mgrwt>
</event>
<event>
 3    1  0.1573868E-001  0.1250000E+03  0.7546771E-02  0.1235069E+00
         21   -1    0    0  502  501  0.00000000000E+00  0.00000000000E+00  0.46396253606E+02  0.46396253606E+02  0.00000000000E+00 0. -1.
         21   -1    0    0  501  502 -0.00000000000E+00 -0.00000000000E+00 -0.84193220280E+02  0.84193220280E+02  0.00000000000E+00 0. -1.
         25    1    1    2    0    0  0.00000000000E+00  0.00000000000E+00 -0.37796966674E+02  0.13058947389E+03  0.12500000000E+03 0.  0.
<mgrwt>
<rscale>  0 0.12500000E+03</rscale>
<asrwt>0</asrwt>
<pdfrwt beam="1">  1       21 0.71378852E-02 0.12500000E+03</pdfrwt>
<pdfrwt beam="2">  1       21 0.12952803E-01 0.12500000E+03</pdfrwt>
<totfact> 0.73286048E+06</totfact>
</mgrwt>
</event>
<event>
 3    1  0.1573868E-001  0.1250000E+03  0.7546771E-02  0.1235069E+00
         21   -1    0    0  502  501  0.00000000000E+00  0.00000000000E+00  0.75325526826E+03  0.75325526826E+03  0.00000000000E+00 0. -1.
         21   -1    0    0  501  502 -0.00000000000E+00 -0.00000000000E+00 -0.51858249980E+01  0.51858249980E+01  0.00000000000E+00 0. -1.
         25    1    1    2    0    0  0.00000000000E+00  0.00000000000E+00  0.74806944326E+03  0.75844109326E+03  0.12500000000E+03 0.  0.
<mgrwt>
<rscale>  0 0.12500000E+03</rscale>
<asrwt>0</asrwt>
<pdfrwt beam="1">  1       21 0.11588534E+00 0.12500000E+03</pdfrwt>
<pdfrwt beam="2">  1       21 0.79781983E-03 0.12500000E+03</pdfrwt>
<totfact> 0.30774197E+06</totfact>
</mgrwt>
</event>
<event>
 3    1  0.1573868E-001  0.1250000E+03  0.7546771E-02  0.1235069E+00
         21   -1    0    0  502  501  0.00000000000E+00  0.00000000000E+00  0.18425310404E+03  0.18425310404E+03  0.00000000000E+00 0.  1.
         21   -1    0    0  501  502 -0.00000000000E+00 -0.00000000000E+00 -0.21200456950E+02  0.21200456950E+02  0.00000000000E+00 0.  1.
         25    1    1    2    0    0  0.00000000000E+00  0.00000000000E+00  0.16305264709E+03  0.20545356099E+03  0.12500000000E+03 0.  0.
<mgrwt>
<rscale>  0 0.12500000E+03</rscale>
<asrwt>0</asrwt>
<pdfrwt beam="1">  1       21 0.28346630E-01 0.12500000E+03</pdfrwt>
<pdfrwt beam="2">  1       21 0.32616089E-02 0.12500000E+03</pdfrwt>
<totfact> 0.64341071E+06</totfact>
</mgrwt>
</event>
<event>
 3    1  0.1573868E-001  0.1250000E+03  0.7546771E-02  0.1235069E+00
         21   -1    0    0  502  501  0.00000000000E+00  0.00000000000E+00  0.37519963049E+01  0.37519963049E+01  0.00000000000E+00 0. -1.
         21   -1    0    0  501  502 -0.00000000000E+00 -0.00000000000E+00 -0.10411124326E+04  0.10411124326E+04  0.00000000000E+00 0. -1.
         25    1    1    2    0    0  0.00000000000E+00  0.00000000000E+00 -0.10373604363E+04  0.10448644289E+04  0.12500000000E+03 0.  0.
<mgrwt>
<rscale>  0 0.12500000E+03</rscale>
<asrwt>0</asrwt>
<pdfrwt beam="1">  1       21 0.57722986E-03 0.12500000E+03</pdfrwt>
<pdfrwt beam="2">  1       21 0.16017124E+00 0.12500000E+03</pdfrwt>
<totfact> 0.22521056E+06</totfact>
</mgrwt>
</event>
<event>
 3    1  0.1573868E-001  0.1250000E+03  0.7546771E-02  0.1235069E+00
         21   -1    0    0  502  501  0.00000000000E+00  0.00000000000E+00  0.42303341394E+02  0.42303341394E+02  0.00000000000E+00 0. -1.
         21   -1    0    0  501  502 -0.00000000000E+00 -0.00000000000E+00 -0.92339041581E+02  0.92339041581E+02  0.00000000000E+00 0. -1.
         25    1    1    2    0    0  0.00000000000E+00  0.00000000000E+00 -0.50035700187E+02  0.13464238297E+03  0.12500000000E+03 0.  0.
<mgrwt>
<rscale>  0 0.12500000E+03</rscale>
<asrwt>0</asrwt>
<pdfrwt beam="1">  1       21 0.65082064E-02 0.12500000E+03</pdfrwt>
<pdfrwt beam="2">  1       21 0.14206006E-01 0.12500000E+03</pdfrwt>
<totfact> 0.72743857E+06</totfact>
</mgrwt>
</event>
<event>
 3    1  0.1573868E-001  0.1250000E+03  0.7546771E-02  0.1235069E+00
         21   -1    0    0  502  501  0.00000000000E+00  0.00000000000E+00  0.11891843937E+02  0.11891843937E+02  0.00000000000E+00 0.  1.
         21   -1    0    0  501  502 -0.00000000000E+00 -0.00000000000E+00 -0.32848143827E+03  0.32848143827E+03  0.00000000000E+00 0.  1.
         25    1    1    2    0    0  0.00000000000E+00  0.00000000000E+00 -0.31658959434E+03  0.34037328221E+03  0.12500000000E+03 0.  0.
<mgrwt>
<rscale>  0 0.12500000E+03</rscale>
<asrwt>0</asrwt>
<pdfrwt beam="1">  1       21 0.18295144E-02 0.12500000E+03</pdfrwt>
<pdfrwt beam="2">  1       21 0.50535606E-01 0.12500000E+03</pdfrwt>
<totfact> 0.52257346E+06</totfact>
</mgrwt>
</event>
<event>
 3    1  0.1573868E-001  0.1250000E+03  0.7546771E-02  0.1235069E+00
         21   -1    0    0  502  501  0.00000000000E+00  0.00000000000E+00  0.50220404828E+02  0.50220404828E+02  0.00000000000E+00 0.  1.
         21   -1    0    0  501  502 -0.00000000000E+00 -0.00000000000E+00 -0.77782128865E+02  0.77782128865E+02  0.00000000000E+00 0.  1.
         25    1    1    2    0    0  0.00000000000E+00  0.00000000000E+00 -0.27561724037E+02  0.12800253369E+03  0.12500000000E+03 0.  0.
<mgrwt>
<rscale>  0 0.12500000E+03</rscale>
<asrwt>0</asrwt>
<pdfrwt beam="1">  1       21 0.77262161E-02 0.12500000E+03</pdfrwt>
<pdfrwt beam="2">  1       21 0.11966481E-01 0.12500000E+03</pdfrwt>
<totfact> 0.73633217E+06</totfact>
</mgrwt>
</event>
<event>
 3    1  0.1573868E-001  0.1250000E+03  0.7546771E-02  0.1235069E+00
         21   -1    0    0  502  501  0.00000000000E+00  0.00000000000E+00  0.14795351431E+02  0.14795351431E+02  0.00000000000E+00 0. -1.
         21   -1    0    0  501  502 -0.00000000000E+00 -0.00000000000E+00 -0.26401873711E+03  0.26401873711E+03  0.00000000000E+00 0. -1.
         25    1    1    2    0    0  0.00000000000E+00  0.00000000000E+00 -0.24922338568E+03  0.27881408854E+03  0.12500000000E+03 0.  0.
<mgrwt>
<rscale>  0 0.12500000E+03</rscale>
<asrwt>0</asrwt>
<pdfrwt beam="1">  1       21 0.22762081E-02 0.12500000E+03</pdfrwt>
<pdfrwt beam="2">  1       21 0.40618265E-01 0.12500000E+03</pdfrwt>
<totfact> 0.57264082E+06</totfact>
</mgrwt>
</event>
<event>
 3    1  0.1573868E-001  0.1250000E+03  0.7546771E-02  0.1235069E+00
         21   -1    0    0  502  501  0.00000000000E+00  0.00000000000E+00  0.48952208379E+03  0.48952208379E+03  0.00000000000E+00 0. -1.
         21   -1    0    0  501  502 -0.00000000000E+00 -0.00000000000E+00 -0.79797217109E+01  0.79797217109E+01  0.00000000000E+00 0. -1.
         25    1    1    2    0    0  0.00000000000E+00  0.00000000000E+00  0.48154236208E+03  0.49750180550E+03  0.12500000000E+03 0.  0.
<mgrwt>
<rscale>  0 0.12500000E+03</rscale>
<asrwt>0</asrwt>
<pdfrwt beam="1">  1       21 0.75311066E-01 0.12500000E+03</pdfrwt>
<pdfrwt beam="2">  1       21 0.12276499E-02 0.12500000E+03</pdfrwt>
<totfact> 0.42179886E+06</totfact>
</mgrwt>
</event>
<event>
 3    1  0.1573868E-001  0.1250000E+03  0.7546771E-02  0.1235069E+00
         21   -1    0    0  502  501  0.00000000000E+00  0.00000000000E+00  0.91715009013E+02  0.91715009013E+02  0.00000000000E+00 0. -1.
         21   -1    0    0  501  502 -0.00000000000E+00 -0.00000000000E+00 -0.42591175011E+02  0.42591175011E+02  0.00000000000E+00 0. -1.
         25    1    1    2    0    0  0.00000000000E+00  0.00000000000E+00  0.49123834002E+02  0.13430618402E+03  0.12500000000E+03 0.  0.
<mgrwt>
<rscale>  0 0.12500000E+03</rscale>
<asrwt>0</asrwt>
<pdfrwt beam="1">  1       21 0.14110001E-01 0.12500000E+03</pdfrwt>
<pdfrwt beam="2">  1       21 0.65524885E-02 0.12500000E+03</pdfrwt>
<totfact> 0.72788469E+06</totfact>
</mgrwt>
</event>
<event>
 3    1  0.1573868E-001  0.1250000E+03  0.7546771E-02  0.1235069E+00
         21   -1    0    0  502  501  0.00000000000E+00  0.00000000000E+00  0.34913193188E+02  0.34913193188E+02  0.00000000000E+00 0.  1.
         21   -1    0    0  501  502 -0.00000000000E+00 -0.00000000000E+00 -0.11188463854E+03  0.11188463854E+03  0.00000000000E+00 0.  1.
         25    1    1    2    0    0  0.00000000000E+00  0.00000000000E+00 -0.76971445349E+02  0.14679783172E+03  0.12500000000E+03 0.  0.
<mgrwt>
<rscale>  0 0.12500000E+03</rscale>
<asrwt>0</asrwt>
<pdfrwt beam="1">  1       21 0.53712605E-02 0.12500000E+03</pdfrwt>
<pdfrwt beam="2">  1       21 0.17213021E-01 0.12500000E+03</pdfrwt>
<totfact> 0.71163808E+06</totfact>
</mgrwt>
</event>
<event>
 3    1  0.1573868E-001  0.1250000E+03  0.7546771E-02  0.1235069E+00
         21   -1    0    0  502  501  0.00000000000E+00  0.00000000000E+00  0.20972915148E+02  0.20972915148E+02  0.00000000000E+00 0. -1.
         21   -1    0    0  501  502 -0.00000000000E+00 -0.00000000000E+00 -0.18625212435E+03  0.18625212435E+03  0.00000000000E+00 0. -1.
         25    1    1    2    0    0  0.00000000000E+00  0.00000000000E+00 -0.16527920920E+03  0.20722503949E+03  0.12500000000E+03 0.  0.
<mgrwt>
<rscale>  0 0.12500000E+03</rscale>
<asrwt>0</asrwt>
<pdfrwt beam="1">  1       21 0.32266023E-02 0.12500000E+03</pdfrwt>
<pdfrwt beam="2">  1       21 0.28654173E-01 0.12500000E+03</pdfrwt>
<totfact> 0.64152680E+06</totfact>
</mgrwt>
</event>
<event>
 3    1  0.1573868E-001  0.1250000E+03  0.7546771E-02  0.1235069E+00
         21   -1    0    0  502  501  0.00000000000E+00  0.00000000000E+00  0.44130894518E+03  0.44130894518E+03  0.00000000000E+00 0.  1.
         21   -1    0    0  501  502 -0.00000000000E+00 -0.00000000000E+00 -0.88515087733E+01  0.88515087733E+01  0.00000000000E+00 0.  1.
         25    1    1    2    0    0  0.00000000000E+00  0.00000000000E+00  0.43245743641E+03  0.45016045396E+03  0.12500000000E+03 0.  0.
<mgrwt>
<rscale>  0 0.12500000E+03</rscale>
<asrwt>0</asrwt>
<pdfrwt beam="1">  1       21 0.67893667E-01 0.12500000E+03</pdfrwt>
<pdfrwt beam="2">  1       21 0.13617709E-02 0.12500000E+03</pdfrwt>
<totfact> 0.44882676E+06</totfact>
</mgrwt>
</event>
<event>
 3    1  0.1573868E-001  0.1250000E+03  0.7546771E-02  0.1235069E+00
         21   -1    0    0  502  501  0.00000000000E+00  0.00000000000E+00  0.13853094130E+02  0.13853094130E+02  0.00000000000E+00 0.  1.
         21   -1    0    0  501  502 -0.00000000000E+00 -0.00000000000E+00 -0.28197671677E+03  0.28197671677E+03  0.00000000000E+00 0.  1.
         25    1    1    2    0    0  0.00000000000E+00  0.00000000000E+00 -0.26812362264E+03  0.29582981090E+03  0.12500000000E+03 0.  0.
<mgrwt>
<rscale>  0 0.12500000E+03</rscale>
<asrwt>0</asrwt>
<pdfrwt beam="1">  1       21 0.21312454E-02 0.12500000E+03</pdfrwt>
<pdfrwt beam="2">  1       21 0.43381031E-01 0.12500000E+03</pdfrwt>
<totfact> 0.55804524E+06</totfact>
</mgrwt>
</event>
<event>
 3    1  0.1573868E-001  0.1250000E+03  0.7546771E-02  0.1235069E+00
         21   -1    0    0  502  501  0.00000000000E+00  0.00000000000E+00  0.15518567824E+03  0.15518567824E+03  0.00000000000E+00 0.  1.
         21   -1    0    0  501  502 -0.00000000000E+00 -0.00000000000E+00 -0.25171459404E+02  0.25171459404E+02  0.00000000000E+00 0.  1.
         25    1    1    2    0    0  0.00000000000E+00  0.00000000000E+00  0.13001421884E+03  0.18035713765E+03  0.12500000000E+03 0.  0.
<mgrwt>
<rscale>  0 0.12500000E+03</rscale>
<asrwt>0</asrwt>
<pdfrwt beam="1">  1       21 0.23874719E-01 0.12500000E+03</pdfrwt>
<pdfrwt beam="2">  1       21 0.38725323E-02 0.12500000E+03</pdfrwt>
<totfact> 0.67110591E+06</totfact>
</mgrwt>
</event>
<event>
 3    1  0.1573868E-001  0.1250000E+03  0.7546771E-02  0.1235069E+00
         21   -1    0    0  502  501  0.00000000000E+00  0.00000000000E+00  0.19360755966E+03  0.19360755966E+03  0.00000000000E+00 0. -1.
         21   -1    0    0  501  502 -0.00000000000E+00 -0.00000000000E+00 -0.20176123323E+02  0.20176123323E+02  0.00000000000E+00 0. -1.
         25    1    1    2    0    0  0.00000000000E+00  0.00000000000E+00  0.17343143634E+03  0.21378368298E+03  0.12500000000E+03 0.  0.
<mgrwt>
<rscale>  0 0.12500000E+03</rscale>
<asrwt>0</asrwt>
<pdfrwt beam="1">  1       21 0.29785777E-01 0.12500000E+03</pdfrwt>
<pdfrwt beam="2">  1       21 0.31040191E-02 0.12500000E+03</pdfrwt>
<totfact> 0.63463635E+06</totfact>
</mgrwt>
</event>
<event>
 3    1  0.1573868E-001  0.1250000E+03  0.7546771E-02  0.1235069E+00
         21   -1    0    0  502  501  0.00000000000E+00  0.00000000000E+00  0.45323662842E+03  0.45323662842E+03  0.00000000000E+00 0. -1.
         21   -1    0    0  501  502 -0.00000000000E+00 -0.00000000000E+00 -0.86185664508E+01  0.86185664508E+01  0.00000000000E+00 0. -1.
         25    1    1    2    0    0  0.00000000000E+00  0.00000000000E+00  0.44461806197E+03  0.46185519487E+03  0.12500000000E+03 0.  0.
<mgrwt>
<rscale>  0 0.12500000E+03</rscale>
<asrwt>0</asrwt>
<pdfrwt beam="1">  1       21 0.69728694E-01 0.12500000E+03</pdfrwt>
<pdfrwt beam="2">  1       21 0.13259337E-02 0.12500000E+03</pdfrwt>
<totfact> 0.44191281E+06</totfact>
</mgrwt>
</event>
<event>
 3    1  0.1573868E-001  0.1250000E+03  0.7546771E-02  0.1235069E+00
         21   -1    0    0  502  501  0.00000000000E+00  0.00000000000E+00  0.60565828082E+02  0.60565828082E+02  0.00000000000E+00 0.  1.
         21   -1    0    0  501  502 -0.00000000000E+00 -0.00000000000E+00 -0.64495939768E+02  0.64495939768E+02  0.00000000000E+00 0.  1.
         25    1    1    2    0    0  0.00000000000E+00  0.00000000000E+00 -0.39301116863E+01  0.12506176785E+03  0.12500000000E+03 0.  0.
<mgrwt>
<rscale>  0 0.12500000E+03</rscale>
<asrwt>0</asrwt>
<pdfrwt beam="1">  1       21 0.93178197E-02 0.12500000E+03</pdfrwt>
<pdfrwt beam="2">  1       21 0.99224523E-02 0.12500000E+03</pdfrwt>
<totfact> 0.74035239E+06</totfact>
</mgrwt>
</event>
<event>
 3    1  0.1573868E-001  0.1250000E+03  0.7546771E-02  0.1235069E+00
         21   -1    0    0  502  501  0.00000000000E+00  0.00000000000E+00  0.32880573807E+03  0.32880573807E+03  0.00000000000E+00 0.  1.
         21   -1    0    0  501  502 -0.00000000000E+00 -0.00000000000E+00 -0.11880115058E+02  0.11880115058E+02  0.00000000000E+00 0.  1.
         25    1    1    2    0    0  0.00000000000E+00  0.00000000000E+00  0.31692562301E+03  0.34068585313E+03  0.12500000000E+03 0.  0.
<mgrwt>
<rscale>  0 0.12500000E+03</rscale>
<asrwt>0</asrwt>
<pdfrwt beam="1">  1       21 0.50585491E-01 0.12500000E+03</pdfrwt>
<pdfrwt beam="2">  1       21 0.18277103E-02 0.12500000E+03</pdfrwt>
<totfact> 0.52233754E+06</totfact>
</mgrwt>
</event>
<event>
 3    1  0.1573868E-001  0.1250000E+03  0.7546771E-02  0.1235069E+00
         21   -1    0    0  502  501  0.00000000000E+00  0.00000000000E+00  0.20113671847E+03  0.20113671847E+03  0.00000000000E+00 0.  1.
         21   -1    0    0  501  502 -0.00000000000E+00 -0.00000000000E+00 -0.19420869693E+02  0.19420869693E+02  0.00000000000E+00 0.  1.
         25    1    1    2    0    0  0.00000000000E+00  0.00000000000E+00  0.18171584878E+03  0.22055758817E+03  0.12500000000E+03 0.  0.
<mgrwt>
<rscale>  0 0.12500000E+03</rscale>
<asrwt>0</asrwt>
<pdfrwt beam="1">  1       21 0.30944109E-01 0.12500000E+03</pdfrwt>
<pdfrwt beam="2">  1       21 0.29878262E-02 0.12500000E+03</pdfrwt>
<totfact> 0.62765589E+06</totfact>
</mgrwt>
</event>
<event>
 3    1  0.1573868E-001  0.1250000E+03  0.7546771E-02  0.1235069E+00
         21   -1    0    0  502  501  0.00000000000E+00  0.00000000000E+00  0.23219734501E+03  0.23219734501E+03  0.00000000000E+00 0.  1.
         21   -1    0    0  501  502 -0.00000000000E+00 -0.00000000000E+00 -0.16822974439E+02  0.16822974439E+02  0.00000000000E+00 0.  1.
         25    1    1    2    0    0  0.00000000000E+00  0.00000000000E+00  0.21537437057E+03  0.24902031945E+03  0.12500000000E+03 0.  0.
<mgrwt>
<rscale>  0 0.12500000E+03</rscale>
<asrwt>0</asrwt>
<pdfrwt beam="1">  1       21 0.35722666E-01 0.12500000E+03</pdfrwt>
<pdfrwt beam="2">  1       21 0.25881501E-02 0.12500000E+03</pdfrwt>
<totfact> 0.59970548E+06</totfact>
</mgrwt>
</event>
<event>
 3    1  0.1573868E-001  0.1250000E+03  0.7546771E-02  0.1235069E+00
         21   -1    0    0  502  501  0.00000000000E+00  0.00000000000E+00  0.51315391247E+01  0.51315391247E+01  0.00000000000E+00 0.  1.
         21   -1    0    0  501  502 -0.00000000000E+00 -0.00000000000E+00 -0.76122385606E+03  0.76122385606E+03  0.00000000000E+00 0.  1.
         25    1    1    2    0    0  0.00000000000E+00  0.00000000000E+00 -0.75609231693E+03  0.76635539518E+03  0.12500000000E+03 0.  0.
<mgrwt>
<rscale>  0 0.12500000E+03</rscale>
<asrwt>0</asrwt>
<pdfrwt beam="1">  1       21 0.78946738E-03 0.12500000E+03</pdfrwt>
<pdfrwt beam="2">  1       21 0.11711139E+00 0.12500000E+03</pdfrwt>
<totfact> 0.30501784E+06</totfact>
</mgrwt>
</event>
<event>
 3    1  0.1573868E-001  0.1250000E+03  0.7546771E-02  0.1235069E+00
         21   -1    0    0  502  501  0.00000000000E+00  0.00000000000E+00  0.28029645110E+03  0.28029645110E+03  0.00000000000E+00 0.  1.
         21   -1    0    0  501  502 -0.00000000000E+00 -0.00000000000E+00 -0.13936137917E+02  0.13936137917E+02  0.00000000000E+00 0.  1.
         25    1    1    2    0    0  0.00000000000E+00  0.00000000000E+00  0.26636031318E+03  0.29423258901E+03  0.12500000000E+03 0.  0.
<mgrwt>
<rscale>  0 0.12500000E+03</rscale>
<asrwt>0</asrwt>
<pdfrwt beam="1">  1       21 0.43122527E-01 0.12500000E+03</pdfrwt>
<pdfrwt beam="2">  1       21 0.21440214E-02 0.12500000E+03</pdfrwt>
<totfact> 0.55938901E+06</totfact>
</mgrwt>
</event>
<event>
 3    1  0.1573868E-001  0.1250000E+03  0.7546771E-02  0.1235069E+00
         21   -1    0    0  502  501  0.00000000000E+00  0.00000000000E+00  0.12047720558E+02  0.12047720558E+02  0.00000000000E+00 0. -1.
         21   -1    0    0  501  502 -0.00000000000E+00 -0.00000000000E+00 -0.32423145782E+03  0.32423145782E+03  0.00000000000E+00 0. -1.
         25    1    1    2    0    0  0.00000000000E+00  0.00000000000E+00 -0.31218373727E+03  0.33627917838E+03  0.12500000000E+03 0.  0.
<mgrwt>
<rscale>  0 0.12500000E+03</rscale>
<asrwt>0</asrwt>
<pdfrwt beam="1">  1       21 0.18534956E-02 0.12500000E+03</pdfrwt>
<pdfrwt beam="2">  1       21 0.49881760E-01 0.12500000E+03</pdfrwt>
<totfact> 0.52567999E+06</totfact>
</mgrwt>
</event>
<event>
 3    1  0.1573868E-001  0.1250000E+03  0.7546771E-02  0.1235069E+00
         21   -1    0    0  502  501  0.00000000000E+00  0.00000000000E+00  0.75737314035E+01  0.75737314035E+01  0.00000000000E+00 0.  1.
         21   -1    0    0  501  502 -0.00000000000E+00 -0.00000000000E+00 -0.51576294324E+03  0.51576294324E+03  0.00000000000E+00 0.  1.
         25    1    1    2    0    0  0.00000000000E+00  0.00000000000E+00 -0.50818921184E+03  0.52333667465E+03  0.12500000000E+03 0.  0.
<mgrwt>
<rscale>  0 0.12500000E+03</rscale>
<asrwt>0</asrwt>
<pdfrwt beam="1">  1       21 0.11651888E-02 0.12500000E+03</pdfrwt>
<pdfrwt beam="2">  1       21 0.79348192E-01 0.12500000E+03</pdfrwt>
<totfact> 0.40806090E+06</totfact>
</mgrwt>
</event>
<event>
 3    1  0.1573868E-001  0.1250000E+03  0.7546771E-02  0.1235069E+00
         21   -1    0    0  502  501  0.00000000000E+00  0.00000000000E+00  0.25824254627E+01  0.25824254627E+01  0.00000000000E+00 0.  1.
         21   -1    0    0  501  502 -0.00000000000E+00 -0.00000000000E+00 -0.15126283629E+04  0.15126283629E+04  0.00000000000E+00 0.  1.
         25    1    1    2    0    0  0.00000000000E+00  0.00000000000E+00 -0.15100459374E+04  0.15152107884E+04  0.12500000000E+03 0.  0.
<mgrwt>
<rscale>  0 0.12500000E+03</rscale>
<asrwt>0</asrwt>
<pdfrwt beam="1">  1       21 0.39729667E-03 0.12500000E+03</pdfrwt>
<pdfrwt beam="2">  1       21 0.23271180E+00 0.12500000E+03</pdfrwt>
<totfact> 0.13768851E+06</totfact>
</mgrwt>
</event>
<event>
 3    1  0.1573868E-001  0.1250000E+03  0.7546771E-02  0.1235069E+00
         21   -1    0    0  502  501  0.00000000000E+00  0.00000000000E+00  0.11296709818E+03  0.11296709818E+03  0.00000000000E+00 0. -1.
         21   -1    0    0  501  502 -0.00000000000E+00 -0.00000000000E+00 -0.34578652216E+02  0.34578652216E+02  0.00000000000E+00 0. -1.
         25    1    1    2    0    0  0.00000000000E+00  0.00000000000E+00  0.78388445968E+02  0.14754575040E+03  0.12500000000E+03 0.  0.
<mgrwt>
<rscale>  0 0.12500000E+03</rscale>
<asrwt>0</asrwt>
<pdfrwt beam="1">  1       21 0.17379553E-01 0.12500000E+03</pdfrwt>
<pdfrwt beam="2">  1       21 0.53197927E-02 0.12500000E+03</pdfrwt>
<totfact> 0.71068878E+06</totfact>
</mgrwt>
</event>
<event>
 3    1  0.1573868E-001  0.1250000E+03  0.7546771E-02  0.1235069E+00
         21   -1    0    0  502  501  0.00000000000E+00  0.00000000000E+00  0.25520471878E+03  0.25520471878E+03  0.00000000000E+00 0. -1.
         21   -1    0    0  501  502 -0.00000000000E+00 -0.00000000000E+00 -0.15306339235E+02  0.15306339235E+02  0.00000000000E+00 0. -1.
         25    1    1    2    0    0  0.00000000000E+00  0.00000000000E+00  0.23989837954E+03  0.27051105801E+03  0.12500000000E+03 0.  0.
<mgrwt>
<rscale>  0 0.12500000E+03</rscale>
<asrwt>0</asrwt>
<pdfrwt beam="1">  1       21 0.39262261E-01 0.12500000E+03</pdfrwt>
<pdfrwt beam="2">  1       21 0.23548216E-02 0.12500000E+03</pdfrwt>
<totfact> 0.57999066E+06</totfact>
</mgrwt>
</event>
<event>
 3    1  0.1573868E-001  0.1250000E+03  0.7546771E-02  0.1235069E+00
         21   -1    0    0  502  501  0.00000000000E+00  0.00000000000E+00  0.18628784624E+02  0.18628784624E+02  0.00000000000E+00 0. -1.
         21   -1    0    0  501  502 -0.00000000000E+00 -0.00000000000E+00 -0.20968893456E+03  0.20968893456E+03  0.00000000000E+00 0. -1.
         25    1    1    2    0    0  0.00000000000E+00  0.00000000000E+00 -0.19106014993E+03  0.22831771918E+03  0.12500000000E+03 0.  0.
<mgrwt>
<rscale>  0 0.12500000E+03</rscale>
<asrwt>0</asrwt>
<pdfrwt beam="1">  1       21 0.28659669E-02 0.12500000E+03</pdfrwt>
<pdfrwt beam="2">  1       21 0.32259835E-01 0.12500000E+03</pdfrwt>
<totfact> 0.61981795E+06</totfact>
</mgrwt>
</event>
<event>
 3    1  0.1573868E-001  0.1250000E+03  0.7546771E-02  0.1235069E+00
         21   -1    0    0  502  501  0.00000000000E+00  0.00000000000E+00  0.45531381438E+03  0.45531381438E+03  0.00000000000E+00 0.  1.
         21   -1    0    0  501  502 -0.00000000000E+00 -0.00000000000E+00 -0.85792477115E+01  0.85792477115E+01  0.00000000000E+00 0.  1.
         25    1    1    2    0    0  0.00000000000E+00  0.00000000000E+00  0.44673456666E+03  0.46389306209E+03  0.12500000000E+03 0.  0.
<mgrwt>
<rscale>  0 0.12500000E+03</rscale>
<asrwt>0</asrwt>
<pdfrwt beam="1">  1       21 0.70048260E-01 0.12500000E+03</pdfrwt>
<pdfrwt beam="2">  1       21 0.13198846E-02 0.12500000E+03</pdfrwt>
<totfact> 0.44072450E+06</totfact>
</mgrwt>
</event>
<event>
 3    1  0.1573868E-001  0.1250000E+03  0.7546771E-02  0.1235069E+00
         21   -1    0    0  502  501  0.00000000000E+00  0.00000000000E+00  0.12888663419E+03  0.12888663419E+03  0.00000000000E+00 0. -1.
         21   -1    0    0  501  502 -0.00000000000E+00 -0.00000000000E+00 -0.30307642251E+02  0.30307642251E+02  0.00000000000E+00 0. -1.
         25    1    1    2    0    0  0.00000000000E+00  0.00000000000E+00  0.98578991939E+02  0.15919427644E+03  0.12500000000E+03 0.  0.
<mgrwt>
<rscale>  0 0.12500000E+03</rscale>
<asrwt>0</asrwt>
<pdfrwt beam="1">  1       21 0.19828713E-01 0.12500000E+03</pdfrwt>
<pdfrwt beam="2">  1       21 0.46627143E-02 0.12500000E+03</pdfrwt>
<totfact> 0.69618081E+06</totfact>
</mgrwt>
</event>
<event>
 3    1  0.1573868E-001  0.1250000E+03  0.7546771E-02  0.1235069E+00
         21   -1    0    0  502  501  0.00000000000E+00  0.00000000000E+00  0.48294162804E+03  0.48294162804E+03  0.00000000000E+00 0. -1.
         21   -1    0    0  501  502 -0.00000000000E+00 -0.00000000000E+00 -0.80884516331E+01  0.80884516331E+01  0.00000000000E+00 0. -1.
         25    1    1    2    0    0  0.00000000000E+00  0.00000000000E+00  0.47485317641E+03  0.49103007967E+03  0.12500000000E+03 0.  0.
<mgrwt>
<rscale>  0 0.12500000E+03</rscale>
<asrwt>0</asrwt>
<pdfrwt beam="1">  1       21 0.74298690E-01 0.12500000E+03</pdfrwt>
<pdfrwt beam="2">  1       21 0.12443775E-02 0.12500000E+03</pdfrwt>
<totfact> 0.42534752E+06</totfact>
</mgrwt>
</event>
<event>
 3    1  0.1573868E-001  0.1250000E+03  0.7546771E-02  0.1235069E+00
         21   -1    0    0  502  501  0.00000000000E+00  0.00000000000E+00  0.46773031493E+02  0.46773031493E+02  0.00000000000E+00 0.  1.
         21   -1    0    0  501  502 -0.00000000000E+00 -0.00000000000E+00 -0.83515005876E+02  0.83515005876E+02  0.00000000000E+00 0.  1.
         25    1    1    2    0    0  0.00000000000E+00  0.00000000000E+00 -0.36741974383E+02  0.13028803737E+03  0.12500000000E+03 0.  0.
<mgrwt>
<rscale>  0 0.12500000E+03</rscale>
<asrwt>0</asrwt>
<pdfrwt beam="1">  1       21 0.71958510E-02 0.12500000E+03</pdfrwt>
<pdfrwt beam="2">  1       21 0.12848462E-01 0.12500000E+03</pdfrwt>
<totfact> 0.73326444E+06</totfact>
</mgrwt>
</event>
<event>
 3    1  0.1573868E-001  0.1250000E+03  0.7546771E-02  0.1235069E+00
         21   -1    0    0  502  501  0.00000000000E+00  0.00000000000E+00  0.50816629255E+02  0.50816629255E+02  0.00000000000E+00 0.  1.
         21   -1    0    0  501  502 -0.00000000000E+00 -0.00000000000E+00 -0.76869521991E+02  0.76869521991E+02  0.00000000000E+00 0.  1.
         25    1    1    2    0    0  0.00000000000E+00  0.00000000000E+00 -0.26052892737E+02  0.12768615125E+03  0.12500000000E+03 0.  0.
<mgrwt>
<rscale>  0 0.12500000E+03</rscale>
<asrwt>0</asrwt>
<pdfrwt beam="1">  1       21 0.78179430E-02 0.12500000E+03</pdfrwt>
<pdfrwt beam="2">  1       21 0.11826080E-01 0.12500000E+03</pdfrwt>
<totfact> 0.73676001E+06</totfact>
</mgrwt>
</event>
<event>
 3    1  0.1573868E-001  0.1250000E+03  0.7546771E-02  0.1235069E+00
         21   -1    0    0  502  501  0.00000000000E+00  0.00000000000E+00  0.22428583261E+02  0.22428583261E+02  0.00000000000E+00 0.  1.
         21   -1    0    0  501  502 -0.00000000000E+00 -0.00000000000E+00 -0.17416392086E+03  0.17416392086E+03  0.00000000000E+00 0.  1.
         25    1    1    2    0    0  0.00000000000E+00  0.00000000000E+00 -0.15173533760E+03  0.19659250412E+03  0.12500000000E+03 0.  0.
<mgrwt>
<rscale>  0 0.12500000E+03</rscale>
<asrwt>0</asrwt>
<pdfrwt beam="1">  1       21 0.34505513E-02 0.12500000E+03</pdfrwt>
<pdfrwt beam="2">  1       21 0.26794449E-01 0.12500000E+03</pdfrwt>
<totfact> 0.65297148E+06</totfact>
</mgrwt>
</event>
<event>
 3    1  0.1573868E-001  0.1250000E+03  0.7546771E-02  0.1235069E+00
         21   -1    0    0  502  501  0.00000000000E+00  0.00000000000E+00  0.80162386600E+02  0.80162386600E+02  0.00000000000E+00 0.  1.
         21   -1    0    0  501  502 -0.00000000000E+00 -0.00000000000E+00 -0.48729212860E+02  0.48729212860E+02  0.00000000000E+00 0.  1.
         25    1    1    2    0    0  0.00000000000E+00  0.00000000000E+00  0.31433173741E+02  0.12889159946E+03  0.12500000000E+03 0.  0.
<mgrwt>
<rscale>  0 0.12500000E+03</rscale>
<asrwt>0</asrwt>
<pdfrwt beam="1">  1       21 0.12332675E-01 0.12500000E+03</pdfrwt>
<pdfrwt beam="2">  1       21 0.74968020E-02 0.12500000E+03</pdfrwt>
<totfact> 0.73513443E+06</totfact>
</mgrwt>
</event>
<event>
 3    1  0.1573868E-001  0.1250000E+03  0.7546771E-02  0.1235069E+00
         21   -1    0    0  502  501  0.00000000000E+00  0.00000000000E+00  0.84018249022E+01  0.84018249022E+01  0.00000000000E+00 0. -1.
         21   -1    0    0  501  502 -0.00000000000E+00 -0.00000000000E+00 -0.46492875601E+03  0.46492875601E+03  0.00000000000E+00 0. -1.
         25    1    1    2    0    0  0.00000000000E+00  0.00000000000E+00 -0.45652693111E+03  0.47333058092E+03  0.12500000000E+03 0.  0.
<mgrwt>
<rscale>  0 0.12500000E+03</rscale>
<asrwt>0</asrwt>
<pdfrwt beam="1">  1       21 0.12925886E-02 0.12500000E+03</pdfrwt>
<pdfrwt beam="2">  1       21 0.71527495E-01 0.12500000E+03</pdfrwt>
<totfact> 0.43528352E+06</totfact>
</mgrwt>
</event>
<event>
 3    1  0.1573868E-001  0.1250000E+03  0.7546771E-02  0.1235069E+00
         21   -1    0    0  502  501  0.00000000000E+00  0.00000000000E+00  0.19435432373E+02  0.19435432373E+02  0.00000000000E+00 0. -1.
         21   -1    0    0  501  502 -0.00000000000E+00 -0.00000000000E+00 -0.20098600973E+03  0.20098600973E+03  0.00000000000E+00 0. -1.
         25    1    1    2    0    0  0.00000000000E+00  0.00000000000E+00 -0.18155057736E+03  0.22042144210E+03  0.12500000000E+03 0.  0.
<mgrwt>
<rscale>  0 0.12500000E+03</rscale>
<asrwt>0</asrwt>
<pdfrwt beam="1">  1       21 0.29900664E-02 0.12500000E+03</pdfrwt>
<pdfrwt beam="2">  1       21 0.30920926E-01 0.12500000E+03</pdfrwt>
<totfact> 0.62779483E+06</totfact>
</mgrwt>
</event>
<event>
 3    1  0.1573868E-001  0.1250000E+03  0.7546771E-02  0.1235069E+00
         21   -1    0    0  502  501  0.00000000000E+00  0.00000000000E+00  0.22587949796E+03  0.22587949796E+03  0.00000000000E+00 0.  1.
         21   -1    0    0  501  502 -0.00000000000E+00 -0.00000000000E+00 -0.17293512848E+02  0.17293512848E+02  0.00000000000E+00 0.  1.
         25    1    1    2    0    0  0.00000000000E+00  0.00000000000E+00  0.20858598511E+03  0.24317301081E+03  0.12500000000E+03 0.  0.
<mgrwt>
<rscale>  0 0.12500000E+03</rscale>
<asrwt>0</asrwt>
<pdfrwt beam="1">  1       21 0.34750690E-01 0.12500000E+03</pdfrwt>
<pdfrwt beam="2">  1       21 0.26605406E-02 0.12500000E+03</pdfrwt>
<totfact> 0.60526963E+06</totfact>
</mgrwt>
</event>
<event>
 3    1  0.1573868E-001  0.1250000E+03  0.7546771E-02  0.1235069E+00
         21   -1    0    0  502  501  0.00000000000E+00  0.00000000000E+00  0.62284127504E+03  0.62284127504E+03  0.00000000000E+00 0. -1.
         21   -1    0    0  501  502 -0.00000000000E+00 -0.00000000000E+00 -0.62716620695E+01  0.62716620695E+01  0.00000000000E+00 0. -1.
         25    1    1    2    0    0  0.00000000000E+00  0.00000000000E+00  0.61656961297E+03  0.62911293711E+03  0.12500000000E+03 0.  0.
<mgrwt>
<rscale>  0 0.12500000E+03</rscale>
<asrwt>0</asrwt>
<pdfrwt beam="1">  1       21 0.95821686E-01 0.12500000E+03</pdfrwt>
<pdfrwt beam="2">  1       21 0.96487158E-03 0.12500000E+03</pdfrwt>
<totfact> 0.35808289E+06</totfact>
</mgrwt>
</event>
<event>
 3    1  0.1573868E-001  0.1250000E+03  0.7546771E-02  0.1235069E+00
         21   -1    0    0  502  501  0.00000000000E+00  0.00000000000E+00  0.73811357534E+01  0.73811357534E+01  0.00000000000E+00 0. -1.
         21   -1    0    0  501  502 -0.00000000000E+00 -0.00000000000E+00 -0.52922072300E+03  0.52922072300E+03  0.00000000000E+00 0. -1.
         25    1    1    2    0    0  0.00000000000E+00  0.00000000000E+00 -0.52183958725E+03  0.53660185875E+03  0.12500000000E+03 0.  0.
<mgrwt>
<rscale>  0 0.12500000E+03</rscale>
<asrwt>0</asrwt>
<pdfrwt beam="1">  1       21 0.11355590E-02 0.12500000E+03</pdfrwt>
<pdfrwt beam="2">  1       21 0.81418599E-01 0.12500000E+03</pdfrwt>
<totfact> 0.40126173E+06</totfact>
</mgrwt>
</event>
<event>
 3    1  0.1573868E-001  0.1250000E+03  0.7546771E-02  0.1235069E+00
         21   -1    0    0  502  501  0.00000000000E+00  0.00000000000E+00  0.14286423711E+02  0.14286423711E+02  0.00000000000E+00 0. -1.
         21   -1    0    0  501  502 -0.00000000000E+00 -0.00000000000E+00 -0.27342392184E+03  0.27342392184E+03  0.00000000000E+00 0. -1.
         25    1    1    2    0    0  0.00000000000E+00  0.00000000000E+00 -0.25913749813E+03  0.28771034555E+03  0.12500000000E+03 0.  0.
<mgrwt>
<rscale>  0 0.12500000E+03</rscale>
<asrwt>0</asrwt>
<pdfrwt beam="1">  1       21 0.21979114E-02 0.12500000E+03</pdfrwt>
<pdfrwt beam="2">  1       21 0.42065218E-01 0.12500000E+03</pdfrwt>
<totfact> 0.56493211E+06</totfact>
</mgrwt>
</event>
<event>
 3    1  0.1573868E-001  0.1250000E+03  0.7546771E-02  0.1235069E+00
         21   -1    0    0  502  501  0.00000000000E+00  0.00000000000E+00  0.89292323689E+03  0.89292323689E+03  0.00000000000E+00 0. -1.
         21   -1    0    0  501  502 -0.00000000000E+00 -0.00000000000E+00 -0.43746761632E+01  0.43746761632E+01  0.00000000000E+00 0. -1.
         25    1    1    2    0    0  0.00000000000E+00  0.00000000000E+00  0.88854856073E+03  0.89729791306E+03  0.12500000000E+03 0.  0.
<mgrwt>
<rscale>  0 0.12500000E+03</rscale>
<asrwt>0</asrwt>
<pdfrwt beam="1">  1       21 0.13737266E+00 0.12500000E+03</pdfrwt>
<pdfrwt beam="2">  1       21 0.67302781E-03 0.12500000E+03</pdfrwt>
<totfact> 0.26376980E+06</totfact>
</mgrwt>
</event>
<event>
 3    1  0.1573868E-001  0.1250000E+03  0.7546771E-02  0.1235069E+00
         21   -1    0    0  502  501  0.00000000000E+00  0.00000000000E+00  0.21219593322E+03  0.21219593322E+03  0.00000000000E+00 0.  1.
         21   -1    0    0  501  502 -0.00000000000E+00 -0.00000000000E+00 -0.18408693987E+02  0.18408693987E+02  0.00000000000E+00 0.  1.
         25    1    1    2    0    0  0.00000000000E+00  0.00000000000E+00  0.19378723923E+03  0.23060462721E+03  0.12500000000E+03 0.  0.
<mgrwt>
<rscale>  0 0.12500000E+03</rscale>
<asrwt>0</asrwt>
<pdfrwt beam="1">  1       21 0.32645526E-01 0.12500000E+03</pdfrwt>
<pdfrwt beam="2">  1       21 0.28321069E-02 0.12500000E+03</pdfrwt>
<totfact> 0.61753861E+06</totfact>
</mgrwt>
</event>
<event>
 3    1  0.1573868E-001  0.1250000E+03  0.7546771E-02  0.1235069E+00
         21   -1    0    0  502  501  0.00000000000E+00  0.00000000000E+00  0.37885615590E+01  0.37885615590E+01  0.00000000000E+00 0.  1.
         21   -1    0    0  501  502 -0.00000000000E+00 -0.00000000000E+00 -0.10310641491E+04  0.10310641491E+04  0.00000000000E+00 0.  1.
         25    1    1    2    0    0  0.00000000000E+00  0.00000000000E+00 -0.10272755875E+04  0.10348527106E+04  0.12500000000E+03 0.  0.
<mgrwt>
<rscale>  0 0.12500000E+03</rscale>
<asrwt>0</asrwt>
<pdfrwt beam="1">  1       21 0.58285529E-03 0.12500000E+03</pdfrwt>
<pdfrwt beam="2">  1       21 0.15862534E+00 0.12500000E+03</pdfrwt>
<totfact> 0.22761310E+06</totfact>
</mgrwt>
</event>
<event>
 3    1  0.1573868E-001  0.1250000E+03  0.7546771E-02  0.1235069E+00
         21   -1    0    0  502  501  0.00000000000E+00  0.00000000000E+00  0.17569783492E+02  0.17569783492E+02  0.00000000000E+00 0.  1.
         21   -1    0    0  501  502 -0.00000000000E+00 -0.00000000000E+00 -0.22232772542E+03  0.22232772542E+03  0.00000000000E+00 0.  1.
         25    1    1    2    0    0  0.00000000000E+00  0.00000000000E+00 -0.20475794193E+03  0.23989750892E+03  0.12500000000E+03 0.  0.
<mgrwt>
<rscale>  0 0.12500000E+03</rscale>
<asrwt>0</asrwt>
<pdfrwt beam="1">  1       21 0.27030434E-02 0.12500000E+03</pdfrwt>
<pdfrwt beam="2">  1       21 0.34204268E-01 0.12500000E+03</pdfrwt>
<totfact> 0.60842580E+06</totfact>
</mgrwt>
</event>
<event>
 3    1  0.1573868E-001  0.1250000E+03  0.7546771E-02  0.1235069E+00
         21   -1    0    0  502  501  0.00000000000E+00  0.00000000000E+00  0.16804716441E+03  0.16804716441E+03  0.00000000000E+00 0. -1.
         21   -1    0    0  501  502 -0.00000000000E+00 -0.00000000000E+00 -0.23244962292E+02  0.23244962292E+02  0.00000000000E+00 0. -1.
         25    1    1    2    0    0  0.00000000000E+00  0.00000000000E+00  0.14480220212E+03  0.19129212671E+03  0.12500000000E+03 0.  0.
<mgrwt>
<rscale>  0 0.12500000E+03</rscale>
<asrwt>0</asrwt>
<pdfrwt beam="1">  1       21 0.25853409E-01 0.12500000E+03</pdfrwt>
<pdfrwt beam="2">  1       21 0.35761482E-02 0.12500000E+03</pdfrwt>
<totfact> 0.65879144E+06</totfact>
</mgrwt>
</event>
<event>
 3    1  0.1573868E-001  0.1250000E+03  0.7546771E-02  0.1235069E+00
         21   -1    0    0  502  501  0.00000000000E+00  0.00000000000E+00  0.52584018565E+02  0.52584018565E+02  0.00000000000E+00 0. -1.
         21   -1    0    0  501  502 -0.00000000000E+00 -0.00000000000E+00 -0.74285878230E+02  0.74285878230E+02  0.00000000000E+00 0. -1.
         25    1    1    2    0    0  0.00000000000E+00  0.00000000000E+00 -0.21701859665E+02  0.12686989680E+03  0.12500000000E+03 0.  0.
<mgrwt>
<rscale>  0 0.12500000E+03</rscale>
<asrwt>0</asrwt>
<pdfrwt beam="1">  1       21 0.80898491E-02 0.12500000E+03</pdfrwt>
<pdfrwt beam="2">  1       21 0.11428597E-01 0.12500000E+03</pdfrwt>
<totfact> 0.73786858E+06</totfact>
</mgrwt>
</event>
<event>
 3    1  0.1573868E-001  0.1250000E+03  0.7546771E-02  0.1235069E+00
         21   -1    0    0  502  501  0.00000000000E+00  0.00000000000E+00  0.49243122747E+02  0.49243122747E+02  0.00000000000E+00 0.  1.
         21   -1    0    0  501  502 -0.00000000000E+00 -0.00000000000E+00 -0.79325797839E+02  0.79325797839E+02  0.00000000000E+00 0.  1.
         25    1    1    2    0    0  0.00000000000E+00  0.00000000000E+00 -0.30082675092E+02  0.12856892059E+03  0.12500000000E+03 0.  0.
<mgrwt>
<rscale>  0 0.12500000E+03</rscale>
<asrwt>0</asrwt>
<pdfrwt beam="1">  1       21 0.75758651E-02 0.12500000E+03</pdfrwt>
<pdfrwt beam="2">  1       21 0.12203969E-01 0.12500000E+03</pdfrwt>
<totfact> 0.73556842E+06</totfact>
</mgrwt>
</event>
<event>
 3    1  0.1573868E-001  0.1250000E+03  0.7546771E-02  0.1235069E+00
         21   -1    0    0  502  501  0.00000000000E+00  0.00000000000E+00  0.22472757831E+02  0.22472757831E+02  0.00000000000E+00 0.  1.
         21   -1    0    0  501  502 -0.00000000000E+00 -0.00000000000E+00 -0.17382156785E+03  0.17382156785E+03  0.00000000000E+00 0.  1.
         25    1    1    2    0    0  0.00000000000E+00  0.00000000000E+00 -0.15134881002E+03  0.19629432568E+03  0.12500000000E+03 0.  0.
<mgrwt>
<rscale>  0 0.12500000E+03</rscale>
<asrwt>0</asrwt>
<pdfrwt beam="1">  1       21 0.34573475E-02 0.12500000E+03</pdfrwt>
<pdfrwt beam="2">  1       21 0.26741778E-01 0.12500000E+03</pdfrwt>
<totfact> 0.65329641E+06</totfact>
</mgrwt>
</event>
<event>
 3    1  0.1573868E-001  0.1250000E+03  0.7546771E-02  0.1235069E+00
         21   -1    0    0  502  501  0.00000000000E+00  0.00000000000E+00  0.10318158414E+04  0.10318158414E+04  0.00000000000E+00 0. -1.
         21   -1    0    0  501  502 -0.00000000000E+00 -0.00000000000E+00 -0.37858015386E+01  0.37858015386E+01  0.00000000000E+00 0. -1.
         25    1    1    2    0    0  0.00000000000E+00  0.00000000000E+00  0.10280300399E+04  0.10356016430E+04  0.12500000000E+03 0.  0.
<mgrwt>
<rscale>  0 0.12500000E+03</rscale>
<asrwt>0</asrwt>
<pdfrwt beam="1">  1       21 0.15874067E+00 0.12500000E+03</pdfrwt>
<pdfrwt beam="2">  1       21 0.58243183E-03 0.12500000E+03</pdfrwt>
<totfact> 0.22743281E+06</totfact>
</mgrwt>
</event>
<event>
 3    1  0.1573868E-001  0.1250000E+03  0.7546771E-02  0.1235069E+00
         21   -1    0    0  502  501  0.00000000000E+00  0.00000000000E+00  0.73397146196E+02  0.73397146196E+02  0.00000000000E+00 0. -1.
         21   -1    0    0  501  502 -0.00000000000E+00 -0.00000000000E+00 -0.53220734081E+02  0.53220734081E+02  0.00000000000E+00 0. -1.
         25    1    1    2    0    0  0.00000000000E+00  0.00000000000E+00  0.20176412116E+02  0.12661788028E+03  0.12500000000E+03 0.  0.
<mgrwt>
<rscale>  0 0.12500000E+03</rscale>
<asrwt>0</asrwt>
<pdfrwt beam="1">  1       21 0.11291869E-01 0.12500000E+03</pdfrwt>
<pdfrwt beam="2">  1       21 0.81878052E-02 0.12500000E+03</pdfrwt>
<totfact> 0.73821252E+06</totfact>
</mgrwt>
</event>
<event>
 3    1  0.1573868E-001  0.1250000E+03  0.7546771E-02  0.1235069E+00
         21   -1    0    0  502  501  0.00000000000E+00  0.00000000000E+00  0.22359908478E+02  0.22359908478E+02  0.00000000000E+00 0.  1.
         21   -1    0    0  501  502 -0.00000000000E+00 -0.00000000000E+00 -0.17469883670E+03  0.17469883670E+03  0.00000000000E+00 0.  1.
         25    1    1    2    0    0  0.00000000000E+00  0.00000000000E+00 -0.15233892823E+03  0.19705874518E+03  0.12500000000E+03 0.  0.
<mgrwt>
<rscale>  0 0.12500000E+03</rscale>
<asrwt>0</asrwt>
<pdfrwt beam="1">  1       21 0.34399860E-02 0.12500000E+03</pdfrwt>
<pdfrwt beam="2">  1       21 0.26876744E-01 0.12500000E+03</pdfrwt>
<totfact> 0.65246401E+06</totfact>
</mgrwt>
</event>
<event>
 3    1  0.1573868E-001  0.1250000E+03  0.7546771E-02  0.1235069E+00
         21   -1    0    0  502  501  0.00000000000E+00  0.00000000000E+00  0.22219584171E+01  0.22219584171E+01  0.00000000000E+00 0.  1.
         21   -1    0    0  501  502 -0.00000000000E+00 -0.00000000000E+00 -0.17580211987E+04  0.17580211987E+04  0.00000000000E+00 0.  1.
         25    1    1    2    0    0  0.00000000000E+00  0.00000000000E+00 -0.17557992403E+04  0.17602431572E+04  0.12500000000E+03 0.  0.
<mgrwt>
<rscale>  0 0.12500000E+03</rscale>
<asrwt>0</asrwt>
<pdfrwt beam="1">  1       21 0.34183786E-03 0.12500000E+03</pdfrwt>
<pdfrwt beam="2">  1       21 0.27046630E+00 0.12500000E+03</pdfrwt>
<totfact> 0.10535018E+06</totfact>
</mgrwt>
</event>
<event>
 3    1  0.1573868E-001  0.1250000E+03  0.7546771E-02  0.1235069E+00
         21   -1    0    0  502  501  0.00000000000E+00  0.00000000000E+00  0.10981393368E+03  0.10981393368E+03  0.00000000000E+00 0.  1.
         21   -1    0    0  501  502 -0.00000000000E+00 -0.00000000000E+00 -0.35571533312E+02  0.35571533312E+02  0.00000000000E+00 0.  1.
         25    1    1    2    0    0  0.00000000000E+00  0.00000000000E+00  0.74242400366E+02  0.14538546699E+03  0.12500000000E+03 0.  0.
<mgrwt>
<rscale>  0 0.12500000E+03</rscale>
<asrwt>0</asrwt>
<pdfrwt beam="1">  1       21 0.16894451E-01 0.12500000E+03</pdfrwt>
<pdfrwt beam="2">  1       21 0.54725437E-02 0.12500000E+03</pdfrwt>
<totfact> 0.71343805E+06</totfact>
</mgrwt>
</event>
<event>
 3    1  0.1573868E-001  0.1250000E+03  0.7546771E-02  0.1235069E+00
         21   -1    0    0  502  501  0.00000000000E+00  0.00000000000E+00  0.11487331236E+02  0.11487331236E+02  0.00000000000E+00 0.  1.
         21   -1    0    0  501  502 -0.00000000000E+00 -0.00000000000E+00 -0.34004852126E+03  0.34004852126E+03  0.00000000000E+00 0.  1.
         25    1    1    2    0    0  0.00000000000E+00  0.00000000000E+00 -0.32856119002E+03  0.35153585250E+03  0.12500000000E+03 0.  0.
<mgrwt>
<rscale>  0 0.12500000E+03</rscale>
<asrwt>0</asrwt>
<pdfrwt beam="1">  1       21 0.17672818E-02 0.12500000E+03</pdfrwt>
<pdfrwt beam="2">  1       21 0.52315154E-01 0.12500000E+03</pdfrwt>
<totfact> 0.51425206E+06</totfact>
</mgrwt>
</event>
<event>
 3    1  0.1573868E-001  0.1250000E+03  0.7546771E-02  0.1235069E+00
         21   -1    0    0  502  501  0.00000000000E+00  0.00000000000E+00  0.77861658123E+02  0.77861658123E+02  0.00000000000E+00 0.  1.
         21   -1    0    0  501  502 -0.00000000000E+00 -0.00000000000E+00 -0.50169108829E+02  0.50169108829E+02  0.00000000000E+00 0.  1.
         25    1    1    2    0    0  0.00000000000E+00  0.00000000000E+00  0.27692549293E+02  0.12803076695E+03  0.12500000000E+03 0.  0.
<mgrwt>
<rscale>  0 0.12500000E+03</rscale>
<asrwt>0</asrwt>
<pdfrwt beam="1">  1       21 0.11978717E-01 0.12500000E+03</pdfrwt>
<pdfrwt beam="2">  1       21 0.77183244E-02 0.12500000E+03</pdfrwt>
<totfact> 0.73629403E+06</totfact>
</mgrwt>
</event>
<event>
 3    1  0.1573868E-001  0.1250000E+03  0.7546771E-02  0.1235069E+00
         21   -1    0    0  502  501  0.00000000000E+00  0.00000000000E+00  0.95942436544E+03  0.95942436544E+03  0.00000000000E+00 0.  1.
         21   -1    0    0  501  502 -0.00000000000E+00 -0.00000000000E+00 -0.40714517379E+01  0.40714517379E+01  0.00000000000E+00 0.  1.
         25    1    1    2    0    0  0.00000000000E+00  0.00000000000E+00  0.95535291370E+03  0.96349581717E+03  0.12500000000E+03 0.  0.
<mgrwt>
<rscale>  0 0.12500000E+03</rscale>
<asrwt>0</asrwt>
<pdfrwt beam="1">  1       21 0.14760357E+00 0.12500000E+03</pdfrwt>
<pdfrwt beam="2">  1       21 0.62637796E-03 0.12500000E+03</pdfrwt>
<totfact> 0.24553551E+06</totfact>
</mgrwt>
</event>
<event>
 3    1  0.1573868E-001  0.1250000E+03  0.7546771E-02  0.1235069E+00
         21   -1    0    0  502  501  0.00000000000E+00  0.00000000000E+00  0.15375024684E+04  0.15375024684E+04  0.00000000000E+00 0. -1.
         21   -1    0    0  501  502 -0.00000000000E+00 -0.00000000000E+00 -0.25406463276E+01  0.25406463276E+01  0.00000000000E+00 0. -1.
         25    1    1    2    0    0  0.00000000000E+00  0.00000000000E+00  0.15349618221E+04  0.15400431147E+04  0.12500000000E+03 0.  0.
<mgrwt>
<rscale>  0 0.12500000E+03</rscale>
<asrwt>0</asrwt>
<pdfrwt beam="1">  1       21 0.23653810E+00 0.12500000E+03</pdfrwt>
<pdfrwt beam="2">  1       21 0.39086989E-03 0.12500000E+03</pdfrwt>
<totfact> 0.13409404E+06</totfact>
</mgrwt>
</event>
<event>
 3    1  0.1573868E-001  0.1250000E+03  0.7546771E-02  0.1235069E+00
         21   -1    0    0  502  501  0.00000000000E+00  0.00000000000E+00  0.10644068795E+03  0.10644068795E+03  0.00000000000E+00 0. -1.
         21   -1    0    0  501  502 -0.00000000000E+00 -0.00000000000E+00 -0.36698842100E+02  0.36698842100E+02  0.00000000000E+00 0. -1.
         25    1    1    2    0    0  0.00000000000E+00  0.00000000000E+00  0.69741845846E+02  0.14313953005E+03  0.12500000000E+03 0.  0.
<mgrwt>
<rscale>  0 0.12500000E+03</rscale>
<asrwt>0</asrwt>
<pdfrwt beam="1">  1       21 0.16375490E-01 0.12500000E+03</pdfrwt>
<pdfrwt beam="2">  1       21 0.56459757E-02 0.12500000E+03</pdfrwt>
<totfact> 0.71632053E+06</totfact>
</mgrwt>
</event>
<event>
 3    1  0.1573868E-001  0.1250000E+03  0.7546771E-02  0.1235069E+00
         21   -1    0    0  502  501  0.00000000000E+00  0.00000000000E+00  0.87035201747E+02  0.87035201747E+02  0.00000000000E+00 0. -1.
         21   -1    0    0  501  502 -0.00000000000E+00 -0.00000000000E+00 -0.44881265529E+02  0.44881265529E+02  0.00000000000E+00 0. -1.
         25    1    1    2    0    0  0.00000000000E+00  0.00000000000E+00  0.42153936217E+02  0.13191646728E+03  0.12500000000E+03 0.  0.
<mgrwt>
<rscale>  0 0.12500000E+03</rscale>
<asrwt>0</asrwt>
<pdfrwt beam="1">  1       21 0.13390031E-01 0.12500000E+03</pdfrwt>
<pdfrwt beam="2">  1       21 0.69048101E-02 0.12500000E+03</pdfrwt>
<totfact> 0.73107435E+06</totfact>
</mgrwt>
</event>
<event>
 3    1  0.1573868E-001  0.1250000E+03  0.7546771E-02  0.1235069E+00
         21   -1    0    0  502  501  0.00000000000E+00  0.00000000000E+00  0.13565580275E+02  0.13565580275E+02  0.00000000000E+00 0.  1.
         21   -1    0    0  501  502 -0.00000000000E+00 -0.00000000000E+00 -0.28795303413E+03  0.28795303413E+03  0.00000000000E+00 0.  1.
         25    1    1    2    0    0  0.00000000000E+00  0.00000000000E+00 -0.27438745385E+03  0.30151861440E+03  0.12500000000E+03 0.  0.
<mgrwt>
<rscale>  0 0.12500000E+03</rscale>
<asrwt>0</asrwt>
<pdfrwt beam="1">  1       21 0.20870122E-02 0.12500000E+03</pdfrwt>
<pdfrwt beam="2">  1       21 0.44300470E-01 0.12500000E+03</pdfrwt>
<totfact> 0.55330204E+06</totfact>
</mgrwt>
</event>
<event>
 3    1  0.1573868E-001  0.1250000E+03  0.7546771E-02  0.1235069E+00
         21   -1    0    0  502  501  0.00000000000E+00  0.00000000000E+00  0.97542075254E+02  0.97542075254E+02  0.00000000000E+00 0.  1.
         21   -1    0    0  501  502 -0.00000000000E+00 -0.00000000000E+00 -0.40046820716E+02  0.40046820716E+02  0.00000000000E+00 0.  1.
         25    1    1    2    0    0  0.00000000000E+00  0.00000000000E+00  0.57495254537E+02  0.13758889597E+03  0.12500000000E+03 0.  0.
<mgrwt>
<rscale>  0 0.12500000E+03</rscale>
<asrwt>0</asrwt>
<pdfrwt beam="1">  1       21 0.15006473E-01 0.12500000E+03</pdfrwt>
<pdfrwt beam="2">  1       21 0.61610493E-02 0.12500000E+03</pdfrwt>
<totfact> 0.72355464E+06</totfact>
</mgrwt>
</event>
<event>
 3    1  0.1573868E-001  0.1250000E+03  0.7546771E-02  0.1235069E+00
         21   -1    0    0  502  501  0.00000000000E+00  0.00000000000E+00  0.41477152604E+03  0.41477152604E+03  0.00000000000E+00 0.  1.
         21   -1    0    0  501  502 -0.00000000000E+00 -0.00000000000E+00 -0.94178354945E+01  0.94178354945E+01  0.00000000000E+00 0.  1.
         25    1    1    2    0    0  0.00000000000E+00  0.00000000000E+00  0.40535369054E+03  0.42418936153E+03  0.12500000000E+03 0.  0.
<mgrwt>
<rscale>  0 0.12500000E+03</rscale>
<asrwt>0</asrwt>
<pdfrwt beam="1">  1       21 0.63810990E-01 0.12500000E+03</pdfrwt>
<pdfrwt beam="2">  1       21 0.14488981E-02 0.12500000E+03</pdfrwt>
<totfact> 0.46477225E+06</totfact>
</mgrwt>
</event>
<event>
 3    1  0.1573868E-001  0.1250000E+03  0.7546771E-02  0.1235069E+00
         21   -1    0    0  502  501  0.00000000000E+00  0.00000000000E+00  0.36579152652E+02  0.36579152652E+02  0.00000000000E+00 0. -1.
         21   -1    0    0  501  502 -0.00000000000E+00 -0.00000000000E+00 -0.10678896904E+03  0.10678896904E+03  0.00000000000E+00 0. -1.
         25    1    1    2    0    0  0.00000000000E+00  0.00000000000E+00 -0.70209816386E+02  0.14336812169E+03  0.12500000000E+03 0.  0.
<mgrwt>
<rscale>  0 0.12500000E+03</rscale>
<asrwt>0</asrwt>
<pdfrwt beam="1">  1       21 0.56275621E-02 0.12500000E+03</pdfrwt>
<pdfrwt beam="2">  1       21 0.16429072E-01 0.12500000E+03</pdfrwt>
<totfact> 0.71602599E+06</totfact>
</mgrwt>
</event>
<event>
 3    1  0.1573868E-001  0.1250000E+03  0.7546771E-02  0.1235069E+00
         21   -1    0    0  502  501  0.00000000000E+00  0.00000000000E+00  0.30430409441E+02  0.30430409441E+02  0.00000000000E+00 0. -1.
         21   -1    0    0  501  502 -0.00000000000E+00 -0.00000000000E+00 -0.12836665927E+03  0.12836665927E+03  0.00000000000E+00 0. -1.
         25    1    1    2    0    0  0.00000000000E+00  0.00000000000E+00 -0.97936249824E+02  0.15879706871E+03  0.12500000000E+03 0.  0.
<mgrwt>
<rscale>  0 0.12500000E+03</rscale>
<asrwt>0</asrwt>
<pdfrwt beam="1">  1       21 0.46816015E-02 0.12500000E+03</pdfrwt>
<pdfrwt beam="2">  1       21 0.19748717E-01 0.12500000E+03</pdfrwt>
<totfact> 0.69666781E+06</totfact>
</mgrwt>
</event>
<event>
 3    1  0.1573868E-001  0.1250000E+03  0.7546771E-02  0.1235069E+00
         21   -1    0    0  502  501  0.00000000000E+00  0.00000000000E+00  0.12552708317E+03  0.12552708317E+03  0.00000000000E+00 0.  1.
         21   -1    0    0  501  502 -0.00000000000E+00 -0.00000000000E+00 -0.31118782508E+02  0.31118782508E+02  0.00000000000E+00 0.  1.
         25    1    1    2    0    0  0.00000000000E+00  0.00000000000E+00  0.94408300663E+02  0.15664586568E+03  0.12500000000E+03 0.  0.
<mgrwt>
<rscale>  0 0.12500000E+03</rscale>
<asrwt>0</asrwt>
<pdfrwt beam="1">  1       21 0.19311859E-01 0.12500000E+03</pdfrwt>
<pdfrwt beam="2">  1       21 0.47875051E-02 0.12500000E+03</pdfrwt>
<totfact> 0.69931674E+06</totfact>
</mgrwt>
</event>
<event>
 3    1  0.1573868E-001  0.1250000E+03  0.7546771E-02  0.1235069E+00
         21   -1    0    0  502  501  0.00000000000E+00  0.00000000000E+00  0.80743307105E+03  0.80743307105E+03  0.00000000000E+00 0.  1.
         21   -1    0    0  501  502 -0.00000000000E+00 -0.00000000000E+00 -0.48378622824E+01  0.48378622824E+01  0.00000000000E+00 0.  1.
         25    1    1    2    0    0  0.00000000000E+00  0.00000000000E+00  0.80259520877E+03  0.81227093333E+03  0.12500000000E+03 0.  0.
<mgrwt>
<rscale>  0 0.12500000E+03</rscale>
<asrwt>0</asrwt>
<pdfrwt beam="1">  1       21 0.12422037E+00 0.12500000E+03</pdfrwt>
<pdfrwt beam="2">  1       21 0.74428715E-03 0.12500000E+03</pdfrwt>
<totfact> 0.28960285E+06</totfact>
</mgrwt>
</event>
<event>
 3    1  0.1573868E-001  0.1250000E+03  0.7546771E-02  0.1235069E+00
         21   -1    0    0  502  501  0.00000000000E+00  0.00000000000E+00  0.26821496633E+02  0.26821496633E+02  0.00000000000E+00 0.  1.
         21   -1    0    0  501  502 -0.00000000000E+00 -0.00000000000E+00 -0.14563877823E+03  0.14563877823E+03  0.00000000000E+00 0.  1.
         25    1    1    2    0    0  0.00000000000E+00  0.00000000000E+00 -0.11881728160E+03  0.17246027487E+03  0.12500000000E+03 0.  0.
<mgrwt>
<rscale>  0 0.12500000E+03</rscale>
<asrwt>0</asrwt>
<pdfrwt beam="1">  1       21 0.41263842E-02 0.12500000E+03</pdfrwt>
<pdfrwt beam="2">  1       21 0.22405965E-01 0.12500000E+03</pdfrwt>
<totfact> 0.68027174E+06</totfact>
</mgrwt>
</event>
<event>
 3    1  0.1573868E-001  0.1250000E+03  0.7546771E-02  0.1235069E+00
         21   -1    0    0  502  501  0.00000000000E+00  0.00000000000E+00  0.14305818567E+03  0.14305818567E+03  0.00000000000E+00 0.  1.
         21   -1    0    0  501  502 -0.00000000000E+00 -0.00000000000E+00 -0.27305323228E+02  0.27305323228E+02  0.00000000000E+00 0.  1.
         25    1    1    2    0    0  0.00000000000E+00  0.00000000000E+00  0.11575286244E+03  0.17036350889E+03  0.12500000000E+03 0.  0.
<mgrwt>
<rscale>  0 0.12500000E+03</rscale>
<asrwt>0</asrwt>
<pdfrwt beam="1">  1       21 0.22008951E-01 0.12500000E+03</pdfrwt>
<pdfrwt beam="2">  1       21 0.42008190E-02 0.12500000E+03</pdfrwt>
<totfact> 0.68274570E+06</totfact>
</mgrwt>
</event>
<event>
 3    1  0.1573868E-001  0.1250000E+03  0.7546771E-02  0.1235069E+00
         21   -1    0    0  502  501  0.00000000000E+00  0.00000000000E+00  0.67810937703E+03  0.67810937703E+03  0.00000000000E+00 0.  1.
         21   -1    0    0  501  502 -0.00000000000E+00 -0.00000000000E+00 -0.57605013768E+01  0.57605013768E+01  0.00000000000E+00 0.  1.
         25    1    1    2    0    0  0.00000000000E+00  0.00000000000E+00  0.67234887566E+03  0.68386987841E+03  0.12500000000E+03 0.  0.
<mgrwt>
<rscale>  0 0.12500000E+03</rscale>
<asrwt>0</asrwt>
<pdfrwt beam="1">  1       21 0.10432446E+00 0.12500000E+03</pdfrwt>
<pdfrwt beam="2">  1       21 0.88623152E-03 0.12500000E+03</pdfrwt>
<totfact> 0.33541357E+06</totfact>
</mgrwt>
</event>
<event>
 3    1  0.1573868E-001  0.1250000E+03  0.7546771E-02  0.1235069E+00
         21   -1    0    0  502  501  0.00000000000E+00  0.00000000000E+00  0.93968674179E+01  0.93968674179E+01  0.00000000000E+00 0.  1.
         21   -1    0    0  501  502 -0.00000000000E+00 -0.00000000000E+00 -0.41569704310E+03  0.41569704310E+03  0.00000000000E+00 0.  1.
         25    1    1    2    0    0  0.00000000000E+00  0.00000000000E+00 -0.40630017568E+03  0.42509391051E+03  0.12500000000E+03 0.  0.
<mgrwt>
<rscale>  0 0.12500000E+03</rscale>
<asrwt>0</asrwt>
<pdfrwt beam="1">  1       21 0.14456723E-02 0.12500000E+03</pdfrwt>
<pdfrwt beam="2">  1       21 0.63953373E-01 0.12500000E+03</pdfrwt>
<totfact> 0.46420259E+06</totfact>
</mgrwt>
</event>
<event>
 3    1  0.1573868E-001  0.1250000E+03  0.7546771E-02  0.1235069E+00
         21   -1    0    0  502  501  0.00000000000E+00  0.00000000000E+00  0.43944431087E+01  0.43944431087E+01  0.00000000000E+00 0.  1.
         21   -1    0    0  501  502 -0.00000000000E+00 -0.00000000000E+00 -0.88890671772E+03  0.88890671772E+03  0.00000000000E+00 0.  1.
         25    1    1    2    0    0  0.00000000000E+00  0.00000000000E+00 -0.88451227462E+03  0.89330116083E+03  0.12500000000E+03 0.  0.
<mgrwt>
<rscale>  0 0.12500000E+03</rscale>
<asrwt>0</asrwt>
<pdfrwt beam="1">  1       21 0.67606909E-03 0.12500000E+03</pdfrwt>
<pdfrwt beam="2">  1       21 0.13675469E+00 0.12500000E+03</pdfrwt>
<totfact> 0.26492673E+06</totfact>
</mgrwt>
</event>
<event>
 3    1  0.1573868E-001  0.1250000E+03  0.7546771E-02  0.1235069E+00
         21   -1    0    0  502  501  0.00000000000E+00  0.00000000000E+00  0.14018454075E+02  0.14018454075E+02  0.00000000000E+00 0.  1.
         21   -1    0    0  501  502 -0.00000000000E+00 -0.00000000000E+00 -0.27865055441E+03  0.27865055441E+03  0.00000000000E+00 0.  1.
         25    1    1    2    0    0  0.00000000000E+00  0.00000000000E+00 -0.26463210033E+03  0.29266900848E+03  0.12500000000E+03 0.  0.
<mgrwt>
<rscale>  0 0.12500000E+03</rscale>
<asrwt>0</asrwt>
<pdfrwt beam="1">  1       21 0.21566853E-02 0.12500000E+03</pdfrwt>
<pdfrwt beam="2">  1       21 0.42869315E-01 0.12500000E+03</pdfrwt>
<totfact> 0.56070964E+06</totfact>
</mgrwt>
</event>
<event>
 3    1  0.1573868E-001  0.1250000E+03  0.7546771E-02  0.1235069E+00
         21   -1    0    0  502  501  0.00000000000E+00  0.00000000000E+00  0.37660785045E+01  0.37660785045E+01  0.00000000000E+00 0. -1.
         21   -1    0    0  501  502 -0.00000000000E+00 -0.00000000000E+00 -0.10372194832E+04  0.10372194832E+04  0.00000000000E+00 0. -1.
         25    1    1    2    0    0  0.00000000000E+00  0.00000000000E+00 -0.10334534047E+04  0.10409855617E+04  0.12500000000E+03 0.  0.
<mgrwt>
<rscale>  0 0.12500000E+03</rscale>
<asrwt>0</asrwt>
<pdfrwt beam="1">  1       21 0.57939632E-03 0.12500000E+03</pdfrwt>
<pdfrwt beam="2">  1       21 0.15957233E+00 0.12500000E+03</pdfrwt>
<totfact> 0.22613772E+06</totfact>
</mgrwt>
</event>
<event>
 3    1  0.1573868E-001  0.1250000E+03  0.7546771E-02  0.1235069E+00
         21   -1    0    0  502  501  0.00000000000E+00  0.00000000000E+00  0.56782356514E+02  0.56782356514E+02  0.00000000000E+00 0.  1.
         21   -1    0    0  501  502 -0.00000000000E+00 -0.00000000000E+00 -0.68793375967E+02  0.68793375967E+02  0.00000000000E+00 0.  1.
         25    1    1    2    0    0  0.00000000000E+00  0.00000000000E+00 -0.12011019453E+02  0.12557573248E+03  0.12500000000E+03 0.  0.
<mgrwt>
<rscale>  0 0.12500000E+03</rscale>
<asrwt>0</asrwt>
<pdfrwt beam="1">  1       21 0.87357472E-02 0.12500000E+03</pdfrwt>
<pdfrwt beam="2">  1       21 0.10583596E-01 0.12500000E+03</pdfrwt>
<totfact> 0.73964824E+06</totfact>
</mgrwt>
</event>
<event>
 3    1  0.1573868E-001  0.1250000E+03  0.7546771E-02  0.1235069E+00
         21   -1    0    0  502  501  0.00000000000E+00  0.00000000000E+00  0.50367147399E+02  0.50367147399E+02  0.00000000000E+00 0. -1.
         21   -1    0    0  501  502 -0.00000000000E+00 -0.00000000000E+00 -0.77555513896E+02  0.77555513896E+02  0.00000000000E+00 0. -1.
         25    1    1    2    0    0  0.00000000000E+00  0.00000000000E+00 -0.27188366497E+02  0.12792266130E+03  0.12500000000E+03 0.  0.
<mgrwt>
<rscale>  0 0.12500000E+03</rscale>
<asrwt>0</asrwt>
<pdfrwt beam="1">  1       21 0.77487919E-02 0.12500000E+03</pdfrwt>
<pdfrwt beam="2">  1       21 0.11931618E-01 0.12500000E+03</pdfrwt>
<totfact> 0.73644009E+06</totfact>
</mgrwt>
</event>
<event>
 3    1  0.1573868E-001  0.1250000E+03  0.7546771E-02  0.1235069E+00
         21   -1    0    0  502  501  0.00000000000E+00  0.00000000000E+00  0.17254408850E+02  0.17254408850E+02  0.00000000000E+00 0. -1.
         21   -1    0    0  501  502 -0.00000000000E+00 -0.00000000000E+00 -0.22639141300E+03  0.22639141300E+03  0.00000000000E+00 0. -1.
         25    1    1    2    0    0  0.00000000000E+00  0.00000000000E+00 -0.20913700415E+03  0.24364582185E+03  0.12500000000E+03 0.  0.
<mgrwt>
<rscale>  0 0.12500000E+03</rscale>
<asrwt>0</asrwt>
<pdfrwt beam="1">  1       21 0.26545245E-02 0.12500000E+03</pdfrwt>
<pdfrwt beam="2">  1       21 0.34829447E-01 0.12500000E+03</pdfrwt>
<totfact> 0.60481638E+06</totfact>
</mgrwt>
</event>
<event>
 3    1  0.1573868E-001  0.1250000E+03  0.7546771E-02  0.1235069E+00
         21   -1    0    0  502  501  0.00000000000E+00  0.00000000000E+00  0.54301063454E+02  0.54301063454E+02  0.00000000000E+00 0. -1.
         21   -1    0    0  501  502 -0.00000000000E+00 -0.00000000000E+00 -0.71936896841E+02  0.71936896841E+02  0.00000000000E+00 0. -1.
         25    1    1    2    0    0  0.00000000000E+00  0.00000000000E+00 -0.17635833387E+02  0.12623796029E+03  0.12500000000E+03 0.  0.
<mgrwt>
<rscale>  0 0.12500000E+03</rscale>
<asrwt>0</asrwt>
<pdfrwt beam="1">  1       21 0.83540098E-02 0.12500000E+03</pdfrwt>
<pdfrwt beam="2">  1       21 0.11067215E-01 0.12500000E+03</pdfrwt>
<totfact> 0.73873295E+06</totfact>
</mgrwt>
</event>
<event>
 3    1  0.1573868E-001  0.1250000E+03  0.7546771E-02  0.1235069E+00
         21   -1    0    0  502  501  0.00000000000E+00  0.00000000000E+00  0.53889447199E+03  0.53889447199E+03  0.00000000000E+00 0. -1.
         21   -1    0    0  501  502 -0.00000000000E+00 -0.00000000000E+00 -0.72486362415E+01  0.72486362415E+01  0.00000000000E+00 0. -1.
         25    1    1    2    0    0  0.00000000000E+00  0.00000000000E+00  0.53164583575E+03  0.54614310823E+03  0.12500000000E+03 0.  0.
<mgrwt>
<rscale>  0 0.12500000E+03</rscale>
<asrwt>0</asrwt>
<pdfrwt beam="1">  1       21 0.82906810E-01 0.12500000E+03</pdfrwt>
<pdfrwt beam="2">  1       21 0.11151752E-02 0.12500000E+03</pdfrwt>
<totfact> 0.39647325E+06</totfact>
</mgrwt>
</event>
<event>
 3    1  0.1573868E-001  0.1250000E+03  0.7546771E-02  0.1235069E+00
         21   -1    0    0  502  501  0.00000000000E+00  0.00000000000E+00  0.33587196032E+03  0.33587196032E+03  0.00000000000E+00 0.  1.
         21   -1    0    0  501  502 -0.00000000000E+00 -0.00000000000E+00 -0.11630175964E+02  0.11630175964E+02  0.00000000000E+00 0.  1.
         25    1    1    2    0    0  0.00000000000E+00  0.00000000000E+00  0.32424178435E+03  0.34750213628E+03  0.12500000000E+03 0.  0.
<mgrwt>
<rscale>  0 0.12500000E+03</rscale>
<asrwt>0</asrwt>
<pdfrwt beam="1">  1       21 0.51672602E-01 0.12500000E+03</pdfrwt>
<pdfrwt beam="2">  1       21 0.17892581E-02 0.12500000E+03</pdfrwt>
<totfact> 0.51723439E+06</totfact>
</mgrwt>
</event>
<event>
 3    1  0.1573868E-001  0.1250000E+03  0.7546771E-02  0.1235069E+00
         21   -1    0    0  502  501  0.00000000000E+00  0.00000000000E+00  0.20312345839E+02  0.20312345839E+02  0.00000000000E+00 0. -1.
         21   -1    0    0  501  502 -0.00000000000E+00 -0.00000000000E+00 -0.19230915183E+03  0.19230915183E+03  0.00000000000E+00 0. -1.
         25    1    1    2    0    0  0.00000000000E+00  0.00000000000E+00 -0.17199680599E+03  0.21262149767E+03  0.12500000000E+03 0.  0.
<mgrwt>
<rscale>  0 0.12500000E+03</rscale>
<asrwt>0</asrwt>
<pdfrwt beam="1">  1       21 0.31249763E-02 0.12500000E+03</pdfrwt>
<pdfrwt beam="2">  1       21 0.29586023E-01 0.12500000E+03</pdfrwt>
<totfact> 0.63584775E+06</totfact>
</mgrwt>
</event>
<event>
 3    1  0.1573868E-001  0.1250000E+03  0.7546771E-02  0.1235069E+00
         21   -1    0    0  502  501  0.00000000000E+00  0.00000000000E+00  0.64240901251E+02  0.64240901251E+02  0.00000000000E+00 0. -1.
         21   -1    0    0  501  502 -0.00000000000E+00 -0.00000000000E+00 -0.60806276437E+02  0.60806276437E+02  0.00000000000E+00 0. -1.
         25    1    1    2    0    0  0.00000000000E+00  0.00000000000E+00  0.34346248138E+01  0.12504717769E+03  0.12500000000E+03 0.  0.
<mgrwt>
<rscale>  0 0.12500000E+03</rscale>
<asrwt>0</asrwt>
<pdfrwt beam="1">  1       21 0.98832156E-02 0.12500000E+03</pdfrwt>
<pdfrwt beam="2">  1       21 0.93548118E-02 0.12500000E+03</pdfrwt>
<totfact> 0.74037209E+06</totfact>
</mgrwt>
</event>
<event>
 3    1  0.1573868E-001  0.1250000E+03  0.7546771E-02  0.1235069E+00
         21   -1    0    0  502  501  0.00000000000E+00  0.00000000000E+00  0.42879053292E+01  0.42879053292E+01  0.00000000000E+00 0.  1.
         21   -1    0    0  501  502 -0.00000000000E+00 -0.00000000000E+00 -0.91099259431E+03  0.91099259431E+03  0.00000000000E+00 0.  1.
         25    1    1    2    0    0  0.00000000000E+00  0.00000000000E+00 -0.90670468898E+03  0.91528049964E+03  0.12500000000E+03 0.  0.
<mgrwt>
<rscale>  0 0.12500000E+03</rscale>
<asrwt>0</asrwt>
<pdfrwt beam="1">  1       21 0.65967721E-03 0.12500000E+03</pdfrwt>
<pdfrwt beam="2">  1       21 0.14015282E+00 0.12500000E+03</pdfrwt>
<totfact> 0.25864481E+06</totfact>
</mgrwt>
</event>
<event>
 3    1  0.1573868E-001  0.1250000E+03  0.7546771E-02  0.1235069E+00
         21   -1    0    0  502  501  0.00000000000E+00  0.00000000000E+00  0.37264215997E+03  0.37264215997E+03  0.00000000000E+00 0.  1.
         21   -1    0    0  501  502 -0.00000000000E+00 -0.00000000000E+00 -0.10482576637E+02  0.10482576637E+02  0.00000000000E+00 0.  1.
         25    1    1    2    0    0  0.00000000000E+00  0.00000000000E+00  0.36215958333E+03  0.38312473660E+03  0.12500000000E+03 0.  0.
<mgrwt>
<rscale>  0 0.12500000E+03</rscale>
<asrwt>0</asrwt>
<pdfrwt beam="1">  1       21 0.57329553E-01 0.12500000E+03</pdfrwt>
<pdfrwt beam="2">  1       21 0.16127044E-02 0.12500000E+03</pdfrwt>
<totfact> 0.49181190E+06</totfact>
</mgrwt>
</event>
<event>
 3    1  0.1573868E-001  0.1250000E+03  0.7546771E-02  0.1235069E+00
         21   -1    0    0  502  501  0.00000000000E+00  0.00000000000E+00  0.23222217857E+03  0.23222217857E+03  0.00000000000E+00 0. -1.
         21   -1    0    0  501  502 -0.00000000000E+00 -0.00000000000E+00 -0.16821175411E+02  0.16821175411E+02  0.00000000000E+00 0. -1.
         25    1    1    2    0    0  0.00000000000E+00  0.00000000000E+00  0.21540100316E+03  0.24904335398E+03  0.12500000000E+03 0.  0.
<mgrwt>
<rscale>  0 0.12500000E+03</rscale>
<asrwt>0</asrwt>
<pdfrwt beam="1">  1       21 0.35726487E-01 0.12500000E+03</pdfrwt>
<pdfrwt beam="2">  1       21 0.25878733E-02 0.12500000E+03</pdfrwt>
<totfact> 0.59968374E+06</totfact>
</mgrwt>
</event>
<event>
 3    1  0.1573868E-001  0.1250000E+03  0.7546771E-02  0.1235069E+00
         21   -1    0    0  502  501  0.00000000000E+00  0.00000000000E+00  0.24732510607E+01  0.24732510607E+01  0.00000000000E+00 0.  1.
         21   -1    0    0  501  502 -0.00000000000E+00 -0.00000000000E+00 -0.15793988981E+04  0.15793988981E+04  0.00000000000E+00 0.  1.
         25    1    1    2    0    0  0.00000000000E+00  0.00000000000E+00 -0.15769256470E+04  0.15818721492E+04  0.12500000000E+03 0.  0.
<mgrwt>
<rscale>  0 0.12500000E+03</rscale>
<asrwt>0</asrwt>
<pdfrwt beam="1">  1       21 0.38049998E-03 0.12500000E+03</pdfrwt>
<pdfrwt beam="2">  1       21 0.24298456E+00 0.12500000E+03</pdfrwt>
<totfact> 0.12821687E+06</totfact>
</mgrwt>
</event>
<event>
 3    1  0.1573868E-001  0.1250000E+03  0.7546771E-02  0.1235069E+00
         21   -1    0    0  502  501  0.00000000000E+00  0.00000000000E+00  0.34362614285E+02  0.34362614285E+02  0.00000000000E+00 0.  1.
         21   -1    0    0  501  502 -0.00000000000E+00 -0.00000000000E+00 -0.11367732291E+03  0.11367732291E+03  0.00000000000E+00 0.  1.
         25    1    1    2    0    0  0.00000000000E+00  0.00000000000E+00 -0.79314708622E+02  0.14803993719E+03  0.12500000000E+03 0.  0.
<mgrwt>
<rscale>  0 0.12500000E+03</rscale>
<asrwt>0</asrwt>
<pdfrwt beam="1">  1       21 0.52865559E-02 0.12500000E+03</pdfrwt>
<pdfrwt beam="2">  1       21 0.17488819E-01 0.12500000E+03</pdfrwt>
<totfact> 0.71006297E+06</totfact>
</mgrwt>
</event>
<event>
 3    1  0.1573868E-001  0.1250000E+03  0.7546771E-02  0.1235069E+00
         21   -1    0    0  502  501  0.00000000000E+00  0.00000000000E+00  0.27929144149E+03  0.27929144149E+03  0.00000000000E+00 0. -1.
         21   -1    0    0  501  502 -0.00000000000E+00 -0.00000000000E+00 -0.13986286078E+02  0.13986286078E+02  0.00000000000E+00 0. -1.
         25    1    1    2    0    0  0.00000000000E+00  0.00000000000E+00  0.26530515542E+03  0.29327772757E+03  0.12500000000E+03 0.  0.
<mgrwt>
<rscale>  0 0.12500000E+03</rscale>
<asrwt>0</asrwt>
<pdfrwt beam="1">  1       21 0.42967910E-01 0.12500000E+03</pdfrwt>
<pdfrwt beam="2">  1       21 0.21517365E-02 0.12500000E+03</pdfrwt>
<totfact> 0.56019490E+06</totfact>
</mgrwt>
</event>
<event>
 3    1  0.1573868E-001  0.1250000E+03  0.7546771E-02  0.1235069E+00
         21   -1    0    0  502  501  0.00000000000E+00  0.00000000000E+00  0.24623192073E+01  0.24623192073E+01  0.00000000000E+00 0.  1.
         21   -1    0    0  501  502 -0.00000000000E+00 -0.00000000000E+00 -0.15864108879E+04  0.15864108879E+04  0.00000000000E+00 0.  1.
         25    1    1    2    0    0  0.00000000000E+00  0.00000000000E+00 -0.15839485687E+04  0.15888732071E+04  0.12500000000E+03 0.  0.
<mgrwt>
<rscale>  0 0.12500000E+03</rscale>
<asrwt>0</asrwt>
<pdfrwt beam="1">  1       21 0.37881822E-03 0.12500000E+03</pdfrwt>
<pdfrwt beam="2">  1       21 0.24406329E+00 0.12500000E+03</pdfrwt>
<totfact> 0.12725455E+06</totfact>
</mgrwt>
</event>
<event>
 3    1  0.1573868E-001  0.1250000E+03  0.7546771E-02  0.1235069E+00
         21   -1    0    0  502  501  0.00000000000E+00  0.00000000000E+00  0.31647662442E+02  0.31647662442E+02  0.00000000000E+00 0.  1.
         21   -1    0    0  501  502 -0.00000000000E+00 -0.00000000000E+00 -0.12342933723E+03  0.12342933723E+03  0.00000000000E+00 0.  1.
         25    1    1    2    0    0  0.00000000000E+00  0.00000000000E+00 -0.91781674784E+02  0.15507699967E+03  0.12500000000E+03 0.  0.
<mgrwt>
<rscale>  0 0.12500000E+03</rscale>
<asrwt>0</asrwt>
<pdfrwt beam="1">  1       21 0.48688711E-02 0.12500000E+03</pdfrwt>
<pdfrwt beam="2">  1       21 0.18989129E-01 0.12500000E+03</pdfrwt>
<totfact> 0.70126090E+06</totfact>
</mgrwt>
</event>
<event>
 3    1  0.1573868E-001  0.1250000E+03  0.7546771E-02  0.1235069E+00
         21   -1    0    0  502  501  0.00000000000E+00  0.00000000000E+00  0.10132384312E+03  0.10132384312E+03  0.00000000000E+00 0. -1.
         21   -1    0    0  501  502 -0.00000000000E+00 -0.00000000000E+00 -0.38552130277E+02  0.38552130277E+02  0.00000000000E+00 0. -1.
         25    1    1    2    0    0  0.00000000000E+00  0.00000000000E+00  0.62771712838E+02  0.13987597339E+03  0.12500000000E+03 0.  0.
<mgrwt>
<rscale>  0 0.12500000E+03</rscale>
<asrwt>0</asrwt>
<pdfrwt beam="1">  1       21 0.15588283E-01 0.12500000E+03</pdfrwt>
<pdfrwt beam="2">  1       21 0.59310970E-02 0.12500000E+03</pdfrwt>
<totfact> 0.72055504E+06</totfact>
</mgrwt>
</event>
<event>
 3    1  0.1573868E-001  0.1250000E+03  0.7546771E-02  0.1235069E+00
         21   -1    0    0  502  501  0.00000000000E+00  0.00000000000E+00  0.97676277284E+01  0.97676277284E+01  0.00000000000E+00 0. -1.
         21   -1    0    0  501  502 -0.00000000000E+00 -0.00000000000E+00 -0.39991798507E+03  0.39991798507E+03  0.00000000000E+00 0. -1.
         25    1    1    2    0    0  0.00000000000E+00  0.00000000000E+00 -0.39015035734E+03  0.40968561279E+03  0.12500000000E+03 0.  0.
<mgrwt>
<rscale>  0 0.12500000E+03</rscale>
<asrwt>0</asrwt>
<pdfrwt beam="1">  1       21 0.15027121E-02 0.12500000E+03</pdfrwt>
<pdfrwt beam="2">  1       21 0.61525836E-01 0.12500000E+03</pdfrwt>
<totfact> 0.47405484E+06</totfact>
</mgrwt>
</event>
<event>
 3    1  0.1573868E-001  0.1250000E+03  0.7546771E-02  0.1235069E+00
         21   -1    0    0  502  501  0.00000000000E+00  0.00000000000E+00  0.53214835323E+02  0.53214835323E+02  0.00000000000E+00 0.  1.
         21   -1    0    0  501  502 -0.00000000000E+00 -0.00000000000E+00 -0.73405282123E+02  0.73405282123E+02  0.00000000000E+00 0.  1.
         25    1    1    2    0    0  0.00000000000E+00  0.00000000000E+00 -0.20190446800E+02  0.12662011745E+03  0.12500000000E+03 0.  0.
<mgrwt>
<rscale>  0 0.12500000E+03</rscale>
<asrwt>0</asrwt>
<pdfrwt beam="1">  1       21 0.81868978E-02 0.12500000E+03</pdfrwt>
<pdfrwt beam="2">  1       21 0.11293120E-01 0.12500000E+03</pdfrwt>
<totfact> 0.73820947E+06</totfact>
</mgrwt>
</event>
<event>
 3    1  0.1573868E-001  0.1250000E+03  0.7546771E-02  0.1235069E+00
         21   -1    0    0  502  501  0.00000000000E+00  0.00000000000E+00  0.17364837037E+02  0.17364837037E+02  0.00000000000E+00 0.  1.
         21   -1    0    0  501  502 -0.00000000000E+00 -0.00000000000E+00 -0.22495172236E+03  0.22495172236E+03  0.00000000000E+00 0.  1.
         25    1    1    2    0    0  0.00000000000E+00  0.00000000000E+00 -0.20758688532E+03  0.24231655940E+03  0.12500000000E+03 0.  0.
<mgrwt>
<rscale>  0 0.12500000E+03</rscale>
<asrwt>0</asrwt>
<pdfrwt beam="1">  1       21 0.26715136E-02 0.12500000E+03</pdfrwt>
<pdfrwt beam="2">  1       21 0.34607955E-01 0.12500000E+03</pdfrwt>
<totfact> 0.60609213E+06</totfact>
</mgrwt>
</event>
<event>
 3    1  0.1573868E-001  0.1250000E+03  0.7546771E-02  0.1235069E+00
         21   -1    0    0  502  501  0.00000000000E+00  0.00000000000E+00  0.31693639125E+02  0.31693639125E+02  0.00000000000E+00 0. -1.
         21   -1    0    0  501  502 -0.00000000000E+00 -0.00000000000E+00 -0.12325028327E+03  0.12325028327E+03  0.00000000000E+00 0. -1.
         25    1    1    2    0    0  0.00000000000E+00  0.00000000000E+00 -0.91556644147E+02  0.15494392240E+03  0.12500000000E+03 0.  0.
<mgrwt>
<rscale>  0 0.12500000E+03</rscale>
<asrwt>0</asrwt>
<pdfrwt beam="1">  1       21 0.48759446E-02 0.12500000E+03</pdfrwt>
<pdfrwt beam="2">  1       21 0.18961581E-01 0.12500000E+03</pdfrwt>
<totfact> 0.70142630E+06</totfact>
</mgrwt>
</event>
<event>
 3    1  0.1573868E-001  0.1250000E+03  0.7546771E-02  0.1235069E+00
         21   -1    0    0  502  501  0.00000000000E+00  0.00000000000E+00  0.62175071802E+02  0.62175071802E+02  0.00000000000E+00 0. -1.
         21   -1    0    0  501  502 -0.00000000000E+00 -0.00000000000E+00 -0.62826626279E+02  0.62826626279E+02  0.00000000000E+00 0. -1.
         25    1    1    2    0    0  0.00000000000E+00  0.00000000000E+00 -0.65155447678E+00  0.12500169808E+03  0.12500000000E+03 0.  0.
<mgrwt>
<rscale>  0 0.12500000E+03</rscale>
<asrwt>0</asrwt>
<pdfrwt beam="1">  1       21 0.95653956E-02 0.12500000E+03</pdfrwt>
<pdfrwt beam="2">  1       21 0.96656348E-02 0.12500000E+03</pdfrwt>
<totfact> 0.74043352E+06</totfact>
</mgrwt>
</event>
<event>
 3    1  0.1573868E-001  0.1250000E+03  0.7546771E-02  0.1235069E+00
         21   -1    0    0  502  501  0.00000000000E+00  0.00000000000E+00  0.87320960874E+01  0.87320960874E+01  0.00000000000E+00 0.  1.
         21   -1    0    0  501  502 -0.00000000000E+00 -0.00000000000E+00 -0.44734390929E+03  0.44734390929E+03  0.00000000000E+00 0.  1.
         25    1    1    2    0    0  0.00000000000E+00  0.00000000000E+00 -0.43861181320E+03  0.45607600538E+03  0.12500000000E+03 0.  0.
<mgrwt>
<rscale>  0 0.12500000E+03</rscale>
<asrwt>0</asrwt>
<pdfrwt beam="1">  1       21 0.13433994E-02 0.12500000E+03</pdfrwt>
<pdfrwt beam="2">  1       21 0.68822139E-01 0.12500000E+03</pdfrwt>
<totfact> 0.44530913E+06</totfact>
</mgrwt>
</event>
<event>
 3    1  0.1573868E-001  0.1250000E+03  0.7546771E-02  0.1235069E+00
         21   -1    0    0  502  501  0.00000000000E+00  0.00000000000E+00  0.86078225476E+01  0.86078225476E+01  0.00000000000E+00 0. -1.
         21   -1    0    0  501  502 -0.00000000000E+00 -0.00000000000E+00 -0.45380233833E+03  0.45380233833E+03  0.00000000000E+00 0. -1.
         25    1    1    2    0    0  0.00000000000E+00  0.00000000000E+00 -0.44519451578E+03  0.46241016088E+03  0.12500000000E+03 0.  0.
<mgrwt>
<rscale>  0 0.12500000E+03</rscale>
<asrwt>0</asrwt>
<pdfrwt beam="1">  1       21 0.13242804E-02 0.12500000E+03</pdfrwt>
<pdfrwt beam="2">  1       21 0.69815745E-01 0.12500000E+03</pdfrwt>
<totfact> 0.44158865E+06</totfact>
</mgrwt>
</event>
<event>
 3    1  0.1573868E-001  0.1250000E+03  0.7546771E-02  0.1235069E+00
         21   -1    0    0  502  501  0.00000000000E+00  0.00000000000E+00  0.20488737515E+03  0.20488737515E+03  0.00000000000E+00 0.  1.
         21   -1    0    0  501  502 -0.00000000000E+00 -0.00000000000E+00 -0.19065352354E+02  0.19065352354E+02  0.00000000000E+00 0.  1.
         25    1    1    2    0    0  0.00000000000E+00  0.00000000000E+00  0.18582202279E+03  0.22395272750E+03  0.12500000000E+03 0.  0.
<mgrwt>
<rscale>  0 0.12500000E+03</rscale>
<asrwt>0</asrwt>
<pdfrwt beam="1">  1       21 0.31521133E-01 0.12500000E+03</pdfrwt>
<pdfrwt beam="2">  1       21 0.29331313E-02 0.12500000E+03</pdfrwt>
<totfact> 0.62420785E+06</totfact>
</mgrwt>
</event>
<event>
 3    1  0.1573868E-001  0.1250000E+03  0.7546771E-02  0.1235069E+00
         21   -1    0    0  502  501  0.00000000000E+00  0.00000000000E+00  0.66206569404E+02  0.66206569404E+02  0.00000000000E+00 0.  1.
         21   -1    0    0  501  502 -0.00000000000E+00 -0.00000000000E+00 -0.59000942582E+02  0.59000942582E+02  0.00000000000E+00 0.  1.
         25    1    1    2    0    0  0.00000000000E+00  0.00000000000E+00  0.72056268220E+01  0.12520751199E+03  0.12500000000E+03 0.  0.
<mgrwt>
<rscale>  0 0.12500000E+03</rscale>
<asrwt>0</asrwt>
<pdfrwt beam="1">  1       21 0.10185626E-01 0.12500000E+03</pdfrwt>
<pdfrwt beam="2">  1       21 0.90770680E-02 0.12500000E+03</pdfrwt>
<totfact> 0.74015558E+06</totfact>
</mgrwt>
</event>
<event>
 3    1  0.1573868E-001  0.1250000E+03  0.7546771E-02  0.1235069E+00
         21   -1    0    0  502  501  0.00000000000E+00  0.00000000000E+00  0.63652305701E+01  0.63652305701E+01  0.00000000000E+00 0.  1.
         21   -1    0    0  501  502 -0.00000000000E+00 -0.00000000000E+00 -0.61368554634E+03  0.61368554634E+03  0.00000000000E+00 0.  1.
         25    1    1    2    0    0  0.00000000000E+00  0.00000000000E+00 -0.60732031577E+03  0.62005077691E+03  0.12500000000E+03 0.  0.
<mgrwt>
<rscale>  0 0.12500000E+03</rscale>
<asrwt>0</asrwt>
<pdfrwt beam="1">  1       21 0.97926598E-03 0.12500000E+03</pdfrwt>
<pdfrwt beam="2">  1       21 0.94413186E-01 0.12500000E+03</pdfrwt>
<totfact> 0.36201270E+06</totfact>
</mgrwt>
</event>
<event>
 3    1  0.1573868E-001  0.1250000E+03  0.7546771E-02  0.1235069E+00
         21   -1    0    0  502  501  0.00000000000E+00  0.00000000000E+00  0.81672995990E+03  0.81672995990E+03  0.00000000000E+00 0. -1.
         21   -1    0    0  501  502 -0.00000000000E+00 -0.00000000000E+00 -0.47827925897E+01  0.47827925897E+01  0.00000000000E+00 0. -1.
         25    1    1    2    0    0  0.00000000000E+00  0.00000000000E+00  0.81194716731E+03  0.82151275249E+03  0.12500000000E+03 0.  0.
<mgrwt>
<rscale>  0 0.12500000E+03</rscale>
<asrwt>0</asrwt>
<pdfrwt beam="1">  1       21 0.12565065E+00 0.12500000E+03</pdfrwt>
<pdfrwt beam="2">  1       21 0.73581489E-03 0.12500000E+03</pdfrwt>
<totfact> 0.28662367E+06</totfact>
</mgrwt>
</event>
<event>
 3    1  0.1573868E-001  0.1250000E+03  0.7546771E-02  0.1235069E+00
         21   -1    0    0  502  501  0.00000000000E+00  0.00000000000E+00  0.44370227803E+03  0.44370227803E+03  0.00000000000E+00 0.  1.
         21   -1    0    0  501  502 -0.00000000000E+00 -0.00000000000E+00 -0.88037636798E+01  0.88037636798E+01  0.00000000000E+00 0.  1.
         25    1    1    2    0    0  0.00000000000E+00  0.00000000000E+00  0.43489851435E+03  0.45250604171E+03  0.12500000000E+03 0.  0.
<mgrwt>
<rscale>  0 0.12500000E+03</rscale>
<asrwt>0</asrwt>
<pdfrwt beam="1">  1       21 0.68261872E-01 0.12500000E+03</pdfrwt>
<pdfrwt beam="2">  1       21 0.13544255E-02 0.12500000E+03</pdfrwt>
<totfact> 0.44742698E+06</totfact>
</mgrwt>
</event>
<event>
 3    1  0.1573868E-001  0.1250000E+03  0.7546771E-02  0.1235069E+00
         21   -1    0    0  502  501  0.00000000000E+00  0.00000000000E+00  0.36036322777E+02  0.36036322777E+02  0.00000000000E+00 0. -1.
         21   -1    0    0  501  502 -0.00000000000E+00 -0.00000000000E+00 -0.10839757497E+03  0.10839757497E+03  0.00000000000E+00 0. -1.
         25    1    1    2    0    0  0.00000000000E+00  0.00000000000E+00 -0.72361252198E+02  0.14443389775E+03  0.12500000000E+03 0.  0.
<mgrwt>
<rscale>  0 0.12500000E+03</rscale>
<asrwt>0</asrwt>
<pdfrwt beam="1">  1       21 0.55440497E-02 0.12500000E+03</pdfrwt>
<pdfrwt beam="2">  1       21 0.16676550E-01 0.12500000E+03</pdfrwt>
<totfact> 0.71465624E+06</totfact>
</mgrwt>
</event>
<event>
 3    1  0.1573868E-001  0.1250000E+03  0.7546771E-02  0.1235069E+00
         21   -1    0    0  502  501  0.00000000000E+00  0.00000000000E+00  0.85123656433E+02  0.85123656433E+02  0.00000000000E+00 0.  1.
         21   -1    0    0  501  502 -0.00000000000E+00 -0.00000000000E+00 -0.45889123702E+02  0.45889123702E+02  0.00000000000E+00 0.  1.
         25    1    1    2    0    0  0.00000000000E+00  0.00000000000E+00  0.39234532732E+02  0.13101278013E+03  0.12500000000E+03 0.  0.
<mgrwt>
<rscale>  0 0.12500000E+03</rscale>
<asrwt>0</asrwt>
<pdfrwt beam="1">  1       21 0.13095947E-01 0.12500000E+03</pdfrwt>
<pdfrwt beam="2">  1       21 0.70598652E-02 0.12500000E+03</pdfrwt>
<totfact> 0.73228949E+06</totfact>
</mgrwt>
</event>
<event>
 3    1  0.1573868E-001  0.1250000E+03  0.7546771E-02  0.1235069E+00
         21   -1    0    0  502  501  0.00000000000E+00  0.00000000000E+00  0.85079908600E+02  0.85079908600E+02  0.00000000000E+00 0.  1.
         21   -1    0    0  501  502 -0.00000000000E+00 -0.00000000000E+00 -0.45912719751E+02  0.45912719751E+02  0.00000000000E+00 0.  1.
         25    1    1    2    0    0  0.00000000000E+00  0.00000000000E+00  0.39167188849E+02  0.13099262835E+03  0.12500000000E+03 0.  0.
<mgrwt>
<rscale>  0 0.12500000E+03</rscale>
<asrwt>0</asrwt>
<pdfrwt beam="1">  1       21 0.13089217E-01 0.12500000E+03</pdfrwt>
<pdfrwt beam="2">  1       21 0.70634953E-02 0.12500000E+03</pdfrwt>
<totfact> 0.73231665E+06</totfact>
</mgrwt>
</event>
<event>
 3    1  0.1573868E-001  0.1250000E+03  0.7546771E-02  0.1235069E+00
         21   -1    0    0  502  501  0.00000000000E+00  0.00000000000E+00  0.95847799707E+02  0.95847799707E+02  0.00000000000E+00 0.  1.
         21   -1    0    0  501  502 -0.00000000000E+00 -0.00000000000E+00 -0.40754717499E+02  0.40754717499E+02  0.00000000000E+00 0.  1.
         25    1    1    2    0    0  0.00000000000E+00  0.00000000000E+00  0.55093082207E+02  0.13660251721E+03  0.12500000000E+03 0.  0.
<mgrwt>
<rscale>  0 0.12500000E+03</rscale>
<asrwt>0</asrwt>
<pdfrwt beam="1">  1       21 0.14745815E-01 0.12500000E+03</pdfrwt>
<pdfrwt beam="2">  1       21 0.62699565E-02 0.12500000E+03</pdfrwt>
<totfact> 0.72484977E+06</totfact>
</mgrwt>
</event>
<event>
 3    1  0.1573868E-001  0.1250000E+03  0.7546771E-02  0.1235069E+00
         21   -1    0    0  502  501  0.00000000000E+00  0.00000000000E+00  0.81442535574E+01  0.81442535574E+01  0.00000000000E+00 0. -1.
         21   -1    0    0  501  502 -0.00000000000E+00 -0.00000000000E+00 -0.47963266031E+03  0.47963266031E+03  0.00000000000E+00 0. -1.
         25    1    1    2    0    0  0.00000000000E+00  0.00000000000E+00 -0.47148840676E+03  0.48777691387E+03  0.12500000000E+03 0.  0.
<mgrwt>
<rscale>  0 0.12500000E+03</rscale>
<asrwt>0</asrwt>
<pdfrwt beam="1">  1       21 0.12529618E-02 0.12500000E+03</pdfrwt>
<pdfrwt beam="2">  1       21 0.73789655E-01 0.12500000E+03</pdfrwt>
<totfact> 0.42714804E+06</totfact>
</mgrwt>
</event>
<event>
 3    1  0.1573868E-001  0.1250000E+03  0.7546771E-02  0.1235069E+00
         21   -1    0    0  502  501  0.00000000000E+00  0.00000000000E+00  0.37362431149E+02  0.37362431149E+02  0.00000000000E+00 0. -1.
         21   -1    0    0  501  502 -0.00000000000E+00 -0.00000000000E+00 -0.10455020939E+03  0.10455020939E+03  0.00000000000E+00 0. -1.
         25    1    1    2    0    0  0.00000000000E+00  0.00000000000E+00 -0.67187778243E+02  0.14191264054E+03  0.12500000000E+03 0.  0.
<mgrwt>
<rscale>  0 0.12500000E+03</rscale>
<asrwt>0</asrwt>
<pdfrwt beam="1">  1       21 0.57480664E-02 0.12500000E+03</pdfrwt>
<pdfrwt beam="2">  1       21 0.16084647E-01 0.12500000E+03</pdfrwt>
<totfact> 0.71790591E+06</totfact>
</mgrwt>
</event>
<event>
 3    1  0.1573868E-001  0.1250000E+03  0.7546771E-02  0.1235069E+00
         21   -1    0    0  502  501  0.00000000000E+00  0.00000000000E+00  0.19131451738E+03  0.19131451738E+03  0.00000000000E+00 0.  1.
         21   -1    0    0  501  502 -0.00000000000E+00 -0.00000000000E+00 -0.20417948693E+02  0.20417948693E+02  0.00000000000E+00 0.  1.
         25    1    1    2    0    0  0.00000000000E+00  0.00000000000E+00  0.17089656868E+03  0.21173246607E+03  0.12500000000E+03 0.  0.
<mgrwt>
<rscale>  0 0.12500000E+03</rscale>
<asrwt>0</asrwt>
<pdfrwt beam="1">  1       21 0.29433001E-01 0.12500000E+03</pdfrwt>
<pdfrwt beam="2">  1       21 0.31412230E-02 0.12500000E+03</pdfrwt>
<totfact> 0.63677721E+06</totfact>
</mgrwt>
</event>
<event>
 3    1  0.1573868E-001  0.1250000E+03  0.7546771E-02  0.1235069E+00
         21   -1    0    0  502  501  0.00000000000E+00  0.00000000000E+00  0.10324272759E+03  0.10324272759E+03  0.00000000000E+00 0.  1.
         21   -1    0    0  501  502 -0.00000000000E+00 -0.00000000000E+00 -0.37835594731E+02  0.37835594731E+02  0.00000000000E+00 0.  1.
         25    1    1    2    0    0  0.00000000000E+00  0.00000000000E+00  0.65407132858E+02  0.14107832232E+03  0.12500000000E+03 0.  0.
<mgrwt>
<rscale>  0 0.12500000E+03</rscale>
<asrwt>0</asrwt>
<pdfrwt beam="1">  1       21 0.15883496E-01 0.12500000E+03</pdfrwt>
<pdfrwt beam="2">  1       21 0.58208607E-02 0.12500000E+03</pdfrwt>
<totfact> 0.71898847E+06</totfact>
</mgrwt>
</event>
<event>
 3    1  0.1573868E-001  0.1250000E+03  0.7546771E-02  0.1235069E+00
         21   -1    0    0  502  501  0.00000000000E+00  0.00000000000E+00  0.92315657459E+01  0.92315657459E+01  0.00000000000E+00 0.  1.
         21   -1    0    0  501  502 -0.00000000000E+00 -0.00000000000E+00 -0.42314057090E+03  0.42314057090E+03  0.00000000000E+00 0.  1.
         25    1    1    2    0    0  0.00000000000E+00  0.00000000000E+00 -0.41390900515E+03  0.43237213664E+03  0.12500000000E+03 0.  0.
<mgrwt>
<rscale>  0 0.12500000E+03</rscale>
<asrwt>0</asrwt>
<pdfrwt beam="1">  1       21 0.14202412E-02 0.12500000E+03</pdfrwt>
<pdfrwt beam="2">  1       21 0.65098536E-01 0.12500000E+03</pdfrwt>
<totfact> 0.45965740E+06</totfact>
</mgrwt>
</event>
<event>
 3    1  0.1573868E-001  0.1250000E+03  0.7546771E-02  0.1235069E+00
         21   -1    0    0  502  501  0.00000000000E+00  0.00000000000E+00  0.53557670135E+02  0.53557670135E+02  0.00000000000E+00 0.  1.
         21   -1    0    0  501  502 -0.00000000000E+00 -0.00000000000E+00 -0.72935398238E+02  0.72935398238E+02  0.00000000000E+00 0.  1.
         25    1    1    2    0    0  0.00000000000E+00  0.00000000000E+00 -0.19377728102E+02  0.12649306837E+03  0.12500000000E+03 0.  0.
<mgrwt>
<rscale>  0 0.12500000E+03</rscale>
<asrwt>0</asrwt>
<pdfrwt beam="1">  1       21 0.82396416E-02 0.12500000E+03</pdfrwt>
<pdfrwt beam="2">  1       21 0.11220831E-01 0.12500000E+03</pdfrwt>
<totfact> 0.73838322E+06</totfact>
</mgrwt>
</event>
<event>
 3    1  0.1573868E-001  0.1250000E+03  0.7546771E-02  0.1235069E+00
         21   -1    0    0  502  501  0.00000000000E+00  0.00000000000E+00  0.25785657606E+03  0.25785657606E+03  0.00000000000E+00 0. -1.
         21   -1    0    0  501  502 -0.00000000000E+00 -0.00000000000E+00 -0.15148925266E+02  0.15148925266E+02  0.00000000000E+00 0. -1.
         25    1    1    2    0    0  0.00000000000E+00  0.00000000000E+00  0.24270765080E+03  0.27300550133E+03  0.12500000000E+03 0.  0.
<mgrwt>
<rscale>  0 0.12500000E+03</rscale>
<asrwt>0</asrwt>
<pdfrwt beam="1">  1       21 0.39670239E-01 0.12500000E+03</pdfrwt>
<pdfrwt beam="2">  1       21 0.23306041E-02 0.12500000E+03</pdfrwt>
<totfact> 0.57776878E+06</totfact>
</mgrwt>
</event>
<event>
 3    1  0.1573868E-001  0.1250000E+03  0.7546771E-02  0.1235069E+00
         21   -1    0    0  502  501  0.00000000000E+00  0.00000000000E+00  0.35475560807E+02  0.35475560807E+02  0.00000000000E+00 0. -1.
         21   -1    0    0  501  502 -0.00000000000E+00 -0.00000000000E+00 -0.11011101477E+03  0.11011101477E+03  0.00000000000E+00 0. -1.
         25    1    1    2    0    0  0.00000000000E+00  0.00000000000E+00 -0.74635453962E+02  0.14558657558E+03  0.12500000000E+03 0.  0.
<mgrwt>
<rscale>  0 0.12500000E+03</rscale>
<asrwt>0</asrwt>
<pdfrwt beam="1">  1       21 0.54577787E-02 0.12500000E+03</pdfrwt>
<pdfrwt beam="2">  1       21 0.16940156E-01 0.12500000E+03</pdfrwt>
<totfact> 0.71318116E+06</totfact>
</mgrwt>
</event>
<event>
 3    1  0.1573868E-001  0.1250000E+03  0.7546771E-02  0.1235069E+00
         21   -1    0    0  502  501  0.00000000000E+00  0.00000000000E+00  0.34016825339E+02  0.34016825339E+02  0.00000000000E+00 0. -1.
         21   -1    0    0  501  502 -0.00000000000E+00 -0.00000000000E+00 -0.11483287935E+03  0.11483287935E+03  0.00000000000E+00 0. -1.
         25    1    1    2    0    0  0.00000000000E+00  0.00000000000E+00 -0.80816054009E+02  0.14884970469E+03  0.12500000000E+03 0.  0.
<mgrwt>
<rscale>  0 0.12500000E+03</rscale>
<asrwt>0</asrwt>
<pdfrwt beam="1">  1       21 0.52333577E-02 0.12500000E+03</pdfrwt>
<pdfrwt beam="2">  1       21 0.17666597E-01 0.12500000E+03</pdfrwt>
<totfact> 0.70903999E+06</totfact>
</mgrwt>
</event>
<event>
 3    1  0.1573868E-001  0.1250000E+03  0.7546771E-02  0.1235069E+00
         21   -1    0    0  502  501  0.00000000000E+00  0.00000000000E+00  0.63967349869E+01  0.63967349869E+01  0.00000000000E+00 0. -1.
         21   -1    0    0  501  502 -0.00000000000E+00 -0.00000000000E+00 -0.61066309734E+03  0.61066309734E+03  0.00000000000E+00 0. -1.
         25    1    1    2    0    0  0.00000000000E+00  0.00000000000E+00 -0.60426636236E+03  0.61705983233E+03  0.12500000000E+03 0.  0.
<mgrwt>
<rscale>  0 0.12500000E+03</rscale>
<asrwt>0</asrwt>
<pdfrwt beam="1">  1       21 0.98411266E-03 0.12500000E+03</pdfrwt>
<pdfrwt beam="2">  1       21 0.93948208E-01 0.12500000E+03</pdfrwt>
<totfact> 0.36332301E+06</totfact>
</mgrwt>
</event>
<event>
 3    1  0.1573868E-001  0.1250000E+03  0.7546771E-02  0.1235069E+00
         21   -1    0    0  502  501  0.00000000000E+00  0.00000000000E+00  0.12005173583E+03  0.12005173583E+03  0.00000000000E+00 0. -1.
         21   -1    0    0  501  502 -0.00000000000E+00 -0.00000000000E+00 -0.32538055140E+02  0.32538055140E+02  0.00000000000E+00 0. -1.
         25    1    1    2    0    0  0.00000000000E+00  0.00000000000E+00  0.87513680687E+02  0.15258979097E+03  0.12500000000E+03 0.  0.
<mgrwt>
<rscale>  0 0.12500000E+03</rscale>
<asrwt>0</asrwt>
<pdfrwt beam="1">  1       21 0.18469498E-01 0.12500000E+03</pdfrwt>
<pdfrwt beam="2">  1       21 0.50058547E-02 0.12500000E+03</pdfrwt>
<totfact> 0.70435372E+06</totfact>
</mgrwt>
</event>
<event>
 3    1  0.1573868E-001  0.1250000E+03  0.7546771E-02  0.1235069E+00
         21   -1    0    0  502  501  0.00000000000E+00  0.00000000000E+00  0.26104492448E+02  0.26104492448E+02  0.00000000000E+00 0.  1.
         21   -1    0    0  501  502 -0.00000000000E+00 -0.00000000000E+00 -0.14963899443E+03  0.14963899443E+03  0.00000000000E+00 0.  1.
         25    1    1    2    0    0  0.00000000000E+00  0.00000000000E+00 -0.12353450198E+03  0.17574348688E+03  0.12500000000E+03 0.  0.
<mgrwt>
<rscale>  0 0.12500000E+03</rscale>
<asrwt>0</asrwt>
<pdfrwt beam="1">  1       21 0.40160757E-02 0.12500000E+03</pdfrwt>
<pdfrwt beam="2">  1       21 0.23021384E-01 0.12500000E+03</pdfrwt>
<totfact> 0.67643217E+06</totfact>
</mgrwt>
</event>
<event>
 3    1  0.1573868E-001  0.1250000E+03  0.7546771E-02  0.1235069E+00
         21   -1    0    0  502  501  0.00000000000E+00  0.00000000000E+00  0.61969879889E+02  0.61969879889E+02  0.00000000000E+00 0. -1.
         21   -1    0    0  501  502 -0.00000000000E+00 -0.00000000000E+00 -0.63034655013E+02  0.63034655013E+02  0.00000000000E+00 0. -1.
         25    1    1    2    0    0  0.00000000000E+00  0.00000000000E+00 -0.10647751233E+01  0.12500453490E+03  0.12500000000E+03 0.  0.
<mgrwt>
<rscale>  0 0.12500000E+03</rscale>
<asrwt>0</asrwt>
<pdfrwt beam="1">  1       21 0.95338277E-02 0.12500000E+03</pdfrwt>
<pdfrwt beam="2">  1       21 0.96976392E-02 0.12500000E+03</pdfrwt>
<totfact> 0.74042969E+06</totfact>
</mgrwt>
</event>
<event>
 3    1  0.1573868E-001  0.1250000E+03  0.7546771E-02  0.1235069E+00
         21   -1    0    0  502  501  0.00000000000E+00  0.00000000000E+00  0.50759381409E+02  0.50759381409E+02  0.00000000000E+00 0. -1.
         21   -1    0    0  501  502 -0.00000000000E+00 -0.00000000000E+00 -0.76956217581E+02  0.76956217581E+02  0.00000000000E+00 0. -1.
         25    1    1    2    0    0  0.00000000000E+00  0.00000000000E+00 -0.26196836172E+02  0.12771559899E+03  0.12500000000E+03 0.  0.
<mgrwt>
<rscale>  0 0.12500000E+03</rscale>
<asrwt>0</asrwt>
<pdfrwt beam="1">  1       21 0.78091356E-02 0.12500000E+03</pdfrwt>
<pdfrwt beam="2">  1       21 0.11839418E-01 0.12500000E+03</pdfrwt>
<totfact> 0.73672014E+06</totfact>
</mgrwt>
</event>
<event>
 3    1  0.1573868E-001  0.1250000E+03  0.7546771E-02  0.1235069E+00
         21   -1    0    0  502  501  0.00000000000E+00  0.00000000000E+00  0.14787209417E+03  0.14787209417E+03  0.00000000000E+00 0. -1.
         21   -1    0    0  501  502 -0.00000000000E+00 -0.00000000000E+00 -0.26416410898E+02  0.26416410898E+02  0.00000000000E+00 0. -1.
         25    1    1    2    0    0  0.00000000000E+00  0.00000000000E+00  0.12145568327E+03  0.17428850507E+03  0.12500000000E+03 0.  0.
<mgrwt>
<rscale>  0 0.12500000E+03</rscale>
<asrwt>0</asrwt>
<pdfrwt beam="1">  1       21 0.22749552E-01 0.12500000E+03</pdfrwt>
<pdfrwt beam="2">  1       21 0.40640633E-02 0.12500000E+03</pdfrwt>
<totfact> 0.67812859E+06</totfact>
</mgrwt>
</event>
<event>
 3    1  0.1573868E-001  0.1250000E+03  0.7546771E-02  0.1235069E+00
         21   -1    0    0  502  501  0.00000000000E+00  0.00000000000E+00  0.32025269003E+03  0.32025269003E+03  0.00000000000E+00 0. -1.
         21   -1    0    0  501  502 -0.00000000000E+00 -0.00000000000E+00 -0.12197399496E+02  0.12197399496E+02  0.00000000000E+00 0. -1.
         25    1    1    2    0    0  0.00000000000E+00  0.00000000000E+00  0.30805529053E+03  0.33245008952E+03  0.12500000000E+03 0.  0.
<mgrwt>
<rscale>  0 0.12500000E+03</rscale>
<asrwt>0</asrwt>
<pdfrwt beam="1">  1       21 0.49269638E-01 0.12500000E+03</pdfrwt>
<pdfrwt beam="2">  1       21 0.18765232E-02 0.12500000E+03</pdfrwt>
<totfact> 0.52861255E+06</totfact>
</mgrwt>
</event>
<event>
 3    1  0.1573868E-001  0.1250000E+03  0.7546771E-02  0.1235069E+00
         21   -1    0    0  502  501  0.00000000000E+00  0.00000000000E+00  0.46230178105E+02  0.46230178105E+02  0.00000000000E+00 0. -1.
         21   -1    0    0  501  502 -0.00000000000E+00 -0.00000000000E+00 -0.84495672742E+02  0.84495672742E+02  0.00000000000E+00 0. -1.
         25    1    1    2    0    0  0.00000000000E+00  0.00000000000E+00 -0.38265494637E+02  0.13072585085E+03  0.12500000000E+03 0.  0.
<mgrwt>
<rscale>  0 0.12500000E+03</rscale>
<asrwt>0</asrwt>
<pdfrwt beam="1">  1       21 0.71123351E-02 0.12500000E+03</pdfrwt>
<pdfrwt beam="2">  1       21 0.12999334E-01 0.12500000E+03</pdfrwt>
<totfact> 0.73267639E+06</totfact>
</mgrwt>
</event>
<event>
 3    1  0.1573868E-001  0.1250000E+03  0.7546771E-02  0.1235069E+00
         21   -1    0    0  502  501  0.00000000000E+00  0.00000000000E+00  0.19885758418E+03  0.19885758418E+03  0.00000000000E+00 0. -1.
         21   -1    0    0  501  502 -0.00000000000E+00 -0.00000000000E+00 -0.19643454969E+02  0.19643454969E+02  0.00000000000E+00 0. -1.
         25    1    1    2    0    0  0.00000000000E+00  0.00000000000E+00  0.17921412921E+03  0.21850103915E+03  0.12500000000E+03 0.  0.
<mgrwt>
<rscale>  0 0.12500000E+03</rscale>
<asrwt>0</asrwt>
<pdfrwt beam="1">  1       21 0.30593473E-01 0.12500000E+03</pdfrwt>
<pdfrwt beam="2">  1       21 0.30220701E-02 0.12500000E+03</pdfrwt>
<totfact> 0.62976079E+06</totfact>
</mgrwt>
</event>
<event>
 3    1  0.1573868E-001  0.1250000E+03  0.7546771E-02  0.1235069E+00
         21   -1    0    0  502  501  0.00000000000E+00  0.00000000000E+00  0.41542994512E+03  0.41542994512E+03  0.00000000000E+00 0. -1.
         21   -1    0    0  501  502 -0.00000000000E+00 -0.00000000000E+00 -0.94029090727E+01  0.94029090727E+01  0.00000000000E+00 0. -1.
         25    1    1    2    0    0  0.00000000000E+00  0.00000000000E+00  0.40602703604E+03  0.42483285419E+03  0.12500000000E+03 0.  0.
<mgrwt>
<rscale>  0 0.12500000E+03</rscale>
<asrwt>0</asrwt>
<pdfrwt beam="1">  1       21 0.63912285E-01 0.12500000E+03</pdfrwt>
<pdfrwt beam="2">  1       21 0.14466017E-02 0.12500000E+03</pdfrwt>
<totfact> 0.46436688E+06</totfact>
</mgrwt>
</event>
<event>
 3    1  0.1573868E-001  0.1250000E+03  0.7546771E-02  0.1235069E+00
         21   -1    0    0  502  501  0.00000000000E+00  0.00000000000E+00  0.12578848078E+03  0.12578848078E+03  0.00000000000E+00 0. -1.
         21   -1    0    0  501  502 -0.00000000000E+00 -0.00000000000E+00 -0.31054115415E+02  0.31054115415E+02  0.00000000000E+00 0. -1.
         25    1    1    2    0    0  0.00000000000E+00  0.00000000000E+00  0.94734365367E+02  0.15684259620E+03  0.12500000000E+03 0.  0.
<mgrwt>
<rscale>  0 0.12500000E+03</rscale>
<asrwt>0</asrwt>
<pdfrwt beam="1">  1       21 0.19352074E-01 0.12500000E+03</pdfrwt>
<pdfrwt beam="2">  1       21 0.47775563E-02 0.12500000E+03</pdfrwt>
<totfact> 0.69907369E+06</totfact>
</mgrwt>
</event>
<event>
 3    1  0.1573868E-001  0.1250000E+03  0.7546771E-02  0.1235069E+00
         21   -1    0    0  502  501  0.00000000000E+00  0.00000000000E+00  0.14981579682E+03  0.14981579682E+03  0.00000000000E+00 0. -1.
         21   -1    0    0  501  502 -0.00000000000E+00 -0.00000000000E+00 -0.26073685705E+02  0.26073685705E+02  0.00000000000E+00 0. -1.
         25    1    1    2    0    0  0.00000000000E+00  0.00000000000E+00  0.12374211112E+03  0.17588948253E+03  0.12500000000E+03 0.  0.
<mgrwt>
<rscale>  0 0.12500000E+03</rscale>
<asrwt>0</asrwt>
<pdfrwt beam="1">  1       21 0.23048584E-01 0.12500000E+03</pdfrwt>
<pdfrwt beam="2">  1       21 0.40113363E-02 0.12500000E+03</pdfrwt>
<totfact> 0.67626239E+06</totfact>
</mgrwt>
</event>
<event>
 3    1  0.1573868E-001  0.1250000E+03  0.7546771E-02  0.1235069E+00
         21   -1    0    0  502  501  0.00000000000E+00  0.00000000000E+00  0.45566151519E+01  0.45566151519E+01  0.00000000000E+00 0. -1.
         21   -1    0    0  501  502 -0.00000000000E+00 -0.00000000000E+00 -0.85727011603E+03  0.85727011603E+03  0.00000000000E+00 0. -1.
         25    1    1    2    0    0  0.00000000000E+00  0.00000000000E+00 -0.85271350088E+03  0.86182673119E+03  0.12500000000E+03 0.  0.
<mgrwt>
<rscale>  0 0.12500000E+03</rscale>
<asrwt>0</asrwt>
<pdfrwt beam="1">  1       21 0.70101733E-03 0.12500000E+03</pdfrwt>
<pdfrwt beam="2">  1       21 0.13188778E+00 0.12500000E+03</pdfrwt>
<totfact> 0.27413790E+06</totfact>
</mgrwt>
</event>
<event>
 3    1  0.1573868E-001  0.1250000E+03  0.7546771E-02  0.1235069E+00
         21   -1    0    0  502  501  0.00000000000E+00  0.00000000000E+00  0.30399510795E+03  0.30399510795E+03  0.00000000000E+00 0.  1.
         21   -1    0    0  501  502 -0.00000000000E+00 -0.00000000000E+00 -0.12849713360E+02  0.12849713360E+02  0.00000000000E+00 0.  1.
         25    1    1    2    0    0  0.00000000000E+00  0.00000000000E+00  0.29114539459E+03  0.31684482131E+03  0.12500000000E+03 0.  0.
<mgrwt>
<rscale>  0 0.12500000E+03</rscale>
<asrwt>0</asrwt>
<pdfrwt beam="1">  1       21 0.46768473E-01 0.12500000E+03</pdfrwt>
<pdfrwt beam="2">  1       21 0.19768792E-02 0.12500000E+03</pdfrwt>
<totfact> 0.54084328E+06</totfact>
</mgrwt>
</event>
<event>
 3    1  0.1573868E-001  0.1250000E+03  0.7546771E-02  0.1235069E+00
         21   -1    0    0  502  501  0.00000000000E+00  0.00000000000E+00  0.26436341828E+02  0.26436341828E+02  0.00000000000E+00 0.  1.
         21   -1    0    0  501  502 -0.00000000000E+00 -0.00000000000E+00 -0.14776061020E+03  0.14776061020E+03  0.00000000000E+00 0.  1.
         25    1    1    2    0    0  0.00000000000E+00  0.00000000000E+00 -0.12132426837E+03  0.17419695203E+03  0.12500000000E+03 0.  0.
<mgrwt>
<rscale>  0 0.12500000E+03</rscale>
<asrwt>0</asrwt>
<pdfrwt beam="1">  1       21 0.40671295E-02 0.12500000E+03</pdfrwt>
<pdfrwt beam="2">  1       21 0.22732401E-01 0.12500000E+03</pdfrwt>
<totfact> 0.67823560E+06</totfact>
</mgrwt>
</event>
<event>
 3    1  0.1573868E-001  0.1250000E+03  0.7546771E-02  0.1235069E+00
         21   -1    0    0  502  501  0.00000000000E+00  0.00000000000E+00  0.90582146072E+02  0.90582146072E+02  0.00000000000E+00 0. -1.
         21   -1    0    0  501  502 -0.00000000000E+00 -0.00000000000E+00 -0.43123840286E+02  0.43123840286E+02  0.00000000000E+00 0. -1.
         25    1    1    2    0    0  0.00000000000E+00  0.00000000000E+00  0.47458305786E+02  0.13370598636E+03  0.12500000000E+03 0.  0.
<mgrwt>
<rscale>  0 0.12500000E+03</rscale>
<asrwt>0</asrwt>
<pdfrwt beam="1">  1       21 0.13935715E-01 0.12500000E+03</pdfrwt>
<pdfrwt beam="2">  1       21 0.66344370E-02 0.12500000E+03</pdfrwt>
<totfact> 0.72868270E+06</totfact>
</mgrwt>
</event>
<event>
 3    1  0.1573868E-001  0.1250000E+03  0.7546771E-02  0.1235069E+00
         21   -1    0    0  502  501  0.00000000000E+00  0.00000000000E+00  0.47034773472E+02  0.47034773472E+02  0.00000000000E+00 0. -1.
         21   -1    0    0  501  502 -0.00000000000E+00 -0.00000000000E+00 -0.83050256474E+02  0.83050256474E+02  0.00000000000E+00 0. -1.
         25    1    1    2    0    0  0.00000000000E+00  0.00000000000E+00 -0.36015483002E+02  0.13008502995E+03  0.12500000000E+03 0.  0.
<mgrwt>
<rscale>  0 0.12500000E+03</rscale>
<asrwt>0</asrwt>
<pdfrwt beam="1">  1       21 0.72361191E-02 0.12500000E+03</pdfrwt>
<pdfrwt beam="2">  1       21 0.12776962E-01 0.12500000E+03</pdfrwt>
<totfact> 0.73353553E+06</totfact>
</mgrwt>
</event>
<event>
 3    1  0.1573868E-001  0.1250000E+03  0.7546771E-02  0.1235069E+00
         21   -1    0    0  502  501  0.00000000000E+00  0.00000000000E+00  0.18310088679E+03  0.18310088679E+03  0.00000000000E+00 0.  1.
         21   -1    0    0  501  502 -0.00000000000E+00 -0.00000000000E+00 -0.21333867184E+02  0.21333867184E+02  0.00000000000E+00 0.  1.
         25    1    1    2    0    0  0.00000000000E+00  0.00000000000E+00  0.16176701960E+03  0.20443475397E+03  0.12500000000E+03 0.  0.
<mgrwt>
<rscale>  0 0.12500000E+03</rscale>
<asrwt>0</asrwt>
<pdfrwt beam="1">  1       21 0.28169366E-01 0.12500000E+03</pdfrwt>
<pdfrwt beam="2">  1       21 0.32821335E-02 0.12500000E+03</pdfrwt>
<totfact> 0.64449862E+06</totfact>
</mgrwt>
</event>
<event>
 3    1  0.1573868E-001  0.1250000E+03  0.7546771E-02  0.1235069E+00
         21   -1    0    0  502  501  0.00000000000E+00  0.00000000000E+00  0.11666550415E+02  0.11666550415E+02  0.00000000000E+00 0.  1.
         21   -1    0    0  501  502 -0.00000000000E+00 -0.00000000000E+00 -0.33482476491E+03  0.33482476491E+03  0.00000000000E+00 0.  1.
         25    1    1    2    0    0  0.00000000000E+00  0.00000000000E+00 -0.32315821450E+03  0.34649131533E+03  0.12500000000E+03 0.  0.
<mgrwt>
<rscale>  0 0.12500000E+03</rscale>
<asrwt>0</asrwt>
<pdfrwt beam="1">  1       21 0.17948542E-02 0.12500000E+03</pdfrwt>
<pdfrwt beam="2">  1       21 0.51511495E-01 0.12500000E+03</pdfrwt>
<totfact> 0.51798609E+06</totfact>
</mgrwt>
</event>
<event>
 3    1  0.1573868E-001  0.1250000E+03  0.7546771E-02  0.1235069E+00
         21   -1    0    0  502  501  0.00000000000E+00  0.00000000000E+00  0.43794834629E+02  0.43794834629E+02  0.00000000000E+00 0. -1.
         21   -1    0    0  501  502 -0.00000000000E+00 -0.00000000000E+00 -0.89194308715E+02  0.89194308715E+02  0.00000000000E+00 0. -1.
         25    1    1    2    0    0  0.00000000000E+00  0.00000000000E+00 -0.45399474086E+02  0.13298914334E+03  0.12500000000E+03 0.  0.
<mgrwt>
<rscale>  0 0.12500000E+03</rscale>
<asrwt>0</asrwt>
<pdfrwt beam="1">  1       21 0.67376669E-02 0.12500000E+03</pdfrwt>
<pdfrwt beam="2">  1       21 0.13722201E-01 0.12500000E+03</pdfrwt>
<totfact> 0.72963848E+06</totfact>
</mgrwt>
</event>
<event>
 3    1  0.1573868E-001  0.1250000E+03  0.7546771E-02  0.1235069E+00
         21   -1    0    0  502  501  0.00000000000E+00  0.00000000000E+00  0.10081864879E+02  0.10081864879E+02  0.00000000000E+00 0.  1.
         21   -1    0    0  501  502 -0.00000000000E+00 -0.00000000000E+00 -0.38745311971E+03  0.38745311971E+03  0.00000000000E+00 0.  1.
         25    1    1    2    0    0  0.00000000000E+00  0.00000000000E+00 -0.37737125483E+03  0.39753498459E+03  0.12500000000E+03 0.  0.
<mgrwt>
<rscale>  0 0.12500000E+03</rscale>
<asrwt>0</asrwt>
<pdfrwt beam="1">  1       21 0.15510560E-02 0.12500000E+03</pdfrwt>
<pdfrwt beam="2">  1       21 0.59608179E-01 0.12500000E+03</pdfrwt>
<totfact> 0.48205280E+06</totfact>
</mgrwt>
</event>
<event>
 3    1  0.1573868E-001  0.1250000E+03  0.7546771E-02  0.1235069E+00
         21   -1    0    0  502  501  0.00000000000E+00  0.00000000000E+00  0.54427621495E+03  0.54427621495E+03  0.00000000000E+00 0. -1.
         21   -1    0    0  501  502 -0.00000000000E+00 -0.00000000000E+00 -0.71769625288E+01  0.71769625288E+01  0.00000000000E+00 0. -1.
         25    1    1    2    0    0  0.00000000000E+00  0.00000000000E+00  0.53709925242E+03  0.55145317747E+03  0.12500000000E+03 0.  0.
<mgrwt>
<rscale>  0 0.12500000E+03</rscale>
<asrwt>0</asrwt>
<pdfrwt beam="1">  1       21 0.83734770E-01 0.12500000E+03</pdfrwt>
<pdfrwt beam="2">  1       21 0.11041485E-02 0.12500000E+03</pdfrwt>
<totfact> 0.39384377E+06</totfact>
</mgrwt>
</event>
<event>
 3    1  0.1573868E-001  0.1250000E+03  0.7546771E-02  0.1235069E+00
         21   -1    0    0  502  501  0.00000000000E+00  0.00000000000E+00  0.27055489352E+02  0.27055489352E+02  0.00000000000E+00 0. -1.
         21   -1    0    0  501  502 -0.00000000000E+00 -0.00000000000E+00 -0.14437920339E+03  0.14437920339E+03  0.00000000000E+00 0. -1.
         25    1    1    2    0    0  0.00000000000E+00  0.00000000000E+00 -0.11732371404E+03  0.17143469274E+03  0.12500000000E+03 0.  0.
<mgrwt>
<rscale>  0 0.12500000E+03</rscale>
<asrwt>0</asrwt>
<pdfrwt beam="1">  1       21 0.41623829E-02 0.12500000E+03</pdfrwt>
<pdfrwt beam="2">  1       21 0.22212186E-01 0.12500000E+03</pdfrwt>
<totfact> 0.68147966E+06</totfact>
</mgrwt>
</event>
<event>
 3    1  0.1573868E-001  0.1250000E+03  0.7546771E-02  0.1235069E+00
         21   -1    0    0  502  501  0.00000000000E+00  0.00000000000E+00  0.19724166058E+02  0.19724166058E+02  0.00000000000E+00 0.  1.
         21   -1    0    0  501  502 -0.00000000000E+00 -0.00000000000E+00 -0.19804386095E+03  0.19804386095E+03  0.00000000000E+00 0.  1.
         25    1    1    2    0    0  0.00000000000E+00  0.00000000000E+00 -0.17831969489E+03  0.21776802701E+03  0.12500000000E+03 0.  0.
<mgrwt>
<rscale>  0 0.12500000E+03</rscale>
<asrwt>0</asrwt>
<pdfrwt beam="1">  1       21 0.30344871E-02 0.12500000E+03</pdfrwt>
<pdfrwt beam="2">  1       21 0.30468287E-01 0.12500000E+03</pdfrwt>
<totfact> 0.63051404E+06</totfact>
</mgrwt>
</event>
<event>
 3    1  0.1573868E-001  0.1250000E+03  0.7546771E-02  0.1235069E+00
         21   -1    0    0  502  501  0.00000000000E+00  0.00000000000E+00  0.69268825063E+02  0.69268825063E+02  0.00000000000E+00 0. -1.
         21   -1    0    0  501  502 -0.00000000000E+00 -0.00000000000E+00 -0.56392612354E+02  0.56392612354E+02  0.00000000000E+00 0. -1.
         25    1    1    2    0    0  0.00000000000E+00  0.00000000000E+00  0.12876212709E+02  0.12566143742E+03  0.12500000000E+03 0.  0.
<mgrwt>
<rscale>  0 0.12500000E+03</rscale>
<asrwt>0</asrwt>
<pdfrwt beam="1">  1       21 0.10656742E-01 0.12500000E+03</pdfrwt>
<pdfrwt beam="2">  1       21 0.86757865E-02 0.12500000E+03</pdfrwt>
<totfact> 0.73952894E+06</totfact>
</mgrwt>
</event>
<event>
 3    1  0.1573868E-001  0.1250000E+03  0.7546771E-02  0.1235069E+00
         21   -1    0    0  502  501  0.00000000000E+00  0.00000000000E+00  0.27294298785E+03  0.27294298785E+03  0.00000000000E+00 0. -1.
         21   -1    0    0  501  502 -0.00000000000E+00 -0.00000000000E+00 -0.14311596831E+02  0.14311596831E+02  0.00000000000E+00 0. -1.
         25    1    1    2    0    0  0.00000000000E+00  0.00000000000E+00  0.25863139102E+03  0.28725458468E+03  0.12500000000E+03 0.  0.
<mgrwt>
<rscale>  0 0.12500000E+03</rscale>
<asrwt>0</asrwt>
<pdfrwt beam="1">  1       21 0.41991225E-01 0.12500000E+03</pdfrwt>
<pdfrwt beam="2">  1       21 0.22017843E-02 0.12500000E+03</pdfrwt>
<totfact> 0.56532286E+06</totfact>
</mgrwt>
</event>
<event>
 3    1  0.1573868E-001  0.1250000E+03  0.7546771E-02  0.1235069E+00
         21   -1    0    0  502  501  0.00000000000E+00  0.00000000000E+00  0.90490492433E+01  0.90490492433E+01  0.00000000000E+00 0. -1.
         21   -1    0    0  501  502 -0.00000000000E+00 -0.00000000000E+00 -0.43167518432E+03  0.43167518432E+03  0.00000000000E+00 0. -1.
         25    1    1    2    0    0  0.00000000000E+00  0.00000000000E+00 -0.42262613508E+03  0.44072423356E+03  0.12500000000E+03 0.  0.
<mgrwt>
<rscale>  0 0.12500000E+03</rscale>
<asrwt>0</asrwt>
<pdfrwt beam="1">  1       21 0.13921617E-02 0.12500000E+03</pdfrwt>
<pdfrwt beam="2">  1       21 0.66411552E-01 0.12500000E+03</pdfrwt>
<totfact> 0.45452469E+06</totfact>
</mgrwt>
</event>
<event>
 3    1  0.1573868E-001  0.1250000E+03  0.7546771E-02  0.1235069E+00
         21   -1    0    0  502  501  0.00000000000E+00  0.00000000000E+00  0.97182366623E+02  0.97182366623E+02  0.00000000000E+00 0. -1.
         21   -1    0    0  501  502 -0.00000000000E+00 -0.00000000000E+00 -0.40195049120E+02  0.40195049120E+02  0.00000000000E+00 0. -1.
         25    1    1    2    0    0  0.00000000000E+00  0.00000000000E+00  0.56987317504E+02  0.13737741574E+03  0.12500000000E+03 0.  0.
<mgrwt>
<rscale>  0 0.12500000E+03</rscale>
<asrwt>0</asrwt>
<pdfrwt beam="1">  1       21 0.14951133E-01 0.12500000E+03</pdfrwt>
<pdfrwt beam="2">  1       21 0.61838537E-02 0.12500000E+03</pdfrwt>
<totfact> 0.72383190E+06</totfact>
</mgrwt>
</event>
<event>
 3    1  0.1573868E-001  0.1250000E+03  0.7546771E-02  0.1235069E+00
         21   -1    0    0  502  501  0.00000000000E+00  0.00000000000E+00  0.24434530834E+03  0.24434530834E+03  0.00000000000E+00 0.  1.
         21   -1    0    0  501  502 -0.00000000000E+00 -0.00000000000E+00 -0.15986597110E+02  0.15986597110E+02  0.00000000000E+00 0.  1.
         25    1    1    2    0    0  0.00000000000E+00  0.00000000000E+00  0.22835871123E+03  0.26033190545E+03  0.12500000000E+03 0.  0.
<mgrwt>
<rscale>  0 0.12500000E+03</rscale>
<asrwt>0</asrwt>
<pdfrwt beam="1">  1       21 0.37591583E-01 0.12500000E+03</pdfrwt>
<pdfrwt beam="2">  1       21 0.24594766E-02 0.12500000E+03</pdfrwt>
<totfact> 0.58918865E+06</totfact>
</mgrwt>
</event>
<event>
 3    1  0.1573868E-001  0.1250000E+03  0.7546771E-02  0.1235069E+00
         21   -1    0    0  502  501  0.00000000000E+00  0.00000000000E+00  0.11909560296E+04  0.11909560296E+04  0.00000000000E+00 0.  1.
         21   -1    0    0  501  502 -0.00000000000E+00 -0.00000000000E+00 -0.32799279762E+01  0.32799279762E+01  0.00000000000E+00 0.  1.
         25    1    1    2    0    0  0.00000000000E+00  0.00000000000E+00  0.11876761017E+04  0.11942359576E+04  0.12500000000E+03 0.  0.
<mgrwt>
<rscale>  0 0.12500000E+03</rscale>
<asrwt>0</asrwt>
<pdfrwt beam="1">  1       21 0.18322366E+00 0.12500000E+03</pdfrwt>
<pdfrwt beam="2">  1       21 0.50460525E-03 0.12500000E+03</pdfrwt>
<totfact> 0.19258657E+06</totfact>
</mgrwt>
</event>
<event>
 3    1  0.1573868E-001  0.1250000E+03  0.7546771E-02  0.1235069E+00
         21   -1    0    0  502  501  0.00000000000E+00  0.00000000000E+00  0.60525031860E+01  0.60525031860E+01  0.00000000000E+00 0. -1.
         21   -1    0    0  501  502 -0.00000000000E+00 -0.00000000000E+00 -0.64539412537E+03  0.64539412537E+03  0.00000000000E+00 0. -1.
         25    1    1    2    0    0  0.00000000000E+00  0.00000000000E+00 -0.63934162218E+03  0.65144662855E+03  0.12500000000E+03 0.  0.
<mgrwt>
<rscale>  0 0.12500000E+03</rscale>
<asrwt>0</asrwt>
<pdfrwt beam="1">  1       21 0.93115449E-03 0.12500000E+03</pdfrwt>
<pdfrwt beam="2">  1       21 0.99291387E-01 0.12500000E+03</pdfrwt>
<totfact> 0.34864444E+06</totfact>
</mgrwt>
</event>
<event>
 3    1  0.1573868E-001  0.1250000E+03  0.7546771E-02  0.1235069E+00
         21   -1    0    0  502  501  0.00000000000E+00  0.00000000000E+00  0.58102051036E+01  0.58102051036E+01  0.00000000000E+00 0. -1.
         21   -1    0    0  501  502 -0.00000000000E+00 -0.00000000000E+00 -0.67230845218E+03  0.67230845218E+03  0.00000000000E+00 0. -1.
         25    1    1    2    0    0  0.00000000000E+00  0.00000000000E+00 -0.66649824707E+03  0.67811865728E+03  0.12500000000E+03 0.  0.
<mgrwt>
<rscale>  0 0.12500000E+03</rscale>
<asrwt>0</asrwt>
<pdfrwt beam="1">  1       21 0.89387768E-03 0.12500000E+03</pdfrwt>
<pdfrwt beam="2">  1       21 0.10343207E+00 0.12500000E+03</pdfrwt>
<totfact> 0.33770935E+06</totfact>
</mgrwt>
</event>
<event>
 3    1  0.1573868E-001  0.1250000E+03  0.7546771E-02  0.1235069E+00
         21   -1    0    0  502  501  0.00000000000E+00  0.00000000000E+00  0.18708865723E+03  0.18708865723E+03  0.00000000000E+00 0.  1.
         21   -1    0    0  501  502 -0.00000000000E+00 -0.00000000000E+00 -0.20879138574E+02  0.20879138574E+02  0.00000000000E+00 0.  1.
         25    1    1    2    0    0  0.00000000000E+00  0.00000000000E+00  0.16620951866E+03  0.20796779581E+03  0.12500000000E+03 0.  0.
<mgrwt>
<rscale>  0 0.12500000E+03</rscale>
<asrwt>0</asrwt>
<pdfrwt beam="1">  1       21 0.28782869E-01 0.12500000E+03</pdfrwt>
<pdfrwt beam="2">  1       21 0.32121753E-02 0.12500000E+03</pdfrwt>
<totfact> 0.64073983E+06</totfact>
</mgrwt>
</event>
<event>
 3    1  0.1573868E-001  0.1250000E+03  0.7546771E-02  0.1235069E+00
         21   -1    0    0  502  501  0.00000000000E+00  0.00000000000E+00  0.14262634276E+03  0.14262634276E+03  0.00000000000E+00 0. -1.
         21   -1    0    0  501  502 -0.00000000000E+00 -0.00000000000E+00 -0.27387998069E+02  0.27387998069E+02  0.00000000000E+00 0. -1.
         25    1    1    2    0    0  0.00000000000E+00  0.00000000000E+00  0.11523834469E+03  0.17001434083E+03  0.12500000000E+03 0.  0.
<mgrwt>
<rscale>  0 0.12500000E+03</rscale>
<asrwt>0</asrwt>
<pdfrwt beam="1">  1       21 0.21942514E-01 0.12500000E+03</pdfrwt>
<pdfrwt beam="2">  1       21 0.42135382E-02 0.12500000E+03</pdfrwt>
<totfact> 0.68315935E+06</totfact>
</mgrwt>
</event>
<event>
 3    1  0.1573868E-001  0.1250000E+03  0.7546771E-02  0.1235069E+00
         21   -1    0    0  502  501  0.00000000000E+00  0.00000000000E+00  0.66841048840E+02  0.66841048840E+02  0.00000000000E+00 0.  1.
         21   -1    0    0  501  502 -0.00000000000E+00 -0.00000000000E+00 -0.58440884274E+02  0.58440884274E+02  0.00000000000E+00 0.  1.
         25    1    1    2    0    0  0.00000000000E+00  0.00000000000E+00  0.84001645660E+01  0.12528193311E+03  0.12500000000E+03 0.  0.
<mgrwt>
<rscale>  0 0.12500000E+03</rscale>
<asrwt>0</asrwt>
<pdfrwt beam="1">  1       21 0.10283238E-01 0.12500000E+03</pdfrwt>
<pdfrwt beam="2">  1       21 0.89909052E-02 0.12500000E+03</pdfrwt>
<totfact> 0.74005510E+06</totfact>
</mgrwt>
</event>
<event>
 3    1  0.1573868E-001  0.1250000E+03  0.7546771E-02  0.1235069E+00
         21   -1    0    0  502  501  0.00000000000E+00  0.00000000000E+00  0.30684372125E+02  0.30684372125E+02  0.00000000000E+00 0. -1.
         21   -1    0    0  501  502 -0.00000000000E+00 -0.00000000000E+00 -0.12730421806E+03  0.12730421806E+03  0.00000000000E+00 0. -1.
         25    1    1    2    0    0  0.00000000000E+00  0.00000000000E+00 -0.96619845932E+02  0.15798859018E+03  0.12500000000E+03 0.  0.
<mgrwt>
<rscale>  0 0.12500000E+03</rscale>
<asrwt>0</asrwt>
<pdfrwt beam="1">  1       21 0.47206726E-02 0.12500000E+03</pdfrwt>
<pdfrwt beam="2">  1       21 0.19585264E-01 0.12500000E+03</pdfrwt>
<totfact> 0.69766107E+06</totfact>
</mgrwt>
</event>
<event>
 3    1  0.1573868E-001  0.1250000E+03  0.7546771E-02  0.1235069E+00
         21   -1    0    0  502  501  0.00000000000E+00  0.00000000000E+00  0.19429330044E+02  0.19429330044E+02  0.00000000000E+00 0.  1.
         21   -1    0    0  501  502 -0.00000000000E+00 -0.00000000000E+00 -0.20104913505E+03  0.20104913505E+03  0.00000000000E+00 0.  1.
         25    1    1    2    0    0  0.00000000000E+00  0.00000000000E+00 -0.18161980501E+03  0.22047846510E+03  0.12500000000E+03 0.  0.
<mgrwt>
<rscale>  0 0.12500000E+03</rscale>
<asrwt>0</asrwt>
<pdfrwt beam="1">  1       21 0.29891277E-02 0.12500000E+03</pdfrwt>
<pdfrwt beam="2">  1       21 0.30930636E-01 0.12500000E+03</pdfrwt>
<totfact> 0.62773663E+06</totfact>
</mgrwt>
</event>
<event>
 3    1  0.1573868E-001  0.1250000E+03  0.7546771E-02  0.1235069E+00
         21   -1    0    0  502  501  0.00000000000E+00  0.00000000000E+00  0.21885638273E+02  0.21885638273E+02  0.00000000000E+00 0.  1.
         21   -1    0    0  501  502 -0.00000000000E+00 -0.00000000000E+00 -0.17848462774E+03  0.17848462774E+03  0.00000000000E+00 0.  1.
         25    1    1    2    0    0  0.00000000000E+00  0.00000000000E+00 -0.15659898947E+03  0.20037026602E+03  0.12500000000E+03 0.  0.
<mgrwt>
<rscale>  0 0.12500000E+03</rscale>
<asrwt>0</asrwt>
<pdfrwt beam="1">  1       21 0.33670213E-02 0.12500000E+03</pdfrwt>
<pdfrwt beam="2">  1       21 0.27459173E-01 0.12500000E+03</pdfrwt>
<totfact> 0.64887154E+06</totfact>
</mgrwt>
</event>
<event>
 3    1  0.1573868E-001  0.1250000E+03  0.7546771E-02  0.1235069E+00
         21   -1    0    0  502  501  0.00000000000E+00  0.00000000000E+00  0.15464050183E+03  0.15464050183E+03  0.00000000000E+00 0.  1.
         21   -1    0    0  501  502 -0.00000000000E+00 -0.00000000000E+00 -0.25260199972E+02  0.25260199972E+02  0.00000000000E+00 0.  1.
         25    1    1    2    0    0  0.00000000000E+00  0.00000000000E+00  0.12938030186E+03  0.17990070180E+03  0.12500000000E+03 0.  0.
<mgrwt>
<rscale>  0 0.12500000E+03</rscale>
<asrwt>0</asrwt>
<pdfrwt beam="1">  1       21 0.23790846E-01 0.12500000E+03</pdfrwt>
<pdfrwt beam="2">  1       21 0.38861847E-02 0.12500000E+03</pdfrwt>
<totfact> 0.67162930E+06</totfact>
</mgrwt>
</event>
<event>
 3    1  0.1573868E-001  0.1250000E+03  0.7546771E-02  0.1235069E+00
         21   -1    0    0  502  501  0.00000000000E+00  0.00000000000E+00  0.48746654567E+03  0.48746654567E+03  0.00000000000E+00 0. -1.
         21   -1    0    0  501  502 -0.00000000000E+00 -0.00000000000E+00 -0.80133704244E+01  0.80133704244E+01  0.00000000000E+00 0. -1.
         25    1    1    2    0    0  0.00000000000E+00  0.00000000000E+00  0.47945317525E+03  0.49547991610E+03  0.12500000000E+03 0.  0.
<mgrwt>
<rscale>  0 0.12500000E+03</rscale>
<asrwt>0</asrwt>
<pdfrwt beam="1">  1       21 0.74994830E-01 0.12500000E+03</pdfrwt>
<pdfrwt beam="2">  1       21 0.12328266E-02 0.12500000E+03</pdfrwt>
<totfact> 0.42290278E+06</totfact>
</mgrwt>
</event>
<event>
 3    1  0.1573868E-001  0.1250000E+03  0.7546771E-02  0.1235069E+00
         21   -1    0    0  502  501  0.00000000000E+00  0.00000000000E+00  0.13671005821E+03  0.13671005821E+03  0.00000000000E+00 0.  1.
         21   -1    0    0  501  502 -0.00000000000E+00 -0.00000000000E+00 -0.28573245093E+02  0.28573245093E+02  0.00000000000E+00 0.  1.
         25    1    1    2    0    0  0.00000000000E+00  0.00000000000E+00  0.10813681312E+03  0.16528330331E+03  0.12500000000E+03 0.  0.
<mgrwt>
<rscale>  0 0.12500000E+03</rscale>
<asrwt>0</asrwt>
<pdfrwt beam="1">  1       21 0.21032316E-01 0.12500000E+03</pdfrwt>
<pdfrwt beam="2">  1       21 0.43958839E-02 0.12500000E+03</pdfrwt>
<totfact> 0.68879627E+06</totfact>
</mgrwt>
</event>
<event>
 3    1  0.1573868E-001  0.1250000E+03  0.7546771E-02  0.1235069E+00
         21   -1    0    0  502  501  0.00000000000E+00  0.00000000000E+00  0.17656007675E+03  0.17656007675E+03  0.00000000000E+00 0. -1.
         21   -1    0    0  501  502 -0.00000000000E+00 -0.00000000000E+00 -0.22124197451E+02  0.22124197451E+02  0.00000000000E+00 0. -1.
         25    1    1    2    0    0  0.00000000000E+00  0.00000000000E+00  0.15443587930E+03  0.19868427420E+03  0.12500000000E+03 0.  0.
<mgrwt>
<rscale>  0 0.12500000E+03</rscale>
<asrwt>0</asrwt>
<pdfrwt beam="1">  1       21 0.27163088E-01 0.12500000E+03</pdfrwt>
<pdfrwt beam="2">  1       21 0.34037228E-02 0.12500000E+03</pdfrwt>
<totfact> 0.65070028E+06</totfact>
</mgrwt>
</event>
<event>
 3    1  0.1573868E-001  0.1250000E+03  0.7546771E-02  0.1235069E+00
         21   -1    0    0  502  501  0.00000000000E+00  0.00000000000E+00  0.29459165494E+02  0.29459165494E+02  0.00000000000E+00 0. -1.
         21   -1    0    0  501  502 -0.00000000000E+00 -0.00000000000E+00 -0.13259880022E+03  0.13259880022E+03  0.00000000000E+00 0. -1.
         25    1    1    2    0    0  0.00000000000E+00  0.00000000000E+00 -0.10313963472E+03  0.16205796571E+03  0.12500000000E+03 0.  0.
<mgrwt>
<rscale>  0 0.12500000E+03</rscale>
<asrwt>0</asrwt>
<pdfrwt beam="1">  1       21 0.45321792E-02 0.12500000E+03</pdfrwt>
<pdfrwt beam="2">  1       21 0.20399816E-01 0.12500000E+03</pdfrwt>
<totfact> 0.69268905E+06</totfact>
</mgrwt>
</event>
<event>
 3    1  0.1573868E-001  0.1250000E+03  0.7546771E-02  0.1235069E+00
         21   -1    0    0  502  501  0.00000000000E+00  0.00000000000E+00  0.50913699274E+02  0.50913699274E+02  0.00000000000E+00 0. -1.
         21   -1    0    0  501  502 -0.00000000000E+00 -0.00000000000E+00 -0.76722965639E+02  0.76722965639E+02  0.00000000000E+00 0. -1.
         25    1    1    2    0    0  0.00000000000E+00  0.00000000000E+00 -0.25809266365E+02  0.12763666491E+03  0.12500000000E+03 0.  0.
<mgrwt>
<rscale>  0 0.12500000E+03</rscale>
<asrwt>0</asrwt>
<pdfrwt beam="1">  1       21 0.78328768E-02 0.12500000E+03</pdfrwt>
<pdfrwt beam="2">  1       21 0.11803533E-01 0.12500000E+03</pdfrwt>
<totfact> 0.73682701E+06</totfact>
</mgrwt>
</event>
<event>
 3    1  0.1573868E-001  0.1250000E+03  0.7546771E-02  0.1235069E+00
         21   -1    0    0  502  501  0.00000000000E+00  0.00000000000E+00  0.47582971963E+01  0.47582971963E+01  0.00000000000E+00 0. -1.
         21   -1    0    0  501  502 -0.00000000000E+00 -0.00000000000E+00 -0.82093443071E+03  0.82093443071E+03  0.00000000000E+00 0. -1.
         25    1    1    2    0    0  0.00000000000E+00  0.00000000000E+00 -0.81617613351E+03  0.82569272791E+03  0.12500000000E+03 0.  0.
<mgrwt>
<rscale>  0 0.12500000E+03</rscale>
<asrwt>0</asrwt>
<pdfrwt beam="1">  1       21 0.73204634E-03 0.12500000E+03</pdfrwt>
<pdfrwt beam="2">  1       21 0.12629750E+00 0.12500000E+03</pdfrwt>
<totfact> 0.28529088E+06</totfact>
</mgrwt>
</event>
<event>
 3    1  0.1573868E-001  0.1250000E+03  0.7546771E-02  0.1235069E+00
         21   -1    0    0  502  501  0.00000000000E+00  0.00000000000E+00  0.80053848413E+01  0.80053848413E+01  0.00000000000E+00 0.  1.
         21   -1    0    0  501  502 -0.00000000000E+00 -0.00000000000E+00 -0.48795280645E+03  0.48795280645E+03  0.00000000000E+00 0.  1.
         25    1    1    2    0    0  0.00000000000E+00  0.00000000000E+00 -0.47994742161E+03  0.49595819129E+03  0.12500000000E+03 0.  0.
<mgrwt>
<rscale>  0 0.12500000E+03</rscale>
<asrwt>0</asrwt>
<pdfrwt beam="1">  1       21 0.12315973E-02 0.12500000E+03</pdfrwt>
<pdfrwt beam="2">  1       21 0.75069686E-01 0.12500000E+03</pdfrwt>
<totfact> 0.42264110E+06</totfact>
</mgrwt>
</event>
<event>
 3    1  0.1573868E-001  0.1250000E+03  0.7546771E-02  0.1235069E+00
         21   -1    0    0  502  501  0.00000000000E+00  0.00000000000E+00  0.26447505877E+02  0.26447505877E+02  0.00000000000E+00 0.  1.
         21   -1    0    0  501  502 -0.00000000000E+00 -0.00000000000E+00 -0.14769823734E+03  0.14769823734E+03  0.00000000000E+00 0.  1.
         25    1    1    2    0    0  0.00000000000E+00  0.00000000000E+00 -0.12125073146E+03  0.17414574321E+03  0.12500000000E+03 0.  0.
<mgrwt>
<rscale>  0 0.12500000E+03</rscale>
<asrwt>0</asrwt>
<pdfrwt beam="1">  1       21 0.40688471E-02 0.12500000E+03</pdfrwt>
<pdfrwt beam="2">  1       21 0.22722806E-01 0.12500000E+03</pdfrwt>
<totfact> 0.67829548E+06</totfact>
</mgrwt>
</event>
<event>
 3    1  0.1573868E-001  0.1250000E+03  0.7546771E-02  0.1235069E+00
         21   -1    0    0  502  501  0.00000000000E+00  0.00000000000E+00  0.66916543592E+02  0.66916543592E+02  0.00000000000E+00 0.  1.
         21   -1    0    0  501  502 -0.00000000000E+00 -0.00000000000E+00 -0.58374951698E+02  0.58374951698E+02  0.00000000000E+00 0.  1.
         25    1    1    2    0    0  0.00000000000E+00  0.00000000000E+00  0.85415918937E+01  0.12529149529E+03  0.12500000000E+03 0.  0.
<mgrwt>
<rscale>  0 0.12500000E+03</rscale>
<asrwt>0</asrwt>
<pdfrwt beam="1">  1       21 0.10294853E-01 0.12500000E+03</pdfrwt>
<pdfrwt beam="2">  1       21 0.89807617E-02 0.12500000E+03</pdfrwt>
<totfact> 0.74004220E+06</totfact>
</mgrwt>
</event>
<event>
 3    1  0.1573868E-001  0.1250000E+03  0.7546771E-02  0.1235069E+00
         21   -1    0    0  502  501  0.00000000000E+00  0.00000000000E+00  0.11940147387E+02  0.11940147387E+02  0.00000000000E+00 0. -1.
         21   -1    0    0  501  502 -0.00000000000E+00 -0.00000000000E+00 -0.32715257804E+03  0.32715257804E+03  0.00000000000E+00 0. -1.
         25    1    1    2    0    0  0.00000000000E+00  0.00000000000E+00 -0.31521243066E+03  0.33909272543E+03  0.12500000000E+03 0.  0.
<mgrwt>
<rscale>  0 0.12500000E+03</rscale>
<asrwt>0</asrwt>
<pdfrwt beam="1">  1       21 0.18369457E-02 0.12500000E+03</pdfrwt>
<pdfrwt beam="2">  1       21 0.50331168E-01 0.12500000E+03</pdfrwt>
<totfact> 0.52354192E+06</totfact>
</mgrwt>
</event>
<event>
 3    1  0.1573868E-001  0.1250000E+03  0.7546771E-02  0.1235069E+00
         21   -1    0    0  502  501  0.00000000000E+00  0.00000000000E+00  0.17554250246E+02  0.17554250246E+02  0.00000000000E+00 0. -1.
         21   -1    0    0  501  502 -0.00000000000E+00 -0.00000000000E+00 -0.22252445677E+03  0.22252445677E+03  0.00000000000E+00 0. -1.
         25    1    1    2    0    0  0.00000000000E+00  0.00000000000E+00 -0.20497020653E+03  0.24007870702E+03  0.12500000000E+03 0.  0.
<mgrwt>
<rscale>  0 0.12500000E+03</rscale>
<asrwt>0</asrwt>
<pdfrwt beam="1">  1       21 0.27006540E-02 0.12500000E+03</pdfrwt>
<pdfrwt beam="2">  1       21 0.34234530E-01 0.12500000E+03</pdfrwt>
<totfact> 0.60825048E+06</totfact>
</mgrwt>
</event>
<event>
 3    1  0.1573868E-001  0.1250000E+03  0.7546771E-02  0.1235069E+00
         21   -1    0    0  502  501  0.00000000000E+00  0.00000000000E+00  0.56086240611E+02  0.56086240611E+02  0.00000000000E+00 0.  1.
         21   -1    0    0  501  502 -0.00000000000E+00 -0.00000000000E+00 -0.69647206827E+02  0.69647206827E+02  0.00000000000E+00 0.  1.
         25    1    1    2    0    0  0.00000000000E+00  0.00000000000E+00 -0.13560966215E+02  0.12573344744E+03  0.12500000000E+03 0.  0.
<mgrwt>
<rscale>  0 0.12500000E+03</rscale>
<asrwt>0</asrwt>
<pdfrwt beam="1">  1       21 0.86286524E-02 0.12500000E+03</pdfrwt>
<pdfrwt beam="2">  1       21 0.10714955E-01 0.12500000E+03</pdfrwt>
<totfact> 0.73942895E+06</totfact>
</mgrwt>
</event>
<event>
 3    1  0.1573868E-001  0.1250000E+03  0.7546771E-02  0.1235069E+00
         21   -1    0    0  502  501  0.00000000000E+00  0.00000000000E+00  0.45097339239E+02  0.45097339239E+02  0.00000000000E+00 0. -1.
         21   -1    0    0  501  502 -0.00000000000E+00 -0.00000000000E+00 -0.86618192247E+02  0.86618192247E+02  0.00000000000E+00 0. -1.
         25    1    1    2    0    0  0.00000000000E+00  0.00000000000E+00 -0.41520853008E+02  0.13171553149E+03  0.12500000000E+03 0.  0.
<mgrwt>
<rscale>  0 0.12500000E+03</rscale>
<asrwt>0</asrwt>
<pdfrwt beam="1">  1       21 0.69380523E-02 0.12500000E+03</pdfrwt>
<pdfrwt beam="2">  1       21 0.13325876E-01 0.12500000E+03</pdfrwt>
<totfact> 0.73134410E+06</totfact>
</mgrwt>
</event>
<event>
 3    1  0.1573868E-001  0.1250000E+03  0.7546771E-02  0.1235069E+00
         21   -1    0    0  502  501  0.00000000000E+00  0.00000000000E+00  0.28012492490E+01  0.28012492490E+01  0.00000000000E+00 0.  1.
         21   -1    0    0  501  502 -0.00000000000E+00 -0.00000000000E+00 -0.13944671297E+04  0.13944671297E+04  0.00000000000E+00 0.  1.
         25    1    1    2    0    0  0.00000000000E+00  0.00000000000E+00 -0.13916658805E+04  0.13972683790E+04  0.12500000000E+03 0.  0.
<mgrwt>
<rscale>  0 0.12500000E+03</rscale>
<asrwt>0</asrwt>
<pdfrwt beam="1">  1       21 0.43096062E-03 0.12500000E+03</pdfrwt>
<pdfrwt beam="2">  1       21 0.21453380E+00 0.12500000E+03</pdfrwt>
<totfact> 0.15589252E+06</totfact>
</mgrwt>
</event>
<event>
 3    1  0.1573868E-001  0.1250000E+03  0.7546771E-02  0.1235069E+00
         21   -1    0    0  502  501  0.00000000000E+00  0.00000000000E+00  0.36599690843E+02  0.36599690843E+02  0.00000000000E+00 0.  1.
         21   -1    0    0  501  502 -0.00000000000E+00 -0.00000000000E+00 -0.10672904361E+03  0.10672904361E+03  0.00000000000E+00 0.  1.
         25    1    1    2    0    0  0.00000000000E+00  0.00000000000E+00 -0.70129352765E+02  0.14332873445E+03  0.12500000000E+03 0.  0.
<mgrwt>
<rscale>  0 0.12500000E+03</rscale>
<asrwt>0</asrwt>
<pdfrwt beam="1">  1       21 0.56307217E-02 0.12500000E+03</pdfrwt>
<pdfrwt beam="2">  1       21 0.16419853E-01 0.12500000E+03</pdfrwt>
<totfact> 0.71607672E+06</totfact>
</mgrwt>
</event>
<event>
 3    1  0.1573868E-001  0.1250000E+03  0.7546771E-02  0.1235069E+00
         21   -1    0    0  502  501  0.00000000000E+00  0.00000000000E+00  0.24349833409E+02  0.24349833409E+02  0.00000000000E+00 0. -1.
         21   -1    0    0  501  502 -0.00000000000E+00 -0.00000000000E+00 -0.16042204209E+03  0.16042204209E+03  0.00000000000E+00 0. -1.
         25    1    1    2    0    0  0.00000000000E+00  0.00000000000E+00 -0.13607220868E+03  0.18477187550E+03  0.12500000000E+03 0.  0.
<mgrwt>
<rscale>  0 0.12500000E+03</rscale>
<asrwt>0</asrwt>
<pdfrwt beam="1">  1       21 0.37461282E-02 0.12500000E+03</pdfrwt>
<pdfrwt beam="2">  1       21 0.24680314E-01 0.12500000E+03</pdfrwt>
<totfact> 0.66608293E+06</totfact>
</mgrwt>
</event>
<event>
 3    1  0.1573868E-001  0.1250000E+03  0.7546771E-02  0.1235069E+00
         21   -1    0    0  502  501  0.00000000000E+00  0.00000000000E+00  0.37168173409E+02  0.37168173409E+02  0.00000000000E+00 0.  1.
         21   -1    0    0  501  502 -0.00000000000E+00 -0.00000000000E+00 -0.10509663623E+03  0.10509663623E+03  0.00000000000E+00 0.  1.
         25    1    1    2    0    0  0.00000000000E+00  0.00000000000E+00 -0.67928462819E+02  0.14226480964E+03  0.12500000000E+03 0.  0.
<mgrwt>
<rscale>  0 0.12500000E+03</rscale>
<asrwt>0</asrwt>
<pdfrwt beam="1">  1       21 0.57181806E-02 0.12500000E+03</pdfrwt>
<pdfrwt beam="2">  1       21 0.16168713E-01 0.12500000E+03</pdfrwt>
<totfact> 0.71745004E+06</totfact>
</mgrwt>
</event>
<event>
 3    1  0.1573868E-001  0.1250000E+03  0.7546771E-02  0.1235069E+00
         21   -1    0    0  502  501  0.00000000000E+00  0.00000000000E+00  0.48085463453E+03  0.48085463453E+03  0.00000000000E+00 0. -1.
         21   -1    0    0  501  502 -0.00000000000E+00 -0.00000000000E+00 -0.81235569328E+01  0.81235569328E+01  0.00000000000E+00 0. -1.
         25    1    1    2    0    0  0.00000000000E+00  0.00000000000E+00  0.47273107760E+03  0.48897819146E+03  0.12500000000E+03 0.  0.
<mgrwt>
<rscale>  0 0.12500000E+03</rscale>
<asrwt>0</asrwt>
<pdfrwt beam="1">  1       21 0.73977613E-01 0.12500000E+03</pdfrwt>
<pdfrwt beam="2">  1       21 0.12497784E-02 0.12500000E+03</pdfrwt>
<totfact> 0.42648193E+06</totfact>
</mgrwt>
</event>
<event>
 3    1  0.1573868E-001  0.1250000E+03  0.7546771E-02  0.1235069E+00
         21   -1    0    0  502  501  0.00000000000E+00  0.00000000000E+00  0.49024606670E+02  0.49024606670E+02  0.00000000000E+00 0. -1.
         21   -1    0    0  501  502 -0.00000000000E+00 -0.00000000000E+00 -0.79679374611E+02  0.79679374611E+02  0.00000000000E+00 0. -1.
         25    1    1    2    0    0  0.00000000000E+00  0.00000000000E+00 -0.30654767941E+02  0.12870398128E+03  0.12500000000E+03 0.  0.
<mgrwt>
<rscale>  0 0.12500000E+03</rscale>
<asrwt>0</asrwt>
<pdfrwt beam="1">  1       21 0.75422472E-02 0.12500000E+03</pdfrwt>
<pdfrwt beam="2">  1       21 0.12258365E-01 0.12500000E+03</pdfrwt>
<totfact> 0.73538668E+06</totfact>
</mgrwt>
</event>
<event>
 3    1  0.1573868E-001  0.1250000E+03  0.7546771E-02  0.1235069E+00
         21   -1    0    0  502  501  0.00000000000E+00  0.00000000000E+00  0.55914584674E+03  0.55914584674E+03  0.00000000000E+00 0. -1.
         21   -1    0    0  501  502 -0.00000000000E+00 -0.00000000000E+00 -0.69861021463E+01  0.69861021463E+01  0.00000000000E+00 0. -1.
         25    1    1    2    0    0  0.00000000000E+00  0.00000000000E+00  0.55215974459E+03  0.56613194888E+03  0.12500000000E+03 0.  0.
<mgrwt>
<rscale>  0 0.12500000E+03</rscale>
<asrwt>0</asrwt>
<pdfrwt beam="1">  1       21 0.86022403E-01 0.12500000E+03</pdfrwt>
<pdfrwt beam="2">  1       21 0.10747854E-02 0.12500000E+03</pdfrwt>
<totfact> 0.38670489E+06</totfact>
</mgrwt>
</event>
<event>
 3    1  0.1573868E-001  0.1250000E+03  0.7546771E-02  0.1235069E+00
         21   -1    0    0  502  501  0.00000000000E+00  0.00000000000E+00  0.26010958853E+02  0.26010958853E+02  0.00000000000E+00 0.  1.
         21   -1    0    0  501  502 -0.00000000000E+00 -0.00000000000E+00 -0.15017708582E+03  0.15017708582E+03  0.00000000000E+00 0.  1.
         25    1    1    2    0    0  0.00000000000E+00  0.00000000000E+00 -0.12416612697E+03  0.17618804468E+03  0.12500000000E+03 0.  0.
<mgrwt>
<rscale>  0 0.12500000E+03</rscale>
<asrwt>0</asrwt>
<pdfrwt beam="1">  1       21 0.40016860E-02 0.12500000E+03</pdfrwt>
<pdfrwt beam="2">  1       21 0.23104167E-01 0.12500000E+03</pdfrwt>
<totfact> 0.67591545E+06</totfact>
</mgrwt>
</event>
<event>
 3    1  0.1573868E-001  0.1250000E+03  0.7546771E-02  0.1235069E+00
         21   -1    0    0  502  501  0.00000000000E+00  0.00000000000E+00  0.13726519265E+03  0.13726519265E+03  0.00000000000E+00 0.  1.
         21   -1    0    0  501  502 -0.00000000000E+00 -0.00000000000E+00 -0.28457687814E+02  0.28457687814E+02  0.00000000000E+00 0.  1.
         25    1    1    2    0    0  0.00000000000E+00  0.00000000000E+00  0.10880750483E+03  0.16572288046E+03  0.12500000000E+03 0.  0.
<mgrwt>
<rscale>  0 0.12500000E+03</rscale>
<asrwt>0</asrwt>
<pdfrwt beam="1">  1       21 0.21117722E-01 0.12500000E+03</pdfrwt>
<pdfrwt beam="2">  1       21 0.43781059E-02 0.12500000E+03</pdfrwt>
<totfact> 0.68826895E+06</totfact>
</mgrwt>
</event>
<event>
 3    1  0.1573868E-001  0.1250000E+03  0.7546771E-02  0.1235069E+00
         21   -1    0    0  502  501  0.00000000000E+00  0.00000000000E+00  0.16738726516E+02  0.16738726516E+02  0.00000000000E+00 0.  1.
         21   -1    0    0  501  502 -0.00000000000E+00 -0.00000000000E+00 -0.23336602078E+03  0.23336602078E+03  0.00000000000E+00 0.  1.
         25    1    1    2    0    0  0.00000000000E+00  0.00000000000E+00 -0.21662729426E+03  0.25010474730E+03  0.12500000000E+03 0.  0.
<mgrwt>
<rscale>  0 0.12500000E+03</rscale>
<asrwt>0</asrwt>
<pdfrwt beam="1">  1       21 0.25751888E-02 0.12500000E+03</pdfrwt>
<pdfrwt beam="2">  1       21 0.35902463E-01 0.12500000E+03</pdfrwt>
<totfact> 0.59868329E+06</totfact>
</mgrwt>
</event>
<event>
 3    1  0.1573868E-001  0.1250000E+03  0.7546771E-02  0.1235069E+00
         21   -1    0    0  502  501  0.00000000000E+00  0.00000000000E+00  0.11514281014E+03  0.11514281014E+03  0.00000000000E+00 0.  1.
         21   -1    0    0  501  502 -0.00000000000E+00 -0.00000000000E+00 -0.33925261988E+02  0.33925261988E+02  0.00000000000E+00 0.  1.
         25    1    1    2    0    0  0.00000000000E+00  0.00000000000E+00  0.81217548152E+02  0.14906807213E+03  0.12500000000E+03 0.  0.
<mgrwt>
<rscale>  0 0.12500000E+03</rscale>
<asrwt>0</asrwt>
<pdfrwt beam="1">  1       21 0.17714278E-01 0.12500000E+03</pdfrwt>
<pdfrwt beam="2">  1       21 0.52192711E-02 0.12500000E+03</pdfrwt>
<totfact> 0.70876465E+06</totfact>
</mgrwt>
</event>
<event>
 3    1  0.1573868E-001  0.1250000E+03  0.7546771E-02  0.1235069E+00
         21   -1    0    0  502  501  0.00000000000E+00  0.00000000000E+00  0.21844217513E+03  0.21844217513E+03  0.00000000000E+00 0.  1.
         21   -1    0    0  501  502 -0.00000000000E+00 -0.00000000000E+00 -0.17882306828E+02  0.17882306828E+02  0.00000000000E+00 0.  1.
         25    1    1    2    0    0  0.00000000000E+00  0.00000000000E+00  0.20055986830E+03  0.23632448196E+03  0.12500000000E+03 0.  0.
<mgrwt>
<rscale>  0 0.12500000E+03</rscale>
<asrwt>0</asrwt>
<pdfrwt beam="1">  1       21 0.33606487E-01 0.12500000E+03</pdfrwt>
<pdfrwt beam="2">  1       21 0.27511243E-02 0.12500000E+03</pdfrwt>
<totfact> 0.61190159E+06</totfact>
</mgrwt>
</event>
<event>
 3    1  0.1573868E-001  0.1250000E+03  0.7546771E-02  0.1235069E+00
         21   -1    0    0  502  501  0.00000000000E+00  0.00000000000E+00  0.10541189039E+03  0.10541189039E+03  0.00000000000E+00 0.  1.
         21   -1    0    0  501  502 -0.00000000000E+00 -0.00000000000E+00 -0.37057014968E+02  0.37057014968E+02  0.00000000000E+00 0.  1.
         25    1    1    2    0    0  0.00000000000E+00  0.00000000000E+00  0.68354875424E+02  0.14246890536E+03  0.12500000000E+03 0.  0.
<mgrwt>
<rscale>  0 0.12500000E+03</rscale>
<asrwt>0</asrwt>
<pdfrwt beam="1">  1       21 0.16217214E-01 0.12500000E+03</pdfrwt>
<pdfrwt beam="2">  1       21 0.57010793E-02 0.12500000E+03</pdfrwt>
<totfact> 0.71718614E+06</totfact>
</mgrwt>
</event>
<event>
 3    1  0.1573868E-001  0.1250000E+03  0.7546771E-02  0.1235069E+00
         21   -1    0    0  502  501  0.00000000000E+00  0.00000000000E+00  0.45905992867E+03  0.45905992867E+03  0.00000000000E+00 0.  1.
         21   -1    0    0  501  502 -0.00000000000E+00 -0.00000000000E+00 -0.85092375876E+01  0.85092375876E+01  0.00000000000E+00 0.  1.
         25    1    1    2    0    0  0.00000000000E+00  0.00000000000E+00  0.45055069108E+03  0.46756916626E+03  0.12500000000E+03 0.  0.
<mgrwt>
<rscale>  0 0.12500000E+03</rscale>
<asrwt>0</asrwt>
<pdfrwt beam="1">  1       21 0.70624585E-01 0.12500000E+03</pdfrwt>
<pdfrwt beam="2">  1       21 0.13091138E-02 0.12500000E+03</pdfrwt>
<totfact> 0.43859304E+06</totfact>
</mgrwt>
</event>
<event>
 3    1  0.1573868E-001  0.1250000E+03  0.7546771E-02  0.1235069E+00
         21   -1    0    0  502  501  0.00000000000E+00  0.00000000000E+00  0.76220304085E+02  0.76220304085E+02  0.00000000000E+00 0. -1.
         21   -1    0    0  501  502 -0.00000000000E+00 -0.00000000000E+00 -0.51249467539E+02  0.51249467539E+02  0.00000000000E+00 0. -1.
         25    1    1    2    0    0  0.00000000000E+00  0.00000000000E+00  0.24970836545E+02  0.12746977162E+03  0.12500000000E+03 0.  0.
<mgrwt>
<rscale>  0 0.12500000E+03</rscale>
<asrwt>0</asrwt>
<pdfrwt beam="1">  1       21 0.11726201E-01 0.12500000E+03</pdfrwt>
<pdfrwt beam="2">  1       21 0.78845335E-02 0.12500000E+03</pdfrwt>
<totfact> 0.73705316E+06</totfact>
</mgrwt>
</event>
<event>
 3    1  0.1573868E-001  0.1250000E+03  0.7546771E-02  0.1235069E+00
         21   -1    0    0  502  501  0.00000000000E+00  0.00000000000E+00  0.14869881030E+04  0.14869881030E+04  0.00000000000E+00 0. -1.
         21   -1    0    0  501  502 -0.00000000000E+00 -0.00000000000E+00 -0.26269544404E+01  0.26269544404E+01  0.00000000000E+00 0. -1.
         25    1    1    2    0    0  0.00000000000E+00  0.00000000000E+00  0.14843611486E+04  0.14896150575E+04  0.12500000000E+03 0.  0.
<mgrwt>
<rscale>  0 0.12500000E+03</rscale>
<asrwt>0</asrwt>
<pdfrwt beam="1">  1       21 0.22876673E+00 0.12500000E+03</pdfrwt>
<pdfrwt beam="2">  1       21 0.40414803E-03 0.12500000E+03</pdfrwt>
<totfact> 0.14148040E+06</totfact>
</mgrwt>
</event>
<event>
 3    1  0.1573868E-001  0.1250000E+03  0.7546771E-02  0.1235069E+00
         21   -1    0    0  502  501  0.00000000000E+00  0.00000000000E+00  0.11880107145E+03  0.11880107145E+03  0.00000000000E+00 0.  1.
         21   -1    0    0  501  502 -0.00000000000E+00 -0.00000000000E+00 -0.32880595708E+02  0.32880595708E+02  0.00000000000E+00 0.  1.
         25    1    1    2    0    0  0.00000000000E+00  0.00000000000E+00  0.85920475743E+02  0.15168166716E+03  0.12500000000E+03 0.  0.
<mgrwt>
<rscale>  0 0.12500000E+03</rscale>
<asrwt>0</asrwt>
<pdfrwt beam="1">  1       21 0.18277088E-01 0.12500000E+03</pdfrwt>
<pdfrwt beam="2">  1       21 0.50585532E-02 0.12500000E+03</pdfrwt>
<totfact> 0.70548587E+06</totfact>
</mgrwt>
</event>
<event>
 3    1  0.1573868E-001  0.1250000E+03  0.7546771E-02  0.1235069E+00
         21   -1    0    0  502  501  0.00000000000E+00  0.00000000000E+00  0.83742909778E+02  0.83742909778E+02  0.00000000000E+00 0.  1.
         21   -1    0    0  501  502 -0.00000000000E+00 -0.00000000000E+00 -0.46645740044E+02  0.46645740044E+02  0.00000000000E+00 0.  1.
         25    1    1    2    0    0  0.00000000000E+00  0.00000000000E+00  0.37097169734E+02  0.13038864982E+03  0.12500000000E+03 0.  0.
<mgrwt>
<rscale>  0 0.12500000E+03</rscale>
<asrwt>0</asrwt>
<pdfrwt beam="1">  1       21 0.12883525E-01 0.12500000E+03</pdfrwt>
<pdfrwt beam="2">  1       21 0.71762677E-02 0.12500000E+03</pdfrwt>
<totfact> 0.73313017E+06</totfact>
</mgrwt>
</event>
<event>
 3    1  0.1573868E-001  0.1250000E+03  0.7546771E-02  0.1235069E+00
         21   -1    0    0  502  501  0.00000000000E+00  0.00000000000E+00  0.24747854150E+01  0.24747854150E+01  0.00000000000E+00 0.  1.
         21   -1    0    0  501  502 -0.00000000000E+00 -0.00000000000E+00 -0.15784196789E+04  0.15784196789E+04  0.00000000000E+00 0.  1.
         25    1    1    2    0    0  0.00000000000E+00  0.00000000000E+00 -0.15759448935E+04  0.15808944643E+04  0.12500000000E+03 0.  0.
<mgrwt>
<rscale>  0 0.12500000E+03</rscale>
<asrwt>0</asrwt>
<pdfrwt beam="1">  1       21 0.38073498E-03 0.12500000E+03</pdfrwt>
<pdfrwt beam="2">  1       21 0.24283458E+00 0.12500000E+03</pdfrwt>
<totfact> 0.12835113E+06</totfact>
</mgrwt>
</event>
<event>
 3    1  0.1573868E-001  0.1250000E+03  0.7546771E-02  0.1235069E+00
         21   -1    0    0  502  501  0.00000000000E+00  0.00000000000E+00  0.19174157899E+03  0.19174157899E+03  0.00000000000E+00 0. -1.
         21   -1    0    0  501  502 -0.00000000000E+00 -0.00000000000E+00 -0.20372472265E+02  0.20372472265E+02  0.00000000000E+00 0. -1.
         25    1    1    2    0    0  0.00000000000E+00  0.00000000000E+00  0.17136910673E+03  0.21211405126E+03  0.12500000000E+03 0.  0.
<mgrwt>
<rscale>  0 0.12500000E+03</rscale>
<asrwt>0</asrwt>
<pdfrwt beam="1">  1       21 0.29498703E-01 0.12500000E+03</pdfrwt>
<pdfrwt beam="2">  1       21 0.31342266E-02 0.12500000E+03</pdfrwt>
<totfact> 0.63637798E+06</totfact>
</mgrwt>
</event>
<event>
 3    1  0.1573868E-001  0.1250000E+03  0.7546771E-02  0.1235069E+00
         21   -1    0    0  502  501  0.00000000000E+00  0.00000000000E+00  0.22384470331E+02  0.22384470331E+02  0.00000000000E+00 0.  1.
         21   -1    0    0  501  502 -0.00000000000E+00 -0.00000000000E+00 -0.17450714456E+03  0.17450714456E+03  0.00000000000E+00 0.  1.
         25    1    1    2    0    0  0.00000000000E+00  0.00000000000E+00 -0.15212267423E+03  0.19689161489E+03  0.12500000000E+03 0.  0.
<mgrwt>
<rscale>  0 0.12500000E+03</rscale>
<asrwt>0</asrwt>
<pdfrwt beam="1">  1       21 0.34437648E-02 0.12500000E+03</pdfrwt>
<pdfrwt beam="2">  1       21 0.26847252E-01 0.12500000E+03</pdfrwt>
<totfact> 0.65264584E+06</totfact>
</mgrwt>
</event>
<event>
 3    1  0.1573868E-001  0.1250000E+03  0.7546771E-02  0.1235069E+00
         21   -1    0    0  502  501  0.00000000000E+00  0.00000000000E+00  0.32265183268E+03  0.32265183268E+03  0.00000000000E+00 0.  1.
         21   -1    0    0  501  502 -0.00000000000E+00 -0.00000000000E+00 -0.12106703277E+02  0.12106703277E+02  0.00000000000E+00 0.  1.
         25    1    1    2    0    0  0.00000000000E+00  0.00000000000E+00  0.31054512940E+03  0.33475853595E+03  0.12500000000E+03 0.  0.
<mgrwt>
<rscale>  0 0.12500000E+03</rscale>
<asrwt>0</asrwt>
<pdfrwt beam="1">  1       21 0.49638737E-01 0.12500000E+03</pdfrwt>
<pdfrwt beam="2">  1       21 0.18625700E-02 0.12500000E+03</pdfrwt>
<totfact> 0.52684145E+06</totfact>
</mgrwt>
</event>
<event>
 3    1  0.1573868E-001  0.1250000E+03  0.7546771E-02  0.1235069E+00
         21   -1    0    0  502  501  0.00000000000E+00  0.00000000000E+00  0.45768292253E+02  0.45768292253E+02  0.00000000000E+00 0. -1.
         21   -1    0    0  501  502 -0.00000000000E+00 -0.00000000000E+00 -0.85348388758E+02  0.85348388758E+02  0.00000000000E+00 0. -1.
         25    1    1    2    0    0  0.00000000000E+00  0.00000000000E+00 -0.39580096505E+02  0.13111668101E+03  0.12500000000E+03 0.  0.
<mgrwt>
<rscale>  0 0.12500000E+03</rscale>
<asrwt>0</asrwt>
<pdfrwt beam="1">  1       21 0.70412759E-02 0.12500000E+03</pdfrwt>
<pdfrwt beam="2">  1       21 0.13130521E-01 0.12500000E+03</pdfrwt>
<totfact> 0.73214952E+06</totfact>
</mgrwt>
</event>
<event>
 3    1  0.1573868E-001  0.1250000E+03  0.7546771E-02  0.1235069E+00
         21   -1    0    0  502  501  0.00000000000E+00  0.00000000000E+00  0.39406248836E+02  0.39406248836E+02  0.00000000000E+00 0. -1.
         21   -1    0    0  501  502 -0.00000000000E+00 -0.00000000000E+00 -0.99127679376E+02  0.99127679376E+02  0.00000000000E+00 0. -1.
         25    1    1    2    0    0  0.00000000000E+00  0.00000000000E+00 -0.59721430540E+02  0.13853392821E+03  0.12500000000E+03 0.  0.
<mgrwt>
<rscale>  0 0.12500000E+03</rscale>
<asrwt>0</asrwt>
<pdfrwt beam="1">  1       21 0.60625000E-02 0.12500000E+03</pdfrwt>
<pdfrwt beam="2">  1       21 0.15250412E-01 0.12500000E+03</pdfrwt>
<totfact> 0.72231283E+06</totfact>
</mgrwt>
</event>
<event>
 3    1  0.1573868E-001  0.1250000E+03  0.7546771E-02  0.1235069E+00
         21   -1    0    0  502  501  0.00000000000E+00  0.00000000000E+00  0.44767124416E+01  0.44767124416E+01  0.00000000000E+00 0.  1.
         21   -1    0    0  501  502 -0.00000000000E+00 -0.00000000000E+00 -0.87257112243E+03  0.87257112243E+03  0.00000000000E+00 0.  1.
         25    1    1    2    0    0  0.00000000000E+00  0.00000000000E+00 -0.86809440999E+03  0.87704783487E+03  0.12500000000E+03 0.  0.
<mgrwt>
<rscale>  0 0.12500000E+03</rscale>
<asrwt>0</asrwt>
<pdfrwt beam="1">  1       21 0.68872492E-03 0.12500000E+03</pdfrwt>
<pdfrwt beam="2">  1       21 0.13424172E+00 0.12500000E+03</pdfrwt>
<totfact> 0.26962841E+06</totfact>
</mgrwt>
</event>
<event>
 3    1  0.1573868E-001  0.1250000E+03  0.7546771E-02  0.1235069E+00
         21   -1    0    0  502  501  0.00000000000E+00  0.00000000000E+00  0.93584975298E+02  0.93584975298E+02  0.00000000000E+00 0.  1.
         21   -1    0    0  501  502 -0.00000000000E+00 -0.00000000000E+00 -0.41740140312E+02  0.41740140312E+02  0.00000000000E+00 0.  1.
         25    1    1    2    0    0  0.00000000000E+00  0.00000000000E+00  0.51844834987E+02  0.13532511561E+03  0.12500000000E+03 0.  0.
<mgrwt>
<rscale>  0 0.12500000E+03</rscale>
<asrwt>0</asrwt>
<pdfrwt beam="1">  1       21 0.14397688E-01 0.12500000E+03</pdfrwt>
<pdfrwt beam="2">  1       21 0.64215601E-02 0.12500000E+03</pdfrwt>
<totfact> 0.72653453E+06</totfact>
</mgrwt>
</event>
<event>
 3    1  0.1573868E-001  0.1250000E+03  0.7546771E-02  0.1235069E+00
         21   -1    0    0  502  501  0.00000000000E+00  0.00000000000E+00  0.39157957772E+02  0.39157957772E+02  0.00000000000E+00 0. -1.
         21   -1    0    0  501  502 -0.00000000000E+00 -0.00000000000E+00 -0.99756223825E+02  0.99756223825E+02  0.00000000000E+00 0. -1.
         25    1    1    2    0    0  0.00000000000E+00  0.00000000000E+00 -0.60598266053E+02  0.13891418160E+03  0.12500000000E+03 0.  0.
<mgrwt>
<rscale>  0 0.12500000E+03</rscale>
<asrwt>0</asrwt>
<pdfrwt beam="1">  1       21 0.60243011E-02 0.12500000E+03</pdfrwt>
<pdfrwt beam="2">  1       21 0.15347112E-01 0.12500000E+03</pdfrwt>
<totfact> 0.72181378E+06</totfact>
</mgrwt>
</event>
<event>
 3    1  0.1573868E-001  0.1250000E+03  0.7546771E-02  0.1235069E+00
         21   -1    0    0  502  501  0.00000000000E+00  0.00000000000E+00  0.57655525402E+03  0.57655525402E+03  0.00000000000E+00 0.  1.
         21   -1    0    0  501  502 -0.00000000000E+00 -0.00000000000E+00 -0.67751528977E+01  0.67751528977E+01  0.00000000000E+00 0.  1.
         25    1    1    2    0    0  0.00000000000E+00  0.00000000000E+00  0.56978010113E+03  0.58333040692E+03  0.12500000000E+03 0.  0.
<mgrwt>
<rscale>  0 0.12500000E+03</rscale>
<asrwt>0</asrwt>
<pdfrwt beam="1">  1       21 0.88700770E-01 0.12500000E+03</pdfrwt>
<pdfrwt beam="2">  1       21 0.10423317E-02 0.12500000E+03</pdfrwt>
<totfact> 0.37857519E+06</totfact>
</mgrwt>
</event>
<event>
 3    1  0.1573868E-001  0.1250000E+03  0.7546771E-02  0.1235069E+00
         21   -1    0    0  502  501  0.00000000000E+00  0.00000000000E+00  0.13118715158E+02  0.13118715158E+02  0.00000000000E+00 0. -1.
         21   -1    0    0  501  502 -0.00000000000E+00 -0.00000000000E+00 -0.29776162931E+03  0.29776162931E+03  0.00000000000E+00 0. -1.
         25    1    1    2    0    0  0.00000000000E+00  0.00000000000E+00 -0.28464291415E+03  0.31088034447E+03  0.12500000000E+03 0.  0.
<mgrwt>
<rscale>  0 0.12500000E+03</rscale>
<asrwt>0</asrwt>
<pdfrwt beam="1">  1       21 0.20182639E-02 0.12500000E+03</pdfrwt>
<pdfrwt beam="2">  1       21 0.45809480E-01 0.12500000E+03</pdfrwt>
<totfact> 0.54563923E+06</totfact>
</mgrwt>
</event>
<event>
 3    1  0.1573868E-001  0.1250000E+03  0.7546771E-02  0.1235069E+00
         21   -1    0    0  502  501  0.00000000000E+00  0.00000000000E+00  0.99602458845E+01  0.99602458845E+01  0.00000000000E+00 0.  1.
         21   -1    0    0  501  502 -0.00000000000E+00 -0.00000000000E+00 -0.39218409317E+03  0.39218409317E+03  0.00000000000E+00 0.  1.
         25    1    1    2    0    0  0.00000000000E+00  0.00000000000E+00 -0.38222384729E+03  0.40214433906E+03  0.12500000000E+03 0.  0.
<mgrwt>
<rscale>  0 0.12500000E+03</rscale>
<asrwt>0</asrwt>
<pdfrwt beam="1">  1       21 0.15323456E-02 0.12500000E+03</pdfrwt>
<pdfrwt beam="2">  1       21 0.60336011E-01 0.12500000E+03</pdfrwt>
<totfact> 0.47899445E+06</totfact>
</mgrwt>
</event>
<event>
 3    1  0.1573868E-001  0.1250000E+03  0.7546771E-02  0.1235069E+00
         21   -1    0    0  502  501  0.00000000000E+00  0.00000000000E+00  0.23127216782E+03  0.23127216782E+03  0.00000000000E+00 0. -1.
         21   -1    0    0  501  502 -0.00000000000E+00 -0.00000000000E+00 -0.16890272776E+02  0.16890272776E+02  0.00000000000E+00 0. -1.
         25    1    1    2    0    0  0.00000000000E+00  0.00000000000E+00  0.21438189504E+03  0.24816244060E+03  0.12500000000E+03 0.  0.
<mgrwt>
<rscale>  0 0.12500000E+03</rscale>
<asrwt>0</asrwt>
<pdfrwt beam="1">  1       21 0.35580331E-01 0.12500000E+03</pdfrwt>
<pdfrwt beam="2">  1       21 0.25985037E-02 0.12500000E+03</pdfrwt>
<totfact> 0.60051626E+06</totfact>
</mgrwt>
</event>
<event>
 3    1  0.1573868E-001  0.1250000E+03  0.7546771E-02  0.1235069E+00
         21   -1    0    0  502  501  0.00000000000E+00  0.00000000000E+00  0.41952588970E+02  0.41952588970E+02  0.00000000000E+00 0. -1.
         21   -1    0    0  501  502 -0.00000000000E+00 -0.00000000000E+00 -0.93111059315E+02  0.93111059315E+02  0.00000000000E+00 0. -1.
         25    1    1    2    0    0  0.00000000000E+00  0.00000000000E+00 -0.51158470345E+02  0.13506364829E+03  0.12500000000E+03 0.  0.
<mgrwt>
<rscale>  0 0.12500000E+03</rscale>
<asrwt>0</asrwt>
<pdfrwt beam="1">  1       21 0.64542446E-02 0.12500000E+03</pdfrwt>
<pdfrwt beam="2">  1       21 0.14324778E-01 0.12500000E+03</pdfrwt>
<totfact> 0.72688046E+06</totfact>
</mgrwt>
</event>
<event>
 3    1  0.1573868E-001  0.1250000E+03  0.7546771E-02  0.1235069E+00
         21   -1    0    0  502  501  0.00000000000E+00  0.00000000000E+00  0.25268787081E+02  0.25268787081E+02  0.00000000000E+00 0.  1.
         21   -1    0    0  501  502 -0.00000000000E+00 -0.00000000000E+00 -0.15458795024E+03  0.15458795024E+03  0.00000000000E+00 0.  1.
         25    1    1    2    0    0  0.00000000000E+00  0.00000000000E+00 -0.12931916316E+03  0.17985673732E+03  0.12500000000E+03 0.  0.
<mgrwt>
<rscale>  0 0.12500000E+03</rscale>
<asrwt>0</asrwt>
<pdfrwt beam="1">  1       21 0.38875057E-02 0.12500000E+03</pdfrwt>
<pdfrwt beam="2">  1       21 0.23782762E-01 0.12500000E+03</pdfrwt>
<totfact> 0.67167975E+06</totfact>
</mgrwt>
</event>
<event>
 3    1  0.1573868E-001  0.1250000E+03  0.7546771E-02  0.1235069E+00
         21   -1    0    0  502  501  0.00000000000E+00  0.00000000000E+00  0.71164065080E+02  0.71164065080E+02  0.00000000000E+00 0. -1.
         21   -1    0    0  501  502 -0.00000000000E+00 -0.00000000000E+00 -0.54890765383E+02  0.54890765383E+02  0.00000000000E+00 0. -1.
         25    1    1    2    0    0  0.00000000000E+00  0.00000000000E+00  0.16273299698E+02  0.12605483046E+03  0.12500000000E+03 0.  0.
<mgrwt>
<rscale>  0 0.12500000E+03</rscale>
<asrwt>0</asrwt>
<pdfrwt beam="1">  1       21 0.10948318E-01 0.12500000E+03</pdfrwt>
<pdfrwt beam="2">  1       21 0.84447331E-02 0.12500000E+03</pdfrwt>
<totfact> 0.73898482E+06</totfact>
</mgrwt>
</event>
<event>
 3    1  0.1573868E-001  0.1250000E+03  0.7546771E-02  0.1235069E+00
         21   -1    0    0  502  501  0.00000000000E+00  0.00000000000E+00  0.17202140168E+03  0.17202140168E+03  0.00000000000E+00 0. -1.
         21   -1    0    0  501  502 -0.00000000000E+00 -0.00000000000E+00 -0.22707930303E+02  0.22707930303E+02  0.00000000000E+00 0. -1.
         25    1    1    2    0    0  0.00000000000E+00  0.00000000000E+00  0.14931347138E+03  0.19472933199E+03  0.12500000000E+03 0.  0.
<mgrwt>
<rscale>  0 0.12500000E+03</rscale>
<asrwt>0</asrwt>
<pdfrwt beam="1">  1       21 0.26464830E-01 0.12500000E+03</pdfrwt>
<pdfrwt beam="2">  1       21 0.34935278E-02 0.12500000E+03</pdfrwt>
<totfact> 0.65500659E+06</totfact>
</mgrwt>
</event>
<event>
 3    1  0.1573868E-001  0.1250000E+03  0.7546771E-02  0.1235069E+00
         21   -1    0    0  502  501  0.00000000000E+00  0.00000000000E+00  0.51256249796E+01  0.51256249796E+01  0.00000000000E+00 0.  1.
         21   -1    0    0  501  502 -0.00000000000E+00 -0.00000000000E+00 -0.76210218569E+03  0.76210218569E+03  0.00000000000E+00 0.  1.
         25    1    1    2    0    0  0.00000000000E+00  0.00000000000E+00 -0.75697656071E+03  0.76722781067E+03  0.12500000000E+03 0.  0.
<mgrwt>
<rscale>  0 0.12500000E+03</rscale>
<asrwt>0</asrwt>
<pdfrwt beam="1">  1       21 0.78855763E-03 0.12500000E+03</pdfrwt>
<pdfrwt beam="2">  1       21 0.11724650E+00 0.12500000E+03</pdfrwt>
<totfact> 0.30471987E+06</totfact>
</mgrwt>
</event>
<event>
 3    1  0.1573868E-001  0.1250000E+03  0.7546771E-02  0.1235069E+00
         21   -1    0    0  502  501  0.00000000000E+00  0.00000000000E+00  0.11873518507E+03  0.11873518507E+03  0.00000000000E+00 0. -1.
         21   -1    0    0  501  502 -0.00000000000E+00 -0.00000000000E+00 -0.32898841213E+02  0.32898841213E+02  0.00000000000E+00 0. -1.
         25    1    1    2    0    0  0.00000000000E+00  0.00000000000E+00  0.85836343855E+02  0.15163402628E+03  0.12500000000E+03 0.  0.
<mgrwt>
<rscale>  0 0.12500000E+03</rscale>
<asrwt>0</asrwt>
<pdfrwt beam="1">  1       21 0.18266951E-01 0.12500000E+03</pdfrwt>
<pdfrwt beam="2">  1       21 0.50613602E-02 0.12500000E+03</pdfrwt>
<totfact> 0.70554537E+06</totfact>
</mgrwt>
</event>
<event>
 3    1  0.1573868E-001  0.1250000E+03  0.7546771E-02  0.1235069E+00
         21   -1    0    0  502  501  0.00000000000E+00  0.00000000000E+00  0.98958465764E+02  0.98958465764E+02  0.00000000000E+00 0. -1.
         21   -1    0    0  501  502 -0.00000000000E+00 -0.00000000000E+00 -0.39473631385E+02  0.39473631385E+02  0.00000000000E+00 0. -1.
         25    1    1    2    0    0  0.00000000000E+00  0.00000000000E+00  0.59484834379E+02  0.13843209715E+03  0.12500000000E+03 0.  0.
<mgrwt>
<rscale>  0 0.12500000E+03</rscale>
<asrwt>0</asrwt>
<pdfrwt beam="1">  1       21 0.15224379E-01 0.12500000E+03</pdfrwt>
<pdfrwt beam="2">  1       21 0.60728664E-02 0.12500000E+03</pdfrwt>
<totfact> 0.72244661E+06</totfact>
</mgrwt>
</event>
<event>
 3    1  0.1573868E-001  0.1250000E+03  0.7546771E-02  0.1235069E+00
         21   -1    0    0  502  501  0.00000000000E+00  0.00000000000E+00  0.33995132858E+03  0.33995132858E+03  0.00000000000E+00 0.  1.
         21   -1    0    0  501  502 -0.00000000000E+00 -0.00000000000E+00 -0.11490615484E+02  0.11490615484E+02  0.00000000000E+00 0.  1.
         25    1    1    2    0    0  0.00000000000E+00  0.00000000000E+00  0.32846071310E+03  0.35144194407E+03  0.12500000000E+03 0.  0.
<mgrwt>
<rscale>  0 0.12500000E+03</rscale>
<asrwt>0</asrwt>
<pdfrwt beam="1">  1       21 0.52300197E-01 0.12500000E+03</pdfrwt>
<pdfrwt beam="2">  1       21 0.17677873E-02 0.12500000E+03</pdfrwt>
<totfact> 0.51432120E+06</totfact>
</mgrwt>
</event>
<event>
 3    1  0.1573868E-001  0.1250000E+03  0.7546771E-02  0.1235069E+00
         21   -1    0    0  502  501  0.00000000000E+00  0.00000000000E+00  0.60859697956E+03  0.60859697956E+03  0.00000000000E+00 0.  1.
         21   -1    0    0  501  502 -0.00000000000E+00 -0.00000000000E+00 -0.64184511774E+01  0.64184511774E+01  0.00000000000E+00 0.  1.
         25    1    1    2    0    0  0.00000000000E+00  0.00000000000E+00  0.60217852838E+03  0.61501543074E+03  0.12500000000E+03 0.  0.
<mgrwt>
<rscale>  0 0.12500000E+03</rscale>
<asrwt>0</asrwt>
<pdfrwt beam="1">  1       21 0.93630259E-01 0.12500000E+03</pdfrwt>
<pdfrwt beam="2">  1       21 0.98745451E-03 0.12500000E+03</pdfrwt>
<totfact> 0.36422275E+06</totfact>
</mgrwt>
</event>
<event>
 3    1  0.1573868E-001  0.1250000E+03  0.7546771E-02  0.1235069E+00
         21   -1    0    0  502  501  0.00000000000E+00  0.00000000000E+00  0.15310325785E+03  0.15310325785E+03  0.00000000000E+00 0.  1.
         21   -1    0    0  501  502 -0.00000000000E+00 -0.00000000000E+00 -0.25513826779E+02  0.25513826779E+02  0.00000000000E+00 0.  1.
         25    1    1    2    0    0  0.00000000000E+00  0.00000000000E+00  0.12758943107E+03  0.17861708462E+03  0.12500000000E+03 0.  0.
<mgrwt>
<rscale>  0 0.12500000E+03</rscale>
<asrwt>0</asrwt>
<pdfrwt beam="1">  1       21 0.23554347E-01 0.12500000E+03</pdfrwt>
<pdfrwt beam="2">  1       21 0.39252042E-02 0.12500000E+03</pdfrwt>
<totfact> 0.67310535E+06</totfact>
</mgrwt>
</event>
<event>
 3    1  0.1573868E-001  0.1250000E+03  0.7546771E-02  0.1235069E+00
         21   -1    0    0  502  501  0.00000000000E+00  0.00000000000E+00  0.79149365174E+02  0.79149365174E+02  0.00000000000E+00 0. -1.
         21   -1    0    0  501  502 -0.00000000000E+00 -0.00000000000E+00 -0.49352891099E+02  0.49352891099E+02  0.00000000000E+00 0. -1.
         25    1    1    2    0    0  0.00000000000E+00  0.00000000000E+00  0.29796474075E+02  0.12850225627E+03  0.12500000000E+03 0.  0.
<mgrwt>
<rscale>  0 0.12500000E+03</rscale>
<asrwt>0</asrwt>
<pdfrwt beam="1">  1       21 0.12176825E-01 0.12500000E+03</pdfrwt>
<pdfrwt beam="2">  1       21 0.75927525E-02 0.12500000E+03</pdfrwt>
<totfact> 0.73565818E+06</totfact>
</mgrwt>
</event>
<event>
 3    1  0.1573868E-001  0.1250000E+03  0.7546771E-02  0.1235069E+00
         21   -1    0    0  502  501  0.00000000000E+00  0.00000000000E+00  0.12247262101E+02  0.12247262101E+02  0.00000000000E+00 0.  1.
         21   -1    0    0  501  502 -0.00000000000E+00 -0.00000000000E+00 -0.31894883671E+03  0.31894883671E+03  0.00000000000E+00 0.  1.
         25    1    1    2    0    0  0.00000000000E+00  0.00000000000E+00 -0.30670157461E+03  0.33119609881E+03  0.12500000000E+03 0.  0.
<mgrwt>
<rscale>  0 0.12500000E+03</rscale>
<asrwt>0</asrwt>
<pdfrwt beam="1">  1       21 0.18841943E-02 0.12500000E+03</pdfrwt>
<pdfrwt beam="2">  1       21 0.49069050E-01 0.12500000E+03</pdfrwt>
<totfact> 0.52957867E+06</totfact>
</mgrwt>
</event>
<event>
 3    1  0.1573868E-001  0.1250000E+03  0.7546771E-02  0.1235069E+00
         21   -1    0    0  502  501  0.00000000000E+00  0.00000000000E+00  0.73328744788E+02  0.73328744788E+02  0.00000000000E+00 0.  1.
         21   -1    0    0  501  502 -0.00000000000E+00 -0.00000000000E+00 -0.53270378639E+02  0.53270378639E+02  0.00000000000E+00 0.  1.
         25    1    1    2    0    0  0.00000000000E+00  0.00000000000E+00  0.20058366149E+02  0.12659912343E+03  0.12500000000E+03 0.  0.
<mgrwt>
<rscale>  0 0.12500000E+03</rscale>
<asrwt>0</asrwt>
<pdfrwt beam="1">  1       21 0.11281345E-01 0.12500000E+03</pdfrwt>
<pdfrwt beam="2">  1       21 0.81954428E-02 0.12500000E+03</pdfrwt>
<totfact> 0.73823816E+06</totfact>
</mgrwt>
</event>
<event>
 3    1  0.1573868E-001  0.1250000E+03  0.7546771E-02  0.1235069E+00
         21   -1    0    0  502  501  0.00000000000E+00  0.00000000000E+00  0.15832201475E+03  0.15832201475E+03  0.00000000000E+00 0. -1.
         21   -1    0    0  501  502 -0.00000000000E+00 -0.00000000000E+00 -0.24672816388E+02  0.24672816388E+02  0.00000000000E+00 0. -1.
         25    1    1    2    0    0  0.00000000000E+00  0.00000000000E+00  0.13364919836E+03  0.18299483113E+03  0.12500000000E+03 0.  0.
<mgrwt>
<rscale>  0 0.12500000E+03</rscale>
<asrwt>0</asrwt>
<pdfrwt beam="1">  1       21 0.24357232E-01 0.12500000E+03</pdfrwt>
<pdfrwt beam="2">  1       21 0.37958180E-02 0.12500000E+03</pdfrwt>
<totfact> 0.66809629E+06</totfact>
</mgrwt>
</event>
<event>
 3    1  0.1573868E-001  0.1250000E+03  0.7546771E-02  0.1235069E+00
         21   -1    0    0  502  501  0.00000000000E+00  0.00000000000E+00  0.35600236166E+02  0.35600236166E+02  0.00000000000E+00 0. -1.
         21   -1    0    0  501  502 -0.00000000000E+00 -0.00000000000E+00 -0.10972539569E+03  0.10972539569E+03  0.00000000000E+00 0. -1.
         25    1    1    2    0    0  0.00000000000E+00  0.00000000000E+00 -0.74125159523E+02  0.14532563186E+03  0.12500000000E+03 0.  0.
<mgrwt>
<rscale>  0 0.12500000E+03</rscale>
<asrwt>0</asrwt>
<pdfrwt beam="1">  1       21 0.54769594E-02 0.12500000E+03</pdfrwt>
<pdfrwt beam="2">  1       21 0.16880830E-01 0.12500000E+03</pdfrwt>
<totfact> 0.71351452E+06</totfact>
</mgrwt>
</event>
<event>
 3    1  0.1573868E-001  0.1250000E+03  0.7546771E-02  0.1235069E+00
         21   -1    0    0  502  501  0.00000000000E+00  0.00000000000E+00  0.10144231947E+03  0.10144231947E+03  0.00000000000E+00 0.  1.
         21   -1    0    0  501  502 -0.00000000000E+00 -0.00000000000E+00 -0.38507104534E+02  0.38507104534E+02  0.00000000000E+00 0.  1.
         25    1    1    2    0    0  0.00000000000E+00  0.00000000000E+00  0.62935214934E+02  0.13994942400E+03  0.12500000000E+03 0.  0.
<mgrwt>
<rscale>  0 0.12500000E+03</rscale>
<asrwt>0</asrwt>
<pdfrwt beam="1">  1       21 0.15606511E-01 0.12500000E+03</pdfrwt>
<pdfrwt beam="2">  1       21 0.59241700E-02 0.12500000E+03</pdfrwt>
<totfact> 0.72045911E+06</totfact>
</mgrwt>
</event>
<event>
 3    1  0.1573868E-001  0.1250000E+03  0.7546771E-02  0.1235069E+00
         21   -1    0    0  502  501  0.00000000000E+00  0.00000000000E+00  0.24629136703E+02  0.24629136703E+02  0.00000000000E+00 0. -1.
         21   -1    0    0  501  502 -0.00000000000E+00 -0.00000000000E+00 -0.15860279826E+03  0.15860279826E+03  0.00000000000E+00 0. -1.
         25    1    1    2    0    0  0.00000000000E+00  0.00000000000E+00 -0.13397366156E+03  0.18323193497E+03  0.12500000000E+03 0.  0.
<mgrwt>
<rscale>  0 0.12500000E+03</rscale>
<asrwt>0</asrwt>
<pdfrwt beam="1">  1       21 0.37890979E-02 0.12500000E+03</pdfrwt>
<pdfrwt beam="2">  1       21 0.24400431E-01 0.12500000E+03</pdfrwt>
<totfact> 0.66782700E+06</totfact>
</mgrwt>
</event>
<event>
 3    1  0.1573868E-001  0.1250000E+03  0.7546771E-02  0.1235069E+00
         21   -1    0    0  502  501  0.00000000000E+00  0.00000000000E+00  0.18662879911E+02  0.18662879911E+02  0.00000000000E+00 0. -1.
         21   -1    0    0  501  502 -0.00000000000E+00 -0.00000000000E+00 -0.20930585304E+03  0.20930585304E+03  0.00000000000E+00 0. -1.
         25    1    1    2    0    0  0.00000000000E+00  0.00000000000E+00 -0.19064297313E+03  0.22796873295E+03  0.12500000000E+03 0.  0.
<mgrwt>
<rscale>  0 0.12500000E+03</rscale>
<asrwt>0</asrwt>
<pdfrwt beam="1">  1       21 0.28712121E-02 0.12500000E+03</pdfrwt>
<pdfrwt beam="2">  1       21 0.32200902E-01 0.12500000E+03</pdfrwt>
<totfact> 0.62016707E+06</totfact>
</mgrwt>
</event>
<event>
 3    1  0.1573868E-001  0.1250000E+03  0.7546771E-02  0.1235069E+00
         21   -1    0    0  502  501  0.00000000000E+00  0.00000000000E+00  0.66782539002E+03  0.66782539002E+03  0.00000000000E+00 0.  1.
         21   -1    0    0  501  502 -0.00000000000E+00 -0.00000000000E+00 -0.58492085781E+01  0.58492085781E+01  0.00000000000E+00 0.  1.
         25    1    1    2    0    0  0.00000000000E+00  0.00000000000E+00  0.66197618145E+03  0.67367459860E+03  0.12500000000E+03 0.  0.
<mgrwt>
<rscale>  0 0.12500000E+03</rscale>
<asrwt>0</asrwt>
<pdfrwt beam="1">  1       21 0.10274231E+00 0.12500000E+03</pdfrwt>
<pdfrwt beam="2">  1       21 0.89987877E-03 0.12500000E+03</pdfrwt>
<totfact> 0.33950003E+06</totfact>
</mgrwt>
</event>
<event>
 3    1  0.1573868E-001  0.1250000E+03  0.7546771E-02  0.1235069E+00
         21   -1    0    0  502  501  0.00000000000E+00  0.00000000000E+00  0.42727759151E+03  0.42727759151E+03  0.00000000000E+00 0. -1.
         21   -1    0    0  501  502 -0.00000000000E+00 -0.00000000000E+00 -0.91421831560E+01  0.91421831560E+01  0.00000000000E+00 0. -1.
         25    1    1    2    0    0  0.00000000000E+00  0.00000000000E+00  0.41813540835E+03  0.43641977466E+03  0.12500000000E+03 0.  0.
<mgrwt>
<rscale>  0 0.12500000E+03</rscale>
<asrwt>0</asrwt>
<pdfrwt beam="1">  1       21 0.65734999E-01 0.12500000E+03</pdfrwt>
<pdfrwt beam="2">  1       21 0.14064900E-02 0.12500000E+03</pdfrwt>
<totfact> 0.45715901E+06</totfact>
</mgrwt>
</event>
<event>
 3    1  0.1573868E-001  0.1250000E+03  0.7546771E-02  0.1235069E+00
         21   -1    0    0  502  501  0.00000000000E+00  0.00000000000E+00  0.93719669997E+01  0.93719669997E+01  0.00000000000E+00 0.  1.
         21   -1    0    0  501  502 -0.00000000000E+00 -0.00000000000E+00 -0.41680151030E+03  0.41680151030E+03  0.00000000000E+00 0.  1.
         25    1    1    2    0    0  0.00000000000E+00  0.00000000000E+00 -0.40742954330E+03  0.42617347730E+03  0.12500000000E+03 0.  0.
<mgrwt>
<rscale>  0 0.12500000E+03</rscale>
<asrwt>0</asrwt>
<pdfrwt beam="1">  1       21 0.14418415E-02 0.12500000E+03</pdfrwt>
<pdfrwt beam="2">  1       21 0.64123292E-01 0.12500000E+03</pdfrwt>
<totfact> 0.46352409E+06</totfact>
</mgrwt>
</event>
<event>
 3    1  0.1573868E-001  0.1250000E+03  0.7546771E-02  0.1235069E+00
         21   -1    0    0  502  501  0.00000000000E+00  0.00000000000E+00  0.70445308945E+02  0.70445308945E+02  0.00000000000E+00 0.  1.
         21   -1    0    0  501  502 -0.00000000000E+00 -0.00000000000E+00 -0.55450817925E+02  0.55450817925E+02  0.00000000000E+00 0.  1.
         25    1    1    2    0    0  0.00000000000E+00  0.00000000000E+00  0.14994491020E+02  0.12589612687E+03  0.12500000000E+03 0.  0.
<mgrwt>
<rscale>  0 0.12500000E+03</rscale>
<asrwt>0</asrwt>
<pdfrwt beam="1">  1       21 0.10837740E-01 0.12500000E+03</pdfrwt>
<pdfrwt beam="2">  1       21 0.85308950E-02 0.12500000E+03</pdfrwt>
<totfact> 0.73920375E+06</totfact>
</mgrwt>
</event>
<event>
 3    1  0.1573868E-001  0.1250000E+03  0.7546771E-02  0.1235069E+00
         21   -1    0    0  502  501  0.00000000000E+00  0.00000000000E+00  0.90284232746E+02  0.90284232746E+02  0.00000000000E+00 0. -1.
         21   -1    0    0  501  502 -0.00000000000E+00 -0.00000000000E+00 -0.43266137189E+02  0.43266137189E+02  0.00000000000E+00 0. -1.
         25    1    1    2    0    0  0.00000000000E+00  0.00000000000E+00  0.47018095557E+02  0.13355036994E+03  0.12500000000E+03 0.  0.
<mgrwt>
<rscale>  0 0.12500000E+03</rscale>
<asrwt>0</asrwt>
<pdfrwt beam="1">  1       21 0.13889882E-01 0.12500000E+03</pdfrwt>
<pdfrwt beam="2">  1       21 0.66563288E-02 0.12500000E+03</pdfrwt>
<totfact> 0.72888993E+06</totfact>
</mgrwt>
</event>
<event>
 3    1  0.1573868E-001  0.1250000E+03  0.7546771E-02  0.1235069E+00
         21   -1    0    0  502  501  0.00000000000E+00  0.00000000000E+00  0.37275797117E+02  0.37275797117E+02  0.00000000000E+00 0.  1.
         21   -1    0    0  501  502 -0.00000000000E+00 -0.00000000000E+00 -0.10479319833E+03  0.10479319833E+03  0.00000000000E+00 0.  1.
         25    1    1    2    0    0  0.00000000000E+00  0.00000000000E+00 -0.67517401209E+02  0.14206899544E+03  0.12500000000E+03 0.  0.
<mgrwt>
<rscale>  0 0.12500000E+03</rscale>
<asrwt>0</asrwt>
<pdfrwt beam="1">  1       21 0.57347382E-02 0.12500000E+03</pdfrwt>
<pdfrwt beam="2">  1       21 0.16122030E-01 0.12500000E+03</pdfrwt>
<totfact> 0.71770344E+06</totfact>
</mgrwt>
</event>
<event>
 3    1  0.1573868E-001  0.1250000E+03  0.7546771E-02  0.1235069E+00
         21   -1    0    0  502  501  0.00000000000E+00  0.00000000000E+00  0.98438707314E+03  0.98438707314E+03  0.00000000000E+00 0.  1.
         21   -1    0    0  501  502 -0.00000000000E+00 -0.00000000000E+00 -0.39682052991E+01  0.39682052991E+01  0.00000000000E+00 0.  1.
         25    1    1    2    0    0  0.00000000000E+00  0.00000000000E+00  0.98041886785E+03  0.98835527844E+03  0.12500000000E+03 0.  0.
<mgrwt>
<rscale>  0 0.12500000E+03</rscale>
<asrwt>0</asrwt>
<pdfrwt beam="1">  1       21 0.15144397E+00 0.12500000E+03</pdfrwt>
<pdfrwt beam="2">  1       21 0.61049390E-03 0.12500000E+03</pdfrwt>
<totfact> 0.23911854E+06</totfact>
</mgrwt>
</event>
<event>
 3    1  0.1573868E-001  0.1250000E+03  0.7546771E-02  0.1235069E+00
         21   -1    0    0  502  501  0.00000000000E+00  0.00000000000E+00  0.10705059844E+02  0.10705059844E+02  0.00000000000E+00 0.  1.
         21   -1    0    0  501  502 -0.00000000000E+00 -0.00000000000E+00 -0.36489753977E+03  0.36489753977E+03  0.00000000000E+00 0.  1.
         25    1    1    2    0    0  0.00000000000E+00  0.00000000000E+00 -0.35419247993E+03  0.37560259961E+03  0.12500000000E+03 0.  0.
<mgrwt>
<rscale>  0 0.12500000E+03</rscale>
<asrwt>0</asrwt>
<pdfrwt beam="1">  1       21 0.16469324E-02 0.12500000E+03</pdfrwt>
<pdfrwt beam="2">  1       21 0.56138078E-01 0.12500000E+03</pdfrwt>
<totfact> 0.49701429E+06</totfact>
</mgrwt>
</event>
<event>
 3    1  0.1573868E-001  0.1250000E+03  0.7546771E-02  0.1235069E+00
         21   -1    0    0  502  501  0.00000000000E+00  0.00000000000E+00  0.27080090144E+03  0.27080090144E+03  0.00000000000E+00 0. -1.
         21   -1    0    0  501  502 -0.00000000000E+00 -0.00000000000E+00 -0.14424804272E+02  0.14424804272E+02  0.00000000000E+00 0. -1.
         25    1    1    2    0    0  0.00000000000E+00  0.00000000000E+00  0.25637609716E+03  0.28522570571E+03  0.12500000000E+03 0.  0.
<mgrwt>
<rscale>  0 0.12500000E+03</rscale>
<asrwt>0</asrwt>
<pdfrwt beam="1">  1       21 0.41661673E-01 0.12500000E+03</pdfrwt>
<pdfrwt beam="2">  1       21 0.22192009E-02 0.12500000E+03</pdfrwt>
<totfact> 0.56706770E+06</totfact>
</mgrwt>
</event>
<event>
 3    1  0.1573868E-001  0.1250000E+03  0.7546771E-02  0.1235069E+00
         21   -1    0    0  502  501  0.00000000000E+00  0.00000000000E+00  0.11929371493E+03  0.11929371493E+03  0.00000000000E+00 0. -1.
         21   -1    0    0  501  502 -0.00000000000E+00 -0.00000000000E+00 -0.32744809752E+02  0.32744809752E+02  0.00000000000E+00 0. -1.
         25    1    1    2    0    0  0.00000000000E+00  0.00000000000E+00  0.86548905180E+02  0.15203852468E+03  0.12500000000E+03 0.  0.
<mgrwt>
<rscale>  0 0.12500000E+03</rscale>
<asrwt>0</asrwt>
<pdfrwt beam="1">  1       21 0.18352879E-01 0.12500000E+03</pdfrwt>
<pdfrwt beam="2">  1       21 0.50376631E-02 0.12500000E+03</pdfrwt>
<totfact> 0.70504055E+06</totfact>
</mgrwt>
</event>
<event>
 3    1  0.1573868E-001  0.1250000E+03  0.7546771E-02  0.1235069E+00
         21   -1    0    0  502  501  0.00000000000E+00  0.00000000000E+00  0.21394528665E+03  0.21394528665E+03  0.00000000000E+00 0.  1.
         21   -1    0    0  501  502 -0.00000000000E+00 -0.00000000000E+00 -0.18258172738E+02  0.18258172738E+02  0.00000000000E+00 0.  1.
         25    1    1    2    0    0  0.00000000000E+00  0.00000000000E+00  0.19568711391E+03  0.23220345939E+03  0.12500000000E+03 0.  0.
<mgrwt>
<rscale>  0 0.12500000E+03</rscale>
<asrwt>0</asrwt>
<pdfrwt beam="1">  1       21 0.32914658E-01 0.12500000E+03</pdfrwt>
<pdfrwt beam="2">  1       21 0.28089498E-02 0.12500000E+03</pdfrwt>
<totfact> 0.61595379E+06</totfact>
</mgrwt>
</event>
<event>
 3    1  0.1573868E-001  0.1250000E+03  0.7546771E-02  0.1235069E+00
         21   -1    0    0  502  501  0.00000000000E+00  0.00000000000E+00  0.13105227612E+02  0.13105227612E+02  0.00000000000E+00 0. -1.
         21   -1    0    0  501  502 -0.00000000000E+00 -0.00000000000E+00 -0.29806807754E+03  0.29806807754E+03  0.00000000000E+00 0. -1.
         25    1    1    2    0    0  0.00000000000E+00  0.00000000000E+00 -0.28496284993E+03  0.31117330516E+03  0.12500000000E+03 0.  0.
<mgrwt>
<rscale>  0 0.12500000E+03</rscale>
<asrwt>0</asrwt>
<pdfrwt beam="1">  1       21 0.20161889E-02 0.12500000E+03</pdfrwt>
<pdfrwt beam="2">  1       21 0.45856626E-01 0.12500000E+03</pdfrwt>
<totfact> 0.54540224E+06</totfact>
</mgrwt>
</event>
<event>
 3    1  0.1573868E-001  0.1250000E+03  0.7546771E-02  0.1235069E+00
         21   -1    0    0  502  501  0.00000000000E+00  0.00000000000E+00  0.15714220953E+03  0.15714220953E+03  0.00000000000E+00 0. -1.
         21   -1    0    0  501  502 -0.00000000000E+00 -0.00000000000E+00 -0.24858056990E+02  0.24858056990E+02  0.00000000000E+00 0. -1.
         25    1    1    2    0    0  0.00000000000E+00  0.00000000000E+00  0.13228415254E+03  0.18200026652E+03  0.12500000000E+03 0.  0.
<mgrwt>
<rscale>  0 0.12500000E+03</rscale>
<asrwt>0</asrwt>
<pdfrwt beam="1">  1       21 0.24175724E-01 0.12500000E+03</pdfrwt>
<pdfrwt beam="2">  1       21 0.38243165E-02 0.12500000E+03</pdfrwt>
<totfact> 0.66922810E+06</totfact>
</mgrwt>
</event>
<event>
 3    1  0.1573868E-001  0.1250000E+03  0.7546771E-02  0.1235069E+00
         21   -1    0    0  502  501  0.00000000000E+00  0.00000000000E+00  0.98167025666E+02  0.98167025666E+02  0.00000000000E+00 0.  1.
         21   -1    0    0  501  502 -0.00000000000E+00 -0.00000000000E+00 -0.39791874853E+02  0.39791874853E+02  0.00000000000E+00 0.  1.
         25    1    1    2    0    0  0.00000000000E+00  0.00000000000E+00  0.58375150814E+02  0.13795890052E+03  0.12500000000E+03 0.  0.
<mgrwt>
<rscale>  0 0.12500000E+03</rscale>
<asrwt>0</asrwt>
<pdfrwt beam="1">  1       21 0.15102619E-01 0.12500000E+03</pdfrwt>
<pdfrwt beam="2">  1       21 0.61218270E-02 0.12500000E+03</pdfrwt>
<totfact> 0.72306903E+06</totfact>
</mgrwt>
</event>
<event>
 3    1  0.1573868E-001  0.1250000E+03  0.7546771E-02  0.1235069E+00
         21   -1    0    0  502  501  0.00000000000E+00  0.00000000000E+00  0.10394531763E+02  0.10394531763E+02  0.00000000000E+00 0. -1.
         21   -1    0    0  501  502 -0.00000000000E+00 -0.00000000000E+00 -0.37579855343E+03  0.37579855343E+03  0.00000000000E+00 0. -1.
         25    1    1    2    0    0  0.00000000000E+00  0.00000000000E+00 -0.36540402167E+03  0.38619308520E+03  0.12500000000E+03 0.  0.
<mgrwt>
<rscale>  0 0.12500000E+03</rscale>
<asrwt>0</asrwt>
<pdfrwt beam="1">  1       21 0.15991589E-02 0.12500000E+03</pdfrwt>
<pdfrwt beam="2">  1       21 0.57815155E-01 0.12500000E+03</pdfrwt>
<totfact> 0.48970839E+06</totfact>
</mgrwt>
</event>
<event>
 3    1  0.1573868E-001  0.1250000E+03  0.7546771E-02  0.1235069E+00
         21   -1    0    0  502  501  0.00000000000E+00  0.00000000000E+00  0.13165625410E+03  0.13165625410E+03  0.00000000000E+00 0. -1.
         21   -1    0    0  501  502 -0.00000000000E+00 -0.00000000000E+00 -0.29670067911E+02  0.29670067911E+02  0.00000000000E+00 0. -1.
         25    1    1    2    0    0  0.00000000000E+00  0.00000000000E+00  0.10198618619E+03  0.16132632201E+03  0.12500000000E+03 0.  0.
<mgrwt>
<rscale>  0 0.12500000E+03</rscale>
<asrwt>0</asrwt>
<pdfrwt beam="1">  1       21 0.20254808E-01 0.12500000E+03</pdfrwt>
<pdfrwt beam="2">  1       21 0.45646259E-02 0.12500000E+03</pdfrwt>
<totfact> 0.69357796E+06</totfact>
</mgrwt>
</event>
<event>
 3    1  0.1573868E-001  0.1250000E+03  0.7546771E-02  0.1235069E+00
         21   -1    0    0  502  501  0.00000000000E+00  0.00000000000E+00  0.69023512985E+01  0.69023512985E+01  0.00000000000E+00 0. -1.
         21   -1    0    0  501  502 -0.00000000000E+00 -0.00000000000E+00 -0.56593033751E+03  0.56593033751E+03  0.00000000000E+00 0. -1.
         25    1    1    2    0    0  0.00000000000E+00  0.00000000000E+00 -0.55902798621E+03  0.57283268881E+03  0.12500000000E+03 0.  0.
<mgrwt>
<rscale>  0 0.12500000E+03</rscale>
<asrwt>0</asrwt>
<pdfrwt beam="1">  1       21 0.10619005E-02 0.12500000E+03</pdfrwt>
<pdfrwt beam="2">  1       21 0.87066179E-01 0.12500000E+03</pdfrwt>
<totfact> 0.38350792E+06</totfact>
</mgrwt>
</event>
<event>
 3    1  0.1573868E-001  0.1250000E+03  0.7546771E-02  0.1235069E+00
         21   -1    0    0  502  501  0.00000000000E+00  0.00000000000E+00  0.20387587802E+02  0.20387587802E+02  0.00000000000E+00 0. -1.
         21   -1    0    0  501  502 -0.00000000000E+00 -0.00000000000E+00 -0.19159942009E+03  0.19159942009E+03  0.00000000000E+00 0. -1.
         25    1    1    2    0    0  0.00000000000E+00  0.00000000000E+00 -0.17121183229E+03  0.21198700790E+03  0.12500000000E+03 0.  0.
<mgrwt>
<rscale>  0 0.12500000E+03</rscale>
<asrwt>0</asrwt>
<pdfrwt beam="1">  1       21 0.31365518E-02 0.12500000E+03</pdfrwt>
<pdfrwt beam="2">  1       21 0.29476835E-01 0.12500000E+03</pdfrwt>
<totfact> 0.63651083E+06</totfact>
</mgrwt>
</event>
<event>
 3    1  0.1573868E-001  0.1250000E+03  0.7546771E-02  0.1235069E+00
         21   -1    0    0  502  501  0.00000000000E+00  0.00000000000E+00  0.16550962200E+03  0.16550962200E+03  0.00000000000E+00 0. -1.
         21   -1    0    0  501  502 -0.00000000000E+00 -0.00000000000E+00 -0.23601346875E+02  0.23601346875E+02  0.00000000000E+00 0. -1.
         25    1    1    2    0    0  0.00000000000E+00  0.00000000000E+00  0.14190827513E+03  0.18911096888E+03  0.12500000000E+03 0.  0.
<mgrwt>
<rscale>  0 0.12500000E+03</rscale>
<asrwt>0</asrwt>
<pdfrwt beam="1">  1       21 0.25463018E-01 0.12500000E+03</pdfrwt>
<pdfrwt beam="2">  1       21 0.36309765E-02 0.12500000E+03</pdfrwt>
<totfact> 0.66121408E+06</totfact>
</mgrwt>
</event>
<event>
 3    1  0.1573868E-001  0.1250000E+03  0.7546771E-02  0.1235069E+00
         21   -1    0    0  502  501  0.00000000000E+00  0.00000000000E+00  0.15283298434E+02  0.15283298434E+02  0.00000000000E+00 0.  1.
         21   -1    0    0  501  502 -0.00000000000E+00 -0.00000000000E+00 -0.25558946041E+03  0.25558946041E+03  0.00000000000E+00 0.  1.
         25    1    1    2    0    0  0.00000000000E+00  0.00000000000E+00 -0.24030616198E+03  0.27087275885E+03  0.12500000000E+03 0.  0.
<mgrwt>
<rscale>  0 0.12500000E+03</rscale>
<asrwt>0</asrwt>
<pdfrwt beam="1">  1       21 0.23512768E-02 0.12500000E+03</pdfrwt>
<pdfrwt beam="2">  1       21 0.39321453E-01 0.12500000E+03</pdfrwt>
<totfact> 0.57966828E+06</totfact>
</mgrwt>
</event>
<event>
 3    1  0.1573868E-001  0.1250000E+03  0.7546771E-02  0.1235069E+00
         21   -1    0    0  502  501  0.00000000000E+00  0.00000000000E+00  0.89862629212E+01  0.89862629212E+01  0.00000000000E+00 0. -1.
         21   -1    0    0  501  502 -0.00000000000E+00 -0.00000000000E+00 -0.43469126535E+03  0.43469126535E+03  0.00000000000E+00 0. -1.
         25    1    1    2    0    0  0.00000000000E+00  0.00000000000E+00 -0.42570500243E+03  0.44367752827E+03  0.12500000000E+03 0.  0.
<mgrwt>
<rscale>  0 0.12500000E+03</rscale>
<asrwt>0</asrwt>
<pdfrwt beam="1">  1       21 0.13825017E-02 0.12500000E+03</pdfrwt>
<pdfrwt beam="2">  1       21 0.66875595E-01 0.12500000E+03</pdfrwt>
<totfact> 0.45273017E+06</totfact>
</mgrwt>
</event>
<event>
 3    1  0.1573868E-001  0.1250000E+03  0.7546771E-02  0.1235069E+00
         21   -1    0    0  502  501  0.00000000000E+00  0.00000000000E+00  0.16503768525E+02  0.16503768525E+02  0.00000000000E+00 0.  1.
         21   -1    0    0  501  502 -0.00000000000E+00 -0.00000000000E+00 -0.23668836569E+03  0.23668836569E+03  0.00000000000E+00 0.  1.
         25    1    1    2    0    0  0.00000000000E+00  0.00000000000E+00 -0.22018459717E+03  0.25319213422E+03  0.12500000000E+03 0.  0.
<mgrwt>
<rscale>  0 0.12500000E+03</rscale>
<asrwt>0</asrwt>
<pdfrwt beam="1">  1       21 0.25390413E-02 0.12500000E+03</pdfrwt>
<pdfrwt beam="2">  1       21 0.36413595E-01 0.12500000E+03</pdfrwt>
<totfact> 0.59578949E+06</totfact>
</mgrwt>
</event>
<event>
 3    1  0.1573868E-001  0.1250000E+03  0.7546771E-02  0.1235069E+00
         21   -1    0    0  502  501  0.00000000000E+00  0.00000000000E+00  0.16449197513E+03  0.16449197513E+03  0.00000000000E+00 0. -1.
         21   -1    0    0  501  502 -0.00000000000E+00 -0.00000000000E+00 -0.23747359085E+02  0.23747359085E+02  0.00000000000E+00 0. -1.
         25    1    1    2    0    0  0.00000000000E+00  0.00000000000E+00  0.14074461605E+03  0.18823933422E+03  0.12500000000E+03 0.  0.
<mgrwt>
<rscale>  0 0.12500000E+03</rscale>
<asrwt>0</asrwt>
<pdfrwt beam="1">  1       21 0.25306457E-01 0.12500000E+03</pdfrwt>
<pdfrwt beam="2">  1       21 0.36534400E-02 0.12500000E+03</pdfrwt>
<totfact> 0.66218682E+06</totfact>
</mgrwt>
</event>
<event>
 3    1  0.1573868E-001  0.1250000E+03  0.7546771E-02  0.1235069E+00
         21   -1    0    0  502  501  0.00000000000E+00  0.00000000000E+00  0.31166273410E+02  0.31166273410E+02  0.00000000000E+00 0. -1.
         21   -1    0    0  501  502 -0.00000000000E+00 -0.00000000000E+00 -0.12533580607E+03  0.12533580607E+03  0.00000000000E+00 0. -1.
         25    1    1    2    0    0  0.00000000000E+00  0.00000000000E+00 -0.94169532658E+02  0.15650207948E+03  0.12500000000E+03 0.  0.
<mgrwt>
<rscale>  0 0.12500000E+03</rscale>
<asrwt>0</asrwt>
<pdfrwt beam="1">  1       21 0.47948113E-02 0.12500000E+03</pdfrwt>
<pdfrwt beam="2">  1       21 0.19282431E-01 0.12500000E+03</pdfrwt>
<totfact> 0.69949449E+06</totfact>
</mgrwt>
</event>
<event>
 3    1  0.1573868E-001  0.1250000E+03  0.7546771E-02  0.1235069E+00
         21   -1    0    0  502  501  0.00000000000E+00  0.00000000000E+00  0.53775591704E+02  0.53775591704E+02  0.00000000000E+00 0.  1.
         21   -1    0    0  501  502 -0.00000000000E+00 -0.00000000000E+00 -0.72639832984E+02  0.72639832984E+02  0.00000000000E+00 0.  1.
         25    1    1    2    0    0  0.00000000000E+00  0.00000000000E+00 -0.18864241279E+02  0.12641542469E+03  0.12500000000E+03 0.  0.
<mgrwt>
<rscale>  0 0.12500000E+03</rscale>
<asrwt>0</asrwt>
<pdfrwt beam="1">  1       21 0.82731680E-02 0.12500000E+03</pdfrwt>
<pdfrwt beam="2">  1       21 0.11175359E-01 0.12500000E+03</pdfrwt>
<totfact> 0.73848953E+06</totfact>
</mgrwt>
</event>
<event>
 3    1  0.1573868E-001  0.1250000E+03  0.7546771E-02  0.1235069E+00
         21   -1    0    0  502  501  0.00000000000E+00  0.00000000000E+00  0.90933934981E+02  0.90933934981E+02  0.00000000000E+00 0. -1.
         21   -1    0    0  501  502 -0.00000000000E+00 -0.00000000000E+00 -0.42957010503E+02  0.42957010503E+02  0.00000000000E+00 0. -1.
         25    1    1    2    0    0  0.00000000000E+00  0.00000000000E+00  0.47976924478E+02  0.13389094548E+03  0.12500000000E+03 0.  0.
<mgrwt>
<rscale>  0 0.12500000E+03</rscale>
<asrwt>0</asrwt>
<pdfrwt beam="1">  1       21 0.13989836E-01 0.12500000E+03</pdfrwt>
<pdfrwt beam="2">  1       21 0.66087708E-02 0.12500000E+03</pdfrwt>
<totfact> 0.72843656E+06</totfact>
</mgrwt>
</event>
<event>
 3    1  0.1573868E-001  0.1250000E+03  0.7546771E-02  0.1235069E+00
         21   -1    0    0  502  501  0.00000000000E+00  0.00000000000E+00  0.30964931729E+02  0.30964931729E+02  0.00000000000E+00 0.  1.
         21   -1    0    0  501  502 -0.00000000000E+00 -0.00000000000E+00 -0.12615077063E+03  0.12615077063E+03  0.00000000000E+00 0.  1.
         25    1    1    2    0    0  0.00000000000E+00  0.00000000000E+00 -0.95185838897E+02  0.15711570236E+03  0.12500000000E+03 0.  0.
<mgrwt>
<rscale>  0 0.12500000E+03</rscale>
<asrwt>0</asrwt>
<pdfrwt beam="1">  1       21 0.47638356E-02 0.12500000E+03</pdfrwt>
<pdfrwt beam="2">  1       21 0.19407811E-01 0.12500000E+03</pdfrwt>
<totfact> 0.69873654E+06</totfact>
</mgrwt>
</event>
<event>
 3    1  0.1573868E-001  0.1250000E+03  0.7546771E-02  0.1235069E+00
         21   -1    0    0  502  501  0.00000000000E+00  0.00000000000E+00  0.38406747723E+01  0.38406747723E+01  0.00000000000E+00 0. -1.
         21   -1    0    0  501  502 -0.00000000000E+00 -0.00000000000E+00 -0.10170738820E+04  0.10170738820E+04  0.00000000000E+00 0. -1.
         25    1    1    2    0    0  0.00000000000E+00  0.00000000000E+00 -0.10132332072E+04  0.10209145567E+04  0.12500000000E+03 0.  0.
<mgrwt>
<rscale>  0 0.12500000E+03</rscale>
<asrwt>0</asrwt>
<pdfrwt beam="1">  1       21 0.59087283E-03 0.12500000E+03</pdfrwt>
<pdfrwt beam="2">  1       21 0.15647296E+00 0.12500000E+03</pdfrwt>
<totfact> 0.23100941E+06</totfact>
</mgrwt>
</event>
<event>
 3    1  0.1573868E-001  0.1250000E+03  0.7546771E-02  0.1235069E+00
         21   -1    0    0  502  501  0.00000000000E+00  0.00000000000E+00  0.11411555753E+02  0.11411555753E+02  0.00000000000E+00 0. -1.
         21   -1    0    0  501  502 -0.00000000000E+00 -0.00000000000E+00 -0.34230652547E+03  0.34230652547E+03  0.00000000000E+00 0. -1.
         25    1    1    2    0    0  0.00000000000E+00  0.00000000000E+00 -0.33089496971E+03  0.35371808122E+03  0.12500000000E+03 0.  0.
<mgrwt>
<rscale>  0 0.12500000E+03</rscale>
<asrwt>0</asrwt>
<pdfrwt beam="1">  1       21 0.17556242E-02 0.12500000E+03</pdfrwt>
<pdfrwt beam="2">  1       21 0.52662535E-01 0.12500000E+03</pdfrwt>
<totfact> 0.51265012E+06</totfact>
</mgrwt>
</event>
<event>
 3    1  0.1573868E-001  0.1250000E+03  0.7546771E-02  0.1235069E+00
         21   -1    0    0  502  501  0.00000000000E+00  0.00000000000E+00  0.39581662073E+03  0.39581662073E+03  0.00000000000E+00 0.  1.
         21   -1    0    0  501  502 -0.00000000000E+00 -0.00000000000E+00 -0.98688377279E+01  0.98688377279E+01  0.00000000000E+00 0.  1.
         25    1    1    2    0    0  0.00000000000E+00  0.00000000000E+00  0.38594778300E+03  0.40568545846E+03  0.12500000000E+03 0.  0.
<mgrwt>
<rscale>  0 0.12500000E+03</rscale>
<asrwt>0</asrwt>
<pdfrwt beam="1">  1       21 0.60894852E-01 0.12500000E+03</pdfrwt>
<pdfrwt beam="2">  1       21 0.15182830E-02 0.12500000E+03</pdfrwt>
<totfact> 0.47666518E+06</totfact>
</mgrwt>
</event>
<event>
 3    1  0.1573868E-001  0.1250000E+03  0.7546771E-02  0.1235069E+00
         21   -1    0    0  502  501  0.00000000000E+00  0.00000000000E+00  0.17470580039E+03  0.17470580039E+03  0.00000000000E+00 0. -1.
         21   -1    0    0  501  502 -0.00000000000E+00 -0.00000000000E+00 -0.22359017224E+02  0.22359017224E+02  0.00000000000E+00 0. -1.
         25    1    1    2    0    0  0.00000000000E+00  0.00000000000E+00  0.15234678316E+03  0.19706481761E+03  0.12500000000E+03 0.  0.
<mgrwt>
<rscale>  0 0.12500000E+03</rscale>
<asrwt>0</asrwt>
<pdfrwt beam="1">  1       21 0.26877815E-01 0.12500000E+03</pdfrwt>
<pdfrwt beam="2">  1       21 0.34398489E-02 0.12500000E+03</pdfrwt>
<totfact> 0.65245741E+06</totfact>
</mgrwt>
</event>
<event>
 3    1  0.1573868E-001  0.1250000E+03  0.7546771E-02  0.1235069E+00
         21   -1    0    0  502  501  0.00000000000E+00  0.00000000000E+00  0.28610284297E+02  0.28610284297E+02  0.00000000000E+00 0. -1.
         21   -1    0    0  501  502 -0.00000000000E+00 -0.00000000000E+00 -0.13653307179E+03  0.13653307179E+03  0.00000000000E+00 0. -1.
         25    1    1    2    0    0  0.00000000000E+00  0.00000000000E+00 -0.10792278750E+03  0.16514335609E+03  0.12500000000E+03 0.  0.
<mgrwt>
<rscale>  0 0.12500000E+03</rscale>
<asrwt>0</asrwt>
<pdfrwt beam="1">  1       21 0.44015821E-02 0.12500000E+03</pdfrwt>
<pdfrwt beam="2">  1       21 0.21005088E-01 0.12500000E+03</pdfrwt>
<totfact> 0.68896431E+06</totfact>
</mgrwt>
</event>
<event>
 3    1  0.1573868E-001  0.1250000E+03  0.7546771E-02  0.1235069E+00
         21   -1    0    0  502  501  0.00000000000E+00  0.00000000000E+00  0.21333670774E+03  0.21333670774E+03  0.00000000000E+00 0. -1.
         21   -1    0    0  501  502 -0.00000000000E+00 -0.00000000000E+00 -0.18310257252E+02  0.18310257252E+02  0.00000000000E+00 0. -1.
         25    1    1    2    0    0  0.00000000000E+00  0.00000000000E+00  0.19502645048E+03  0.23164696499E+03  0.12500000000E+03 0.  0.
<mgrwt>
<rscale>  0 0.12500000E+03</rscale>
<asrwt>0</asrwt>
<pdfrwt beam="1">  1       21 0.32821030E-01 0.12500000E+03</pdfrwt>
<pdfrwt beam="2">  1       21 0.28169628E-02 0.12500000E+03</pdfrwt>
<totfact> 0.61650459E+06</totfact>
</mgrwt>
</event>
<event>
 3    1  0.1573868E-001  0.1250000E+03  0.7546771E-02  0.1235069E+00
         21   -1    0    0  502  501  0.00000000000E+00  0.00000000000E+00  0.36613344186E+02  0.36613344186E+02  0.00000000000E+00 0.  1.
         21   -1    0    0  501  502 -0.00000000000E+00 -0.00000000000E+00 -0.10668924369E+03  0.10668924369E+03  0.00000000000E+00 0.  1.
         25    1    1    2    0    0  0.00000000000E+00  0.00000000000E+00 -0.70075899499E+02  0.14330258787E+03  0.12500000000E+03 0.  0.
<mgrwt>
<rscale>  0 0.12500000E+03</rscale>
<asrwt>0</asrwt>
<pdfrwt beam="1">  1       21 0.56328222E-02 0.12500000E+03</pdfrwt>
<pdfrwt beam="2">  1       21 0.16413730E-01 0.12500000E+03</pdfrwt>
<totfact> 0.71611040E+06</totfact>
</mgrwt>
</event>
<event>
 3    1  0.1573868E-001  0.1250000E+03  0.7546771E-02  0.1235069E+00
         21   -1    0    0  502  501  0.00000000000E+00  0.00000000000E+00  0.18063653604E+02  0.18063653604E+02  0.00000000000E+00 0. -1.
         21   -1    0    0  501  502 -0.00000000000E+00 -0.00000000000E+00 -0.21624916452E+03  0.21624916452E+03  0.00000000000E+00 0. -1.
         25    1    1    2    0    0  0.00000000000E+00  0.00000000000E+00 -0.19818551091E+03  0.23431281812E+03  0.12500000000E+03 0.  0.
<mgrwt>
<rscale>  0 0.12500000E+03</rscale>
<asrwt>0</asrwt>
<pdfrwt beam="1">  1       21 0.27790238E-02 0.12500000E+03</pdfrwt>
<pdfrwt beam="2">  1       21 0.33269101E-01 0.12500000E+03</pdfrwt>
<totfact> 0.61387380E+06</totfact>
</mgrwt>
</event>
<event>
 3    1  0.1573868E-001  0.1250000E+03  0.7546771E-02  0.1235069E+00
         21   -1    0    0  502  501  0.00000000000E+00  0.00000000000E+00  0.10090878323E+04  0.10090878323E+04  0.00000000000E+00 0.  1.
         21   -1    0    0  501  502 -0.00000000000E+00 -0.00000000000E+00 -0.38710703619E+01  0.38710703619E+01  0.00000000000E+00 0.  1.
         25    1    1    2    0    0  0.00000000000E+00  0.00000000000E+00  0.10052167619E+04  0.10129589026E+04  0.12500000000E+03 0.  0.
<mgrwt>
<rscale>  0 0.12500000E+03</rscale>
<asrwt>0</asrwt>
<pdfrwt beam="1">  1       21 0.15524407E+00 0.12500000E+03</pdfrwt>
<pdfrwt beam="2">  1       21 0.59555009E-03 0.12500000E+03</pdfrwt>
<totfact> 0.23297547E+06</totfact>
</mgrwt>
</event>
<event>
 3    1  0.1573868E-001  0.1250000E+03  0.7546771E-02  0.1235069E+00
         21   -1    0    0  502  501  0.00000000000E+00  0.00000000000E+00  0.26703906828E+02  0.26703906828E+02  0.00000000000E+00 0.  1.
         21   -1    0    0  501  502 -0.00000000000E+00 -0.00000000000E+00 -0.14628009396E+03  0.14628009396E+03  0.00000000000E+00 0.  1.
         25    1    1    2    0    0  0.00000000000E+00  0.00000000000E+00 -0.11957618714E+03  0.17298400079E+03  0.12500000000E+03 0.  0.
<mgrwt>
<rscale>  0 0.12500000E+03</rscale>
<asrwt>0</asrwt>
<pdfrwt beam="1">  1       21 0.41082933E-02 0.12500000E+03</pdfrwt>
<pdfrwt beam="2">  1       21 0.22504630E-01 0.12500000E+03</pdfrwt>
<totfact> 0.67965648E+06</totfact>
</mgrwt>
</event>
<event>
 3    1  0.1573868E-001  0.1250000E+03  0.7546771E-02  0.1235069E+00
         21   -1    0    0  502  501  0.00000000000E+00  0.00000000000E+00  0.20155100381E+02  0.20155100381E+02  0.00000000000E+00 0.  1.
         21   -1    0    0  501  502 -0.00000000000E+00 -0.00000000000E+00 -0.19380950361E+03  0.19380950361E+03  0.00000000000E+00 0.  1.
         25    1    1    2    0    0  0.00000000000E+00  0.00000000000E+00 -0.17365440323E+03  0.21396460399E+03  0.12500000000E+03 0.  0.
<mgrwt>
<rscale>  0 0.12500000E+03</rscale>
<asrwt>0</asrwt>
<pdfrwt beam="1">  1       21 0.31007847E-02 0.12500000E+03</pdfrwt>
<pdfrwt beam="2">  1       21 0.29816846E-01 0.12500000E+03</pdfrwt>
<totfact> 0.63444813E+06</totfact>
</mgrwt>
</event>
<event>
 3    1  0.1573868E-001  0.1250000E+03  0.7546771E-02  0.1235069E+00
         21   -1    0    0  502  501  0.00000000000E+00  0.00000000000E+00  0.30915013279E+03  0.30915013279E+03  0.00000000000E+00 0. -1.
         21   -1    0    0  501  502 -0.00000000000E+00 -0.00000000000E+00 -0.12635446619E+02  0.12635446619E+02  0.00000000000E+00 0. -1.
         25    1    1    2    0    0  0.00000000000E+00  0.00000000000E+00  0.29651468617E+03  0.32178557941E+03  0.12500000000E+03 0.  0.
<mgrwt>
<rscale>  0 0.12500000E+03</rscale>
<asrwt>0</asrwt>
<pdfrwt beam="1">  1       21 0.47561553E-01 0.12500000E+03</pdfrwt>
<pdfrwt beam="2">  1       21 0.19439151E-02 0.12500000E+03</pdfrwt>
<totfact> 0.53692150E+06</totfact>
</mgrwt>
</event>
<event>
 3    1  0.1573868E-001  0.1250000E+03  0.7546771E-02  0.1235069E+00
         21   -1    0    0  502  501  0.00000000000E+00  0.00000000000E+00  0.23298113413E+02  0.23298113413E+02  0.00000000000E+00 0. -1.
         21   -1    0    0  501  502 -0.00000000000E+00 -0.00000000000E+00 -0.16766379023E+03  0.16766379023E+03  0.00000000000E+00 0. -1.
         25    1    1    2    0    0  0.00000000000E+00  0.00000000000E+00 -0.14436567681E+03  0.19096190364E+03  0.12500000000E+03 0.  0.
<mgrwt>
<rscale>  0 0.12500000E+03</rscale>
<asrwt>0</asrwt>
<pdfrwt beam="1">  1       21 0.35843254E-02 0.12500000E+03</pdfrwt>
<pdfrwt beam="2">  1       21 0.25794428E-01 0.12500000E+03</pdfrwt>
<totfact> 0.65915718E+06</totfact>
</mgrwt>
</event>
<event>
 3    1  0.1573868E-001  0.1250000E+03  0.7546771E-02  0.1235069E+00
         21   -1    0    0  502  501  0.00000000000E+00  0.00000000000E+00  0.40714182054E+02  0.40714182054E+02  0.00000000000E+00 0.  1.
         21   -1    0    0  501  502 -0.00000000000E+00 -0.00000000000E+00 -0.95943226733E+02  0.95943226733E+02  0.00000000000E+00 0.  1.
         25    1    1    2    0    0  0.00000000000E+00  0.00000000000E+00 -0.55229044679E+02  0.13665740879E+03  0.12500000000E+03 0.  0.
<mgrwt>
<rscale>  0 0.12500000E+03</rscale>
<asrwt>0</asrwt>
<pdfrwt beam="1">  1       21 0.62637203E-02 0.12500000E+03</pdfrwt>
<pdfrwt beam="2">  1       21 0.14760496E-01 0.12500000E+03</pdfrwt>
<totfact> 0.72477756E+06</totfact>
</mgrwt>
</event>
<event>
 3    1  0.1573868E-001  0.1250000E+03  0.7546771E-02  0.1235069E+00
         21   -1    0    0  502  501  0.00000000000E+00  0.00000000000E+00  0.15193085594E+03  0.15193085594E+03  0.00000000000E+00 0.  1.
         21   -1    0    0  501  502 -0.00000000000E+00 -0.00000000000E+00 -0.25710708834E+02  0.25710708834E+02  0.00000000000E+00 0.  1.
         25    1    1    2    0    0  0.00000000000E+00  0.00000000000E+00  0.12622014711E+03  0.17764156478E+03  0.12500000000E+03 0.  0.
<mgrwt>
<rscale>  0 0.12500000E+03</rscale>
<asrwt>0</asrwt>
<pdfrwt beam="1">  1       21 0.23373977E-01 0.12500000E+03</pdfrwt>
<pdfrwt beam="2">  1       21 0.39554937E-02 0.12500000E+03</pdfrwt>
<totfact> 0.67423124E+06</totfact>
</mgrwt>
</event>
<event>
 3    1  0.1573868E-001  0.1250000E+03  0.7546771E-02  0.1235069E+00
         21   -1    0    0  502  501  0.00000000000E+00  0.00000000000E+00  0.21747395295E+04  0.21747395295E+04  0.00000000000E+00 0.  1.
         21   -1    0    0  501  502 -0.00000000000E+00 -0.00000000000E+00 -0.17961921173E+01  0.17961921173E+01  0.00000000000E+00 0.  1.
         25    1    1    2    0    0  0.00000000000E+00  0.00000000000E+00  0.21729433374E+04  0.21765357216E+04  0.12500000000E+03 0.  0.
<mgrwt>
<rscale>  0 0.12500000E+03</rscale>
<asrwt>0</asrwt>
<pdfrwt beam="1">  1       21 0.33457321E+00 0.12500000E+03</pdfrwt>
<pdfrwt beam="2">  1       21 0.27633899E-03 0.12500000E+03</pdfrwt>
<totfact> 0.63514110E+05</totfact>
</mgrwt>
</event>
<event>
 3    1  0.1573868E-001  0.1250000E+03  0.7546771E-02  0.1235069E+00
         21   -1    0    0  502  501  0.00000000000E+00  0.00000000000E+00  0.81579933987E+03  0.81579933987E+03  0.00000000000E+00 0.  1.
         21   -1    0    0  501  502 -0.00000000000E+00 -0.00000000000E+00 -0.47882485424E+01  0.47882485424E+01  0.00000000000E+00 0.  1.
         25    1    1    2    0    0  0.00000000000E+00  0.00000000000E+00  0.81101109132E+03  0.82058758841E+03  0.12500000000E+03 0.  0.
<mgrwt>
<rscale>  0 0.12500000E+03</rscale>
<asrwt>0</asrwt>
<pdfrwt beam="1">  1       21 0.12550748E+00 0.12500000E+03</pdfrwt>
<pdfrwt beam="2">  1       21 0.73665427E-03 0.12500000E+03</pdfrwt>
<totfact> 0.28691989E+06</totfact>
</mgrwt>
</event>
<event>
 3    1  0.1573868E-001  0.1250000E+03  0.7546771E-02  0.1235069E+00
         21   -1    0    0  502  501  0.00000000000E+00  0.00000000000E+00  0.66505315386E+02  0.66505315386E+02  0.00000000000E+00 0.  1.
         21   -1    0    0  501  502 -0.00000000000E+00 -0.00000000000E+00 -0.58735906707E+02  0.58735906707E+02  0.00000000000E+00 0.  1.
         25    1    1    2    0    0  0.00000000000E+00  0.00000000000E+00  0.77694086789E+01  0.12524122209E+03  0.12500000000E+03 0.  0.
<mgrwt>
<rscale>  0 0.12500000E+03</rscale>
<asrwt>0</asrwt>
<pdfrwt beam="1">  1       21 0.10231587E-01 0.12500000E+03</pdfrwt>
<pdfrwt beam="2">  1       21 0.90362933E-02 0.12500000E+03</pdfrwt>
<totfact> 0.74011006E+06</totfact>
</mgrwt>
</event>
<event>
 3    1  0.1573868E-001  0.1250000E+03  0.7546771E-02  0.1235069E+00
         21   -1    0    0  502  501  0.00000000000E+00  0.00000000000E+00  0.55722928494E+02  0.55722928494E+02  0.00000000000E+00 0. -1.
         21   -1    0    0  501  502 -0.00000000000E+00 -0.00000000000E+00 -0.70101304895E+02  0.70101304895E+02  0.00000000000E+00 0. -1.
         25    1    1    2    0    0  0.00000000000E+00  0.00000000000E+00 -0.14378376400E+02  0.12582423339E+03  0.12500000000E+03 0.  0.
<mgrwt>
<rscale>  0 0.12500000E+03</rscale>
<asrwt>0</asrwt>
<pdfrwt beam="1">  1       21 0.85727582E-02 0.12500000E+03</pdfrwt>
<pdfrwt beam="2">  1       21 0.10784816E-01 0.12500000E+03</pdfrwt>
<totfact> 0.73930317E+06</totfact>
</mgrwt>
</event>
<event>
 3    1  0.1573868E-001  0.1250000E+03  0.7546771E-02  0.1235069E+00
         21   -1    0    0  502  501  0.00000000000E+00  0.00000000000E+00  0.57211708363E+03  0.57211708363E+03  0.00000000000E+00 0. -1.
         21   -1    0    0  501  502 -0.00000000000E+00 -0.00000000000E+00 -0.68277108161E+01  0.68277108161E+01  0.00000000000E+00 0. -1.
         25    1    1    2    0    0  0.00000000000E+00  0.00000000000E+00  0.56528937281E+03  0.57894479445E+03  0.12500000000E+03 0.  0.
<mgrwt>
<rscale>  0 0.12500000E+03</rscale>
<asrwt>0</asrwt>
<pdfrwt beam="1">  1       21 0.88017975E-01 0.12500000E+03</pdfrwt>
<pdfrwt beam="2">  1       21 0.10504175E-02 0.12500000E+03</pdfrwt>
<totfact> 0.38062483E+06</totfact>
</mgrwt>
</event>
<event>
 3    1  0.1573868E-001  0.1250000E+03  0.7546771E-02  0.1235069E+00
         21   -1    0    0  502  501  0.00000000000E+00  0.00000000000E+00  0.22953584282E+03  0.22953584282E+03  0.00000000000E+00 0.  1.
         21   -1    0    0  501  502 -0.00000000000E+00 -0.00000000000E+00 -0.17018039326E+02  0.17018039326E+02  0.00000000000E+00 0.  1.
         25    1    1    2    0    0  0.00000000000E+00  0.00000000000E+00  0.21251780350E+03  0.24655388215E+03  0.12500000000E+03 0.  0.
<mgrwt>
<rscale>  0 0.12500000E+03</rscale>
<asrwt>0</asrwt>
<pdfrwt beam="1">  1       21 0.35313204E-01 0.12500000E+03</pdfrwt>
<pdfrwt beam="2">  1       21 0.26181601E-02 0.12500000E+03</pdfrwt>
<totfact> 0.60204163E+06</totfact>
</mgrwt>
</event>
<event>
 3    1  0.1573868E-001  0.1250000E+03  0.7546771E-02  0.1235069E+00
         21   -1    0    0  502  501  0.00000000000E+00  0.00000000000E+00  0.32336381911E+02  0.32336381911E+02  0.00000000000E+00 0. -1.
         21   -1    0    0  501  502 -0.00000000000E+00 -0.00000000000E+00 -0.12080046589E+03  0.12080046589E+03  0.00000000000E+00 0. -1.
         25    1    1    2    0    0  0.00000000000E+00  0.00000000000E+00 -0.88464083980E+02  0.15313684780E+03  0.12500000000E+03 0.  0.
<mgrwt>
<rscale>  0 0.12500000E+03</rscale>
<asrwt>0</asrwt>
<pdfrwt beam="1">  1       21 0.49748280E-02 0.12500000E+03</pdfrwt>
<pdfrwt beam="2">  1       21 0.18584687E-01 0.12500000E+03</pdfrwt>
<totfact> 0.70367344E+06</totfact>
</mgrwt>
</event>
<event>
 3    1  0.1573868E-001  0.1250000E+03  0.7546771E-02  0.1235069E+00
         21   -1    0    0  502  501  0.00000000000E+00  0.00000000000E+00  0.12449144142E+03  0.12449144142E+03  0.00000000000E+00 0. -1.
         21   -1    0    0  501  502 -0.00000000000E+00 -0.00000000000E+00 -0.31377659023E+02  0.31377659023E+02  0.00000000000E+00 0. -1.
         25    1    1    2    0    0  0.00000000000E+00  0.00000000000E+00  0.93113782394E+02  0.15586910044E+03  0.12500000000E+03 0.  0.
<mgrwt>
<rscale>  0 0.12500000E+03</rscale>
<asrwt>0</asrwt>
<pdfrwt beam="1">  1       21 0.19152529E-01 0.12500000E+03</pdfrwt>
<pdfrwt beam="2">  1       21 0.48273322E-02 0.12500000E+03</pdfrwt>
<totfact> 0.70027802E+06</totfact>
</mgrwt>
</event>
<event>
 3    1  0.1573868E-001  0.1250000E+03  0.7546771E-02  0.1235069E+00
         21   -1    0    0  502  501  0.00000000000E+00  0.00000000000E+00  0.48295586334E+03  0.48295586334E+03  0.00000000000E+00 0. -1.
         21   -1    0    0  501  502 -0.00000000000E+00 -0.00000000000E+00 -0.80882132230E+01  0.80882132230E+01  0.00000000000E+00 0. -1.
         25    1    1    2    0    0  0.00000000000E+00  0.00000000000E+00  0.47486765012E+03  0.49104407656E+03  0.12500000000E+03 0.  0.
<mgrwt>
<rscale>  0 0.12500000E+03</rscale>
<asrwt>0</asrwt>
<pdfrwt beam="1">  1       21 0.74300879E-01 0.12500000E+03</pdfrwt>
<pdfrwt beam="2">  1       21 0.12443409E-02 0.12500000E+03</pdfrwt>
<totfact> 0.42533980E+06</totfact>
</mgrwt>
</event>
<event>
 3    1  0.1573868E-001  0.1250000E+03  0.7546771E-02  0.1235069E+00
         21   -1    0    0  502  501  0.00000000000E+00  0.00000000000E+00  0.23243979918E+03  0.23243979918E+03  0.00000000000E+00 0.  1.
         21   -1    0    0  501  502 -0.00000000000E+00 -0.00000000000E+00 -0.16805426669E+02  0.16805426669E+02  0.00000000000E+00 0.  1.
         25    1    1    2    0    0  0.00000000000E+00  0.00000000000E+00  0.21563437251E+03  0.24924522585E+03  0.12500000000E+03 0.  0.
<mgrwt>
<rscale>  0 0.12500000E+03</rscale>
<asrwt>0</asrwt>
<pdfrwt beam="1">  1       21 0.35759967E-01 0.12500000E+03</pdfrwt>
<pdfrwt beam="2">  1       21 0.25854504E-02 0.12500000E+03</pdfrwt>
<totfact> 0.59949324E+06</totfact>
</mgrwt>
</event>
<event>
 3    1  0.1573868E-001  0.1250000E+03  0.7546771E-02  0.1235069E+00
         21   -1    0    0  502  501  0.00000000000E+00  0.00000000000E+00  0.28936238296E+03  0.28936238296E+03  0.00000000000E+00 0. -1.
         21   -1    0    0  501  502 -0.00000000000E+00 -0.00000000000E+00 -0.13499508678E+02  0.13499508678E+02  0.00000000000E+00 0. -1.
         25    1    1    2    0    0  0.00000000000E+00  0.00000000000E+00  0.27586287429E+03  0.30286189164E+03  0.12500000000E+03 0.  0.
<mgrwt>
<rscale>  0 0.12500000E+03</rscale>
<asrwt>0</asrwt>
<pdfrwt beam="1">  1       21 0.44517285E-01 0.12500000E+03</pdfrwt>
<pdfrwt beam="2">  1       21 0.20768477E-02 0.12500000E+03</pdfrwt>
<totfact> 0.55219177E+06</totfact>
</mgrwt>
</event>
<event>
 3    1  0.1573868E-001  0.1250000E+03  0.7546771E-02  0.1235069E+00
         21   -1    0    0  502  501  0.00000000000E+00  0.00000000000E+00  0.15490822749E+02  0.15490822749E+02  0.00000000000E+00 0. -1.
         21   -1    0    0  501  502 -0.00000000000E+00 -0.00000000000E+00 -0.25216543132E+03  0.25216543132E+03  0.00000000000E+00 0. -1.
         25    1    1    2    0    0  0.00000000000E+00  0.00000000000E+00 -0.23667460857E+03  0.26765625407E+03  0.12500000000E+03 0.  0.
<mgrwt>
<rscale>  0 0.12500000E+03</rscale>
<asrwt>0</asrwt>
<pdfrwt beam="1">  1       21 0.23832036E-02 0.12500000E+03</pdfrwt>
<pdfrwt beam="2">  1       21 0.38794681E-01 0.12500000E+03</pdfrwt>
<totfact> 0.58254564E+06</totfact>
</mgrwt>
</event>
<event>
 3    1  0.1573868E-001  0.1250000E+03  0.7546771E-02  0.1235069E+00
         21   -1    0    0  502  501  0.00000000000E+00  0.00000000000E+00  0.17107950222E+03  0.17107950222E+03  0.00000000000E+00 0. -1.
         21   -1    0    0  501  502 -0.00000000000E+00 -0.00000000000E+00 -0.22832951635E+02  0.22832951635E+02  0.00000000000E+00 0. -1.
         25    1    1    2    0    0  0.00000000000E+00  0.00000000000E+00  0.14824655059E+03  0.19391245386E+03  0.12500000000E+03 0.  0.
<mgrwt>
<rscale>  0 0.12500000E+03</rscale>
<asrwt>0</asrwt>
<pdfrwt beam="1">  1       21 0.26319923E-01 0.12500000E+03</pdfrwt>
<pdfrwt beam="2">  1       21 0.35127619E-02 0.12500000E+03</pdfrwt>
<totfact> 0.65590248E+06</totfact>
</mgrwt>
</event>
<event>
 3    1  0.1573868E-001  0.1250000E+03  0.7546771E-02  0.1235069E+00
         21   -1    0    0  502  501  0.00000000000E+00  0.00000000000E+00  0.83711201904E+03  0.83711201904E+03  0.00000000000E+00 0.  1.
         21   -1    0    0  501  502 -0.00000000000E+00 -0.00000000000E+00 -0.46663408375E+01  0.46663408375E+01  0.00000000000E+00 0.  1.
         25    1    1    2    0    0  0.00000000000E+00  0.00000000000E+00  0.83244567820E+03  0.84177835988E+03  0.12500000000E+03 0.  0.
<mgrwt>
<rscale>  0 0.12500000E+03</rscale>
<asrwt>0</asrwt>
<pdfrwt beam="1">  1       21 0.12878634E+00 0.12500000E+03</pdfrwt>
<pdfrwt beam="2">  1       21 0.71789926E-03 0.12500000E+03</pdfrwt>
<totfact> 0.28024578E+06</totfact>
</mgrwt>
</event>
<event>
 3    1  0.1573868E-001  0.1250000E+03  0.7546771E-02  0.1235069E+00
         21   -1    0    0  502  501  0.00000000000E+00  0.00000000000E+00  0.25373382060E+02  0.25373382060E+02  0.00000000000E+00 0. -1.
         21   -1    0    0  501  502 -0.00000000000E+00 -0.00000000000E+00 -0.15395070278E+03  0.15395070278E+03  0.00000000000E+00 0. -1.
         25    1    1    2    0    0  0.00000000000E+00  0.00000000000E+00 -0.12857732072E+03  0.17932408484E+03  0.12500000000E+03 0.  0.
<mgrwt>
<rscale>  0 0.12500000E+03</rscale>
<asrwt>0</asrwt>
<pdfrwt beam="1">  1       21 0.39035973E-02 0.12500000E+03</pdfrwt>
<pdfrwt beam="2">  1       21 0.23684723E-01 0.12500000E+03</pdfrwt>
<totfact> 0.67229160E+06</totfact>
</mgrwt>
</event>
<event>
 3    1  0.1573868E-001  0.1250000E+03  0.7546771E-02  0.1235069E+00
         21   -1    0    0  502  501  0.00000000000E+00  0.00000000000E+00  0.24977120397E+02  0.24977120397E+02  0.00000000000E+00 0. -1.
         21   -1    0    0  501  502 -0.00000000000E+00 -0.00000000000E+00 -0.15639312851E+03  0.15639312851E+03  0.00000000000E+00 0. -1.
         25    1    1    2    0    0  0.00000000000E+00  0.00000000000E+00 -0.13141600811E+03  0.18137024890E+03  0.12500000000E+03 0.  0.
<mgrwt>
<rscale>  0 0.12500000E+03</rscale>
<asrwt>0</asrwt>
<pdfrwt beam="1">  1       21 0.38426339E-02 0.12500000E+03</pdfrwt>
<pdfrwt beam="2">  1       21 0.24060482E-01 0.12500000E+03</pdfrwt>
<totfact> 0.66994692E+06</totfact>
</mgrwt>
</event>
<event>
 3    1  0.1573868E-001  0.1250000E+03  0.7546771E-02  0.1235069E+00
         21   -1    0    0  502  501  0.00000000000E+00  0.00000000000E+00  0.20350411203E+03  0.20350411203E+03  0.00000000000E+00 0. -1.
         21   -1    0    0  501  502 -0.00000000000E+00 -0.00000000000E+00 -0.19194943832E+02  0.19194943832E+02  0.00000000000E+00 0. -1.
         25    1    1    2    0    0  0.00000000000E+00  0.00000000000E+00  0.18430916820E+03  0.22269905586E+03  0.12500000000E+03 0.  0.
<mgrwt>
<rscale>  0 0.12500000E+03</rscale>
<asrwt>0</asrwt>
<pdfrwt beam="1">  1       21 0.31308323E-01 0.12500000E+03</pdfrwt>
<pdfrwt beam="2">  1       21 0.29530684E-02 0.12500000E+03</pdfrwt>
<totfact> 0.62547717E+06</totfact>
</mgrwt>
</event>
<event>
 3    1  0.1573868E-001  0.1250000E+03  0.7546771E-02  0.1235069E+00
         21   -1    0    0  502  501  0.00000000000E+00  0.00000000000E+00  0.76027466136E+02  0.76027466136E+02  0.00000000000E+00 0. -1.
         21   -1    0    0  501  502 -0.00000000000E+00 -0.00000000000E+00 -0.51379457958E+02  0.51379457958E+02  0.00000000000E+00 0. -1.
         25    1    1    2    0    0  0.00000000000E+00  0.00000000000E+00  0.24648008178E+02  0.12740692409E+03  0.12500000000E+03 0.  0.
<mgrwt>
<rscale>  0 0.12500000E+03</rscale>
<asrwt>0</asrwt>
<pdfrwt beam="1">  1       21 0.11696533E-01 0.12500000E+03</pdfrwt>
<pdfrwt beam="2">  1       21 0.79045320E-02 0.12500000E+03</pdfrwt>
<totfact> 0.73713840E+06</totfact>
</mgrwt>
</event>
<event>
 3    1  0.1573868E-001  0.1250000E+03  0.7546771E-02  0.1235069E+00
         21   -1    0    0  502  501  0.00000000000E+00  0.00000000000E+00  0.32577286262E+02  0.32577286262E+02  0.00000000000E+00 0.  1.
         21   -1    0    0  501  502 -0.00000000000E+00 -0.00000000000E+00 -0.11990716380E+03  0.11990716380E+03  0.00000000000E+00 0.  1.
         25    1    1    2    0    0  0.00000000000E+00  0.00000000000E+00 -0.87329877540E+02  0.15248445006E+03  0.12500000000E+03 0.  0.
<mgrwt>
<rscale>  0 0.12500000E+03</rscale>
<asrwt>0</asrwt>
<pdfrwt beam="1">  1       21 0.50118902E-02 0.12500000E+03</pdfrwt>
<pdfrwt beam="2">  1       21 0.18447256E-01 0.12500000E+03</pdfrwt>
<totfact> 0.70448486E+06</totfact>
</mgrwt>
</event>
<event>
 3    1  0.1573868E-001  0.1250000E+03  0.7546771E-02  0.1235069E+00
         21   -1    0    0  502  501  0.00000000000E+00  0.00000000000E+00  0.59329377033E+02  0.59329377033E+02  0.00000000000E+00 0. -1.
         21   -1    0    0  501  502 -0.00000000000E+00 -0.00000000000E+00 -0.65840064321E+02  0.65840064321E+02  0.00000000000E+00 0. -1.
         25    1    1    2    0    0  0.00000000000E+00  0.00000000000E+00 -0.65106872884E+01  0.12516944135E+03  0.12500000000E+03 0.  0.
<mgrwt>
<rscale>  0 0.12500000E+03</rscale>
<asrwt>0</asrwt>
<pdfrwt beam="1">  1       21 0.91275965E-02 0.12500000E+03</pdfrwt>
<pdfrwt beam="2">  1       21 0.10129241E-01 0.12500000E+03</pdfrwt>
<totfact> 0.74020698E+06</totfact>
</mgrwt>
</event>
<event>
 3    1  0.1573868E-001  0.1250000E+03  0.7546771E-02  0.1235069E+00
         21   -1    0    0  502  501  0.00000000000E+00  0.00000000000E+00  0.26579492561E+03  0.26579492561E+03  0.00000000000E+00 0.  1.
         21   -1    0    0  501  502 -0.00000000000E+00 -0.00000000000E+00 -0.14696480721E+02  0.14696480721E+02  0.00000000000E+00 0.  1.
         25    1    1    2    0    0  0.00000000000E+00  0.00000000000E+00  0.25109844489E+03  0.28049140633E+03  0.12500000000E+03 0.  0.
<mgrwt>
<rscale>  0 0.12500000E+03</rscale>
<asrwt>0</asrwt>
<pdfrwt beam="1">  1       21 0.40891524E-01 0.12500000E+03</pdfrwt>
<pdfrwt beam="2">  1       21 0.22609972E-02 0.12500000E+03</pdfrwt>
<totfact> 0.57117411E+06</totfact>
</mgrwt>
</event>
<event>
 3    1  0.1573868E-001  0.1250000E+03  0.7546771E-02  0.1235069E+00
         21   -1    0    0  502  501  0.00000000000E+00  0.00000000000E+00  0.53683268644E+02  0.53683268644E+02  0.00000000000E+00 0. -1.
         21   -1    0    0  501  502 -0.00000000000E+00 -0.00000000000E+00 -0.72764757040E+02  0.72764757040E+02  0.00000000000E+00 0. -1.
         25    1    1    2    0    0  0.00000000000E+00  0.00000000000E+00 -0.19081488396E+02  0.12644802568E+03  0.12500000000E+03 0.  0.
<mgrwt>
<rscale>  0 0.12500000E+03</rscale>
<asrwt>0</asrwt>
<pdfrwt beam="1">  1       21 0.82589644E-02 0.12500000E+03</pdfrwt>
<pdfrwt beam="2">  1       21 0.11194578E-01 0.12500000E+03</pdfrwt>
<totfact> 0.73844488E+06</totfact>
</mgrwt>
</event>
<event>
 3    1  0.1573868E-001  0.1250000E+03  0.7546771E-02  0.1235069E+00
         21   -1    0    0  502  501  0.00000000000E+00  0.00000000000E+00  0.21922743426E+02  0.21922743426E+02  0.00000000000E+00 0. -1.
         21   -1    0    0  501  502 -0.00000000000E+00 -0.00000000000E+00 -0.17818253510E+03  0.17818253510E+03  0.00000000000E+00 0. -1.
         25    1    1    2    0    0  0.00000000000E+00  0.00000000000E+00 -0.15625979167E+03  0.20010527853E+03  0.12500000000E+03 0.  0.
<mgrwt>
<rscale>  0 0.12500000E+03</rscale>
<asrwt>0</asrwt>
<pdfrwt beam="1">  1       21 0.33727298E-02 0.12500000E+03</pdfrwt>
<pdfrwt beam="2">  1       21 0.27412697E-01 0.12500000E+03</pdfrwt>
<totfact> 0.64915847E+06</totfact>
</mgrwt>
</event>
<event>
 3    1  0.1573868E-001  0.1250000E+03  0.7546771E-02  0.1235069E+00
         21   -1    0    0  502  501  0.00000000000E+00  0.00000000000E+00  0.32695916336E+02  0.32695916336E+02  0.00000000000E+00 0. -1.
         21   -1    0    0  501  502 -0.00000000000E+00 -0.00000000000E+00 -0.11947210654E+03  0.11947210654E+03  0.00000000000E+00 0. -1.
         25    1    1    2    0    0  0.00000000000E+00  0.00000000000E+00 -0.86776190207E+02  0.15216802288E+03  0.12500000000E+03 0.  0.
<mgrwt>
<rscale>  0 0.12500000E+03</rscale>
<asrwt>0</asrwt>
<pdfrwt beam="1">  1       21 0.50301409E-02 0.12500000E+03</pdfrwt>
<pdfrwt beam="2">  1       21 0.18380324E-01 0.12500000E+03</pdfrwt>
<totfact> 0.70487909E+06</totfact>
</mgrwt>
</event>
<event>
 3    1  0.1573868E-001  0.1250000E+03  0.7546771E-02  0.1235069E+00
         21   -1    0    0  502  501  0.00000000000E+00  0.00000000000E+00  0.18621198639E+03  0.18621198639E+03  0.00000000000E+00 0.  1.
         21   -1    0    0  501  502 -0.00000000000E+00 -0.00000000000E+00 -0.20977435856E+02  0.20977435856E+02  0.00000000000E+00 0.  1.
         25    1    1    2    0    0  0.00000000000E+00  0.00000000000E+00  0.16523455053E+03  0.20718942224E+03  0.12500000000E+03 0.  0.
<mgrwt>
<rscale>  0 0.12500000E+03</rscale>
<asrwt>0</asrwt>
<pdfrwt beam="1">  1       21 0.28647997E-01 0.12500000E+03</pdfrwt>
<pdfrwt beam="2">  1       21 0.32272979E-02 0.12500000E+03</pdfrwt>
<totfact> 0.64156459E+06</totfact>
</mgrwt>
</event>
<event>
 3    1  0.1573868E-001  0.1250000E+03  0.7546771E-02  0.1235069E+00
         21   -1    0    0  502  501  0.00000000000E+00  0.00000000000E+00  0.26605156777E+03  0.26605156777E+03  0.00000000000E+00 0.  1.
         21   -1    0    0  501  502 -0.00000000000E+00 -0.00000000000E+00 -0.14682304008E+02  0.14682304008E+02  0.00000000000E+00 0.  1.
         25    1    1    2    0    0  0.00000000000E+00  0.00000000000E+00  0.25136926377E+03  0.28073387178E+03  0.12500000000E+03 0.  0.
<mgrwt>
<rscale>  0 0.12500000E+03</rscale>
<asrwt>0</asrwt>
<pdfrwt beam="1">  1       21 0.40931007E-01 0.12500000E+03</pdfrwt>
<pdfrwt beam="2">  1       21 0.22588162E-02 0.12500000E+03</pdfrwt>
<totfact> 0.57096261E+06</totfact>
</mgrwt>
</event>
<event>
 3    1  0.1573868E-001  0.1250000E+03  0.7546771E-02  0.1235069E+00
         21   -1    0    0  502  501  0.00000000000E+00  0.00000000000E+00  0.17221881731E+02  0.17221881731E+02  0.00000000000E+00 0. -1.
         21   -1    0    0  501  502 -0.00000000000E+00 -0.00000000000E+00 -0.22681900044E+03  0.22681900044E+03  0.00000000000E+00 0. -1.
         25    1    1    2    0    0  0.00000000000E+00  0.00000000000E+00 -0.20959711871E+03  0.24404088217E+03  0.12500000000E+03 0.  0.
<mgrwt>
<rscale>  0 0.12500000E+03</rscale>
<asrwt>0</asrwt>
<pdfrwt beam="1">  1       21 0.26495205E-02 0.12500000E+03</pdfrwt>
<pdfrwt beam="2">  1       21 0.34895228E-01 0.12500000E+03</pdfrwt>
<totfact> 0.60443814E+06</totfact>
</mgrwt>
</event>
<event>
 3    1  0.1573868E-001  0.1250000E+03  0.7546771E-02  0.1235069E+00
         21   -1    0    0  502  501  0.00000000000E+00  0.00000000000E+00  0.63321057093E+02  0.63321057093E+02  0.00000000000E+00 0.  1.
         21   -1    0    0  501  502 -0.00000000000E+00 -0.00000000000E+00 -0.61689589204E+02  0.61689589204E+02  0.00000000000E+00 0.  1.
         25    1    1    2    0    0  0.00000000000E+00  0.00000000000E+00  0.16314678893E+01  0.12501064630E+03  0.12500000000E+03 0.  0.
<mgrwt>
<rscale>  0 0.12500000E+03</rscale>
<asrwt>0</asrwt>
<pdfrwt beam="1">  1       21 0.97417011E-02 0.12500000E+03</pdfrwt>
<pdfrwt beam="2">  1       21 0.94907060E-02 0.12500000E+03</pdfrwt>
<totfact> 0.74042143E+06</totfact>
</mgrwt>
</event>
<event>
 3    1  0.1573868E-001  0.1250000E+03  0.7546771E-02  0.1235069E+00
         21   -1    0    0  502  501  0.00000000000E+00  0.00000000000E+00  0.28797297598E+02  0.28797297598E+02  0.00000000000E+00 0.  1.
         21   -1    0    0  501  502 -0.00000000000E+00 -0.00000000000E+00 -0.13564640872E+03  0.13564640872E+03  0.00000000000E+00 0.  1.
         25    1    1    2    0    0  0.00000000000E+00  0.00000000000E+00 -0.10684911112E+03  0.16444370632E+03  0.12500000000E+03 0.  0.
<mgrwt>
<rscale>  0 0.12500000E+03</rscale>
<asrwt>0</asrwt>
<pdfrwt beam="1">  1       21 0.44303534E-02 0.12500000E+03</pdfrwt>
<pdfrwt beam="2">  1       21 0.20868679E-01 0.12500000E+03</pdfrwt>
<totfact> 0.68980558E+06</totfact>
</mgrwt>
</event>
<event>
 3    1  0.1573868E-001  0.1250000E+03  0.7546771E-02  0.1235069E+00
         21   -1    0    0  502  501  0.00000000000E+00  0.00000000000E+00  0.50501894691E+02  0.50501894691E+02  0.00000000000E+00 0.  1.
         21   -1    0    0  501  502 -0.00000000000E+00 -0.00000000000E+00 -0.77348583135E+02  0.77348583135E+02  0.00000000000E+00 0.  1.
         25    1    1    2    0    0  0.00000000000E+00  0.00000000000E+00 -0.26846688444E+02  0.12785047783E+03  0.12500000000E+03 0.  0.
<mgrwt>
<rscale>  0 0.12500000E+03</rscale>
<asrwt>0</asrwt>
<pdfrwt beam="1">  1       21 0.77695223E-02 0.12500000E+03</pdfrwt>
<pdfrwt beam="2">  1       21 0.11899782E-01 0.12500000E+03</pdfrwt>
<totfact> 0.73653767E+06</totfact>
</mgrwt>
</event>
<event>
 3    1  0.1573868E-001  0.1250000E+03  0.7546771E-02  0.1235069E+00
         21   -1    0    0  502  501  0.00000000000E+00  0.00000000000E+00  0.56298607879E+03  0.56298607879E+03  0.00000000000E+00 0.  1.
         21   -1    0    0  501  502 -0.00000000000E+00 -0.00000000000E+00 -0.69384486530E+01  0.69384486530E+01  0.00000000000E+00 0.  1.
         25    1    1    2    0    0  0.00000000000E+00  0.00000000000E+00  0.55604763013E+03  0.56992452744E+03  0.12500000000E+03 0.  0.
<mgrwt>
<rscale>  0 0.12500000E+03</rscale>
<asrwt>0</asrwt>
<pdfrwt beam="1">  1       21 0.86613207E-01 0.12500000E+03</pdfrwt>
<pdfrwt beam="2">  1       21 0.10674541E-02 0.12500000E+03</pdfrwt>
<totfact> 0.38489076E+06</totfact>
</mgrwt>
</event>
<event>
 3    1  0.1573868E-001  0.1250000E+03  0.7546771E-02  0.1235069E+00
         21   -1    0    0  502  501  0.00000000000E+00  0.00000000000E+00  0.44911380972E+01  0.44911380972E+01  0.00000000000E+00 0.  1.
         21   -1    0    0  501  502 -0.00000000000E+00 -0.00000000000E+00 -0.86976840067E+03  0.86976840067E+03  0.00000000000E+00 0.  1.
         25    1    1    2    0    0  0.00000000000E+00  0.00000000000E+00 -0.86527726257E+03  0.87425953877E+03  0.12500000000E+03 0.  0.
<mgrwt>
<rscale>  0 0.12500000E+03</rscale>
<asrwt>0</asrwt>
<pdfrwt beam="1">  1       21 0.69094494E-03 0.12500000E+03</pdfrwt>
<pdfrwt beam="2">  1       21 0.13381040E+00 0.12500000E+03</pdfrwt>
<totfact> 0.27044684E+06</totfact>
</mgrwt>
</event>
<event>
 3    1  0.1573868E-001  0.1250000E+03  0.7546771E-02  0.1235069E+00
         21   -1    0    0  502  501  0.00000000000E+00  0.00000000000E+00  0.39481579245E+02  0.39481579245E+02  0.00000000000E+00 0. -1.
         21   -1    0    0  501  502 -0.00000000000E+00 -0.00000000000E+00 -0.98938544878E+02  0.98938544878E+02  0.00000000000E+00 0. -1.
         25    1    1    2    0    0  0.00000000000E+00  0.00000000000E+00 -0.59456965632E+02  0.13842012412E+03  0.12500000000E+03 0.  0.
<mgrwt>
<rscale>  0 0.12500000E+03</rscale>
<asrwt>0</asrwt>
<pdfrwt beam="1">  1       21 0.60740892E-02 0.12500000E+03</pdfrwt>
<pdfrwt beam="2">  1       21 0.15221314E-01 0.12500000E+03</pdfrwt>
<totfact> 0.72246235E+06</totfact>
</mgrwt>
</event>
<event>
 3    1  0.1573868E-001  0.1250000E+03  0.7546771E-02  0.1235069E+00
         21   -1    0    0  502  501  0.00000000000E+00  0.00000000000E+00  0.69356751524E+02  0.69356751524E+02  0.00000000000E+00 0.  1.
         21   -1    0    0  501  502 -0.00000000000E+00 -0.00000000000E+00 -0.56321121076E+02  0.56321121076E+02  0.00000000000E+00 0.  1.
         25    1    1    2    0    0  0.00000000000E+00  0.00000000000E+00  0.13035630448E+02  0.12567787260E+03  0.12500000000E+03 0.  0.
<mgrwt>
<rscale>  0 0.12500000E+03</rscale>
<asrwt>0</asrwt>
<pdfrwt beam="1">  1       21 0.10670269E-01 0.12500000E+03</pdfrwt>
<pdfrwt beam="2">  1       21 0.86647879E-02 0.12500000E+03</pdfrwt>
<totfact> 0.73950610E+06</totfact>
</mgrwt>
</event>
<event>
 3    1  0.1573868E-001  0.1250000E+03  0.7546771E-02  0.1235069E+00
         21   -1    0    0  502  501  0.00000000000E+00  0.00000000000E+00  0.47701651318E+02  0.47701651318E+02  0.00000000000E+00 0.  1.
         21   -1    0    0  501  502 -0.00000000000E+00 -0.00000000000E+00 -0.81889198634E+02  0.81889198634E+02  0.00000000000E+00 0.  1.
         25    1    1    2    0    0  0.00000000000E+00  0.00000000000E+00 -0.34187547316E+02  0.12959084995E+03  0.12500000000E+03 0.  0.
<mgrwt>
<rscale>  0 0.12500000E+03</rscale>
<asrwt>0</asrwt>
<pdfrwt beam="1">  1       21 0.73387156E-02 0.12500000E+03</pdfrwt>
<pdfrwt beam="2">  1       21 0.12598338E-01 0.12500000E+03</pdfrwt>
<totfact> 0.73419649E+06</totfact>
</mgrwt>
</event>
<event>
 3    1  0.1573868E-001  0.1250000E+03  0.7546771E-02  0.1235069E+00
         21   -1    0    0  502  501  0.00000000000E+00  0.00000000000E+00  0.20908359616E+01  0.20908359616E+01  0.00000000000E+00 0. -1.
         21   -1    0    0  501  502 -0.00000000000E+00 -0.00000000000E+00 -0.18682718643E+04  0.18682718643E+04  0.00000000000E+00 0. -1.
         25    1    1    2    0    0  0.00000000000E+00  0.00000000000E+00 -0.18661810283E+04  0.18703627003E+04  0.12500000000E+03 0.  0.
<mgrwt>
<rscale>  0 0.12500000E+03</rscale>
<asrwt>0</asrwt>
<pdfrwt beam="1">  1       21 0.32166734E-03 0.12500000E+03</pdfrwt>
<pdfrwt beam="2">  1       21 0.28742620E+00 0.12500000E+03</pdfrwt>
<totfact> 0.92831681E+05</totfact>
</mgrwt>
</event>
<event>
 3    1  0.1573868E-001  0.1250000E+03  0.7546771E-02  0.1235069E+00
         21   -1    0    0  502  501  0.00000000000E+00  0.00000000000E+00  0.12386864490E+02  0.12386864490E+02  0.00000000000E+00 0. -1.
         21   -1    0    0  501  502 -0.00000000000E+00 -0.00000000000E+00 -0.31535422085E+03  0.31535422085E+03  0.00000000000E+00 0. -1.
         25    1    1    2    0    0  0.00000000000E+00  0.00000000000E+00 -0.30296735636E+03  0.32774108534E+03  0.12500000000E+03 0.  0.
<mgrwt>
<rscale>  0 0.12500000E+03</rscale>
<asrwt>0</asrwt>
<pdfrwt beam="1">  1       21 0.19056715E-02 0.12500000E+03</pdfrwt>
<pdfrwt beam="2">  1       21 0.48516032E-01 0.12500000E+03</pdfrwt>
<totfact> 0.53225547E+06</totfact>
</mgrwt>
</event>
<event>
 3    1  0.1573868E-001  0.1250000E+03  0.7546771E-02  0.1235069E+00
         21   -1    0    0  502  501  0.00000000000E+00  0.00000000000E+00  0.70761929465E+02  0.70761929465E+02  0.00000000000E+00 0. -1.
         21   -1    0    0  501  502 -0.00000000000E+00 -0.00000000000E+00 -0.55202706166E+02  0.55202706166E+02  0.00000000000E+00 0. -1.
         25    1    1    2    0    0  0.00000000000E+00  0.00000000000E+00  0.15559223300E+02  0.12596463563E+03  0.12500000000E+03 0.  0.
<mgrwt>
<rscale>  0 0.12500000E+03</rscale>
<asrwt>0</asrwt>
<pdfrwt beam="1">  1       21 0.10886451E-01 0.12500000E+03</pdfrwt>
<pdfrwt beam="2">  1       21 0.84927240E-02 0.12500000E+03</pdfrwt>
<totfact> 0.73910916E+06</totfact>
</mgrwt>
</event>
<event>
 3    1  0.1573868E-001  0.1250000E+03  0.7546771E-02  0.1235069E+00
         21   -1    0    0  502  501  0.00000000000E+00  0.00000000000E+00  0.66145359084E+02  0.66145359084E+02  0.00000000000E+00 0. -1.
         21   -1    0    0  501  502 -0.00000000000E+00 -0.00000000000E+00 -0.59055541524E+02  0.59055541524E+02  0.00000000000E+00 0. -1.
         25    1    1    2    0    0  0.00000000000E+00  0.00000000000E+00  0.70898175606E+01  0.12520090061E+03  0.12500000000E+03 0.  0.
<mgrwt>
<rscale>  0 0.12500000E+03</rscale>
<asrwt>0</asrwt>
<pdfrwt beam="1">  1       21 0.10176209E-01 0.12500000E+03</pdfrwt>
<pdfrwt beam="2">  1       21 0.90854679E-02 0.12500000E+03</pdfrwt>
<totfact> 0.74016450E+06</totfact>
</mgrwt>
</event>
<event>
 3    1  0.1573868E-001  0.1250000E+03  0.7546771E-02  0.1235069E+00
         21   -1    0    0  502  501  0.00000000000E+00  0.00000000000E+00  0.71525410640E+03  0.71525410640E+03  0.00000000000E+00 0. -1.
         21   -1    0    0  501  502 -0.00000000000E+00 -0.00000000000E+00 -0.54613457861E+01  0.54613457861E+01  0.00000000000E+00 0. -1.
         25    1    1    2    0    0  0.00000000000E+00  0.00000000000E+00  0.70979276061E+03  0.72071545219E+03  0.12500000000E+03 0.  0.
<mgrwt>
<rscale>  0 0.12500000E+03</rscale>
<asrwt>0</asrwt>
<pdfrwt beam="1">  1       21 0.11003902E+00 0.12500000E+03</pdfrwt>
<pdfrwt beam="2">  1       21 0.84020761E-03 0.12500000E+03</pdfrwt>
<totfact> 0.32126652E+06</totfact>
</mgrwt>
</event>
<event>
 3    1  0.1573868E-001  0.1250000E+03  0.7546771E-02  0.1235069E+00
         21   -1    0    0  502  501  0.00000000000E+00  0.00000000000E+00  0.59880507153E+02  0.59880507153E+02  0.00000000000E+00 0.  1.
         21   -1    0    0  501  502 -0.00000000000E+00 -0.00000000000E+00 -0.65234083439E+02  0.65234083439E+02  0.00000000000E+00 0.  1.
         25    1    1    2    0    0  0.00000000000E+00  0.00000000000E+00 -0.53535762860E+01  0.12511459059E+03  0.12500000000E+03 0.  0.
<mgrwt>
<rscale>  0 0.12500000E+03</rscale>
<asrwt>0</asrwt>
<pdfrwt beam="1">  1       21 0.92123857E-02 0.12500000E+03</pdfrwt>
<pdfrwt beam="2">  1       21 0.10036013E-01 0.12500000E+03</pdfrwt>
<totfact> 0.74028105E+06</totfact>
</mgrwt>
</event>
<event>
 3    1  0.1573868E-001  0.1250000E+03  0.7546771E-02  0.1235069E+00
         21   -1    0    0  502  501  0.00000000000E+00  0.00000000000E+00  0.54455769411E+02  0.54455769411E+02  0.00000000000E+00 0.  1.
         21   -1    0    0  501  502 -0.00000000000E+00 -0.00000000000E+00 -0.71732527926E+02  0.71732527926E+02  0.00000000000E+00 0.  1.
         25    1    1    2    0    0  0.00000000000E+00  0.00000000000E+00 -0.17276758515E+02  0.12618829734E+03  0.12500000000E+03 0.  0.
<mgrwt>
<rscale>  0 0.12500000E+03</rscale>
<asrwt>0</asrwt>
<pdfrwt beam="1">  1       21 0.83778107E-02 0.12500000E+03</pdfrwt>
<pdfrwt beam="2">  1       21 0.11035774E-01 0.12500000E+03</pdfrwt>
<totfact> 0.73880118E+06</totfact>
</mgrwt>
</event>
<event>
 3    1  0.1573868E-001  0.1250000E+03  0.7546771E-02  0.1235069E+00
         21   -1    0    0  502  501  0.00000000000E+00  0.00000000000E+00  0.14957628423E+03  0.14957628423E+03  0.00000000000E+00 0.  1.
         21   -1    0    0  501  502 -0.00000000000E+00 -0.00000000000E+00 -0.26115436816E+02  0.26115436816E+02  0.00000000000E+00 0.  1.
         25    1    1    2    0    0  0.00000000000E+00  0.00000000000E+00  0.12346084742E+03  0.17569172105E+03  0.12500000000E+03 0.  0.
<mgrwt>
<rscale>  0 0.12500000E+03</rscale>
<asrwt>0</asrwt>
<pdfrwt beam="1">  1       21 0.23011735E-01 0.12500000E+03</pdfrwt>
<pdfrwt beam="2">  1       21 0.40177596E-02 0.12500000E+03</pdfrwt>
<totfact> 0.67649239E+06</totfact>
</mgrwt>
</event>
<event>
 3    1  0.1573868E-001  0.1250000E+03  0.7546771E-02  0.1235069E+00
         21   -1    0    0  502  501  0.00000000000E+00  0.00000000000E+00  0.11138159422E+03  0.11138159422E+03  0.00000000000E+00 0. -1.
         21   -1    0    0  501  502 -0.00000000000E+00 -0.00000000000E+00 -0.35070875286E+02  0.35070875286E+02  0.00000000000E+00 0. -1.
         25    1    1    2    0    0  0.00000000000E+00  0.00000000000E+00  0.76310718934E+02  0.14645246951E+03  0.12500000000E+03 0.  0.
<mgrwt>
<rscale>  0 0.12500000E+03</rscale>
<asrwt>0</asrwt>
<pdfrwt beam="1">  1       21 0.17135630E-01 0.12500000E+03</pdfrwt>
<pdfrwt beam="2">  1       21 0.53955193E-02 0.12500000E+03</pdfrwt>
<totfact> 0.71207734E+06</totfact>
</mgrwt>
</event>
<event>
 3    1  0.1573868E-001  0.1250000E+03  0.7546771E-02  0.1235069E+00
         21   -1    0    0  502  501  0.00000000000E+00  0.00000000000E+00  0.79067148010E+03  0.79067148010E+03  0.00000000000E+00 0.  1.
         21   -1    0    0  501  502 -0.00000000000E+00 -0.00000000000E+00 -0.49404210198E+01  0.49404210198E+01  0.00000000000E+00 0.  1.
         25    1    1    2    0    0  0.00000000000E+00  0.00000000000E+00  0.78573105908E+03  0.79561190112E+03  0.12500000000E+03 0.  0.
<mgrwt>
<rscale>  0 0.12500000E+03</rscale>
<asrwt>0</asrwt>
<pdfrwt beam="1">  1       21 0.12164167E+00 0.12500000E+03</pdfrwt>
<pdfrwt beam="2">  1       21 0.76006540E-03 0.12500000E+03</pdfrwt>
<totfact> 0.29508744E+06</totfact>
</mgrwt>
</event>
<event>
 3    1  0.1573868E-001  0.1250000E+03  0.7546771E-02  0.1235069E+00
         21   -1    0    0  502  501  0.00000000000E+00  0.00000000000E+00  0.16477708013E+03  0.16477708013E+03  0.00000000000E+00 0.  1.
         21   -1    0    0  501  502 -0.00000000000E+00 -0.00000000000E+00 -0.23706270294E+02  0.23706270294E+02  0.00000000000E+00 0.  1.
         25    1    1    2    0    0  0.00000000000E+00  0.00000000000E+00  0.14107080984E+03  0.18848335043E+03  0.12500000000E+03 0.  0.
<mgrwt>
<rscale>  0 0.12500000E+03</rscale>
<asrwt>0</asrwt>
<pdfrwt beam="1">  1       21 0.25350319E-01 0.12500000E+03</pdfrwt>
<pdfrwt beam="2">  1       21 0.36471186E-02 0.12500000E+03</pdfrwt>
<totfact> 0.66191423E+06</totfact>
</mgrwt>
</event>
<event>
 3    1  0.1573868E-001  0.1250000E+03  0.7546771E-02  0.1235069E+00
         21   -1    0    0  502  501  0.00000000000E+00  0.00000000000E+00  0.90256498093E+01  0.90256498093E+01  0.00000000000E+00 0. -1.
         21   -1    0    0  501  502 -0.00000000000E+00 -0.00000000000E+00 -0.43279432313E+03  0.43279432313E+03  0.00000000000E+00 0. -1.
         25    1    1    2    0    0  0.00000000000E+00  0.00000000000E+00 -0.42376867332E+03  0.44181997294E+03  0.12500000000E+03 0.  0.
<mgrwt>
<rscale>  0 0.12500000E+03</rscale>
<asrwt>0</asrwt>
<pdfrwt beam="1">  1       21 0.13885615E-02 0.12500000E+03</pdfrwt>
<pdfrwt beam="2">  1       21 0.66583743E-01 0.12500000E+03</pdfrwt>
<totfact> 0.45385772E+06</totfact>
</mgrwt>
</event>
<event>
 3    1  0.1573868E-001  0.1250000E+03  0.7546771E-02  0.1235069E+00
         21   -1    0    0  502  501  0.00000000000E+00  0.00000000000E+00  0.48630650148E+02  0.48630650148E+02  0.00000000000E+00 0. -1.
         21   -1    0    0  501  502 -0.00000000000E+00 -0.00000000000E+00 -0.80324856609E+02  0.80324856609E+02  0.00000000000E+00 0. -1.
         25    1    1    2    0    0  0.00000000000E+00  0.00000000000E+00 -0.31694206461E+02  0.12895550676E+03  0.12500000000E+03 0.  0.
<mgrwt>
<rscale>  0 0.12500000E+03</rscale>
<asrwt>0</asrwt>
<pdfrwt beam="1">  1       21 0.74816385E-02 0.12500000E+03</pdfrwt>
<pdfrwt beam="2">  1       21 0.12357670E-01 0.12500000E+03</pdfrwt>
<totfact> 0.73504857E+06</totfact>
</mgrwt>
</event>
<event>
 3    1  0.1573868E-001  0.1250000E+03  0.7546771E-02  0.1235069E+00
         21   -1    0    0  502  501  0.00000000000E+00  0.00000000000E+00  0.35040245609E+03  0.35040245609E+03  0.00000000000E+00 0. -1.
         21   -1    0    0  501  502 -0.00000000000E+00 -0.00000000000E+00 -0.11147895604E+02  0.11147895604E+02  0.00000000000E+00 0. -1.
         25    1    1    2    0    0  0.00000000000E+00  0.00000000000E+00  0.33925456049E+03  0.36155035169E+03  0.12500000000E+03 0.  0.
<mgrwt>
<rscale>  0 0.12500000E+03</rscale>
<asrwt>0</asrwt>
<pdfrwt beam="1">  1       21 0.53908062E-01 0.12500000E+03</pdfrwt>
<pdfrwt beam="2">  1       21 0.17150611E-02 0.12500000E+03</pdfrwt>
<totfact> 0.50696559E+06</totfact>
</mgrwt>
</event>
<event>
 3    1  0.1573868E-001  0.1250000E+03  0.7546771E-02  0.1235069E+00
         21   -1    0    0  502  501  0.00000000000E+00  0.00000000000E+00  0.18540489241E+03  0.18540489241E+03  0.00000000000E+00 0. -1.
         21   -1    0    0  501  502 -0.00000000000E+00 -0.00000000000E+00 -0.21068753630E+02  0.21068753630E+02  0.00000000000E+00 0. -1.
         25    1    1    2    0    0  0.00000000000E+00  0.00000000000E+00  0.16433613878E+03  0.20647364604E+03  0.12500000000E+03 0.  0.
<mgrwt>
<rscale>  0 0.12500000E+03</rscale>
<asrwt>0</asrwt>
<pdfrwt beam="1">  1       21 0.28523828E-01 0.12500000E+03</pdfrwt>
<pdfrwt beam="2">  1       21 0.32413468E-02 0.12500000E+03</pdfrwt>
<totfact> 0.64232469E+06</totfact>
</mgrwt>
</event>
<event>
 3    1  0.1573868E-001  0.1250000E+03  0.7546771E-02  0.1235069E+00
         21   -1    0    0  502  501  0.00000000000E+00  0.00000000000E+00  0.88192326702E+02  0.88192326702E+02  0.00000000000E+00 0.  1.
         21   -1    0    0  501  502 -0.00000000000E+00 -0.00000000000E+00 -0.44292402141E+02  0.44292402141E+02  0.00000000000E+00 0.  1.
         25    1    1    2    0    0  0.00000000000E+00  0.00000000000E+00  0.43899924561E+02  0.13248472884E+03  0.12500000000E+03 0.  0.
<mgrwt>
<rscale>  0 0.12500000E+03</rscale>
<asrwt>0</asrwt>
<pdfrwt beam="1">  1       21 0.13568050E-01 0.12500000E+03</pdfrwt>
<pdfrwt beam="2">  1       21 0.68142157E-02 0.12500000E+03</pdfrwt>
<totfact> 0.73031283E+06</totfact>
</mgrwt>
</event>
<event>
 3    1  0.1573868E-001  0.1250000E+03  0.7546771E-02  0.1235069E+00
         21   -1    0    0  502  501  0.00000000000E+00  0.00000000000E+00  0.52870458803E+01  0.52870458803E+01  0.00000000000E+00 0.  1.
         21   -1    0    0  501  502 -0.00000000000E+00 -0.00000000000E+00 -0.73883414074E+03  0.73883414074E+03  0.00000000000E+00 0.  1.
         25    1    1    2    0    0  0.00000000000E+00  0.00000000000E+00 -0.73354709486E+03  0.74412118662E+03  0.12500000000E+03 0.  0.
<mgrwt>
<rscale>  0 0.12500000E+03</rscale>
<asrwt>0</asrwt>
<pdfrwt beam="1">  1       21 0.81339136E-03 0.12500000E+03</pdfrwt>
<pdfrwt beam="2">  1       21 0.11366683E+00 0.12500000E+03</pdfrwt>
<totfact> 0.31276703E+06</totfact>
</mgrwt>
</event>
<event>
 3    1  0.1573868E-001  0.1250000E+03  0.7546771E-02  0.1235069E+00
         21   -1    0    0  502  501  0.00000000000E+00  0.00000000000E+00  0.73708583430E+02  0.73708583430E+02  0.00000000000E+00 0. -1.
         21   -1    0    0  501  502 -0.00000000000E+00 -0.00000000000E+00 -0.52995863144E+02  0.52995863144E+02  0.00000000000E+00 0. -1.
         25    1    1    2    0    0  0.00000000000E+00  0.00000000000E+00  0.20712720286E+02  0.12670444657E+03  0.12500000000E+03 0.  0.
<mgrwt>
<rscale>  0 0.12500000E+03</rscale>
<asrwt>0</asrwt>
<pdfrwt beam="1">  1       21 0.11339782E-01 0.12500000E+03</pdfrwt>
<pdfrwt beam="2">  1       21 0.81532096E-02 0.12500000E+03</pdfrwt>
<totfact> 0.73809428E+06</totfact>
</mgrwt>
</event>
<event>
 3    1  0.1573868E-001  0.1250000E+03  0.7546771E-02  0.1235069E+00
         21   -1    0    0  502  501  0.00000000000E+00  0.00000000000E+00  0.68952445686E+03  0.68952445686E+03  0.00000000000E+00 0. -1.
         21   -1    0    0  501  502 -0.00000000000E+00 -0.00000000000E+00 -0.56651362561E+01  0.56651362561E+01  0.00000000000E+00 0. -1.
         25    1    1    2    0    0  0.00000000000E+00  0.00000000000E+00  0.68385932060E+03  0.69518959312E+03  0.12500000000E+03 0.  0.
<mgrwt>
<rscale>  0 0.12500000E+03</rscale>
<asrwt>0</asrwt>
<pdfrwt beam="1">  1       21 0.10608062E+00 0.12500000E+03</pdfrwt>
<pdfrwt beam="2">  1       21 0.87155997E-03 0.12500000E+03</pdfrwt>
<totfact> 0.33096440E+06</totfact>
</mgrwt>
</event>
<event>
 3    1  0.1573868E-001  0.1250000E+03  0.7546771E-02  0.1235069E+00
         21   -1    0    0  502  501  0.00000000000E+00  0.00000000000E+00  0.13242919315E+03  0.13242919315E+03  0.00000000000E+00 0. -1.
         21   -1    0    0  501  502 -0.00000000000E+00 -0.00000000000E+00 -0.29496894960E+02  0.29496894960E+02  0.00000000000E+00 0. -1.
         25    1    1    2    0    0  0.00000000000E+00  0.00000000000E+00  0.10293229819E+03  0.16192608811E+03  0.12500000000E+03 0.  0.
<mgrwt>
<rscale>  0 0.12500000E+03</rscale>
<asrwt>0</asrwt>
<pdfrwt beam="1">  1       21 0.20373722E-01 0.12500000E+03</pdfrwt>
<pdfrwt beam="2">  1       21 0.45379839E-02 0.12500000E+03</pdfrwt>
<totfact> 0.69284911E+06</totfact>
</mgrwt>
</event>
<event>
 3    1  0.1573868E-001  0.1250000E+03  0.7546771E-02  0.1235069E+00
         21   -1    0    0  502  501  0.00000000000E+00  0.00000000000E+00  0.16037971721E+02  0.16037971721E+02  0.00000000000E+00 0. -1.
         21   -1    0    0  501  502 -0.00000000000E+00 -0.00000000000E+00 -0.24356259432E+03  0.24356259432E+03  0.00000000000E+00 0. -1.
         25    1    1    2    0    0  0.00000000000E+00  0.00000000000E+00 -0.22752462260E+03  0.25960056604E+03  0.12500000000E+03 0.  0.
<mgrwt>
<rscale>  0 0.12500000E+03</rscale>
<asrwt>0</asrwt>
<pdfrwt beam="1">  1       21 0.24673806E-02 0.12500000E+03</pdfrwt>
<pdfrwt beam="2">  1       21 0.37471164E-01 0.12500000E+03</pdfrwt>
<totfact> 0.58985903E+06</totfact>
</mgrwt>
</event>
<event>
 3    1  0.1573868E-001  0.1250000E+03  0.7546771E-02  0.1235069E+00
         21   -1    0    0  502  501  0.00000000000E+00  0.00000000000E+00  0.14784352768E+02  0.14784352768E+02  0.00000000000E+00 0. -1.
         21   -1    0    0  501  502 -0.00000000000E+00 -0.00000000000E+00 -0.26421515107E+03  0.26421515107E+03  0.00000000000E+00 0. -1.
         25    1    1    2    0    0  0.00000000000E+00  0.00000000000E+00 -0.24943079830E+03  0.27899950384E+03  0.12500000000E+03 0.  0.
<mgrwt>
<rscale>  0 0.12500000E+03</rscale>
<asrwt>0</asrwt>
<pdfrwt beam="1">  1       21 0.22745159E-02 0.12500000E+03</pdfrwt>
<pdfrwt beam="2">  1       21 0.40648484E-01 0.12500000E+03</pdfrwt>
<totfact> 0.57247837E+06</totfact>
</mgrwt>
</event>
<event>
 3    1  0.1573868E-001  0.1250000E+03  0.7546771E-02  0.1235069E+00
         21   -1    0    0  502  501  0.00000000000E+00  0.00000000000E+00  0.18850998154E+04  0.18850998154E+04  0.00000000000E+00 0.  1.
         21   -1    0    0  501  502 -0.00000000000E+00 -0.00000000000E+00 -0.20721714405E+01  0.20721714405E+01  0.00000000000E+00 0.  1.
         25    1    1    2    0    0  0.00000000000E+00  0.00000000000E+00  0.18830276440E+04  0.18871719868E+04  0.12500000000E+03 0.  0.
<mgrwt>
<rscale>  0 0.12500000E+03</rscale>
<asrwt>0</asrwt>
<pdfrwt beam="1">  1       21 0.29001399E+00 0.12500000E+03</pdfrwt>
<pdfrwt beam="2">  1       21 0.31879711E-03 0.12500000E+03</pdfrwt>
<totfact> 0.91018293E+05</totfact>
</mgrwt>
</event>
<event>
 3    1  0.1573868E-001  0.1250000E+03  0.7546771E-02  0.1235069E+00
         21   -1    0    0  502  501  0.00000000000E+00  0.00000000000E+00  0.21796941706E+02  0.21796941706E+02  0.00000000000E+00 0.  1.
         21   -1    0    0  501  502 -0.00000000000E+00 -0.00000000000E+00 -0.17921092108E+03  0.17921092108E+03  0.00000000000E+00 0.  1.
         25    1    1    2    0    0  0.00000000000E+00  0.00000000000E+00 -0.15741397938E+03  0.20100786279E+03  0.12500000000E+03 0.  0.
<mgrwt>
<rscale>  0 0.12500000E+03</rscale>
<asrwt>0</asrwt>
<pdfrwt beam="1">  1       21 0.33533755E-02 0.12500000E+03</pdfrwt>
<pdfrwt beam="2">  1       21 0.27570912E-01 0.12500000E+03</pdfrwt>
<totfact> 0.64818207E+06</totfact>
</mgrwt>
</event>
<event>
 3    1  0.1573868E-001  0.1250000E+03  0.7546771E-02  0.1235069E+00
         21   -1    0    0  502  501  0.00000000000E+00  0.00000000000E+00  0.13130031376E+03  0.13130031376E+03  0.00000000000E+00 0. -1.
         21   -1    0    0  501  502 -0.00000000000E+00 -0.00000000000E+00 -0.29750500118E+02  0.29750500118E+02  0.00000000000E+00 0. -1.
         25    1    1    2    0    0  0.00000000000E+00  0.00000000000E+00  0.10154981364E+03  0.16105081388E+03  0.12500000000E+03 0.  0.
<mgrwt>
<rscale>  0 0.12500000E+03</rscale>
<asrwt>0</asrwt>
<pdfrwt beam="1">  1       21 0.20200048E-01 0.12500000E+03</pdfrwt>
<pdfrwt beam="2">  1       21 0.45770001E-02 0.12500000E+03</pdfrwt>
<totfact> 0.69391325E+06</totfact>
</mgrwt>
</event>
<event>
 3    1  0.1573868E-001  0.1250000E+03  0.7546771E-02  0.1235069E+00
         21   -1    0    0  502  501  0.00000000000E+00  0.00000000000E+00  0.27855976250E+02  0.27855976250E+02  0.00000000000E+00 0.  1.
         21   -1    0    0  501  502 -0.00000000000E+00 -0.00000000000E+00 -0.14023023156E+03  0.14023023156E+03  0.00000000000E+00 0.  1.
         25    1    1    2    0    0  0.00000000000E+00  0.00000000000E+00 -0.11237425531E+03  0.16808620781E+03  0.12500000000E+03 0.  0.
<mgrwt>
<rscale>  0 0.12500000E+03</rscale>
<asrwt>0</asrwt>
<pdfrwt beam="1">  1       21 0.42855348E-02 0.12500000E+03</pdfrwt>
<pdfrwt beam="2">  1       21 0.21573882E-01 0.12500000E+03</pdfrwt>
<totfact> 0.68544699E+06</totfact>
</mgrwt>
</event>
<event>
 3    1  0.1573868E-001  0.1250000E+03  0.7546771E-02  0.1235069E+00
         21   -1    0    0  502  501  0.00000000000E+00  0.00000000000E+00  0.55825740606E+02  0.55825740606E+02  0.00000000000E+00 0.  1.
         21   -1    0    0  501  502 -0.00000000000E+00 -0.00000000000E+00 -0.69972202027E+02  0.69972202027E+02  0.00000000000E+00 0.  1.
         25    1    1    2    0    0  0.00000000000E+00  0.00000000000E+00 -0.14146461422E+02  0.12579794263E+03  0.12500000000E+03 0.  0.
<mgrwt>
<rscale>  0 0.12500000E+03</rscale>
<asrwt>0</asrwt>
<pdfrwt beam="1">  1       21 0.85885755E-02 0.12500000E+03</pdfrwt>
<pdfrwt beam="2">  1       21 0.10764954E-01 0.12500000E+03</pdfrwt>
<totfact> 0.73933957E+06</totfact>
</mgrwt>
</event>
<event>
 3    1  0.1573868E-001  0.1250000E+03  0.7546771E-02  0.1235069E+00
         21   -1    0    0  502  501  0.00000000000E+00  0.00000000000E+00  0.10302680439E+02  0.10302680439E+02  0.00000000000E+00 0.  1.
         21   -1    0    0  501  502 -0.00000000000E+00 -0.00000000000E+00 -0.37914890431E+03  0.37914890431E+03  0.00000000000E+00 0.  1.
         25    1    1    2    0    0  0.00000000000E+00  0.00000000000E+00 -0.36884622387E+03  0.38945158475E+03  0.12500000000E+03 0.  0.
<mgrwt>
<rscale>  0 0.12500000E+03</rscale>
<asrwt>0</asrwt>
<pdfrwt beam="1">  1       21 0.15850276E-02 0.12500000E+03</pdfrwt>
<pdfrwt beam="2">  1       21 0.58330607E-01 0.12500000E+03</pdfrwt>
<totfact> 0.48748974E+06</totfact>
</mgrwt>
</event>
<event>
 3    1  0.1573868E-001  0.1250000E+03  0.7546771E-02  0.1235069E+00
         21   -1    0    0  502  501  0.00000000000E+00  0.00000000000E+00  0.30105041130E+02  0.30105041130E+02  0.00000000000E+00 0.  1.
         21   -1    0    0  501  502 -0.00000000000E+00 -0.00000000000E+00 -0.12975401638E+03  0.12975401638E+03  0.00000000000E+00 0.  1.
         25    1    1    2    0    0  0.00000000000E+00  0.00000000000E+00 -0.99648975255E+02  0.15985905751E+03  0.12500000000E+03 0.  0.
<mgrwt>
<rscale>  0 0.12500000E+03</rscale>
<asrwt>0</asrwt>
<pdfrwt beam="1">  1       21 0.46315448E-02 0.12500000E+03</pdfrwt>
<pdfrwt beam="2">  1       21 0.19962156E-01 0.12500000E+03</pdfrwt>
<totfact> 0.69536722E+06</totfact>
</mgrwt>
</event>
<event>
 3    1  0.1573868E-001  0.1250000E+03  0.7546771E-02  0.1235069E+00
         21   -1    0    0  502  501  0.00000000000E+00  0.00000000000E+00  0.16439211377E+02  0.16439211377E+02  0.00000000000E+00 0.  1.
         21   -1    0    0  501  502 -0.00000000000E+00 -0.00000000000E+00 -0.23761784617E+03  0.23761784617E+03  0.00000000000E+00 0.  1.
         25    1    1    2    0    0  0.00000000000E+00  0.00000000000E+00 -0.22117863479E+03  0.25405705754E+03  0.12500000000E+03 0.  0.
<mgrwt>
<rscale>  0 0.12500000E+03</rscale>
<asrwt>0</asrwt>
<pdfrwt beam="1">  1       21 0.25291096E-02 0.12500000E+03</pdfrwt>
<pdfrwt beam="2">  1       21 0.36556589E-01 0.12500000E+03</pdfrwt>
<totfact> 0.59498313E+06</totfact>
</mgrwt>
</event>
<event>
 3    1  0.1573868E-001  0.1250000E+03  0.7546771E-02  0.1235069E+00
         21   -1    0    0  502  501  0.00000000000E+00  0.00000000000E+00  0.41497826281E+02  0.41497826281E+02  0.00000000000E+00 0.  1.
         21   -1    0    0  501  502 -0.00000000000E+00 -0.00000000000E+00 -0.94131436513E+02  0.94131436513E+02  0.00000000000E+00 0.  1.
         25    1    1    2    0    0  0.00000000000E+00  0.00000000000E+00 -0.52633610232E+02  0.13562926279E+03  0.12500000000E+03 0.  0.
<mgrwt>
<rscale>  0 0.12500000E+03</rscale>
<asrwt>0</asrwt>
<pdfrwt beam="1">  1       21 0.63842809E-02 0.12500000E+03</pdfrwt>
<pdfrwt beam="2">  1       21 0.14481760E-01 0.12500000E+03</pdfrwt>
<totfact> 0.72613261E+06</totfact>
</mgrwt>
</event>
<event>
 3    1  0.1573868E-001  0.1250000E+03  0.7546771E-02  0.1235069E+00
         21   -1    0    0  502  501  0.00000000000E+00  0.00000000000E+00  0.12694139371E+03  0.12694139371E+03  0.00000000000E+00 0.  1.
         21   -1    0    0  501  502 -0.00000000000E+00 -0.00000000000E+00 -0.30772074307E+02  0.30772074307E+02  0.00000000000E+00 0.  1.
         25    1    1    2    0    0  0.00000000000E+00  0.00000000000E+00  0.96169319408E+02  0.15771346802E+03  0.12500000000E+03 0.  0.
<mgrwt>
<rscale>  0 0.12500000E+03</rscale>
<asrwt>0</asrwt>
<pdfrwt beam="1">  1       21 0.19529445E-01 0.12500000E+03</pdfrwt>
<pdfrwt beam="2">  1       21 0.47341654E-02 0.12500000E+03</pdfrwt>
<totfact> 0.69799970E+06</totfact>
</mgrwt>
</event>
<event>
 3    1  0.1573868E-001  0.1250000E+03  0.7546771E-02  0.1235069E+00
         21   -1    0    0  502  501  0.00000000000E+00  0.00000000000E+00  0.25372781917E+03  0.25372781917E+03  0.00000000000E+00 0.  1.
         21   -1    0    0  501  502 -0.00000000000E+00 -0.00000000000E+00 -0.15395434418E+02  0.15395434418E+02  0.00000000000E+00 0.  1.
         25    1    1    2    0    0  0.00000000000E+00  0.00000000000E+00  0.23833238475E+03  0.26912325359E+03  0.12500000000E+03 0.  0.
<mgrwt>
<rscale>  0 0.12500000E+03</rscale>
<asrwt>0</asrwt>
<pdfrwt beam="1">  1       21 0.39035046E-01 0.12500000E+03</pdfrwt>
<pdfrwt beam="2">  1       21 0.23685285E-02 0.12500000E+03</pdfrwt>
<totfact> 0.58123035E+06</totfact>
</mgrwt>
</event>
<event>
 3    1  0.1573868E-001  0.1250000E+03  0.7546771E-02  0.1235069E+00
         21   -1    0    0  502  501  0.00000000000E+00  0.00000000000E+00  0.38962212412E+02  0.38962212412E+02  0.00000000000E+00 0. -1.
         21   -1    0    0  501  502 -0.00000000000E+00 -0.00000000000E+00 -0.10025739706E+03  0.10025739706E+03  0.00000000000E+00 0. -1.
         25    1    1    2    0    0  0.00000000000E+00  0.00000000000E+00 -0.61295184644E+02  0.13921960947E+03  0.12500000000E+03 0.  0.
<mgrwt>
<rscale>  0 0.12500000E+03</rscale>
<asrwt>0</asrwt>
<pdfrwt beam="1">  1       21 0.59941866E-02 0.12500000E+03</pdfrwt>
<pdfrwt beam="2">  1       21 0.15424215E-01 0.12500000E+03</pdfrwt>
<totfact> 0.72141351E+06</totfact>
</mgrwt>
</event>
<event>
 3    1  0.1573868E-001  0.1250000E+03  0.7546771E-02  0.1235069E+00
         21   -1    0    0  502  501  0.00000000000E+00  0.00000000000E+00  0.15286930943E+02  0.15286930943E+02  0.00000000000E+00 0. -1.
         21   -1    0    0  501  502 -0.00000000000E+00 -0.00000000000E+00 -0.25552872676E+03  0.25552872676E+03  0.00000000000E+00 0. -1.
         25    1    1    2    0    0  0.00000000000E+00  0.00000000000E+00 -0.24024179582E+03  0.27081565770E+03  0.12500000000E+03 0.  0.
<mgrwt>
<rscale>  0 0.12500000E+03</rscale>
<asrwt>0</asrwt>
<pdfrwt beam="1">  1       21 0.23518356E-02 0.12500000E+03</pdfrwt>
<pdfrwt beam="2">  1       21 0.39312110E-01 0.12500000E+03</pdfrwt>
<totfact> 0.57971915E+06</totfact>
</mgrwt>
</event>
<event>
 3    1  0.1573868E-001  0.1250000E+03  0.7546771E-02  0.1235069E+00
         21   -1    0    0  502  501  0.00000000000E+00  0.00000000000E+00  0.37482576719E+02  0.37482576719E+02  0.00000000000E+00 0. -1.
         21   -1    0    0  501  502 -0.00000000000E+00 -0.00000000000E+00 -0.10421508717E+03  0.10421508717E+03  0.00000000000E+00 0. -1.
         25    1    1    2    0    0  0.00000000000E+00  0.00000000000E+00 -0.66732510449E+02  0.14169766389E+03  0.12500000000E+03 0.  0.
<mgrwt>
<rscale>  0 0.12500000E+03</rscale>
<asrwt>0</asrwt>
<pdfrwt beam="1">  1       21 0.57665504E-02 0.12500000E+03</pdfrwt>
<pdfrwt beam="2">  1       21 0.16033090E-01 0.12500000E+03</pdfrwt>
<totfact> 0.71818450E+06</totfact>
</mgrwt>
</event>
<event>
 3    1  0.1573868E-001  0.1250000E+03  0.7546771E-02  0.1235069E+00
         21   -1    0    0  502  501  0.00000000000E+00  0.00000000000E+00  0.18050651620E+01  0.18050651620E+01  0.00000000000E+00 0. -1.
         21   -1    0    0  501  502 -0.00000000000E+00 -0.00000000000E+00 -0.21640492998E+04  0.21640492998E+04  0.00000000000E+00 0. -1.
         25    1    1    2    0    0  0.00000000000E+00  0.00000000000E+00 -0.21622442347E+04  0.21658543650E+04  0.12500000000E+03 0.  0.
<mgrwt>
<rscale>  0 0.12500000E+03</rscale>
<asrwt>0</asrwt>
<pdfrwt beam="1">  1       21 0.27770408E-03 0.12500000E+03</pdfrwt>
<pdfrwt beam="2">  1       21 0.33292856E+00 0.12500000E+03</pdfrwt>
<totfact> 0.64411237E+05</totfact>
</mgrwt>
</event>
<event>
 3    1  0.1573868E-001  0.1250000E+03  0.7546771E-02  0.1235069E+00
         21   -1    0    0  502  501  0.00000000000E+00  0.00000000000E+00  0.53537785633E+02  0.53537785633E+02  0.00000000000E+00 0.  1.
         21   -1    0    0  501  502 -0.00000000000E+00 -0.00000000000E+00 -0.72962487220E+02  0.72962487220E+02  0.00000000000E+00 0.  1.
         25    1    1    2    0    0  0.00000000000E+00  0.00000000000E+00 -0.19424701587E+02  0.12650027285E+03  0.12500000000E+03 0.  0.
<mgrwt>
<rscale>  0 0.12500000E+03</rscale>
<asrwt>0</asrwt>
<pdfrwt beam="1">  1       21 0.82365824E-02 0.12500000E+03</pdfrwt>
<pdfrwt beam="2">  1       21 0.11224998E-01 0.12500000E+03</pdfrwt>
<totfact> 0.73837336E+06</totfact>
</mgrwt>
</event>
<event>
 3    1  0.1573868E-001  0.1250000E+03  0.7546771E-02  0.1235069E+00
         21   -1    0    0  502  501  0.00000000000E+00  0.00000000000E+00  0.18219091226E+03  0.18219091226E+03  0.00000000000E+00 0.  1.
         21   -1    0    0  501  502 -0.00000000000E+00 -0.00000000000E+00 -0.21440421762E+02  0.21440421762E+02  0.00000000000E+00 0.  1.
         25    1    1    2    0    0  0.00000000000E+00  0.00000000000E+00  0.16075049050E+03  0.20363133402E+03  0.12500000000E+03 0.  0.
<mgrwt>
<rscale>  0 0.12500000E+03</rscale>
<asrwt>0</asrwt>
<pdfrwt beam="1">  1       21 0.28029370E-01 0.12500000E+03</pdfrwt>
<pdfrwt beam="2">  1       21 0.32985265E-02 0.12500000E+03</pdfrwt>
<totfact> 0.64535885E+06</totfact>
</mgrwt>
</event>
<event>
 3    1  0.1573868E-001  0.1250000E+03  0.7546771E-02  0.1235069E+00
         21   -1    0    0  502  501  0.00000000000E+00  0.00000000000E+00  0.80499921585E+02  0.80499921585E+02  0.00000000000E+00 0.  1.
         21   -1    0    0  501  502 -0.00000000000E+00 -0.00000000000E+00 -0.48524891988E+02  0.48524891988E+02  0.00000000000E+00 0.  1.
         25    1    1    2    0    0  0.00000000000E+00  0.00000000000E+00  0.31975029597E+02  0.12902481357E+03  0.12500000000E+03 0.  0.
<mgrwt>
<rscale>  0 0.12500000E+03</rscale>
<asrwt>0</asrwt>
<pdfrwt beam="1">  1       21 0.12384603E-01 0.12500000E+03</pdfrwt>
<pdfrwt beam="2">  1       21 0.74653680E-02 0.12500000E+03</pdfrwt>
<totfact> 0.73495548E+06</totfact>
</mgrwt>
</event>
<event>
 3    1  0.1573868E-001  0.1250000E+03  0.7546771E-02  0.1235069E+00
         21   -1    0    0  502  501  0.00000000000E+00  0.00000000000E+00  0.87874829709E+01  0.87874829709E+01  0.00000000000E+00 0.  1.
         21   -1    0    0  501  502 -0.00000000000E+00 -0.00000000000E+00 -0.44452433227E+03  0.44452433227E+03  0.00000000000E+00 0.  1.
         25    1    1    2    0    0  0.00000000000E+00  0.00000000000E+00 -0.43573684930E+03  0.45331181525E+03  0.12500000000E+03 0.  0.
<mgrwt>
<rscale>  0 0.12500000E+03</rscale>
<asrwt>0</asrwt>
<pdfrwt beam="1">  1       21 0.13519207E-02 0.12500000E+03</pdfrwt>
<pdfrwt beam="2">  1       21 0.68388346E-01 0.12500000E+03</pdfrwt>
<totfact> 0.44694763E+06</totfact>
</mgrwt>
</event>
<event>
 3    1  0.1573868E-001  0.1250000E+03  0.7546771E-02  0.1235069E+00
         21   -1    0    0  502  501  0.00000000000E+00  0.00000000000E+00  0.54712053924E+02  0.54712053924E+02  0.00000000000E+00 0. -1.
         21   -1    0    0  501  502 -0.00000000000E+00 -0.00000000000E+00 -0.71396515391E+02  0.71396515391E+02  0.00000000000E+00 0. -1.
         25    1    1    2    0    0  0.00000000000E+00  0.00000000000E+00 -0.16684461467E+02  0.12610856931E+03  0.12500000000E+03 0.  0.
<mgrwt>
<rscale>  0 0.12500000E+03</rscale>
<asrwt>0</asrwt>
<pdfrwt beam="1">  1       21 0.84172391E-02 0.12500000E+03</pdfrwt>
<pdfrwt beam="2">  1       21 0.10984079E-01 0.12500000E+03</pdfrwt>
<totfact> 0.73891083E+06</totfact>
</mgrwt>
</event>
<event>
 3    1  0.1573868E-001  0.1250000E+03  0.7546771E-02  0.1235069E+00
         21   -1    0    0  502  501  0.00000000000E+00  0.00000000000E+00  0.54662063366E+02  0.54662063366E+02  0.00000000000E+00 0. -1.
         21   -1    0    0  501  502 -0.00000000000E+00 -0.00000000000E+00 -0.71461810247E+02  0.71461810247E+02  0.00000000000E+00 0. -1.
         25    1    1    2    0    0  0.00000000000E+00  0.00000000000E+00 -0.16799746881E+02  0.12612387361E+03  0.12500000000E+03 0.  0.
<mgrwt>
<rscale>  0 0.12500000E+03</rscale>
<asrwt>0</asrwt>
<pdfrwt beam="1">  1       21 0.84095482E-02 0.12500000E+03</pdfrwt>
<pdfrwt beam="2">  1       21 0.10994125E-01 0.12500000E+03</pdfrwt>
<totfact> 0.73888977E+06</totfact>
</mgrwt>
</event>
<event>
 3    1  0.1573868E-001  0.1250000E+03  0.7546771E-02  0.1235069E+00
         21   -1    0    0  502  501  0.00000000000E+00  0.00000000000E+00  0.14163616173E+02  0.14163616173E+02  0.00000000000E+00 0. -1.
         21   -1    0    0  501  502 -0.00000000000E+00 -0.00000000000E+00 -0.27579468071E+03  0.27579468071E+03  0.00000000000E+00 0. -1.
         25    1    1    2    0    0  0.00000000000E+00  0.00000000000E+00 -0.26163106454E+03  0.28995829688E+03  0.12500000000E+03 0.  0.
<mgrwt>
<rscale>  0 0.12500000E+03</rscale>
<asrwt>0</asrwt>
<pdfrwt beam="1">  1       21 0.21790180E-02 0.12500000E+03</pdfrwt>
<pdfrwt beam="2">  1       21 0.42429949E-01 0.12500000E+03</pdfrwt>
<totfact> 0.56301142E+06</totfact>
</mgrwt>
</event>
<event>
 3    1  0.1573868E-001  0.1250000E+03  0.7546771E-02  0.1235069E+00
         21   -1    0    0  502  501  0.00000000000E+00  0.00000000000E+00  0.16012779720E+02  0.16012779720E+02  0.00000000000E+00 0. -1.
         21   -1    0    0  501  502 -0.00000000000E+00 -0.00000000000E+00 -0.24394577758E+03  0.24394577758E+03  0.00000000000E+00 0. -1.
         25    1    1    2    0    0  0.00000000000E+00  0.00000000000E+00 -0.22793299786E+03  0.25995855730E+03  0.12500000000E+03 0.  0.
<mgrwt>
<rscale>  0 0.12500000E+03</rscale>
<asrwt>0</asrwt>
<pdfrwt beam="1">  1       21 0.24635046E-02 0.12500000E+03</pdfrwt>
<pdfrwt beam="2">  1       21 0.37530119E-01 0.12500000E+03</pdfrwt>
<totfact> 0.58953070E+06</totfact>
</mgrwt>
</event>
<event>
 3    1  0.1573868E-001  0.1250000E+03  0.7546771E-02  0.1235069E+00
         21   -1    0    0  502  501  0.00000000000E+00  0.00000000000E+00  0.15270844732E+02  0.15270844732E+02  0.00000000000E+00 0.  1.
         21   -1    0    0  501  502 -0.00000000000E+00 -0.00000000000E+00 -0.25579789910E+03  0.25579789910E+03  0.00000000000E+00 0.  1.
         25    1    1    2    0    0  0.00000000000E+00  0.00000000000E+00 -0.24052705437E+03  0.27106874383E+03  0.12500000000E+03 0.  0.
<mgrwt>
<rscale>  0 0.12500000E+03</rscale>
<asrwt>0</asrwt>
<pdfrwt beam="1">  1       21 0.23493610E-02 0.12500000E+03</pdfrwt>
<pdfrwt beam="2">  1       21 0.39353519E-01 0.12500000E+03</pdfrwt>
<totfact> 0.57949375E+06</totfact>
</mgrwt>
</event>
<event>
 3    1  0.1573868E-001  0.1250000E+03  0.7546771E-02  0.1235069E+00
         21   -1    0    0  502  501  0.00000000000E+00  0.00000000000E+00  0.27087108180E+02  0.27087108180E+02  0.00000000000E+00 0. -1.
         21   -1    0    0  501  502 -0.00000000000E+00 -0.00000000000E+00 -0.14421066930E+03  0.14421066930E+03  0.00000000000E+00 0. -1.
         25    1    1    2    0    0  0.00000000000E+00  0.00000000000E+00 -0.11712356112E+03  0.17129777748E+03  0.12500000000E+03 0.  0.
<mgrwt>
<rscale>  0 0.12500000E+03</rscale>
<asrwt>0</asrwt>
<pdfrwt beam="1">  1       21 0.41672474E-02 0.12500000E+03</pdfrwt>
<pdfrwt beam="2">  1       21 0.22186257E-01 0.12500000E+03</pdfrwt>
<totfact> 0.68164123E+06</totfact>
</mgrwt>
</event>
<event>
 3    1  0.1573868E-001  0.1250000E+03  0.7546771E-02  0.1235069E+00
         21   -1    0    0  502  501  0.00000000000E+00  0.00000000000E+00  0.68173887493E+02  0.68173887493E+02  0.00000000000E+00 0. -1.
         21   -1    0    0  501  502 -0.00000000000E+00 -0.00000000000E+00 -0.57298331424E+02  0.57298331424E+02  0.00000000000E+00 0. -1.
         25    1    1    2    0    0  0.00000000000E+00  0.00000000000E+00  0.10875556069E+02  0.12547221892E+03  0.12500000000E+03 0.  0.
<mgrwt>
<rscale>  0 0.12500000E+03</rscale>
<asrwt>0</asrwt>
<pdfrwt beam="1">  1       21 0.10488290E-01 0.12500000E+03</pdfrwt>
<pdfrwt beam="2">  1       21 0.88151279E-02 0.12500000E+03</pdfrwt>
<totfact> 0.73979283E+06</totfact>
</mgrwt>
</event>
<event>
 3    1  0.1573868E-001  0.1250000E+03  0.7546771E-02  0.1235069E+00
         21   -1    0    0  502  501  0.00000000000E+00  0.00000000000E+00  0.19749195036E+02  0.19749195036E+02  0.00000000000E+00 0.  1.
         21   -1    0    0  501  502 -0.00000000000E+00 -0.00000000000E+00 -0.19779287170E+03  0.19779287170E+03  0.00000000000E+00 0.  1.
         25    1    1    2    0    0  0.00000000000E+00  0.00000000000E+00 -0.17804367667E+03  0.21754206674E+03  0.12500000000E+03 0.  0.
<mgrwt>
<rscale>  0 0.12500000E+03</rscale>
<asrwt>0</asrwt>
<pdfrwt beam="1">  1       21 0.30383378E-02 0.12500000E+03</pdfrwt>
<pdfrwt beam="2">  1       21 0.30429672E-01 0.12500000E+03</pdfrwt>
<totfact> 0.63074656E+06</totfact>
</mgrwt>
</event>
<event>
 3    1  0.1573868E-001  0.1250000E+03  0.7546771E-02  0.1235069E+00
         21   -1    0    0  502  501  0.00000000000E+00  0.00000000000E+00  0.90573726896E+03  0.90573726896E+03  0.00000000000E+00 0. -1.
         21   -1    0    0  501  502 -0.00000000000E+00 -0.00000000000E+00 -0.43127848813E+01  0.43127848813E+01  0.00000000000E+00 0. -1.
         25    1    1    2    0    0  0.00000000000E+00  0.00000000000E+00  0.90142448408E+03  0.91005005384E+03  0.12500000000E+03 0.  0.
<mgrwt>
<rscale>  0 0.12500000E+03</rscale>
<asrwt>0</asrwt>
<pdfrwt beam="1">  1       21 0.13934404E+00 0.12500000E+03</pdfrwt>
<pdfrwt beam="2">  1       21 0.66350609E-03 0.12500000E+03</pdfrwt>
<totfact> 0.26012229E+06</totfact>
</mgrwt>
</event>
<event>
 3    1  0.1573868E-001  0.1250000E+03  0.7546771E-02  0.1235069E+00
         21   -1    0    0  502  501  0.00000000000E+00  0.00000000000E+00  0.43597438735E+02  0.43597438735E+02  0.00000000000E+00 0.  1.
         21   -1    0    0  501  502 -0.00000000000E+00 -0.00000000000E+00 -0.89598153316E+02  0.89598153316E+02  0.00000000000E+00 0.  1.
         25    1    1    2    0    0  0.00000000000E+00  0.00000000000E+00 -0.46000714581E+02  0.13319559205E+03  0.12500000000E+03 0.  0.
<mgrwt>
<rscale>  0 0.12500000E+03</rscale>
<asrwt>0</asrwt>
<pdfrwt beam="1">  1       21 0.67072983E-02 0.12500000E+03</pdfrwt>
<pdfrwt beam="2">  1       21 0.13784331E-01 0.12500000E+03</pdfrwt>
<totfact> 0.72936291E+06</totfact>
</mgrwt>
</event>
<event>
 3    1  0.1573868E-001  0.1250000E+03  0.7546771E-02  0.1235069E+00
         21   -1    0    0  502  501  0.00000000000E+00  0.00000000000E+00  0.27173318100E+03  0.27173318100E+03  0.00000000000E+00 0. -1.
         21   -1    0    0  501  502 -0.00000000000E+00 -0.00000000000E+00 -0.14375314732E+02  0.14375314732E+02  0.00000000000E+00 0. -1.
         25    1    1    2    0    0  0.00000000000E+00  0.00000000000E+00  0.25735786627E+03  0.28610849573E+03  0.12500000000E+03 0.  0.
<mgrwt>
<rscale>  0 0.12500000E+03</rscale>
<asrwt>0</asrwt>
<pdfrwt beam="1">  1       21 0.41805101E-01 0.12500000E+03</pdfrwt>
<pdfrwt beam="2">  1       21 0.22115871E-02 0.12500000E+03</pdfrwt>
<totfact> 0.56630740E+06</totfact>
</mgrwt>
</event>
<event>
 3    1  0.1573868E-001  0.1250000E+03  0.7546771E-02  0.1235069E+00
         21   -1    0    0  502  501  0.00000000000E+00  0.00000000000E+00  0.22482669627E+03  0.22482669627E+03  0.00000000000E+00 0. -1.
         21   -1    0    0  501  502 -0.00000000000E+00 -0.00000000000E+00 -0.17374493621E+02  0.17374493621E+02  0.00000000000E+00 0. -1.
         25    1    1    2    0    0  0.00000000000E+00  0.00000000000E+00  0.20745220265E+03  0.24220118989E+03  0.12500000000E+03 0.  0.
<mgrwt>
<rscale>  0 0.12500000E+03</rscale>
<asrwt>0</asrwt>
<pdfrwt beam="1">  1       21 0.34588720E-01 0.12500000E+03</pdfrwt>
<pdfrwt beam="2">  1       21 0.26729992E-02 0.12500000E+03</pdfrwt>
<totfact> 0.60620307E+06</totfact>
</mgrwt>
</event>
<event>
 3    1  0.1573868E-001  0.1250000E+03  0.7546771E-02  0.1235069E+00
         21   -1    0    0  502  501  0.00000000000E+00  0.00000000000E+00  0.89654757853E+02  0.89654757853E+02  0.00000000000E+00 0.  1.
         21   -1    0    0  501  502 -0.00000000000E+00 -0.00000000000E+00 -0.43569913003E+02  0.43569913003E+02  0.00000000000E+00 0.  1.
         25    1    1    2    0    0  0.00000000000E+00  0.00000000000E+00  0.46084844850E+02  0.13322467086E+03  0.12500000000E+03 0.  0.
<mgrwt>
<rscale>  0 0.12500000E+03</rscale>
<asrwt>0</asrwt>
<pdfrwt beam="1">  1       21 0.13793040E-01 0.12500000E+03</pdfrwt>
<pdfrwt beam="2">  1       21 0.67030636E-02 0.12500000E+03</pdfrwt>
<totfact> 0.72932412E+06</totfact>
</mgrwt>
</event>
<event>
 3    1  0.1573868E-001  0.1250000E+03  0.7546771E-02  0.1235069E+00
         21   -1    0    0  502  501  0.00000000000E+00  0.00000000000E+00  0.93598873609E+02  0.93598873609E+02  0.00000000000E+00 0.  1.
         21   -1    0    0  501  502 -0.00000000000E+00 -0.00000000000E+00 -0.41733942401E+02  0.41733942401E+02  0.00000000000E+00 0.  1.
         25    1    1    2    0    0  0.00000000000E+00  0.00000000000E+00  0.51864931208E+02  0.13533281601E+03  0.12500000000E+03 0.  0.
<mgrwt>
<rscale>  0 0.12500000E+03</rscale>
<asrwt>0</asrwt>
<pdfrwt beam="1">  1       21 0.14399827E-01 0.12500000E+03</pdfrwt>
<pdfrwt beam="2">  1       21 0.64206065E-02 0.12500000E+03</pdfrwt>
<totfact> 0.72652435E+06</totfact>
</mgrwt>
</event>
<event>
 3    1  0.1573868E-001  0.1250000E+03  0.7546771E-02  0.1235069E+00
         21   -1    0    0  502  501  0.00000000000E+00  0.00000000000E+00  0.64997061234E+01  0.64997061234E+01  0.00000000000E+00 0.  1.
         21   -1    0    0  501  502 -0.00000000000E+00 -0.00000000000E+00 -0.60098871023E+03  0.60098871023E+03  0.00000000000E+00 0.  1.
         25    1    1    2    0    0  0.00000000000E+00  0.00000000000E+00 -0.59448900411E+03  0.60748841636E+03  0.12500000000E+03 0.  0.
<mgrwt>
<rscale>  0 0.12500000E+03</rscale>
<asrwt>0</asrwt>
<pdfrwt beam="1">  1       21 0.99995493E-03 0.12500000E+03</pdfrwt>
<pdfrwt beam="2">  1       21 0.92459788E-01 0.12500000E+03</pdfrwt>
<totfact> 0.36756156E+06</totfact>
</mgrwt>
</event>
<event>
 3    1  0.1573868E-001  0.1250000E+03  0.7546771E-02  0.1235069E+00
         21   -1    0    0  502  501  0.00000000000E+00  0.00000000000E+00  0.51829219158E+03  0.51829219158E+03  0.00000000000E+00 0.  1.
         21   -1    0    0  501  502 -0.00000000000E+00 -0.00000000000E+00 -0.75367718508E+01  0.75367718508E+01  0.00000000000E+00 0.  1.
         25    1    1    2    0    0  0.00000000000E+00  0.00000000000E+00  0.51075541973E+03  0.52582896343E+03  0.12500000000E+03 0.  0.
<mgrwt>
<rscale>  0 0.12500000E+03</rscale>
<asrwt>0</asrwt>
<pdfrwt beam="1">  1       21 0.79737232E-01 0.12500000E+03</pdfrwt>
<pdfrwt beam="2">  1       21 0.11595038E-02 0.12500000E+03</pdfrwt>
<totfact> 0.40677088E+06</totfact>
</mgrwt>
</event>
<event>
 3    1  0.1573868E-001  0.1250000E+03  0.7546771E-02  0.1235069E+00
         21   -1    0    0  502  501  0.00000000000E+00  0.00000000000E+00  0.65373207150E+01  0.65373207150E+01  0.00000000000E+00 0. -1.
         21   -1    0    0  501  502 -0.00000000000E+00 -0.00000000000E+00 -0.59753072708E+03  0.59753072708E+03  0.00000000000E+00 0. -1.
         25    1    1    2    0    0  0.00000000000E+00  0.00000000000E+00 -0.59099340637E+03  0.60406804780E+03  0.12500000000E+03 0.  0.
<mgrwt>
<rscale>  0 0.12500000E+03</rscale>
<asrwt>0</asrwt>
<pdfrwt beam="1">  1       21 0.10057411E-02 0.12500000E+03</pdfrwt>
<pdfrwt beam="2">  1       21 0.91927859E-01 0.12500000E+03</pdfrwt>
<totfact> 0.36909287E+06</totfact>
</mgrwt>
</event>
<event>
 3    1  0.1573868E-001  0.1250000E+03  0.7546771E-02  0.1235069E+00
         21   -1    0    0  502  501  0.00000000000E+00  0.00000000000E+00  0.95984383322E+01  0.95984383322E+01  0.00000000000E+00 0.  1.
         21   -1    0    0  501  502 -0.00000000000E+00 -0.00000000000E+00 -0.40696724455E+03  0.40696724455E+03  0.00000000000E+00 0.  1.
         25    1    1    2    0    0  0.00000000000E+00  0.00000000000E+00 -0.39736880621E+03  0.41656568288E+03  0.12500000000E+03 0.  0.
<mgrwt>
<rscale>  0 0.12500000E+03</rscale>
<asrwt>0</asrwt>
<pdfrwt beam="1">  1       21 0.14766828E-02 0.12500000E+03</pdfrwt>
<pdfrwt beam="2">  1       21 0.62610348E-01 0.12500000E+03</pdfrwt>
<totfact> 0.46961632E+06</totfact>
</mgrwt>
</event>
<event>
 3    1  0.1573868E-001  0.1250000E+03  0.7546771E-02  0.1235069E+00
         21   -1    0    0  502  501  0.00000000000E+00  0.00000000000E+00  0.21429850139E+03  0.21429850139E+03  0.00000000000E+00 0.  1.
         21   -1    0    0  501  502 -0.00000000000E+00 -0.00000000000E+00 -0.18228078940E+02  0.18228078940E+02  0.00000000000E+00 0.  1.
         25    1    1    2    0    0  0.00000000000E+00  0.00000000000E+00  0.19607042245E+03  0.23252658033E+03  0.12500000000E+03 0.  0.
<mgrwt>
<rscale>  0 0.12500000E+03</rscale>
<asrwt>0</asrwt>
<pdfrwt beam="1">  1       21 0.32968998E-01 0.12500000E+03</pdfrwt>
<pdfrwt beam="2">  1       21 0.28043200E-02 0.12500000E+03</pdfrwt>
<totfact> 0.61563437E+06</totfact>
</mgrwt>
</event>
<event>
 3    1  0.1573868E-001  0.1250000E+03  0.7546771E-02  0.1235069E+00
         21   -1    0    0  502  501  0.00000000000E+00  0.00000000000E+00  0.27765179913E+03  0.27765179913E+03  0.00000000000E+00 0.  1.
         21   -1    0    0  501  502 -0.00000000000E+00 -0.00000000000E+00 -0.14068880563E+02  0.14068880563E+02  0.00000000000E+00 0.  1.
         25    1    1    2    0    0  0.00000000000E+00  0.00000000000E+00  0.26358291857E+03  0.29172067969E+03  0.12500000000E+03 0.  0.
<mgrwt>
<rscale>  0 0.12500000E+03</rscale>
<asrwt>0</asrwt>
<pdfrwt beam="1">  1       21 0.42715657E-01 0.12500000E+03</pdfrwt>
<pdfrwt beam="2">  1       21 0.21644434E-02 0.12500000E+03</pdfrwt>
<totfact> 0.56151315E+06</totfact>
</mgrwt>
</event>
<event>
 3    1  0.1573868E-001  0.1250000E+03  0.7546771E-02  0.1235069E+00
         21   -1    0    0  502  501  0.00000000000E+00  0.00000000000E+00  0.66757077672E+02  0.66757077672E+02  0.00000000000E+00 0. -1.
         21   -1    0    0  501  502 -0.00000000000E+00 -0.00000000000E+00 -0.58514394821E+02  0.58514394821E+02  0.00000000000E+00 0. -1.
         25    1    1    2    0    0  0.00000000000E+00  0.00000000000E+00  0.82426828502E+01  0.12527147249E+03  0.12500000000E+03 0.  0.
<mgrwt>
<rscale>  0 0.12500000E+03</rscale>
<asrwt>0</asrwt>
<pdfrwt beam="1">  1       21 0.10270320E-01 0.12500000E+03</pdfrwt>
<pdfrwt beam="2">  1       21 0.90022146E-02 0.12500000E+03</pdfrwt>
<totfact> 0.74006923E+06</totfact>
</mgrwt>
</event>
<event>
 3    1  0.1573868E-001  0.1250000E+03  0.7546771E-02  0.1235069E+00
         21   -1    0    0  502  501  0.00000000000E+00  0.00000000000E+00  0.40690572162E+03  0.40690572162E+03  0.00000000000E+00 0.  1.
         21   -1    0    0  501  502 -0.00000000000E+00 -0.00000000000E+00 -0.95998895873E+01  0.95998895873E+01  0.00000000000E+00 0.  1.
         25    1    1    2    0    0  0.00000000000E+00  0.00000000000E+00  0.39730583203E+03  0.41650561121E+03  0.12500000000E+03 0.  0.
<mgrwt>
<rscale>  0 0.12500000E+03</rscale>
<asrwt>0</asrwt>
<pdfrwt beam="1">  1       21 0.62600867E-01 0.12500000E+03</pdfrwt>
<pdfrwt beam="2">  1       21 0.14769064E-02 0.12500000E+03</pdfrwt>
<totfact> 0.46965486E+06</totfact>
</mgrwt>
</event>
<event>
 3    1  0.1573868E-001  0.1250000E+03  0.7546771E-02  0.1235069E+00
         21   -1    0    0  502  501  0.00000000000E+00  0.00000000000E+00  0.81398658467E+01  0.81398658467E+01  0.00000000000E+00 0.  1.
         21   -1    0    0  501  502 -0.00000000000E+00 -0.00000000000E+00 -0.47989120135E+03  0.47989120135E+03  0.00000000000E+00 0.  1.
         25    1    1    2    0    0  0.00000000000E+00  0.00000000000E+00 -0.47175133550E+03  0.48803106719E+03  0.12500000000E+03 0.  0.
<mgrwt>
<rscale>  0 0.12500000E+03</rscale>
<asrwt>0</asrwt>
<pdfrwt beam="1">  1       21 0.12522866E-02 0.12500000E+03</pdfrwt>
<pdfrwt beam="2">  1       21 0.73829442E-01 0.12500000E+03</pdfrwt>
<totfact> 0.42700691E+06</totfact>
</mgrwt>
</event>
<event>
 3    1  0.1573868E-001  0.1250000E+03  0.7546771E-02  0.1235069E+00
         21   -1    0    0  502  501  0.00000000000E+00  0.00000000000E+00  0.28568001677E+02  0.28568001677E+02  0.00000000000E+00 0.  1.
         21   -1    0    0  501  502 -0.00000000000E+00 -0.00000000000E+00 -0.13673515019E+03  0.13673515019E+03  0.00000000000E+00 0.  1.
         25    1    1    2    0    0  0.00000000000E+00  0.00000000000E+00 -0.10816714851E+03  0.16530315187E+03  0.12500000000E+03 0.  0.
<mgrwt>
<rscale>  0 0.12500000E+03</rscale>
<asrwt>0</asrwt>
<pdfrwt beam="1">  1       21 0.43950772E-02 0.12500000E+03</pdfrwt>
<pdfrwt beam="2">  1       21 0.21036177E-01 0.12500000E+03</pdfrwt>
<totfact> 0.68877244E+06</totfact>
</mgrwt>
</event>
<event>
 3    1  0.1573868E-001  0.1250000E+03  0.7546771E-02  0.1235069E+00
         21   -1    0    0  502  501  0.00000000000E+00  0.00000000000E+00  0.66357778179E+03  0.66357778179E+03  0.00000000000E+00 0.  1.
         21   -1    0    0  501  502 -0.00000000000E+00 -0.00000000000E+00 -0.58866497752E+01  0.58866497752E+01  0.00000000000E+00 0.  1.
         25    1    1    2    0    0  0.00000000000E+00  0.00000000000E+00  0.65769113202E+03  0.66946443157E+03  0.12500000000E+03 0.  0.
<mgrwt>
<rscale>  0 0.12500000E+03</rscale>
<asrwt>0</asrwt>
<pdfrwt beam="1">  1       21 0.10208883E+00 0.12500000E+03</pdfrwt>
<pdfrwt beam="2">  1       21 0.90563895E-03 0.12500000E+03</pdfrwt>
<totfact> 0.34120950E+06</totfact>
</mgrwt>
</event>
<event>
 3    1  0.1573868E-001  0.1250000E+03  0.7546771E-02  0.1235069E+00
         21   -1    0    0  502  501  0.00000000000E+00  0.00000000000E+00  0.45523292704E+01  0.45523292704E+01  0.00000000000E+00 0. -1.
         21   -1    0    0  501  502 -0.00000000000E+00 -0.00000000000E+00 -0.85807721015E+03  0.85807721015E+03  0.00000000000E+00 0. -1.
         25    1    1    2    0    0  0.00000000000E+00  0.00000000000E+00 -0.85352488088E+03  0.86262953942E+03  0.12500000000E+03 0.  0.
<mgrwt>
<rscale>  0 0.12500000E+03</rscale>
<asrwt>0</asrwt>
<pdfrwt beam="1">  1       21 0.70035912E-03 0.12500000E+03</pdfrwt>
<pdfrwt beam="2">  1       21 0.13201173E+00 0.12500000E+03</pdfrwt>
<totfact> 0.27389778E+06</totfact>
</mgrwt>
</event>
<event>
 3    1  0.1573868E-001  0.1250000E+03  0.7546771E-02  0.1235069E+00
         21   -1    0    0  502  501  0.00000000000E+00  0.00000000000E+00  0.64701311754E+03  0.64701311754E+03  0.00000000000E+00 0. -1.
         21   -1    0    0  501  502 -0.00000000000E+00 -0.00000000000E+00 -0.60373582762E+01  0.60373582762E+01  0.00000000000E+00 0. -1.
         25    1    1    2    0    0  0.00000000000E+00  0.00000000000E+00  0.64097575926E+03  0.65305047581E+03  0.12500000000E+03 0.  0.
<mgrwt>
<rscale>  0 0.12500000E+03</rscale>
<asrwt>0</asrwt>
<pdfrwt beam="1">  1       21 0.99540425E-01 0.12500000E+03</pdfrwt>
<pdfrwt beam="2">  1       21 0.92882486E-03 0.12500000E+03</pdfrwt>
<totfact> 0.34797998E+06</totfact>
</mgrwt>
</event>
<event>
 3    1  0.1573868E-001  0.1250000E+03  0.7546771E-02  0.1235069E+00
         21   -1    0    0  502  501  0.00000000000E+00  0.00000000000E+00  0.20200005503E+03  0.20200005503E+03  0.00000000000E+00 0. -1.
         21   -1    0    0  501  502 -0.00000000000E+00 -0.00000000000E+00 -0.19337866019E+02  0.19337866019E+02  0.00000000000E+00 0. -1.
         25    1    1    2    0    0  0.00000000000E+00  0.00000000000E+00  0.18266218901E+03  0.22133792105E+03  0.12500000000E+03 0.  0.
<mgrwt>
<rscale>  0 0.12500000E+03</rscale>
<asrwt>0</asrwt>
<pdfrwt beam="1">  1       21 0.31076930E-01 0.12500000E+03</pdfrwt>
<pdfrwt beam="2">  1       21 0.29750564E-02 0.12500000E+03</pdfrwt>
<totfact> 0.62686044E+06</totfact>
</mgrwt>
</event>
<event>
 3    1  0.1573868E-001  0.1250000E+03  0.7546771E-02  0.1235069E+00
         21   -1    0    0  502  501  0.00000000000E+00  0.00000000000E+00  0.80377150491E+01  0.80377150491E+01  0.00000000000E+00 0.  1.
         21   -1    0    0  501  502 -0.00000000000E+00 -0.00000000000E+00 -0.48599010741E+03  0.48599010741E+03  0.00000000000E+00 0.  1.
         25    1    1    2    0    0  0.00000000000E+00  0.00000000000E+00 -0.47795239236E+03  0.49402782246E+03  0.12500000000E+03 0.  0.
<mgrwt>
<rscale>  0 0.12500000E+03</rscale>
<asrwt>0</asrwt>
<pdfrwt beam="1">  1       21 0.12365717E-02 0.12500000E+03</pdfrwt>
<pdfrwt beam="2">  1       21 0.74767701E-01 0.12500000E+03</pdfrwt>
<totfact> 0.42369821E+06</totfact>
</mgrwt>
</event>
<event>
 3    1  0.1573868E-001  0.1250000E+03  0.7546771E-02  0.1235069E+00
         21   -1    0    0  502  501  0.00000000000E+00  0.00000000000E+00  0.46931682178E+02  0.46931682178E+02  0.00000000000E+00 0. -1.
         21   -1    0    0  501  502 -0.00000000000E+00 -0.00000000000E+00 -0.83232686720E+02  0.83232686720E+02  0.00000000000E+00 0. -1.
         25    1    1    2    0    0  0.00000000000E+00  0.00000000000E+00 -0.36301004542E+02  0.13016436890E+03  0.12500000000E+03 0.  0.
<mgrwt>
<rscale>  0 0.12500000E+03</rscale>
<asrwt>0</asrwt>
<pdfrwt beam="1">  1       21 0.72202589E-02 0.12500000E+03</pdfrwt>
<pdfrwt beam="2">  1       21 0.12805028E-01 0.12500000E+03</pdfrwt>
<totfact> 0.73342955E+06</totfact>
</mgrwt>
</event>
<event>
 3    1  0.1573868E-001  0.1250000E+03  0.7546771E-02  0.1235069E+00
         21   -1    0    0  502  501  0.00000000000E+00  0.00000000000E+00  0.26847703650E+03  0.26847703650E+03  0.00000000000E+00 0.  1.
         21   -1    0    0  501  502 -0.00000000000E+00 -0.00000000000E+00 -0.14549661494E+02  0.14549661494E+02  0.00000000000E+00 0.  1.
         25    1    1    2    0    0  0.00000000000E+00  0.00000000000E+00  0.25392737501E+03  0.28302669800E+03  0.12500000000E+03 0.  0.
<mgrwt>
<rscale>  0 0.12500000E+03</rscale>
<asrwt>0</asrwt>
<pdfrwt beam="1">  1       21 0.41304156E-01 0.12500000E+03</pdfrwt>
<pdfrwt beam="2">  1       21 0.22384097E-02 0.12500000E+03</pdfrwt>
<totfact> 0.56896895E+06</totfact>
</mgrwt>
</event>
<event>
 3    1  0.1573868E-001  0.1250000E+03  0.7546771E-02  0.1235069E+00
         21   -1    0    0  502  501  0.00000000000E+00  0.00000000000E+00  0.62607871348E+02  0.62607871348E+02  0.00000000000E+00 0.  1.
         21   -1    0    0  501  502 -0.00000000000E+00 -0.00000000000E+00 -0.62392314510E+02  0.62392314510E+02  0.00000000000E+00 0.  1.
         25    1    1    2    0    0  0.00000000000E+00  0.00000000000E+00  0.21555683798E+00  0.12500018586E+03  0.12500000000E+03 0.  0.
<mgrwt>
<rscale>  0 0.12500000E+03</rscale>
<asrwt>0</asrwt>
<pdfrwt beam="1">  1       21 0.96319802E-02 0.12500000E+03</pdfrwt>
<pdfrwt beam="2">  1       21 0.95988176E-02 0.12500000E+03</pdfrwt>
<totfact> 0.74043556E+06</totfact>
</mgrwt>
</event>
<event>
 3    1  0.1573868E-001  0.1250000E+03  0.7546771E-02  0.1235069E+00
         21   -1    0    0  502  501  0.00000000000E+00  0.00000000000E+00  0.12157343729E+03  0.12157343729E+03  0.00000000000E+00 0.  1.
         21   -1    0    0  501  502 -0.00000000000E+00 -0.00000000000E+00 -0.32130785202E+02  0.32130785202E+02  0.00000000000E+00 0.  1.
         25    1    1    2    0    0  0.00000000000E+00  0.00000000000E+00  0.89442652093E+02  0.15370422250E+03  0.12500000000E+03 0.  0.
<mgrwt>
<rscale>  0 0.12500000E+03</rscale>
<asrwt>0</asrwt>
<pdfrwt beam="1">  1       21 0.18703605E-01 0.12500000E+03</pdfrwt>
<pdfrwt beam="2">  1       21 0.49431978E-02 0.12500000E+03</pdfrwt>
<totfact> 0.70296925E+06</totfact>
</mgrwt>
</event>
<event>
 3    1  0.1573868E-001  0.1250000E+03  0.7546771E-02  0.1235069E+00
         21   -1    0    0  502  501  0.00000000000E+00  0.00000000000E+00  0.80024234095E+02  0.80024234095E+02  0.00000000000E+00 0. -1.
         21   -1    0    0  501  502 -0.00000000000E+00 -0.00000000000E+00 -0.48813338161E+02  0.48813338161E+02  0.00000000000E+00 0. -1.
         25    1    1    2    0    0  0.00000000000E+00  0.00000000000E+00  0.31210895934E+02  0.12883757226E+03  0.12500000000E+03 0.  0.
<mgrwt>
<rscale>  0 0.12500000E+03</rscale>
<asrwt>0</asrwt>
<pdfrwt beam="1">  1       21 0.12311421E-01 0.12500000E+03</pdfrwt>
<pdfrwt beam="2">  1       21 0.75097443E-02 0.12500000E+03</pdfrwt>
<totfact> 0.73520704E+06</totfact>
</mgrwt>
</event>
<event>
 3    1  0.1573868E-001  0.1250000E+03  0.7546771E-02  0.1235069E+00
         21   -1    0    0  502  501  0.00000000000E+00  0.00000000000E+00  0.67115033204E+01  0.67115033204E+01  0.00000000000E+00 0. -1.
         21   -1    0    0  501  502 -0.00000000000E+00 -0.00000000000E+00 -0.58202310473E+03  0.58202310473E+03  0.00000000000E+00 0. -1.
         25    1    1    2    0    0  0.00000000000E+00  0.00000000000E+00 -0.57531160141E+03  0.58873460805E+03  0.12500000000E+03 0.  0.
<mgrwt>
<rscale>  0 0.12500000E+03</rscale>
<asrwt>0</asrwt>
<pdfrwt beam="1">  1       21 0.10325388E-02 0.12500000E+03</pdfrwt>
<pdfrwt beam="2">  1       21 0.89542029E-01 0.12500000E+03</pdfrwt>
<totfact> 0.37607096E+06</totfact>
</mgrwt>
</event>
<event>
 3    1  0.1573868E-001  0.1250000E+03  0.7546771E-02  0.1235069E+00
         21   -1    0    0  502  501  0.00000000000E+00  0.00000000000E+00  0.35593849663E+02  0.35593849663E+02  0.00000000000E+00 0.  1.
         21   -1    0    0  501  502 -0.00000000000E+00 -0.00000000000E+00 -0.10974508341E+03  0.10974508341E+03  0.00000000000E+00 0.  1.
         25    1    1    2    0    0  0.00000000000E+00  0.00000000000E+00 -0.74151233743E+02  0.14533893307E+03  0.12500000000E+03 0.  0.
<mgrwt>
<rscale>  0 0.12500000E+03</rscale>
<asrwt>0</asrwt>
<pdfrwt beam="1">  1       21 0.54759768E-02 0.12500000E+03</pdfrwt>
<pdfrwt beam="2">  1       21 0.16883859E-01 0.12500000E+03</pdfrwt>
<totfact> 0.71349752E+06</totfact>
</mgrwt>
</event>
<event>
 3    1  0.1573868E-001  0.1250000E+03  0.7546771E-02  0.1235069E+00
         21   -1    0    0  502  501  0.00000000000E+00  0.00000000000E+00  0.12325760023E+02  0.12325760023E+02  0.00000000000E+00 0. -1.
         21   -1    0    0  501  502 -0.00000000000E+00 -0.00000000000E+00 -0.31691757690E+03  0.31691757690E+03  0.00000000000E+00 0. -1.
         25    1    1    2    0    0  0.00000000000E+00  0.00000000000E+00 -0.30459181688E+03  0.32924333693E+03  0.12500000000E+03 0.  0.
<mgrwt>
<rscale>  0 0.12500000E+03</rscale>
<asrwt>0</asrwt>
<pdfrwt beam="1">  1       21 0.18962707E-02 0.12500000E+03</pdfrwt>
<pdfrwt beam="2">  1       21 0.48756553E-01 0.12500000E+03</pdfrwt>
<totfact> 0.53108888E+06</totfact>
</mgrwt>
</event>
<event>
 3    1  0.1573868E-001  0.1250000E+03  0.7546771E-02  0.1235069E+00
         21   -1    0    0  502  501  0.00000000000E+00  0.00000000000E+00  0.18344185605E+03  0.18344185605E+03  0.00000000000E+00 0. -1.
         21   -1    0    0  501  502 -0.00000000000E+00 -0.00000000000E+00 -0.21294213241E+02  0.21294213241E+02  0.00000000000E+00 0. -1.
         25    1    1    2    0    0  0.00000000000E+00  0.00000000000E+00  0.16214764280E+03  0.20473606929E+03  0.12500000000E+03 0.  0.
<mgrwt>
<rscale>  0 0.12500000E+03</rscale>
<asrwt>0</asrwt>
<pdfrwt beam="1">  1       21 0.28221823E-01 0.12500000E+03</pdfrwt>
<pdfrwt beam="2">  1       21 0.32760329E-02 0.12500000E+03</pdfrwt>
<totfact> 0.64417653E+06</totfact>
</mgrwt>
</event>
<event>
 3    1  0.1573868E-001  0.1250000E+03  0.7546771E-02  0.1235069E+00
         21   -1    0    0  502  501  0.00000000000E+00  0.00000000000E+00  0.35369247360E+02  0.35369247360E+02  0.00000000000E+00 0.  1.
         21   -1    0    0  501  502 -0.00000000000E+00 -0.00000000000E+00 -0.11044198821E+03  0.11044198821E+03  0.00000000000E+00 0.  1.
         25    1    1    2    0    0  0.00000000000E+00  0.00000000000E+00 -0.75072740853E+02  0.14581123557E+03  0.12500000000E+03 0.  0.
<mgrwt>
<rscale>  0 0.12500000E+03</rscale>
<asrwt>0</asrwt>
<pdfrwt beam="1">  1       21 0.54414227E-02 0.12500000E+03</pdfrwt>
<pdfrwt beam="2">  1       21 0.16991075E-01 0.12500000E+03</pdfrwt>
<totfact> 0.71289442E+06</totfact>
</mgrwt>
</event>
<event>
 3    1  0.1573868E-001  0.1250000E+03  0.7546771E-02  0.1235069E+00
         21   -1    0    0  502  501  0.00000000000E+00  0.00000000000E+00  0.89868686642E+02  0.89868686642E+02  0.00000000000E+00 0. -1.
         21   -1    0    0  501  502 -0.00000000000E+00 -0.00000000000E+00 -0.43466196580E+02  0.43466196580E+02  0.00000000000E+00 0. -1.
         25    1    1    2    0    0  0.00000000000E+00  0.00000000000E+00  0.46402490062E+02  0.13333488322E+03  0.12500000000E+03 0.  0.
<mgrwt>
<rscale>  0 0.12500000E+03</rscale>
<asrwt>0</asrwt>
<pdfrwt beam="1">  1       21 0.13825952E-01 0.12500000E+03</pdfrwt>
<pdfrwt beam="2">  1       21 0.66871072E-02 0.12500000E+03</pdfrwt>
<totfact> 0.72917713E+06</totfact>
</mgrwt>
</event>
<event>
 3    1  0.1573868E-001  0.1250000E+03  0.7546771E-02  0.1235069E+00
         21   -1    0    0  502  501  0.00000000000E+00  0.00000000000E+00  0.25498827457E+01  0.25498827457E+01  0.00000000000E+00 0.  1.
         21   -1    0    0  501  502 -0.00000000000E+00 -0.00000000000E+00 -0.15319331866E+04  0.15319331866E+04  0.00000000000E+00 0.  1.
         25    1    1    2    0    0  0.00000000000E+00  0.00000000000E+00 -0.15293833038E+04  0.15344830693E+04  0.12500000000E+03 0.  0.
<mgrwt>
<rscale>  0 0.12500000E+03</rscale>
<asrwt>0</asrwt>
<pdfrwt beam="1">  1       21 0.39229011E-03 0.12500000E+03</pdfrwt>
<pdfrwt beam="2">  1       21 0.23568176E+00 0.12500000E+03</pdfrwt>
<totfact> 0.13489149E+06</totfact>
</mgrwt>
</event>
<event>
 3    1  0.1573868E-001  0.1250000E+03  0.7546771E-02  0.1235069E+00
         21   -1    0    0  502  501  0.00000000000E+00  0.00000000000E+00  0.49444065520E+02  0.49444065520E+02  0.00000000000E+00 0. -1.
         21   -1    0    0  501  502 -0.00000000000E+00 -0.00000000000E+00 -0.79003414443E+02  0.79003414443E+02  0.00000000000E+00 0. -1.
         25    1    1    2    0    0  0.00000000000E+00  0.00000000000E+00 -0.29559348923E+02  0.12844747996E+03  0.12500000000E+03 0.  0.
<mgrwt>
<rscale>  0 0.12500000E+03</rscale>
<asrwt>0</asrwt>
<pdfrwt beam="1">  1       21 0.76067793E-02 0.12500000E+03</pdfrwt>
<pdfrwt beam="2">  1       21 0.12154371E-01 0.12500000E+03</pdfrwt>
<totfact> 0.73573196E+06</totfact>
</mgrwt>
</event>
<event>
 3    1  0.1573868E-001  0.1250000E+03  0.7546771E-02  0.1235069E+00
         21   -1    0    0  502  501  0.00000000000E+00  0.00000000000E+00  0.65016245378E+02  0.65016245378E+02  0.00000000000E+00 0.  1.
         21   -1    0    0  501  502 -0.00000000000E+00 -0.00000000000E+00 -0.60081137833E+02  0.60081137833E+02  0.00000000000E+00 0.  1.
         25    1    1    2    0    0  0.00000000000E+00  0.00000000000E+00  0.49351075450E+01  0.12509738321E+03  0.12500000000E+03 0.  0.
<mgrwt>
<rscale>  0 0.12500000E+03</rscale>
<asrwt>0</asrwt>
<pdfrwt beam="1">  1       21 0.10002499E-01 0.12500000E+03</pdfrwt>
<pdfrwt beam="2">  1       21 0.92432520E-02 0.12500000E+03</pdfrwt>
<totfact> 0.74030429E+06</totfact>
</mgrwt>
</event>
<event>
 3    1  0.1573868E-001  0.1250000E+03  0.7546771E-02  0.1235069E+00
         21   -1    0    0  502  501  0.00000000000E+00  0.00000000000E+00  0.10225756948E+03  0.10225756948E+03  0.00000000000E+00 0. -1.
         21   -1    0    0  501  502 -0.00000000000E+00 -0.00000000000E+00 -0.38200106062E+02  0.38200106062E+02  0.00000000000E+00 0. -1.
         25    1    1    2    0    0  0.00000000000E+00  0.00000000000E+00  0.64057463422E+02  0.14045767555E+03  0.12500000000E+03 0.  0.
<mgrwt>
<rscale>  0 0.12500000E+03</rscale>
<asrwt>0</asrwt>
<pdfrwt beam="1">  1       21 0.15731934E-01 0.12500000E+03</pdfrwt>
<pdfrwt beam="2">  1       21 0.58769394E-02 0.12500000E+03</pdfrwt>
<totfact> 0.71979616E+06</totfact>
</mgrwt>
</event>
<event>
 3    1  0.1573868E-001  0.1250000E+03  0.7546771E-02  0.1235069E+00
         21   -1    0    0  502  501  0.00000000000E+00  0.00000000000E+00  0.26389232216E+02  0.26389232216E+02  0.00000000000E+00 0.  1.
         21   -1    0    0  501  502 -0.00000000000E+00 -0.00000000000E+00 -0.14802438995E+03  0.14802438995E+03  0.00000000000E+00 0.  1.
         25    1    1    2    0    0  0.00000000000E+00  0.00000000000E+00 -0.12163515773E+03  0.17441362216E+03  0.12500000000E+03 0.  0.
<mgrwt>
<rscale>  0 0.12500000E+03</rscale>
<asrwt>0</asrwt>
<pdfrwt beam="1">  1       21 0.40598818E-02 0.12500000E+03</pdfrwt>
<pdfrwt beam="2">  1       21 0.22772984E-01 0.12500000E+03</pdfrwt>
<totfact> 0.67798239E+06</totfact>
</mgrwt>
</event>
<event>
 3    1  0.1573868E-001  0.1250000E+03  0.7546771E-02  0.1235069E+00
         21   -1    0    0  502  501  0.00000000000E+00  0.00000000000E+00  0.21354046023E+02  0.21354046023E+02  0.00000000000E+00 0.  1.
         21   -1    0    0  501  502 -0.00000000000E+00 -0.00000000000E+00 -0.18292786275E+03  0.18292786275E+03  0.00000000000E+00 0.  1.
         25    1    1    2    0    0  0.00000000000E+00  0.00000000000E+00 -0.16157381673E+03  0.20428190877E+03  0.12500000000E+03 0.  0.
<mgrwt>
<rscale>  0 0.12500000E+03</rscale>
<asrwt>0</asrwt>
<pdfrwt beam="1">  1       21 0.32852378E-02 0.12500000E+03</pdfrwt>
<pdfrwt beam="2">  1       21 0.28142748E-01 0.12500000E+03</pdfrwt>
<totfact> 0.64466211E+06</totfact>
</mgrwt>
</event>
<event>
 3    1  0.1573868E-001  0.1250000E+03  0.7546771E-02  0.1235069E+00
         21   -1    0    0  502  501  0.00000000000E+00  0.00000000000E+00  0.57246048348E+02  0.57246048348E+02  0.00000000000E+00 0. -1.
         21   -1    0    0  501  502 -0.00000000000E+00 -0.00000000000E+00 -0.68236151014E+02  0.68236151014E+02  0.00000000000E+00 0. -1.
         25    1    1    2    0    0  0.00000000000E+00  0.00000000000E+00 -0.10990102666E+02  0.12548219936E+03  0.12500000000E+03 0.  0.
<mgrwt>
<rscale>  0 0.12500000E+03</rscale>
<asrwt>0</asrwt>
<pdfrwt beam="1">  1       21 0.88070845E-02 0.12500000E+03</pdfrwt>
<pdfrwt beam="2">  1       21 0.10497869E-01 0.12500000E+03</pdfrwt>
<totfact> 0.73977886E+06</totfact>
</mgrwt>
</event>
<event>
 3    1  0.1573868E-001  0.1250000E+03  0.7546771E-02  0.1235069E+00
         21   -1    0    0  502  501  0.00000000000E+00  0.00000000000E+00  0.23173766514E+02  0.23173766514E+02  0.00000000000E+00 0.  1.
         21   -1    0    0  501  502 -0.00000000000E+00 -0.00000000000E+00 -0.16856344857E+03  0.16856344857E+03  0.00000000000E+00 0.  1.
         25    1    1    2    0    0  0.00000000000E+00  0.00000000000E+00 -0.14538968206E+03  0.19173721509E+03  0.12500000000E+03 0.  0.
<mgrwt>
<rscale>  0 0.12500000E+03</rscale>
<asrwt>0</asrwt>
<pdfrwt beam="1">  1       21 0.35651948E-02 0.12500000E+03</pdfrwt>
<pdfrwt beam="2">  1       21 0.25932838E-01 0.12500000E+03</pdfrwt>
<totfact> 0.65829907E+06</totfact>
</mgrwt>
</event>
<event>
 3    1  0.1573868E-001  0.1250000E+03  0.7546771E-02  0.1235069E+00
         21   -1    0    0  502  501  0.00000000000E+00  0.00000000000E+00  0.54988331468E+03  0.54988331468E+03  0.00000000000E+00 0.  1.
         21   -1    0    0  501  502 -0.00000000000E+00 -0.00000000000E+00 -0.71037798306E+01  0.71037798306E+01  0.00000000000E+00 0.  1.
         25    1    1    2    0    0  0.00000000000E+00  0.00000000000E+00  0.54277953485E+03  0.55698709451E+03  0.12500000000E+03 0.  0.
<mgrwt>
<rscale>  0 0.12500000E+03</rscale>
<asrwt>0</asrwt>
<pdfrwt beam="1">  1       21 0.84597400E-01 0.12500000E+03</pdfrwt>
<pdfrwt beam="2">  1       21 0.10928896E-02 0.12500000E+03</pdfrwt>
<totfact> 0.39113020E+06</totfact>
</mgrwt>
</event>
<event>
 3    1  0.1573868E-001  0.1250000E+03  0.7546771E-02  0.1235069E+00
         21   -1    0    0  502  501  0.00000000000E+00  0.00000000000E+00  0.44770878291E+01  0.44770878291E+01  0.00000000000E+00 0.  1.
         21   -1    0    0  501  502 -0.00000000000E+00 -0.00000000000E+00 -0.87249796054E+03  0.87249796054E+03  0.00000000000E+00 0.  1.
         25    1    1    2    0    0  0.00000000000E+00  0.00000000000E+00 -0.86802087271E+03  0.87697504837E+03  0.12500000000E+03 0.  0.
<mgrwt>
<rscale>  0 0.12500000E+03</rscale>
<asrwt>0</asrwt>
<pdfrwt beam="1">  1       21 0.68878310E-03 0.12500000E+03</pdfrwt>
<pdfrwt beam="2">  1       21 0.13423039E+00 0.12500000E+03</pdfrwt>
<totfact> 0.26964988E+06</totfact>
</mgrwt>
</event>
<event>
 3    1  0.1573868E-001  0.1250000E+03  0.7546771E-02  0.1235069E+00
         21   -1    0    0  502  501  0.00000000000E+00  0.00000000000E+00  0.50503350863E+03  0.50503350863E+03  0.00000000000E+00 0. -1.
         21   -1    0    0  501  502 -0.00000000000E+00 -0.00000000000E+00 -0.77346352930E+01  0.77346352930E+01  0.00000000000E+00 0. -1.
         25    1    1    2    0    0  0.00000000000E+00  0.00000000000E+00  0.49729887334E+03  0.51276814393E+03  0.12500000000E+03 0.  0.
<mgrwt>
<rscale>  0 0.12500000E+03</rscale>
<asrwt>0</asrwt>
<pdfrwt beam="1">  1       21 0.77697437E-01 0.12500000E+03</pdfrwt>
<pdfrwt beam="2">  1       21 0.11899443E-02 0.12500000E+03</pdfrwt>
<totfact> 0.41359993E+06</totfact>
</mgrwt>
</event>
<event>
 3    1  0.1573868E-001  0.1250000E+03  0.7546771E-02  0.1235069E+00
         21   -1    0    0  502  501  0.00000000000E+00  0.00000000000E+00  0.80979024489E+02  0.80979024489E+02  0.00000000000E+00 0. -1.
         21   -1    0    0  501  502 -0.00000000000E+00 -0.00000000000E+00 -0.48237800155E+02  0.48237800155E+02  0.00000000000E+00 0. -1.
         25    1    1    2    0    0  0.00000000000E+00  0.00000000000E+00  0.32741224334E+02  0.12921682464E+03  0.12500000000E+03 0.  0.
<mgrwt>
<rscale>  0 0.12500000E+03</rscale>
<asrwt>0</asrwt>
<pdfrwt beam="1">  1       21 0.12458311E-01 0.12500000E+03</pdfrwt>
<pdfrwt beam="2">  1       21 0.74212000E-02 0.12500000E+03</pdfrwt>
<totfact> 0.73469778E+06</totfact>
</mgrwt>
</event>
<event>
 3    1  0.1573868E-001  0.1250000E+03  0.7546771E-02  0.1235069E+00
         21   -1    0    0  502  501  0.00000000000E+00  0.00000000000E+00  0.13351674735E+02  0.13351674735E+02  0.00000000000E+00 0.  1.
         21   -1    0    0  501  502 -0.00000000000E+00 -0.00000000000E+00 -0.29256629430E+03  0.29256629430E+03  0.00000000000E+00 0.  1.
         25    1    1    2    0    0  0.00000000000E+00  0.00000000000E+00 -0.27921461957E+03  0.30591796904E+03  0.12500000000E+03 0.  0.
<mgrwt>
<rscale>  0 0.12500000E+03</rscale>
<asrwt>0</asrwt>
<pdfrwt beam="1">  1       21 0.20541040E-02 0.12500000E+03</pdfrwt>
<pdfrwt beam="2">  1       21 0.45010195E-01 0.12500000E+03</pdfrwt>
<totfact> 0.54967927E+06</totfact>
</mgrwt>
</event>
<event>
 3    1  0.1573868E-001  0.1250000E+03  0.7546771E-02  0.1235069E+00
         21   -1    0    0  502  501  0.00000000000E+00  0.00000000000E+00  0.88675117985E+02  0.88675117985E+02  0.00000000000E+00 0. -1.
         21   -1    0    0  501  502 -0.00000000000E+00 -0.00000000000E+00 -0.44051252355E+02  0.44051252355E+02  0.00000000000E+00 0. -1.
         25    1    1    2    0    0  0.00000000000E+00  0.00000000000E+00  0.44623865630E+02  0.13272637034E+03  0.12500000000E+03 0.  0.
<mgrwt>
<rscale>  0 0.12500000E+03</rscale>
<asrwt>0</asrwt>
<pdfrwt beam="1">  1       21 0.13642326E-01 0.12500000E+03</pdfrwt>
<pdfrwt beam="2">  1       21 0.67771158E-02 0.12500000E+03</pdfrwt>
<totfact> 0.72998959E+06</totfact>
</mgrwt>
</event>
<event>
 3    1  0.1573868E-001  0.1250000E+03  0.7546771E-02  0.1235069E+00
         21   -1    0    0  502  501  0.00000000000E+00  0.00000000000E+00  0.94433173804E+01  0.94433173804E+01  0.00000000000E+00 0. -1.
         21   -1    0    0  501  502 -0.00000000000E+00 -0.00000000000E+00 -0.41365230487E+03  0.41365230487E+03  0.00000000000E+00 0. -1.
         25    1    1    2    0    0  0.00000000000E+00  0.00000000000E+00 -0.40420898749E+03  0.42309562225E+03  0.12500000000E+03 0.  0.
<mgrwt>
<rscale>  0 0.12500000E+03</rscale>
<asrwt>0</asrwt>
<pdfrwt beam="1">  1       21 0.14528176E-02 0.12500000E+03</pdfrwt>
<pdfrwt beam="2">  1       21 0.63638838E-01 0.12500000E+03</pdfrwt>
<totfact> 0.46546236E+06</totfact>
</mgrwt>
</event>
<event>
 3    1  0.1573868E-001  0.1250000E+03  0.7546771E-02  0.1235069E+00
         21   -1    0    0  502  501  0.00000000000E+00  0.00000000000E+00  0.11967102915E+03  0.11967102915E+03  0.00000000000E+00 0. -1.
         21   -1    0    0  501  502 -0.00000000000E+00 -0.00000000000E+00 -0.32641567703E+02  0.32641567703E+02  0.00000000000E+00 0. -1.
         25    1    1    2    0    0  0.00000000000E+00  0.00000000000E+00  0.87029461447E+02  0.15231259685E+03  0.12500000000E+03 0.  0.
<mgrwt>
<rscale>  0 0.12500000E+03</rscale>
<asrwt>0</asrwt>
<pdfrwt beam="1">  1       21 0.18410927E-01 0.12500000E+03</pdfrwt>
<pdfrwt beam="2">  1       21 0.50217797E-02 0.12500000E+03</pdfrwt>
<totfact> 0.70469892E+06</totfact>
</mgrwt>
</event>
<event>
 3    1  0.1573868E-001  0.1250000E+03  0.7546771E-02  0.1235069E+00
         21   -1    0    0  502  501  0.00000000000E+00  0.00000000000E+00  0.14629356334E+04  0.14629356334E+04  0.00000000000E+00 0.  1.
         21   -1    0    0  501  502 -0.00000000000E+00 -0.00000000000E+00 -0.26701448177E+01  0.26701448177E+01  0.00000000000E+00 0.  1.
         25    1    1    2    0    0  0.00000000000E+00  0.00000000000E+00  0.14602654885E+04  0.14656057782E+04  0.12500000000E+03 0.  0.
<mgrwt>
<rscale>  0 0.12500000E+03</rscale>
<asrwt>0</asrwt>
<pdfrwt beam="1">  1       21 0.22506638E+00 0.12500000E+03</pdfrwt>
<pdfrwt beam="2">  1       21 0.41079268E-03 0.12500000E+03</pdfrwt>
<totfact> 0.14510646E+06</totfact>
</mgrwt>
</event>
<event>
 3    1  0.1573868E-001  0.1250000E+03  0.7546771E-02  0.1235069E+00
         21   -1    0    0  502  501  0.00000000000E+00  0.00000000000E+00  0.84735898969E+03  0.84735898969E+03  0.00000000000E+00 0. -1.
         21   -1    0    0  501  502 -0.00000000000E+00 -0.00000000000E+00 -0.46099115576E+01  0.46099115576E+01  0.00000000000E+00 0. -1.
         25    1    1    2    0    0  0.00000000000E+00  0.00000000000E+00  0.84274907813E+03  0.85196890124E+03  0.12500000000E+03 0.  0.
<mgrwt>
<rscale>  0 0.12500000E+03</rscale>
<asrwt>0</asrwt>
<pdfrwt beam="1">  1       21 0.13036280E+00 0.12500000E+03</pdfrwt>
<pdfrwt beam="2">  1       21 0.70921784E-03 0.12500000E+03</pdfrwt>
<totfact> 0.27711690E+06</totfact>
</mgrwt>
</event>
<event>
 3    1  0.1573868E-001  0.1250000E+03  0.7546771E-02  0.1235069E+00
         21   -1    0    0  502  501  0.00000000000E+00  0.00000000000E+00  0.91252429868E+01  0.91252429868E+01  0.00000000000E+00 0.  1.
         21   -1    0    0  501  502 -0.00000000000E+00 -0.00000000000E+00 -0.42807079282E+03  0.42807079282E+03  0.00000000000E+00 0.  1.
         25    1    1    2    0    0  0.00000000000E+00  0.00000000000E+00 -0.41894554983E+03  0.43719603580E+03  0.12500000000E+03 0.  0.
<mgrwt>
<rscale>  0 0.12500000E+03</rscale>
<asrwt>0</asrwt>
<pdfrwt beam="1">  1       21 0.14038835E-02 0.12500000E+03</pdfrwt>
<pdfrwt beam="2">  1       21 0.65857045E-01 0.12500000E+03</pdfrwt>
<totfact> 0.45668217E+06</totfact>
</mgrwt>
</event>
<event>
 3    1  0.1573868E-001  0.1250000E+03  0.7546771E-02  0.1235069E+00
         21   -1    0    0  502  501  0.00000000000E+00  0.00000000000E+00  0.15534616942E+02  0.15534616942E+02  0.00000000000E+00 0. -1.
         21   -1    0    0  501  502 -0.00000000000E+00 -0.00000000000E+00 -0.25145454276E+03  0.25145454276E+03  0.00000000000E+00 0. -1.
         25    1    1    2    0    0  0.00000000000E+00  0.00000000000E+00 -0.23591992582E+03  0.26698915970E+03  0.12500000000E+03 0.  0.
<mgrwt>
<rscale>  0 0.12500000E+03</rscale>
<asrwt>0</asrwt>
<pdfrwt beam="1">  1       21 0.23899410E-02 0.12500000E+03</pdfrwt>
<pdfrwt beam="2">  1       21 0.38685315E-01 0.12500000E+03</pdfrwt>
<totfact> 0.58314540E+06</totfact>
</mgrwt>
</event>
<event>
 3    1  0.1573868E-001  0.1250000E+03  0.7546771E-02  0.1235069E+00
         21   -1    0    0  502  501  0.00000000000E+00  0.00000000000E+00  0.34626863861E+03  0.34626863861E+03  0.00000000000E+00 0.  1.
         21   -1    0    0  501  502 -0.00000000000E+00 -0.00000000000E+00 -0.11280981193E+02  0.11280981193E+02  0.00000000000E+00 0.  1.
         25    1    1    2    0    0  0.00000000000E+00  0.00000000000E+00  0.33498765742E+03  0.35754961980E+03  0.12500000000E+03 0.  0.
<mgrwt>
<rscale>  0 0.12500000E+03</rscale>
<asrwt>0</asrwt>
<pdfrwt beam="1">  1       21 0.53272090E-01 0.12500000E+03</pdfrwt>
<pdfrwt beam="2">  1       21 0.17355358E-02 0.12500000E+03</pdfrwt>
<totfact> 0.50985663E+06</totfact>
</mgrwt>
</event>
<event>
 3    1  0.1573868E-001  0.1250000E+03  0.7546771E-02  0.1235069E+00
         21   -1    0    0  502  501  0.00000000000E+00  0.00000000000E+00  0.47856631524E+02  0.47856631524E+02  0.00000000000E+00 0. -1.
         21   -1    0    0  501  502 -0.00000000000E+00 -0.00000000000E+00 -0.81624006447E+02  0.81624006447E+02  0.00000000000E+00 0. -1.
         25    1    1    2    0    0  0.00000000000E+00  0.00000000000E+00 -0.33767374923E+02  0.12948063797E+03  0.12500000000E+03 0.  0.
<mgrwt>
<rscale>  0 0.12500000E+03</rscale>
<asrwt>0</asrwt>
<pdfrwt beam="1">  1       21 0.73625588E-02 0.12500000E+03</pdfrwt>
<pdfrwt beam="2">  1       21 0.12557539E-01 0.12500000E+03</pdfrwt>
<totfact> 0.73434410E+06</totfact>
</mgrwt>
</event>
<event>
 3    1  0.1573868E-001  0.1250000E+03  0.7546771E-02  0.1235069E+00
         21   -1    0    0  502  501  0.00000000000E+00  0.00000000000E+00  0.27051885197E+01  0.27051885197E+01  0.00000000000E+00 0.  1.
         21   -1    0    0  501  502 -0.00000000000E+00 -0.00000000000E+00 -0.14439843921E+04  0.14439843921E+04  0.00000000000E+00 0.  1.
         25    1    1    2    0    0  0.00000000000E+00  0.00000000000E+00 -0.14412792035E+04  0.14466895806E+04  0.12500000000E+03 0.  0.
<mgrwt>
<rscale>  0 0.12500000E+03</rscale>
<asrwt>0</asrwt>
<pdfrwt beam="1">  1       21 0.41618221E-03 0.12500000E+03</pdfrwt>
<pdfrwt beam="2">  1       21 0.22215179E+00 0.12500000E+03</pdfrwt>
<totfact> 0.14802019E+06</totfact>
</mgrwt>
</event>
<event>
 3    1  0.1573868E-001  0.1250000E+03  0.7546771E-02  0.1235069E+00
         21   -1    0    0  502  501  0.00000000000E+00  0.00000000000E+00  0.44485791389E+02  0.44485791389E+02  0.00000000000E+00 0.  1.
         21   -1    0    0  501  502 -0.00000000000E+00 -0.00000000000E+00 -0.87808935798E+02  0.87808935798E+02  0.00000000000E+00 0.  1.
         25    1    1    2    0    0  0.00000000000E+00  0.00000000000E+00 -0.43323144410E+02  0.13229472719E+03  0.12500000000E+03 0.  0.
<mgrwt>
<rscale>  0 0.12500000E+03</rscale>
<asrwt>0</asrwt>
<pdfrwt beam="1">  1       21 0.68439680E-02 0.12500000E+03</pdfrwt>
<pdfrwt beam="2">  1       21 0.13509067E-01 0.12500000E+03</pdfrwt>
<totfact> 0.73056723E+06</totfact>
</mgrwt>
</event>
<event>
 3    1  0.1573868E-001  0.1250000E+03  0.7546771E-02  0.1235069E+00
         21   -1    0    0  502  501  0.00000000000E+00  0.00000000000E+00  0.18165794075E+02  0.18165794075E+02  0.00000000000E+00 0.  1.
         21   -1    0    0  501  502 -0.00000000000E+00 -0.00000000000E+00 -0.21503326438E+03  0.21503326438E+03  0.00000000000E+00 0.  1.
         25    1    1    2    0    0  0.00000000000E+00  0.00000000000E+00 -0.19686747031E+03  0.23319905846E+03  0.12500000000E+03 0.  0.
<mgrwt>
<rscale>  0 0.12500000E+03</rscale>
<asrwt>0</asrwt>
<pdfrwt beam="1">  1       21 0.27947375E-02 0.12500000E+03</pdfrwt>
<pdfrwt beam="2">  1       21 0.33082042E-01 0.12500000E+03</pdfrwt>
<totfact> 0.61497050E+06</totfact>
</mgrwt>
</event>
<event>
 3    1  0.1573868E-001  0.1250000E+03  0.7546771E-02  0.1235069E+00
         21   -1    0    0  502  501  0.00000000000E+00  0.00000000000E+00  0.75290374981E+01  0.75290374981E+01  0.00000000000E+00 0. -1.
         21   -1    0    0  501  502 -0.00000000000E+00 -0.00000000000E+00 -0.51882461749E+03  0.51882461749E+03  0.00000000000E+00 0. -1.
         25    1    1    2    0    0  0.00000000000E+00  0.00000000000E+00 -0.51129557999E+03  0.52635365499E+03  0.12500000000E+03 0.  0.
<mgrwt>
<rscale>  0 0.12500000E+03</rscale>
<asrwt>0</asrwt>
<pdfrwt beam="1">  1       21 0.11583135E-02 0.12500000E+03</pdfrwt>
<pdfrwt beam="2">  1       21 0.79819168E-01 0.12500000E+03</pdfrwt>
<totfact> 0.40649993E+06</totfact>
</mgrwt>
</event>
<event>
 3    1  0.1573868E-001  0.1250000E+03  0.7546771E-02  0.1235069E+00
         21   -1    0    0  502  501  0.00000000000E+00  0.00000000000E+00  0.75495588609E+02  0.75495588609E+02  0.00000000000E+00 0.  1.
         21   -1    0    0  501  502 -0.00000000000E+00 -0.00000000000E+00 -0.51741433797E+02  0.51741433797E+02  0.00000000000E+00 0.  1.
         25    1    1    2    0    0  0.00000000000E+00  0.00000000000E+00  0.23754154812E+02  0.12723702241E+03  0.12500000000E+03 0.  0.
<mgrwt>
<rscale>  0 0.12500000E+03</rscale>
<asrwt>0</asrwt>
<pdfrwt beam="1">  1       21 0.11614706E-01 0.12500000E+03</pdfrwt>
<pdfrwt beam="2">  1       21 0.79602205E-02 0.12500000E+03</pdfrwt>
<totfact> 0.73736904E+06</totfact>
</mgrwt>
</event>
<event>
 3    1  0.1573868E-001  0.1250000E+03  0.7546771E-02  0.1235069E+00
         21   -1    0    0  502  501  0.00000000000E+00  0.00000000000E+00  0.18243388076E+02  0.18243388076E+02  0.00000000000E+00 0. -1.
         21   -1    0    0  501  502 -0.00000000000E+00 -0.00000000000E+00 -0.21411867048E+03  0.21411867048E+03  0.00000000000E+00 0. -1.
         25    1    1    2    0    0  0.00000000000E+00  0.00000000000E+00 -0.19587528241E+03  0.23236205856E+03  0.12500000000E+03 0.  0.
<mgrwt>
<rscale>  0 0.12500000E+03</rscale>
<asrwt>0</asrwt>
<pdfrwt beam="1">  1       21 0.28066752E-02 0.12500000E+03</pdfrwt>
<pdfrwt beam="2">  1       21 0.32941333E-01 0.12500000E+03</pdfrwt>
<totfact> 0.61579696E+06</totfact>
</mgrwt>
</event>
<event>
 3    1  0.1573868E-001  0.1250000E+03  0.7546771E-02  0.1235069E+00
         21   -1    0    0  502  501  0.00000000000E+00  0.00000000000E+00  0.49584830519E+03  0.49584830519E+03  0.00000000000E+00 0.  1.
         21   -1    0    0  501  502 -0.00000000000E+00 -0.00000000000E+00 -0.78779133842E+01  0.78779133842E+01  0.00000000000E+00 0.  1.
         25    1    1    2    0    0  0.00000000000E+00  0.00000000000E+00  0.48797039181E+03  0.50372621857E+03  0.12500000000E+03 0.  0.
<mgrwt>
<rscale>  0 0.12500000E+03</rscale>
<asrwt>0</asrwt>
<pdfrwt beam="1">  1       21 0.76284330E-01 0.12500000E+03</pdfrwt>
<pdfrwt beam="2">  1       21 0.12119871E-02 0.12500000E+03</pdfrwt>
<totfact> 0.41842716E+06</totfact>
</mgrwt>
</event>
<event>
 3    1  0.1573868E-001  0.1250000E+03  0.7546771E-02  0.1235069E+00
         21   -1    0    0  502  501  0.00000000000E+00  0.00000000000E+00  0.25306331214E+02  0.25306331214E+02  0.00000000000E+00 0.  1.
         21   -1    0    0  501  502 -0.00000000000E+00 -0.00000000000E+00 -0.15435860564E+03  0.15435860564E+03  0.00000000000E+00 0.  1.
         25    1    1    2    0    0  0.00000000000E+00  0.00000000000E+00 -0.12905227443E+03  0.17966493685E+03  0.12500000000E+03 0.  0.
<mgrwt>
<rscale>  0 0.12500000E+03</rscale>
<asrwt>0</asrwt>
<pdfrwt beam="1">  1       21 0.38932816E-02 0.12500000E+03</pdfrwt>
<pdfrwt beam="2">  1       21 0.23747478E-01 0.12500000E+03</pdfrwt>
<totfact> 0.67189994E+06</totfact>
</mgrwt>
</event>
<event>
 3    1  0.1573868E-001  0.1250000E+03  0.7546771E-02  0.1235069E+00
         21   -1    0    0  502  501  0.00000000000E+00  0.00000000000E+00  0.35413280240E+02  0.35413280240E+02  0.00000000000E+00 0. -1.
         21   -1    0    0  501  502 -0.00000000000E+00 -0.00000000000E+00 -0.11030466462E+03  0.11030466462E+03  0.00000000000E+00 0. -1.
         25    1    1    2    0    0  0.00000000000E+00  0.00000000000E+00 -0.74891384379E+02  0.14571794486E+03  0.12500000000E+03 0.  0.
<mgrwt>
<rscale>  0 0.12500000E+03</rscale>
<asrwt>0</asrwt>
<pdfrwt beam="1">  1       21 0.54481970E-02 0.12500000E+03</pdfrwt>
<pdfrwt beam="2">  1       21 0.16969948E-01 0.12500000E+03</pdfrwt>
<totfact> 0.71301346E+06</totfact>
</mgrwt>
</event>
<event>
 3    1  0.1573868E-001  0.1250000E+03  0.7546771E-02  0.1235069E+00
         21   -1    0    0  502  501  0.00000000000E+00  0.00000000000E+00  0.15000363175E+03  0.15000363175E+03  0.00000000000E+00 0.  1.
         21   -1    0    0  501  502 -0.00000000000E+00 -0.00000000000E+00 -0.26041036170E+02  0.26041036170E+02  0.00000000000E+00 0.  1.
         25    1    1    2    0    0  0.00000000000E+00  0.00000000000E+00  0.12396259558E+03  0.17604466792E+03  0.12500000000E+03 0.  0.
<mgrwt>
<rscale>  0 0.12500000E+03</rscale>
<asrwt>0</asrwt>
<pdfrwt beam="1">  1       21 0.23077481E-01 0.12500000E+03</pdfrwt>
<pdfrwt beam="2">  1       21 0.40063133E-02 0.12500000E+03</pdfrwt>
<totfact> 0.67608202E+06</totfact>
</mgrwt>
</event>
<event>
 3    1  0.1573868E-001  0.1250000E+03  0.7546771E-02  0.1235069E+00
         21   -1    0    0  502  501  0.00000000000E+00  0.00000000000E+00  0.74843476489E+03  0.74843476489E+03  0.00000000000E+00 0.  1.
         21   -1    0    0  501  502 -0.00000000000E+00 -0.00000000000E+00 -0.52192257539E+01  0.52192257539E+01  0.00000000000E+00 0.  1.
         25    1    1    2    0    0  0.00000000000E+00  0.00000000000E+00  0.74321553913E+03  0.75365399064E+03  0.12500000000E+03 0.  0.
<mgrwt>
<rscale>  0 0.12500000E+03</rscale>
<asrwt>0</asrwt>
<pdfrwt beam="1">  1       21 0.11514372E+00 0.12500000E+03</pdfrwt>
<pdfrwt beam="2">  1       21 0.80295840E-03 0.12500000E+03</pdfrwt>
<totfact> 0.30940778E+06</totfact>
</mgrwt>
</event>
<event>
 3    1  0.1573868E-001  0.1250000E+03  0.7546771E-02  0.1235069E+00
         21   -1    0    0  502  501  0.00000000000E+00  0.00000000000E+00  0.40020730656E+02  0.40020730656E+02  0.00000000000E+00 0.  1.
         21   -1    0    0  501  502 -0.00000000000E+00 -0.00000000000E+00 -0.97605664263E+02  0.97605664263E+02  0.00000000000E+00 0.  1.
         25    1    1    2    0    0  0.00000000000E+00  0.00000000000E+00 -0.57584933607E+02  0.13762639492E+03  0.12500000000E+03 0.  0.
<mgrwt>
<rscale>  0 0.12500000E+03</rscale>
<asrwt>0</asrwt>
<pdfrwt beam="1">  1       21 0.61570355E-02 0.12500000E+03</pdfrwt>
<pdfrwt beam="2">  1       21 0.15016256E-01 0.12500000E+03</pdfrwt>
<totfact> 0.72350551E+06</totfact>
</mgrwt>
</event>
<event>
 3    1  0.1573868E-001  0.1250000E+03  0.7546771E-02  0.1235069E+00
         21   -1    0    0  502  501  0.00000000000E+00  0.00000000000E+00  0.14301080793E+02  0.14301080793E+02  0.00000000000E+00 0.  1.
         21   -1    0    0  501  502 -0.00000000000E+00 -0.00000000000E+00 -0.27314369149E+03  0.27314369149E+03  0.00000000000E+00 0.  1.
         25    1    1    2    0    0  0.00000000000E+00  0.00000000000E+00 -0.25884261070E+03  0.28744477228E+03  0.12500000000E+03 0.  0.
<mgrwt>
<rscale>  0 0.12500000E+03</rscale>
<asrwt>0</asrwt>
<pdfrwt beam="1">  1       21 0.22001661E-02 0.12500000E+03</pdfrwt>
<pdfrwt beam="2">  1       21 0.42022110E-01 0.12500000E+03</pdfrwt>
<totfact> 0.56515972E+06</totfact>
</mgrwt>
</event>
<event>
 3    1  0.1573868E-001  0.1250000E+03  0.7546771E-02  0.1235069E+00
         21   -1    0    0  502  501  0.00000000000E+00  0.00000000000E+00  0.97625529492E+01  0.97625529492E+01  0.00000000000E+00 0. -1.
         21   -1    0    0  501  502 -0.00000000000E+00 -0.00000000000E+00 -0.40012587080E+03  0.40012587080E+03  0.00000000000E+00 0. -1.
         25    1    1    2    0    0  0.00000000000E+00  0.00000000000E+00 -0.39036331785E+03  0.40988842375E+03  0.12500000000E+03 0.  0.
<mgrwt>
<rscale>  0 0.12500000E+03</rscale>
<asrwt>0</asrwt>
<pdfrwt beam="1">  1       21 0.15019310E-02 0.12500000E+03</pdfrwt>
<pdfrwt beam="2">  1       21 0.61557833E-01 0.12500000E+03</pdfrwt>
<totfact> 0.47392302E+06</totfact>
</mgrwt>
</event>
<event>
 3    1  0.1573868E-001  0.1250000E+03  0.7546771E-02  0.1235069E+00
         21   -1    0    0  502  501  0.00000000000E+00  0.00000000000E+00  0.21828942141E+02  0.21828942141E+02  0.00000000000E+00 0.  1.
         21   -1    0    0  501  502 -0.00000000000E+00 -0.00000000000E+00 -0.17894820440E+03  0.17894820440E+03  0.00000000000E+00 0.  1.
         25    1    1    2    0    0  0.00000000000E+00  0.00000000000E+00 -0.15711926226E+03  0.20077714654E+03  0.12500000000E+03 0.  0.
<mgrwt>
<rscale>  0 0.12500000E+03</rscale>
<asrwt>0</asrwt>
<pdfrwt beam="1">  1       21 0.33582987E-02 0.12500000E+03</pdfrwt>
<pdfrwt beam="2">  1       21 0.27530494E-01 0.12500000E+03</pdfrwt>
<totfact> 0.64843140E+06</totfact>
</mgrwt>
</event>
<event>
 3    1  0.1573868E-001  0.1250000E+03  0.7546771E-02  0.1235069E+00
         21   -1    0    0  502  501  0.00000000000E+00  0.00000000000E+00  0.29978206736E+02  0.29978206736E+02  0.00000000000E+00 0.  1.
         21   -1    0    0  501  502 -0.00000000000E+00 -0.00000000000E+00 -0.13030299092E+03  0.13030299092E+03  0.00000000000E+00 0.  1.
         25    1    1    2    0    0  0.00000000000E+00  0.00000000000E+00 -0.10032478418E+03  0.16028119765E+03  0.12500000000E+03 0.  0.
<mgrwt>
<rscale>  0 0.12500000E+03</rscale>
<asrwt>0</asrwt>
<pdfrwt beam="1">  1       21 0.46120317E-02 0.12500000E+03</pdfrwt>
<pdfrwt beam="2">  1       21 0.20046614E-01 0.12500000E+03</pdfrwt>
<totfact> 0.69485153E+06</totfact>
</mgrwt>
</event>
<event>
 3    1  0.1573868E-001  0.1250000E+03  0.7546771E-02  0.1235069E+00
         21   -1    0    0  502  501  0.00000000000E+00  0.00000000000E+00  0.17674131312E+04  0.17674131312E+04  0.00000000000E+00 0. -1.
         21   -1    0    0  501  502 -0.00000000000E+00 -0.00000000000E+00 -0.22101510570E+01  0.22101510570E+01  0.00000000000E+00 0. -1.
         25    1    1    2    0    0  0.00000000000E+00  0.00000000000E+00  0.17652029801E+04  0.17696232822E+04  0.12500000000E+03 0.  0.
<mgrwt>
<rscale>  0 0.12500000E+03</rscale>
<asrwt>0</asrwt>
<pdfrwt beam="1">  1       21 0.27190858E+00 0.12500000E+03</pdfrwt>
<pdfrwt beam="2">  1       21 0.34002465E-03 0.12500000E+03</pdfrwt>
<totfact> 0.10424049E+06</totfact>
</mgrwt>
</event>
<event>
 3    1  0.1573868E-001  0.1250000E+03  0.7546771E-02  0.1235069E+00
         21   -1    0    0  502  501  0.00000000000E+00  0.00000000000E+00  0.73545503323E+03  0.73545503323E+03  0.00000000000E+00 0. -1.
         21   -1    0    0  501  502 -0.00000000000E+00 -0.00000000000E+00 -0.53113376393E+01  0.53113376393E+01  0.00000000000E+00 0. -1.
         25    1    1    2    0    0  0.00000000000E+00  0.00000000000E+00  0.73014369559E+03  0.74076637087E+03  0.12500000000E+03 0.  0.
<mgrwt>
<rscale>  0 0.12500000E+03</rscale>
<asrwt>0</asrwt>
<pdfrwt beam="1">  1       21 0.11314685E+00 0.12500000E+03</pdfrwt>
<pdfrwt beam="2">  1       21 0.81712945E-03 0.12500000E+03</pdfrwt>
<totfact> 0.31396334E+06</totfact>
</mgrwt>
</event>
<event>
 3    1  0.1573868E-001  0.1250000E+03  0.7546771E-02  0.1235069E+00
         21   -1    0    0  502  501  0.00000000000E+00  0.00000000000E+00  0.67847886769E+03  0.67847886769E+03  0.00000000000E+00 0.  1.
         21   -1    0    0  501  502 -0.00000000000E+00 -0.00000000000E+00 -0.57573642836E+01  0.57573642836E+01  0.00000000000E+00 0.  1.
         25    1    1    2    0    0  0.00000000000E+00  0.00000000000E+00  0.67272150341E+03  0.68423623197E+03  0.12500000000E+03 0.  0.
<mgrwt>
<rscale>  0 0.12500000E+03</rscale>
<asrwt>0</asrwt>
<pdfrwt beam="1">  1       21 0.10438130E+00 0.12500000E+03</pdfrwt>
<pdfrwt beam="2">  1       21 0.88574889E-03 0.12500000E+03</pdfrwt>
<totfact> 0.33526813E+06</totfact>
</mgrwt>
</event>
<event>
 3    1  0.1573868E-001  0.1250000E+03  0.7546771E-02  0.1235069E+00
         21   -1    0    0  502  501  0.00000000000E+00  0.00000000000E+00  0.16360621691E+04  0.16360621691E+04  0.00000000000E+00 0.  1.
         21   -1    0    0  501  502 -0.00000000000E+00 -0.00000000000E+00 -0.23875926440E+01  0.23875926440E+01  0.00000000000E+00 0.  1.
         25    1    1    2    0    0  0.00000000000E+00  0.00000000000E+00  0.16336745764E+04  0.16384497617E+04  0.12500000000E+03 0.  0.
<mgrwt>
<rscale>  0 0.12500000E+03</rscale>
<asrwt>0</asrwt>
<pdfrwt beam="1">  1       21 0.25170098E+00 0.12500000E+03</pdfrwt>
<pdfrwt beam="2">  1       21 0.36732325E-03 0.12500000E+03</pdfrwt>
<totfact> 0.12059309E+06</totfact>
</mgrwt>
</event>
<event>
 3    1  0.1573868E-001  0.1250000E+03  0.7546771E-02  0.1235069E+00
         21   -1    0    0  502  501  0.00000000000E+00  0.00000000000E+00  0.14239618135E+03  0.14239618135E+03  0.00000000000E+00 0. -1.
         21   -1    0    0  501  502 -0.00000000000E+00 -0.00000000000E+00 -0.27432266533E+02  0.27432266533E+02  0.00000000000E+00 0. -1.
         25    1    1    2    0    0  0.00000000000E+00  0.00000000000E+00  0.11496391482E+03  0.16982844788E+03  0.12500000000E+03 0.  0.
<mgrwt>
<rscale>  0 0.12500000E+03</rscale>
<asrwt>0</asrwt>
<pdfrwt beam="1">  1       21 0.21907104E-01 0.12500000E+03</pdfrwt>
<pdfrwt beam="2">  1       21 0.42203488E-02 0.12500000E+03</pdfrwt>
<totfact> 0.68337978E+06</totfact>
</mgrwt>
</event>
<event>
 3    1  0.1573868E-001  0.1250000E+03  0.7546771E-02  0.1235069E+00
         21   -1    0    0  502  501  0.00000000000E+00  0.00000000000E+00  0.18645984867E+04  0.18645984867E+04  0.00000000000E+00 0. -1.
         21   -1    0    0  501  502 -0.00000000000E+00 -0.00000000000E+00 -0.20949550415E+01  0.20949550415E+01  0.00000000000E+00 0. -1.
         25    1    1    2    0    0  0.00000000000E+00  0.00000000000E+00  0.18625035316E+04  0.18666934417E+04  0.12500000000E+03 0.  0.
<mgrwt>
<rscale>  0 0.12500000E+03</rscale>
<asrwt>0</asrwt>
<pdfrwt beam="1">  1       21 0.28685998E+00 0.12500000E+03</pdfrwt>
<pdfrwt beam="2">  1       21 0.32230227E-03 0.12500000E+03</pdfrwt>
<totfact> 0.93231866E+05</totfact>
</mgrwt>
</event>
<event>
 3    1  0.1573868E-001  0.1250000E+03  0.7546771E-02  0.1235069E+00
         21   -1    0    0  502  501  0.00000000000E+00  0.00000000000E+00  0.48898809568E+03  0.48898809568E+03  0.00000000000E+00 0.  1.
         21   -1    0    0  501  502 -0.00000000000E+00 -0.00000000000E+00 -0.79884357810E+01  0.79884357810E+01  0.00000000000E+00 0.  1.
         25    1    1    2    0    0  0.00000000000E+00  0.00000000000E+00  0.48099965990E+03  0.49697653146E+03  0.12500000000E+03 0.  0.
<mgrwt>
<rscale>  0 0.12500000E+03</rscale>
<asrwt>0</asrwt>
<pdfrwt beam="1">  1       21 0.75228915E-01 0.12500000E+03</pdfrwt>
<pdfrwt beam="2">  1       21 0.12289905E-02 0.12500000E+03</pdfrwt>
<totfact> 0.42208524E+06</totfact>
</mgrwt>
</event>
<event>
 3    1  0.1573868E-001  0.1250000E+03  0.7546771E-02  0.1235069E+00
         21   -1    0    0  502  501  0.00000000000E+00  0.00000000000E+00  0.10064368904E+03  0.10064368904E+03  0.00000000000E+00 0.  1.
         21   -1    0    0  501  502 -0.00000000000E+00 -0.00000000000E+00 -0.38812667116E+02  0.38812667116E+02  0.00000000000E+00 0.  1.
         25    1    1    2    0    0  0.00000000000E+00  0.00000000000E+00  0.61831021924E+02  0.13945635616E+03  0.12500000000E+03 0.  0.
<mgrwt>
<rscale>  0 0.12500000E+03</rscale>
<asrwt>0</asrwt>
<pdfrwt beam="1">  1       21 0.15483644E-01 0.12500000E+03</pdfrwt>
<pdfrwt beam="2">  1       21 0.59711796E-02 0.12500000E+03</pdfrwt>
<totfact> 0.72110359E+06</totfact>
</mgrwt>
</event>
<event>
 3    1  0.1573868E-001  0.1250000E+03  0.7546771E-02  0.1235069E+00
         21   -1    0    0  502  501  0.00000000000E+00  0.00000000000E+00  0.40693859174E+03  0.40693859174E+03  0.00000000000E+00 0. -1.
         21   -1    0    0  501  502 -0.00000000000E+00 -0.00000000000E+00 -0.95991141645E+01  0.95991141645E+01  0.00000000000E+00 0. -1.
         25    1    1    2    0    0  0.00000000000E+00  0.00000000000E+00  0.39733947757E+03  0.41653770590E+03  0.12500000000E+03 0.  0.
<mgrwt>
<rscale>  0 0.12500000E+03</rscale>
<asrwt>0</asrwt>
<pdfrwt beam="1">  1       21 0.62605924E-01 0.12500000E+03</pdfrwt>
<pdfrwt beam="2">  1       21 0.14767871E-02 0.12500000E+03</pdfrwt>
<totfact> 0.46963431E+06</totfact>
</mgrwt>
</event>
<event>
 3    1  0.1573868E-001  0.1250000E+03  0.7546771E-02  0.1235069E+00
         21   -1    0    0  502  501  0.00000000000E+00  0.00000000000E+00  0.39562298155E+03  0.39562298155E+03  0.00000000000E+00 0.  1.
         21   -1    0    0  501  502 -0.00000000000E+00 -0.00000000000E+00 -0.98736680683E+01  0.98736680683E+01  0.00000000000E+00 0.  1.
         25    1    1    2    0    0  0.00000000000E+00  0.00000000000E+00  0.38574931348E+03  0.40549664962E+03  0.12500000000E+03 0.  0.
<mgrwt>
<rscale>  0 0.12500000E+03</rscale>
<asrwt>0</asrwt>
<pdfrwt beam="1">  1       21 0.60865062E-01 0.12500000E+03</pdfrwt>
<pdfrwt beam="2">  1       21 0.15190262E-02 0.12500000E+03</pdfrwt>
<totfact> 0.47678893E+06</totfact>
</mgrwt>
</event>
<event>
 3    1  0.1573868E-001  0.1250000E+03  0.7546771E-02  0.1235069E+00
         21   -1    0    0  502  501  0.00000000000E+00  0.00000000000E+00  0.44188710272E+02  0.44188710272E+02  0.00000000000E+00 0. -1.
         21   -1    0    0  501  502 -0.00000000000E+00 -0.00000000000E+00 -0.88399276104E+02  0.88399276104E+02  0.00000000000E+00 0. -1.
         25    1    1    2    0    0  0.00000000000E+00  0.00000000000E+00 -0.44210565832E+02  0.13258798638E+03  0.12500000000E+03 0.  0.
<mgrwt>
<rscale>  0 0.12500000E+03</rscale>
<asrwt>0</asrwt>
<pdfrwt beam="1">  1       21 0.67982632E-02 0.12500000E+03</pdfrwt>
<pdfrwt beam="2">  1       21 0.13599889E-01 0.12500000E+03</pdfrwt>
<totfact> 0.73017466E+06</totfact>
</mgrwt>
</event>
<event>
 3    1  0.1573868E-001  0.1250000E+03  0.7546771E-02  0.1235069E+00
         21   -1    0    0  502  501  0.00000000000E+00  0.00000000000E+00  0.37913670736E+02  0.37913670736E+02  0.00000000000E+00 0. -1.
         21   -1    0    0  501  502 -0.00000000000E+00 -0.00000000000E+00 -0.10303011880E+03  0.10303011880E+03  0.00000000000E+00 0. -1.
         25    1    1    2    0    0  0.00000000000E+00  0.00000000000E+00 -0.65116448063E+02  0.14094378953E+03  0.12500000000E+03 0.  0.
<mgrwt>
<rscale>  0 0.12500000E+03</rscale>
<asrwt>0</asrwt>
<pdfrwt beam="1">  1       21 0.58328724E-02 0.12500000E+03</pdfrwt>
<pdfrwt beam="2">  1       21 0.15850788E-01 0.12500000E+03</pdfrwt>
<totfact> 0.71916337E+06</totfact>
</mgrwt>
</event>
<event>
 3    1  0.1573868E-001  0.1250000E+03  0.7546771E-02  0.1235069E+00
         21   -1    0    0  502  501  0.00000000000E+00  0.00000000000E+00  0.39938552092E+03  0.39938552092E+03  0.00000000000E+00 0. -1.
         21   -1    0    0  501  502 -0.00000000000E+00 -0.00000000000E+00 -0.97806500120E+01  0.97806500120E+01  0.00000000000E+00 0. -1.
         25    1    1    2    0    0  0.00000000000E+00  0.00000000000E+00  0.38960487091E+03  0.40916617094E+03  0.12500000000E+03 0.  0.
<mgrwt>
<rscale>  0 0.12500000E+03</rscale>
<asrwt>0</asrwt>
<pdfrwt beam="1">  1       21 0.61443914E-01 0.12500000E+03</pdfrwt>
<pdfrwt beam="2">  1       21 0.15047157E-02 0.12500000E+03</pdfrwt>
<totfact> 0.47439258E+06</totfact>
</mgrwt>
</event>
<event>
 3    1  0.1573868E-001  0.1250000E+03  0.7546771E-02  0.1235069E+00
         21   -1    0    0  502  501  0.00000000000E+00  0.00000000000E+00  0.51465510368E+01  0.51465510368E+01  0.00000000000E+00 0. -1.
         21   -1    0    0  501  502 -0.00000000000E+00 -0.00000000000E+00 -0.75900345145E+03  0.75900345145E+03  0.00000000000E+00 0. -1.
         25    1    1    2    0    0  0.00000000000E+00  0.00000000000E+00 -0.75385690042E+03  0.76415000249E+03  0.12500000000E+03 0.  0.
<mgrwt>
<rscale>  0 0.12500000E+03</rscale>
<asrwt>0</asrwt>
<pdfrwt beam="1">  1       21 0.79177725E-03 0.12500000E+03</pdfrwt>
<pdfrwt beam="2">  1       21 0.11676974E+00 0.12500000E+03</pdfrwt>
<totfact> 0.30577328E+06</totfact>
</mgrwt>
</event>
<event>
 3    1  0.1573868E-001  0.1250000E+03  0.7546771E-02  0.1235069E+00
         21   -1    0    0  502  501  0.00000000000E+00  0.00000000000E+00  0.20675499600E+03  0.20675499600E+03  0.00000000000E+00 0.  1.
         21   -1    0    0  501  502 -0.00000000000E+00 -0.00000000000E+00 -0.18893134752E+02  0.18893134752E+02  0.00000000000E+00 0.  1.
         25    1    1    2    0    0  0.00000000000E+00  0.00000000000E+00  0.18786186124E+03  0.22564813075E+03  0.12500000000E+03 0.  0.
<mgrwt>
<rscale>  0 0.12500000E+03</rscale>
<asrwt>0</asrwt>
<pdfrwt beam="1">  1       21 0.31808459E-01 0.12500000E+03</pdfrwt>
<pdfrwt beam="2">  1       21 0.29066363E-02 0.12500000E+03</pdfrwt>
<totfact> 0.62249750E+06</totfact>
</mgrwt>
</event>
<event>
 3    1  0.1573868E-001  0.1250000E+03  0.7546771E-02  0.1235069E+00
         21   -1    0    0  502  501  0.00000000000E+00  0.00000000000E+00  0.63751750800E+02  0.63751750800E+02  0.00000000000E+00 0.  1.
         21   -1    0    0  501  502 -0.00000000000E+00 -0.00000000000E+00 -0.61272827036E+02  0.61272827036E+02  0.00000000000E+00 0.  1.
         25    1    1    2    0    0  0.00000000000E+00  0.00000000000E+00  0.24789237634E+01  0.12502457784E+03  0.12500000000E+03 0.  0.
<mgrwt>
<rscale>  0 0.12500000E+03</rscale>
<asrwt>0</asrwt>
<pdfrwt beam="1">  1       21 0.98079617E-02 0.12500000E+03</pdfrwt>
<pdfrwt beam="2">  1       21 0.94265887E-02 0.12500000E+03</pdfrwt>
<totfact> 0.74040262E+06</totfact>
</mgrwt>
</event>
<event>
 3    1  0.1573868E-001  0.1250000E+03  0.7546771E-02  0.1235069E+00
         21   -1    0    0  502  501  0.00000000000E+00  0.00000000000E+00  0.18560706626E+03  0.18560706626E+03  0.00000000000E+00 0. -1.
         21   -1    0    0  501  502 -0.00000000000E+00 -0.00000000000E+00 -0.21045804337E+02  0.21045804337E+02  0.00000000000E+00 0. -1.
         25    1    1    2    0    0  0.00000000000E+00  0.00000000000E+00  0.16456126192E+03  0.20665287060E+03  0.12500000000E+03 0.  0.
<mgrwt>
<rscale>  0 0.12500000E+03</rscale>
<asrwt>0</asrwt>
<pdfrwt beam="1">  1       21 0.28554932E-01 0.12500000E+03</pdfrwt>
<pdfrwt beam="2">  1       21 0.32378162E-02 0.12500000E+03</pdfrwt>
<totfact> 0.64213422E+06</totfact>
</mgrwt>
</event>
<event>
 3    1  0.1573868E-001  0.1250000E+03  0.7546771E-02  0.1235069E+00
         21   -1    0    0  502  501  0.00000000000E+00  0.00000000000E+00  0.25917915458E+01  0.25917915458E+01  0.00000000000E+00 0. -1.
         21   -1    0    0  501  502 -0.00000000000E+00 -0.00000000000E+00 -0.15071621043E+04  0.15071621043E+04  0.00000000000E+00 0. -1.
         25    1    1    2    0    0  0.00000000000E+00  0.00000000000E+00 -0.15045703127E+04  0.15097538958E+04  0.12500000000E+03 0.  0.
<mgrwt>
<rscale>  0 0.12500000E+03</rscale>
<asrwt>0</asrwt>
<pdfrwt beam="1">  1       21 0.39873766E-03 0.12500000E+03</pdfrwt>
<pdfrwt beam="2">  1       21 0.23187080E+00 0.12500000E+03</pdfrwt>
<totfact> 0.13848947E+06</totfact>
</mgrwt>
</event>
<event>
 3    1  0.1573868E-001  0.1250000E+03  0.7546771E-02  0.1235069E+00
         21   -1    0    0  502  501  0.00000000000E+00  0.00000000000E+00  0.88966306979E+02  0.88966306979E+02  0.00000000000E+00 0. -1.
         21   -1    0    0  501  502 -0.00000000000E+00 -0.00000000000E+00 -0.43907071482E+02  0.43907071482E+02  0.00000000000E+00 0. -1.
         25    1    1    2    0    0  0.00000000000E+00  0.00000000000E+00  0.45059235496E+02  0.13287337846E+03  0.12500000000E+03 0.  0.
<mgrwt>
<rscale>  0 0.12500000E+03</rscale>
<asrwt>0</asrwt>
<pdfrwt beam="1">  1       21 0.13687124E-01 0.12500000E+03</pdfrwt>
<pdfrwt beam="2">  1       21 0.67549341E-02 0.12500000E+03</pdfrwt>
<totfact> 0.72979311E+06</totfact>
</mgrwt>
</event>
<event>
 3    1  0.1573868E-001  0.1250000E+03  0.7546771E-02  0.1235069E+00
         21   -1    0    0  502  501  0.00000000000E+00  0.00000000000E+00  0.59485503593E+03  0.59485503593E+03  0.00000000000E+00 0.  1.
         21   -1    0    0  501  502 -0.00000000000E+00 -0.00000000000E+00 -0.65667259484E+01  0.65667259484E+01  0.00000000000E+00 0.  1.
         25    1    1    2    0    0  0.00000000000E+00  0.00000000000E+00  0.58828830999E+03  0.60142176188E+03  0.12500000000E+03 0.  0.
<mgrwt>
<rscale>  0 0.12500000E+03</rscale>
<asrwt>0</asrwt>
<pdfrwt beam="1">  1       21 0.91516117E-01 0.12500000E+03</pdfrwt>
<pdfrwt beam="2">  1       21 0.10102660E-02 0.12500000E+03</pdfrwt>
<totfact> 0.37028425E+06</totfact>
</mgrwt>
</event>
<event>
 3    1  0.1573868E-001  0.1250000E+03  0.7546771E-02  0.1235069E+00
         21   -1    0    0  502  501  0.00000000000E+00  0.00000000000E+00  0.51326107308E+02  0.51326107308E+02  0.00000000000E+00 0.  1.
         21   -1    0    0  501  502 -0.00000000000E+00 -0.00000000000E+00 -0.76106492483E+02  0.76106492483E+02  0.00000000000E+00 0.  1.
         25    1    1    2    0    0  0.00000000000E+00  0.00000000000E+00 -0.24780385175E+02  0.12743259979E+03  0.12500000000E+03 0.  0.
<mgrwt>
<rscale>  0 0.12500000E+03</rscale>
<asrwt>0</asrwt>
<pdfrwt beam="1">  1       21 0.78963242E-02 0.12500000E+03</pdfrwt>
<pdfrwt beam="2">  1       21 0.11708691E-01 0.12500000E+03</pdfrwt>
<totfact> 0.73710357E+06</totfact>
</mgrwt>
</event>
<event>
 3    1  0.1573868E-001  0.1250000E+03  0.7546771E-02  0.1235069E+00
         21   -1    0    0  502  501  0.00000000000E+00  0.00000000000E+00  0.16001479824E+01  0.16001479824E+01  0.00000000000E+00 0. -1.
         21   -1    0    0  501  502 -0.00000000000E+00 -0.00000000000E+00 -0.24411804677E+04  0.24411804677E+04  0.00000000000E+00 0. -1.
         25    1    1    2    0    0  0.00000000000E+00  0.00000000000E+00 -0.24395803197E+04  0.24427806157E+04  0.12500000000E+03 0.  0.
<mgrwt>
<rscale>  0 0.12500000E+03</rscale>
<asrwt>0</asrwt>
<pdfrwt beam="1">  1       21 0.24617731E-03 0.12500000E+03</pdfrwt>
<pdfrwt beam="2">  1       21 0.37556516E+00 0.12500000E+03</pdfrwt>
<totfact> 0.43814300E+05</totfact>
</mgrwt>
</event>
<event>
 3    1  0.1573868E-001  0.1250000E+03  0.7546771E-02  0.1235069E+00
         21   -1    0    0  502  501  0.00000000000E+00  0.00000000000E+00  0.34415699018E+02  0.34415699018E+02  0.00000000000E+00 0. -1.
         21   -1    0    0  501  502 -0.00000000000E+00 -0.00000000000E+00 -0.11350198054E+03  0.11350198054E+03  0.00000000000E+00 0. -1.
         25    1    1    2    0    0  0.00000000000E+00  0.00000000000E+00 -0.79086281518E+02  0.14791767955E+03  0.12500000000E+03 0.  0.
<mgrwt>
<rscale>  0 0.12500000E+03</rscale>
<asrwt>0</asrwt>
<pdfrwt beam="1">  1       21 0.52947229E-02 0.12500000E+03</pdfrwt>
<pdfrwt beam="2">  1       21 0.17461843E-01 0.12500000E+03</pdfrwt>
<totfact> 0.71021768E+06</totfact>
</mgrwt>
</event>
<event>
 3    1  0.1573868E-001  0.1250000E+03  0.7546771E-02  0.1235069E+00
         21   -1    0    0  502  501  0.00000000000E+00  0.00000000000E+00  0.16742374723E+03  0.16742374723E+03  0.00000000000E+00 0. -1.
         21   -1    0    0  501  502 -0.00000000000E+00 -0.00000000000E+00 -0.23331516972E+02  0.23331516972E+02  0.00000000000E+00 0. -1.
         25    1    1    2    0    0  0.00000000000E+00  0.00000000000E+00  0.14409223025E+03  0.19075526420E+03  0.12500000000E+03 0.  0.
<mgrwt>
<rscale>  0 0.12500000E+03</rscale>
<asrwt>0</asrwt>
<pdfrwt beam="1">  1       21 0.25757499E-01 0.12500000E+03</pdfrwt>
<pdfrwt beam="2">  1       21 0.35894642E-02 0.12500000E+03</pdfrwt>
<totfact> 0.65938622E+06</totfact>
</mgrwt>
</event>
<event>
 3    1  0.1573868E-001  0.1250000E+03  0.7546771E-02  0.1235069E+00
         21   -1    0    0  502  501  0.00000000000E+00  0.00000000000E+00  0.93234364520E+02  0.93234364520E+02  0.00000000000E+00 0. -1.
         21   -1    0    0  501  502 -0.00000000000E+00 -0.00000000000E+00 -0.41897105430E+02  0.41897105430E+02  0.00000000000E+00 0. -1.
         25    1    1    2    0    0  0.00000000000E+00  0.00000000000E+00  0.51337259091E+02  0.13513146995E+03  0.12500000000E+03 0.  0.
<mgrwt>
<rscale>  0 0.12500000E+03</rscale>
<asrwt>0</asrwt>
<pdfrwt beam="1">  1       21 0.14343748E-01 0.12500000E+03</pdfrwt>
<pdfrwt beam="2">  1       21 0.64457085E-02 0.12500000E+03</pdfrwt>
<totfact> 0.72679069E+06</totfact>
</mgrwt>
</event>
<event>
 3    1  0.1573868E-001  0.1250000E+03  0.7546771E-02  0.1235069E+00
         21   -1    0    0  502  501  0.00000000000E+00  0.00000000000E+00  0.61167014793E+01  0.61167014793E+01  0.00000000000E+00 0.  1.
         21   -1    0    0  501  502 -0.00000000000E+00 -0.00000000000E+00 -0.63862034354E+03  0.63862034354E+03  0.00000000000E+00 0.  1.
         25    1    1    2    0    0  0.00000000000E+00  0.00000000000E+00 -0.63250364206E+03  0.64473704502E+03  0.12500000000E+03 0.  0.
<mgrwt>
<rscale>  0 0.12500000E+03</rscale>
<asrwt>0</asrwt>
<pdfrwt beam="1">  1       21 0.94103143E-03 0.12500000E+03</pdfrwt>
<pdfrwt beam="2">  1       21 0.98249238E-01 0.12500000E+03</pdfrwt>
<totfact> 0.35144379E+06</totfact>
</mgrwt>
</event>
<event>
 3    1  0.1573868E-001  0.1250000E+03  0.7546771E-02  0.1235069E+00
         21   -1    0    0  502  501  0.00000000000E+00  0.00000000000E+00  0.18908678691E+02  0.18908678691E+02  0.00000000000E+00 0. -1.
         21   -1    0    0  501  502 -0.00000000000E+00 -0.00000000000E+00 -0.20658503240E+03  0.20658503240E+03  0.00000000000E+00 0. -1.
         25    1    1    2    0    0  0.00000000000E+00  0.00000000000E+00 -0.18767635370E+03  0.22549371109E+03  0.12500000000E+03 0.  0.
<mgrwt>
<rscale>  0 0.12500000E+03</rscale>
<asrwt>0</asrwt>
<pdfrwt beam="1">  1       21 0.29090274E-02 0.12500000E+03</pdfrwt>
<pdfrwt beam="2">  1       21 0.31782313E-01 0.12500000E+03</pdfrwt>
<totfact> 0.62265311E+06</totfact>
</mgrwt>
</event>
<event>
 3    1  0.1573868E-001  0.1250000E+03  0.7546771E-02  0.1235069E+00
         21   -1    0    0  502  501  0.00000000000E+00  0.00000000000E+00  0.17684775410E+03  0.17684775410E+03  0.00000000000E+00 0.  1.
         21   -1    0    0  501  502 -0.00000000000E+00 -0.00000000000E+00 -0.22088208131E+02  0.22088208131E+02  0.00000000000E+00 0.  1.
         25    1    1    2    0    0  0.00000000000E+00  0.00000000000E+00  0.15475954597E+03  0.19893596223E+03  0.12500000000E+03 0.  0.
<mgrwt>
<rscale>  0 0.12500000E+03</rscale>
<asrwt>0</asrwt>
<pdfrwt beam="1">  1       21 0.27207346E-01 0.12500000E+03</pdfrwt>
<pdfrwt beam="2">  1       21 0.33981860E-02 0.12500000E+03</pdfrwt>
<totfact> 0.65042730E+06</totfact>
</mgrwt>
</event>
<event>
 3    1  0.1573868E-001  0.1250000E+03  0.7546771E-02  0.1235069E+00
         21   -1    0    0  502  501  0.00000000000E+00  0.00000000000E+00  0.98999762042E+01  0.98999762042E+01  0.00000000000E+00 0. -1.
         21   -1    0    0  501  502 -0.00000000000E+00 -0.00000000000E+00 -0.39457165547E+03  0.39457165547E+03  0.00000000000E+00 0. -1.
         25    1    1    2    0    0  0.00000000000E+00  0.00000000000E+00 -0.38467167926E+03  0.40447163167E+03  0.12500000000E+03 0.  0.
<mgrwt>
<rscale>  0 0.12500000E+03</rscale>
<asrwt>0</asrwt>
<pdfrwt beam="1">  1       21 0.15230733E-02 0.12500000E+03</pdfrwt>
<pdfrwt beam="2">  1       21 0.60703331E-01 0.12500000E+03</pdfrwt>
<totfact> 0.47746160E+06</totfact>
</mgrwt>
</event>
<event>
 3    1  0.1573868E-001  0.1250000E+03  0.7546771E-02  0.1235069E+00
         21   -1    0    0  502  501  0.00000000000E+00  0.00000000000E+00  0.72193097302E+01  0.72193097302E+01  0.00000000000E+00 0.  1.
         21   -1    0    0  501  502 -0.00000000000E+00 -0.00000000000E+00 -0.54108358638E+03  0.54108358638E+03  0.00000000000E+00 0.  1.
         25    1    1    2    0    0  0.00000000000E+00  0.00000000000E+00 -0.53386427665E+03  0.54830289611E+03  0.12500000000E+03 0.  0.
<mgrwt>
<rscale>  0 0.12500000E+03</rscale>
<asrwt>0</asrwt>
<pdfrwt beam="1">  1       21 0.11106625E-02 0.12500000E+03</pdfrwt>
<pdfrwt beam="2">  1       21 0.83243669E-01 0.12500000E+03</pdfrwt>
<totfact> 0.39540048E+06</totfact>
</mgrwt>
</event>
<event>
 3    1  0.1573868E-001  0.1250000E+03  0.7546771E-02  0.1235069E+00
         21   -1    0    0  502  501  0.00000000000E+00  0.00000000000E+00  0.31331008880E+03  0.31331008880E+03  0.00000000000E+00 0. -1.
         21   -1    0    0  501  502 -0.00000000000E+00 -0.00000000000E+00 -0.12467680230E+02  0.12467680230E+02  0.00000000000E+00 0. -1.
         25    1    1    2    0    0  0.00000000000E+00  0.00000000000E+00  0.30084240857E+03  0.32577776903E+03  0.12500000000E+03 0.  0.
<mgrwt>
<rscale>  0 0.12500000E+03</rscale>
<asrwt>0</asrwt>
<pdfrwt beam="1">  1       21 0.48201546E-01 0.12500000E+03</pdfrwt>
<pdfrwt beam="2">  1       21 0.19181049E-02 0.12500000E+03</pdfrwt>
<totfact> 0.53378639E+06</totfact>
</mgrwt>
</event>
<event>
 3    1  0.1573868E-001  0.1250000E+03  0.7546771E-02  0.1235069E+00
         21   -1    0    0  502  501  0.00000000000E+00  0.00000000000E+00  0.32862049005E+03  0.32862049005E+03  0.00000000000E+00 0. -1.
         21   -1    0    0  501  502 -0.00000000000E+00 -0.00000000000E+00 -0.11886812047E+02  0.11886812047E+02  0.00000000000E+00 0. -1.
         25    1    1    2    0    0  0.00000000000E+00  0.00000000000E+00  0.31673367800E+03  0.34050730210E+03  0.12500000000E+03 0.  0.
<mgrwt>
<rscale>  0 0.12500000E+03</rscale>
<asrwt>0</asrwt>
<pdfrwt beam="1">  1       21 0.50556992E-01 0.12500000E+03</pdfrwt>
<pdfrwt beam="2">  1       21 0.18287406E-02 0.12500000E+03</pdfrwt>
<totfact> 0.52247230E+06</totfact>
</mgrwt>
</event>
<event>
 3    1  0.1573868E-001  0.1250000E+03  0.7546771E-02  0.1235069E+00
         21   -1    0    0  502  501  0.00000000000E+00  0.00000000000E+00  0.67405048529E+03  0.67405048529E+03  0.00000000000E+00 0.  1.
         21   -1    0    0  501  502 -0.00000000000E+00 -0.00000000000E+00 -0.57951890626E+01  0.57951890626E+01  0.00000000000E+00 0.  1.
         25    1    1    2    0    0  0.00000000000E+00  0.00000000000E+00  0.66825529623E+03  0.67984567435E+03  0.12500000000E+03 0.  0.
<mgrwt>
<rscale>  0 0.12500000E+03</rscale>
<asrwt>0</asrwt>
<pdfrwt beam="1">  1       21 0.10370001E+00 0.12500000E+03</pdfrwt>
<pdfrwt beam="2">  1       21 0.89156808E-03 0.12500000E+03</pdfrwt>
<totfact> 0.33701756E+06</totfact>
</mgrwt>
</event>
<event>
 3    1  0.1573868E-001  0.1250000E+03  0.7546771E-02  0.1235069E+00
         21   -1    0    0  502  501  0.00000000000E+00  0.00000000000E+00  0.17042923603E+02  0.17042923603E+02  0.00000000000E+00 0.  1.
         21   -1    0    0  501  502 -0.00000000000E+00 -0.00000000000E+00 -0.22920069884E+03  0.22920069884E+03  0.00000000000E+00 0.  1.
         25    1    1    2    0    0  0.00000000000E+00  0.00000000000E+00 -0.21215777524E+03  0.24624362244E+03  0.12500000000E+03 0.  0.
<mgrwt>
<rscale>  0 0.12500000E+03</rscale>
<asrwt>0</asrwt>
<pdfrwt beam="1">  1       21 0.26219884E-02 0.12500000E+03</pdfrwt>
<pdfrwt beam="2">  1       21 0.35261644E-01 0.12500000E+03</pdfrwt>
<totfact> 0.60233661E+06</totfact>
</mgrwt>
</event>
<event>
 3    1  0.1573868E-001  0.1250000E+03  0.7546771E-02  0.1235069E+00
         21   -1    0    0  502  501  0.00000000000E+00  0.00000000000E+00  0.72684329955E+02  0.72684329955E+02  0.00000000000E+00 0. -1.
         21   -1    0    0  501  502 -0.00000000000E+00 -0.00000000000E+00 -0.53742670565E+02  0.53742670565E+02  0.00000000000E+00 0. -1.
         25    1    1    2    0    0  0.00000000000E+00  0.00000000000E+00  0.18941659390E+02  0.12642700052E+03  0.12500000000E+03 0.  0.
<mgrwt>
<rscale>  0 0.12500000E+03</rscale>
<asrwt>0</asrwt>
<pdfrwt beam="1">  1       21 0.11182205E-01 0.12500000E+03</pdfrwt>
<pdfrwt beam="2">  1       21 0.82681031E-02 0.12500000E+03</pdfrwt>
<totfact> 0.73847368E+06</totfact>
</mgrwt>
</event>
<event>
 3    1  0.1573868E-001  0.1250000E+03  0.7546771E-02  0.1235069E+00
         21   -1    0    0  502  501  0.00000000000E+00  0.00000000000E+00  0.47434661138E+02  0.47434661138E+02  0.00000000000E+00 0.  1.
         21   -1    0    0  501  502 -0.00000000000E+00 -0.00000000000E+00 -0.82350119222E+02  0.82350119222E+02  0.00000000000E+00 0.  1.
         25    1    1    2    0    0  0.00000000000E+00  0.00000000000E+00 -0.34915458084E+02  0.12978478036E+03  0.12500000000E+03 0.  0.
<mgrwt>
<rscale>  0 0.12500000E+03</rscale>
<asrwt>0</asrwt>
<pdfrwt beam="1">  1       21 0.72976402E-02 0.12500000E+03</pdfrwt>
<pdfrwt beam="2">  1       21 0.12669249E-01 0.12500000E+03</pdfrwt>
<totfact> 0.73393693E+06</totfact>
</mgrwt>
</event>
<event>
 3    1  0.1573868E-001  0.1250000E+03  0.7546771E-02  0.1235069E+00
         21   -1    0    0  502  501  0.00000000000E+00  0.00000000000E+00  0.24392365005E+03  0.24392365005E+03  0.00000000000E+00 0.  1.
         21   -1    0    0  501  502 -0.00000000000E+00 -0.00000000000E+00 -0.16014232319E+02  0.16014232319E+02  0.00000000000E+00 0.  1.
         25    1    1    2    0    0  0.00000000000E+00  0.00000000000E+00  0.22790941773E+03  0.25993788236E+03  0.12500000000E+03 0.  0.
<mgrwt>
<rscale>  0 0.12500000E+03</rscale>
<asrwt>0</asrwt>
<pdfrwt beam="1">  1       21 0.37526713E-01 0.12500000E+03</pdfrwt>
<pdfrwt beam="2">  1       21 0.24637282E-02 0.12500000E+03</pdfrwt>
<totfact> 0.58954966E+06</totfact>
</mgrwt>
</event>
<event>
 3    1  0.1573868E-001  0.1250000E+03  0.7546771E-02  0.1235069E+00
         21   -1    0    0  502  501  0.00000000000E+00  0.00000000000E+00  0.85820869750E+02  0.85820869750E+02  0.00000000000E+00 0.  1.
         21   -1    0    0  501  502 -0.00000000000E+00 -0.00000000000E+00 -0.45516318016E+02  0.45516318016E+02  0.00000000000E+00 0.  1.
         25    1    1    2    0    0  0.00000000000E+00  0.00000000000E+00  0.40304551734E+02  0.13133718777E+03  0.12500000000E+03 0.  0.
<mgrwt>
<rscale>  0 0.12500000E+03</rscale>
<asrwt>0</asrwt>
<pdfrwt beam="1">  1       21 0.13203211E-01 0.12500000E+03</pdfrwt>
<pdfrwt beam="2">  1       21 0.70025105E-02 0.12500000E+03</pdfrwt>
<totfact> 0.73185269E+06</totfact>
</mgrwt>
</event>
<event>
 3    1  0.1573868E-001  0.1250000E+03  0.7546771E-02  0.1235069E+00
         21   -1    0    0  502  501  0.00000000000E+00  0.00000000000E+00  0.70563130323E+02  0.70563130323E+02  0.00000000000E+00 0.  1.
         21   -1    0    0  501  502 -0.00000000000E+00 -0.00000000000E+00 -0.55358230029E+02  0.55358230029E+02  0.00000000000E+00 0.  1.
         25    1    1    2    0    0  0.00000000000E+00  0.00000000000E+00  0.15204900294E+02  0.12592136035E+03  0.12500000000E+03 0.  0.
<mgrwt>
<rscale>  0 0.12500000E+03</rscale>
<asrwt>0</asrwt>
<pdfrwt beam="1">  1       21 0.10855866E-01 0.12500000E+03</pdfrwt>
<pdfrwt beam="2">  1       21 0.85166508E-02 0.12500000E+03</pdfrwt>
<totfact> 0.73916890E+06</totfact>
</mgrwt>
</event>
<event>
 3    1  0.1573868E-001  0.1250000E+03  0.7546771E-02  0.1235069E+00
         21   -1    0    0  502  501  0.00000000000E+00  0.00000000000E+00  0.56684494515E+02  0.56684494515E+02  0.00000000000E+00 0. -1.
         21   -1    0    0  501  502 -0.00000000000E+00 -0.00000000000E+00 -0.68912143143E+02  0.68912143143E+02  0.00000000000E+00 0. -1.
         25    1    1    2    0    0  0.00000000000E+00  0.00000000000E+00 -0.12227648628E+02  0.12559663766E+03  0.12500000000E+03 0.  0.
<mgrwt>
<rscale>  0 0.12500000E+03</rscale>
<asrwt>0</asrwt>
<pdfrwt beam="1">  1       21 0.87206915E-02 0.12500000E+03</pdfrwt>
<pdfrwt beam="2">  1       21 0.10601868E-01 0.12500000E+03</pdfrwt>
<totfact> 0.73961911E+06</totfact>
</mgrwt>
</event>
<event>
 3    1  0.1573868E-001  0.1250000E+03  0.7546771E-02  0.1235069E+00
         21   -1    0    0  502  501  0.00000000000E+00  0.00000000000E+00  0.60722407634E+02  0.60722407634E+02  0.00000000000E+00 0.  1.
         21   -1    0    0  501  502 -0.00000000000E+00 -0.00000000000E+00 -0.64329629740E+02  0.64329629740E+02  0.00000000000E+00 0.  1.
         25    1    1    2    0    0  0.00000000000E+00  0.00000000000E+00 -0.36072221060E+01  0.12505203737E+03  0.12500000000E+03 0.  0.
<mgrwt>
<rscale>  0 0.12500000E+03</rscale>
<asrwt>0</asrwt>
<pdfrwt beam="1">  1       21 0.93419088E-02 0.12500000E+03</pdfrwt>
<pdfrwt beam="2">  1       21 0.98968661E-02 0.12500000E+03</pdfrwt>
<totfact> 0.74036553E+06</totfact>
</mgrwt>
</event>
<event>
 3    1  0.1573868E-001  0.1250000E+03  0.7546771E-02  0.1235069E+00
         21   -1    0    0  502  501  0.00000000000E+00  0.00000000000E+00  0.27603251138E+02  0.27603251138E+02  0.00000000000E+00 0.  1.
         21   -1    0    0  501  502 -0.00000000000E+00 -0.00000000000E+00 -0.14151412747E+03  0.14151412747E+03  0.00000000000E+00 0.  1.
         25    1    1    2    0    0  0.00000000000E+00  0.00000000000E+00 -0.11391087633E+03  0.16911737860E+03  0.12500000000E+03 0.  0.
<mgrwt>
<rscale>  0 0.12500000E+03</rscale>
<asrwt>0</asrwt>
<pdfrwt beam="1">  1       21 0.42466540E-02 0.12500000E+03</pdfrwt>
<pdfrwt beam="2">  1       21 0.21771404E-01 0.12500000E+03</pdfrwt>
<totfact> 0.68422255E+06</totfact>
</mgrwt>
</event>
<event>
 3    1  0.1573868E-001  0.1250000E+03  0.7546771E-02  0.1235069E+00
         21   -1    0    0  502  501  0.00000000000E+00  0.00000000000E+00  0.44267452452E+02  0.44267452452E+02  0.00000000000E+00 0. -1.
         21   -1    0    0  501  502 -0.00000000000E+00 -0.00000000000E+00 -0.88242032998E+02  0.88242032998E+02  0.00000000000E+00 0. -1.
         25    1    1    2    0    0  0.00000000000E+00  0.00000000000E+00 -0.43974580546E+02  0.13250948545E+03  0.12500000000E+03 0.  0.
<mgrwt>
<rscale>  0 0.12500000E+03</rscale>
<asrwt>0</asrwt>
<pdfrwt beam="1">  1       21 0.68103773E-02 0.12500000E+03</pdfrwt>
<pdfrwt beam="2">  1       21 0.13575697E-01 0.12500000E+03</pdfrwt>
<totfact> 0.73027969E+06</totfact>
</mgrwt>
</event>
<event>
 3    1  0.1573868E-001  0.1250000E+03  0.7546771E-02  0.1235069E+00
         21   -1    0    0  502  501  0.00000000000E+00  0.00000000000E+00  0.15225623951E+01  0.15225623951E+01  0.00000000000E+00 0.  1.
         21   -1    0    0  501  502 -0.00000000000E+00 -0.00000000000E+00 -0.25655763026E+04  0.25655763026E+04  0.00000000000E+00 0.  1.
         25    1    1    2    0    0  0.00000000000E+00  0.00000000000E+00 -0.25640537402E+04  0.25670988650E+04  0.12500000000E+03 0.  0.
<mgrwt>
<rscale>  0 0.12500000E+03</rscale>
<asrwt>0</asrwt>
<pdfrwt beam="1">  1       21 0.23424089E-03 0.12500000E+03</pdfrwt>
<pdfrwt beam="2">  1       21 0.39470316E+00 0.12500000E+03</pdfrwt>
<totfact> 0.36286213E+05</totfact>
</mgrwt>
</event>
<event>
 3    1  0.1573868E-001  0.1250000E+03  0.7546771E-02  0.1235069E+00
         21   -1    0    0  502  501  0.00000000000E+00  0.00000000000E+00  0.11067275530E+03  0.11067275530E+03  0.00000000000E+00 0. -1.
         21   -1    0    0  501  502 -0.00000000000E+00 -0.00000000000E+00 -0.35295497881E+02  0.35295497881E+02  0.00000000000E+00 0. -1.
         25    1    1    2    0    0  0.00000000000E+00  0.00000000000E+00  0.75377257415E+02  0.14596825318E+03  0.12500000000E+03 0.  0.
<mgrwt>
<rscale>  0 0.12500000E+03</rscale>
<asrwt>0</asrwt>
<pdfrwt beam="1">  1       21 0.17026578E-01 0.12500000E+03</pdfrwt>
<pdfrwt beam="2">  1       21 0.54300766E-02 0.12500000E+03</pdfrwt>
<totfact> 0.71269416E+06</totfact>
</mgrwt>
</event>
<event>
 3    1  0.1573868E-001  0.1250000E+03  0.7546771E-02  0.1235069E+00
         21   -1    0    0  502  501  0.00000000000E+00  0.00000000000E+00  0.51994298557E+02  0.51994298557E+02  0.00000000000E+00 0.  1.
         21   -1    0    0  501  502 -0.00000000000E+00 -0.00000000000E+00 -0.75128429624E+02  0.75128429624E+02  0.00000000000E+00 0.  1.
         25    1    1    2    0    0  0.00000000000E+00  0.00000000000E+00 -0.23134131067E+02  0.12712272818E+03  0.12500000000E+03 0.  0.
<mgrwt>
<rscale>  0 0.12500000E+03</rscale>
<asrwt>0</asrwt>
<pdfrwt beam="1">  1       21 0.79991229E-02 0.12500000E+03</pdfrwt>
<pdfrwt beam="2">  1       21 0.11558220E-01 0.12500000E+03</pdfrwt>
<totfact> 0.73752438E+06</totfact>
</mgrwt>
</event>
<event>
 3    1  0.1573868E-001  0.1250000E+03  0.7546771E-02  0.1235069E+00
         21   -1    0    0  502  501  0.00000000000E+00  0.00000000000E+00  0.16226000892E+03  0.16226000892E+03  0.00000000000E+00 0.  1.
         21   -1    0    0  501  502 -0.00000000000E+00 -0.00000000000E+00 -0.24074015686E+02  0.24074015686E+02  0.00000000000E+00 0.  1.
         25    1    1    2    0    0  0.00000000000E+00  0.00000000000E+00  0.13818599323E+03  0.18633402461E+03  0.12500000000E+03 0.  0.
<mgrwt>
<rscale>  0 0.12500000E+03</rscale>
<asrwt>0</asrwt>
<pdfrwt beam="1">  1       21 0.24963078E-01 0.12500000E+03</pdfrwt>
<pdfrwt beam="2">  1       21 0.37036948E-02 0.12500000E+03</pdfrwt>
<totfact> 0.66432240E+06</totfact>
</mgrwt>
</event>
<event>
 3    1  0.1573868E-001  0.1250000E+03  0.7546771E-02  0.1235069E+00
         21   -1    0    0  502  501  0.00000000000E+00  0.00000000000E+00  0.26561996315E+02  0.26561996315E+02  0.00000000000E+00 0.  1.
         21   -1    0    0  501  502 -0.00000000000E+00 -0.00000000000E+00 -0.14706161215E+03  0.14706161215E+03  0.00000000000E+00 0.  1.
         25    1    1    2    0    0  0.00000000000E+00  0.00000000000E+00 -0.12049961583E+03  0.17362360846E+03  0.12500000000E+03 0.  0.
<mgrwt>
<rscale>  0 0.12500000E+03</rscale>
<asrwt>0</asrwt>
<pdfrwt beam="1">  1       21 0.40864610E-02 0.12500000E+03</pdfrwt>
<pdfrwt beam="2">  1       21 0.22624863E-01 0.12500000E+03</pdfrwt>
<totfact> 0.67890652E+06</totfact>
</mgrwt>
</event>
<event>
 3    1  0.1573868E-001  0.1250000E+03  0.7546771E-02  0.1235069E+00
         21   -1    0    0  502  501  0.00000000000E+00  0.00000000000E+00  0.53890790911E+01  0.53890790911E+01  0.00000000000E+00 0.  1.
         21   -1    0    0  501  502 -0.00000000000E+00 -0.00000000000E+00 -0.72484555041E+03  0.72484555041E+03  0.00000000000E+00 0.  1.
         25    1    1    2    0    0  0.00000000000E+00  0.00000000000E+00 -0.71945647132E+03  0.73023462950E+03  0.12500000000E+03 0.  0.
<mgrwt>
<rscale>  0 0.12500000E+03</rscale>
<asrwt>0</asrwt>
<pdfrwt beam="1">  1       21 0.82908900E-03 0.12500000E+03</pdfrwt>
<pdfrwt beam="2">  1       21 0.11151471E+00 0.12500000E+03</pdfrwt>
<totfact> 0.31776558E+06</totfact>
</mgrwt>
</event>
<event>
 3    1  0.1573868E-001  0.1250000E+03  0.7546771E-02  0.1235069E+00
         21   -1    0    0  502  501  0.00000000000E+00  0.00000000000E+00  0.76550353279E+02  0.76550353279E+02  0.00000000000E+00 0.  1.
         21   -1    0    0  501  502 -0.00000000000E+00 -0.00000000000E+00 -0.51028503889E+02  0.51028503889E+02  0.00000000000E+00 0.  1.
         25    1    1    2    0    0  0.00000000000E+00  0.00000000000E+00  0.25521849391E+02  0.12757885717E+03  0.12500000000E+03 0.  0.
<mgrwt>
<rscale>  0 0.12500000E+03</rscale>
<asrwt>0</asrwt>
<pdfrwt beam="1">  1       21 0.11776977E-01 0.12500000E+03</pdfrwt>
<pdfrwt beam="2">  1       21 0.78505390E-02 0.12500000E+03</pdfrwt>
<totfact> 0.73690531E+06</totfact>
</mgrwt>
</event>
<event>
 3    1  0.1573868E-001  0.1250000E+03  0.7546771E-02  0.1235069E+00
         21   -1    0    0  502  501  0.00000000000E+00  0.00000000000E+00  0.13736618036E+03  0.13736618036E+03  0.00000000000E+00 0. -1.
         21   -1    0    0  501  502 -0.00000000000E+00 -0.00000000000E+00 -0.28436766530E+02  0.28436766530E+02  0.00000000000E+00 0. -1.
         25    1    1    2    0    0  0.00000000000E+00  0.00000000000E+00  0.10892941383E+03  0.16580294689E+03  0.12500000000E+03 0.  0.
<mgrwt>
<rscale>  0 0.12500000E+03</rscale>
<asrwt>0</asrwt>
<pdfrwt beam="1">  1       21 0.21133258E-01 0.12500000E+03</pdfrwt>
<pdfrwt beam="2">  1       21 0.43748873E-02 0.12500000E+03</pdfrwt>
<totfact> 0.68817299E+06</totfact>
</mgrwt>
</event>
<event>
 3    1  0.1573868E-001  0.1250000E+03  0.7546771E-02  0.1235069E+00
         21   -1    0    0  502  501  0.00000000000E+00  0.00000000000E+00  0.16134734883E+02  0.16134734883E+02  0.00000000000E+00 0. -1.
         21   -1    0    0  501  502 -0.00000000000E+00 -0.00000000000E+00 -0.24210190178E+03  0.24210190178E+03  0.00000000000E+00 0. -1.
         25    1    1    2    0    0  0.00000000000E+00  0.00000000000E+00 -0.22596716690E+03  0.25823663667E+03  0.12500000000E+03 0.  0.
<mgrwt>
<rscale>  0 0.12500000E+03</rscale>
<asrwt>0</asrwt>
<pdfrwt beam="1">  1       21 0.24822670E-02 0.12500000E+03</pdfrwt>
<pdfrwt beam="2">  1       21 0.37246445E-01 0.12500000E+03</pdfrwt>
<totfact> 0.59111273E+06</totfact>
</mgrwt>
</event>
<event>
 3    1  0.1573868E-001  0.1250000E+03  0.7546771E-02  0.1235069E+00
         21   -1    0    0  502  501  0.00000000000E+00  0.00000000000E+00  0.40999615013E+01  0.40999615013E+01  0.00000000000E+00 0.  1.
         21   -1    0    0  501  502 -0.00000000000E+00 -0.00000000000E+00 -0.95275284872E+03  0.95275284872E+03  0.00000000000E+00 0.  1.
         25    1    1    2    0    0  0.00000000000E+00  0.00000000000E+00 -0.94865288722E+03  0.95685281022E+03  0.12500000000E+03 0.  0.
<mgrwt>
<rscale>  0 0.12500000E+03</rscale>
<asrwt>0</asrwt>
<pdfrwt beam="1">  1       21 0.63076223E-03 0.12500000E+03</pdfrwt>
<pdfrwt beam="2">  1       21 0.14657761E+00 0.12500000E+03</pdfrwt>
<totfact> 0.24728779E+06</totfact>
</mgrwt>
</event>
<event>
 3    1  0.1573868E-001  0.1250000E+03  0.7546771E-02  0.1235069E+00
         21   -1    0    0  502  501  0.00000000000E+00  0.00000000000E+00  0.80042121241E+02  0.80042121241E+02  0.00000000000E+00 0.  1.
         21   -1    0    0  501  502 -0.00000000000E+00 -0.00000000000E+00 -0.48802429763E+02  0.48802429763E+02  0.00000000000E+00 0.  1.
         25    1    1    2    0    0  0.00000000000E+00  0.00000000000E+00  0.31239691478E+02  0.12884455100E+03  0.12500000000E+03 0.  0.
<mgrwt>
<rscale>  0 0.12500000E+03</rscale>
<asrwt>0</asrwt>
<pdfrwt beam="1">  1       21 0.12314173E-01 0.12500000E+03</pdfrwt>
<pdfrwt beam="2">  1       21 0.75080661E-02 0.12500000E+03</pdfrwt>
<totfact> 0.73519766E+06</totfact>
</mgrwt>
</event>
<event>
 3    1  0.1573868E-001  0.1250000E+03  0.7546771E-02  0.1235069E+00
         21   -1    0    0  502  501  0.00000000000E+00  0.00000000000E+00  0.14771791704E+02  0.14771791704E+02  0.00000000000E+00 0. -1.
         21   -1    0    0  501  502 -0.00000000000E+00 -0.00000000000E+00 -0.26443982410E+03  0.26443982410E+03  0.00000000000E+00 0. -1.
         25    1    1    2    0    0  0.00000000000E+00  0.00000000000E+00 -0.24966803240E+03  0.27921161581E+03  0.12500000000E+03 0.  0.
<mgrwt>
<rscale>  0 0.12500000E+03</rscale>
<asrwt>0</asrwt>
<pdfrwt beam="1">  1       21 0.22725836E-02 0.12500000E+03</pdfrwt>
<pdfrwt beam="2">  1       21 0.40683045E-01 0.12500000E+03</pdfrwt>
<totfact> 0.57229265E+06</totfact>
</mgrwt>
</event>
<event>
 3    1  0.1573868E-001  0.1250000E+03  0.7546771E-02  0.1235069E+00
         21   -1    0    0  502  501  0.00000000000E+00  0.00000000000E+00  0.15772623229E+03  0.15772623229E+03  0.00000000000E+00 0. -1.
         21   -1    0    0  501  502 -0.00000000000E+00 -0.00000000000E+00 -0.24766013512E+02  0.24766013512E+02  0.00000000000E+00 0. -1.
         25    1    1    2    0    0  0.00000000000E+00  0.00000000000E+00  0.13296021877E+03  0.18249224580E+03  0.12500000000E+03 0.  0.
<mgrwt>
<rscale>  0 0.12500000E+03</rscale>
<asrwt>0</asrwt>
<pdfrwt beam="1">  1       21 0.24265574E-01 0.12500000E+03</pdfrwt>
<pdfrwt beam="2">  1       21 0.38101560E-02 0.12500000E+03</pdfrwt>
<totfact> 0.66866778E+06</totfact>
</mgrwt>
</event>
<event>
 3    1  0.1573868E-001  0.1250000E+03  0.7546771E-02  0.1235069E+00
         21   -1    0    0  502  501  0.00000000000E+00  0.00000000000E+00  0.65054628830E+03  0.65054628830E+03  0.00000000000E+00 0. -1.
         21   -1    0    0  501  502 -0.00000000000E+00 -0.00000000000E+00 -0.60045688835E+01  0.60045688835E+01  0.00000000000E+00 0. -1.
         25    1    1    2    0    0  0.00000000000E+00  0.00000000000E+00  0.64454171942E+03  0.65655085718E+03  0.12500000000E+03 0.  0.
<mgrwt>
<rscale>  0 0.12500000E+03</rscale>
<asrwt>0</asrwt>
<pdfrwt beam="1">  1       21 0.10008399E+00 0.12500000E+03</pdfrwt>
<pdfrwt beam="2">  1       21 0.92378034E-03 0.12500000E+03</pdfrwt>
<totfact> 0.34653269E+06</totfact>
</mgrwt>
</event>
<event>
 3    1  0.1573868E-001  0.1250000E+03  0.7546771E-02  0.1235069E+00
         21   -1    0    0  502  501  0.00000000000E+00  0.00000000000E+00  0.33231303367E+01  0.33231303367E+01  0.00000000000E+00 0. -1.
         21   -1    0    0  501  502 -0.00000000000E+00 -0.00000000000E+00 -0.11754730041E+04  0.11754730041E+04  0.00000000000E+00 0. -1.
         25    1    1    2    0    0  0.00000000000E+00  0.00000000000E+00 -0.11721498738E+04  0.11787961345E+04  0.12500000000E+03 0.  0.
<mgrwt>
<rscale>  0 0.12500000E+03</rscale>
<asrwt>0</asrwt>
<pdfrwt beam="1">  1       21 0.51125039E-03 0.12500000E+03</pdfrwt>
<pdfrwt beam="2">  1       21 0.18084215E+00 0.12500000E+03</pdfrwt>
<totfact> 0.19571105E+06</totfact>
</mgrwt>
</event>
<event>
 3    1  0.1573868E-001  0.1250000E+03  0.7546771E-02  0.1235069E+00
         21   -1    0    0  502  501  0.00000000000E+00  0.00000000000E+00  0.46922046796E+02  0.46922046796E+02  0.00000000000E+00 0.  1.
         21   -1    0    0  501  502 -0.00000000000E+00 -0.00000000000E+00 -0.83249778447E+02  0.83249778447E+02  0.00000000000E+00 0.  1.
         25    1    1    2    0    0  0.00000000000E+00  0.00000000000E+00 -0.36327731651E+02  0.13017182524E+03  0.12500000000E+03 0.  0.
<mgrwt>
<rscale>  0 0.12500000E+03</rscale>
<asrwt>0</asrwt>
<pdfrwt beam="1">  1       21 0.72187765E-02 0.12500000E+03</pdfrwt>
<pdfrwt beam="2">  1       21 0.12807658E-01 0.12500000E+03</pdfrwt>
<totfact> 0.73341960E+06</totfact>
</mgrwt>
</event>
<event>
 3    1  0.1573868E-001  0.1250000E+03  0.7546771E-02  0.1235069E+00
         21   -1    0    0  502  501  0.00000000000E+00  0.00000000000E+00  0.63555709977E+02  0.63555709977E+02  0.00000000000E+00 0.  1.
         21   -1    0    0  501  502 -0.00000000000E+00 -0.00000000000E+00 -0.61461826190E+02  0.61461826190E+02  0.00000000000E+00 0.  1.
         25    1    1    2    0    0  0.00000000000E+00  0.00000000000E+00  0.20938837875E+01  0.12501753617E+03  0.12500000000E+03 0.  0.
<mgrwt>
<rscale>  0 0.12500000E+03</rscale>
<asrwt>0</asrwt>
<pdfrwt beam="1">  1       21 0.97778016E-02 0.12500000E+03</pdfrwt>
<pdfrwt beam="2">  1       21 0.94556655E-02 0.12500000E+03</pdfrwt>
<totfact> 0.74041213E+06</totfact>
</mgrwt>
</event>
<event>
 3    1  0.1573868E-001  0.1250000E+03  0.7546771E-02  0.1235069E+00
         21   -1    0    0  502  501  0.00000000000E+00  0.00000000000E+00  0.15395745885E+02  0.15395745885E+02  0.00000000000E+00 0. -1.
         21   -1    0    0  501  502 -0.00000000000E+00 -0.00000000000E+00 -0.25372268607E+03  0.25372268607E+03  0.00000000000E+00 0. -1.
         25    1    1    2    0    0  0.00000000000E+00  0.00000000000E+00 -0.23832694018E+03  0.26911843195E+03  0.12500000000E+03 0.  0.
<mgrwt>
<rscale>  0 0.12500000E+03</rscale>
<asrwt>0</asrwt>
<pdfrwt beam="1">  1       21 0.23685764E-02 0.12500000E+03</pdfrwt>
<pdfrwt beam="2">  1       21 0.39034257E-01 0.12500000E+03</pdfrwt>
<totfact> 0.58123466E+06</totfact>
</mgrwt>
</event>
<event>
 3    1  0.1573868E-001  0.1250000E+03  0.7546771E-02  0.1235069E+00
         21   -1    0    0  502  501  0.00000000000E+00  0.00000000000E+00  0.39916155564E+03  0.39916155564E+03  0.00000000000E+00 0. -1.
         21   -1    0    0  501  502 -0.00000000000E+00 -0.00000000000E+00 -0.97861378301E+01  0.97861378301E+01  0.00000000000E+00 0. -1.
         25    1    1    2    0    0  0.00000000000E+00  0.00000000000E+00  0.38937541781E+03  0.40894769347E+03  0.12500000000E+03 0.  0.
<mgrwt>
<rscale>  0 0.12500000E+03</rscale>
<asrwt>0</asrwt>
<pdfrwt beam="1">  1       21 0.61409458E-01 0.12500000E+03</pdfrwt>
<pdfrwt beam="2">  1       21 0.15055600E-02 0.12500000E+03</pdfrwt>
<totfact> 0.47453474E+06</totfact>
</mgrwt>
</event>
<event>
 3    1  0.1573868E-001  0.1250000E+03  0.7546771E-02  0.1235069E+00
         21   -1    0    0  502  501  0.00000000000E+00  0.00000000000E+00  0.48532867013E+01  0.48532867013E+01  0.00000000000E+00 0. -1.
         21   -1    0    0  501  502 -0.00000000000E+00 -0.00000000000E+00 -0.80486693666E+03  0.80486693666E+03  0.00000000000E+00 0. -1.
         25    1    1    2    0    0  0.00000000000E+00  0.00000000000E+00 -0.80001364996E+03  0.80972022336E+03  0.12500000000E+03 0.  0.
<mgrwt>
<rscale>  0 0.12500000E+03</rscale>
<asrwt>0</asrwt>
<pdfrwt beam="1">  1       21 0.74665929E-03 0.12500000E+03</pdfrwt>
<pdfrwt beam="2">  1       21 0.12382572E+00 0.12500000E+03</pdfrwt>
<totfact> 0.29043272E+06</totfact>
</mgrwt>
</event>
<event>
 3    1  0.1573868E-001  0.1250000E+03  0.7546771E-02  0.1235069E+00
         21   -1    0    0  502  501  0.00000000000E+00  0.00000000000E+00  0.19169212525E+02  0.19169212525E+02  0.00000000000E+00 0.  1.
         21   -1    0    0  501  502 -0.00000000000E+00 -0.00000000000E+00 -0.20377728062E+03  0.20377728062E+03  0.00000000000E+00 0.  1.
         25    1    1    2    0    0  0.00000000000E+00  0.00000000000E+00 -0.18460806810E+03  0.22294649315E+03  0.12500000000E+03 0.  0.
<mgrwt>
<rscale>  0 0.12500000E+03</rscale>
<asrwt>0</asrwt>
<pdfrwt beam="1">  1       21 0.29491096E-02 0.12500000E+03</pdfrwt>
<pdfrwt beam="2">  1       21 0.31350351E-01 0.12500000E+03</pdfrwt>
<totfact> 0.62522628E+06</totfact>
</mgrwt>
</event>
<event>
 3    1  0.1573868E-001  0.1250000E+03  0.7546771E-02  0.1235069E+00
         21   -1    0    0  502  501  0.00000000000E+00  0.00000000000E+00  0.14508209812E+02  0.14508209812E+02  0.00000000000E+00 0. -1.
         21   -1    0    0  501  502 -0.00000000000E+00 -0.00000000000E+00 -0.26924410735E+03  0.26924410735E+03  0.00000000000E+00 0. -1.
         25    1    1    2    0    0  0.00000000000E+00  0.00000000000E+00 -0.25473589754E+03  0.28375231716E+03  0.12500000000E+03 0.  0.
<mgrwt>
<rscale>  0 0.12500000E+03</rscale>
<asrwt>0</asrwt>
<pdfrwt beam="1">  1       21 0.22320324E-02 0.12500000E+03</pdfrwt>
<pdfrwt beam="2">  1       21 0.41422167E-01 0.12500000E+03</pdfrwt>
<totfact> 0.56834042E+06</totfact>
</mgrwt>
</event>
<event>
 3    1  0.1573868E-001  0.1250000E+03  0.7546771E-02  0.1235069E+00
         21   -1    0    0  502  501  0.00000000000E+00  0.00000000000E+00  0.87016728761E+02  0.87016728761E+02  0.00000000000E+00 0. -1.
         21   -1    0    0  501  502 -0.00000000000E+00 -0.00000000000E+00 -0.44890793479E+02  0.44890793479E+02  0.00000000000E+00 0. -1.
         25    1    1    2    0    0  0.00000000000E+00  0.00000000000E+00  0.42125935282E+02  0.13190752224E+03  0.12500000000E+03 0.  0.
<mgrwt>
<rscale>  0 0.12500000E+03</rscale>
<asrwt>0</asrwt>
<pdfrwt beam="1">  1       21 0.13387189E-01 0.12500000E+03</pdfrwt>
<pdfrwt beam="2">  1       21 0.69062759E-02 0.12500000E+03</pdfrwt>
<totfact> 0.73108636E+06</totfact>
</mgrwt>
</event>
<event>
 3    1  0.1573868E-001  0.1250000E+03  0.7546771E-02  0.1235069E+00
         21   -1    0    0  502  501  0.00000000000E+00  0.00000000000E+00  0.43257832540E+03  0.43257832540E+03  0.00000000000E+00 0. -1.
         21   -1    0    0  501  502 -0.00000000000E+00 -0.00000000000E+00 -0.90301565535E+01  0.90301565535E+01  0.00000000000E+00 0. -1.
         25    1    1    2    0    0  0.00000000000E+00  0.00000000000E+00  0.42354816885E+03  0.44160848195E+03  0.12500000000E+03 0.  0.
<mgrwt>
<rscale>  0 0.12500000E+03</rscale>
<asrwt>0</asrwt>
<pdfrwt beam="1">  1       21 0.66550495E-01 0.12500000E+03</pdfrwt>
<pdfrwt beam="2">  1       21 0.13892552E-02 0.12500000E+03</pdfrwt>
<totfact> 0.45398639E+06</totfact>
</mgrwt>
</event>
<event>
 3    1  0.1573868E-001  0.1250000E+03  0.7546771E-02  0.1235069E+00
         21   -1    0    0  502  501  0.00000000000E+00  0.00000000000E+00  0.54786558897E+03  0.54786558897E+03  0.00000000000E+00 0.  1.
         21   -1    0    0  501  502 -0.00000000000E+00 -0.00000000000E+00 -0.71299422315E+01  0.71299422315E+01  0.00000000000E+00 0.  1.
         25    1    1    2    0    0  0.00000000000E+00  0.00000000000E+00  0.54073564674E+03  0.55499553120E+03  0.12500000000E+03 0.  0.
<mgrwt>
<rscale>  0 0.12500000E+03</rscale>
<asrwt>0</asrwt>
<pdfrwt beam="1">  1       21 0.84286980E-01 0.12500000E+03</pdfrwt>
<pdfrwt beam="2">  1       21 0.10969146E-02 0.12500000E+03</pdfrwt>
<totfact> 0.39210364E+06</totfact>
</mgrwt>
</event>
<event>
 3    1  0.1573868E-001  0.1250000E+03  0.7546771E-02  0.1235069E+00
         21   -1    0    0  502  501  0.00000000000E+00  0.00000000000E+00  0.39266653397E+03  0.39266653397E+03  0.00000000000E+00 0. -1.
         21   -1    0    0  501  502 -0.00000000000E+00 -0.00000000000E+00 -0.99480084553E+01  0.99480084553E+01  0.00000000000E+00 0. -1.
         25    1    1    2    0    0  0.00000000000E+00  0.00000000000E+00  0.38271852551E+03  0.40261454242E+03  0.12500000000E+03 0.  0.
<mgrwt>
<rscale>  0 0.12500000E+03</rscale>
<asrwt>0</asrwt>
<pdfrwt beam="1">  1       21 0.60410224E-01 0.12500000E+03</pdfrwt>
<pdfrwt beam="2">  1       21 0.15304631E-02 0.12500000E+03</pdfrwt>
<totfact> 0.47868418E+06</totfact>
</mgrwt>
</event>
<event>
 3    1  0.1573868E-001  0.1250000E+03  0.7546771E-02  0.1235069E+00
         21   -1    0    0  502  501  0.00000000000E+00  0.00000000000E+00  0.63220869489E+02  0.63220869489E+02  0.00000000000E+00 0. -1.
         21   -1    0    0  501  502 -0.00000000000E+00 -0.00000000000E+00 -0.61787350151E+02  0.61787350151E+02  0.00000000000E+00 0. -1.
         25    1    1    2    0    0  0.00000000000E+00  0.00000000000E+00  0.14335193376E+01  0.12500821964E+03  0.12500000000E+03 0.  0.
<mgrwt>
<rscale>  0 0.12500000E+03</rscale>
<asrwt>0</asrwt>
<pdfrwt beam="1">  1       21 0.97262876E-02 0.12500000E+03</pdfrwt>
<pdfrwt beam="2">  1       21 0.95057462E-02 0.12500000E+03</pdfrwt>
<totfact> 0.74042471E+06</totfact>
</mgrwt>
</event>
<event>
 3    1  0.1573868E-001  0.1250000E+03  0.7546771E-02  0.1235069E+00
         21   -1    0    0  502  501  0.00000000000E+00  0.00000000000E+00  0.23532558973E+03  0.23532558973E+03  0.00000000000E+00 0.  1.
         21   -1    0    0  501  502 -0.00000000000E+00 -0.00000000000E+00 -0.16599342233E+02  0.16599342233E+02  0.00000000000E+00 0.  1.
         25    1    1    2    0    0  0.00000000000E+00  0.00000000000E+00  0.21872624750E+03  0.25192493196E+03  0.12500000000E+03 0.  0.
<mgrwt>
<rscale>  0 0.12500000E+03</rscale>
<asrwt>0</asrwt>
<pdfrwt beam="1">  1       21 0.36203934E-01 0.12500000E+03</pdfrwt>
<pdfrwt beam="2">  1       21 0.25537451E-02 0.12500000E+03</pdfrwt>
<totfact> 0.59697433E+06</totfact>
</mgrwt>
</event>
<event>
 3    1  0.1573868E-001  0.1250000E+03  0.7546771E-02  0.1235069E+00
         21   -1    0    0  502  501  0.00000000000E+00  0.00000000000E+00  0.72321383856E+03  0.72321383856E+03  0.00000000000E+00 0. -1.
         21   -1    0    0  501  502 -0.00000000000E+00 -0.00000000000E+00 -0.54012379074E+01  0.54012379074E+01  0.00000000000E+00 0. -1.
         25    1    1    2    0    0  0.00000000000E+00  0.00000000000E+00  0.71781260066E+03  0.72861507647E+03  0.12500000000E+03 0.  0.
<mgrwt>
<rscale>  0 0.12500000E+03</rscale>
<asrwt>0</asrwt>
<pdfrwt beam="1">  1       21 0.11126359E+00 0.12500000E+03</pdfrwt>
<pdfrwt beam="2">  1       21 0.83096025E-03 0.12500000E+03</pdfrwt>
<totfact> 0.31835705E+06</totfact>
</mgrwt>
</event>
<event>
 3    1  0.1573868E-001  0.1250000E+03  0.7546771E-02  0.1235069E+00
         21   -1    0    0  502  501  0.00000000000E+00  0.00000000000E+00  0.29868945741E+03  0.29868945741E+03  0.00000000000E+00 0. -1.
         21   -1    0    0  501  502 -0.00000000000E+00 -0.00000000000E+00 -0.13077964096E+02  0.13077964096E+02  0.00000000000E+00 0. -1.
         25    1    1    2    0    0  0.00000000000E+00  0.00000000000E+00  0.28561149332E+03  0.31176742151E+03  0.12500000000E+03 0.  0.
<mgrwt>
<rscale>  0 0.12500000E+03</rscale>
<asrwt>0</asrwt>
<pdfrwt beam="1">  1       21 0.45952219E-01 0.12500000E+03</pdfrwt>
<pdfrwt beam="2">  1       21 0.20119947E-02 0.12500000E+03</pdfrwt>
<totfact> 0.54492217E+06</totfact>
</mgrwt>
</event>
<event>
 3    1  0.1573868E-001  0.1250000E+03  0.7546771E-02  0.1235069E+00
         21   -1    0    0  502  501  0.00000000000E+00  0.00000000000E+00  0.24226266557E+03  0.24226266557E+03  0.00000000000E+00 0.  1.
         21   -1    0    0  501  502 -0.00000000000E+00 -0.00000000000E+00 -0.16124027987E+02  0.16124027987E+02  0.00000000000E+00 0.  1.
         25    1    1    2    0    0  0.00000000000E+00  0.00000000000E+00  0.22613863759E+03  0.25838669356E+03  0.12500000000E+03 0.  0.
<mgrwt>
<rscale>  0 0.12500000E+03</rscale>
<asrwt>0</asrwt>
<pdfrwt beam="1">  1       21 0.37271177E-01 0.12500000E+03</pdfrwt>
<pdfrwt beam="2">  1       21 0.24806199E-02 0.12500000E+03</pdfrwt>
<totfact> 0.59097459E+06</totfact>
</mgrwt>
</event>
<event>
 3    1  0.1573868E-001  0.1250000E+03  0.7546771E-02  0.1235069E+00
         21   -1    0    0  502  501  0.00000000000E+00  0.00000000000E+00  0.17615543132E+02  0.17615543132E+02  0.00000000000E+00 0.  1.
         21   -1    0    0  501  502 -0.00000000000E+00 -0.00000000000E+00 -0.22175018793E+03  0.22175018793E+03  0.00000000000E+00 0.  1.
         25    1    1    2    0    0  0.00000000000E+00  0.00000000000E+00 -0.20413464479E+03  0.23936573106E+03  0.12500000000E+03 0.  0.
<mgrwt>
<rscale>  0 0.12500000E+03</rscale>
<asrwt>0</asrwt>
<pdfrwt beam="1">  1       21 0.27100835E-02 0.12500000E+03</pdfrwt>
<pdfrwt beam="2">  1       21 0.34115415E-01 0.12500000E+03</pdfrwt>
<totfact> 0.60894093E+06</totfact>
</mgrwt>
</event>
<event>
 3    1  0.1573868E-001  0.1250000E+03  0.7546771E-02  0.1235069E+00
         21   -1    0    0  502  501  0.00000000000E+00  0.00000000000E+00  0.10398084252E+03  0.10398084252E+03  0.00000000000E+00 0.  1.
         21   -1    0    0  501  502 -0.00000000000E+00 -0.00000000000E+00 -0.37567016244E+02  0.37567016244E+02  0.00000000000E+00 0.  1.
         25    1    1    2    0    0  0.00000000000E+00  0.00000000000E+00  0.66413826277E+02  0.14154785876E+03  0.12500000000E+03 0.  0.
<mgrwt>
<rscale>  0 0.12500000E+03</rscale>
<asrwt>0</asrwt>
<pdfrwt beam="1">  1       21 0.15997053E-01 0.12500000E+03</pdfrwt>
<pdfrwt beam="2">  1       21 0.57795410E-02 0.12500000E+03</pdfrwt>
<totfact> 0.71837878E+06</totfact>
</mgrwt>
</event>
<event>
 3    1  0.1573868E-001  0.1250000E+03  0.7546771E-02  0.1235069E+00
         21   -1    0    0  502  501  0.00000000000E+00  0.00000000000E+00  0.54993966515E+03  0.54993966515E+03  0.00000000000E+00 0.  1.
         21   -1    0    0  501  502 -0.00000000000E+00 -0.00000000000E+00 -0.71030519301E+01  0.71030519301E+01  0.00000000000E+00 0.  1.
         25    1    1    2    0    0  0.00000000000E+00  0.00000000000E+00  0.54283661322E+03  0.55704271708E+03  0.12500000000E+03 0.  0.
<mgrwt>
<rscale>  0 0.12500000E+03</rscale>
<asrwt>0</asrwt>
<pdfrwt beam="1">  1       21 0.84606069E-01 0.12500000E+03</pdfrwt>
<pdfrwt beam="2">  1       21 0.10927777E-02 0.12500000E+03</pdfrwt>
<totfact> 0.39110307E+06</totfact>
</mgrwt>
</event>
<event>
 3    1  0.1573868E-001  0.1250000E+03  0.7546771E-02  0.1235069E+00
         21   -1    0    0  502  501  0.00000000000E+00  0.00000000000E+00  0.44578554548E+02  0.44578554548E+02  0.00000000000E+00 0.  1.
         21   -1    0    0  501  502 -0.00000000000E+00 -0.00000000000E+00 -0.87626214883E+02  0.87626214883E+02  0.00000000000E+00 0.  1.
         25    1    1    2    0    0  0.00000000000E+00  0.00000000000E+00 -0.43047660336E+02  0.13220476943E+03  0.12500000000E+03 0.  0.
<mgrwt>
<rscale>  0 0.12500000E+03</rscale>
<asrwt>0</asrwt>
<pdfrwt beam="1">  1       21 0.68582392E-02 0.12500000E+03</pdfrwt>
<pdfrwt beam="2">  1       21 0.13480956E-01 0.12500000E+03</pdfrwt>
<totfact> 0.73068775E+06</totfact>
</mgrwt>
</event>
<event>
 3    1  0.1573868E-001  0.1250000E+03  0.7546771E-02  0.1235069E+00
         21   -1    0    0  502  501  0.00000000000E+00  0.00000000000E+00  0.48822377608E+01  0.48822377608E+01  0.00000000000E+00 0. -1.
         21   -1    0    0  501  502 -0.00000000000E+00 -0.00000000000E+00 -0.80009417635E+03  0.80009417635E+03  0.00000000000E+00 0. -1.
         25    1    1    2    0    0  0.00000000000E+00  0.00000000000E+00 -0.79521193859E+03  0.80497641411E+03  0.12500000000E+03 0.  0.
<mgrwt>
<rscale>  0 0.12500000E+03</rscale>
<asrwt>0</asrwt>
<pdfrwt beam="1">  1       21 0.75111441E-03 0.12500000E+03</pdfrwt>
<pdfrwt beam="2">  1       21 0.12309126E+00 0.12500000E+03</pdfrwt>
<totfact> 0.29198626E+06</totfact>
</mgrwt>
</event>
<event>
 3    1  0.1573868E-001  0.1250000E+03  0.7546771E-02  0.1235069E+00
         21   -1    0    0  502  501  0.00000000000E+00  0.00000000000E+00  0.36555219464E+01  0.36555219464E+01  0.00000000000E+00 0. -1.
         21   -1    0    0  501  502 -0.00000000000E+00 -0.00000000000E+00 -0.10685888519E+04  0.10685888519E+04  0.00000000000E+00 0. -1.
         25    1    1    2    0    0  0.00000000000E+00  0.00000000000E+00 -0.10649333300E+04  0.10722443739E+04  0.12500000000E+03 0.  0.
<mgrwt>
<rscale>  0 0.12500000E+03</rscale>
<asrwt>0</asrwt>
<pdfrwt beam="1">  1       21 0.56238801E-03 0.12500000E+03</pdfrwt>
<pdfrwt beam="2">  1       21 0.16439828E+00 0.12500000E+03</pdfrwt>
<totfact> 0.21879488E+06</totfact>
</mgrwt>
</event>
<event>
 3    1  0.1573868E-001  0.1250000E+03  0.7546771E-02  0.1235069E+00
         21   -1    0    0  502  501  0.00000000000E+00  0.00000000000E+00  0.10779689772E+04  0.10779689772E+04  0.00000000000E+00 0.  1.
         21   -1    0    0  501  502 -0.00000000000E+00 -0.00000000000E+00 -0.36237128178E+01  0.36237128178E+01  0.00000000000E+00 0.  1.
         25    1    1    2    0    0  0.00000000000E+00  0.00000000000E+00  0.10743452644E+04  0.10815926900E+04  0.12500000000E+03 0.  0.
<mgrwt>
<rscale>  0 0.12500000E+03</rscale>
<asrwt>0</asrwt>
<pdfrwt beam="1">  1       21 0.16584113E+00 0.12500000E+03</pdfrwt>
<pdfrwt beam="2">  1       21 0.55749514E-03 0.12500000E+03</pdfrwt>
<totfact> 0.21665532E+06</totfact>
</mgrwt>
</event>
<event>
 3    1  0.1573868E-001  0.1250000E+03  0.7546771E-02  0.1235069E+00
         21   -1    0    0  502  501  0.00000000000E+00  0.00000000000E+00  0.14715361603E+03  0.14715361603E+03  0.00000000000E+00 0.  1.
         21   -1    0    0  501  502 -0.00000000000E+00 -0.00000000000E+00 -0.26545389134E+02  0.26545389134E+02  0.00000000000E+00 0.  1.
         25    1    1    2    0    0  0.00000000000E+00  0.00000000000E+00  0.12060822689E+03  0.17369900516E+03  0.12500000000E+03 0.  0.
<mgrwt>
<rscale>  0 0.12500000E+03</rscale>
<asrwt>0</asrwt>
<pdfrwt beam="1">  1       21 0.22639017E-01 0.12500000E+03</pdfrwt>
<pdfrwt beam="2">  1       21 0.40839061E-02 0.12500000E+03</pdfrwt>
<totfact> 0.67881822E+06</totfact>
</mgrwt>
</event>
<event>
 3    1  0.1573868E-001  0.1250000E+03  0.7546771E-02  0.1235069E+00
         21   -1    0    0  502  501  0.00000000000E+00  0.00000000000E+00  0.43223789334E+02  0.43223789334E+02  0.00000000000E+00 0.  1.
         21   -1    0    0  501  502 -0.00000000000E+00 -0.00000000000E+00 -0.90372687360E+02  0.90372687360E+02  0.00000000000E+00 0.  1.
         25    1    1    2    0    0  0.00000000000E+00  0.00000000000E+00 -0.47148898026E+02  0.13359647669E+03  0.12500000000E+03 0.  0.
<mgrwt>
<rscale>  0 0.12500000E+03</rscale>
<asrwt>0</asrwt>
<pdfrwt beam="1">  1       21 0.66498138E-02 0.12500000E+03</pdfrwt>
<pdfrwt beam="2">  1       21 0.13903490E-01 0.12500000E+03</pdfrwt>
<totfact> 0.72882852E+06</totfact>
</mgrwt>
</event>
<event>
 3    1  0.1573868E-001  0.1250000E+03  0.7546771E-02  0.1235069E+00
         21   -1    0    0  502  501  0.00000000000E+00  0.00000000000E+00  0.28544183473E+03  0.28544183473E+03  0.00000000000E+00 0.  1.
         21   -1    0    0  501  502 -0.00000000000E+00 -0.00000000000E+00 -0.13684924649E+02  0.13684924649E+02  0.00000000000E+00 0.  1.
         25    1    1    2    0    0  0.00000000000E+00  0.00000000000E+00  0.27175691008E+03  0.29912675938E+03  0.12500000000E+03 0.  0.
<mgrwt>
<rscale>  0 0.12500000E+03</rscale>
<asrwt>0</asrwt>
<pdfrwt beam="1">  1       21 0.43914124E-01 0.12500000E+03</pdfrwt>
<pdfrwt beam="2">  1       21 0.21053732E-02 0.12500000E+03</pdfrwt>
<totfact> 0.55528823E+06</totfact>
</mgrwt>
</event>
<event>
 3    1  0.1573868E-001  0.1250000E+03  0.7546771E-02  0.1235069E+00
         21   -1    0    0  502  501  0.00000000000E+00  0.00000000000E+00  0.24305390575E+04  0.24305390575E+04  0.00000000000E+00 0. -1.
         21   -1    0    0  501  502 -0.00000000000E+00 -0.00000000000E+00 -0.16071537661E+01  0.16071537661E+01  0.00000000000E+00 0. -1.
         25    1    1    2    0    0  0.00000000000E+00  0.00000000000E+00  0.24289319037E+04  0.24321462113E+04  0.12500000000E+03 0.  0.
<mgrwt>
<rscale>  0 0.12500000E+03</rscale>
<asrwt>0</asrwt>
<pdfrwt beam="1">  1       21 0.37392614E+00 0.12500000E+03</pdfrwt>
<pdfrwt beam="2">  1       21 0.24725637E-03 0.12500000E+03</pdfrwt>
<totfact> 0.44506678E+05</totfact>
</mgrwt>
</event>
<event>
 3    1  0.1573868E-001  0.1250000E+03  0.7546771E-02  0.1235069E+00
         21   -1    0    0  502  501  0.00000000000E+00  0.00000000000E+00  0.50743639635E+03  0.50743639635E+03  0.00000000000E+00 0.  1.
         21   -1    0    0  501  502 -0.00000000000E+00 -0.00000000000E+00 -0.76980091064E+01  0.76980091064E+01  0.00000000000E+00 0.  1.
         25    1    1    2    0    0  0.00000000000E+00  0.00000000000E+00  0.49973838724E+03  0.51513440546E+03  0.12500000000E+03 0.  0.
<mgrwt>
<rscale>  0 0.12500000E+03</rscale>
<asrwt>0</asrwt>
<pdfrwt beam="1">  1       21 0.78067112E-01 0.12500000E+03</pdfrwt>
<pdfrwt beam="2">  1       21 0.11843095E-02 0.12500000E+03</pdfrwt>
<totfact> 0.41235023E+06</totfact>
</mgrwt>
</event>
<event>
 3    1  0.1573868E-001  0.1250000E+03  0.7546771E-02  0.1235069E+00
         21   -1    0    0  502  501  0.00000000000E+00  0.00000000000E+00  0.78890485685E+02  0.78890485685E+02  0.00000000000E+00 0.  1.
         21   -1    0    0  501  502 -0.00000000000E+00 -0.00000000000E+00 -0.49514842837E+02  0.49514842837E+02  0.00000000000E+00 0.  1.
         25    1    1    2    0    0  0.00000000000E+00  0.00000000000E+00  0.29375642848E+02  0.12840532852E+03  0.12500000000E+03 0.  0.
<mgrwt>
<rscale>  0 0.12500000E+03</rscale>
<asrwt>0</asrwt>
<pdfrwt beam="1">  1       21 0.12136998E-01 0.12500000E+03</pdfrwt>
<pdfrwt beam="2">  1       21 0.76176681E-02 0.12500000E+03</pdfrwt>
<totfact> 0.73578875E+06</totfact>
</mgrwt>
</event>
<event>
 3    1  0.1573868E-001  0.1250000E+03  0.7546771E-02  0.1235069E+00
         21   -1    0    0  502  501  0.00000000000E+00  0.00000000000E+00  0.22249705078E+02  0.22249705078E+02  0.00000000000E+00 0. -1.
         21   -1    0    0  501  502 -0.00000000000E+00 -0.00000000000E+00 -0.17556412484E+03  0.17556412484E+03  0.00000000000E+00 0. -1.
         25    1    1    2    0    0  0.00000000000E+00  0.00000000000E+00 -0.15331441977E+03  0.19781382992E+03  0.12500000000E+03 0.  0.
<mgrwt>
<rscale>  0 0.12500000E+03</rscale>
<asrwt>0</asrwt>
<pdfrwt beam="1">  1       21 0.34230315E-02 0.12500000E+03</pdfrwt>
<pdfrwt beam="2">  1       21 0.27009866E-01 0.12500000E+03</pdfrwt>
<totfact> 0.65164365E+06</totfact>
</mgrwt>
</event>
<event>
 3    1  0.1573868E-001  0.1250000E+03  0.7546771E-02  0.1235069E+00
         21   -1    0    0  502  501  0.00000000000E+00  0.00000000000E+00  0.33001023683E+02  0.33001023683E+02  0.00000000000E+00 0. -1.
         21   -1    0    0  501  502 -0.00000000000E+00 -0.00000000000E+00 -0.11836754028E+03  0.11836754028E+03  0.00000000000E+00 0. -1.
         25    1    1    2    0    0  0.00000000000E+00  0.00000000000E+00 -0.85366516593E+02  0.15136856396E+03  0.12500000000E+03 0.  0.
<mgrwt>
<rscale>  0 0.12500000E+03</rscale>
<asrwt>0</asrwt>
<pdfrwt beam="1">  1       21 0.50770806E-02 0.12500000E+03</pdfrwt>
<pdfrwt beam="2">  1       21 0.18210391E-01 0.12500000E+03</pdfrwt>
<totfact> 0.70587705E+06</totfact>
</mgrwt>
</event>
<event>
 3    1  0.1573868E-001  0.1250000E+03  0.7546771E-02  0.1235069E+00
         21   -1    0    0  502  501  0.00000000000E+00  0.00000000000E+00  0.23656516110E+03  0.23656516110E+03  0.00000000000E+00 0.  1.
         21   -1    0    0  501  502 -0.00000000000E+00 -0.00000000000E+00 -0.16512363789E+02  0.16512363789E+02  0.00000000000E+00 0.  1.
         25    1    1    2    0    0  0.00000000000E+00  0.00000000000E+00  0.22005279732E+03  0.25307752489E+03  0.12500000000E+03 0.  0.
<mgrwt>
<rscale>  0 0.12500000E+03</rscale>
<asrwt>0</asrwt>
<pdfrwt beam="1">  1       21 0.36394638E-01 0.12500000E+03</pdfrwt>
<pdfrwt beam="2">  1       21 0.25403638E-02 0.12500000E+03</pdfrwt>
<totfact> 0.59589650E+06</totfact>
</mgrwt>
</event>
<event>
 3    1  0.1573868E-001  0.1250000E+03  0.7546771E-02  0.1235069E+00
         21   -1    0    0  502  501  0.00000000000E+00  0.00000000000E+00  0.23900421979E+03  0.23900421979E+03  0.00000000000E+00 0.  1.
         21   -1    0    0  501  502 -0.00000000000E+00 -0.00000000000E+00 -0.16343853692E+02  0.16343853692E+02  0.00000000000E+00 0.  1.
         25    1    1    2    0    0  0.00000000000E+00  0.00000000000E+00  0.22266036610E+03  0.25534807349E+03  0.12500000000E+03 0.  0.
<mgrwt>
<rscale>  0 0.12500000E+03</rscale>
<asrwt>0</asrwt>
<pdfrwt beam="1">  1       21 0.36769877E-01 0.12500000E+03</pdfrwt>
<pdfrwt beam="2">  1       21 0.25144392E-02 0.12500000E+03</pdfrwt>
<totfact> 0.59378300E+06</totfact>
</mgrwt>
</event>
<event>
 3    1  0.1573868E-001  0.1250000E+03  0.7546771E-02  0.1235069E+00
         21   -1    0    0  502  501  0.00000000000E+00  0.00000000000E+00  0.16581100498E+03  0.16581100498E+03  0.00000000000E+00 0. -1.
         21   -1    0    0  501  502 -0.00000000000E+00 -0.00000000000E+00 -0.23558448370E+02  0.23558448370E+02  0.00000000000E+00 0. -1.
         25    1    1    2    0    0  0.00000000000E+00  0.00000000000E+00  0.14225255661E+03  0.18936945335E+03  0.12500000000E+03 0.  0.
<mgrwt>
<rscale>  0 0.12500000E+03</rscale>
<asrwt>0</asrwt>
<pdfrwt beam="1">  1       21 0.25509385E-01 0.12500000E+03</pdfrwt>
<pdfrwt beam="2">  1       21 0.36243768E-02 0.12500000E+03</pdfrwt>
<totfact> 0.66092612E+06</totfact>
</mgrwt>
</event>
<event>
 3    1  0.1573868E-001  0.1250000E+03  0.7546771E-02  0.1235069E+00
         21   -1    0    0  502  501  0.00000000000E+00  0.00000000000E+00  0.50773353328E+03  0.50773353328E+03  0.00000000000E+00 0.  1.
         21   -1    0    0  501  502 -0.00000000000E+00 -0.00000000000E+00 -0.76935040606E+01  0.76935040606E+01  0.00000000000E+00 0.  1.
         25    1    1    2    0    0  0.00000000000E+00  0.00000000000E+00  0.50004002922E+03  0.51542703734E+03  0.12500000000E+03 0.  0.
<mgrwt>
<rscale>  0 0.12500000E+03</rscale>
<asrwt>0</asrwt>
<pdfrwt beam="1">  1       21 0.78112825E-01 0.12500000E+03</pdfrwt>
<pdfrwt beam="2">  1       21 0.11836164E-02 0.12500000E+03</pdfrwt>
<totfact> 0.41219607E+06</totfact>
</mgrwt>
</event>
<event>
 3    1  0.1573868E-001  0.1250000E+03  0.7546771E-02  0.1235069E+00
         21   -1    0    0  502  501  0.00000000000E+00  0.00000000000E+00  0.19319106792E+01  0.19319106792E+01  0.00000000000E+00 0. -1.
         21   -1    0    0  501  502 -0.00000000000E+00 -0.00000000000E+00 -0.20219620099E+04  0.20219620099E+04  0.00000000000E+00 0. -1.
         25    1    1    2    0    0  0.00000000000E+00  0.00000000000E+00 -0.20200300993E+04  0.20238939206E+04  0.12500000000E+03 0.  0.
<mgrwt>
<rscale>  0 0.12500000E+03</rscale>
<asrwt>0</asrwt>
<pdfrwt beam="1">  1       21 0.29721522E-03 0.12500000E+03</pdfrwt>
<pdfrwt beam="2">  1       21 0.31107297E+00 0.12500000E+03</pdfrwt>
<totfact> 0.77171607E+05</totfact>
</mgrwt>
</event>
<event>
 3    1  0.1573868E-001  0.1250000E+03  0.7546771E-02  0.1235069E+00
         21   -1    0    0  502  501  0.00000000000E+00  0.00000000000E+00  0.15991255423E+04  0.15991255423E+04  0.00000000000E+00 0.  1.
         21   -1    0    0  501  502 -0.00000000000E+00 -0.00000000000E+00 -0.24427412961E+01  0.24427412961E+01  0.00000000000E+00 0.  1.
         25    1    1    2    0    0  0.00000000000E+00  0.00000000000E+00  0.15966828010E+04  0.16015682836E+04  0.12500000000E+03 0.  0.
<mgrwt>
<rscale>  0 0.12500000E+03</rscale>
<asrwt>0</asrwt>
<pdfrwt beam="1">  1       21 0.24601848E+00 0.12500000E+03</pdfrwt>
<pdfrwt beam="2">  1       21 0.37580763E-03 0.12500000E+03</pdfrwt>
<totfact> 0.12552527E+06</totfact>
</mgrwt>
</event>
<event>
 3    1  0.1573868E-001  0.1250000E+03  0.7546771E-02  0.1235069E+00
         21   -1    0    0  502  501  0.00000000000E+00  0.00000000000E+00  0.10112314294E+03  0.10112314294E+03  0.00000000000E+00 0.  1.
         21   -1    0    0  501  502 -0.00000000000E+00 -0.00000000000E+00 -0.38628645099E+02  0.38628645099E+02  0.00000000000E+00 0.  1.
         25    1    1    2    0    0  0.00000000000E+00  0.00000000000E+00  0.62494497844E+02  0.13975178804E+03  0.12500000000E+03 0.  0.
<mgrwt>
<rscale>  0 0.12500000E+03</rscale>
<asrwt>0</asrwt>
<pdfrwt beam="1">  1       21 0.15557407E-01 0.12500000E+03</pdfrwt>
<pdfrwt beam="2">  1       21 0.59428685E-02 0.12500000E+03</pdfrwt>
<totfact> 0.72071728E+06</totfact>
</mgrwt>
</event>
<event>
 3    1  0.1573868E-001  0.1250000E+03  0.7546771E-02  0.1235069E+00
         21   -1    0    0  502  501  0.00000000000E+00  0.00000000000E+00  0.33392449140E+02  0.33392449140E+02  0.00000000000E+00 0.  1.
         21   -1    0    0  501  502 -0.00000000000E+00 -0.00000000000E+00 -0.11698003892E+03  0.11698003892E+03  0.00000000000E+00 0.  1.
         25    1    1    2    0    0  0.00000000000E+00  0.00000000000E+00 -0.83587589777E+02  0.15037248806E+03  0.12500000000E+03 0.  0.
<mgrwt>
<rscale>  0 0.12500000E+03</rscale>
<asrwt>0</asrwt>
<pdfrwt beam="1">  1       21 0.51372998E-02 0.12500000E+03</pdfrwt>
<pdfrwt beam="2">  1       21 0.17996929E-01 0.12500000E+03</pdfrwt>
<totfact> 0.70712441E+06</totfact>
</mgrwt>
</event>
<event>
 3    1  0.1573868E-001  0.1250000E+03  0.7546771E-02  0.1235069E+00
         21   -1    0    0  502  501  0.00000000000E+00  0.00000000000E+00  0.38649329033E+02  0.38649329033E+02  0.00000000000E+00 0.  1.
         21   -1    0    0  501  502 -0.00000000000E+00 -0.00000000000E+00 -0.10106902494E+03  0.10106902494E+03  0.00000000000E+00 0.  1.
         25    1    1    2    0    0  0.00000000000E+00  0.00000000000E+00 -0.62419695909E+02  0.13971835397E+03  0.12500000000E+03 0.  0.
<mgrwt>
<rscale>  0 0.12500000E+03</rscale>
<asrwt>0</asrwt>
<pdfrwt beam="1">  1       21 0.59460507E-02 0.12500000E+03</pdfrwt>
<pdfrwt beam="2">  1       21 0.15549081E-01 0.12500000E+03</pdfrwt>
<totfact> 0.72076098E+06</totfact>
</mgrwt>
</event>
<event>
 3    1  0.1573868E-001  0.1250000E+03  0.7546771E-02  0.1235069E+00
         21   -1    0    0  502  501  0.00000000000E+00  0.00000000000E+00  0.63469290406E+03  0.63469290406E+03  0.00000000000E+00 0. -1.
         21   -1    0    0  501  502 -0.00000000000E+00 -0.00000000000E+00 -0.61545512405E+01  0.61545512405E+01  0.00000000000E+00 0. -1.
         25    1    1    2    0    0  0.00000000000E+00  0.00000000000E+00  0.62853835282E+03  0.64084745530E+03  0.12500000000E+03 0.  0.
<mgrwt>
<rscale>  0 0.12500000E+03</rscale>
<asrwt>0</asrwt>
<pdfrwt beam="1">  1       21 0.97645010E-01 0.12500000E+03</pdfrwt>
<pdfrwt beam="2">  1       21 0.94685454E-03 0.12500000E+03</pdfrwt>
<totfact> 0.35308082E+06</totfact>
</mgrwt>
</event>
<event>
 3    1  0.1573868E-001  0.1250000E+03  0.7546771E-02  0.1235069E+00
         21   -1    0    0  502  501  0.00000000000E+00  0.00000000000E+00  0.53784114931E+02  0.53784114931E+02  0.00000000000E+00 0.  1.
         21   -1    0    0  501  502 -0.00000000000E+00 -0.00000000000E+00 -0.72628321670E+02  0.72628321670E+02  0.00000000000E+00 0.  1.
         25    1    1    2    0    0  0.00000000000E+00  0.00000000000E+00 -0.18844206739E+02  0.12641243660E+03  0.12500000000E+03 0.  0.
<mgrwt>
<rscale>  0 0.12500000E+03</rscale>
<asrwt>0</asrwt>
<pdfrwt beam="1">  1       21 0.82744792E-02 0.12500000E+03</pdfrwt>
<pdfrwt beam="2">  1       21 0.11173588E-01 0.12500000E+03</pdfrwt>
<totfact> 0.73849363E+06</totfact>
</mgrwt>
</event>
<event>
 3    1  0.1573868E-001  0.1250000E+03  0.7546771E-02  0.1235069E+00
         21   -1    0    0  502  501  0.00000000000E+00  0.00000000000E+00  0.18739205431E+01  0.18739205431E+01  0.00000000000E+00 0.  1.
         21   -1    0    0  501  502 -0.00000000000E+00 -0.00000000000E+00 -0.20845334208E+04  0.20845334208E+04  0.00000000000E+00 0.  1.
         25    1    1    2    0    0  0.00000000000E+00  0.00000000000E+00 -0.20826595003E+04  0.20864073414E+04  0.12500000000E+03 0.  0.
<mgrwt>
<rscale>  0 0.12500000E+03</rscale>
<asrwt>0</asrwt>
<pdfrwt beam="1">  1       21 0.28829615E-03 0.12500000E+03</pdfrwt>
<pdfrwt beam="2">  1       21 0.32069669E+00 0.12500000E+03</pdfrwt>
<totfact> 0.71359501E+05</totfact>
</mgrwt>
</event>
<event>
 3    1  0.1573868E-001  0.1250000E+03  0.7546771E-02  0.1235069E+00
         21   -1    0    0  502  501  0.00000000000E+00  0.00000000000E+00  0.43556930192E+02  0.43556930192E+02  0.00000000000E+00 0.  1.
         21   -1    0    0  501  502 -0.00000000000E+00 -0.00000000000E+00 -0.89681480830E+02  0.89681480830E+02  0.00000000000E+00 0.  1.
         25    1    1    2    0    0  0.00000000000E+00  0.00000000000E+00 -0.46124550638E+02  0.13323841102E+03  0.12500000000E+03 0.  0.
<mgrwt>
<rscale>  0 0.12500000E+03</rscale>
<asrwt>0</asrwt>
<pdfrwt beam="1">  1       21 0.67010662E-02 0.12500000E+03</pdfrwt>
<pdfrwt beam="2">  1       21 0.13797151E-01 0.12500000E+03</pdfrwt>
<totfact> 0.72930579E+06</totfact>
</mgrwt>
</event>
<event>
 3    1  0.1573868E-001  0.1250000E+03  0.7546771E-02  0.1235069E+00
         21   -1    0    0  502  501  0.00000000000E+00  0.00000000000E+00  0.21892519164E+02  0.21892519164E+02  0.00000000000E+00 0. -1.
         21   -1    0    0  501  502 -0.00000000000E+00 -0.00000000000E+00 -0.17842852943E+03  0.17842852943E+03  0.00000000000E+00 0. -1.
         25    1    1    2    0    0  0.00000000000E+00  0.00000000000E+00 -0.15653601026E+03  0.20032104859E+03  0.12500000000E+03 0.  0.
<mgrwt>
<rscale>  0 0.12500000E+03</rscale>
<asrwt>0</asrwt>
<pdfrwt beam="1">  1       21 0.33680800E-02 0.12500000E+03</pdfrwt>
<pdfrwt beam="2">  1       21 0.27450542E-01 0.12500000E+03</pdfrwt>
<totfact> 0.64892482E+06</totfact>
</mgrwt>
</event>
<event>
 3    1  0.1573868E-001  0.1250000E+03  0.7546771E-02  0.1235069E+00
         21   -1    0    0  502  501  0.00000000000E+00  0.00000000000E+00  0.27125891110E+03  0.27125891110E+03  0.00000000000E+00 0. -1.
         21   -1    0    0  501  502 -0.00000000000E+00 -0.00000000000E+00 -0.14400448576E+02  0.14400448576E+02  0.00000000000E+00 0. -1.
         25    1    1    2    0    0  0.00000000000E+00  0.00000000000E+00  0.25685846253E+03  0.28565935968E+03  0.12500000000E+03 0.  0.
<mgrwt>
<rscale>  0 0.12500000E+03</rscale>
<asrwt>0</asrwt>
<pdfrwt beam="1">  1       21 0.41732136E-01 0.12500000E+03</pdfrwt>
<pdfrwt beam="2">  1       21 0.22154538E-02 0.12500000E+03</pdfrwt>
<totfact> 0.56669401E+06</totfact>
</mgrwt>
</event>
<event>
 3    1  0.1573868E-001  0.1250000E+03  0.7546771E-02  0.1235069E+00
         21   -1    0    0  502  501  0.00000000000E+00  0.00000000000E+00  0.88102538077E+02  0.88102538077E+02  0.00000000000E+00 0. -1.
         21   -1    0    0  501  502 -0.00000000000E+00 -0.00000000000E+00 -0.44337542201E+02  0.44337542201E+02  0.00000000000E+00 0. -1.
         25    1    1    2    0    0  0.00000000000E+00  0.00000000000E+00  0.43764995876E+02  0.13244008028E+03  0.12500000000E+03 0.  0.
<mgrwt>
<rscale>  0 0.12500000E+03</rscale>
<asrwt>0</asrwt>
<pdfrwt beam="1">  1       21 0.13554237E-01 0.12500000E+03</pdfrwt>
<pdfrwt beam="2">  1       21 0.68211603E-02 0.12500000E+03</pdfrwt>
<totfact> 0.73037259E+06</totfact>
</mgrwt>
</event>
<event>
 3    1  0.1573868E-001  0.1250000E+03  0.7546771E-02  0.1235069E+00
         21   -1    0    0  502  501  0.00000000000E+00  0.00000000000E+00  0.61862543175E+03  0.61862543175E+03  0.00000000000E+00 0.  1.
         21   -1    0    0  501  502 -0.00000000000E+00 -0.00000000000E+00 -0.63144025440E+01  0.63144025440E+01  0.00000000000E+00 0.  1.
         25    1    1    2    0    0  0.00000000000E+00  0.00000000000E+00  0.61231102920E+03  0.62493983429E+03  0.12500000000E+03 0.  0.
<mgrwt>
<rscale>  0 0.12500000E+03</rscale>
<asrwt>0</asrwt>
<pdfrwt beam="1">  1       21 0.95173096E-01 0.12500000E+03</pdfrwt>
<pdfrwt beam="2">  1       21 0.97144703E-03 0.12500000E+03</pdfrwt>
<totfact> 0.35988520E+06</totfact>
</mgrwt>
</event>
<event>
 3    1  0.1573868E-001  0.1250000E+03  0.7546771E-02  0.1235069E+00
         21   -1    0    0  502  501  0.00000000000E+00  0.00000000000E+00  0.38157505146E+03  0.38157505146E+03  0.00000000000E+00 0.  1.
         21   -1    0    0  501  502 -0.00000000000E+00 -0.00000000000E+00 -0.10237173487E+02  0.10237173487E+02  0.00000000000E+00 0.  1.
         25    1    1    2    0    0  0.00000000000E+00  0.00000000000E+00  0.37133787797E+03  0.39181222494E+03  0.12500000000E+03 0.  0.
<mgrwt>
<rscale>  0 0.12500000E+03</rscale>
<asrwt>0</asrwt>
<pdfrwt beam="1">  1       21 0.58703843E-01 0.12500000E+03</pdfrwt>
<pdfrwt beam="2">  1       21 0.15749501E-02 0.12500000E+03</pdfrwt>
<totfact> 0.48589225E+06</totfact>
</mgrwt>
</event>
<event>
 3    1  0.1573868E-001  0.1250000E+03  0.7546771E-02  0.1235069E+00
         21   -1    0    0  502  501  0.00000000000E+00  0.00000000000E+00  0.53348734509E+02  0.53348734509E+02  0.00000000000E+00 0. -1.
         21   -1    0    0  501  502 -0.00000000000E+00 -0.00000000000E+00 -0.73221043310E+02  0.73221043310E+02  0.00000000000E+00 0. -1.
         25    1    1    2    0    0  0.00000000000E+00  0.00000000000E+00 -0.19872308801E+02  0.12656977782E+03  0.12500000000E+03 0.  0.
<mgrwt>
<rscale>  0 0.12500000E+03</rscale>
<asrwt>0</asrwt>
<pdfrwt beam="1">  1       21 0.82074976E-02 0.12500000E+03</pdfrwt>
<pdfrwt beam="2">  1       21 0.11264776E-01 0.12500000E+03</pdfrwt>
<totfact> 0.73827828E+06</totfact>
</mgrwt>
</event>
<event>
 3    1  0.1573868E-001  0.1250000E+03  0.7546771E-02  0.1235069E+00
         21   -1    0    0  502  501  0.00000000000E+00  0.00000000000E+00  0.71909015000E+01  0.71909015000E+01  0.00000000000E+00 0. -1.
         21   -1    0    0  501  502 -0.00000000000E+00 -0.00000000000E+00 -0.54322118026E+03  0.54322118026E+03  0.00000000000E+00 0. -1.
         25    1    1    2    0    0  0.00000000000E+00  0.00000000000E+00 -0.53603027876E+03  0.55041208176E+03  0.12500000000E+03 0.  0.
<mgrwt>
<rscale>  0 0.12500000E+03</rscale>
<asrwt>0</asrwt>
<pdfrwt beam="1">  1       21 0.11062923E-02 0.12500000E+03</pdfrwt>
<pdfrwt beam="2">  1       21 0.83572506E-01 0.12500000E+03</pdfrwt>
<totfact> 0.39435716E+06</totfact>
</mgrwt>
</event>
<event>
 3    1  0.1573868E-001  0.1250000E+03  0.7546771E-02  0.1235069E+00
         21   -1    0    0  502  501  0.00000000000E+00  0.00000000000E+00  0.79151357320E+03  0.79151357320E+03  0.00000000000E+00 0. -1.
         21   -1    0    0  501  502 -0.00000000000E+00 -0.00000000000E+00 -0.49351648945E+01  0.49351648945E+01  0.00000000000E+00 0. -1.
         25    1    1    2    0    0  0.00000000000E+00  0.00000000000E+00  0.78657840831E+03  0.79644873809E+03  0.12500000000E+03 0.  0.
<mgrwt>
<rscale>  0 0.12500000E+03</rscale>
<asrwt>0</asrwt>
<pdfrwt beam="1">  1       21 0.12177122E+00 0.12500000E+03</pdfrwt>
<pdfrwt beam="2">  1       21 0.75925677E-03 0.12500000E+03</pdfrwt>
<totfact> 0.29480839E+06</totfact>
</mgrwt>
</event>
<event>
 3    1  0.1573868E-001  0.1250000E+03  0.7546771E-02  0.1235069E+00
         21   -1    0    0  502  501  0.00000000000E+00  0.00000000000E+00  0.10856550084E+03  0.10856550084E+03  0.00000000000E+00 0. -1.
         21   -1    0    0  501  502 -0.00000000000E+00 -0.00000000000E+00 -0.35980582873E+02  0.35980582873E+02  0.00000000000E+00 0. -1.
         25    1    1    2    0    0  0.00000000000E+00  0.00000000000E+00  0.72584917962E+02  0.14454608371E+03  0.12500000000E+03 0.  0.
<mgrwt>
<rscale>  0 0.12500000E+03</rscale>
<asrwt>0</asrwt>
<pdfrwt beam="1">  1       21 0.16702385E-01 0.12500000E+03</pdfrwt>
<pdfrwt beam="2">  1       21 0.55354743E-02 0.12500000E+03</pdfrwt>
<totfact> 0.71451239E+06</totfact>
</mgrwt>
</event>
<event>
 3    1  0.1573868E-001  0.1250000E+03  0.7546771E-02  0.1235069E+00
         21   -1    0    0  502  501  0.00000000000E+00  0.00000000000E+00  0.81126826816E+01  0.81126826816E+01  0.00000000000E+00 0. -1.
         21   -1    0    0  501  502 -0.00000000000E+00 -0.00000000000E+00 -0.48149917276E+03  0.48149917276E+03  0.00000000000E+00 0. -1.
         25    1    1    2    0    0  0.00000000000E+00  0.00000000000E+00 -0.47338649007E+03  0.48961185544E+03  0.12500000000E+03 0.  0.
<mgrwt>
<rscale>  0 0.12500000E+03</rscale>
<asrwt>0</asrwt>
<pdfrwt beam="1">  1       21 0.12481051E-02 0.12500000E+03</pdfrwt>
<pdfrwt beam="2">  1       21 0.74076789E-01 0.12500000E+03</pdfrwt>
<totfact> 0.42613107E+06</totfact>
</mgrwt>
</event>
<event>
 3    1  0.1573868E-001  0.1250000E+03  0.7546771E-02  0.1235069E+00
         21   -1    0    0  502  501  0.00000000000E+00  0.00000000000E+00  0.11791987625E+02  0.11791987625E+02  0.00000000000E+00 0. -1.
         21   -1    0    0  501  502 -0.00000000000E+00 -0.00000000000E+00 -0.33126306812E+03  0.33126306812E+03  0.00000000000E+00 0. -1.
         25    1    1    2    0    0  0.00000000000E+00  0.00000000000E+00 -0.31947108050E+03  0.34305505575E+03  0.12500000000E+03 0.  0.
<mgrwt>
<rscale>  0 0.12500000E+03</rscale>
<asrwt>0</asrwt>
<pdfrwt beam="1">  1       21 0.18141521E-02 0.12500000E+03</pdfrwt>
<pdfrwt beam="2">  1       21 0.50963543E-01 0.12500000E+03</pdfrwt>
<totfact> 0.52055463E+06</totfact>
</mgrwt>
</event>
<event>
 3    1  0.1573868E-001  0.1250000E+03  0.7546771E-02  0.1235069E+00
         21   -1    0    0  502  501  0.00000000000E+00  0.00000000000E+00  0.21589998065E+03  0.21589998065E+03  0.00000000000E+00 0. -1.
         21   -1    0    0  501  502 -0.00000000000E+00 -0.00000000000E+00 -0.18092868690E+02  0.18092868690E+02  0.00000000000E+00 0. -1.
         25    1    1    2    0    0  0.00000000000E+00  0.00000000000E+00  0.19780711196E+03  0.23399284934E+03  0.12500000000E+03 0.  0.
<mgrwt>
<rscale>  0 0.12500000E+03</rscale>
<asrwt>0</asrwt>
<pdfrwt beam="1">  1       21 0.33215380E-01 0.12500000E+03</pdfrwt>
<pdfrwt beam="2">  1       21 0.27835184E-02 0.12500000E+03</pdfrwt>
<totfact> 0.61418852E+06</totfact>
</mgrwt>
</event>
<event>
 3    1  0.1573868E-001  0.1250000E+03  0.7546771E-02  0.1235069E+00
         21   -1    0    0  502  501  0.00000000000E+00  0.00000000000E+00  0.20810493015E+02  0.20810493015E+02  0.00000000000E+00 0.  1.
         21   -1    0    0  501  502 -0.00000000000E+00 -0.00000000000E+00 -0.18770578848E+03  0.18770578848E+03  0.00000000000E+00 0.  1.
         25    1    1    2    0    0  0.00000000000E+00  0.00000000000E+00 -0.16689529547E+03  0.20851628149E+03  0.12500000000E+03 0.  0.
<mgrwt>
<rscale>  0 0.12500000E+03</rscale>
<asrwt>0</asrwt>
<pdfrwt beam="1">  1       21 0.32016145E-02 0.12500000E+03</pdfrwt>
<pdfrwt beam="2">  1       21 0.28877811E-01 0.12500000E+03</pdfrwt>
<totfact> 0.64015980E+06</totfact>
</mgrwt>
</event>
<event>
 3    1  0.1573868E-001  0.1250000E+03  0.7546771E-02  0.1235069E+00
         21   -1    0    0  502  501  0.00000000000E+00  0.00000000000E+00  0.85579823438E+01  0.85579823438E+01  0.00000000000E+00 0. -1.
         21   -1    0    0  501  502 -0.00000000000E+00 -0.00000000000E+00 -0.45644520438E+03  0.45644520438E+03  0.00000000000E+00 0. -1.
         25    1    1    2    0    0  0.00000000000E+00  0.00000000000E+00 -0.44788722204E+03  0.46500318673E+03  0.12500000000E+03 0.  0.
<mgrwt>
<rscale>  0 0.12500000E+03</rscale>
<asrwt>0</asrwt>
<pdfrwt beam="1">  1       21 0.13166124E-02 0.12500000E+03</pdfrwt>
<pdfrwt beam="2">  1       21 0.70222352E-01 0.12500000E+03</pdfrwt>
<totfact> 0.44007907E+06</totfact>
</mgrwt>
</event>
<event>
 3    1  0.1573868E-001  0.1250000E+03  0.7546771E-02  0.1235069E+00
         21   -1    0    0  502  501  0.00000000000E+00  0.00000000000E+00  0.15305613671E+02  0.15305613671E+02  0.00000000000E+00 0.  1.
         21   -1    0    0  501  502 -0.00000000000E+00 -0.00000000000E+00 -0.25521681678E+03  0.25521681678E+03  0.00000000000E+00 0.  1.
         25    1    1    2    0    0  0.00000000000E+00  0.00000000000E+00 -0.23991120310E+03  0.27052243045E+03  0.12500000000E+03 0.  0.
<mgrwt>
<rscale>  0 0.12500000E+03</rscale>
<asrwt>0</asrwt>
<pdfrwt beam="1">  1       21 0.23547099E-02 0.12500000E+03</pdfrwt>
<pdfrwt beam="2">  1       21 0.39264124E-01 0.12500000E+03</pdfrwt>
<totfact> 0.57998051E+06</totfact>
</mgrwt>
</event>
<event>
 3    1  0.1573868E-001  0.1250000E+03  0.7546771E-02  0.1235069E+00
         21   -1    0    0  502  501  0.00000000000E+00  0.00000000000E+00  0.71828894339E+02  0.71828894339E+02  0.00000000000E+00 0.  1.
         21   -1    0    0  501  502 -0.00000000000E+00 -0.00000000000E+00 -0.54382710968E+02  0.54382710968E+02  0.00000000000E+00 0.  1.
         25    1    1    2    0    0  0.00000000000E+00  0.00000000000E+00  0.17446183370E+02  0.12621160531E+03  0.12500000000E+03 0.  0.
<mgrwt>
<rscale>  0 0.12500000E+03</rscale>
<asrwt>0</asrwt>
<pdfrwt beam="1">  1       21 0.11050599E-01 0.12500000E+03</pdfrwt>
<pdfrwt beam="2">  1       21 0.83665709E-02 0.12500000E+03</pdfrwt>
<totfact> 0.73876915E+06</totfact>
</mgrwt>
</event>
<event>
 3    1  0.1573868E-001  0.1250000E+03  0.7546771E-02  0.1235069E+00
         21   -1    0    0  502  501  0.00000000000E+00  0.00000000000E+00  0.11908823265E+02  0.11908823265E+02  0.00000000000E+00 0.  1.
         21   -1    0    0  501  502 -0.00000000000E+00 -0.00000000000E+00 -0.32801309693E+03  0.32801309693E+03  0.00000000000E+00 0.  1.
         25    1    1    2    0    0  0.00000000000E+00  0.00000000000E+00 -0.31610427367E+03  0.33992192020E+03  0.12500000000E+03 0.  0.
<mgrwt>
<rscale>  0 0.12500000E+03</rscale>
<asrwt>0</asrwt>
<pdfrwt beam="1">  1       21 0.18321268E-02 0.12500000E+03</pdfrwt>
<pdfrwt beam="2">  1       21 0.50463550E-01 0.12500000E+03</pdfrwt>
<totfact> 0.52291450E+06</totfact>
</mgrwt>
</event>
<event>
 3    1  0.1573868E-001  0.1250000E+03  0.7546771E-02  0.1235069E+00
         21   -1    0    0  502  501  0.00000000000E+00  0.00000000000E+00  0.44618329672E+02  0.44618329672E+02  0.00000000000E+00 0.  1.
         21   -1    0    0  501  502 -0.00000000000E+00 -0.00000000000E+00 -0.87548100270E+02  0.87548100270E+02  0.00000000000E+00 0.  1.
         25    1    1    2    0    0  0.00000000000E+00  0.00000000000E+00 -0.42929770599E+02  0.13216642994E+03  0.12500000000E+03 0.  0.
<mgrwt>
<rscale>  0 0.12500000E+03</rscale>
<asrwt>0</asrwt>
<pdfrwt beam="1">  1       21 0.68643584E-02 0.12500000E+03</pdfrwt>
<pdfrwt beam="2">  1       21 0.13468939E-01 0.12500000E+03</pdfrwt>
<totfact> 0.73073914E+06</totfact>
</mgrwt>
</event>
<event>
 3    1  0.1573868E-001  0.1250000E+03  0.7546771E-02  0.1235069E+00
         21   -1    0    0  502  501  0.00000000000E+00  0.00000000000E+00  0.12118561534E+02  0.12118561534E+02  0.00000000000E+00 0. -1.
         21   -1    0    0  501  502 -0.00000000000E+00 -0.00000000000E+00 -0.32233611136E+03  0.32233611136E+03  0.00000000000E+00 0. -1.
         25    1    1    2    0    0  0.00000000000E+00  0.00000000000E+00 -0.31021754982E+03  0.33445467289E+03  0.12500000000E+03 0.  0.
<mgrwt>
<rscale>  0 0.12500000E+03</rscale>
<asrwt>0</asrwt>
<pdfrwt beam="1">  1       21 0.18643941E-02 0.12500000E+03</pdfrwt>
<pdfrwt beam="2">  1       21 0.49590172E-01 0.12500000E+03</pdfrwt>
<totfact> 0.52707400E+06</totfact>
</mgrwt>
</event>
<event>
 3    1  0.1573868E-001  0.1250000E+03  0.7546771E-02  0.1235069E+00
         21   -1    0    0  502  501  0.00000000000E+00  0.00000000000E+00  0.21911042807E+02  0.21911042807E+02  0.00000000000E+00 0.  1.
         21   -1    0    0  501  502 -0.00000000000E+00 -0.00000000000E+00 -0.17827768557E+03  0.17827768557E+03  0.00000000000E+00 0.  1.
         25    1    1    2    0    0  0.00000000000E+00  0.00000000000E+00 -0.15636664276E+03  0.20018872837E+03  0.12500000000E+03 0.  0.
<mgrwt>
<rscale>  0 0.12500000E+03</rscale>
<asrwt>0</asrwt>
<pdfrwt beam="1">  1       21 0.33709298E-02 0.12500000E+03</pdfrwt>
<pdfrwt beam="2">  1       21 0.27427335E-01 0.12500000E+03</pdfrwt>
<totfact> 0.64906808E+06</totfact>
</mgrwt>
</event>
<event>
 3    1  0.1573868E-001  0.1250000E+03  0.7546771E-02  0.1235069E+00
         21   -1    0    0  502  501  0.00000000000E+00  0.00000000000E+00  0.17313037194E+03  0.17313037194E+03  0.00000000000E+00 0. -1.
         21   -1    0    0  501  502 -0.00000000000E+00 -0.00000000000E+00 -0.22562476798E+02  0.22562476798E+02  0.00000000000E+00 0. -1.
         25    1    1    2    0    0  0.00000000000E+00  0.00000000000E+00  0.15056789514E+03  0.19569284874E+03  0.12500000000E+03 0.  0.
<mgrwt>
<rscale>  0 0.12500000E+03</rscale>
<asrwt>0</asrwt>
<pdfrwt beam="1">  1       21 0.26635441E-01 0.12500000E+03</pdfrwt>
<pdfrwt beam="2">  1       21 0.34711504E-02 0.12500000E+03</pdfrwt>
<totfact> 0.65395272E+06</totfact>
</mgrwt>
</event>
<event>
 3    1  0.1573868E-001  0.1250000E+03  0.7546771E-02  0.1235069E+00
         21   -1    0    0  502  501  0.00000000000E+00  0.00000000000E+00  0.55682556768E+03  0.55682556768E+03  0.00000000000E+00 0. -1.
         21   -1    0    0  501  502 -0.00000000000E+00 -0.00000000000E+00 -0.70152130699E+01  0.70152130699E+01  0.00000000000E+00 0. -1.
         25    1    1    2    0    0  0.00000000000E+00  0.00000000000E+00  0.54981035461E+03  0.56384078075E+03  0.12500000000E+03 0.  0.
<mgrwt>
<rscale>  0 0.12500000E+03</rscale>
<asrwt>0</asrwt>
<pdfrwt beam="1">  1       21 0.85665437E-01 0.12500000E+03</pdfrwt>
<pdfrwt beam="2">  1       21 0.10792640E-02 0.12500000E+03</pdfrwt>
<totfact> 0.38780681E+06</totfact>
</mgrwt>
</event>
<event>
 3    1  0.1573868E-001  0.1250000E+03  0.7546771E-02  0.1235069E+00
         21   -1    0    0  502  501  0.00000000000E+00  0.00000000000E+00  0.32435247439E+02  0.32435247439E+02  0.00000000000E+00 0. -1.
         21   -1    0    0  501  502 -0.00000000000E+00 -0.00000000000E+00 -0.12043225529E+03  0.12043225529E+03  0.00000000000E+00 0. -1.
         25    1    1    2    0    0  0.00000000000E+00  0.00000000000E+00 -0.87997007851E+02  0.15286750273E+03  0.12500000000E+03 0.  0.
<mgrwt>
<rscale>  0 0.12500000E+03</rscale>
<asrwt>0</asrwt>
<pdfrwt beam="1">  1       21 0.49900381E-02 0.12500000E+03</pdfrwt>
<pdfrwt beam="2">  1       21 0.18528039E-01 0.12500000E+03</pdfrwt>
<totfact> 0.70400822E+06</totfact>
</mgrwt>
</event>
<event>
 3    1  0.1573868E-001  0.1250000E+03  0.7546771E-02  0.1235069E+00
         21   -1    0    0  502  501  0.00000000000E+00  0.00000000000E+00  0.18492953928E+03  0.18492953928E+03  0.00000000000E+00 0.  1.
         21   -1    0    0  501  502 -0.00000000000E+00 -0.00000000000E+00 -0.21122909921E+02  0.21122909921E+02  0.00000000000E+00 0.  1.
         25    1    1    2    0    0  0.00000000000E+00  0.00000000000E+00  0.16380662936E+03  0.20605244920E+03  0.12500000000E+03 0.  0.
<mgrwt>
<rscale>  0 0.12500000E+03</rscale>
<asrwt>0</asrwt>
<pdfrwt beam="1">  1       21 0.28450697E-01 0.12500000E+03</pdfrwt>
<pdfrwt beam="2">  1       21 0.32496786E-02 0.12500000E+03</pdfrwt>
<totfact> 0.64277272E+06</totfact>
</mgrwt>
</event>
<event>
 3    1  0.1573868E-001  0.1250000E+03  0.7546771E-02  0.1235069E+00
         21   -1    0    0  502  501  0.00000000000E+00  0.00000000000E+00  0.56404274541E+02  0.56404274541E+02  0.00000000000E+00 0. -1.
         21   -1    0    0  501  502 -0.00000000000E+00 -0.00000000000E+00 -0.69254502992E+02  0.69254502992E+02  0.00000000000E+00 0. -1.
         25    1    1    2    0    0  0.00000000000E+00  0.00000000000E+00 -0.12850228451E+02  0.12565877753E+03  0.12500000000E+03 0.  0.
<mgrwt>
<rscale>  0 0.12500000E+03</rscale>
<asrwt>0</asrwt>
<pdfrwt beam="1">  1       21 0.86775807E-02 0.12500000E+03</pdfrwt>
<pdfrwt beam="2">  1       21 0.10654539E-01 0.12500000E+03</pdfrwt>
<totfact> 0.73953264E+06</totfact>
</mgrwt>
</event>
<event>
 3    1  0.1573868E-001  0.1250000E+03  0.7546771E-02  0.1235069E+00
         21   -1    0    0  502  501  0.00000000000E+00  0.00000000000E+00  0.27467126178E+03  0.27467126178E+03  0.00000000000E+00 0.  1.
         21   -1    0    0  501  502 -0.00000000000E+00 -0.00000000000E+00 -0.14221546057E+02  0.14221546057E+02  0.00000000000E+00 0.  1.
         25    1    1    2    0    0  0.00000000000E+00  0.00000000000E+00  0.26044971572E+03  0.28889280784E+03  0.12500000000E+03 0.  0.
<mgrwt>
<rscale>  0 0.12500000E+03</rscale>
<asrwt>0</asrwt>
<pdfrwt beam="1">  1       21 0.42257113E-01 0.12500000E+03</pdfrwt>
<pdfrwt beam="2">  1       21 0.21879304E-02 0.12500000E+03</pdfrwt>
<totfact> 0.56392046E+06</totfact>
</mgrwt>
</event>
<event>
 3    1  0.1573868E-001  0.1250000E+03  0.7546771E-02  0.1235069E+00
         21   -1    0    0  502  501  0.00000000000E+00  0.00000000000E+00  0.26054553894E+03  0.26054553894E+03  0.00000000000E+00 0.  1.
         21   -1    0    0  501  502 -0.00000000000E+00 -0.00000000000E+00 -0.14992580629E+02  0.14992580629E+02  0.00000000000E+00 0.  1.
         25    1    1    2    0    0  0.00000000000E+00  0.00000000000E+00  0.24555295831E+03  0.27553811957E+03  0.12500000000E+03 0.  0.
<mgrwt>
<rscale>  0 0.12500000E+03</rscale>
<asrwt>0</asrwt>
<pdfrwt beam="1">  1       21 0.40083926E-01 0.12500000E+03</pdfrwt>
<pdfrwt beam="2">  1       21 0.23065511E-02 0.12500000E+03</pdfrwt>
<totfact> 0.57552357E+06</totfact>
</mgrwt>
</event>
<event>
 3    1  0.1573868E-001  0.1250000E+03  0.7546771E-02  0.1235069E+00
         21   -1    0    0  502  501  0.00000000000E+00  0.00000000000E+00  0.14910413076E+02  0.14910413076E+02  0.00000000000E+00 0.  1.
         21   -1    0    0  501  502 -0.00000000000E+00 -0.00000000000E+00 -0.26198134017E+03  0.26198134017E+03  0.00000000000E+00 0.  1.
         25    1    1    2    0    0  0.00000000000E+00  0.00000000000E+00 -0.24707092709E+03  0.27689175324E+03  0.12500000000E+03 0.  0.
<mgrwt>
<rscale>  0 0.12500000E+03</rscale>
<asrwt>0</asrwt>
<pdfrwt beam="1">  1       21 0.22939098E-02 0.12500000E+03</pdfrwt>
<pdfrwt beam="2">  1       21 0.40304820E-01 0.12500000E+03</pdfrwt>
<totfact> 0.57432949E+06</totfact>
</mgrwt>
</event>
<event>
 3    1  0.1573868E-001  0.1250000E+03  0.7546771E-02  0.1235069E+00
         21   -1    0    0  502  501  0.00000000000E+00  0.00000000000E+00  0.79848218862E+01  0.79848218862E+01  0.00000000000E+00 0. -1.
         21   -1    0    0  501  502 -0.00000000000E+00 -0.00000000000E+00 -0.48920940951E+03  0.48920940951E+03  0.00000000000E+00 0. -1.
         25    1    1    2    0    0  0.00000000000E+00  0.00000000000E+00 -0.48122458763E+03  0.49719423140E+03  0.12500000000E+03 0.  0.
<mgrwt>
<rscale>  0 0.12500000E+03</rscale>
<asrwt>0</asrwt>
<pdfrwt beam="1">  1       21 0.12284340E-02 0.12500000E+03</pdfrwt>
<pdfrwt beam="2">  1       21 0.75262993E-01 0.12500000E+03</pdfrwt>
<totfact> 0.42196641E+06</totfact>
</mgrwt>
</event>
<event>
 3    1  0.1573868E-001  0.1250000E+03  0.7546771E-02  0.1235069E+00
         21   -1    0    0  502  501  0.00000000000E+00  0.00000000000E+00  0.23132790681E+02  0.23132790681E+02  0.00000000000E+00 0. -1.
         21   -1    0    0  501  502 -0.00000000000E+00 -0.00000000000E+00 -0.16886203026E+03  0.16886203026E+03  0.00000000000E+00 0. -1.
         25    1    1    2    0    0  0.00000000000E+00  0.00000000000E+00 -0.14572923958E+03  0.19199482094E+03  0.12500000000E+03 0.  0.
<mgrwt>
<rscale>  0 0.12500000E+03</rscale>
<asrwt>0</asrwt>
<pdfrwt beam="1">  1       21 0.35588909E-02 0.12500000E+03</pdfrwt>
<pdfrwt beam="2">  1       21 0.25978774E-01 0.12500000E+03</pdfrwt>
<totfact> 0.65801442E+06</totfact>
</mgrwt>
</event>
<event>
 3    1  0.1573868E-001  0.1250000E+03  0.7546771E-02  0.1235069E+00
         21   -1    0    0  502  501  0.00000000000E+00  0.00000000000E+00  0.29952199526E+01  0.29952199526E+01  0.00000000000E+00 0.  1.
         21   -1    0    0  501  502 -0.00000000000E+00 -0.00000000000E+00 -0.13041613176E+04  0.13041613176E+04  0.00000000000E+00 0.  1.
         25    1    1    2    0    0  0.00000000000E+00  0.00000000000E+00 -0.13011660977E+04  0.13071565376E+04  0.12500000000E+03 0.  0.
<mgrwt>
<rscale>  0 0.12500000E+03</rscale>
<asrwt>0</asrwt>
<pdfrwt beam="1">  1       21 0.46080244E-03 0.12500000E+03</pdfrwt>
<pdfrwt beam="2">  1       21 0.20064048E+00 0.12500000E+03</pdfrwt>
<totfact> 0.17124295E+06</totfact>
</mgrwt>
</event>
<event>
 3    1  0.1573868E-001  0.1250000E+03  0.7546771E-02  0.1235069E+00
         21   -1    0    0  502  501  0.00000000000E+00  0.00000000000E+00  0.52889023728E+02  0.52889023728E+02  0.00000000000E+00 0. -1.
         21   -1    0    0  501  502 -0.00000000000E+00 -0.00000000000E+00 -0.73857479769E+02  0.73857479769E+02  0.00000000000E+00 0. -1.
         25    1    1    2    0    0  0.00000000000E+00  0.00000000000E+00 -0.20968456041E+02  0.12674650350E+03  0.12500000000E+03 0.  0.
<mgrwt>
<rscale>  0 0.12500000E+03</rscale>
<asrwt>0</asrwt>
<pdfrwt beam="1">  1       21 0.81367728E-02 0.12500000E+03</pdfrwt>
<pdfrwt beam="2">  1       21 0.11362689E-01 0.12500000E+03</pdfrwt>
<totfact> 0.73803687E+06</totfact>
</mgrwt>
</event>
<event>
 3    1  0.1573868E-001  0.1250000E+03  0.7546771E-02  0.1235069E+00
         21   -1    0    0  502  501  0.00000000000E+00  0.00000000000E+00  0.11099464248E+03  0.11099464248E+03  0.00000000000E+00 0. -1.
         21   -1    0    0  501  502 -0.00000000000E+00 -0.00000000000E+00 -0.35193140073E+02  0.35193140073E+02  0.00000000000E+00 0. -1.
         25    1    1    2    0    0  0.00000000000E+00  0.00000000000E+00  0.75801502403E+02  0.14618778255E+03  0.12500000000E+03 0.  0.
<mgrwt>
<rscale>  0 0.12500000E+03</rscale>
<asrwt>0</asrwt>
<pdfrwt beam="1">  1       21 0.17076099E-01 0.12500000E+03</pdfrwt>
<pdfrwt beam="2">  1       21 0.54143293E-02 0.12500000E+03</pdfrwt>
<totfact> 0.71241437E+06</totfact>
</mgrwt>
</event>
<event>
 3    1  0.1573868E-001  0.1250000E+03  0.7546771E-02  0.1235069E+00
         21   -1    0    0  502  501  0.00000000000E+00  0.00000000000E+00  0.12843066716E+02  0.12843066716E+02  0.00000000000E+00 0. -1.
         21   -1    0    0  501  502 -0.00000000000E+00 -0.00000000000E+00 -0.30415243387E+03  0.30415243387E+03  0.00000000000E+00 0. -1.
         25    1    1    2    0    0  0.00000000000E+00  0.00000000000E+00 -0.29130936715E+03  0.31699550058E+03  0.12500000000E+03 0.  0.
<mgrwt>
<rscale>  0 0.12500000E+03</rscale>
<asrwt>0</asrwt>
<pdfrwt beam="1">  1       21 0.19758565E-02 0.12500000E+03</pdfrwt>
<pdfrwt beam="2">  1       21 0.46792681E-01 0.12500000E+03</pdfrwt>
<totfact> 0.54072296E+06</totfact>
</mgrwt>
</event>
<event>
 3    1  0.1573868E-001  0.1250000E+03  0.7546771E-02  0.1235069E+00
         21   -1    0    0  502  501  0.00000000000E+00  0.00000000000E+00  0.24412825034E+02  0.24412825034E+02  0.00000000000E+00 0.  1.
         21   -1    0    0  501  502 -0.00000000000E+00 -0.00000000000E+00 -0.16000811027E+03  0.16000811027E+03  0.00000000000E+00 0.  1.
         25    1    1    2    0    0  0.00000000000E+00  0.00000000000E+00 -0.13559528523E+03  0.18442093530E+03  0.12500000000E+03 0.  0.
<mgrwt>
<rscale>  0 0.12500000E+03</rscale>
<asrwt>0</asrwt>
<pdfrwt beam="1">  1       21 0.37558193E-02 0.12500000E+03</pdfrwt>
<pdfrwt beam="2">  1       21 0.24616632E-01 0.12500000E+03</pdfrwt>
<totfact> 0.66647965E+06</totfact>
</mgrwt>
</event>
<event>
 3    1  0.1573868E-001  0.1250000E+03  0.7546771E-02  0.1235069E+00
         21   -1    0    0  502  501  0.00000000000E+00  0.00000000000E+00  0.25101469758E+03  0.25101469758E+03  0.00000000000E+00 0. -1.
         21   -1    0    0  501  502 -0.00000000000E+00 -0.00000000000E+00 -0.15561837764E+02  0.15561837764E+02  0.00000000000E+00 0. -1.
         25    1    1    2    0    0  0.00000000000E+00  0.00000000000E+00  0.23545285981E+03  0.26657653534E+03  0.12500000000E+03 0.  0.
<mgrwt>
<rscale>  0 0.12500000E+03</rscale>
<asrwt>0</asrwt>
<pdfrwt beam="1">  1       21 0.38617643E-01 0.12500000E+03</pdfrwt>
<pdfrwt beam="2">  1       21 0.23941291E-02 0.12500000E+03</pdfrwt>
<totfact> 0.58351693E+06</totfact>
</mgrwt>
</event>
<event>
 3    1  0.1573868E-001  0.1250000E+03  0.7546771E-02  0.1235069E+00
         21   -1    0    0  502  501  0.00000000000E+00  0.00000000000E+00  0.23271492231E+02  0.23271492231E+02  0.00000000000E+00 0.  1.
         21   -1    0    0  501  502 -0.00000000000E+00 -0.00000000000E+00 -0.16785558748E+03  0.16785558748E+03  0.00000000000E+00 0.  1.
         25    1    1    2    0    0  0.00000000000E+00  0.00000000000E+00 -0.14458409525E+03  0.19112707971E+03  0.12500000000E+03 0.  0.
<mgrwt>
<rscale>  0 0.12500000E+03</rscale>
<asrwt>0</asrwt>
<pdfrwt beam="1">  1       21 0.35802295E-02 0.12500000E+03</pdfrwt>
<pdfrwt beam="2">  1       21 0.25823937E-01 0.12500000E+03</pdfrwt>
<totfact> 0.65897418E+06</totfact>
</mgrwt>
</event>
<event>
 3    1  0.1573868E-001  0.1250000E+03  0.7546771E-02  0.1235069E+00
         21   -1    0    0  502  501  0.00000000000E+00  0.00000000000E+00  0.27728326762E+02  0.27728326762E+02  0.00000000000E+00 0.  1.
         21   -1    0    0  501  502 -0.00000000000E+00 -0.00000000000E+00 -0.14087579223E+03  0.14087579223E+03  0.00000000000E+00 0.  1.
         25    1    1    2    0    0  0.00000000000E+00  0.00000000000E+00 -0.11314746547E+03  0.16860411900E+03  0.12500000000E+03 0.  0.
<mgrwt>
<rscale>  0 0.12500000E+03</rscale>
<asrwt>0</asrwt>
<pdfrwt beam="1">  1       21 0.42658965E-02 0.12500000E+03</pdfrwt>
<pdfrwt beam="2">  1       21 0.21673199E-01 0.12500000E+03</pdfrwt>
<totfact> 0.68483149E+06</totfact>
</mgrwt>
</event>
<event>
 3    1  0.1573868E-001  0.1250000E+03  0.7546771E-02  0.1235069E+00
         21   -1    0    0  502  501  0.00000000000E+00  0.00000000000E+00  0.47929514410E+03  0.47929514410E+03  0.00000000000E+00 0.  1.
         21   -1    0    0  501  502 -0.00000000000E+00 -0.00000000000E+00 -0.81499886824E+01  0.81499886824E+01  0.00000000000E+00 0.  1.
         25    1    1    2    0    0  0.00000000000E+00  0.00000000000E+00  0.47114515542E+03  0.48744513279E+03  0.12500000000E+03 0.  0.
<mgrwt>
<rscale>  0 0.12500000E+03</rscale>
<asrwt>0</asrwt>
<pdfrwt beam="1">  1       21 0.73737692E-01 0.12500000E+03</pdfrwt>
<pdfrwt beam="2">  1       21 0.12538448E-02 0.12500000E+03</pdfrwt>
<totfact> 0.42733245E+06</totfact>
</mgrwt>
</event>
<event>
 3    1  0.1573868E-001  0.1250000E+03  0.7546771E-02  0.1235069E+00
         21   -1    0    0  502  501  0.00000000000E+00  0.00000000000E+00  0.12430427039E+02  0.12430427039E+02  0.00000000000E+00 0.  1.
         21   -1    0    0  501  502 -0.00000000000E+00 -0.00000000000E+00 -0.31424905900E+03  0.31424905900E+03  0.00000000000E+00 0.  1.
         25    1    1    2    0    0  0.00000000000E+00  0.00000000000E+00 -0.30181863196E+03  0.32667948604E+03  0.12500000000E+03 0.  0.
<mgrwt>
<rscale>  0 0.12500000E+03</rscale>
<asrwt>0</asrwt>
<pdfrwt beam="1">  1       21 0.19123732E-02 0.12500000E+03</pdfrwt>
<pdfrwt beam="2">  1       21 0.48346013E-01 0.12500000E+03</pdfrwt>
<totfact> 0.53308234E+06</totfact>
</mgrwt>
</event>
<event>
 3    1  0.1573868E-001  0.1250000E+03  0.7546771E-02  0.1235069E+00
         21   -1    0    0  502  501  0.00000000000E+00  0.00000000000E+00  0.11356825633E+02  0.11356825633E+02  0.00000000000E+00 0.  1.
         21   -1    0    0  501  502 -0.00000000000E+00 -0.00000000000E+00 -0.34395614815E+03  0.34395614815E+03  0.00000000000E+00 0.  1.
         25    1    1    2    0    0  0.00000000000E+00  0.00000000000E+00 -0.33259932252E+03  0.35531297378E+03  0.12500000000E+03 0.  0.
<mgrwt>
<rscale>  0 0.12500000E+03</rscale>
<asrwt>0</asrwt>
<pdfrwt beam="1">  1       21 0.17472040E-02 0.12500000E+03</pdfrwt>
<pdfrwt beam="2">  1       21 0.52916327E-01 0.12500000E+03</pdfrwt>
<totfact> 0.51148433E+06</totfact>
</mgrwt>
</event>
<event>
 3    1  0.1573868E-001  0.1250000E+03  0.7546771E-02  0.1235069E+00
         21   -1    0    0  502  501  0.00000000000E+00  0.00000000000E+00  0.30085723196E+02  0.30085723196E+02  0.00000000000E+00 0.  1.
         21   -1    0    0  501  502 -0.00000000000E+00 -0.00000000000E+00 -0.12983733097E+03  0.12983733097E+03  0.00000000000E+00 0.  1.
         25    1    1    2    0    0  0.00000000000E+00  0.00000000000E+00 -0.99751607771E+02  0.15992305416E+03  0.12500000000E+03 0.  0.
<mgrwt>
<rscale>  0 0.12500000E+03</rscale>
<asrwt>0</asrwt>
<pdfrwt beam="1">  1       21 0.46285728E-02 0.12500000E+03</pdfrwt>
<pdfrwt beam="2">  1       21 0.19974974E-01 0.12500000E+03</pdfrwt>
<totfact> 0.69528899E+06</totfact>
</mgrwt>
</event>
<event>
 3    1  0.1573868E-001  0.1250000E+03  0.7546771E-02  0.1235069E+00
         21   -1    0    0  502  501  0.00000000000E+00  0.00000000000E+00  0.57374862502E+03  0.57374862502E+03  0.00000000000E+00 0.  1.
         21   -1    0    0  501  502 -0.00000000000E+00 -0.00000000000E+00 -0.68082951830E+01  0.68082951830E+01  0.00000000000E+00 0.  1.
         25    1    1    2    0    0  0.00000000000E+00  0.00000000000E+00  0.56694032984E+03  0.58055692020E+03  0.12500000000E+03 0.  0.
<mgrwt>
<rscale>  0 0.12500000E+03</rscale>
<asrwt>0</asrwt>
<pdfrwt beam="1">  1       21 0.88268981E-01 0.12500000E+03</pdfrwt>
<pdfrwt beam="2">  1       21 0.10474305E-02 0.12500000E+03</pdfrwt>
<totfact> 0.37986956E+06</totfact>
</mgrwt>
</event>
<event>
 3    1  0.1573868E-001  0.1250000E+03  0.7546771E-02  0.1235069E+00
         21   -1    0    0  502  501  0.00000000000E+00  0.00000000000E+00  0.10575986583E+02  0.10575986583E+02  0.00000000000E+00 0.  1.
         21   -1    0    0  501  502 -0.00000000000E+00 -0.00000000000E+00 -0.36935088460E+03  0.36935088460E+03  0.00000000000E+00 0.  1.
         25    1    1    2    0    0  0.00000000000E+00  0.00000000000E+00 -0.35877489801E+03  0.37992687118E+03  0.12500000000E+03 0.  0.
<mgrwt>
<rscale>  0 0.12500000E+03</rscale>
<asrwt>0</asrwt>
<pdfrwt beam="1">  1       21 0.16270752E-02 0.12500000E+03</pdfrwt>
<pdfrwt beam="2">  1       21 0.56823200E-01 0.12500000E+03</pdfrwt>
<totfact> 0.49401392E+06</totfact>
</mgrwt>
</event>
<event>
 3    1  0.1573868E-001  0.1250000E+03  0.7546771E-02  0.1235069E+00
         21   -1    0    0  502  501  0.00000000000E+00  0.00000000000E+00  0.63584094435E+02  0.63584094435E+02  0.00000000000E+00 0.  1.
         21   -1    0    0  501  502 -0.00000000000E+00 -0.00000000000E+00 -0.61434389130E+02  0.61434389130E+02  0.00000000000E+00 0.  1.
         25    1    1    2    0    0  0.00000000000E+00  0.00000000000E+00  0.21497053054E+01  0.12501848357E+03  0.12500000000E+03 0.  0.
<mgrwt>
<rscale>  0 0.12500000E+03</rscale>
<asrwt>0</asrwt>
<pdfrwt beam="1">  1       21 0.97821684E-02 0.12500000E+03</pdfrwt>
<pdfrwt beam="2">  1       21 0.94514445E-02 0.12500000E+03</pdfrwt>
<totfact> 0.74041085E+06</totfact>
</mgrwt>
</event>
<event>
 3    1  0.1573868E-001  0.1250000E+03  0.7546771E-02  0.1235069E+00
         21   -1    0    0  502  501  0.00000000000E+00  0.00000000000E+00  0.51409605734E+03  0.51409605734E+03  0.00000000000E+00 0.  1.
         21   -1    0    0  501  502 -0.00000000000E+00 -0.00000000000E+00 -0.75982881881E+01  0.75982881881E+01  0.00000000000E+00 0.  1.
         25    1    1    2    0    0  0.00000000000E+00  0.00000000000E+00  0.50649776915E+03  0.52169434552E+03  0.12500000000E+03 0.  0.
<mgrwt>
<rscale>  0 0.12500000E+03</rscale>
<asrwt>0</asrwt>
<pdfrwt beam="1">  1       21 0.79091674E-01 0.12500000E+03</pdfrwt>
<pdfrwt beam="2">  1       21 0.11689678E-02 0.12500000E+03</pdfrwt>
<totfact> 0.40891467E+06</totfact>
</mgrwt>
</event>
<event>
 3    1  0.1573868E-001  0.1250000E+03  0.7546771E-02  0.1235069E+00
         21   -1    0    0  502  501  0.00000000000E+00  0.00000000000E+00  0.97848990046E+01  0.97848990046E+01  0.00000000000E+00 0.  1.
         21   -1    0    0  501  502 -0.00000000000E+00 -0.00000000000E+00 -0.39921209183E+03  0.39921209183E+03  0.00000000000E+00 0.  1.
         25    1    1    2    0    0  0.00000000000E+00  0.00000000000E+00 -0.38942719283E+03  0.40899699084E+03  0.12500000000E+03 0.  0.
<mgrwt>
<rscale>  0 0.12500000E+03</rscale>
<asrwt>0</asrwt>
<pdfrwt beam="1">  1       21 0.15053694E-02 0.12500000E+03</pdfrwt>
<pdfrwt beam="2">  1       21 0.61417234E-01 0.12500000E+03</pdfrwt>
<totfact> 0.47450265E+06</totfact>
</mgrwt>
</event>
<event>
 3    1  0.1573868E-001  0.1250000E+03  0.7546771E-02  0.1235069E+00
         21   -1    0    0  502  501  0.00000000000E+00  0.00000000000E+00  0.24106272706E+03  0.24106272706E+03  0.00000000000E+00 0. -1.
         21   -1    0    0  501  502 -0.00000000000E+00 -0.00000000000E+00 -0.16204288600E+02  0.16204288600E+02  0.00000000000E+00 0. -1.
         25    1    1    2    0    0  0.00000000000E+00  0.00000000000E+00  0.22485843846E+03  0.25726701566E+03  0.12500000000E+03 0.  0.
<mgrwt>
<rscale>  0 0.12500000E+03</rscale>
<asrwt>0</asrwt>
<pdfrwt beam="1">  1       21 0.37086571E-01 0.12500000E+03</pdfrwt>
<pdfrwt beam="2">  1       21 0.24929676E-02 0.12500000E+03</pdfrwt>
<totfact> 0.59200678E+06</totfact>
</mgrwt>
</event>
<event>
 3    1  0.1573868E-001  0.1250000E+03  0.7546771E-02  0.1235069E+00
         21   -1    0    0  502  501  0.00000000000E+00  0.00000000000E+00  0.19118998981E+03  0.19118998981E+03  0.00000000000E+00 0. -1.
         21   -1    0    0  501  502 -0.00000000000E+00 -0.00000000000E+00 -0.20431247493E+02  0.20431247493E+02  0.00000000000E+00 0. -1.
         25    1    1    2    0    0  0.00000000000E+00  0.00000000000E+00  0.17075874231E+03  0.21162123730E+03  0.12500000000E+03 0.  0.
<mgrwt>
<rscale>  0 0.12500000E+03</rscale>
<asrwt>0</asrwt>
<pdfrwt beam="1">  1       21 0.29413843E-01 0.12500000E+03</pdfrwt>
<pdfrwt beam="2">  1       21 0.31432690E-02 0.12500000E+03</pdfrwt>
<totfact> 0.63689366E+06</totfact>
</mgrwt>
</event>
<event>
 3    1  0.1573868E-001  0.1250000E+03  0.7546771E-02  0.1235069E+00
         21   -1    0    0  502  501  0.00000000000E+00  0.00000000000E+00  0.42060749845E+03  0.42060749845E+03  0.00000000000E+00 0. -1.
         21   -1    0    0  501  502 -0.00000000000E+00 -0.00000000000E+00 -0.92871620558E+01  0.92871620558E+01  0.00000000000E+00 0. -1.
         25    1    1    2    0    0  0.00000000000E+00  0.00000000000E+00  0.41132033640E+03  0.42989466051E+03  0.12500000000E+03 0.  0.
<mgrwt>
<rscale>  0 0.12500000E+03</rscale>
<asrwt>0</asrwt>
<pdfrwt beam="1">  1       21 0.64708831E-01 0.12500000E+03</pdfrwt>
<pdfrwt beam="2">  1       21 0.14287945E-02 0.12500000E+03</pdfrwt>
<totfact> 0.46119690E+06</totfact>
</mgrwt>
</event>
<event>
 3    1  0.1573868E-001  0.1250000E+03  0.7546771E-02  0.1235069E+00
         21   -1    0    0  502  501  0.00000000000E+00  0.00000000000E+00  0.37586509689E+02  0.37586509689E+02  0.00000000000E+00 0.  1.
         21   -1    0    0  501  502 -0.00000000000E+00 -0.00000000000E+00 -0.10392691506E+03  0.10392691506E+03  0.00000000000E+00 0.  1.
         25    1    1    2    0    0  0.00000000000E+00  0.00000000000E+00 -0.66340405373E+02  0.14151342475E+03  0.12500000000E+03 0.  0.
<mgrwt>
<rscale>  0 0.12500000E+03</rscale>
<asrwt>0</asrwt>
<pdfrwt beam="1">  1       21 0.57825400E-02 0.12500000E+03</pdfrwt>
<pdfrwt beam="2">  1       21 0.15988756E-01 0.12500000E+03</pdfrwt>
<totfact> 0.71842345E+06</totfact>
</mgrwt>
</event>
<event>
 3    1  0.1573868E-001  0.1250000E+03  0.7546771E-02  0.1235069E+00
         21   -1    0    0  502  501  0.00000000000E+00  0.00000000000E+00  0.88982978207E+01  0.88982978207E+01  0.00000000000E+00 0. -1.
         21   -1    0    0  501  502 -0.00000000000E+00 -0.00000000000E+00 -0.43898845360E+03  0.43898845360E+03  0.00000000000E+00 0. -1.
         25    1    1    2    0    0  0.00000000000E+00  0.00000000000E+00 -0.43009015578E+03  0.44788675142E+03  0.12500000000E+03 0.  0.
<mgrwt>
<rscale>  0 0.12500000E+03</rscale>
<asrwt>0</asrwt>
<pdfrwt beam="1">  1       21 0.13689688E-02 0.12500000E+03</pdfrwt>
<pdfrwt beam="2">  1       21 0.67536692E-01 0.12500000E+03</pdfrwt>
<totfact> 0.45018988E+06</totfact>
</mgrwt>
</event>
<event>
 3    1  0.1573868E-001  0.1250000E+03  0.7546771E-02  0.1235069E+00
         21   -1    0    0  502  501  0.00000000000E+00  0.00000000000E+00  0.25954606648E+01  0.25954606648E+01  0.00000000000E+00 0.  1.
         21   -1    0    0  501  502 -0.00000000000E+00 -0.00000000000E+00 -0.15050314778E+04  0.15050314778E+04  0.00000000000E+00 0.  1.
         25    1    1    2    0    0  0.00000000000E+00  0.00000000000E+00 -0.15024360171E+04  0.15076269385E+04  0.12500000000E+03 0.  0.
<mgrwt>
<rscale>  0 0.12500000E+03</rscale>
<asrwt>0</asrwt>
<pdfrwt beam="1">  1       21 0.39930121E-03 0.12500000E+03</pdfrwt>
<pdfrwt beam="2">  1       21 0.23154355E+00 0.12500000E+03</pdfrwt>
<totfact> 0.13880222E+06</totfact>
</mgrwt>
</event>
<event>
 3    1  0.1573868E-001  0.1250000E+03  0.7546771E-02  0.1235069E+00
         21   -1    0    0  502  501  0.00000000000E+00  0.00000000000E+00  0.16894248632E+02  0.16894248632E+02  0.00000000000E+00 0. -1.
         21   -1    0    0  501  502 -0.00000000000E+00 -0.00000000000E+00 -0.23121774072E+03  0.23121774072E+03  0.00000000000E+00 0. -1.
         25    1    1    2    0    0  0.00000000000E+00  0.00000000000E+00 -0.21432349209E+03  0.24811198936E+03  0.12500000000E+03 0.  0.
<mgrwt>
<rscale>  0 0.12500000E+03</rscale>
<asrwt>0</asrwt>
<pdfrwt beam="1">  1       21 0.25991152E-02 0.12500000E+03</pdfrwt>
<pdfrwt beam="2">  1       21 0.35571960E-01 0.12500000E+03</pdfrwt>
<totfact> 0.60056399E+06</totfact>
</mgrwt>
</event>
<event>
 3    1  0.1573868E-001  0.1250000E+03  0.7546771E-02  0.1235069E+00
         21   -1    0    0  502  501  0.00000000000E+00  0.00000000000E+00  0.48452133138E+03  0.48452133138E+03  0.00000000000E+00 0. -1.
         21   -1    0    0  501  502 -0.00000000000E+00 -0.00000000000E+00 -0.80620805464E+01  0.80620805464E+01  0.00000000000E+00 0. -1.
         25    1    1    2    0    0  0.00000000000E+00  0.00000000000E+00  0.47645925083E+03  0.49258341192E+03  0.12500000000E+03 0.  0.
<mgrwt>
<rscale>  0 0.12500000E+03</rscale>
<asrwt>0</asrwt>
<pdfrwt beam="1">  1       21 0.74541721E-01 0.12500000E+03</pdfrwt>
<pdfrwt beam="2">  1       21 0.12403205E-02 0.12500000E+03</pdfrwt>
<totfact> 0.42449174E+06</totfact>
</mgrwt>
</event>
<event>
 3    1  0.1573868E-001  0.1250000E+03  0.7546771E-02  0.1235069E+00
         21   -1    0    0  502  501  0.00000000000E+00  0.00000000000E+00  0.80714086763E+03  0.80714086763E+03  0.00000000000E+00 0.  1.
         21   -1    0    0  501  502 -0.00000000000E+00 -0.00000000000E+00 -0.48396136990E+01  0.48396136990E+01  0.00000000000E+00 0.  1.
         25    1    1    2    0    0  0.00000000000E+00  0.00000000000E+00  0.80230125393E+03  0.81198048132E+03  0.12500000000E+03 0.  0.
<mgrwt>
<rscale>  0 0.12500000E+03</rscale>
<asrwt>0</asrwt>
<pdfrwt beam="1">  1       21 0.12417541E+00 0.12500000E+03</pdfrwt>
<pdfrwt beam="2">  1       21 0.74455659E-03 0.12500000E+03</pdfrwt>
<totfact> 0.28969720E+06</totfact>
</mgrwt>
</event>
<event>
 3    1  0.1573868E-001  0.1250000E+03  0.7546771E-02  0.1235069E+00
         21   -1    0    0  502  501  0.00000000000E+00  0.00000000000E+00  0.11488390952E+03  0.11488390952E+03  0.00000000000E+00 0.  1.
         21   -1    0    0  501  502 -0.00000000000E+00 -0.00000000000E+00 -0.34001715439E+02  0.34001715439E+02  0.00000000000E+00 0.  1.
         25    1    1    2    0    0  0.00000000000E+00  0.00000000000E+00  0.80882194081E+02  0.14888562496E+03  0.12500000000E+03 0.  0.
<mgrwt>
<rscale>  0 0.12500000E+03</rscale>
<asrwt>0</asrwt>
<pdfrwt beam="1">  1       21 0.17674447E-01 0.12500000E+03</pdfrwt>
<pdfrwt beam="2">  1       21 0.52310332E-02 0.12500000E+03</pdfrwt>
<totfact> 0.70899469E+06</totfact>
</mgrwt>
</event>
<event>
 3    1  0.1573868E-001  0.1250000E+03  0.7546771E-02  0.1235069E+00
         21   -1    0    0  502  501  0.00000000000E+00  0.00000000000E+00  0.17728093821E+03  0.17728093821E+03  0.00000000000E+00 0.  1.
         21   -1    0    0  501  502 -0.00000000000E+00 -0.00000000000E+00 -0.22034235826E+02  0.22034235826E+02  0.00000000000E+00 0.  1.
         25    1    1    2    0    0  0.00000000000E+00  0.00000000000E+00  0.15524670238E+03  0.19931517403E+03  0.12500000000E+03 0.  0.
<mgrwt>
<rscale>  0 0.12500000E+03</rscale>
<asrwt>0</asrwt>
<pdfrwt beam="1">  1       21 0.27273990E-01 0.12500000E+03</pdfrwt>
<pdfrwt beam="2">  1       21 0.33898826E-02 0.12500000E+03</pdfrwt>
<totfact> 0.65001533E+06</totfact>
</mgrwt>
</event>
<event>
 3    1  0.1573868E-001  0.1250000E+03  0.7546771E-02  0.1235069E+00
         21   -1    0    0  502  501  0.00000000000E+00  0.00000000000E+00  0.31403242675E+02  0.31403242675E+02  0.00000000000E+00 0. -1.
         21   -1    0    0  501  502 -0.00000000000E+00 -0.00000000000E+00 -0.12439002050E+03  0.12439002050E+03  0.00000000000E+00 0. -1.
         25    1    1    2    0    0  0.00000000000E+00  0.00000000000E+00 -0.92986777824E+02  0.15579326317E+03  0.12500000000E+03 0.  0.
<mgrwt>
<rscale>  0 0.12500000E+03</rscale>
<asrwt>0</asrwt>
<pdfrwt beam="1">  1       21 0.48312681E-02 0.12500000E+03</pdfrwt>
<pdfrwt beam="2">  1       21 0.19136926E-01 0.12500000E+03</pdfrwt>
<totfact> 0.70037200E+06</totfact>
</mgrwt>
</event>
<event>
 3    1  0.1573868E-001  0.1250000E+03  0.7546771E-02  0.1235069E+00
         21   -1    0    0  502  501  0.00000000000E+00  0.00000000000E+00  0.53523464227E+01  0.53523464227E+01  0.00000000000E+00 0.  1.
         21   -1    0    0  501  502 -0.00000000000E+00 -0.00000000000E+00 -0.72982009973E+03  0.72982009973E+03  0.00000000000E+00 0.  1.
         25    1    1    2    0    0  0.00000000000E+00  0.00000000000E+00 -0.72446775331E+03  0.73517244616E+03  0.12500000000E+03 0.  0.
<mgrwt>
<rscale>  0 0.12500000E+03</rscale>
<asrwt>0</asrwt>
<pdfrwt beam="1">  1       21 0.82343875E-03 0.12500000E+03</pdfrwt>
<pdfrwt beam="2">  1       21 0.11227990E+00 0.12500000E+03</pdfrwt>
<totfact> 0.31597398E+06</totfact>
</mgrwt>
</event>
<event>
 3    1  0.1573868E-001  0.1250000E+03  0.7546771E-02  0.1235069E+00
         21   -1    0    0  502  501  0.00000000000E+00  0.00000000000E+00  0.33818424433E+02  0.33818424433E+02  0.00000000000E+00 0.  1.
         21   -1    0    0  501  502 -0.00000000000E+00 -0.00000000000E+00 -0.11550656382E+03  0.11550656382E+03  0.00000000000E+00 0.  1.
         25    1    1    2    0    0  0.00000000000E+00  0.00000000000E+00 -0.81688139387E+02  0.14932498825E+03  0.12500000000E+03 0.  0.
<mgrwt>
<rscale>  0 0.12500000E+03</rscale>
<asrwt>0</asrwt>
<pdfrwt beam="1">  1       21 0.52028345E-02 0.12500000E+03</pdfrwt>
<pdfrwt beam="2">  1       21 0.17770241E-01 0.12500000E+03</pdfrwt>
<totfact> 0.70844098E+06</totfact>
</mgrwt>
</event>
<event>
 3    1  0.1573868E-001  0.1250000E+03  0.7546771E-02  0.1235069E+00
         21   -1    0    0  502  501  0.00000000000E+00  0.00000000000E+00  0.23326833372E+02  0.23326833372E+02  0.00000000000E+00 0.  1.
         21   -1    0    0  501  502 -0.00000000000E+00 -0.00000000000E+00 -0.16745736284E+03  0.16745736284E+03  0.00000000000E+00 0.  1.
         25    1    1    2    0    0  0.00000000000E+00  0.00000000000E+00 -0.14413052947E+03  0.19078419622E+03  0.12500000000E+03 0.  0.
<mgrwt>
<rscale>  0 0.12500000E+03</rscale>
<asrwt>0</asrwt>
<pdfrwt beam="1">  1       21 0.35887434E-02 0.12500000E+03</pdfrwt>
<pdfrwt beam="2">  1       21 0.25762673E-01 0.12500000E+03</pdfrwt>
<totfact> 0.65935413E+06</totfact>
</mgrwt>
</event>
<event>
 3    1  0.1573868E-001  0.1250000E+03  0.7546771E-02  0.1235069E+00
         21   -1    0    0  502  501  0.00000000000E+00  0.00000000000E+00  0.21417250085E+02  0.21417250085E+02  0.00000000000E+00 0. -1.
         21   -1    0    0  501  502 -0.00000000000E+00 -0.00000000000E+00 -0.18238802761E+03  0.18238802761E+03  0.00000000000E+00 0. -1.
         25    1    1    2    0    0  0.00000000000E+00  0.00000000000E+00 -0.16097077753E+03  0.20380527770E+03  0.12500000000E+03 0.  0.
<mgrwt>
<rscale>  0 0.12500000E+03</rscale>
<asrwt>0</asrwt>
<pdfrwt beam="1">  1       21 0.32949616E-02 0.12500000E+03</pdfrwt>
<pdfrwt beam="2">  1       21 0.28059696E-01 0.12500000E+03</pdfrwt>
<totfact> 0.64517243E+06</totfact>
</mgrwt>
</event>
<event>
 3    1  0.1573868E-001  0.1250000E+03  0.7546771E-02  0.1235069E+00
         21   -1    0    0  502  501  0.00000000000E+00  0.00000000000E+00  0.75538680524E+02  0.75538680524E+02  0.00000000000E+00 0.  1.
         21   -1    0    0  501  502 -0.00000000000E+00 -0.00000000000E+00 -0.51711917297E+02  0.51711917297E+02  0.00000000000E+00 0.  1.
         25    1    1    2    0    0  0.00000000000E+00  0.00000000000E+00  0.23826763227E+02  0.12725059782E+03  0.12500000000E+03 0.  0.
<mgrwt>
<rscale>  0 0.12500000E+03</rscale>
<asrwt>0</asrwt>
<pdfrwt beam="1">  1       21 0.11621336E-01 0.12500000E+03</pdfrwt>
<pdfrwt beam="2">  1       21 0.79556795E-02 0.12500000E+03</pdfrwt>
<totfact> 0.73735060E+06</totfact>
</mgrwt>
</event>
<event>
 3    1  0.1573868E-001  0.1250000E+03  0.7546771E-02  0.1235069E+00
         21   -1    0    0  502  501  0.00000000000E+00  0.00000000000E+00  0.97946002852E+01  0.97946002852E+01  0.00000000000E+00 0.  1.
         21   -1    0    0  501  502 -0.00000000000E+00 -0.00000000000E+00 -0.39881668330E+03  0.39881668330E+03  0.00000000000E+00 0.  1.
         25    1    1    2    0    0  0.00000000000E+00  0.00000000000E+00 -0.38902208301E+03  0.40861128358E+03  0.12500000000E+03 0.  0.
<mgrwt>
<rscale>  0 0.12500000E+03</rscale>
<asrwt>0</asrwt>
<pdfrwt beam="1">  1       21 0.15068614E-02 0.12500000E+03</pdfrwt>
<pdfrwt beam="2">  1       21 0.61356421E-01 0.12500000E+03</pdfrwt>
<totfact> 0.47475367E+06</totfact>
</mgrwt>
</event>
<event>
 3    1  0.1573868E-001  0.1250000E+03  0.7546771E-02  0.1235069E+00
         21   -1    0    0  502  501  0.00000000000E+00  0.00000000000E+00  0.62850792271E+02  0.62850792271E+02  0.00000000000E+00 0. -1.
         21   -1    0    0  501  502 -0.00000000000E+00 -0.00000000000E+00 -0.62151165623E+02  0.62151165623E+02  0.00000000000E+00 0. -1.
         25    1    1    2    0    0  0.00000000000E+00  0.00000000000E+00  0.69962664847E+00  0.12500195789E+03  0.12500000000E+03 0.  0.
<mgrwt>
<rscale>  0 0.12500000E+03</rscale>
<asrwt>0</asrwt>
<pdfrwt beam="1">  1       21 0.96693526E-02 0.12500000E+03</pdfrwt>
<pdfrwt beam="2">  1       21 0.95617178E-02 0.12500000E+03</pdfrwt>
<totfact> 0.74043317E+06</totfact>
</mgrwt>
</event>
<event>
 3    1  0.1573868E-001  0.1250000E+03  0.7546771E-02  0.1235069E+00
         21   -1    0    0  502  501  0.00000000000E+00  0.00000000000E+00  0.87908153986E+02  0.87908153986E+02  0.00000000000E+00 0. -1.
         21   -1    0    0  501  502 -0.00000000000E+00 -0.00000000000E+00 -0.44435582172E+02  0.44435582172E+02  0.00000000000E+00 0. -1.
         25    1    1    2    0    0  0.00000000000E+00  0.00000000000E+00  0.43472571814E+02  0.13234373616E+03  0.12500000000E+03 0.  0.
<mgrwt>
<rscale>  0 0.12500000E+03</rscale>
<asrwt>0</asrwt>
<pdfrwt beam="1">  1       21 0.13524331E-01 0.12500000E+03</pdfrwt>
<pdfrwt beam="2">  1       21 0.68362434E-02 0.12500000E+03</pdfrwt>
<totfact> 0.73050159E+06</totfact>
</mgrwt>
</event>
<event>
 3    1  0.1573868E-001  0.1250000E+03  0.7546771E-02  0.1235069E+00
         21   -1    0    0  502  501  0.00000000000E+00  0.00000000000E+00  0.14693340653E+03  0.14693340653E+03  0.00000000000E+00 0. -1.
         21   -1    0    0  501  502 -0.00000000000E+00 -0.00000000000E+00 -0.26585172781E+02  0.26585172781E+02  0.00000000000E+00 0. -1.
         25    1    1    2    0    0  0.00000000000E+00  0.00000000000E+00  0.12034823375E+03  0.17351857931E+03  0.12500000000E+03 0.  0.
<mgrwt>
<rscale>  0 0.12500000E+03</rscale>
<asrwt>0</asrwt>
<pdfrwt beam="1">  1       21 0.22605139E-01 0.12500000E+03</pdfrwt>
<pdfrwt beam="2">  1       21 0.40900267E-02 0.12500000E+03</pdfrwt>
<totfact> 0.67902956E+06</totfact>
</mgrwt>
</event>
<event>
 3    1  0.1573868E-001  0.1250000E+03  0.7546771E-02  0.1235069E+00
         21   -1    0    0  502  501  0.00000000000E+00  0.00000000000E+00  0.66093680023E+02  0.66093680023E+02  0.00000000000E+00 0.  1.
         21   -1    0    0  501  502 -0.00000000000E+00 -0.00000000000E+00 -0.59101717421E+02  0.59101717421E+02  0.00000000000E+00 0.  1.
         25    1    1    2    0    0  0.00000000000E+00  0.00000000000E+00  0.69919626022E+01  0.12519539744E+03  0.12500000000E+03 0.  0.
<mgrwt>
<rscale>  0 0.12500000E+03</rscale>
<asrwt>0</asrwt>
<pdfrwt beam="1">  1       21 0.10168259E-01 0.12500000E+03</pdfrwt>
<pdfrwt beam="2">  1       21 0.90925719E-02 0.12500000E+03</pdfrwt>
<totfact> 0.74017193E+06</totfact>
</mgrwt>
</event>
<event>
 3    1  0.1573868E-001  0.1250000E+03  0.7546771E-02  0.1235069E+00
         21   -1    0    0  502  501  0.00000000000E+00  0.00000000000E+00  0.22406415854E+03  0.22406415854E+03  0.00000000000E+00 0.  1.
         21   -1    0    0  501  502 -0.00000000000E+00 -0.00000000000E+00 -0.17433622698E+02  0.17433622698E+02  0.00000000000E+00 0.  1.
         25    1    1    2    0    0  0.00000000000E+00  0.00000000000E+00  0.20663053584E+03  0.24149778123E+03  0.12500000000E+03 0.  0.
<mgrwt>
<rscale>  0 0.12500000E+03</rscale>
<asrwt>0</asrwt>
<pdfrwt beam="1">  1       21 0.34471407E-01 0.12500000E+03</pdfrwt>
<pdfrwt beam="2">  1       21 0.26820960E-02 0.12500000E+03</pdfrwt>
<totfact> 0.60688027E+06</totfact>
</mgrwt>
</event>
<event>
 3    1  0.1573868E-001  0.1250000E+03  0.7546771E-02  0.1235069E+00
         21   -1    0    0  502  501  0.00000000000E+00  0.00000000000E+00  0.65720204956E+03  0.65720204956E+03  0.00000000000E+00 0.  1.
         21   -1    0    0  501  502 -0.00000000000E+00 -0.00000000000E+00 -0.59437580917E+01  0.59437580917E+01  0.00000000000E+00 0.  1.
         25    1    1    2    0    0  0.00000000000E+00  0.00000000000E+00  0.65125829147E+03  0.66314580766E+03  0.12500000000E+03 0.  0.
<mgrwt>
<rscale>  0 0.12500000E+03</rscale>
<asrwt>0</asrwt>
<pdfrwt beam="1">  1       21 0.10110795E+00 0.12500000E+03</pdfrwt>
<pdfrwt beam="2">  1       21 0.91442484E-03 0.12500000E+03</pdfrwt>
<totfact> 0.34379912E+06</totfact>
</mgrwt>
</event>
<event>
 3    1  0.1573868E-001  0.1250000E+03  0.7546771E-02  0.1235069E+00
         21   -1    0    0  502  501  0.00000000000E+00  0.00000000000E+00  0.34818240074E+02  0.34818240074E+02  0.00000000000E+00 0.  1.
         21   -1    0    0  501  502 -0.00000000000E+00 -0.00000000000E+00 -0.11218976007E+03  0.11218976007E+03  0.00000000000E+00 0.  1.
         25    1    1    2    0    0  0.00000000000E+00  0.00000000000E+00 -0.77371519999E+02  0.14700800015E+03  0.12500000000E+03 0.  0.
<mgrwt>
<rscale>  0 0.12500000E+03</rscale>
<asrwt>0</asrwt>
<pdfrwt beam="1">  1       21 0.53566522E-02 0.12500000E+03</pdfrwt>
<pdfrwt beam="2">  1       21 0.17259963E-01 0.12500000E+03</pdfrwt>
<totfact> 0.71137105E+06</totfact>
</mgrwt>
</event>
<event>
 3    1  0.1573868E-001  0.1250000E+03  0.7546771E-02  0.1235069E+00
         21   -1    0    0  502  501  0.00000000000E+00  0.00000000000E+00  0.49563921243E+02  0.49563921243E+02  0.00000000000E+00 0. -1.
         21   -1    0    0  501  502 -0.00000000000E+00 -0.00000000000E+00 -0.78812367989E+02  0.78812367989E+02  0.00000000000E+00 0. -1.
         25    1    1    2    0    0  0.00000000000E+00  0.00000000000E+00 -0.29248446745E+02  0.12837628923E+03  0.12500000000E+03 0.  0.
<mgrwt>
<rscale>  0 0.12500000E+03</rscale>
<asrwt>0</asrwt>
<pdfrwt beam="1">  1       21 0.76252186E-02 0.12500000E+03</pdfrwt>
<pdfrwt beam="2">  1       21 0.12124980E-01 0.12500000E+03</pdfrwt>
<totfact> 0.73582788E+06</totfact>
</mgrwt>
</event>
<event>
 3    1  0.1573868E-001  0.1250000E+03  0.7546771E-02  0.1235069E+00
         21   -1    0    0  502  501  0.00000000000E+00  0.00000000000E+00  0.17970172468E+03  0.17970172468E+03  0.00000000000E+00 0.  1.
         21   -1    0    0  501  502 -0.00000000000E+00 -0.00000000000E+00 -0.21737409627E+02  0.21737409627E+02  0.00000000000E+00 0.  1.
         25    1    1    2    0    0  0.00000000000E+00  0.00000000000E+00  0.15796431505E+03  0.20143913431E+03  0.12500000000E+03 0.  0.
<mgrwt>
<rscale>  0 0.12500000E+03</rscale>
<asrwt>0</asrwt>
<pdfrwt beam="1">  1       21 0.27646418E-01 0.12500000E+03</pdfrwt>
<pdfrwt beam="2">  1       21 0.33442170E-02 0.12500000E+03</pdfrwt>
<totfact> 0.64771646E+06</totfact>
</mgrwt>
</event>
<event>
 3    1  0.1573868E-001  0.1250000E+03  0.7546771E-02  0.1235069E+00
         21   -1    0    0  502  501  0.00000000000E+00  0.00000000000E+00  0.17783261114E+02  0.17783261114E+02  0.00000000000E+00 0. -1.
         21   -1    0    0  501  502 -0.00000000000E+00 -0.00000000000E+00 -0.21965881144E+03  0.21965881144E+03  0.00000000000E+00 0. -1.
         25    1    1    2    0    0  0.00000000000E+00  0.00000000000E+00 -0.20187555033E+03  0.23744207256E+03  0.12500000000E+03 0.  0.
<mgrwt>
<rscale>  0 0.12500000E+03</rscale>
<asrwt>0</asrwt>
<pdfrwt beam="1">  1       21 0.27358865E-02 0.12500000E+03</pdfrwt>
<pdfrwt beam="2">  1       21 0.33793662E-01 0.12500000E+03</pdfrwt>
<totfact> 0.61081070E+06</totfact>
</mgrwt>
</event>
<event>
 3    1  0.1573868E-001  0.1250000E+03  0.7546771E-02  0.1235069E+00
         21   -1    0    0  502  501  0.00000000000E+00  0.00000000000E+00  0.84135615519E+02  0.84135615519E+02  0.00000000000E+00 0.  1.
         21   -1    0    0  501  502 -0.00000000000E+00 -0.00000000000E+00 -0.46428019524E+02  0.46428019524E+02  0.00000000000E+00 0.  1.
         25    1    1    2    0    0  0.00000000000E+00  0.00000000000E+00  0.37707595994E+02  0.13056363504E+03  0.12500000000E+03 0.  0.
<mgrwt>
<rscale>  0 0.12500000E+03</rscale>
<asrwt>0</asrwt>
<pdfrwt beam="1">  1       21 0.12943941E-01 0.12500000E+03</pdfrwt>
<pdfrwt beam="2">  1       21 0.71427722E-02 0.12500000E+03</pdfrwt>
<totfact> 0.73289537E+06</totfact>
</mgrwt>
</event>
<event>
 3    1  0.1573868E-001  0.1250000E+03  0.7546771E-02  0.1235069E+00
         21   -1    0    0  502  501  0.00000000000E+00  0.00000000000E+00  0.13681199571E+03  0.13681199571E+03  0.00000000000E+00 0.  1.
         21   -1    0    0  501  502 -0.00000000000E+00 -0.00000000000E+00 -0.28551955402E+02  0.28551955402E+02  0.00000000000E+00 0.  1.
         25    1    1    2    0    0  0.00000000000E+00  0.00000000000E+00  0.10826004031E+03  0.16536395111E+03  0.12500000000E+03 0.  0.
<mgrwt>
<rscale>  0 0.12500000E+03</rscale>
<asrwt>0</asrwt>
<pdfrwt beam="1">  1       21 0.21047999E-01 0.12500000E+03</pdfrwt>
<pdfrwt beam="2">  1       21 0.43926086E-02 0.12500000E+03</pdfrwt>
<totfact> 0.68869947E+06</totfact>
</mgrwt>
</event>
<event>
 3    1  0.1573868E-001  0.1250000E+03  0.7546771E-02  0.1235069E+00
         21   -1    0    0  502  501  0.00000000000E+00  0.00000000000E+00  0.39643437801E+03  0.39643437801E+03  0.00000000000E+00 0. -1.
         21   -1    0    0  501  502 -0.00000000000E+00 -0.00000000000E+00 -0.98534592778E+01  0.98534592778E+01  0.00000000000E+00 0. -1.
         25    1    1    2    0    0  0.00000000000E+00  0.00000000000E+00  0.38658091873E+03  0.40628783728E+03  0.12500000000E+03 0.  0.
<mgrwt>
<rscale>  0 0.12500000E+03</rscale>
<asrwt>0</asrwt>
<pdfrwt beam="1">  1       21 0.60989892E-01 0.12500000E+03</pdfrwt>
<pdfrwt beam="2">  1       21 0.15159171E-02 0.12500000E+03</pdfrwt>
<totfact> 0.47627068E+06</totfact>
</mgrwt>
</event>
<event>
 3    1  0.1573868E-001  0.1250000E+03  0.7546771E-02  0.1235069E+00
         21   -1    0    0  502  501  0.00000000000E+00  0.00000000000E+00  0.20084822122E+01  0.20084822122E+01  0.00000000000E+00 0. -1.
         21   -1    0    0  501  502 -0.00000000000E+00 -0.00000000000E+00 -0.19448765721E+04  0.19448765721E+04  0.00000000000E+00 0. -1.
         25    1    1    2    0    0  0.00000000000E+00  0.00000000000E+00 -0.19428680899E+04  0.19468850543E+04  0.12500000000E+03 0.  0.
<mgrwt>
<rscale>  0 0.12500000E+03</rscale>
<asrwt>0</asrwt>
<pdfrwt beam="1">  1       21 0.30899596E-03 0.12500000E+03</pdfrwt>
<pdfrwt beam="2">  1       21 0.29921304E+00 0.12500000E+03</pdfrwt>
<totfact> 0.84775454E+05</totfact>
</mgrwt>
</event>
<event>
 3    1  0.1573868E-001  0.1250000E+03  0.7546771E-02  0.1235069E+00
         21   -1    0    0  502  501  0.00000000000E+00  0.00000000000E+00  0.68511486072E+03  0.68511486072E+03  0.00000000000E+00 0.  1.
         21   -1    0    0  501  502 -0.00000000000E+00 -0.00000000000E+00 -0.57015987011E+01  0.57015987011E+01  0.00000000000E+00 0.  1.
         25    1    1    2    0    0  0.00000000000E+00  0.00000000000E+00  0.67941326202E+03  0.69081645942E+03  0.12500000000E+03 0.  0.
<mgrwt>
<rscale>  0 0.12500000E+03</rscale>
<asrwt>0</asrwt>
<pdfrwt beam="1">  1       21 0.10540222E+00 0.12500000E+03</pdfrwt>
<pdfrwt beam="2">  1       21 0.87716957E-03 0.12500000E+03</pdfrwt>
<totfact> 0.33267230E+06</totfact>
</mgrwt>
</event>
<event>
 3    1  0.1573868E-001  0.1250000E+03  0.7546771E-02  0.1235069E+00
         21   -1    0    0  502  501  0.00000000000E+00  0.00000000000E+00  0.11101250665E+03  0.11101250665E+03  0.00000000000E+00 0.  1.
         21   -1    0    0  501  502 -0.00000000000E+00 -0.00000000000E+00 -0.35187476781E+02  0.35187476781E+02  0.00000000000E+00 0.  1.
         25    1    1    2    0    0  0.00000000000E+00  0.00000000000E+00  0.75825029865E+02  0.14619998343E+03  0.12500000000E+03 0.  0.
<mgrwt>
<rscale>  0 0.12500000E+03</rscale>
<asrwt>0</asrwt>
<pdfrwt beam="1">  1       21 0.17078847E-01 0.12500000E+03</pdfrwt>
<pdfrwt beam="2">  1       21 0.54134580E-02 0.12500000E+03</pdfrwt>
<totfact> 0.71239883E+06</totfact>
</mgrwt>
</event>
<event>
 3    1  0.1573868E-001  0.1250000E+03  0.7546771E-02  0.1235069E+00
         21   -1    0    0  502  501  0.00000000000E+00  0.00000000000E+00  0.97027723123E+02  0.97027723123E+02  0.00000000000E+00 0. -1.
         21   -1    0    0  501  502 -0.00000000000E+00 -0.00000000000E+00 -0.40259112286E+02  0.40259112286E+02  0.00000000000E+00 0. -1.
         25    1    1    2    0    0  0.00000000000E+00  0.00000000000E+00  0.56768610837E+02  0.13728683541E+03  0.12500000000E+03 0.  0.
<mgrwt>
<rscale>  0 0.12500000E+03</rscale>
<asrwt>0</asrwt>
<pdfrwt beam="1">  1       21 0.14927342E-01 0.12500000E+03</pdfrwt>
<pdfrwt beam="2">  1       21 0.61937096E-02 0.12500000E+03</pdfrwt>
<totfact> 0.72395072E+06</totfact>
</mgrwt>
</event>
<event>
 3    1  0.1573868E-001  0.1250000E+03  0.7546771E-02  0.1235069E+00
         21   -1    0    0  502  501  0.00000000000E+00  0.00000000000E+00  0.22283975834E+03  0.22283975834E+03  0.00000000000E+00 0.  1.
         21   -1    0    0  501  502 -0.00000000000E+00 -0.00000000000E+00 -0.17529412296E+02  0.17529412296E+02  0.00000000000E+00 0.  1.
         25    1    1    2    0    0  0.00000000000E+00  0.00000000000E+00  0.20531034605E+03  0.24036917064E+03  0.12500000000E+03 0.  0.
<mgrwt>
<rscale>  0 0.12500000E+03</rscale>
<asrwt>0</asrwt>
<pdfrwt beam="1">  1       21 0.34283038E-01 0.12500000E+03</pdfrwt>
<pdfrwt beam="2">  1       21 0.26968328E-02 0.12500000E+03</pdfrwt>
<totfact> 0.60796958E+06</totfact>
</mgrwt>
</event>
<event>
 3    1  0.1573868E-001  0.1250000E+03  0.7546771E-02  0.1235069E+00
         21   -1    0    0  502  501  0.00000000000E+00  0.00000000000E+00  0.13474343384E+04  0.13474343384E+04  0.00000000000E+00 0. -1.
         21   -1    0    0  501  502 -0.00000000000E+00 -0.00000000000E+00 -0.28990280927E+01  0.28990280927E+01  0.00000000000E+00 0. -1.
         25    1    1    2    0    0  0.00000000000E+00  0.00000000000E+00  0.13445353103E+04  0.13503333665E+04  0.12500000000E+03 0.  0.
<mgrwt>
<rscale>  0 0.12500000E+03</rscale>
<asrwt>0</asrwt>
<pdfrwt beam="1">  1       21 0.20729709E+00 0.12500000E+03</pdfrwt>
<pdfrwt beam="2">  1       21 0.44600540E-03 0.12500000E+03</pdfrwt>
<totfact> 0.16372166E+06</totfact>
</mgrwt>
</event>
<event>
 3    1  0.1573868E-001  0.1250000E+03  0.7546771E-02  0.1235069E+00
         21   -1    0    0  502  501  0.00000000000E+00  0.00000000000E+00  0.46599936785E+02  0.46599936785E+02  0.00000000000E+00 0. -1.
         21   -1    0    0  501  502 -0.00000000000E+00 -0.00000000000E+00 -0.83825221010E+02  0.83825221010E+02  0.00000000000E+00 0. -1.
         25    1    1    2    0    0  0.00000000000E+00  0.00000000000E+00 -0.37225284225E+02  0.13042515779E+03  0.12500000000E+03 0.  0.
<mgrwt>
<rscale>  0 0.12500000E+03</rscale>
<asrwt>0</asrwt>
<pdfrwt beam="1">  1       21 0.71692211E-02 0.12500000E+03</pdfrwt>
<pdfrwt beam="2">  1       21 0.12896188E-01 0.12500000E+03</pdfrwt>
<totfact> 0.73308147E+06</totfact>
</mgrwt>
</event>
<event>
 3    1  0.1573868E-001  0.1250000E+03  0.7546771E-02  0.1235069E+00
         21   -1    0    0  502  501  0.00000000000E+00  0.00000000000E+00  0.99430405210E+03  0.99430405210E+03  0.00000000000E+00 0.  1.
         21   -1    0    0  501  502 -0.00000000000E+00 -0.00000000000E+00 -0.39286272562E+01  0.39286272562E+01  0.00000000000E+00 0.  1.
         25    1    1    2    0    0  0.00000000000E+00  0.00000000000E+00  0.99037542485E+03  0.99823267936E+03  0.12500000000E+03 0.  0.
<mgrwt>
<rscale>  0 0.12500000E+03</rscale>
<asrwt>0</asrwt>
<pdfrwt beam="1">  1       21 0.15296965E+00 0.12500000E+03</pdfrwt>
<pdfrwt beam="2">  1       21 0.60440498E-03 0.12500000E+03</pdfrwt>
<totfact> 0.23662918E+06</totfact>
</mgrwt>
</event>
<event>
 3    1  0.1573868E-001  0.1250000E+03  0.7546771E-02  0.1235069E+00
         21   -1    0    0  502  501  0.00000000000E+00  0.00000000000E+00  0.51083743459E+03  0.51083743459E+03  0.00000000000E+00 0.  1.
         21   -1    0    0  501  502 -0.00000000000E+00 -0.00000000000E+00 -0.76467575309E+01  0.76467575309E+01  0.00000000000E+00 0.  1.
         25    1    1    2    0    0  0.00000000000E+00  0.00000000000E+00  0.50319067705E+03  0.51848419212E+03  0.12500000000E+03 0.  0.
<mgrwt>
<rscale>  0 0.12500000E+03</rscale>
<asrwt>0</asrwt>
<pdfrwt beam="1">  1       21 0.78590348E-01 0.12500000E+03</pdfrwt>
<pdfrwt beam="2">  1       21 0.11764246E-02 0.12500000E+03</pdfrwt>
<totfact> 0.41059060E+06</totfact>
</mgrwt>
</event>
<event>
 3    1  0.1573868E-001  0.1250000E+03  0.7546771E-02  0.1235069E+00
         21   -1    0    0  502  501  0.00000000000E+00  0.00000000000E+00  0.23112029111E+02  0.23112029111E+02  0.00000000000E+00 0.  1.
         21   -1    0    0  501  502 -0.00000000000E+00 -0.00000000000E+00 -0.16901371927E+03  0.16901371927E+03  0.00000000000E+00 0.  1.
         25    1    1    2    0    0  0.00000000000E+00  0.00000000000E+00 -0.14590169016E+03  0.19212574839E+03  0.12500000000E+03 0.  0.
<mgrwt>
<rscale>  0 0.12500000E+03</rscale>
<asrwt>0</asrwt>
<pdfrwt beam="1">  1       21 0.35556969E-02 0.12500000E+03</pdfrwt>
<pdfrwt beam="2">  1       21 0.26002110E-01 0.12500000E+03</pdfrwt>
<totfact> 0.65786983E+06</totfact>
</mgrwt>
</event>
<event>
 3    1  0.1573868E-001  0.1250000E+03  0.7546771E-02  0.1235069E+00
         21   -1    0    0  502  501  0.00000000000E+00  0.00000000000E+00  0.21564685273E+03  0.21564685273E+03  0.00000000000E+00 0.  1.
         21   -1    0    0  501  502 -0.00000000000E+00 -0.00000000000E+00 -0.18114106237E+02  0.18114106237E+02  0.00000000000E+00 0.  1.
         25    1    1    2    0    0  0.00000000000E+00  0.00000000000E+00  0.19753274649E+03  0.23376095897E+03  0.12500000000E+03 0.  0.
<mgrwt>
<rscale>  0 0.12500000E+03</rscale>
<asrwt>0</asrwt>
<pdfrwt beam="1">  1       21 0.33176437E-01 0.12500000E+03</pdfrwt>
<pdfrwt beam="2">  1       21 0.27867857E-02 0.12500000E+03</pdfrwt>
<totfact> 0.61441679E+06</totfact>
</mgrwt>
</event>
<event>
 3    1  0.1573868E-001  0.1250000E+03  0.7546771E-02  0.1235069E+00
         21   -1    0    0  502  501  0.00000000000E+00  0.00000000000E+00  0.10693353745E+03  0.10693353745E+03  0.00000000000E+00 0. -1.
         21   -1    0    0  501  502 -0.00000000000E+00 -0.00000000000E+00 -0.36529699599E+02  0.36529699599E+02  0.00000000000E+00 0. -1.
         25    1    1    2    0    0  0.00000000000E+00  0.00000000000E+00  0.70403837848E+02  0.14346323705E+03  0.12500000000E+03 0.  0.
<mgrwt>
<rscale>  0 0.12500000E+03</rscale>
<asrwt>0</asrwt>
<pdfrwt beam="1">  1       21 0.16451313E-01 0.12500000E+03</pdfrwt>
<pdfrwt beam="2">  1       21 0.56199538E-02 0.12500000E+03</pdfrwt>
<totfact> 0.71590352E+06</totfact>
</mgrwt>
</event>
<event>
 3    1  0.1573868E-001  0.1250000E+03  0.7546771E-02  0.1235069E+00
         21   -1    0    0  502  501  0.00000000000E+00  0.00000000000E+00  0.11102598466E+02  0.11102598466E+02  0.00000000000E+00 0. -1.
         21   -1    0    0  501  502 -0.00000000000E+00 -0.00000000000E+00 -0.35183205193E+03  0.35183205193E+03  0.00000000000E+00 0. -1.
         25    1    1    2    0    0  0.00000000000E+00  0.00000000000E+00 -0.34072945346E+03  0.36293465040E+03  0.12500000000E+03 0.  0.
<mgrwt>
<rscale>  0 0.12500000E+03</rscale>
<asrwt>0</asrwt>
<pdfrwt beam="1">  1       21 0.17080924E-02 0.12500000E+03</pdfrwt>
<pdfrwt beam="2">  1       21 0.54127999E-01 0.12500000E+03</pdfrwt>
<totfact> 0.50597133E+06</totfact>
</mgrwt>
</event>
<event>
 3    1  0.1573868E-001  0.1250000E+03  0.7546771E-02  0.1235069E+00
         21   -1    0    0  502  501  0.00000000000E+00  0.00000000000E+00  0.84918306223E+01  0.84918306223E+01  0.00000000000E+00 0.  1.
         21   -1    0    0  501  502 -0.00000000000E+00 -0.00000000000E+00 -0.46000093192E+03  0.46000093192E+03  0.00000000000E+00 0.  1.
         25    1    1    2    0    0  0.00000000000E+00  0.00000000000E+00 -0.45150910130E+03  0.46849276254E+03  0.12500000000E+03 0.  0.
<mgrwt>
<rscale>  0 0.12500000E+03</rscale>
<asrwt>0</asrwt>
<pdfrwt beam="1">  1       21 0.13064354E-02 0.12500000E+03</pdfrwt>
<pdfrwt beam="2">  1       21 0.70769380E-01 0.12500000E+03</pdfrwt>
<totfact> 0.43805988E+06</totfact>
</mgrwt>
</event>
<event>
 3    1  0.1573868E-001  0.1250000E+03  0.7546771E-02  0.1235069E+00
         21   -1    0    0  502  501  0.00000000000E+00  0.00000000000E+00  0.46203265901E+03  0.46203265901E+03  0.00000000000E+00 0.  1.
         21   -1    0    0  501  502 -0.00000000000E+00 -0.00000000000E+00 -0.84544889280E+01  0.84544889280E+01  0.00000000000E+00 0.  1.
         25    1    1    2    0    0  0.00000000000E+00  0.00000000000E+00  0.45357817009E+03  0.47048714794E+03  0.12500000000E+03 0.  0.
<mgrwt>
<rscale>  0 0.12500000E+03</rscale>
<asrwt>0</asrwt>
<pdfrwt beam="1">  1       21 0.71081928E-01 0.12500000E+03</pdfrwt>
<pdfrwt beam="2">  1       21 0.13006910E-02 0.12500000E+03</pdfrwt>
<totfact> 0.43691219E+06</totfact>
</mgrwt>
</event>
<event>
 3    1  0.1573868E-001  0.1250000E+03  0.7546771E-02  0.1235069E+00
         21   -1    0    0  502  501  0.00000000000E+00  0.00000000000E+00  0.14358518924E+03  0.14358518924E+03  0.00000000000E+00 0.  1.
         21   -1    0    0  501  502 -0.00000000000E+00 -0.00000000000E+00 -0.27205103957E+02  0.27205103957E+02  0.00000000000E+00 0.  1.
         25    1    1    2    0    0  0.00000000000E+00  0.00000000000E+00  0.11638008529E+03  0.17079029320E+03  0.12500000000E+03 0.  0.
<mgrwt>
<rscale>  0 0.12500000E+03</rscale>
<asrwt>0</asrwt>
<pdfrwt beam="1">  1       21 0.22090029E-01 0.12500000E+03</pdfrwt>
<pdfrwt beam="2">  1       21 0.41854007E-02 0.12500000E+03</pdfrwt>
<totfact> 0.68224074E+06</totfact>
</mgrwt>
</event>
<event>
 3    1  0.1573868E-001  0.1250000E+03  0.7546771E-02  0.1235069E+00
         21   -1    0    0  502  501  0.00000000000E+00  0.00000000000E+00  0.83347710710E+02  0.83347710710E+02  0.00000000000E+00 0. -1.
         21   -1    0    0  501  502 -0.00000000000E+00 -0.00000000000E+00 -0.46866914121E+02  0.46866914121E+02  0.00000000000E+00 0. -1.
         25    1    1    2    0    0  0.00000000000E+00  0.00000000000E+00  0.36480796589E+02  0.13021462483E+03  0.12500000000E+03 0.  0.
<mgrwt>
<rscale>  0 0.12500000E+03</rscale>
<asrwt>0</asrwt>
<pdfrwt beam="1">  1       21 0.12822725E-01 0.12500000E+03</pdfrwt>
<pdfrwt beam="2">  1       21 0.72102945E-02 0.12500000E+03</pdfrwt>
<totfact> 0.73336244E+06</totfact>
</mgrwt>
</event>
<event>
 3    1  0.1573868E-001  0.1250000E+03  0.7546771E-02  0.1235069E+00
         21   -1    0    0  502  501  0.00000000000E+00  0.00000000000E+00  0.67009925311E+02  0.67009925311E+02  0.00000000000E+00 0. -1.
         21   -1    0    0  501  502 -0.00000000000E+00 -0.00000000000E+00 -0.58293603251E+02  0.58293603251E+02  0.00000000000E+00 0. -1.
         25    1    1    2    0    0  0.00000000000E+00  0.00000000000E+00  0.87163220600E+01  0.12530352856E+03  0.12500000000E+03 0.  0.
<mgrwt>
<rscale>  0 0.12500000E+03</rscale>
<asrwt>0</asrwt>
<pdfrwt beam="1">  1       21 0.10309219E-01 0.12500000E+03</pdfrwt>
<pdfrwt beam="2">  1       21 0.89682466E-02 0.12500000E+03</pdfrwt>
<totfact> 0.74002595E+06</totfact>
</mgrwt>
</event>
<event>
 3    1  0.1573868E-001  0.1250000E+03  0.7546771E-02  0.1235069E+00
         21   -1    0    0  502  501  0.00000000000E+00  0.00000000000E+00  0.16654633577E+03  0.16654633577E+03  0.00000000000E+00 0. -1.
         21   -1    0    0  501  502 -0.00000000000E+00 -0.00000000000E+00 -0.23454433758E+02  0.23454433758E+02  0.00000000000E+00 0. -1.
         25    1    1    2    0    0  0.00000000000E+00  0.00000000000E+00  0.14309190201E+03  0.19000076953E+03  0.12500000000E+03 0.  0.
<mgrwt>
<rscale>  0 0.12500000E+03</rscale>
<asrwt>0</asrwt>
<pdfrwt beam="1">  1       21 0.25622512E-01 0.12500000E+03</pdfrwt>
<pdfrwt beam="2">  1       21 0.36083745E-02 0.12500000E+03</pdfrwt>
<totfact> 0.66022379E+06</totfact>
</mgrwt>
</event>
<event>
 3    1  0.1573868E-001  0.1250000E+03  0.7546771E-02  0.1235069E+00
         21   -1    0    0  502  501  0.00000000000E+00  0.00000000000E+00  0.45607234457E+03  0.45607234457E+03  0.00000000000E+00 0. -1.
         21   -1    0    0  501  502 -0.00000000000E+00 -0.00000000000E+00 -0.85649788821E+01  0.85649788821E+01  0.00000000000E+00 0. -1.
         25    1    1    2    0    0  0.00000000000E+00  0.00000000000E+00  0.44750736569E+03  0.46463732346E+03  0.12500000000E+03 0.  0.
<mgrwt>
<rscale>  0 0.12500000E+03</rscale>
<asrwt>0</asrwt>
<pdfrwt beam="1">  1       21 0.70164957E-01 0.12500000E+03</pdfrwt>
<pdfrwt beam="2">  1       21 0.13176894E-02 0.12500000E+03</pdfrwt>
<totfact> 0.44029171E+06</totfact>
</mgrwt>
</event>
<event>
 3    1  0.1573868E-001  0.1250000E+03  0.7546771E-02  0.1235069E+00
         21   -1    0    0  502  501  0.00000000000E+00  0.00000000000E+00  0.12469873207E+03  0.12469873207E+03  0.00000000000E+00 0.  1.
         21   -1    0    0  501  502 -0.00000000000E+00 -0.00000000000E+00 -0.31325498947E+02  0.31325498947E+02  0.00000000000E+00 0.  1.
         25    1    1    2    0    0  0.00000000000E+00  0.00000000000E+00  0.93373233121E+02  0.15602423101E+03  0.12500000000E+03 0.  0.
<mgrwt>
<rscale>  0 0.12500000E+03</rscale>
<asrwt>0</asrwt>
<pdfrwt beam="1">  1       21 0.19184420E-01 0.12500000E+03</pdfrwt>
<pdfrwt beam="2">  1       21 0.48193076E-02 0.12500000E+03</pdfrwt>
<totfact> 0.70008583E+06</totfact>
</mgrwt>
</event>
<event>
 3    1  0.1573868E-001  0.1250000E+03  0.7546771E-02  0.1235069E+00
         21   -1    0    0  502  501  0.00000000000E+00  0.00000000000E+00  0.10707469827E+03  0.10707469827E+03  0.00000000000E+00 0.  1.
         21   -1    0    0  501  502 -0.00000000000E+00 -0.00000000000E+00 -0.36481541047E+02  0.36481541047E+02  0.00000000000E+00 0.  1.
         25    1    1    2    0    0  0.00000000000E+00  0.00000000000E+00  0.70593157221E+02  0.14355623932E+03  0.12500000000E+03 0.  0.
<mgrwt>
<rscale>  0 0.12500000E+03</rscale>
<asrwt>0</asrwt>
<pdfrwt beam="1">  1       21 0.16473030E-01 0.12500000E+03</pdfrwt>
<pdfrwt beam="2">  1       21 0.56125448E-02 0.12500000E+03</pdfrwt>
<totfact> 0.71578381E+06</totfact>
</mgrwt>
</event>
<event>
 3    1  0.1573868E-001  0.1250000E+03  0.7546771E-02  0.1235069E+00
         21   -1    0    0  502  501  0.00000000000E+00  0.00000000000E+00  0.52244438647E+02  0.52244438647E+02  0.00000000000E+00 0.  1.
         21   -1    0    0  501  502 -0.00000000000E+00 -0.00000000000E+00 -0.74768723737E+02  0.74768723737E+02  0.00000000000E+00 0.  1.
         25    1    1    2    0    0  0.00000000000E+00  0.00000000000E+00 -0.22524285090E+02  0.12701316238E+03  0.12500000000E+03 0.  0.
<mgrwt>
<rscale>  0 0.12500000E+03</rscale>
<asrwt>0</asrwt>
<pdfrwt beam="1">  1       21 0.80376060E-02 0.12500000E+03</pdfrwt>
<pdfrwt beam="2">  1       21 0.11502881E-01 0.12500000E+03</pdfrwt>
<totfact> 0.73767344E+06</totfact>
</mgrwt>
</event>
<event>
 3    1  0.1573868E-001  0.1250000E+03  0.7546771E-02  0.1235069E+00
         21   -1    0    0  502  501  0.00000000000E+00  0.00000000000E+00  0.13419926102E+03  0.13419926102E+03  0.00000000000E+00 0.  1.
         21   -1    0    0  501  502 -0.00000000000E+00 -0.00000000000E+00 -0.29107835396E+02  0.29107835396E+02  0.00000000000E+00 0.  1.
         25    1    1    2    0    0  0.00000000000E+00  0.00000000000E+00  0.10509142562E+03  0.16330709641E+03  0.12500000000E+03 0.  0.
<mgrwt>
<rscale>  0 0.12500000E+03</rscale>
<asrwt>0</asrwt>
<pdfrwt beam="1">  1       21 0.20646040E-01 0.12500000E+03</pdfrwt>
<pdfrwt beam="2">  1       21 0.44781286E-02 0.12500000E+03</pdfrwt>
<totfact> 0.69117646E+06</totfact>
</mgrwt>
</event>
<event>
 3    1  0.1573868E-001  0.1250000E+03  0.7546771E-02  0.1235069E+00
         21   -1    0    0  502  501  0.00000000000E+00  0.00000000000E+00  0.47401074942E+03  0.47401074942E+03  0.00000000000E+00 0.  1.
         21   -1    0    0  501  502 -0.00000000000E+00 -0.00000000000E+00 -0.82408468685E+01  0.82408468685E+01  0.00000000000E+00 0.  1.
         25    1    1    2    0    0  0.00000000000E+00  0.00000000000E+00  0.46576990255E+03  0.48225159629E+03  0.12500000000E+03 0.  0.
<mgrwt>
<rscale>  0 0.12500000E+03</rscale>
<asrwt>0</asrwt>
<pdfrwt beam="1">  1       21 0.72924709E-01 0.12500000E+03</pdfrwt>
<pdfrwt beam="2">  1       21 0.12678230E-02 0.12500000E+03</pdfrwt>
<totfact> 0.43023264E+06</totfact>
</mgrwt>
</event>
<event>
 3    1  0.1573868E-001  0.1250000E+03  0.7546771E-02  0.1235069E+00
         21   -1    0    0  502  501  0.00000000000E+00  0.00000000000E+00  0.17023386502E+03  0.17023386502E+03  0.00000000000E+00 0. -1.
         21   -1    0    0  501  502 -0.00000000000E+00 -0.00000000000E+00 -0.22946374386E+02  0.22946374386E+02  0.00000000000E+00 0. -1.
         25    1    1    2    0    0  0.00000000000E+00  0.00000000000E+00  0.14728749063E+03  0.19318023941E+03  0.12500000000E+03 0.  0.
<mgrwt>
<rscale>  0 0.12500000E+03</rscale>
<asrwt>0</asrwt>
<pdfrwt beam="1">  1       21 0.26189825E-01 0.12500000E+03</pdfrwt>
<pdfrwt beam="2">  1       21 0.35302116E-02 0.12500000E+03</pdfrwt>
<totfact> 0.65670743E+06</totfact>
</mgrwt>
</event>
<event>
 3    1  0.1573868E-001  0.1250000E+03  0.7546771E-02  0.1235069E+00
         21   -1    0    0  502  501  0.00000000000E+00  0.00000000000E+00  0.11823330168E+03  0.11823330168E+03  0.00000000000E+00 0.  1.
         21   -1    0    0  501  502 -0.00000000000E+00 -0.00000000000E+00 -0.33038492070E+02  0.33038492070E+02  0.00000000000E+00 0.  1.
         25    1    1    2    0    0  0.00000000000E+00  0.00000000000E+00  0.85194809611E+02  0.15127179375E+03  0.12500000000E+03 0.  0.
<mgrwt>
<rscale>  0 0.12500000E+03</rscale>
<asrwt>0</asrwt>
<pdfrwt beam="1">  1       21 0.18189739E-01 0.12500000E+03</pdfrwt>
<pdfrwt beam="2">  1       21 0.50828450E-02 0.12500000E+03</pdfrwt>
<totfact> 0.70599804E+06</totfact>
</mgrwt>
</event>
<event>
 3    1  0.1573868E-001  0.1250000E+03  0.7546771E-02  0.1235069E+00
         21   -1    0    0  502  501  0.00000000000E+00  0.00000000000E+00  0.19509804008E+02  0.19509804008E+02  0.00000000000E+00 0.  1.
         21   -1    0    0  501  502 -0.00000000000E+00 -0.00000000000E+00 -0.20021984835E+03  0.20021984835E+03  0.00000000000E+00 0.  1.
         25    1    1    2    0    0  0.00000000000E+00  0.00000000000E+00 -0.18071004435E+03  0.21972965236E+03  0.12500000000E+03 0.  0.
<mgrwt>
<rscale>  0 0.12500000E+03</rscale>
<asrwt>0</asrwt>
<pdfrwt beam="1">  1       21 0.30015083E-02 0.12500000E+03</pdfrwt>
<pdfrwt beam="2">  1       21 0.30803054E-01 0.12500000E+03</pdfrwt>
<totfact> 0.62850179E+06</totfact>
</mgrwt>
</event>
<event>
 3    1  0.1573868E-001  0.1250000E+03  0.7546771E-02  0.1235069E+00
         21   -1    0    0  502  501  0.00000000000E+00  0.00000000000E+00  0.59620528098E+03  0.59620528098E+03  0.00000000000E+00 0. -1.
         21   -1    0    0  501  502 -0.00000000000E+00 -0.00000000000E+00 -0.65518540755E+01  0.65518540755E+01  0.00000000000E+00 0. -1.
         25    1    1    2    0    0  0.00000000000E+00  0.00000000000E+00  0.58965342691E+03  0.60275713506E+03  0.12500000000E+03 0.  0.
<mgrwt>
<rscale>  0 0.12500000E+03</rscale>
<asrwt>0</asrwt>
<pdfrwt beam="1">  1       21 0.91723846E-01 0.12500000E+03</pdfrwt>
<pdfrwt beam="2">  1       21 0.10079780E-02 0.12500000E+03</pdfrwt>
<totfact> 0.36968252E+06</totfact>
</mgrwt>
</event>
<event>
 3    1  0.1573868E-001  0.1250000E+03  0.7546771E-02  0.1235069E+00
         21   -1    0    0  502  501  0.00000000000E+00  0.00000000000E+00  0.43281121270E+03  0.43281121270E+03  0.00000000000E+00 0. -1.
         21   -1    0    0  501  502 -0.00000000000E+00 -0.00000000000E+00 -0.90252976019E+01  0.90252976019E+01  0.00000000000E+00 0. -1.
         25    1    1    2    0    0  0.00000000000E+00  0.00000000000E+00  0.42378591509E+03  0.44183651030E+03  0.12500000000E+03 0.  0.
<mgrwt>
<rscale>  0 0.12500000E+03</rscale>
<asrwt>0</asrwt>
<pdfrwt beam="1">  1       21 0.66586324E-01 0.12500000E+03</pdfrwt>
<pdfrwt beam="2">  1       21 0.13885077E-02 0.12500000E+03</pdfrwt>
<totfact> 0.45384774E+06</totfact>
</mgrwt>
</event>
<event>
 3    1  0.1573868E-001  0.1250000E+03  0.7546771E-02  0.1235069E+00
         21   -1    0    0  502  501  0.00000000000E+00  0.00000000000E+00  0.31548332991E+02  0.31548332991E+02  0.00000000000E+00 0.  1.
         21   -1    0    0  501  502 -0.00000000000E+00 -0.00000000000E+00 -0.12381795263E+03  0.12381795263E+03  0.00000000000E+00 0.  1.
         25    1    1    2    0    0  0.00000000000E+00  0.00000000000E+00 -0.92269619643E+02  0.15536628563E+03  0.12500000000E+03 0.  0.
<mgrwt>
<rscale>  0 0.12500000E+03</rscale>
<asrwt>0</asrwt>
<pdfrwt beam="1">  1       21 0.48535896E-02 0.12500000E+03</pdfrwt>
<pdfrwt beam="2">  1       21 0.19048916E-01 0.12500000E+03</pdfrwt>
<totfact> 0.70090163E+06</totfact>
</mgrwt>
</event>
<event>
 3    1  0.1573868E-001  0.1250000E+03  0.7546771E-02  0.1235069E+00
         21   -1    0    0  502  501  0.00000000000E+00  0.00000000000E+00  0.21597633664E+03  0.21597633664E+03  0.00000000000E+00 0.  1.
         21   -1    0    0  501  502 -0.00000000000E+00 -0.00000000000E+00 -0.18086472160E+02  0.18086472160E+02  0.00000000000E+00 0.  1.
         25    1    1    2    0    0  0.00000000000E+00  0.00000000000E+00  0.19788986448E+03  0.23406280880E+03  0.12500000000E+03 0.  0.
<mgrwt>
<rscale>  0 0.12500000E+03</rscale>
<asrwt>0</asrwt>
<pdfrwt beam="1">  1       21 0.33227127E-01 0.12500000E+03</pdfrwt>
<pdfrwt beam="2">  1       21 0.27825343E-02 0.12500000E+03</pdfrwt>
<totfact> 0.61411969E+06</totfact>
</mgrwt>
</event>
<event>
 3    1  0.1573868E-001  0.1250000E+03  0.7546771E-02  0.1235069E+00
         21   -1    0    0  502  501  0.00000000000E+00  0.00000000000E+00  0.60156004950E+01  0.60156004950E+01  0.00000000000E+00 0.  1.
         21   -1    0    0  501  502 -0.00000000000E+00 -0.00000000000E+00 -0.64935329453E+03  0.64935329453E+03  0.00000000000E+00 0.  1.
         25    1    1    2    0    0  0.00000000000E+00  0.00000000000E+00 -0.64333769403E+03  0.65536889502E+03  0.12500000000E+03 0.  0.
<mgrwt>
<rscale>  0 0.12500000E+03</rscale>
<asrwt>0</asrwt>
<pdfrwt beam="1">  1       21 0.92547733E-03 0.12500000E+03</pdfrwt>
<pdfrwt beam="2">  1       21 0.99900471E-01 0.12500000E+03</pdfrwt>
<totfact> 0.34702236E+06</totfact>
</mgrwt>
</event>
<event>
 3    1  0.1573868E-001  0.1250000E+03  0.7546771E-02  0.1235069E+00
         21   -1    0    0  502  501  0.00000000000E+00  0.00000000000E+00  0.41298284434E+02  0.41298284434E+02  0.00000000000E+00 0. -1.
         21   -1    0    0  501  502 -0.00000000000E+00 -0.00000000000E+00 -0.94586253486E+02  0.94586253486E+02  0.00000000000E+00 0. -1.
         25    1    1    2    0    0  0.00000000000E+00  0.00000000000E+00 -0.53287969053E+02  0.13588453792E+03  0.12500000000E+03 0.  0.
<mgrwt>
<rscale>  0 0.12500000E+03</rscale>
<asrwt>0</asrwt>
<pdfrwt beam="1">  1       21 0.63535822E-02 0.12500000E+03</pdfrwt>
<pdfrwt beam="2">  1       21 0.14551731E-01 0.12500000E+03</pdfrwt>
<totfact> 0.72579565E+06</totfact>
</mgrwt>
</event>
<event>
 3    1  0.1573868E-001  0.1250000E+03  0.7546771E-02  0.1235069E+00
         21   -1    0    0  502  501  0.00000000000E+00  0.00000000000E+00  0.16561860441E+03  0.16561860441E+03  0.00000000000E+00 0. -1.
         21   -1    0    0  501  502 -0.00000000000E+00 -0.00000000000E+00 -0.23585816425E+02  0.23585816425E+02  0.00000000000E+00 0. -1.
         25    1    1    2    0    0  0.00000000000E+00  0.00000000000E+00  0.14203278798E+03  0.18920442083E+03  0.12500000000E+03 0.  0.
<mgrwt>
<rscale>  0 0.12500000E+03</rscale>
<asrwt>0</asrwt>
<pdfrwt beam="1">  1       21 0.25479785E-01 0.12500000E+03</pdfrwt>
<pdfrwt beam="2">  1       21 0.36285873E-02 0.12500000E+03</pdfrwt>
<totfact> 0.66110995E+06</totfact>
</mgrwt>
</event>
<event>
 3    1  0.1573868E-001  0.1250000E+03  0.7546771E-02  0.1235069E+00
         21   -1    0    0  502  501  0.00000000000E+00  0.00000000000E+00  0.84915781872E+02  0.84915781872E+02  0.00000000000E+00 0.  1.
         21   -1    0    0  501  502 -0.00000000000E+00 -0.00000000000E+00 -0.46001460669E+02  0.46001460669E+02  0.00000000000E+00 0.  1.
         25    1    1    2    0    0  0.00000000000E+00  0.00000000000E+00  0.38914321203E+02  0.13091724254E+03  0.12500000000E+03 0.  0.
<mgrwt>
<rscale>  0 0.12500000E+03</rscale>
<asrwt>0</asrwt>
<pdfrwt beam="1">  1       21 0.13063966E-01 0.12500000E+03</pdfrwt>
<pdfrwt beam="2">  1       21 0.70771478E-02 0.12500000E+03</pdfrwt>
<totfact> 0.73241826E+06</totfact>
</mgrwt>
</event>
<event>
 3    1  0.1573868E-001  0.1250000E+03  0.7546771E-02  0.1235069E+00
         21   -1    0    0  502  501  0.00000000000E+00  0.00000000000E+00  0.78823764046E+02  0.78823764046E+02  0.00000000000E+00 0. -1.
         21   -1    0    0  501  502 -0.00000000000E+00 -0.00000000000E+00 -0.49556755469E+02  0.49556755469E+02  0.00000000000E+00 0. -1.
         25    1    1    2    0    0  0.00000000000E+00  0.00000000000E+00  0.29267008576E+02  0.12838051952E+03  0.12500000000E+03 0.  0.
<mgrwt>
<rscale>  0 0.12500000E+03</rscale>
<asrwt>0</asrwt>
<pdfrwt beam="1">  1       21 0.12126733E-01 0.12500000E+03</pdfrwt>
<pdfrwt beam="2">  1       21 0.76241162E-02 0.12500000E+03</pdfrwt>
<totfact> 0.73582218E+06</totfact>
</mgrwt>
</event>
<event>
 3    1  0.1573868E-001  0.1250000E+03  0.7546771E-02  0.1235069E+00
         21   -1    0    0  502  501  0.00000000000E+00  0.00000000000E+00  0.12918425648E+02  0.12918425648E+02  0.00000000000E+00 0. -1.
         21   -1    0    0  501  502 -0.00000000000E+00 -0.00000000000E+00 -0.30237817722E+03  0.30237817722E+03  0.00000000000E+00 0. -1.
         25    1    1    2    0    0  0.00000000000E+00  0.00000000000E+00 -0.28945975157E+03  0.31529660287E+03  0.12500000000E+03 0.  0.
<mgrwt>
<rscale>  0 0.12500000E+03</rscale>
<asrwt>0</asrwt>
<pdfrwt beam="1">  1       21 0.19874504E-02 0.12500000E+03</pdfrwt>
<pdfrwt beam="2">  1       21 0.46519713E-01 0.12500000E+03</pdfrwt>
<totfact> 0.54208183E+06</totfact>
</mgrwt>
</event>
<event>
 3    1  0.1573868E-001  0.1250000E+03  0.7546771E-02  0.1235069E+00
         21   -1    0    0  502  501  0.00000000000E+00  0.00000000000E+00  0.45085208895E+01  0.45085208895E+01  0.00000000000E+00 0. -1.
         21   -1    0    0  501  502 -0.00000000000E+00 -0.00000000000E+00 -0.86641497194E+03  0.86641497194E+03  0.00000000000E+00 0. -1.
         25    1    1    2    0    0  0.00000000000E+00  0.00000000000E+00 -0.86190645105E+03  0.87092349283E+03  0.12500000000E+03 0.  0.
<mgrwt>
<rscale>  0 0.12500000E+03</rscale>
<asrwt>0</asrwt>
<pdfrwt beam="1">  1       21 0.69361889E-03 0.12500000E+03</pdfrwt>
<pdfrwt beam="2">  1       21 0.13329455E+00 0.12500000E+03</pdfrwt>
<totfact> 0.27143024E+06</totfact>
</mgrwt>
</event>
<event>
 3    1  0.1573868E-001  0.1250000E+03  0.7546771E-02  0.1235069E+00
         21   -1    0    0  502  501  0.00000000000E+00  0.00000000000E+00  0.47908023451E+02  0.47908023451E+02  0.00000000000E+00 0. -1.
         21   -1    0    0  501  502 -0.00000000000E+00 -0.00000000000E+00 -0.81536446687E+02  0.81536446687E+02  0.00000000000E+00 0. -1.
         25    1    1    2    0    0  0.00000000000E+00  0.00000000000E+00 -0.33628423236E+02  0.12944447014E+03  0.12500000000E+03 0.  0.
<mgrwt>
<rscale>  0 0.12500000E+03</rscale>
<asrwt>0</asrwt>
<pdfrwt beam="1">  1       21 0.73704653E-02 0.12500000E+03</pdfrwt>
<pdfrwt beam="2">  1       21 0.12544069E-01 0.12500000E+03</pdfrwt>
<totfact> 0.73439256E+06</totfact>
</mgrwt>
</event>
<event>
 3    1  0.1573868E-001  0.1250000E+03  0.7546771E-02  0.1235069E+00
         21   -1    0    0  502  501  0.00000000000E+00  0.00000000000E+00  0.13111528962E+02  0.13111528962E+02  0.00000000000E+00 0. -1.
         21   -1    0    0  501  502 -0.00000000000E+00 -0.00000000000E+00 -0.29792482717E+03  0.29792482717E+03  0.00000000000E+00 0. -1.
         25    1    1    2    0    0  0.00000000000E+00  0.00000000000E+00 -0.28481329821E+03  0.31103635613E+03  0.12500000000E+03 0.  0.
<mgrwt>
<rscale>  0 0.12500000E+03</rscale>
<asrwt>0</asrwt>
<pdfrwt beam="1">  1       21 0.20171585E-02 0.12500000E+03</pdfrwt>
<pdfrwt beam="2">  1       21 0.45834584E-01 0.12500000E+03</pdfrwt>
<totfact> 0.54551302E+06</totfact>
</mgrwt>
</event>
<event>
 3    1  0.1573868E-001  0.1250000E+03  0.7546771E-02  0.1235069E+00
         21   -1    0    0  502  501  0.00000000000E+00  0.00000000000E+00  0.48981027998E+03  0.48981027998E+03  0.00000000000E+00 0. -1.
         21   -1    0    0  501  502 -0.00000000000E+00 -0.00000000000E+00 -0.79750265760E+01  0.79750265760E+01  0.00000000000E+00 0. -1.
         25    1    1    2    0    0  0.00000000000E+00  0.00000000000E+00  0.48183525340E+03  0.49778530655E+03  0.12500000000E+03 0.  0.
<mgrwt>
<rscale>  0 0.12500000E+03</rscale>
<asrwt>0</asrwt>
<pdfrwt beam="1">  1       21 0.75355405E-01 0.12500000E+03</pdfrwt>
<pdfrwt beam="2">  1       21 0.12269275E-02 0.12500000E+03</pdfrwt>
<totfact> 0.42164441E+06</totfact>
</mgrwt>
</event>
<event>
 3    1  0.1573868E-001  0.1250000E+03  0.7546771E-02  0.1235069E+00
         21   -1    0    0  502  501  0.00000000000E+00  0.00000000000E+00  0.48149826549E+02  0.48149826549E+02  0.00000000000E+00 0. -1.
         21   -1    0    0  501  502 -0.00000000000E+00 -0.00000000000E+00 -0.81126979679E+02  0.81126979679E+02  0.00000000000E+00 0. -1.
         25    1    1    2    0    0  0.00000000000E+00  0.00000000000E+00 -0.32977153131E+02  0.12927680623E+03  0.12500000000E+03 0.  0.
<mgrwt>
<rscale>  0 0.12500000E+03</rscale>
<asrwt>0</asrwt>
<pdfrwt beam="1">  1       21 0.74076657E-02 0.12500000E+03</pdfrwt>
<pdfrwt beam="2">  1       21 0.12481074E-01 0.12500000E+03</pdfrwt>
<totfact> 0.73461732E+06</totfact>
</mgrwt>
</event>
<event>
 3    1  0.1573868E-001  0.1250000E+03  0.7546771E-02  0.1235069E+00
         21   -1    0    0  502  501  0.00000000000E+00  0.00000000000E+00  0.26758730539E+02  0.26758730539E+02  0.00000000000E+00 0. -1.
         21   -1    0    0  501  502 -0.00000000000E+00 -0.00000000000E+00 -0.14598039299E+03  0.14598039299E+03  0.00000000000E+00 0. -1.
         25    1    1    2    0    0  0.00000000000E+00  0.00000000000E+00 -0.11922166245E+03  0.17273912353E+03  0.12500000000E+03 0.  0.
<mgrwt>
<rscale>  0 0.12500000E+03</rscale>
<asrwt>0</asrwt>
<pdfrwt beam="1">  1       21 0.41167277E-02 0.12500000E+03</pdfrwt>
<pdfrwt beam="2">  1       21 0.22458522E-01 0.12500000E+03</pdfrwt>
<totfact> 0.67994402E+06</totfact>
</mgrwt>
</event>
<event>
 3    1  0.1573868E-001  0.1250000E+03  0.7546771E-02  0.1235069E+00
         21   -1    0    0  502  501  0.00000000000E+00  0.00000000000E+00  0.35368289228E+03  0.35368289228E+03  0.00000000000E+00 0.  1.
         21   -1    0    0  501  502 -0.00000000000E+00 -0.00000000000E+00 -0.11044498010E+02  0.11044498010E+02  0.00000000000E+00 0.  1.
         25    1    1    2    0    0  0.00000000000E+00  0.00000000000E+00  0.34263839427E+03  0.36472739029E+03  0.12500000000E+03 0.  0.
<mgrwt>
<rscale>  0 0.12500000E+03</rscale>
<asrwt>0</asrwt>
<pdfrwt beam="1">  1       21 0.54412744E-01 0.12500000E+03</pdfrwt>
<pdfrwt beam="2">  1       21 0.16991538E-02 0.12500000E+03</pdfrwt>
<totfact> 0.50468830E+06</totfact>
</mgrwt>
</event>
<event>
 3    1  0.1573868E-001  0.1250000E+03  0.7546771E-02  0.1235069E+00
         21   -1    0    0  502  501  0.00000000000E+00  0.00000000000E+00  0.26955324972E+03  0.26955324972E+03  0.00000000000E+00 0. -1.
         21   -1    0    0  501  502 -0.00000000000E+00 -0.00000000000E+00 -0.14491570790E+02  0.14491570790E+02  0.00000000000E+00 0. -1.
         25    1    1    2    0    0  0.00000000000E+00  0.00000000000E+00  0.25506167893E+03  0.28404482051E+03  0.12500000000E+03 0.  0.
<mgrwt>
<rscale>  0 0.12500000E+03</rscale>
<asrwt>0</asrwt>
<pdfrwt beam="1">  1       21 0.41469727E-01 0.12500000E+03</pdfrwt>
<pdfrwt beam="2">  1       21 0.22294726E-02 0.12500000E+03</pdfrwt>
<totfact> 0.56808738E+06</totfact>
</mgrwt>
</event>
<event>
 3    1  0.1573868E-001  0.1250000E+03  0.7546771E-02  0.1235069E+00
         21   -1    0    0  502  501  0.00000000000E+00  0.00000000000E+00  0.14016404810E+02  0.14016404810E+02  0.00000000000E+00 0.  1.
         21   -1    0    0  501  502 -0.00000000000E+00 -0.00000000000E+00 -0.27869129445E+03  0.27869129445E+03  0.00000000000E+00 0.  1.
         25    1    1    2    0    0  0.00000000000E+00  0.00000000000E+00 -0.26467488964E+03  0.29270769926E+03  0.12500000000E+03 0.  0.
<mgrwt>
<rscale>  0 0.12500000E+03</rscale>
<asrwt>0</asrwt>
<pdfrwt beam="1">  1       21 0.21563700E-02 0.12500000E+03</pdfrwt>
<pdfrwt beam="2">  1       21 0.42875583E-01 0.12500000E+03</pdfrwt>
<totfact> 0.56067690E+06</totfact>
</mgrwt>
</event>
<event>
 3    1  0.1573868E-001  0.1250000E+03  0.7546771E-02  0.1235069E+00
         21   -1    0    0  502  501  0.00000000000E+00  0.00000000000E+00  0.45846856347E+02  0.45846856347E+02  0.00000000000E+00 0. -1.
         21   -1    0    0  501  502 -0.00000000000E+00 -0.00000000000E+00 -0.85202134044E+02  0.85202134044E+02  0.00000000000E+00 0. -1.
         25    1    1    2    0    0  0.00000000000E+00  0.00000000000E+00 -0.39355277697E+02  0.13104899039E+03  0.12500000000E+03 0.  0.
<mgrwt>
<rscale>  0 0.12500000E+03</rscale>
<asrwt>0</asrwt>
<pdfrwt beam="1">  1       21 0.70533627E-02 0.12500000E+03</pdfrwt>
<pdfrwt beam="2">  1       21 0.13108020E-01 0.12500000E+03</pdfrwt>
<totfact> 0.73224070E+06</totfact>
</mgrwt>
</event>
<event>
 3    1  0.1573868E-001  0.1250000E+03  0.7546771E-02  0.1235069E+00
         21   -1    0    0  502  501  0.00000000000E+00  0.00000000000E+00  0.16562550530E+03  0.16562550530E+03  0.00000000000E+00 0. -1.
         21   -1    0    0  501  502 -0.00000000000E+00 -0.00000000000E+00 -0.23584833706E+02  0.23584833706E+02  0.00000000000E+00 0. -1.
         25    1    1    2    0    0  0.00000000000E+00  0.00000000000E+00  0.14204067160E+03  0.18921033901E+03  0.12500000000E+03 0.  0.
<mgrwt>
<rscale>  0 0.12500000E+03</rscale>
<asrwt>0</asrwt>
<pdfrwt beam="1">  1       21 0.25480846E-01 0.12500000E+03</pdfrwt>
<pdfrwt beam="2">  1       21 0.36284361E-02 0.12500000E+03</pdfrwt>
<totfact> 0.66110335E+06</totfact>
</mgrwt>
</event>
<event>
 3    1  0.1573868E-001  0.1250000E+03  0.7546771E-02  0.1235069E+00
         21   -1    0    0  502  501  0.00000000000E+00  0.00000000000E+00  0.36207425981E+02  0.36207425981E+02  0.00000000000E+00 0. -1.
         21   -1    0    0  501  502 -0.00000000000E+00 -0.00000000000E+00 -0.10788532723E+03  0.10788532723E+03  0.00000000000E+00 0. -1.
         25    1    1    2    0    0  0.00000000000E+00  0.00000000000E+00 -0.71677901245E+02  0.14409275321E+03  0.12500000000E+03 0.  0.
<mgrwt>
<rscale>  0 0.12500000E+03</rscale>
<asrwt>0</asrwt>
<pdfrwt beam="1">  1       21 0.55703733E-02 0.12500000E+03</pdfrwt>
<pdfrwt beam="2">  1       21 0.16597743E-01 0.12500000E+03</pdfrwt>
<totfact> 0.71509407E+06</totfact>
</mgrwt>
</event>
<event>
 3    1  0.1573868E-001  0.1250000E+03  0.7546771E-02  0.1235069E+00
         21   -1    0    0  502  501  0.00000000000E+00  0.00000000000E+00  0.62380593824E+02  0.62380593824E+02  0.00000000000E+00 0.  1.
         21   -1    0    0  501  502 -0.00000000000E+00 -0.00000000000E+00 -0.62619634738E+02  0.62619634738E+02  0.00000000000E+00 0.  1.
         25    1    1    2    0    0  0.00000000000E+00  0.00000000000E+00 -0.23904091370E+00  0.12500022856E+03  0.12500000000E+03 0.  0.
<mgrwt>
<rscale>  0 0.12500000E+03</rscale>
<asrwt>0</asrwt>
<pdfrwt beam="1">  1       21 0.95970145E-02 0.12500000E+03</pdfrwt>
<pdfrwt beam="2">  1       21 0.96337899E-02 0.12500000E+03</pdfrwt>
<totfact> 0.74043551E+06</totfact>
</mgrwt>
</event>
<event>
 3    1  0.1573868E-001  0.1250000E+03  0.7546771E-02  0.1235069E+00
         21   -1    0    0  502  501  0.00000000000E+00  0.00000000000E+00  0.79458839635E+02  0.79458839635E+02  0.00000000000E+00 0.  1.
         21   -1    0    0  501  502 -0.00000000000E+00 -0.00000000000E+00 -0.49160672594E+02  0.49160672594E+02  0.00000000000E+00 0.  1.
         25    1    1    2    0    0  0.00000000000E+00  0.00000000000E+00  0.30298167041E+02  0.12861951223E+03  0.12500000000E+03 0.  0.
<mgrwt>
<rscale>  0 0.12500000E+03</rscale>
<asrwt>0</asrwt>
<pdfrwt beam="1">  1       21 0.12224437E-01 0.12500000E+03</pdfrwt>
<pdfrwt beam="2">  1       21 0.75631804E-02 0.12500000E+03</pdfrwt>
<totfact> 0.73550033E+06</totfact>
</mgrwt>
</event>
<event>
 3    1  0.1573868E-001  0.1250000E+03  0.7546771E-02  0.1235069E+00
         21   -1    0    0  502  501  0.00000000000E+00  0.00000000000E+00  0.12728420241E+02  0.12728420241E+02  0.00000000000E+00 0.  1.
         21   -1    0    0  501  502 -0.00000000000E+00 -0.00000000000E+00 -0.30689197294E+03  0.30689197294E+03  0.00000000000E+00 0.  1.
         25    1    1    2    0    0  0.00000000000E+00  0.00000000000E+00 -0.29416355269E+03  0.31962039318E+03  0.12500000000E+03 0.  0.
<mgrwt>
<rscale>  0 0.12500000E+03</rscale>
<asrwt>0</asrwt>
<pdfrwt beam="1">  1       21 0.19582186E-02 0.12500000E+03</pdfrwt>
<pdfrwt beam="2">  1       21 0.47214147E-01 0.12500000E+03</pdfrwt>
<totfact> 0.53863439E+06</totfact>
</mgrwt>
</event>
<event>
 3    1  0.1573868E-001  0.1250000E+03  0.7546771E-02  0.1235069E+00
         21   -1    0    0  502  501  0.00000000000E+00  0.00000000000E+00  0.68271808932E+03  0.68271808932E+03  0.00000000000E+00 0.  1.
         21   -1    0    0  501  502 -0.00000000000E+00 -0.00000000000E+00 -0.57216149112E+01  0.57216149112E+01  0.00000000000E+00 0.  1.
         25    1    1    2    0    0  0.00000000000E+00  0.00000000000E+00  0.67699647441E+03  0.68843970423E+03  0.12500000000E+03 0.  0.
<mgrwt>
<rscale>  0 0.12500000E+03</rscale>
<asrwt>0</asrwt>
<pdfrwt beam="1">  1       21 0.10503349E+00 0.12500000E+03</pdfrwt>
<pdfrwt beam="2">  1       21 0.88024899E-03 0.12500000E+03</pdfrwt>
<totfact> 0.33360630E+06</totfact>
</mgrwt>
</event>
<event>
 3    1  0.1573868E-001  0.1250000E+03  0.7546771E-02  0.1235069E+00
         21   -1    0    0  502  501  0.00000000000E+00  0.00000000000E+00  0.26657310322E+02  0.26657310322E+02  0.00000000000E+00 0. -1.
         21   -1    0    0  501  502 -0.00000000000E+00 -0.00000000000E+00 -0.14653578898E+03  0.14653578898E+03  0.00000000000E+00 0. -1.
         25    1    1    2    0    0  0.00000000000E+00  0.00000000000E+00 -0.11987847865E+03  0.17319309930E+03  0.12500000000E+03 0.  0.
<mgrwt>
<rscale>  0 0.12500000E+03</rscale>
<asrwt>0</asrwt>
<pdfrwt beam="1">  1       21 0.41011246E-02 0.12500000E+03</pdfrwt>
<pdfrwt beam="2">  1       21 0.22543968E-01 0.12500000E+03</pdfrwt>
<totfact> 0.67941113E+06</totfact>
</mgrwt>
</event>
<event>
 3    1  0.1573868E-001  0.1250000E+03  0.7546771E-02  0.1235069E+00
         21   -1    0    0  502  501  0.00000000000E+00  0.00000000000E+00  0.61379318364E+03  0.61379318364E+03  0.00000000000E+00 0. -1.
         21   -1    0    0  501  502 -0.00000000000E+00 -0.00000000000E+00 -0.63641143371E+01  0.63641143371E+01  0.00000000000E+00 0. -1.
         25    1    1    2    0    0  0.00000000000E+00  0.00000000000E+00  0.60742906930E+03  0.62015729798E+03  0.12500000000E+03 0.  0.
<mgrwt>
<rscale>  0 0.12500000E+03</rscale>
<asrwt>0</asrwt>
<pdfrwt beam="1">  1       21 0.94429674E-01 0.12500000E+03</pdfrwt>
<pdfrwt beam="2">  1       21 0.97909499E-03 0.12500000E+03</pdfrwt>
<totfact> 0.36196636E+06</totfact>
</mgrwt>
</event>
<event>
 3    1  0.1573868E-001  0.1250000E+03  0.7546771E-02  0.1235069E+00
         21   -1    0    0  502  501  0.00000000000E+00  0.00000000000E+00  0.10031603224E+03  0.10031603224E+03  0.00000000000E+00 0.  1.
         21   -1    0    0  501  502 -0.00000000000E+00 -0.00000000000E+00 -0.38939438818E+02  0.38939438818E+02  0.00000000000E+00 0.  1.
         25    1    1    2    0    0  0.00000000000E+00  0.00000000000E+00  0.61376593425E+02  0.13925547106E+03  0.12500000000E+03 0.  0.
<mgrwt>
<rscale>  0 0.12500000E+03</rscale>
<asrwt>0</asrwt>
<pdfrwt beam="1">  1       21 0.15433236E-01 0.12500000E+03</pdfrwt>
<pdfrwt beam="2">  1       21 0.59906829E-02 0.12500000E+03</pdfrwt>
<totfact> 0.72136654E+06</totfact>
</mgrwt>
</event>
<event>
 3    1  0.1573868E-001  0.1250000E+03  0.7546771E-02  0.1235069E+00
         21   -1    0    0  502  501  0.00000000000E+00  0.00000000000E+00  0.20914785630E+01  0.20914785630E+01  0.00000000000E+00 0.  1.
         21   -1    0    0  501  502 -0.00000000000E+00 -0.00000000000E+00 -0.18676978426E+04  0.18676978426E+04  0.00000000000E+00 0.  1.
         25    1    1    2    0    0  0.00000000000E+00  0.00000000000E+00 -0.18656063640E+04  0.18697893211E+04  0.12500000000E+03 0.  0.
<mgrwt>
<rscale>  0 0.12500000E+03</rscale>
<asrwt>0</asrwt>
<pdfrwt beam="1">  1       21 0.32176605E-03 0.12500000E+03</pdfrwt>
<pdfrwt beam="2">  1       21 0.28733803E+00 0.12500000E+03</pdfrwt>
<totfact> 0.92893917E+05</totfact>
</mgrwt>
</event>
<event>
 3    1  0.1573868E-001  0.1250000E+03  0.7546771E-02  0.1235069E+00
         21   -1    0    0  502  501  0.00000000000E+00  0.00000000000E+00  0.45810784662E+01  0.45810784662E+01  0.00000000000E+00 0. -1.
         21   -1    0    0  501  502 -0.00000000000E+00 -0.00000000000E+00 -0.85269222714E+03  0.85269222714E+03  0.00000000000E+00 0. -1.
         25    1    1    2    0    0  0.00000000000E+00  0.00000000000E+00 -0.84811114867E+03  0.85727330560E+03  0.12500000000E+03 0.  0.
<mgrwt>
<rscale>  0 0.12500000E+03</rscale>
<asrwt>0</asrwt>
<pdfrwt beam="1">  1       21 0.70478208E-03 0.12500000E+03</pdfrwt>
<pdfrwt beam="2">  1       21 0.13118327E+00 0.12500000E+03</pdfrwt>
<totfact> 0.27550838E+06</totfact>
</mgrwt>
</event>
<event>
 3    1  0.1573868E-001  0.1250000E+03  0.7546771E-02  0.1235069E+00
         21   -1    0    0  502  501  0.00000000000E+00  0.00000000000E+00  0.58441561231E+02  0.58441561231E+02  0.00000000000E+00 0. -1.
         21   -1    0    0  501  502 -0.00000000000E+00 -0.00000000000E+00 -0.66840274587E+02  0.66840274587E+02  0.00000000000E+00 0. -1.
         25    1    1    2    0    0  0.00000000000E+00  0.00000000000E+00 -0.83987133563E+01  0.12528183582E+03  0.12500000000E+03 0.  0.
<mgrwt>
<rscale>  0 0.12500000E+03</rscale>
<asrwt>0</asrwt>
<pdfrwt beam="1">  1       21 0.89910095E-02 0.12500000E+03</pdfrwt>
<pdfrwt beam="2">  1       21 0.10283119E-01 0.12500000E+03</pdfrwt>
<totfact> 0.74005524E+06</totfact>
</mgrwt>
</event>
<event>
 3    1  0.1573868E-001  0.1250000E+03  0.7546771E-02  0.1235069E+00
         21   -1    0    0  502  501  0.00000000000E+00  0.00000000000E+00  0.17467131524E+03  0.17467131524E+03  0.00000000000E+00 0.  1.
         21   -1    0    0  501  502 -0.00000000000E+00 -0.00000000000E+00 -0.22363431538E+02  0.22363431538E+02  0.00000000000E+00 0.  1.
         25    1    1    2    0    0  0.00000000000E+00  0.00000000000E+00  0.15230788370E+03  0.19703474677E+03  0.12500000000E+03 0.  0.
<mgrwt>
<rscale>  0 0.12500000E+03</rscale>
<asrwt>0</asrwt>
<pdfrwt beam="1">  1       21 0.26872509E-01 0.12500000E+03</pdfrwt>
<pdfrwt beam="2">  1       21 0.34405280E-02 0.12500000E+03</pdfrwt>
<totfact> 0.65249012E+06</totfact>
</mgrwt>
</event>
<event>
 3    1  0.1573868E-001  0.1250000E+03  0.7546771E-02  0.1235069E+00
         21   -1    0    0  502  501  0.00000000000E+00  0.00000000000E+00  0.32943152223E+03  0.32943152223E+03  0.00000000000E+00 0. -1.
         21   -1    0    0  501  502 -0.00000000000E+00 -0.00000000000E+00 -0.11857547734E+02  0.11857547734E+02  0.00000000000E+00 0. -1.
         25    1    1    2    0    0  0.00000000000E+00  0.00000000000E+00  0.31757397449E+03  0.34128906996E+03  0.12500000000E+03 0.  0.
<mgrwt>
<rscale>  0 0.12500000E+03</rscale>
<asrwt>0</asrwt>
<pdfrwt beam="1">  1       21 0.50681766E-01 0.12500000E+03</pdfrwt>
<pdfrwt beam="2">  1       21 0.18242384E-02 0.12500000E+03</pdfrwt>
<totfact> 0.52188267E+06</totfact>
</mgrwt>
</event>
<event>
 3    1  0.1573868E-001  0.1250000E+03  0.7546771E-02  0.1235069E+00
         21   -1    0    0  502  501  0.00000000000E+00  0.00000000000E+00  0.38412658975E+02  0.38412658975E+02  0.00000000000E+00 0.  1.
         21   -1    0    0  501  502 -0.00000000000E+00 -0.00000000000E+00 -0.10169173664E+03  0.10169173664E+03  0.00000000000E+00 0.  1.
         25    1    1    2    0    0  0.00000000000E+00  0.00000000000E+00 -0.63279077662E+02  0.14010439561E+03  0.12500000000E+03 0.  0.
<mgrwt>
<rscale>  0 0.12500000E+03</rscale>
<asrwt>0</asrwt>
<pdfrwt beam="1">  1       21 0.59096399E-02 0.12500000E+03</pdfrwt>
<pdfrwt beam="2">  1       21 0.15644883E-01 0.12500000E+03</pdfrwt>
<totfact> 0.72025682E+06</totfact>
</mgrwt>
</event>
<event>
 3    1  0.1573868E-001  0.1250000E+03  0.7546771E-02  0.1235069E+00
         21   -1    0    0  502  501  0.00000000000E+00  0.00000000000E+00  0.31940203984E+01  0.31940203984E+01  0.00000000000E+00 0. -1.
         21   -1    0    0  501  502 -0.00000000000E+00 -0.00000000000E+00 -0.12229884324E+04  0.12229884324E+04  0.00000000000E+00 0. -1.
         25    1    1    2    0    0  0.00000000000E+00  0.00000000000E+00 -0.12197944120E+04  0.12261824528E+04  0.12500000000E+03 0.  0.
<mgrwt>
<rscale>  0 0.12500000E+03</rscale>
<asrwt>0</asrwt>
<pdfrwt beam="1">  1       21 0.49138774E-03 0.12500000E+03</pdfrwt>
<pdfrwt beam="2">  1       21 0.18815207E+00 0.12500000E+03</pdfrwt>
<totfact> 0.18629302E+06</totfact>
</mgrwt>
</event>
<event>
 3    1  0.1573868E-001  0.1250000E+03  0.7546771E-02  0.1235069E+00
         21   -1    0    0  502  501  0.00000000000E+00  0.00000000000E+00  0.90814199111E+01  0.90814199111E+01  0.00000000000E+00 0. -1.
         21   -1    0    0  501  502 -0.00000000000E+00 -0.00000000000E+00 -0.43013648067E+03  0.43013648067E+03  0.00000000000E+00 0. -1.
         25    1    1    2    0    0  0.00000000000E+00  0.00000000000E+00 -0.42105506075E+03  0.43921790058E+03  0.12500000000E+03 0.  0.
<mgrwt>
<rscale>  0 0.12500000E+03</rscale>
<asrwt>0</asrwt>
<pdfrwt beam="1">  1       21 0.13971414E-02 0.12500000E+03</pdfrwt>
<pdfrwt beam="2">  1       21 0.66174849E-01 0.12500000E+03</pdfrwt>
<totfact> 0.45544385E+06</totfact>
</mgrwt>
</event>
<event>
 3    1  0.1573868E-001  0.1250000E+03  0.7546771E-02  0.1235069E+00
         21   -1    0    0  502  501  0.00000000000E+00  0.00000000000E+00  0.57746062109E+03  0.57746062109E+03  0.00000000000E+00 0.  1.
         21   -1    0    0  501  502 -0.00000000000E+00 -0.00000000000E+00 -0.67645305279E+01  0.67645305279E+01  0.00000000000E+00 0.  1.
         25    1    1    2    0    0  0.00000000000E+00  0.00000000000E+00  0.57069609056E+03  0.58422515162E+03  0.12500000000E+03 0.  0.
<mgrwt>
<rscale>  0 0.12500000E+03</rscale>
<asrwt>0</asrwt>
<pdfrwt beam="1">  1       21 0.88840056E-01 0.12500000E+03</pdfrwt>
<pdfrwt beam="2">  1       21 0.10406975E-02 0.12500000E+03</pdfrwt>
<totfact> 0.37815897E+06</totfact>
</mgrwt>
</event>
<event>
 3    1  0.1573868E-001  0.1250000E+03  0.7546771E-02  0.1235069E+00
         21   -1    0    0  502  501  0.00000000000E+00  0.00000000000E+00  0.30794281633E+03  0.30794281633E+03  0.00000000000E+00 0.  1.
         21   -1    0    0  501  502 -0.00000000000E+00 -0.00000000000E+00 -0.12684984981E+02  0.12684984981E+02  0.00000000000E+00 0.  1.
         25    1    1    2    0    0  0.00000000000E+00  0.00000000000E+00  0.29525783135E+03  0.32062780131E+03  0.12500000000E+03 0.  0.
<mgrwt>
<rscale>  0 0.12500000E+03</rscale>
<asrwt>0</asrwt>
<pdfrwt beam="1">  1       21 0.47375812E-01 0.12500000E+03</pdfrwt>
<pdfrwt beam="2">  1       21 0.19515364E-02 0.12500000E+03</pdfrwt>
<totfact> 0.53783633E+06</totfact>
</mgrwt>
</event>
<event>
 3    1  0.1573868E-001  0.1250000E+03  0.7546771E-02  0.1235069E+00
         21   -1    0    0  502  501  0.00000000000E+00  0.00000000000E+00  0.20573119412E+02  0.20573119412E+02  0.00000000000E+00 0.  1.
         21   -1    0    0  501  502 -0.00000000000E+00 -0.00000000000E+00 -0.18987154654E+03  0.18987154654E+03  0.00000000000E+00 0.  1.
         25    1    1    2    0    0  0.00000000000E+00  0.00000000000E+00 -0.16929842713E+03  0.21044466596E+03  0.12500000000E+03 0.  0.
<mgrwt>
<rscale>  0 0.12500000E+03</rscale>
<asrwt>0</asrwt>
<pdfrwt beam="1">  1       21 0.31650954E-02 0.12500000E+03</pdfrwt>
<pdfrwt beam="2">  1       21 0.29211006E-01 0.12500000E+03</pdfrwt>
<totfact> 0.63812783E+06</totfact>
</mgrwt>
</event>
<event>
 3    1  0.1573868E-001  0.1250000E+03  0.7546771E-02  0.1235069E+00
         21   -1    0    0  502  501  0.00000000000E+00  0.00000000000E+00  0.13907257886E+02  0.13907257886E+02  0.00000000000E+00 0.  1.
         21   -1    0    0  501  502 -0.00000000000E+00 -0.00000000000E+00 -0.28087851913E+03  0.28087851913E+03  0.00000000000E+00 0.  1.
         25    1    1    2    0    0  0.00000000000E+00  0.00000000000E+00 -0.26697126124E+03  0.29478577701E+03  0.12500000000E+03 0.  0.
<mgrwt>
<rscale>  0 0.12500000E+03</rscale>
<asrwt>0</asrwt>
<pdfrwt beam="1">  1       21 0.21395779E-02 0.12500000E+03</pdfrwt>
<pdfrwt beam="2">  1       21 0.43212085E-01 0.12500000E+03</pdfrwt>
<totfact> 0.55892296E+06</totfact>
</mgrwt>
</event>
<event>
 3    1  0.1573868E-001  0.1250000E+03  0.7546771E-02  0.1235069E+00
         21   -1    0    0  502  501  0.00000000000E+00  0.00000000000E+00  0.35293152135E+02  0.35293152135E+02  0.00000000000E+00 0.  1.
         21   -1    0    0  501  502 -0.00000000000E+00 -0.00000000000E+00 -0.11068011112E+03  0.11068011112E+03  0.00000000000E+00 0.  1.
         25    1    1    2    0    0  0.00000000000E+00  0.00000000000E+00 -0.75386958983E+02  0.14597326325E+03  0.12500000000E+03 0.  0.
<mgrwt>
<rscale>  0 0.12500000E+03</rscale>
<asrwt>0</asrwt>
<pdfrwt beam="1">  1       21 0.54297157E-02 0.12500000E+03</pdfrwt>
<pdfrwt beam="2">  1       21 0.17027709E-01 0.12500000E+03</pdfrwt>
<totfact> 0.71268777E+06</totfact>
</mgrwt>
</event>
<event>
 3    1  0.1573868E-001  0.1250000E+03  0.7546771E-02  0.1235069E+00
         21   -1    0    0  502  501  0.00000000000E+00  0.00000000000E+00  0.15082530236E+02  0.15082530236E+02  0.00000000000E+00 0. -1.
         21   -1    0    0  501  502 -0.00000000000E+00 -0.00000000000E+00 -0.25899169031E+03  0.25899169031E+03  0.00000000000E+00 0. -1.
         25    1    1    2    0    0  0.00000000000E+00  0.00000000000E+00 -0.24390916007E+03  0.27407422054E+03  0.12500000000E+03 0.  0.
<mgrwt>
<rscale>  0 0.12500000E+03</rscale>
<asrwt>0</asrwt>
<pdfrwt beam="1">  1       21 0.23203893E-02 0.12500000E+03</pdfrwt>
<pdfrwt beam="2">  1       21 0.39844875E-01 0.12500000E+03</pdfrwt>
<totfact> 0.57681955E+06</totfact>
</mgrwt>
</event>
<event>
 3    1  0.1573868E-001  0.1250000E+03  0.7546771E-02  0.1235069E+00
         21   -1    0    0  502  501  0.00000000000E+00  0.00000000000E+00  0.11682572136E+03  0.11682572136E+03  0.00000000000E+00 0. -1.
         21   -1    0    0  501  502 -0.00000000000E+00 -0.00000000000E+00 -0.33436557932E+02  0.33436557932E+02  0.00000000000E+00 0. -1.
         25    1    1    2    0    0  0.00000000000E+00  0.00000000000E+00  0.83389163424E+02  0.15026227929E+03  0.12500000000E+03 0.  0.
<mgrwt>
<rscale>  0 0.12500000E+03</rscale>
<asrwt>0</asrwt>
<pdfrwt beam="1">  1       21 0.17973188E-01 0.12500000E+03</pdfrwt>
<pdfrwt beam="2">  1       21 0.51440859E-02 0.12500000E+03</pdfrwt>
<totfact> 0.70726270E+06</totfact>
</mgrwt>
</event>
<event>
 3    1  0.1573868E-001  0.1250000E+03  0.7546771E-02  0.1235069E+00
         21   -1    0    0  502  501  0.00000000000E+00  0.00000000000E+00  0.13065692976E+02  0.13065692976E+02  0.00000000000E+00 0.  1.
         21   -1    0    0  501  502 -0.00000000000E+00 -0.00000000000E+00 -0.29896998248E+03  0.29896998248E+03  0.00000000000E+00 0.  1.
         25    1    1    2    0    0  0.00000000000E+00  0.00000000000E+00 -0.28590428950E+03  0.31203567545E+03  0.12500000000E+03 0.  0.
<mgrwt>
<rscale>  0 0.12500000E+03</rscale>
<asrwt>0</asrwt>
<pdfrwt beam="1">  1       21 0.20101068E-02 0.12500000E+03</pdfrwt>
<pdfrwt beam="2">  1       21 0.45995379E-01 0.12500000E+03</pdfrwt>
<totfact> 0.54470562E+06</totfact>
</mgrwt>
</event>
<event>
 3    1  0.1573868E-001  0.1250000E+03  0.7546771E-02  0.1235069E+00
         21   -1    0    0  502  501  0.00000000000E+00  0.00000000000E+00  0.78019871664E+02  0.78019871664E+02  0.00000000000E+00 0. -1.
         21   -1    0    0  501  502 -0.00000000000E+00 -0.00000000000E+00 -0.50067372795E+02  0.50067372795E+02  0.00000000000E+00 0. -1.
         25    1    1    2    0    0  0.00000000000E+00  0.00000000000E+00  0.27952498869E+02  0.12808724446E+03  0.12500000000E+03 0.  0.
<mgrwt>
<rscale>  0 0.12500000E+03</rscale>
<asrwt>0</asrwt>
<pdfrwt beam="1">  1       21 0.12003057E-01 0.12500000E+03</pdfrwt>
<pdfrwt beam="2">  1       21 0.77026727E-02 0.12500000E+03</pdfrwt>
<totfact> 0.73621777E+06</totfact>
</mgrwt>
</event>
<event>
 3    1  0.1573868E-001  0.1250000E+03  0.7546771E-02  0.1235069E+00
         21   -1    0    0  502  501  0.00000000000E+00  0.00000000000E+00  0.14692450773E+04  0.14692450773E+04  0.00000000000E+00 0. -1.
         21   -1    0    0  501  502 -0.00000000000E+00 -0.00000000000E+00 -0.26586782970E+01  0.26586782970E+01  0.00000000000E+00 0. -1.
         25    1    1    2    0    0  0.00000000000E+00  0.00000000000E+00  0.14665863990E+04  0.14719037556E+04  0.12500000000E+03 0.  0.
<mgrwt>
<rscale>  0 0.12500000E+03</rscale>
<asrwt>0</asrwt>
<pdfrwt beam="1">  1       21 0.22603706E+00 0.12500000E+03</pdfrwt>
<pdfrwt beam="2">  1       21 0.40902860E-03 0.12500000E+03</pdfrwt>
<totfact> 0.14414759E+06</totfact>
</mgrwt>
</event>
<event>
 3    1  0.1573868E-001  0.1250000E+03  0.7546771E-02  0.1235069E+00
         21   -1    0    0  502  501  0.00000000000E+00  0.00000000000E+00  0.27558932945E+02  0.27558932945E+02  0.00000000000E+00 0. -1.
         21   -1    0    0  501  502 -0.00000000000E+00 -0.00000000000E+00 -0.14174169979E+03  0.14174169979E+03  0.00000000000E+00 0. -1.
         25    1    1    2    0    0  0.00000000000E+00  0.00000000000E+00 -0.11418276684E+03  0.16930063273E+03  0.12500000000E+03 0.  0.
<mgrwt>
<rscale>  0 0.12500000E+03</rscale>
<asrwt>0</asrwt>
<pdfrwt beam="1">  1       21 0.42398357E-02 0.12500000E+03</pdfrwt>
<pdfrwt beam="2">  1       21 0.21806416E-01 0.12500000E+03</pdfrwt>
<totfact> 0.68400537E+06</totfact>
</mgrwt>
</event>
<event>
 3    1  0.1573868E-001  0.1250000E+03  0.7546771E-02  0.1235069E+00
         21   -1    0    0  502  501  0.00000000000E+00  0.00000000000E+00  0.50183144031E+02  0.50183144031E+02  0.00000000000E+00 0. -1.
         21   -1    0    0  501  502 -0.00000000000E+00 -0.00000000000E+00 -0.77839881805E+02  0.77839881805E+02  0.00000000000E+00 0. -1.
         25    1    1    2    0    0  0.00000000000E+00  0.00000000000E+00 -0.27656737773E+02  0.12802302584E+03  0.12500000000E+03 0.  0.
<mgrwt>
<rscale>  0 0.12500000E+03</rscale>
<asrwt>0</asrwt>
<pdfrwt beam="1">  1       21 0.77204837E-02 0.12500000E+03</pdfrwt>
<pdfrwt beam="2">  1       21 0.11975366E-01 0.12500000E+03</pdfrwt>
<totfact> 0.73630449E+06</totfact>
</mgrwt>
</event>
<event>
 3    1  0.1573868E-001  0.1250000E+03  0.7546771E-02  0.1235069E+00
         21   -1    0    0  502  501  0.00000000000E+00  0.00000000000E+00  0.83441390011E+02  0.83441390011E+02  0.00000000000E+00 0. -1.
         21   -1    0    0  501  502 -0.00000000000E+00 -0.00000000000E+00 -0.46814296831E+02  0.46814296831E+02  0.00000000000E+00 0. -1.
         25    1    1    2    0    0  0.00000000000E+00  0.00000000000E+00  0.36627093180E+02  0.13025568684E+03  0.12500000000E+03 0.  0.
<mgrwt>
<rscale>  0 0.12500000E+03</rscale>
<asrwt>0</asrwt>
<pdfrwt beam="1">  1       21 0.12837137E-01 0.12500000E+03</pdfrwt>
<pdfrwt beam="2">  1       21 0.72021995E-02 0.12500000E+03</pdfrwt>
<totfact> 0.73330762E+06</totfact>
</mgrwt>
</event>
<event>
 3    1  0.1573868E-001  0.1250000E+03  0.7546771E-02  0.1235069E+00
         21   -1    0    0  502  501  0.00000000000E+00  0.00000000000E+00  0.55296236440E+03  0.55296236440E+03  0.00000000000E+00 0.  1.
         21   -1    0    0  501  502 -0.00000000000E+00 -0.00000000000E+00 -0.70642239896E+01  0.70642239896E+01  0.00000000000E+00 0.  1.
         25    1    1    2    0    0  0.00000000000E+00  0.00000000000E+00  0.54589814042E+03  0.56002658839E+03  0.12500000000E+03 0.  0.
<mgrwt>
<rscale>  0 0.12500000E+03</rscale>
<asrwt>0</asrwt>
<pdfrwt beam="1">  1       21 0.85071099E-01 0.12500000E+03</pdfrwt>
<pdfrwt beam="2">  1       21 0.10868041E-02 0.12500000E+03</pdfrwt>
<totfact> 0.38965128E+06</totfact>
</mgrwt>
</event>
<event>
 3    1  0.1573868E-001  0.1250000E+03  0.7546771E-02  0.1235069E+00
         21   -1    0    0  502  501  0.00000000000E+00  0.00000000000E+00  0.19559471622E+03  0.19559471622E+03  0.00000000000E+00 0.  1.
         21   -1    0    0  501  502 -0.00000000000E+00 -0.00000000000E+00 -0.19971142757E+02  0.19971142757E+02  0.00000000000E+00 0.  1.
         25    1    1    2    0    0  0.00000000000E+00  0.00000000000E+00  0.17562357346E+03  0.21556585897E+03  0.12500000000E+03 0.  0.
<mgrwt>
<rscale>  0 0.12500000E+03</rscale>
<asrwt>0</asrwt>
<pdfrwt beam="1">  1       21 0.30091493E-01 0.12500000E+03</pdfrwt>
<pdfrwt beam="2">  1       21 0.30724836E-02 0.12500000E+03</pdfrwt>
<totfact> 0.63278660E+06</totfact>
</mgrwt>
</event>
<event>
 3    1  0.1573868E-001  0.1250000E+03  0.7546771E-02  0.1235069E+00
         21   -1    0    0  502  501  0.00000000000E+00  0.00000000000E+00  0.49906961670E+03  0.49906961670E+03  0.00000000000E+00 0. -1.
         21   -1    0    0  501  502 -0.00000000000E+00 -0.00000000000E+00 -0.78270643399E+01  0.78270643399E+01  0.00000000000E+00 0. -1.
         25    1    1    2    0    0  0.00000000000E+00  0.00000000000E+00  0.49124255236E+03  0.50689668104E+03  0.12500000000E+03 0.  0.
<mgrwt>
<rscale>  0 0.12500000E+03</rscale>
<asrwt>0</asrwt>
<pdfrwt beam="1">  1       21 0.76779916E-01 0.12500000E+03</pdfrwt>
<pdfrwt beam="2">  1       21 0.12041641E-02 0.12500000E+03</pdfrwt>
<totfact> 0.41672509E+06</totfact>
</mgrwt>
</event>
<event>
 3    1  0.1573868E-001  0.1250000E+03  0.7546771E-02  0.1235069E+00
         21   -1    0    0  502  501  0.00000000000E+00  0.00000000000E+00  0.36082245234E+01  0.36082245234E+01  0.00000000000E+00 0. -1.
         21   -1    0    0  501  502 -0.00000000000E+00 -0.00000000000E+00 -0.10825961563E+04  0.10825961563E+04  0.00000000000E+00 0. -1.
         25    1    1    2    0    0  0.00000000000E+00  0.00000000000E+00 -0.10789879317E+04  0.10862043808E+04  0.12500000000E+03 0.  0.
<mgrwt>
<rscale>  0 0.12500000E+03</rscale>
<asrwt>0</asrwt>
<pdfrwt beam="1">  1       21 0.55511098E-03 0.12500000E+03</pdfrwt>
<pdfrwt beam="2">  1       21 0.16655340E+00 0.12500000E+03</pdfrwt>
<totfact> 0.21560832E+06</totfact>
</mgrwt>
</event>
<event>
 3    1  0.1573868E-001  0.1250000E+03  0.7546771E-02  0.1235069E+00
         21   -1    0    0  502  501  0.00000000000E+00  0.00000000000E+00  0.55485275264E+01  0.55485275264E+01  0.00000000000E+00 0.  1.
         21   -1    0    0  501  502 -0.00000000000E+00 -0.00000000000E+00 -0.70401561161E+03  0.70401561161E+03  0.00000000000E+00 0.  1.
         25    1    1    2    0    0  0.00000000000E+00  0.00000000000E+00 -0.69846708408E+03  0.70956413913E+03  0.12500000000E+03 0.  0.
<mgrwt>
<rscale>  0 0.12500000E+03</rscale>
<asrwt>0</asrwt>
<pdfrwt beam="1">  1       21 0.85362001E-03 0.12500000E+03</pdfrwt>
<pdfrwt beam="2">  1       21 0.10831004E+00 0.12500000E+03</pdfrwt>
<totfact> 0.32544670E+06</totfact>
</mgrwt>
</event>
<event>
 3    1  0.1573868E-001  0.1250000E+03  0.7546771E-02  0.1235069E+00
         21   -1    0    0  502  501  0.00000000000E+00  0.00000000000E+00  0.15652624122E+03  0.15652624122E+03  0.00000000000E+00 0. -1.
         21   -1    0    0  501  502 -0.00000000000E+00 -0.00000000000E+00 -0.24955879408E+02  0.24955879408E+02  0.00000000000E+00 0. -1.
         25    1    1    2    0    0  0.00000000000E+00  0.00000000000E+00  0.13157036181E+03  0.18148212062E+03  0.12500000000E+03 0.  0.
<mgrwt>
<rscale>  0 0.12500000E+03</rscale>
<asrwt>0</asrwt>
<pdfrwt beam="1">  1       21 0.24080960E-01 0.12500000E+03</pdfrwt>
<pdfrwt beam="2">  1       21 0.38393661E-02 0.12500000E+03</pdfrwt>
<totfact> 0.66981918E+06</totfact>
</mgrwt>
</event>
<event>
 3    1  0.1573868E-001  0.1250000E+03  0.7546771E-02  0.1235069E+00
         21   -1    0    0  502  501  0.00000000000E+00  0.00000000000E+00  0.17165888239E+03  0.17165888239E+03  0.00000000000E+00 0.  1.
         21   -1    0    0  501  502 -0.00000000000E+00 -0.00000000000E+00 -0.22755886241E+02  0.22755886241E+02  0.00000000000E+00 0.  1.
         25    1    1    2    0    0  0.00000000000E+00  0.00000000000E+00  0.14890299615E+03  0.19441476863E+03  0.12500000000E+03 0.  0.
<mgrwt>
<rscale>  0 0.12500000E+03</rscale>
<asrwt>0</asrwt>
<pdfrwt beam="1">  1       21 0.26409058E-01 0.12500000E+03</pdfrwt>
<pdfrwt beam="2">  1       21 0.35009057E-02 0.12500000E+03</pdfrwt>
<totfact> 0.65535131E+06</totfact>
</mgrwt>
</event>
<event>
 3    1  0.1573868E-001  0.1250000E+03  0.7546771E-02  0.1235069E+00
         21   -1    0    0  502  501  0.00000000000E+00  0.00000000000E+00  0.61799983499E+01  0.61799983499E+01  0.00000000000E+00 0.  1.
         21   -1    0    0  501  502 -0.00000000000E+00 -0.00000000000E+00 -0.63207945679E+03  0.63207945679E+03  0.00000000000E+00 0.  1.
         25    1    1    2    0    0  0.00000000000E+00  0.00000000000E+00 -0.62589945844E+03  0.63825945514E+03  0.12500000000E+03 0.  0.
<mgrwt>
<rscale>  0 0.12500000E+03</rscale>
<asrwt>0</asrwt>
<pdfrwt beam="1">  1       21 0.95076976E-03 0.12500000E+03</pdfrwt>
<pdfrwt beam="2">  1       21 0.97242913E-01 0.12500000E+03</pdfrwt>
<totfact> 0.35417599E+06</totfact>
</mgrwt>
</event>
<event>
 3    1  0.1573868E-001  0.1250000E+03  0.7546771E-02  0.1235069E+00
         21   -1    0    0  502  501  0.00000000000E+00  0.00000000000E+00  0.24684595851E+03  0.24684595851E+03  0.00000000000E+00 0. -1.
         21   -1    0    0  501  502 -0.00000000000E+00 -0.00000000000E+00 -0.15824646365E+02  0.15824646365E+02  0.00000000000E+00 0. -1.
         25    1    1    2    0    0  0.00000000000E+00  0.00000000000E+00  0.23102131215E+03  0.26267060488E+03  0.12500000000E+03 0.  0.
<mgrwt>
<rscale>  0 0.12500000E+03</rscale>
<asrwt>0</asrwt>
<pdfrwt beam="1">  1       21 0.37976299E-01 0.12500000E+03</pdfrwt>
<pdfrwt beam="2">  1       21 0.24345612E-02 0.12500000E+03</pdfrwt>
<totfact> 0.58705359E+06</totfact>
</mgrwt>
</event>
<event>
 3    1  0.1573868E-001  0.1250000E+03  0.7546771E-02  0.1235069E+00
         21   -1    0    0  502  501  0.00000000000E+00  0.00000000000E+00  0.77826026964E+01  0.77826026964E+01  0.00000000000E+00 0.  1.
         21   -1    0    0  501  502 -0.00000000000E+00 -0.00000000000E+00 -0.50192077797E+03  0.50192077797E+03  0.00000000000E+00 0.  1.
         25    1    1    2    0    0  0.00000000000E+00  0.00000000000E+00 -0.49413817527E+03  0.50970338067E+03  0.12500000000E+03 0.  0.
<mgrwt>
<rscale>  0 0.12500000E+03</rscale>
<asrwt>0</asrwt>
<pdfrwt beam="1">  1       21 0.11973231E-02 0.12500000E+03</pdfrwt>
<pdfrwt beam="2">  1       21 0.77218605E-01 0.12500000E+03</pdfrwt>
<totfact> 0.41522668E+06</totfact>
</mgrwt>
</event>
<event>
 3    1  0.1573868E-001  0.1250000E+03  0.7546771E-02  0.1235069E+00
         21   -1    0    0  502  501  0.00000000000E+00  0.00000000000E+00  0.68750882297E+02  0.68750882297E+02  0.00000000000E+00 0.  1.
         21   -1    0    0  501  502 -0.00000000000E+00 -0.00000000000E+00 -0.56817452657E+02  0.56817452657E+02  0.00000000000E+00 0.  1.
         25    1    1    2    0    0  0.00000000000E+00  0.00000000000E+00  0.11933429640E+02  0.12556833495E+03  0.12500000000E+03 0.  0.
<mgrwt>
<rscale>  0 0.12500000E+03</rscale>
<asrwt>0</asrwt>
<pdfrwt beam="1">  1       21 0.10577059E-01 0.12500000E+03</pdfrwt>
<pdfrwt beam="2">  1       21 0.87411465E-02 0.12500000E+03</pdfrwt>
<totfact> 0.73965855E+06</totfact>
</mgrwt>
</event>
<event>
 3    1  0.1573868E-001  0.1250000E+03  0.7546771E-02  0.1235069E+00
         21   -1    0    0  502  501  0.00000000000E+00  0.00000000000E+00  0.35326502350E+03  0.35326502350E+03  0.00000000000E+00 0.  1.
         21   -1    0    0  501  502 -0.00000000000E+00 -0.00000000000E+00 -0.11057562284E+02  0.11057562284E+02  0.00000000000E+00 0.  1.
         25    1    1    2    0    0  0.00000000000E+00  0.00000000000E+00  0.34220746122E+03  0.36432258579E+03  0.12500000000E+03 0.  0.
<mgrwt>
<rscale>  0 0.12500000E+03</rscale>
<asrwt>0</asrwt>
<pdfrwt beam="1">  1       21 0.54348456E-01 0.12500000E+03</pdfrwt>
<pdfrwt beam="2">  1       21 0.17011637E-02 0.12500000E+03</pdfrwt>
<totfact> 0.50497756E+06</totfact>
</mgrwt>
</event>
<event>
 3    1  0.1573868E-001  0.1250000E+03  0.7546771E-02  0.1235069E+00
         21   -1    0    0  502  501  0.00000000000E+00  0.00000000000E+00  0.13300500835E+03  0.13300500835E+03  0.00000000000E+00 0. -1.
         21   -1    0    0  501  502 -0.00000000000E+00 -0.00000000000E+00 -0.29369194803E+02  0.29369194803E+02  0.00000000000E+00 0. -1.
         25    1    1    2    0    0  0.00000000000E+00  0.00000000000E+00  0.10363581355E+03  0.16237420315E+03  0.12500000000E+03 0.  0.
<mgrwt>
<rscale>  0 0.12500000E+03</rscale>
<asrwt>0</asrwt>
<pdfrwt beam="1">  1       21 0.20462309E-01 0.12500000E+03</pdfrwt>
<pdfrwt beam="2">  1       21 0.45183377E-02 0.12500000E+03</pdfrwt>
<totfact> 0.69230552E+06</totfact>
</mgrwt>
</event>
<event>
 3    1  0.1573868E-001  0.1250000E+03  0.7546771E-02  0.1235069E+00
         21   -1    0    0  502  501  0.00000000000E+00  0.00000000000E+00  0.60430794401E+02  0.60430794401E+02  0.00000000000E+00 0.  1.
         21   -1    0    0  501  502 -0.00000000000E+00 -0.00000000000E+00 -0.64640057089E+02  0.64640057089E+02  0.00000000000E+00 0.  1.
         25    1    1    2    0    0  0.00000000000E+00  0.00000000000E+00 -0.42092626884E+01  0.12507085149E+03  0.12500000000E+03 0.  0.
<mgrwt>
<rscale>  0 0.12500000E+03</rscale>
<asrwt>0</asrwt>
<pdfrwt beam="1">  1       21 0.92970453E-02 0.12500000E+03</pdfrwt>
<pdfrwt beam="2">  1       21 0.99446242E-02 0.12500000E+03</pdfrwt>
<totfact> 0.74034012E+06</totfact>
</mgrwt>
</event>
<event>
 3    1  0.1573868E-001  0.1250000E+03  0.7546771E-02  0.1235069E+00
         21   -1    0    0  502  501  0.00000000000E+00  0.00000000000E+00  0.16543025060E+03  0.16543025060E+03  0.00000000000E+00 0. -1.
         21   -1    0    0  501  502 -0.00000000000E+00 -0.00000000000E+00 -0.23612670511E+02  0.23612670511E+02  0.00000000000E+00 0. -1.
         25    1    1    2    0    0  0.00000000000E+00  0.00000000000E+00  0.14181758009E+03  0.18904292111E+03  0.12500000000E+03 0.  0.
<mgrwt>
<rscale>  0 0.12500000E+03</rscale>
<asrwt>0</asrwt>
<pdfrwt beam="1">  1       21 0.25450807E-01 0.12500000E+03</pdfrwt>
<pdfrwt beam="2">  1       21 0.36327187E-02 0.12500000E+03</pdfrwt>
<totfact> 0.66128993E+06</totfact>
</mgrwt>
</event>
<event>
 3    1  0.1573868E-001  0.1250000E+03  0.7546771E-02  0.1235069E+00
         21   -1    0    0  502  501  0.00000000000E+00  0.00000000000E+00  0.74556784631E+02  0.74556784631E+02  0.00000000000E+00 0. -1.
         21   -1    0    0  501  502 -0.00000000000E+00 -0.00000000000E+00 -0.52392951484E+02  0.52392951484E+02  0.00000000000E+00 0. -1.
         25    1    1    2    0    0  0.00000000000E+00  0.00000000000E+00  0.22163833147E+02  0.12694973612E+03  0.12500000000E+03 0.  0.
<mgrwt>
<rscale>  0 0.12500000E+03</rscale>
<asrwt>0</asrwt>
<pdfrwt beam="1">  1       21 0.11470275E-01 0.12500000E+03</pdfrwt>
<pdfrwt beam="2">  1       21 0.80604541E-02 0.12500000E+03</pdfrwt>
<totfact> 0.73775980E+06</totfact>
</mgrwt>
</event>
<event>
 3    1  0.1573868E-001  0.1250000E+03  0.7546771E-02  0.1235069E+00
         21   -1    0    0  502  501  0.00000000000E+00  0.00000000000E+00  0.19439005665E+03  0.19439005665E+03  0.00000000000E+00 0.  1.
         21   -1    0    0  501  502 -0.00000000000E+00 -0.00000000000E+00 -0.20094906434E+02  0.20094906434E+02  0.00000000000E+00 0.  1.
         25    1    1    2    0    0  0.00000000000E+00  0.00000000000E+00  0.17429515022E+03  0.21448496308E+03  0.12500000000E+03 0.  0.
<mgrwt>
<rscale>  0 0.12500000E+03</rscale>
<asrwt>0</asrwt>
<pdfrwt beam="1">  1       21 0.29906161E-01 0.12500000E+03</pdfrwt>
<pdfrwt beam="2">  1       21 0.30915242E-02 0.12500000E+03</pdfrwt>
<totfact> 0.63390735E+06</totfact>
</mgrwt>
</event>
<event>
 3    1  0.1573868E-001  0.1250000E+03  0.7546771E-02  0.1235069E+00
         21   -1    0    0  502  501  0.00000000000E+00  0.00000000000E+00  0.30210979160E+02  0.30210979160E+02  0.00000000000E+00 0. -1.
         21   -1    0    0  501  502 -0.00000000000E+00 -0.00000000000E+00 -0.12929902004E+03  0.12929902004E+03  0.00000000000E+00 0. -1.
         25    1    1    2    0    0  0.00000000000E+00  0.00000000000E+00 -0.99088040883E+02  0.15950999920E+03  0.12500000000E+03 0.  0.
<mgrwt>
<rscale>  0 0.12500000E+03</rscale>
<asrwt>0</asrwt>
<pdfrwt beam="1">  1       21 0.46478430E-02 0.12500000E+03</pdfrwt>
<pdfrwt beam="2">  1       21 0.19892157E-01 0.12500000E+03</pdfrwt>
<totfact> 0.69579418E+06</totfact>
</mgrwt>
</event>
<event>
 3    1  0.1573868E-001  0.1250000E+03  0.7546771E-02  0.1235069E+00
         21   -1    0    0  502  501  0.00000000000E+00  0.00000000000E+00  0.40468480832E+01  0.40468480832E+01  0.00000000000E+00 0.  1.
         21   -1    0    0  501  502 -0.00000000000E+00 -0.00000000000E+00 -0.96525738542E+03  0.96525738542E+03  0.00000000000E+00 0.  1.
         25    1    1    2    0    0  0.00000000000E+00  0.00000000000E+00 -0.96121053733E+03  0.96930423350E+03  0.12500000000E+03 0.  0.
<mgrwt>
<rscale>  0 0.12500000E+03</rscale>
<asrwt>0</asrwt>
<pdfrwt beam="1">  1       21 0.62259198E-03 0.12500000E+03</pdfrwt>
<pdfrwt beam="2">  1       21 0.14850114E+00 0.12500000E+03</pdfrwt>
<totfact> 0.24401585E+06</totfact>
</mgrwt>
</event>
<event>
 3    1  0.1573868E-001  0.1250000E+03  0.7546771E-02  0.1235069E+00
         21   -1    0    0  502  501  0.00000000000E+00  0.00000000000E+00  0.62792275561E+02  0.62792275561E+02  0.00000000000E+00 0.  1.
         21   -1    0    0  501  502 -0.00000000000E+00 -0.00000000000E+00 -0.62209084877E+02  0.62209084877E+02  0.00000000000E+00 0.  1.
         25    1    1    2    0    0  0.00000000000E+00  0.00000000000E+00  0.58319068424E+00  0.12500136044E+03  0.12500000000E+03 0.  0.
<mgrwt>
<rscale>  0 0.12500000E+03</rscale>
<asrwt>0</asrwt>
<pdfrwt beam="1">  1       21 0.96603501E-02 0.12500000E+03</pdfrwt>
<pdfrwt beam="2">  1       21 0.95706284E-02 0.12500000E+03</pdfrwt>
<totfact> 0.74043398E+06</totfact>
</mgrwt>
</event>
<event>
 3    1  0.1573868E-001  0.1250000E+03  0.7546771E-02  0.1235069E+00
         21   -1    0    0  502  501  0.00000000000E+00  0.00000000000E+00  0.43795804867E+01  0.43795804867E+01  0.00000000000E+00 0. -1.
         21   -1    0    0  501  502 -0.00000000000E+00 -0.00000000000E+00 -0.89192332734E+03  0.89192332734E+03  0.00000000000E+00 0. -1.
         25    1    1    2    0    0  0.00000000000E+00  0.00000000000E+00 -0.88754374685E+03  0.89630290782E+03  0.12500000000E+03 0.  0.
<mgrwt>
<rscale>  0 0.12500000E+03</rscale>
<asrwt>0</asrwt>
<pdfrwt beam="1">  1       21 0.67378105E-03 0.12500000E+03</pdfrwt>
<pdfrwt beam="2">  1       21 0.13721909E+00 0.12500000E+03</pdfrwt>
<totfact> 0.26405670E+06</totfact>
</mgrwt>
</event>
<event>
 3    1  0.1573868E-001  0.1250000E+03  0.7546771E-02  0.1235069E+00
         21   -1    0    0  502  501  0.00000000000E+00  0.00000000000E+00  0.45779695083E+01  0.45779695083E+01  0.00000000000E+00 0.  1.
         21   -1    0    0  501  502 -0.00000000000E+00 -0.00000000000E+00 -0.85327130138E+03  0.85327130138E+03  0.00000000000E+00 0.  1.
         25    1    1    2    0    0  0.00000000000E+00  0.00000000000E+00 -0.84869333187E+03  0.85784927089E+03  0.12500000000E+03 0.  0.
<mgrwt>
<rscale>  0 0.12500000E+03</rscale>
<asrwt>0</asrwt>
<pdfrwt beam="1">  1       21 0.70430360E-03 0.12500000E+03</pdfrwt>
<pdfrwt beam="2">  1       21 0.13127240E+00 0.12500000E+03</pdfrwt>
<totfact> 0.27533447E+06</totfact>
</mgrwt>
</event>
<event>
 3    1  0.1573868E-001  0.1250000E+03  0.7546771E-02  0.1235069E+00
         21   -1    0    0  502  501  0.00000000000E+00  0.00000000000E+00  0.58332112800E+01  0.58332112800E+01  0.00000000000E+00 0.  1.
         21   -1    0    0  501  502 -0.00000000000E+00 -0.00000000000E+00 -0.66965686866E+03  0.66965686866E+03  0.00000000000E+00 0.  1.
         25    1    1    2    0    0  0.00000000000E+00  0.00000000000E+00 -0.66382365738E+03  0.67549007994E+03  0.12500000000E+03 0.  0.
<mgrwt>
<rscale>  0 0.12500000E+03</rscale>
<asrwt>0</asrwt>
<pdfrwt beam="1">  1       21 0.89741685E-03 0.12500000E+03</pdfrwt>
<pdfrwt beam="2">  1       21 0.10302416E+00 0.12500000E+03</pdfrwt>
<totfact> 0.33876660E+06</totfact>
</mgrwt>
</event>
<event>
 3    1  0.1573868E-001  0.1250000E+03  0.7546771E-02  0.1235069E+00
         21   -1    0    0  502  501  0.00000000000E+00  0.00000000000E+00  0.32895199657E+01  0.32895199657E+01  0.00000000000E+00 0.  1.
         21   -1    0    0  501  502 -0.00000000000E+00 -0.00000000000E+00 -0.11874832926E+04  0.11874832926E+04  0.00000000000E+00 0.  1.
         25    1    1    2    0    0  0.00000000000E+00  0.00000000000E+00 -0.11841937727E+04  0.11907728126E+04  0.12500000000E+03 0.  0.
<mgrwt>
<rscale>  0 0.12500000E+03</rscale>
<asrwt>0</asrwt>
<pdfrwt beam="1">  1       21 0.50607947E-03 0.12500000E+03</pdfrwt>
<pdfrwt beam="2">  1       21 0.18268993E+00 0.12500000E+03</pdfrwt>
<totfact> 0.19328199E+06</totfact>
</mgrwt>
</event>
<event>
 3    1  0.1573868E-001  0.1250000E+03  0.7546771E-02  0.1235069E+00
         21   -1    0    0  502  501  0.00000000000E+00  0.00000000000E+00  0.21771472499E+03  0.21771472499E+03  0.00000000000E+00 0.  1.
         21   -1    0    0  501  502 -0.00000000000E+00 -0.00000000000E+00 -0.17942056975E+02  0.17942056975E+02  0.00000000000E+00 0.  1.
         25    1    1    2    0    0  0.00000000000E+00  0.00000000000E+00  0.19977266802E+03  0.23565678197E+03  0.12500000000E+03 0.  0.
<mgrwt>
<rscale>  0 0.12500000E+03</rscale>
<asrwt>0</asrwt>
<pdfrwt beam="1">  1       21 0.33494571E-01 0.12500000E+03</pdfrwt>
<pdfrwt beam="2">  1       21 0.27603166E-02 0.12500000E+03</pdfrwt>
<totfact> 0.61255497E+06</totfact>
</mgrwt>
</event>
<event>
 3    1  0.1573868E-001  0.1250000E+03  0.7546771E-02  0.1235069E+00
         21   -1    0    0  502  501  0.00000000000E+00  0.00000000000E+00  0.41975602853E+02  0.41975602853E+02  0.00000000000E+00 0.  1.
         21   -1    0    0  501  502 -0.00000000000E+00 -0.00000000000E+00 -0.93060009494E+02  0.93060009494E+02  0.00000000000E+00 0.  1.
         25    1    1    2    0    0  0.00000000000E+00  0.00000000000E+00 -0.51084406641E+02  0.13503561235E+03  0.12500000000E+03 0.  0.
<mgrwt>
<rscale>  0 0.12500000E+03</rscale>
<asrwt>0</asrwt>
<pdfrwt beam="1">  1       21 0.64577850E-02 0.12500000E+03</pdfrwt>
<pdfrwt beam="2">  1       21 0.14316925E-01 0.12500000E+03</pdfrwt>
<totfact> 0.72691757E+06</totfact>
</mgrwt>
</event>
<event>
 3    1  0.1573868E-001  0.1250000E+03  0.7546771E-02  0.1235069E+00
         21   -1    0    0  502  501  0.00000000000E+00  0.00000000000E+00  0.16032943226E+04  0.16032943226E+04  0.00000000000E+00 0. -1.
         21   -1    0    0  501  502 -0.00000000000E+00 -0.00000000000E+00 -0.24363898412E+01  0.24363898412E+01  0.00000000000E+00 0. -1.
         25    1    1    2    0    0  0.00000000000E+00  0.00000000000E+00  0.16008579328E+04  0.16057307124E+04  0.12500000000E+03 0.  0.
<mgrwt>
<rscale>  0 0.12500000E+03</rscale>
<asrwt>0</asrwt>
<pdfrwt beam="1">  1       21 0.24665982E+00 0.12500000E+03</pdfrwt>
<pdfrwt beam="2">  1       21 0.37483049E-03 0.12500000E+03</pdfrwt>
<totfact> 0.12496215E+06</totfact>
</mgrwt>
</event>
<event>
 3    1  0.1573868E-001  0.1250000E+03  0.7546771E-02  0.1235069E+00
         21   -1    0    0  502  501  0.00000000000E+00  0.00000000000E+00  0.30774901364E+02  0.30774901364E+02  0.00000000000E+00 0.  1.
         21   -1    0    0  501  502 -0.00000000000E+00 -0.00000000000E+00 -0.12692973257E+03  0.12692973257E+03  0.00000000000E+00 0.  1.
         25    1    1    2    0    0  0.00000000000E+00  0.00000000000E+00 -0.96154831208E+02  0.15770463394E+03  0.12500000000E+03 0.  0.
<mgrwt>
<rscale>  0 0.12500000E+03</rscale>
<asrwt>0</asrwt>
<pdfrwt beam="1">  1       21 0.47346003E-02 0.12500000E+03</pdfrwt>
<pdfrwt beam="2">  1       21 0.19527651E-01 0.12500000E+03</pdfrwt>
<totfact> 0.69801058E+06</totfact>
</mgrwt>
</event>
<event>
 3    1  0.1573868E-001  0.1250000E+03  0.7546771E-02  0.1235069E+00
         21   -1    0    0  502  501  0.00000000000E+00  0.00000000000E+00  0.16719058557E+03  0.16719058557E+03  0.00000000000E+00 0.  1.
         21   -1    0    0  501  502 -0.00000000000E+00 -0.00000000000E+00 -0.23364054780E+02  0.23364054780E+02  0.00000000000E+00 0.  1.
         25    1    1    2    0    0  0.00000000000E+00  0.00000000000E+00  0.14382653079E+03  0.19055464035E+03  0.12500000000E+03 0.  0.
<mgrwt>
<rscale>  0 0.12500000E+03</rscale>
<asrwt>0</asrwt>
<pdfrwt beam="1">  1       21 0.25721628E-01 0.12500000E+03</pdfrwt>
<pdfrwt beam="2">  1       21 0.35944701E-02 0.12500000E+03</pdfrwt>
<totfact> 0.65960874E+06</totfact>
</mgrwt>
</event>
<event>
 3    1  0.1573868E-001  0.1250000E+03  0.7546771E-02  0.1235069E+00
         21   -1    0    0  502  501  0.00000000000E+00  0.00000000000E+00  0.64368196531E+03  0.64368196531E+03  0.00000000000E+00 0. -1.
         21   -1    0    0  501  502 -0.00000000000E+00 -0.00000000000E+00 -0.60686025251E+01  0.60686025251E+01  0.00000000000E+00 0. -1.
         25    1    1    2    0    0  0.00000000000E+00  0.00000000000E+00  0.63761336278E+03  0.64975056783E+03  0.12500000000E+03 0.  0.
<mgrwt>
<rscale>  0 0.12500000E+03</rscale>
<asrwt>0</asrwt>
<pdfrwt beam="1">  1       21 0.99027941E-01 0.12500000E+03</pdfrwt>
<pdfrwt beam="2">  1       21 0.93363166E-03 0.12500000E+03</pdfrwt>
<totfact> 0.34934922E+06</totfact>
</mgrwt>
</event>
<event>
 3    1  0.1573868E-001  0.1250000E+03  0.7546771E-02  0.1235069E+00
         21   -1    0    0  502  501  0.00000000000E+00  0.00000000000E+00  0.12195577053E+03  0.12195577053E+03  0.00000000000E+00 0. -1.
         21   -1    0    0  501  502 -0.00000000000E+00 -0.00000000000E+00 -0.32030054691E+02  0.32030054691E+02  0.00000000000E+00 0. -1.
         25    1    1    2    0    0  0.00000000000E+00  0.00000000000E+00  0.89925715840E+02  0.15398582522E+03  0.12500000000E+03 0.  0.
<mgrwt>
<rscale>  0 0.12500000E+03</rscale>
<asrwt>0</asrwt>
<pdfrwt beam="1">  1       21 0.18762426E-01 0.12500000E+03</pdfrwt>
<pdfrwt beam="2">  1       21 0.49277008E-02 0.12500000E+03</pdfrwt>
<totfact> 0.70261927E+06</totfact>
</mgrwt>
</event>
<event>
 3    1  0.1573868E-001  0.1250000E+03  0.7546771E-02  0.1235069E+00
         21   -1    0    0  502  501  0.00000000000E+00  0.00000000000E+00  0.12253659607E+03  0.12253659607E+03  0.00000000000E+00 0.  1.
         21   -1    0    0  501  502 -0.00000000000E+00 -0.00000000000E+00 -0.31878231689E+02  0.31878231689E+02  0.00000000000E+00 0.  1.
         25    1    1    2    0    0  0.00000000000E+00  0.00000000000E+00  0.90658364383E+02  0.15441482776E+03  0.12500000000E+03 0.  0.
<mgrwt>
<rscale>  0 0.12500000E+03</rscale>
<asrwt>0</asrwt>
<pdfrwt beam="1">  1       21 0.18851784E-01 0.12500000E+03</pdfrwt>
<pdfrwt beam="2">  1       21 0.49043434E-02 0.12500000E+03</pdfrwt>
<totfact> 0.70208461E+06</totfact>
</mgrwt>
</event>
<event>
 3    1  0.1573868E-001  0.1250000E+03  0.7546771E-02  0.1235069E+00
         21   -1    0    0  502  501  0.00000000000E+00  0.00000000000E+00  0.25342082034E+02  0.25342082034E+02  0.00000000000E+00 0.  1.
         21   -1    0    0  501  502 -0.00000000000E+00 -0.00000000000E+00 -0.15414084742E+03  0.15414084742E+03  0.00000000000E+00 0.  1.
         25    1    1    2    0    0  0.00000000000E+00  0.00000000000E+00 -0.12879876538E+03  0.17948292945E+03  0.12500000000E+03 0.  0.
<mgrwt>
<rscale>  0 0.12500000E+03</rscale>
<asrwt>0</asrwt>
<pdfrwt beam="1">  1       21 0.38987819E-02 0.12500000E+03</pdfrwt>
<pdfrwt beam="2">  1       21 0.23713976E-01 0.12500000E+03</pdfrwt>
<totfact> 0.67210903E+06</totfact>
</mgrwt>
</event>
<event>
 3    1  0.1573868E-001  0.1250000E+03  0.7546771E-02  0.1235069E+00
         21   -1    0    0  502  501  0.00000000000E+00  0.00000000000E+00  0.39915682297E+03  0.39915682297E+03  0.00000000000E+00 0. -1.
         21   -1    0    0  501  502 -0.00000000000E+00 -0.00000000000E+00 -0.97862538610E+01  0.97862538610E+01  0.00000000000E+00 0. -1.
         25    1    1    2    0    0  0.00000000000E+00  0.00000000000E+00  0.38937056911E+03  0.40894307684E+03  0.12500000000E+03 0.  0.
<mgrwt>
<rscale>  0 0.12500000E+03</rscale>
<asrwt>0</asrwt>
<pdfrwt beam="1">  1       21 0.61408729E-01 0.12500000E+03</pdfrwt>
<pdfrwt beam="2">  1       21 0.15055778E-02 0.12500000E+03</pdfrwt>
<totfact> 0.47453774E+06</totfact>
</mgrwt>
</event>
<event>
 3    1  0.1573868E-001  0.1250000E+03  0.7546771E-02  0.1235069E+00
         21   -1    0    0  502  501  0.00000000000E+00  0.00000000000E+00  0.65266490491E+02  0.65266490491E+02  0.00000000000E+00 0.  1.
         21   -1    0    0  501  502 -0.00000000000E+00 -0.00000000000E+00 -0.59850774426E+02  0.59850774426E+02  0.00000000000E+00 0.  1.
         25    1    1    2    0    0  0.00000000000E+00  0.00000000000E+00  0.54157160650E+01  0.12511726492E+03  0.12500000000E+03 0.  0.
<mgrwt>
<rscale>  0 0.12500000E+03</rscale>
<asrwt>0</asrwt>
<pdfrwt beam="1">  1       21 0.10040999E-01 0.12500000E+03</pdfrwt>
<pdfrwt beam="2">  1       21 0.92078114E-02 0.12500000E+03</pdfrwt>
<totfact> 0.74027744E+06</totfact>
</mgrwt>
</event>
<event>
 3    1  0.1573868E-001  0.1250000E+03  0.7546771E-02  0.1235069E+00
         21   -1    0    0  502  501  0.00000000000E+00  0.00000000000E+00  0.54382663245E+03  0.54382663245E+03  0.00000000000E+00 0. -1.
         21   -1    0    0  501  502 -0.00000000000E+00 -0.00000000000E+00 -0.71828957372E+01  0.71828957372E+01  0.00000000000E+00 0. -1.
         25    1    1    2    0    0  0.00000000000E+00  0.00000000000E+00  0.53664373671E+03  0.55100952818E+03  0.12500000000E+03 0.  0.
<mgrwt>
<rscale>  0 0.12500000E+03</rscale>
<asrwt>0</asrwt>
<pdfrwt beam="1">  1       21 0.83665604E-01 0.12500000E+03</pdfrwt>
<pdfrwt beam="2">  1       21 0.11050613E-02 0.12500000E+03</pdfrwt>
<totfact> 0.39406249E+06</totfact>
</mgrwt>
</event>
<event>
 3    1  0.1573868E-001  0.1250000E+03  0.7546771E-02  0.1235069E+00
         21   -1    0    0  502  501  0.00000000000E+00  0.00000000000E+00  0.51718005823E+03  0.51718005823E+03  0.00000000000E+00 0.  1.
         21   -1    0    0  501  502 -0.00000000000E+00 -0.00000000000E+00 -0.75529787698E+01  0.75529787698E+01  0.00000000000E+00 0.  1.
         25    1    1    2    0    0  0.00000000000E+00  0.00000000000E+00  0.50962707946E+03  0.52473303700E+03  0.12500000000E+03 0.  0.
<mgrwt>
<rscale>  0 0.12500000E+03</rscale>
<asrwt>0</asrwt>
<pdfrwt beam="1">  1       21 0.79566135E-01 0.12500000E+03</pdfrwt>
<pdfrwt beam="2">  1       21 0.11619971E-02 0.12500000E+03</pdfrwt>
<totfact> 0.40733751E+06</totfact>
</mgrwt>
</event>
<event>
 3    1  0.1573868E-001  0.1250000E+03  0.7546771E-02  0.1235069E+00
         21   -1    0    0  502  501  0.00000000000E+00  0.00000000000E+00  0.14191946450E+03  0.14191946450E+03  0.00000000000E+00 0. -1.
         21   -1    0    0  501  502 -0.00000000000E+00 -0.00000000000E+00 -0.27524413327E+02  0.27524413327E+02  0.00000000000E+00 0. -1.
         25    1    1    2    0    0  0.00000000000E+00  0.00000000000E+00  0.11439505117E+03  0.16944387782E+03  0.12500000000E+03 0.  0.
<mgrwt>
<rscale>  0 0.12500000E+03</rscale>
<asrwt>0</asrwt>
<pdfrwt beam="1">  1       21 0.21833763E-01 0.12500000E+03</pdfrwt>
<pdfrwt beam="2">  1       21 0.42345252E-02 0.12500000E+03</pdfrwt>
<totfact> 0.68383571E+06</totfact>
</mgrwt>
</event>
<event>
 3    1  0.1573868E-001  0.1250000E+03  0.7546771E-02  0.1235069E+00
         21   -1    0    0  502  501  0.00000000000E+00  0.00000000000E+00  0.29615441932E+03  0.29615441932E+03  0.00000000000E+00 0.  1.
         21   -1    0    0  501  502 -0.00000000000E+00 -0.00000000000E+00 -0.13189909538E+02  0.13189909538E+02  0.00000000000E+00 0.  1.
         25    1    1    2    0    0  0.00000000000E+00  0.00000000000E+00  0.28296450978E+03  0.30934432886E+03  0.12500000000E+03 0.  0.
<mgrwt>
<rscale>  0 0.12500000E+03</rscale>
<asrwt>0</asrwt>
<pdfrwt beam="1">  1       21 0.45562213E-01 0.12500000E+03</pdfrwt>
<pdfrwt beam="2">  1       21 0.20292171E-02 0.12500000E+03</pdfrwt>
<totfact> 0.54688457E+06</totfact>
</mgrwt>
</event>
<event>
 3    1  0.1573868E-001  0.1250000E+03  0.7546771E-02  0.1235069E+00
         21   -1    0    0  502  501  0.00000000000E+00  0.00000000000E+00  0.97977095156E+02  0.97977095156E+02  0.00000000000E+00 0.  1.
         21   -1    0    0  501  502 -0.00000000000E+00 -0.00000000000E+00 -0.39869012179E+02  0.39869012179E+02  0.00000000000E+00 0.  1.
         25    1    1    2    0    0  0.00000000000E+00  0.00000000000E+00  0.58108082977E+02  0.13784610733E+03  0.12500000000E+03 0.  0.
<mgrwt>
<rscale>  0 0.12500000E+03</rscale>
<asrwt>0</asrwt>
<pdfrwt beam="1">  1       21 0.15073399E-01 0.12500000E+03</pdfrwt>
<pdfrwt beam="2">  1       21 0.61336942E-02 0.12500000E+03</pdfrwt>
<totfact> 0.72321757E+06</totfact>
</mgrwt>
</event>
<event>
 3    1  0.1573868E-001  0.1250000E+03  0.7546771E-02  0.1235069E+00
         21   -1    0    0  502  501  0.00000000000E+00  0.00000000000E+00  0.89640656583E+02  0.89640656583E+02  0.00000000000E+00 0. -1.
         21   -1    0    0  501  502 -0.00000000000E+00 -0.00000000000E+00 -0.43576766937E+02  0.43576766937E+02  0.00000000000E+00 0. -1.
         25    1    1    2    0    0  0.00000000000E+00  0.00000000000E+00  0.46063889647E+02  0.13321742352E+03  0.12500000000E+03 0.  0.
<mgrwt>
<rscale>  0 0.12500000E+03</rscale>
<asrwt>0</asrwt>
<pdfrwt beam="1">  1       21 0.13790870E-01 0.12500000E+03</pdfrwt>
<pdfrwt beam="2">  1       21 0.67041180E-02 0.12500000E+03</pdfrwt>
<totfact> 0.72933379E+06</totfact>
</mgrwt>
</event>
<event>
 3    1  0.1573868E-001  0.1250000E+03  0.7546771E-02  0.1235069E+00
         21   -1    0    0  502  501  0.00000000000E+00  0.00000000000E+00  0.14075098105E+03  0.14075098105E+03  0.00000000000E+00 0.  1.
         21   -1    0    0  501  502 -0.00000000000E+00 -0.00000000000E+00 -0.27752914907E+02  0.27752914907E+02  0.00000000000E+00 0.  1.
         25    1    1    2    0    0  0.00000000000E+00  0.00000000000E+00  0.11299806614E+03  0.16850389595E+03  0.12500000000E+03 0.  0.
<mgrwt>
<rscale>  0 0.12500000E+03</rscale>
<asrwt>0</asrwt>
<pdfrwt beam="1">  1       21 0.21653997E-01 0.12500000E+03</pdfrwt>
<pdfrwt beam="2">  1       21 0.42696793E-02 0.12500000E+03</pdfrwt>
<totfact> 0.68495052E+06</totfact>
</mgrwt>
</event>
<event>
 3    1  0.1573868E-001  0.1250000E+03  0.7546771E-02  0.1235069E+00
         21   -1    0    0  502  501  0.00000000000E+00  0.00000000000E+00  0.10247531198E+02  0.10247531198E+02  0.00000000000E+00 0.  1.
         21   -1    0    0  501  502 -0.00000000000E+00 -0.00000000000E+00 -0.38118937375E+03  0.38118937375E+03  0.00000000000E+00 0.  1.
         25    1    1    2    0    0  0.00000000000E+00  0.00000000000E+00 -0.37094184255E+03  0.39143690495E+03  0.12500000000E+03 0.  0.
<mgrwt>
<rscale>  0 0.12500000E+03</rscale>
<asrwt>0</asrwt>
<pdfrwt beam="1">  1       21 0.15765433E-02 0.12500000E+03</pdfrwt>
<pdfrwt beam="2">  1       21 0.58644518E-01 0.12500000E+03</pdfrwt>
<totfact> 0.48614566E+06</totfact>
</mgrwt>
</event>
<event>
 3    1  0.1573868E-001  0.1250000E+03  0.7546771E-02  0.1235069E+00
         21   -1    0    0  502  501  0.00000000000E+00  0.00000000000E+00  0.77474111568E+02  0.77474111568E+02  0.00000000000E+00 0.  1.
         21   -1    0    0  501  502 -0.00000000000E+00 -0.00000000000E+00 -0.50420068342E+02  0.50420068342E+02  0.00000000000E+00 0.  1.
         25    1    1    2    0    0  0.00000000000E+00  0.00000000000E+00  0.27054043225E+02  0.12789417991E+03  0.12500000000E+03 0.  0.
<mgrwt>
<rscale>  0 0.12500000E+03</rscale>
<asrwt>0</asrwt>
<pdfrwt beam="1">  1       21 0.11919094E-01 0.12500000E+03</pdfrwt>
<pdfrwt beam="2">  1       21 0.77569336E-02 0.12500000E+03</pdfrwt>
<totfact> 0.73647859E+06</totfact>
</mgrwt>
</event>
<event>
 3    1  0.1573868E-001  0.1250000E+03  0.7546771E-02  0.1235069E+00
         21   -1    0    0  502  501  0.00000000000E+00  0.00000000000E+00  0.55904689924E+03  0.55904689924E+03  0.00000000000E+00 0.  1.
         21   -1    0    0  501  502 -0.00000000000E+00 -0.00000000000E+00 -0.69873386389E+01  0.69873386389E+01  0.00000000000E+00 0.  1.
         25    1    1    2    0    0  0.00000000000E+00  0.00000000000E+00  0.55205956060E+03  0.56603423788E+03  0.12500000000E+03 0.  0.
<mgrwt>
<rscale>  0 0.12500000E+03</rscale>
<asrwt>0</asrwt>
<pdfrwt beam="1">  1       21 0.86007180E-01 0.12500000E+03</pdfrwt>
<pdfrwt beam="2">  1       21 0.10749756E-02 0.12500000E+03</pdfrwt>
<totfact> 0.38675179E+06</totfact>
</mgrwt>
</event>
<event>
 3    1  0.1573868E-001  0.1250000E+03  0.7546771E-02  0.1235069E+00
         21   -1    0    0  502  501  0.00000000000E+00  0.00000000000E+00  0.21581647976E+02  0.21581647976E+02  0.00000000000E+00 0.  1.
         21   -1    0    0  501  502 -0.00000000000E+00 -0.00000000000E+00 -0.18099868946E+03  0.18099868946E+03  0.00000000000E+00 0.  1.
         25    1    1    2    0    0  0.00000000000E+00  0.00000000000E+00 -0.15941704148E+03  0.20258033744E+03  0.12500000000E+03 0.  0.
<mgrwt>
<rscale>  0 0.12500000E+03</rscale>
<asrwt>0</asrwt>
<pdfrwt beam="1">  1       21 0.33202537E-02 0.12500000E+03</pdfrwt>
<pdfrwt beam="2">  1       21 0.27845951E-01 0.12500000E+03</pdfrwt>
<totfact> 0.64648724E+06</totfact>
</mgrwt>
</event>
<event>
 3    1  0.1573868E-001  0.1250000E+03  0.7546771E-02  0.1235069E+00
         21   -1    0    0  502  501  0.00000000000E+00  0.00000000000E+00  0.73864017480E+01  0.73864017480E+01  0.00000000000E+00 0.  1.
         21   -1    0    0  501  502 -0.00000000000E+00 -0.00000000000E+00 -0.52884342516E+03  0.52884342516E+03  0.00000000000E+00 0.  1.
         25    1    1    2    0    0  0.00000000000E+00  0.00000000000E+00 -0.52145702341E+03  0.53622982690E+03  0.12500000000E+03 0.  0.
<mgrwt>
<rscale>  0 0.12500000E+03</rscale>
<asrwt>0</asrwt>
<pdfrwt beam="1">  1       21 0.11363696E-02 0.12500000E+03</pdfrwt>
<pdfrwt beam="2">  1       21 0.81360519E-01 0.12500000E+03</pdfrwt>
<totfact> 0.40145027E+06</totfact>
</mgrwt>
</event>
<event>
 3    1  0.1573868E-001  0.1250000E+03  0.7546771E-02  0.1235069E+00
         21   -1    0    0  502  501  0.00000000000E+00  0.00000000000E+00  0.11457331664E+03  0.11457331664E+03  0.00000000000E+00 0. -1.
         21   -1    0    0  501  502 -0.00000000000E+00 -0.00000000000E+00 -0.34093889524E+02  0.34093889524E+02  0.00000000000E+00 0. -1.
         25    1    1    2    0    0  0.00000000000E+00  0.00000000000E+00  0.80479427120E+02  0.14866720617E+03  0.12500000000E+03 0.  0.
<mgrwt>
<rscale>  0 0.12500000E+03</rscale>
<asrwt>0</asrwt>
<pdfrwt beam="1">  1       21 0.17626664E-01 0.12500000E+03</pdfrwt>
<pdfrwt beam="2">  1       21 0.52452138E-02 0.12500000E+03</pdfrwt>
<totfact> 0.70927028E+06</totfact>
</mgrwt>
</event>
<event>
 3    1  0.1573868E-001  0.1250000E+03  0.7546771E-02  0.1235069E+00
         21   -1    0    0  502  501  0.00000000000E+00  0.00000000000E+00  0.30180232691E+02  0.30180232691E+02  0.00000000000E+00 0.  1.
         21   -1    0    0  501  502 -0.00000000000E+00 -0.00000000000E+00 -0.12943074495E+03  0.12943074495E+03  0.00000000000E+00 0.  1.
         25    1    1    2    0    0  0.00000000000E+00  0.00000000000E+00 -0.99250512261E+02  0.15961097764E+03  0.12500000000E+03 0.  0.
<mgrwt>
<rscale>  0 0.12500000E+03</rscale>
<asrwt>0</asrwt>
<pdfrwt beam="1">  1       21 0.46431127E-02 0.12500000E+03</pdfrwt>
<pdfrwt beam="2">  1       21 0.19912423E-01 0.12500000E+03</pdfrwt>
<totfact> 0.69567061E+06</totfact>
</mgrwt>
</event>
<event>
 3    1  0.1573868E-001  0.1250000E+03  0.7546771E-02  0.1235069E+00
         21   -1    0    0  502  501  0.00000000000E+00  0.00000000000E+00  0.12057544305E+03  0.12057544305E+03  0.00000000000E+00 0. -1.
         21   -1    0    0  501  502 -0.00000000000E+00 -0.00000000000E+00 -0.32396729393E+02  0.32396729393E+02  0.00000000000E+00 0. -1.
         25    1    1    2    0    0  0.00000000000E+00  0.00000000000E+00  0.88178713658E+02  0.15297217244E+03  0.12500000000E+03 0.  0.
<mgrwt>
<rscale>  0 0.12500000E+03</rscale>
<asrwt>0</asrwt>
<pdfrwt beam="1">  1       21 0.18550068E-01 0.12500000E+03</pdfrwt>
<pdfrwt beam="2">  1       21 0.49841123E-02 0.12500000E+03</pdfrwt>
<totfact> 0.70387808E+06</totfact>
</mgrwt>
</event>
<event>
 3    1  0.1573868E-001  0.1250000E+03  0.7546771E-02  0.1235069E+00
         21   -1    0    0  502  501  0.00000000000E+00  0.00000000000E+00  0.15300741997E+02  0.15300741997E+02  0.00000000000E+00 0. -1.
         21   -1    0    0  501  502 -0.00000000000E+00 -0.00000000000E+00 -0.25529807644E+03  0.25529807644E+03  0.00000000000E+00 0. -1.
         25    1    1    2    0    0  0.00000000000E+00  0.00000000000E+00 -0.23999733444E+03  0.27059881844E+03  0.12500000000E+03 0.  0.
<mgrwt>
<rscale>  0 0.12500000E+03</rscale>
<asrwt>0</asrwt>
<pdfrwt beam="1">  1       21 0.23539600E-02 0.12500000E+03</pdfrwt>
<pdfrwt beam="2">  1       21 0.39276632E-01 0.12500000E+03</pdfrwt>
<totfact> 0.57991237E+06</totfact>
</mgrwt>
</event>
<event>
 3    1  0.1573868E-001  0.1250000E+03  0.7546771E-02  0.1235069E+00
         21   -1    0    0  502  501  0.00000000000E+00  0.00000000000E+00  0.58250800389E+01  0.58250800389E+01  0.00000000000E+00 0.  1.
         21   -1    0    0  501  502 -0.00000000000E+00 -0.00000000000E+00 -0.67059164405E+03  0.67059164405E+03  0.00000000000E+00 0.  1.
         25    1    1    2    0    0  0.00000000000E+00  0.00000000000E+00 -0.66476656401E+03  0.67641672408E+03  0.12500000000E+03 0.  0.
<mgrwt>
<rscale>  0 0.12500000E+03</rscale>
<asrwt>0</asrwt>
<pdfrwt beam="1">  1       21 0.89616625E-03 0.12500000E+03</pdfrwt>
<pdfrwt beam="2">  1       21 0.10316794E+00 0.12500000E+03</pdfrwt>
<totfact> 0.33839340E+06</totfact>
</mgrwt>
</event>
<event>
 3    1  0.1573868E-001  0.1250000E+03  0.7546771E-02  0.1235069E+00
         21   -1    0    0  502  501  0.00000000000E+00  0.00000000000E+00  0.98954862168E+02  0.98954862168E+02  0.00000000000E+00 0.  1.
         21   -1    0    0  501  502 -0.00000000000E+00 -0.00000000000E+00 -0.39475068879E+02  0.39475068879E+02  0.00000000000E+00 0.  1.
         25    1    1    2    0    0  0.00000000000E+00  0.00000000000E+00  0.59479793289E+02  0.13842993105E+03  0.12500000000E+03 0.  0.
<mgrwt>
<rscale>  0 0.12500000E+03</rscale>
<asrwt>0</asrwt>
<pdfrwt beam="1">  1       21 0.15223825E-01 0.12500000E+03</pdfrwt>
<pdfrwt beam="2">  1       21 0.60730875E-02 0.12500000E+03</pdfrwt>
<totfact> 0.72244946E+06</totfact>
</mgrwt>
</event>
<event>
 3    1  0.1573868E-001  0.1250000E+03  0.7546771E-02  0.1235069E+00
         21   -1    0    0  502  501  0.00000000000E+00  0.00000000000E+00  0.55247560404E+03  0.55247560404E+03  0.00000000000E+00 0.  1.
         21   -1    0    0  501  502 -0.00000000000E+00 -0.00000000000E+00 -0.70704479463E+01  0.70704479463E+01  0.00000000000E+00 0.  1.
         25    1    1    2    0    0  0.00000000000E+00  0.00000000000E+00  0.54540515610E+03  0.55954605199E+03  0.12500000000E+03 0.  0.
<mgrwt>
<rscale>  0 0.12500000E+03</rscale>
<asrwt>0</asrwt>
<pdfrwt beam="1">  1       21 0.84996213E-01 0.12500000E+03</pdfrwt>
<pdfrwt beam="2">  1       21 0.10877617E-02 0.12500000E+03</pdfrwt>
<totfact> 0.38988456E+06</totfact>
</mgrwt>
</event>
<event>
 3    1  0.1573868E-001  0.1250000E+03  0.7546771E-02  0.1235069E+00
         21   -1    0    0  502  501  0.00000000000E+00  0.00000000000E+00  0.43525207641E+02  0.43525207641E+02  0.00000000000E+00 0.  1.
         21   -1    0    0  501  502 -0.00000000000E+00 -0.00000000000E+00 -0.89746843535E+02  0.89746843535E+02  0.00000000000E+00 0.  1.
         25    1    1    2    0    0  0.00000000000E+00  0.00000000000E+00 -0.46221635894E+02  0.13327205118E+03  0.12500000000E+03 0.  0.
<mgrwt>
<rscale>  0 0.12500000E+03</rscale>
<asrwt>0</asrwt>
<pdfrwt beam="1">  1       21 0.66961858E-02 0.12500000E+03</pdfrwt>
<pdfrwt beam="2">  1       21 0.13807207E-01 0.12500000E+03</pdfrwt>
<totfact> 0.72926092E+06</totfact>
</mgrwt>
</event>
<event>
 3    1  0.1573868E-001  0.1250000E+03  0.7546771E-02  0.1235069E+00
         21   -1    0    0  502  501  0.00000000000E+00  0.00000000000E+00  0.19326015632E+02  0.19326015632E+02  0.00000000000E+00 0.  1.
         21   -1    0    0  501  502 -0.00000000000E+00 -0.00000000000E+00 -0.20212391806E+03  0.20212391806E+03  0.00000000000E+00 0.  1.
         25    1    1    2    0    0  0.00000000000E+00  0.00000000000E+00 -0.18279790242E+03  0.22144993369E+03  0.12500000000E+03 0.  0.
<mgrwt>
<rscale>  0 0.12500000E+03</rscale>
<asrwt>0</asrwt>
<pdfrwt beam="1">  1       21 0.29732332E-02 0.12500000E+03</pdfrwt>
<pdfrwt beam="2">  1       21 0.31095987E-01 0.12500000E+03</pdfrwt>
<totfact> 0.62674640E+06</totfact>
</mgrwt>
</event>
<event>
 3    1  0.1573868E-001  0.1250000E+03  0.7546771E-02  0.1235069E+00
         21   -1    0    0  502  501  0.00000000000E+00  0.00000000000E+00  0.44247767016E+01  0.44247767016E+01  0.00000000000E+00 0.  1.
         21   -1    0    0  501  502 -0.00000000000E+00 -0.00000000000E+00 -0.88281291090E+03  0.88281291090E+03  0.00000000000E+00 0.  1.
         25    1    1    2    0    0  0.00000000000E+00  0.00000000000E+00 -0.87838813420E+03  0.88723768760E+03  0.12500000000E+03 0.  0.
<mgrwt>
<rscale>  0 0.12500000E+03</rscale>
<asrwt>0</asrwt>
<pdfrwt beam="1">  1       21 0.68073464E-03 0.12500000E+03</pdfrwt>
<pdfrwt beam="2">  1       21 0.13581742E+00 0.12500000E+03</pdfrwt>
<totfact> 0.26666753E+06</totfact>
</mgrwt>
</event>
<event>
 3    1  0.1573868E-001  0.1250000E+03  0.7546771E-02  0.1235069E+00
         21   -1    0    0  502  501  0.00000000000E+00  0.00000000000E+00  0.59338274856E+02  0.59338274856E+02  0.00000000000E+00 0. -1.
         21   -1    0    0  501  502 -0.00000000000E+00 -0.00000000000E+00 -0.65830191550E+02  0.65830191550E+02  0.00000000000E+00 0. -1.
         25    1    1    2    0    0  0.00000000000E+00  0.00000000000E+00 -0.64919166946E+01  0.12516846641E+03  0.12500000000E+03 0.  0.
<mgrwt>
<rscale>  0 0.12500000E+03</rscale>
<asrwt>0</asrwt>
<pdfrwt beam="1">  1       21 0.91289654E-02 0.12500000E+03</pdfrwt>
<pdfrwt beam="2">  1       21 0.10127722E-01 0.12500000E+03</pdfrwt>
<totfact> 0.74020830E+06</totfact>
</mgrwt>
</event>
<event>
 3    1  0.1573868E-001  0.1250000E+03  0.7546771E-02  0.1235069E+00
         21   -1    0    0  502  501  0.00000000000E+00  0.00000000000E+00  0.25801100919E+01  0.25801100919E+01  0.00000000000E+00 0.  1.
         21   -1    0    0  501  502 -0.00000000000E+00 -0.00000000000E+00 -0.15139857839E+04  0.15139857839E+04  0.00000000000E+00 0.  1.
         25    1    1    2    0    0  0.00000000000E+00  0.00000000000E+00 -0.15114056738E+04  0.15165658940E+04  0.12500000000E+03 0.  0.
<mgrwt>
<rscale>  0 0.12500000E+03</rscale>
<asrwt>0</asrwt>
<pdfrwt beam="1">  1       21 0.39693990E-03 0.12500000E+03</pdfrwt>
<pdfrwt beam="2">  1       21 0.23292096E+00 0.12500000E+03</pdfrwt>
<totfact> 0.13748993E+06</totfact>
</mgrwt>
</event>
<event>
 3    1  0.1573868E-001  0.1250000E+03  0.7546771E-02  0.1235069E+00
         21   -1    0    0  502  501  0.00000000000E+00  0.00000000000E+00  0.19407296665E+02  0.19407296665E+02  0.00000000000E+00 0. -1.
         21   -1    0    0  501  502 -0.00000000000E+00 -0.00000000000E+00 -0.20127738899E+03  0.20127738899E+03  0.00000000000E+00 0. -1.
         25    1    1    2    0    0  0.00000000000E+00  0.00000000000E+00 -0.18187009233E+03  0.22068468565E+03  0.12500000000E+03 0.  0.
<mgrwt>
<rscale>  0 0.12500000E+03</rscale>
<asrwt>0</asrwt>
<pdfrwt beam="1">  1       21 0.29857380E-02 0.12500000E+03</pdfrwt>
<pdfrwt beam="2">  1       21 0.30965752E-01 0.12500000E+03</pdfrwt>
<totfact> 0.62752620E+06</totfact>
</mgrwt>
</event>
<event>
 3    1  0.1573868E-001  0.1250000E+03  0.7546771E-02  0.1235069E+00
         21   -1    0    0  502  501  0.00000000000E+00  0.00000000000E+00  0.80072408604E+02  0.80072408604E+02  0.00000000000E+00 0.  1.
         21   -1    0    0  501  502 -0.00000000000E+00 -0.00000000000E+00 -0.48783970260E+02  0.48783970260E+02  0.00000000000E+00 0.  1.
         25    1    1    2    0    0  0.00000000000E+00  0.00000000000E+00  0.31288438344E+02  0.12885637886E+03  0.12500000000E+03 0.  0.
<mgrwt>
<rscale>  0 0.12500000E+03</rscale>
<asrwt>0</asrwt>
<pdfrwt beam="1">  1       21 0.12318832E-01 0.12500000E+03</pdfrwt>
<pdfrwt beam="2">  1       21 0.75052262E-02 0.12500000E+03</pdfrwt>
<totfact> 0.73518176E+06</totfact>
</mgrwt>
</event>
<event>
 3    1  0.1573868E-001  0.1250000E+03  0.7546771E-02  0.1235069E+00
         21   -1    0    0  502  501  0.00000000000E+00  0.00000000000E+00  0.19465946766E+03  0.19465946766E+03  0.00000000000E+00 0. -1.
         21   -1    0    0  501  502 -0.00000000000E+00 -0.00000000000E+00 -0.20067094845E+02  0.20067094845E+02  0.00000000000E+00 0. -1.
         25    1    1    2    0    0  0.00000000000E+00  0.00000000000E+00  0.17459237282E+03  0.21472656251E+03  0.12500000000E+03 0.  0.
<mgrwt>
<rscale>  0 0.12500000E+03</rscale>
<asrwt>0</asrwt>
<pdfrwt beam="1">  1       21 0.29947609E-01 0.12500000E+03</pdfrwt>
<pdfrwt beam="2">  1       21 0.30872455E-02 0.12500000E+03</pdfrwt>
<totfact> 0.63365654E+06</totfact>
</mgrwt>
</event>
<event>
 3    1  0.1573868E-001  0.1250000E+03  0.7546771E-02  0.1235069E+00
         21   -1    0    0  502  501  0.00000000000E+00  0.00000000000E+00  0.78349859648E+02  0.78349859648E+02  0.00000000000E+00 0. -1.
         21   -1    0    0  501  502 -0.00000000000E+00 -0.00000000000E+00 -0.49856502840E+02  0.49856502840E+02  0.00000000000E+00 0. -1.
         25    1    1    2    0    0  0.00000000000E+00  0.00000000000E+00  0.28493356808E+02  0.12820636249E+03  0.12500000000E+03 0.  0.
<mgrwt>
<rscale>  0 0.12500000E+03</rscale>
<asrwt>0</asrwt>
<pdfrwt beam="1">  1       21 0.12053825E-01 0.12500000E+03</pdfrwt>
<pdfrwt beam="2">  1       21 0.76702312E-02 0.12500000E+03</pdfrwt>
<totfact> 0.73605701E+06</totfact>
</mgrwt>
</event>
<event>
 3    1  0.1573868E-001  0.1250000E+03  0.7546771E-02  0.1235069E+00
         21   -1    0    0  502  501  0.00000000000E+00  0.00000000000E+00  0.15047769151E+02  0.15047769151E+02  0.00000000000E+00 0. -1.
         21   -1    0    0  501  502 -0.00000000000E+00 -0.00000000000E+00 -0.25958997382E+03  0.25958997382E+03  0.00000000000E+00 0. -1.
         25    1    1    2    0    0  0.00000000000E+00  0.00000000000E+00 -0.24454220467E+03  0.27463774297E+03  0.12500000000E+03 0.  0.
<mgrwt>
<rscale>  0 0.12500000E+03</rscale>
<asrwt>0</asrwt>
<pdfrwt beam="1">  1       21 0.23150415E-02 0.12500000E+03</pdfrwt>
<pdfrwt beam="2">  1       21 0.39936918E-01 0.12500000E+03</pdfrwt>
<totfact> 0.57632010E+06</totfact>
</mgrwt>
</event>
<event>
 3    1  0.1573868E-001  0.1250000E+03  0.7546771E-02  0.1235069E+00
         21   -1    0    0  502  501  0.00000000000E+00  0.00000000000E+00  0.56715482729E+03  0.56715482729E+03  0.00000000000E+00 0. -1.
         21   -1    0    0  501  502 -0.00000000000E+00 -0.00000000000E+00 -0.68874490915E+01  0.68874490915E+01  0.00000000000E+00 0. -1.
         25    1    1    2    0    0  0.00000000000E+00  0.00000000000E+00  0.56026737820E+03  0.57404227638E+03  0.12500000000E+03 0.  0.
<mgrwt>
<rscale>  0 0.12500000E+03</rscale>
<asrwt>0</asrwt>
<pdfrwt beam="1">  1       21 0.87254552E-01 0.12500000E+03</pdfrwt>
<pdfrwt beam="2">  1       21 0.10596080E-02 0.12500000E+03</pdfrwt>
<totfact> 0.38293490E+06</totfact>
</mgrwt>
</event>
<event>
 3    1  0.1573868E-001  0.1250000E+03  0.7546771E-02  0.1235069E+00
         21   -1    0    0  502  501  0.00000000000E+00  0.00000000000E+00  0.42487433350E+02  0.42487433350E+02  0.00000000000E+00 0.  1.
         21   -1    0    0  501  502 -0.00000000000E+00 -0.00000000000E+00 -0.91938949755E+02  0.91938949755E+02  0.00000000000E+00 0.  1.
         25    1    1    2    0    0  0.00000000000E+00  0.00000000000E+00 -0.49451516405E+02  0.13442638311E+03  0.12500000000E+03 0.  0.
<mgrwt>
<rscale>  0 0.12500000E+03</rscale>
<asrwt>0</asrwt>
<pdfrwt beam="1">  1       21 0.65365283E-02 0.12500000E+03</pdfrwt>
<pdfrwt beam="2">  1       21 0.14144454E-01 0.12500000E+03</pdfrwt>
<totfact> 0.72772512E+06</totfact>
</mgrwt>
</event>
<event>
 3    1  0.1573868E-001  0.1250000E+03  0.7546771E-02  0.1235069E+00
         21   -1    0    0  502  501  0.00000000000E+00  0.00000000000E+00  0.22699032755E+02  0.22699032755E+02  0.00000000000E+00 0.  1.
         21   -1    0    0  501  502 -0.00000000000E+00 -0.00000000000E+00 -0.17208883049E+03  0.17208883049E+03  0.00000000000E+00 0.  1.
         25    1    1    2    0    0  0.00000000000E+00  0.00000000000E+00 -0.14938979773E+03  0.19478786324E+03  0.12500000000E+03 0.  0.
<mgrwt>
<rscale>  0 0.12500000E+03</rscale>
<asrwt>0</asrwt>
<pdfrwt beam="1">  1       21 0.34921590E-02 0.12500000E+03</pdfrwt>
<pdfrwt beam="2">  1       21 0.26475204E-01 0.12500000E+03</pdfrwt>
<totfact> 0.65494248E+06</totfact>
</mgrwt>
</event>
<event>
 3    1  0.1573868E-001  0.1250000E+03  0.7546771E-02  0.1235069E+00
         21   -1    0    0  502  501  0.00000000000E+00  0.00000000000E+00  0.12972020229E+02  0.12972020229E+02  0.00000000000E+00 0.  1.
         21   -1    0    0  501  502 -0.00000000000E+00 -0.00000000000E+00 -0.30112888593E+03  0.30112888593E+03  0.00000000000E+00 0.  1.
         25    1    1    2    0    0  0.00000000000E+00  0.00000000000E+00 -0.28815686570E+03  0.31410090616E+03  0.12500000000E+03 0.  0.
<mgrwt>
<rscale>  0 0.12500000E+03</rscale>
<asrwt>0</asrwt>
<pdfrwt beam="1">  1       21 0.19956954E-02 0.12500000E+03</pdfrwt>
<pdfrwt beam="2">  1       21 0.46327522E-01 0.12500000E+03</pdfrwt>
<totfact> 0.54304151E+06</totfact>
</mgrwt>
</event>
<event>
 3    1  0.1573868E-001  0.1250000E+03  0.7546771E-02  0.1235069E+00
         21   -1    0    0  502  501  0.00000000000E+00  0.00000000000E+00  0.15886285746E+03  0.15886285746E+03  0.00000000000E+00 0.  1.
         21   -1    0    0  501  502 -0.00000000000E+00 -0.00000000000E+00 -0.24588818699E+02  0.24588818699E+02  0.00000000000E+00 0.  1.
         25    1    1    2    0    0  0.00000000000E+00  0.00000000000E+00  0.13427403876E+03  0.18345167616E+03  0.12500000000E+03 0.  0.
<mgrwt>
<rscale>  0 0.12500000E+03</rscale>
<asrwt>0</asrwt>
<pdfrwt beam="1">  1       21 0.24440439E-01 0.12500000E+03</pdfrwt>
<pdfrwt beam="2">  1       21 0.37828953E-02 0.12500000E+03</pdfrwt>
<totfact> 0.66757761E+06</totfact>
</mgrwt>
</event>
<event>
 3    1  0.1573868E-001  0.1250000E+03  0.7546771E-02  0.1235069E+00
         21   -1    0    0  502  501  0.00000000000E+00  0.00000000000E+00  0.21865980027E+03  0.21865980027E+03  0.00000000000E+00 0.  1.
         21   -1    0    0  501  502 -0.00000000000E+00 -0.00000000000E+00 -0.17864509138E+02  0.17864509138E+02  0.00000000000E+00 0.  1.
         25    1    1    2    0    0  0.00000000000E+00  0.00000000000E+00  0.20079529113E+03  0.23652430940E+03  0.12500000000E+03 0.  0.
<mgrwt>
<rscale>  0 0.12500000E+03</rscale>
<asrwt>0</asrwt>
<pdfrwt beam="1">  1       21 0.33639968E-01 0.12500000E+03</pdfrwt>
<pdfrwt beam="2">  1       21 0.27483862E-02 0.12500000E+03</pdfrwt>
<totfact> 0.61170629E+06</totfact>
</mgrwt>
</event>
<event>
 3    1  0.1573868E-001  0.1250000E+03  0.7546771E-02  0.1235069E+00
         21   -1    0    0  502  501  0.00000000000E+00  0.00000000000E+00  0.17032314154E+03  0.17032314154E+03  0.00000000000E+00 0. -1.
         21   -1    0    0  501  502 -0.00000000000E+00 -0.00000000000E+00 -0.22934346822E+02  0.22934346822E+02  0.00000000000E+00 0. -1.
         25    1    1    2    0    0  0.00000000000E+00  0.00000000000E+00  0.14738879472E+03  0.19325748837E+03  0.12500000000E+03 0.  0.
<mgrwt>
<rscale>  0 0.12500000E+03</rscale>
<asrwt>0</asrwt>
<pdfrwt beam="1">  1       21 0.26203559E-01 0.12500000E+03</pdfrwt>
<pdfrwt beam="2">  1       21 0.35283612E-02 0.12500000E+03</pdfrwt>
<totfact> 0.65662242E+06</totfact>
</mgrwt>
</event>
<event>
 3    1  0.1573868E-001  0.1250000E+03  0.7546771E-02  0.1235069E+00
         21   -1    0    0  502  501  0.00000000000E+00  0.00000000000E+00  0.24272701580E+04  0.24272701580E+04  0.00000000000E+00 0.  1.
         21   -1    0    0  501  502 -0.00000000000E+00 -0.00000000000E+00 -0.16093181829E+01  0.16093181829E+01  0.00000000000E+00 0.  1.
         25    1    1    2    0    0  0.00000000000E+00  0.00000000000E+00  0.24256608398E+04  0.24288794762E+04  0.12500000000E+03 0.  0.
<mgrwt>
<rscale>  0 0.12500000E+03</rscale>
<asrwt>0</asrwt>
<pdfrwt beam="1">  1       21 0.37342325E+00 0.12500000E+03</pdfrwt>
<pdfrwt beam="2">  1       21 0.24758935E-03 0.12500000E+03</pdfrwt>
<totfact> 0.44720660E+05</totfact>
</mgrwt>
</event>
<event>
 3    1  0.1573868E-001  0.1250000E+03  0.7546771E-02  0.1235069E+00
         21   -1    0    0  502  501  0.00000000000E+00  0.00000000000E+00  0.62784760630E+02  0.62784760630E+02  0.00000000000E+00 0. -1.
         21   -1    0    0  501  502 -0.00000000000E+00 -0.00000000000E+00 -0.62216530904E+02  0.62216530904E+02  0.00000000000E+00 0. -1.
         25    1    1    2    0    0  0.00000000000E+00  0.00000000000E+00  0.56822972602E+00  0.12500129153E+03  0.12500000000E+03 0.  0.
<mgrwt>
<rscale>  0 0.12500000E+03</rscale>
<asrwt>0</asrwt>
<pdfrwt beam="1">  1       21 0.96591940E-02 0.12500000E+03</pdfrwt>
<pdfrwt beam="2">  1       21 0.95717739E-02 0.12500000E+03</pdfrwt>
<totfact> 0.74043407E+06</totfact>
</mgrwt>
</event>
<event>
 3    1  0.1573868E-001  0.1250000E+03  0.7546771E-02  0.1235069E+00
         21   -1    0    0  502  501  0.00000000000E+00  0.00000000000E+00  0.44828577673E+01  0.44828577673E+01  0.00000000000E+00 0. -1.
         21   -1    0    0  501  502 -0.00000000000E+00 -0.00000000000E+00 -0.87137495828E+03  0.87137495828E+03  0.00000000000E+00 0. -1.
         25    1    1    2    0    0  0.00000000000E+00  0.00000000000E+00 -0.86689210052E+03  0.87585781605E+03  0.12500000000E+03 0.  0.
<mgrwt>
<rscale>  0 0.12500000E+03</rscale>
<asrwt>0</asrwt>
<pdfrwt beam="1">  1       21 0.68967127E-03 0.12500000E+03</pdfrwt>
<pdfrwt beam="2">  1       21 0.13405752E+00 0.12500000E+03</pdfrwt>
<totfact> 0.26997751E+06</totfact>
</mgrwt>
</event>
<event>
 3    1  0.1573868E-001  0.1250000E+03  0.7546771E-02  0.1235069E+00
         21   -1    0    0  502  501  0.00000000000E+00  0.00000000000E+00  0.18687739449E+03  0.18687739449E+03  0.00000000000E+00 0.  1.
         21   -1    0    0  501  502 -0.00000000000E+00 -0.00000000000E+00 -0.20902742200E+02  0.20902742200E+02  0.00000000000E+00 0.  1.
         25    1    1    2    0    0  0.00000000000E+00  0.00000000000E+00  0.16597465229E+03  0.20778013669E+03  0.12500000000E+03 0.  0.
<mgrwt>
<rscale>  0 0.12500000E+03</rscale>
<asrwt>0</asrwt>
<pdfrwt beam="1">  1       21 0.28750367E-01 0.12500000E+03</pdfrwt>
<pdfrwt beam="2">  1       21 0.32158066E-02 0.12500000E+03</pdfrwt>
<totfact> 0.64093850E+06</totfact>
</mgrwt>
</event>
<event>
 3    1  0.1573868E-001  0.1250000E+03  0.7546771E-02  0.1235069E+00
         21   -1    0    0  502  501  0.00000000000E+00  0.00000000000E+00  0.31735698352E+03  0.31735698352E+03  0.00000000000E+00 0. -1.
         21   -1    0    0  501  502 -0.00000000000E+00 -0.00000000000E+00 -0.12308694004E+02  0.12308694004E+02  0.00000000000E+00 0. -1.
         25    1    1    2    0    0  0.00000000000E+00  0.00000000000E+00  0.30504828951E+03  0.32966567752E+03  0.12500000000E+03 0.  0.
<mgrwt>
<rscale>  0 0.12500000E+03</rscale>
<asrwt>0</asrwt>
<pdfrwt beam="1">  1       21 0.48824145E-01 0.12500000E+03</pdfrwt>
<pdfrwt beam="2">  1       21 0.18936455E-02 0.12500000E+03</pdfrwt>
<totfact> 0.53076170E+06</totfact>
</mgrwt>
</event>
<event>
 3    1  0.1573868E-001  0.1250000E+03  0.7546771E-02  0.1235069E+00
         21   -1    0    0  502  501  0.00000000000E+00  0.00000000000E+00  0.64415297137E+01  0.64415297137E+01  0.00000000000E+00 0. -1.
         21   -1    0    0  501  502 -0.00000000000E+00 -0.00000000000E+00 -0.60641651496E+03  0.60641651496E+03  0.00000000000E+00 0. -1.
         25    1    1    2    0    0  0.00000000000E+00  0.00000000000E+00 -0.59997498525E+03  0.61285804468E+03  0.12500000000E+03 0.  0.
<mgrwt>
<rscale>  0 0.12500000E+03</rscale>
<asrwt>0</asrwt>
<pdfrwt beam="1">  1       21 0.99100395E-03 0.12500000E+03</pdfrwt>
<pdfrwt beam="2">  1       21 0.93294907E-01 0.12500000E+03</pdfrwt>
<totfact> 0.36517507E+06</totfact>
</mgrwt>
</event>
<event>
 3    1  0.1573868E-001  0.1250000E+03  0.7546771E-02  0.1235069E+00
         21   -1    0    0  502  501  0.00000000000E+00  0.00000000000E+00  0.29037267224E+03  0.29037267224E+03  0.00000000000E+00 0. -1.
         21   -1    0    0  501  502 -0.00000000000E+00 -0.00000000000E+00 -0.13452540041E+02  0.13452540041E+02  0.00000000000E+00 0. -1.
         25    1    1    2    0    0  0.00000000000E+00  0.00000000000E+00  0.27692013220E+03  0.30382521228E+03  0.12500000000E+03 0.  0.
<mgrwt>
<rscale>  0 0.12500000E+03</rscale>
<asrwt>0</asrwt>
<pdfrwt beam="1">  1       21 0.44672714E-01 0.12500000E+03</pdfrwt>
<pdfrwt beam="2">  1       21 0.20696218E-02 0.12500000E+03</pdfrwt>
<totfact> 0.55139776E+06</totfact>
</mgrwt>
</event>
<event>
 3    1  0.1573868E-001  0.1250000E+03  0.7546771E-02  0.1235069E+00
         21   -1    0    0  502  501  0.00000000000E+00  0.00000000000E+00  0.19809832958E+03  0.19809832958E+03  0.00000000000E+00 0. -1.
         21   -1    0    0  501  502 -0.00000000000E+00 -0.00000000000E+00 -0.19718742749E+02  0.19718742749E+02  0.00000000000E+00 0. -1.
         25    1    1    2    0    0  0.00000000000E+00  0.00000000000E+00  0.17837958683E+03  0.21781707233E+03  0.12500000000E+03 0.  0.
<mgrwt>
<rscale>  0 0.12500000E+03</rscale>
<asrwt>0</asrwt>
<pdfrwt beam="1">  1       21 0.30476665E-01 0.12500000E+03</pdfrwt>
<pdfrwt beam="2">  1       21 0.30336529E-02 0.12500000E+03</pdfrwt>
<totfact> 0.63046360E+06</totfact>
</mgrwt>
</event>
<event>
 3    1  0.1573868E-001  0.1250000E+03  0.7546771E-02  0.1235069E+00
         21   -1    0    0  502  501  0.00000000000E+00  0.00000000000E+00  0.21610918997E+02  0.21610918997E+02  0.00000000000E+00 0.  1.
         21   -1    0    0  501  502 -0.00000000000E+00 -0.00000000000E+00 -0.18075353485E+03  0.18075353485E+03  0.00000000000E+00 0.  1.
         25    1    1    2    0    0  0.00000000000E+00  0.00000000000E+00 -0.15914261585E+03  0.20236445385E+03  0.12500000000E+03 0.  0.
<mgrwt>
<rscale>  0 0.12500000E+03</rscale>
<asrwt>0</asrwt>
<pdfrwt beam="1">  1       21 0.33247568E-02 0.12500000E+03</pdfrwt>
<pdfrwt beam="2">  1       21 0.27808236E-01 0.12500000E+03</pdfrwt>
<totfact> 0.64671945E+06</totfact>
</mgrwt>
</event>
<event>
 3    1  0.1573868E-001  0.1250000E+03  0.7546771E-02  0.1235069E+00
         21   -1    0    0  502  501  0.00000000000E+00  0.00000000000E+00  0.37347760527E+03  0.37347760527E+03  0.00000000000E+00 0.  1.
         21   -1    0    0  501  502 -0.00000000000E+00 -0.00000000000E+00 -0.10459127789E+02  0.10459127789E+02  0.00000000000E+00 0.  1.
         25    1    1    2    0    0  0.00000000000E+00  0.00000000000E+00  0.36301847749E+03  0.38393673306E+03  0.12500000000E+03 0.  0.
<mgrwt>
<rscale>  0 0.12500000E+03</rscale>
<asrwt>0</asrwt>
<pdfrwt beam="1">  1       21 0.57458083E-01 0.12500000E+03</pdfrwt>
<pdfrwt beam="2">  1       21 0.16090969E-02 0.12500000E+03</pdfrwt>
<totfact> 0.49125387E+06</totfact>
</mgrwt>
</event>
<event>
 3    1  0.1573868E-001  0.1250000E+03  0.7546771E-02  0.1235069E+00
         21   -1    0    0  502  501  0.00000000000E+00  0.00000000000E+00  0.23266345208E+03  0.23266345208E+03  0.00000000000E+00 0.  1.
         21   -1    0    0  501  502 -0.00000000000E+00 -0.00000000000E+00 -0.16789272080E+02  0.16789272080E+02  0.00000000000E+00 0.  1.
         25    1    1    2    0    0  0.00000000000E+00  0.00000000000E+00  0.21587418000E+03  0.24945272416E+03  0.12500000000E+03 0.  0.
<mgrwt>
<rscale>  0 0.12500000E+03</rscale>
<asrwt>0</asrwt>
<pdfrwt beam="1">  1       21 0.35794375E-01 0.12500000E+03</pdfrwt>
<pdfrwt beam="2">  1       21 0.25829651E-02 0.12500000E+03</pdfrwt>
<totfact> 0.59929754E+06</totfact>
</mgrwt>
</event>
<event>
 3    1  0.1573868E-001  0.1250000E+03  0.7546771E-02  0.1235069E+00
         21   -1    0    0  502  501  0.00000000000E+00  0.00000000000E+00  0.66744287652E+03  0.66744287652E+03  0.00000000000E+00 0. -1.
         21   -1    0    0  501  502 -0.00000000000E+00 -0.00000000000E+00 -0.58525607770E+01  0.58525607770E+01  0.00000000000E+00 0. -1.
         25    1    1    2    0    0  0.00000000000E+00  0.00000000000E+00  0.66159031574E+03  0.67329543730E+03  0.12500000000E+03 0.  0.
<mgrwt>
<rscale>  0 0.12500000E+03</rscale>
<asrwt>0</asrwt>
<pdfrwt beam="1">  1       21 0.10268346E+00 0.12500000E+03</pdfrwt>
<pdfrwt beam="2">  1       21 0.90039449E-03 0.12500000E+03</pdfrwt>
<totfact> 0.33965346E+06</totfact>
</mgrwt>
</event>
<event>
 3    1  0.1573868E-001  0.1250000E+03  0.7546771E-02  0.1235069E+00
         21   -1    0    0  502  501  0.00000000000E+00  0.00000000000E+00  0.10340335358E+02  0.10340335358E+02  0.00000000000E+00 0.  1.
         21   -1    0    0  501  502 -0.00000000000E+00 -0.00000000000E+00 -0.37776821204E+03  0.37776821204E+03  0.00000000000E+00 0.  1.
         25    1    1    2    0    0  0.00000000000E+00  0.00000000000E+00 -0.36742787668E+03  0.38810854740E+03  0.12500000000E+03 0.  0.
<mgrwt>
<rscale>  0 0.12500000E+03</rscale>
<asrwt>0</asrwt>
<pdfrwt beam="1">  1       21 0.15908209E-02 0.12500000E+03</pdfrwt>
<pdfrwt beam="2">  1       21 0.58118183E-01 0.12500000E+03</pdfrwt>
<totfact> 0.48840231E+06</totfact>
</mgrwt>
</event>
<event>
 3    1  0.1573868E-001  0.1250000E+03  0.7546771E-02  0.1235069E+00
         21   -1    0    0  502  501  0.00000000000E+00  0.00000000000E+00  0.37605335649E+02  0.37605335649E+02  0.00000000000E+00 0.  1.
         21   -1    0    0  501  502 -0.00000000000E+00 -0.00000000000E+00 -0.10387488724E+03  0.10387488724E+03  0.00000000000E+00 0.  1.
         25    1    1    2    0    0  0.00000000000E+00  0.00000000000E+00 -0.66269551587E+02  0.14148022289E+03  0.12500000000E+03 0.  0.
<mgrwt>
<rscale>  0 0.12500000E+03</rscale>
<asrwt>0</asrwt>
<pdfrwt beam="1">  1       21 0.57854363E-02 0.12500000E+03</pdfrwt>
<pdfrwt beam="2">  1       21 0.15980752E-01 0.12500000E+03</pdfrwt>
<totfact> 0.71846653E+06</totfact>
</mgrwt>
</event>
<event>
 3    1  0.1573868E-001  0.1250000E+03  0.7546771E-02  0.1235069E+00
         21   -1    0    0  502  501  0.00000000000E+00  0.00000000000E+00  0.14794767382E+03  0.14794767382E+03  0.00000000000E+00 0. -1.
         21   -1    0    0  501  502 -0.00000000000E+00 -0.00000000000E+00 -0.26402915971E+02  0.26402915971E+02  0.00000000000E+00 0. -1.
         25    1    1    2    0    0  0.00000000000E+00  0.00000000000E+00  0.12154475785E+03  0.17435058979E+03  0.12500000000E+03 0.  0.
<mgrwt>
<rscale>  0 0.12500000E+03</rscale>
<asrwt>0</asrwt>
<pdfrwt beam="1">  1       21 0.22761180E-01 0.12500000E+03</pdfrwt>
<pdfrwt beam="2">  1       21 0.40619872E-02 0.12500000E+03</pdfrwt>
<totfact> 0.67805604E+06</totfact>
</mgrwt>
</event>
<event>
 3    1  0.1573868E-001  0.1250000E+03  0.7546771E-02  0.1235069E+00
         21   -1    0    0  502  501  0.00000000000E+00  0.00000000000E+00  0.59479834025E+01  0.59479834025E+01  0.00000000000E+00 0.  1.
         21   -1    0    0  501  502 -0.00000000000E+00 -0.00000000000E+00 -0.65673518833E+03  0.65673518833E+03  0.00000000000E+00 0.  1.
         25    1    1    2    0    0  0.00000000000E+00  0.00000000000E+00 -0.65078720493E+03  0.66268317173E+03  0.12500000000E+03 0.  0.
<mgrwt>
<rscale>  0 0.12500000E+03</rscale>
<asrwt>0</asrwt>
<pdfrwt beam="1">  1       21 0.91507412E-03 0.12500000E+03</pdfrwt>
<pdfrwt beam="2">  1       21 0.10103621E+00 0.12500000E+03</pdfrwt>
<totfact> 0.34398964E+06</totfact>
</mgrwt>
</event>
<event>
 3    1  0.1573868E-001  0.1250000E+03  0.7546771E-02  0.1235069E+00
         21   -1    0    0  502  501  0.00000000000E+00  0.00000000000E+00  0.23830174726E+02  0.23830174726E+02  0.00000000000E+00 0. -1.
         21   -1    0    0  501  502 -0.00000000000E+00 -0.00000000000E+00 -0.16392032559E+03  0.16392032559E+03  0.00000000000E+00 0. -1.
         25    1    1    2    0    0  0.00000000000E+00  0.00000000000E+00 -0.14009015087E+03  0.18775050032E+03  0.12500000000E+03 0.  0.
<mgrwt>
<rscale>  0 0.12500000E+03</rscale>
<asrwt>0</asrwt>
<pdfrwt beam="1">  1       21 0.36661807E-02 0.12500000E+03</pdfrwt>
<pdfrwt beam="2">  1       21 0.25218512E-01 0.12500000E+03</pdfrwt>
<totfact> 0.66273351E+06</totfact>
</mgrwt>
</event>
<event>
 3    1  0.1573868E-001  0.1250000E+03  0.7546771E-02  0.1235069E+00
         21   -1    0    0  502  501  0.00000000000E+00  0.00000000000E+00  0.81746980654E+03  0.81746980654E+03  0.00000000000E+00 0.  1.
         21   -1    0    0  501  502 -0.00000000000E+00 -0.00000000000E+00 -0.47784639491E+01  0.47784639491E+01  0.00000000000E+00 0.  1.
         25    1    1    2    0    0  0.00000000000E+00  0.00000000000E+00  0.81269134259E+03  0.82224827048E+03  0.12500000000E+03 0.  0.
<mgrwt>
<rscale>  0 0.12500000E+03</rscale>
<asrwt>0</asrwt>
<pdfrwt beam="1">  1       21 0.12576447E+00 0.12500000E+03</pdfrwt>
<pdfrwt beam="2">  1       21 0.73514895E-03 0.12500000E+03</pdfrwt>
<totfact> 0.28638849E+06</totfact>
</mgrwt>
</event>
<event>
 3    1  0.1573868E-001  0.1250000E+03  0.7546771E-02  0.1235069E+00
         21   -1    0    0  502  501  0.00000000000E+00  0.00000000000E+00  0.32921335996E+03  0.32921335996E+03  0.00000000000E+00 0. -1.
         21   -1    0    0  501  502 -0.00000000000E+00 -0.00000000000E+00 -0.11865405464E+02  0.11865405464E+02  0.00000000000E+00 0. -1.
         25    1    1    2    0    0  0.00000000000E+00  0.00000000000E+00  0.31734795449E+03  0.34107876542E+03  0.12500000000E+03 0.  0.
<mgrwt>
<rscale>  0 0.12500000E+03</rscale>
<asrwt>0</asrwt>
<pdfrwt beam="1">  1       21 0.50648202E-01 0.12500000E+03</pdfrwt>
<pdfrwt beam="2">  1       21 0.18254472E-02 0.12500000E+03</pdfrwt>
<totfact> 0.52204118E+06</totfact>
</mgrwt>
</event>
<event>
 3    1  0.1573868E-001  0.1250000E+03  0.7546771E-02  0.1235069E+00
         21   -1    0    0  502  501  0.00000000000E+00  0.00000000000E+00  0.50108292123E+02  0.50108292123E+02  0.00000000000E+00 0. -1.
         21   -1    0    0  501  502 -0.00000000000E+00 -0.00000000000E+00 -0.77956159240E+02  0.77956159240E+02  0.00000000000E+00 0. -1.
         25    1    1    2    0    0  0.00000000000E+00  0.00000000000E+00 -0.27847867116E+02  0.12806445136E+03  0.12500000000E+03 0.  0.
<mgrwt>
<rscale>  0 0.12500000E+03</rscale>
<asrwt>0</asrwt>
<pdfrwt beam="1">  1       21 0.77089680E-02 0.12500000E+03</pdfrwt>
<pdfrwt beam="2">  1       21 0.11993255E-01 0.12500000E+03</pdfrwt>
<totfact> 0.73624854E+06</totfact>
</mgrwt>
</event>
<event>
 3    1  0.1573868E-001  0.1250000E+03  0.7546771E-02  0.1235069E+00
         21   -1    0    0  502  501  0.00000000000E+00  0.00000000000E+00  0.94173533766E+02  0.94173533766E+02  0.00000000000E+00 0.  1.
         21   -1    0    0  501  502 -0.00000000000E+00 -0.00000000000E+00 -0.41479276011E+02  0.41479276011E+02  0.00000000000E+00 0.  1.
         25    1    1    2    0    0  0.00000000000E+00  0.00000000000E+00  0.52694257755E+02  0.13565280978E+03  0.12500000000E+03 0.  0.
<mgrwt>
<rscale>  0 0.12500000E+03</rscale>
<asrwt>0</asrwt>
<pdfrwt beam="1">  1       21 0.14488236E-01 0.12500000E+03</pdfrwt>
<pdfrwt beam="2">  1       21 0.63814271E-02 0.12500000E+03</pdfrwt>
<totfact> 0.72610151E+06</totfact>
</mgrwt>
</event>
<event>
 3    1  0.1573868E-001  0.1250000E+03  0.7546771E-02  0.1235069E+00
         21   -1    0    0  502  501  0.00000000000E+00  0.00000000000E+00  0.21429810666E+02  0.21429810666E+02  0.00000000000E+00 0. -1.
         21   -1    0    0  501  502 -0.00000000000E+00 -0.00000000000E+00 -0.18228112515E+03  0.18228112515E+03  0.00000000000E+00 0. -1.
         25    1    1    2    0    0  0.00000000000E+00  0.00000000000E+00 -0.16085131448E+03  0.20371093582E+03  0.12500000000E+03 0.  0.
<mgrwt>
<rscale>  0 0.12500000E+03</rscale>
<asrwt>0</asrwt>
<pdfrwt beam="1">  1       21 0.32968940E-02 0.12500000E+03</pdfrwt>
<pdfrwt beam="2">  1       21 0.28043249E-01 0.12500000E+03</pdfrwt>
<totfact> 0.64527353E+06</totfact>
</mgrwt>
</event>
<event>
 3    1  0.1573868E-001  0.1250000E+03  0.7546771E-02  0.1235069E+00
         21   -1    0    0  502  501  0.00000000000E+00  0.00000000000E+00  0.29288341480E+02  0.29288341480E+02  0.00000000000E+00 0.  1.
         21   -1    0    0  501  502 -0.00000000000E+00 -0.00000000000E+00 -0.13337218165E+03  0.13337218165E+03  0.00000000000E+00 0.  1.
         25    1    1    2    0    0  0.00000000000E+00  0.00000000000E+00 -0.10408384017E+03  0.16266052313E+03  0.12500000000E+03 0.  0.
<mgrwt>
<rscale>  0 0.12500000E+03</rscale>
<asrwt>0</asrwt>
<pdfrwt beam="1">  1       21 0.45058986E-02 0.12500000E+03</pdfrwt>
<pdfrwt beam="2">  1       21 0.20518797E-01 0.12500000E+03</pdfrwt>
<totfact> 0.69195861E+06</totfact>
</mgrwt>
</event>
<event>
 3    1  0.1573868E-001  0.1250000E+03  0.7546771E-02  0.1235069E+00
         21   -1    0    0  502  501  0.00000000000E+00  0.00000000000E+00  0.92476431735E+02  0.92476431735E+02  0.00000000000E+00 0. -1.
         21   -1    0    0  501  502 -0.00000000000E+00 -0.00000000000E+00 -0.42240492272E+02  0.42240492272E+02  0.00000000000E+00 0. -1.
         25    1    1    2    0    0  0.00000000000E+00  0.00000000000E+00  0.50235939463E+02  0.13471692401E+03  0.12500000000E+03 0.  0.
<mgrwt>
<rscale>  0 0.12500000E+03</rscale>
<asrwt>0</asrwt>
<pdfrwt beam="1">  1       21 0.14227143E-01 0.12500000E+03</pdfrwt>
<pdfrwt beam="2">  1       21 0.64985373E-02 0.12500000E+03</pdfrwt>
<totfact> 0.72733975E+06</totfact>
</mgrwt>
</event>
<event>
 3    1  0.1573868E-001  0.1250000E+03  0.7546771E-02  0.1235069E+00
         21   -1    0    0  502  501  0.00000000000E+00  0.00000000000E+00  0.16477793404E+02  0.16477793404E+02  0.00000000000E+00 0.  1.
         21   -1    0    0  501  502 -0.00000000000E+00 -0.00000000000E+00 -0.23706147444E+03  0.23706147444E+03  0.00000000000E+00 0.  1.
         25    1    1    2    0    0  0.00000000000E+00  0.00000000000E+00 -0.22058368104E+03  0.25353926785E+03  0.12500000000E+03 0.  0.
<mgrwt>
<rscale>  0 0.12500000E+03</rscale>
<asrwt>0</asrwt>
<pdfrwt beam="1">  1       21 0.25350452E-02 0.12500000E+03</pdfrwt>
<pdfrwt beam="2">  1       21 0.36470995E-01 0.12500000E+03</pdfrwt>
<totfact> 0.59546564E+06</totfact>
</mgrwt>
</event>
<event>
 3    1  0.1573868E-001  0.1250000E+03  0.7546771E-02  0.1235069E+00
         21   -1    0    0  502  501  0.00000000000E+00  0.00000000000E+00  0.19961317679E+02  0.19961317679E+02  0.00000000000E+00 0.  1.
         21   -1    0    0  501  502 -0.00000000000E+00 -0.00000000000E+00 -0.19569098908E+03  0.19569098908E+03  0.00000000000E+00 0.  1.
         25    1    1    2    0    0  0.00000000000E+00  0.00000000000E+00 -0.17572967140E+03  0.21565230676E+03  0.12500000000E+03 0.  0.
<mgrwt>
<rscale>  0 0.12500000E+03</rscale>
<asrwt>0</asrwt>
<pdfrwt beam="1">  1       21 0.30709720E-02 0.12500000E+03</pdfrwt>
<pdfrwt beam="2">  1       21 0.30106306E-01 0.12500000E+03</pdfrwt>
<totfact> 0.63269711E+06</totfact>
</mgrwt>
</event>
<event>
 3    1  0.1573868E-001  0.1250000E+03  0.7546771E-02  0.1235069E+00
         21   -1    0    0  502  501  0.00000000000E+00  0.00000000000E+00  0.22228057412E+03  0.22228057412E+03  0.00000000000E+00 0.  1.
         21   -1    0    0  501  502 -0.00000000000E+00 -0.00000000000E+00 -0.17573510486E+02  0.17573510486E+02  0.00000000000E+00 0.  1.
         25    1    1    2    0    0  0.00000000000E+00  0.00000000000E+00  0.20470706363E+03  0.23985408460E+03  0.12500000000E+03 0.  0.
<mgrwt>
<rscale>  0 0.12500000E+03</rscale>
<asrwt>0</asrwt>
<pdfrwt beam="1">  1       21 0.34197009E-01 0.12500000E+03</pdfrwt>
<pdfrwt beam="2">  1       21 0.27036172E-02 0.12500000E+03</pdfrwt>
<totfact> 0.60846786E+06</totfact>
</mgrwt>
</event>
<event>
 3    1  0.1573868E-001  0.1250000E+03  0.7546771E-02  0.1235069E+00
         21   -1    0    0  502  501  0.00000000000E+00  0.00000000000E+00  0.24174323741E+02  0.24174323741E+02  0.00000000000E+00 0.  1.
         21   -1    0    0  501  502 -0.00000000000E+00 -0.00000000000E+00 -0.16158673318E+03  0.16158673318E+03  0.00000000000E+00 0.  1.
         25    1    1    2    0    0  0.00000000000E+00  0.00000000000E+00 -0.13741240943E+03  0.18576105692E+03  0.12500000000E+03 0.  0.
<mgrwt>
<rscale>  0 0.12500000E+03</rscale>
<asrwt>0</asrwt>
<pdfrwt beam="1">  1       21 0.37191267E-02 0.12500000E+03</pdfrwt>
<pdfrwt beam="2">  1       21 0.24859498E-01 0.12500000E+03</pdfrwt>
<totfact> 0.66496712E+06</totfact>
</mgrwt>
</event>
<event>
 3    1  0.1573868E-001  0.1250000E+03  0.7546771E-02  0.1235069E+00
         21   -1    0    0  502  501  0.00000000000E+00  0.00000000000E+00  0.21336321698E+02  0.21336321698E+02  0.00000000000E+00 0. -1.
         21   -1    0    0  501  502 -0.00000000000E+00 -0.00000000000E+00 -0.18307982300E+03  0.18307982300E+03  0.00000000000E+00 0. -1.
         25    1    1    2    0    0  0.00000000000E+00  0.00000000000E+00 -0.16174350130E+03  0.20441614470E+03  0.12500000000E+03 0.  0.
<mgrwt>
<rscale>  0 0.12500000E+03</rscale>
<asrwt>0</asrwt>
<pdfrwt beam="1">  1       21 0.32825109E-02 0.12500000E+03</pdfrwt>
<pdfrwt beam="2">  1       21 0.28166128E-01 0.12500000E+03</pdfrwt>
<totfact> 0.64451851E+06</totfact>
</mgrwt>
</event>
<event>
 3    1  0.1573868E-001  0.1250000E+03  0.7546771E-02  0.1235069E+00
         21   -1    0    0  502  501  0.00000000000E+00  0.00000000000E+00  0.39634167557E+02  0.39634167557E+02  0.00000000000E+00 0.  1.
         21   -1    0    0  501  502 -0.00000000000E+00 -0.00000000000E+00 -0.98557639551E+02  0.98557639551E+02  0.00000000000E+00 0.  1.
         25    1    1    2    0    0  0.00000000000E+00  0.00000000000E+00 -0.58923471993E+02  0.13819180711E+03  0.12500000000E+03 0.  0.
<mgrwt>
<rscale>  0 0.12500000E+03</rscale>
<asrwt>0</asrwt>
<pdfrwt beam="1">  1       21 0.60975643E-02 0.12500000E+03</pdfrwt>
<pdfrwt beam="2">  1       21 0.15162714E-01 0.12500000E+03</pdfrwt>
<totfact> 0.72276252E+06</totfact>
</mgrwt>
</event>
<event>
 3    1  0.1573868E-001  0.1250000E+03  0.7546771E-02  0.1235069E+00
         21   -1    0    0  502  501  0.00000000000E+00  0.00000000000E+00  0.23884564115E+03  0.23884564115E+03  0.00000000000E+00 0.  1.
         21   -1    0    0  501  502 -0.00000000000E+00 -0.00000000000E+00 -0.16354704994E+02  0.16354704994E+02  0.00000000000E+00 0.  1.
         25    1    1    2    0    0  0.00000000000E+00  0.00000000000E+00  0.22249093616E+03  0.25520034614E+03  0.12500000000E+03 0.  0.
<mgrwt>
<rscale>  0 0.12500000E+03</rscale>
<asrwt>0</asrwt>
<pdfrwt beam="1">  1       21 0.36745481E-01 0.12500000E+03</pdfrwt>
<pdfrwt beam="2">  1       21 0.25161086E-02 0.12500000E+03</pdfrwt>
<totfact> 0.59392011E+06</totfact>
</mgrwt>
</event>
<event>
 3    1  0.1573868E-001  0.1250000E+03  0.7546771E-02  0.1235069E+00
         21   -1    0    0  502  501  0.00000000000E+00  0.00000000000E+00  0.41314041556E+01  0.41314041556E+01  0.00000000000E+00 0.  1.
         21   -1    0    0  501  502 -0.00000000000E+00 -0.00000000000E+00 -0.94550178412E+03  0.94550178412E+03  0.00000000000E+00 0.  1.
         25    1    1    2    0    0  0.00000000000E+00  0.00000000000E+00 -0.94137037996E+03  0.94963318827E+03  0.12500000000E+03 0.  0.
<mgrwt>
<rscale>  0 0.12500000E+03</rscale>
<asrwt>0</asrwt>
<pdfrwt beam="1">  1       21 0.63560097E-03 0.12500000E+03</pdfrwt>
<pdfrwt beam="2">  1       21 0.14546174E+00 0.12500000E+03</pdfrwt>
<totfact> 0.24921240E+06</totfact>
</mgrwt>
</event>
<event>
 3    1  0.1573868E-001  0.1250000E+03  0.7546771E-02  0.1235069E+00
         21   -1    0    0  502  501  0.00000000000E+00  0.00000000000E+00  0.16931193062E+03  0.16931193062E+03  0.00000000000E+00 0.  1.
         21   -1    0    0  501  502 -0.00000000000E+00 -0.00000000000E+00 -0.23071321588E+02  0.23071321588E+02  0.00000000000E+00 0.  1.
         25    1    1    2    0    0  0.00000000000E+00  0.00000000000E+00  0.14624060903E+03  0.19238325221E+03  0.12500000000E+03 0.  0.
<mgrwt>
<rscale>  0 0.12500000E+03</rscale>
<asrwt>0</asrwt>
<pdfrwt beam="1">  1       21 0.26047988E-01 0.12500000E+03</pdfrwt>
<pdfrwt beam="2">  1       21 0.35494342E-02 0.12500000E+03</pdfrwt>
<totfact> 0.65758563E+06</totfact>
</mgrwt>
</event>
<event>
 3    1  0.1573868E-001  0.1250000E+03  0.7546771E-02  0.1235069E+00
         21   -1    0    0  502  501  0.00000000000E+00  0.00000000000E+00  0.41585715406E+02  0.41585715406E+02  0.00000000000E+00 0.  1.
         21   -1    0    0  501  502 -0.00000000000E+00 -0.00000000000E+00 -0.93932494892E+02  0.93932494892E+02  0.00000000000E+00 0.  1.
         25    1    1    2    0    0  0.00000000000E+00  0.00000000000E+00 -0.52346779486E+02  0.13551821030E+03  0.12500000000E+03 0.  0.
<mgrwt>
<rscale>  0 0.12500000E+03</rscale>
<asrwt>0</asrwt>
<pdfrwt beam="1">  1       21 0.63978024E-02 0.12500000E+03</pdfrwt>
<pdfrwt beam="2">  1       21 0.14451153E-01 0.12500000E+03</pdfrwt>
<totfact> 0.72627930E+06</totfact>
</mgrwt>
</event>
<event>
 3    1  0.1573868E-001  0.1250000E+03  0.7546771E-02  0.1235069E+00
         21   -1    0    0  502  501  0.00000000000E+00  0.00000000000E+00  0.60777997874E+03  0.60777997874E+03  0.00000000000E+00 0. -1.
         21   -1    0    0  501  502 -0.00000000000E+00 -0.00000000000E+00 -0.64270791020E+01  0.64270791020E+01  0.00000000000E+00 0. -1.
         25    1    1    2    0    0  0.00000000000E+00  0.00000000000E+00  0.60135289964E+03  0.61420705784E+03  0.12500000000E+03 0.  0.
<mgrwt>
<rscale>  0 0.12500000E+03</rscale>
<asrwt>0</asrwt>
<pdfrwt beam="1">  1       21 0.93504567E-01 0.12500000E+03</pdfrwt>
<pdfrwt beam="2">  1       21 0.98878188E-03 0.12500000E+03</pdfrwt>
<totfact> 0.36457929E+06</totfact>
</mgrwt>
</event>
<event>
 3    1  0.1573868E-001  0.1250000E+03  0.7546771E-02  0.1235069E+00
         21   -1    0    0  502  501  0.00000000000E+00  0.00000000000E+00  0.89053148966E+03  0.89053148966E+03  0.00000000000E+00 0.  1.
         21   -1    0    0  501  502 -0.00000000000E+00 -0.00000000000E+00 -0.43864254609E+01  0.43864254609E+01  0.00000000000E+00 0.  1.
         25    1    1    2    0    0  0.00000000000E+00  0.00000000000E+00  0.88614506420E+03  0.89491791512E+03  0.12500000000E+03 0.  0.
<mgrwt>
<rscale>  0 0.12500000E+03</rscale>
<asrwt>0</asrwt>
<pdfrwt beam="1">  1       21 0.13700470E+00 0.12500000E+03</pdfrwt>
<pdfrwt beam="2">  1       21 0.67483539E-03 0.12500000E+03</pdfrwt>
<totfact> 0.26445790E+06</totfact>
</mgrwt>
</event>
<event>
 3    1  0.1573868E-001  0.1250000E+03  0.7546771E-02  0.1235069E+00
         21   -1    0    0  502  501  0.00000000000E+00  0.00000000000E+00  0.13963327533E+02  0.13963327533E+02  0.00000000000E+00 0.  1.
         21   -1    0    0  501  502 -0.00000000000E+00 -0.00000000000E+00 -0.27975065332E+03  0.27975065332E+03  0.00000000000E+00 0.  1.
         25    1    1    2    0    0  0.00000000000E+00  0.00000000000E+00 -0.26578732579E+03  0.29371398086E+03  0.12500000000E+03 0.  0.
<mgrwt>
<rscale>  0 0.12500000E+03</rscale>
<asrwt>0</asrwt>
<pdfrwt beam="1">  1       21 0.21482044E-02 0.12500000E+03</pdfrwt>
<pdfrwt beam="2">  1       21 0.43038559E-01 0.12500000E+03</pdfrwt>
<totfact> 0.55982647E+06</totfact>
</mgrwt>
</event>
<event>
 3    1  0.1573868E-001  0.1250000E+03  0.7546771E-02  0.1235069E+00
         21   -1    0    0  502  501  0.00000000000E+00  0.00000000000E+00  0.28188405182E+02  0.28188405182E+02  0.00000000000E+00 0.  1.
         21   -1    0    0  501  502 -0.00000000000E+00 -0.00000000000E+00 -0.13857648117E+03  0.13857648117E+03  0.00000000000E+00 0.  1.
         25    1    1    2    0    0  0.00000000000E+00  0.00000000000E+00 -0.11038807599E+03  0.16676488635E+03  0.12500000000E+03 0.  0.
<mgrwt>
<rscale>  0 0.12500000E+03</rscale>
<asrwt>0</asrwt>
<pdfrwt beam="1">  1       21 0.43366777E-02 0.12500000E+03</pdfrwt>
<pdfrwt beam="2">  1       21 0.21319459E-01 0.12500000E+03</pdfrwt>
<totfact> 0.68702202E+06</totfact>
</mgrwt>
</event>
<event>
 3    1  0.1573868E-001  0.1250000E+03  0.7546771E-02  0.1235069E+00
         21   -1    0    0  502  501  0.00000000000E+00  0.00000000000E+00  0.85091190095E+03  0.85091190095E+03  0.00000000000E+00 0. -1.
         21   -1    0    0  501  502 -0.00000000000E+00 -0.00000000000E+00 -0.45906632586E+01  0.45906632586E+01  0.00000000000E+00 0. -1.
         25    1    1    2    0    0  0.00000000000E+00  0.00000000000E+00  0.84632123769E+03  0.85550256421E+03  0.12500000000E+03 0.  0.
<mgrwt>
<rscale>  0 0.12500000E+03</rscale>
<asrwt>0</asrwt>
<pdfrwt beam="1">  1       21 0.13090940E+00 0.12500000E+03</pdfrwt>
<pdfrwt beam="2">  1       21 0.70625656E-03 0.12500000E+03</pdfrwt>
<totfact> 0.27604381E+06</totfact>
</mgrwt>
</event>
<event>
 3    1  0.1573868E-001  0.1250000E+03  0.7546771E-02  0.1235069E+00
         21   -1    0    0  502  501  0.00000000000E+00  0.00000000000E+00  0.67248360701E+02  0.67248360701E+02  0.00000000000E+00 0. -1.
         21   -1    0    0  501  502 -0.00000000000E+00 -0.00000000000E+00 -0.58086917797E+02  0.58086917797E+02  0.00000000000E+00 0. -1.
         25    1    1    2    0    0  0.00000000000E+00  0.00000000000E+00  0.91614429043E+01  0.12533527850E+03  0.12500000000E+03 0.  0.
<mgrwt>
<rscale>  0 0.12500000E+03</rscale>
<asrwt>0</asrwt>
<pdfrwt beam="1">  1       21 0.10345902E-01 0.12500000E+03</pdfrwt>
<pdfrwt beam="2">  1       21 0.89364489E-02 0.12500000E+03</pdfrwt>
<totfact> 0.73998309E+06</totfact>
</mgrwt>
</event>
<event>
 3    1  0.1573868E-001  0.1250000E+03  0.7546771E-02  0.1235069E+00
         21   -1    0    0  502  501  0.00000000000E+00  0.00000000000E+00  0.41089717949E+03  0.41089717949E+03  0.00000000000E+00 0.  1.
         21   -1    0    0  501  502 -0.00000000000E+00 -0.00000000000E+00 -0.95066361974E+01  0.95066361974E+01  0.00000000000E+00 0.  1.
         25    1    1    2    0    0  0.00000000000E+00  0.00000000000E+00  0.40139054330E+03  0.42040381569E+03  0.12500000000E+03 0.  0.
<mgrwt>
<rscale>  0 0.12500000E+03</rscale>
<asrwt>0</asrwt>
<pdfrwt beam="1">  1       21 0.63214937E-01 0.12500000E+03</pdfrwt>
<pdfrwt beam="2">  1       21 0.14625597E-02 0.12500000E+03</pdfrwt>
<totfact> 0.46716799E+06</totfact>
</mgrwt>
</event>
<event>
 3    1  0.1573868E-001  0.1250000E+03  0.7546771E-02  0.1235069E+00
         21   -1    0    0  502  501  0.00000000000E+00  0.00000000000E+00  0.10030002125E+02  0.10030002125E+02  0.00000000000E+00 0. -1.
         21   -1    0    0  501  502 -0.00000000000E+00 -0.00000000000E+00 -0.38945654760E+03  0.38945654760E+03  0.00000000000E+00 0. -1.
         25    1    1    2    0    0  0.00000000000E+00  0.00000000000E+00 -0.37942654547E+03  0.39948654972E+03  0.12500000000E+03 0.  0.
<mgrwt>
<rscale>  0 0.12500000E+03</rscale>
<asrwt>0</asrwt>
<pdfrwt beam="1">  1       21 0.15430774E-02 0.12500000E+03</pdfrwt>
<pdfrwt beam="2">  1       21 0.59916387E-01 0.12500000E+03</pdfrwt>
<totfact> 0.48075428E+06</totfact>
</mgrwt>
</event>
<event>
 3    1  0.1573868E-001  0.1250000E+03  0.7546771E-02  0.1235069E+00
         21   -1    0    0  502  501  0.00000000000E+00  0.00000000000E+00  0.21952539099E+02  0.21952539099E+02  0.00000000000E+00 0. -1.
         21   -1    0    0  501  502 -0.00000000000E+00 -0.00000000000E+00 -0.17794069207E+03  0.17794069207E+03  0.00000000000E+00 0. -1.
         25    1    1    2    0    0  0.00000000000E+00  0.00000000000E+00 -0.15598815297E+03  0.19989323117E+03  0.12500000000E+03 0.  0.
<mgrwt>
<rscale>  0 0.12500000E+03</rscale>
<asrwt>0</asrwt>
<pdfrwt beam="1">  1       21 0.33773138E-02 0.12500000E+03</pdfrwt>
<pdfrwt beam="2">  1       21 0.27375491E-01 0.12500000E+03</pdfrwt>
<totfact> 0.64938823E+06</totfact>
</mgrwt>
</event>
<event>
 3    1  0.1573868E-001  0.1250000E+03  0.7546771E-02  0.1235069E+00
         21   -1    0    0  502  501  0.00000000000E+00  0.00000000000E+00  0.37067096275E+01  0.37067096275E+01  0.00000000000E+00 0.  1.
         21   -1    0    0  501  502 -0.00000000000E+00 -0.00000000000E+00 -0.10538322104E+04  0.10538322104E+04  0.00000000000E+00 0.  1.
         25    1    1    2    0    0  0.00000000000E+00  0.00000000000E+00 -0.10501255008E+04  0.10575389200E+04  0.12500000000E+03 0.  0.
<mgrwt>
<rscale>  0 0.12500000E+03</rscale>
<asrwt>0</asrwt>
<pdfrwt beam="1">  1       21 0.57026276E-03 0.12500000E+03</pdfrwt>
<pdfrwt beam="2">  1       21 0.16212811E+00 0.12500000E+03</pdfrwt>
<totfact> 0.22221278E+06</totfact>
</mgrwt>
</event>
<event>
 3    1  0.1573868E-001  0.1250000E+03  0.7546771E-02  0.1235069E+00
         21   -1    0    0  502  501  0.00000000000E+00  0.00000000000E+00  0.43167369839E+02  0.43167369839E+02  0.00000000000E+00 0.  1.
         21   -1    0    0  501  502 -0.00000000000E+00 -0.00000000000E+00 -0.90490803923E+02  0.90490803923E+02  0.00000000000E+00 0.  1.
         25    1    1    2    0    0  0.00000000000E+00  0.00000000000E+00 -0.47323434084E+02  0.13365817376E+03  0.12500000000E+03 0.  0.
<mgrwt>
<rscale>  0 0.12500000E+03</rscale>
<asrwt>0</asrwt>
<pdfrwt beam="1">  1       21 0.66411339E-02 0.12500000E+03</pdfrwt>
<pdfrwt beam="2">  1       21 0.13921662E-01 0.12500000E+03</pdfrwt>
<totfact> 0.72874635E+06</totfact>
</mgrwt>
</event>
<event>
 3    1  0.1573868E-001  0.1250000E+03  0.7546771E-02  0.1235069E+00
         21   -1    0    0  502  501  0.00000000000E+00  0.00000000000E+00  0.86937319627E+02  0.86937319627E+02  0.00000000000E+00 0. -1.
         21   -1    0    0  501  502 -0.00000000000E+00 -0.00000000000E+00 -0.44931797032E+02  0.44931797032E+02  0.00000000000E+00 0. -1.
         25    1    1    2    0    0  0.00000000000E+00  0.00000000000E+00  0.42005522595E+02  0.13186911666E+03  0.12500000000E+03 0.  0.
<mgrwt>
<rscale>  0 0.12500000E+03</rscale>
<asrwt>0</asrwt>
<pdfrwt beam="1">  1       21 0.13374972E-01 0.12500000E+03</pdfrwt>
<pdfrwt beam="2">  1       21 0.69125841E-02 0.12500000E+03</pdfrwt>
<totfact> 0.73113790E+06</totfact>
</mgrwt>
</event>
<event>
 3    1  0.1573868E-001  0.1250000E+03  0.7546771E-02  0.1235069E+00
         21   -1    0    0  502  501  0.00000000000E+00  0.00000000000E+00  0.10328038879E+02  0.10328038879E+02  0.00000000000E+00 0. -1.
         21   -1    0    0  501  502 -0.00000000000E+00 -0.00000000000E+00 -0.37821797977E+03  0.37821797977E+03  0.00000000000E+00 0. -1.
         25    1    1    2    0    0  0.00000000000E+00  0.00000000000E+00 -0.36788994089E+03  0.38854601865E+03  0.12500000000E+03 0.  0.
<mgrwt>
<rscale>  0 0.12500000E+03</rscale>
<asrwt>0</asrwt>
<pdfrwt beam="1">  1       21 0.15889290E-02 0.12500000E+03</pdfrwt>
<pdfrwt beam="2">  1       21 0.58187383E-01 0.12500000E+03</pdfrwt>
<totfact> 0.48810476E+06</totfact>
</mgrwt>
</event>
<event>
 3    1  0.1573868E-001  0.1250000E+03  0.7546771E-02  0.1235069E+00
         21   -1    0    0  502  501  0.00000000000E+00  0.00000000000E+00  0.38970909720E+02  0.38970909720E+02  0.00000000000E+00 0. -1.
         21   -1    0    0  501  502 -0.00000000000E+00 -0.00000000000E+00 -0.10023502218E+03  0.10023502218E+03  0.00000000000E+00 0. -1.
         25    1    1    2    0    0  0.00000000000E+00  0.00000000000E+00 -0.61264112456E+02  0.13920593190E+03  0.12500000000E+03 0.  0.
<mgrwt>
<rscale>  0 0.12500000E+03</rscale>
<asrwt>0</asrwt>
<pdfrwt beam="1">  1       21 0.59955246E-02 0.12500000E+03</pdfrwt>
<pdfrwt beam="2">  1       21 0.15420773E-01 0.12500000E+03</pdfrwt>
<totfact> 0.72143142E+06</totfact>
</mgrwt>
</event>
<event>
 3    1  0.1573868E-001  0.1250000E+03  0.7546771E-02  0.1235069E+00
         21   -1    0    0  502  501  0.00000000000E+00  0.00000000000E+00  0.40473494751E+01  0.40473494751E+01  0.00000000000E+00 0.  1.
         21   -1    0    0  501  502 -0.00000000000E+00 -0.00000000000E+00 -0.96513780785E+03  0.96513780785E+03  0.00000000000E+00 0.  1.
         25    1    1    2    0    0  0.00000000000E+00  0.00000000000E+00 -0.96109045838E+03  0.96918515733E+03  0.12500000000E+03 0.  0.
<mgrwt>
<rscale>  0 0.12500000E+03</rscale>
<asrwt>0</asrwt>
<pdfrwt beam="1">  1       21 0.62266939E-03 0.12500000E+03</pdfrwt>
<pdfrwt beam="2">  1       21 0.14848268E+00 0.12500000E+03</pdfrwt>
<totfact> 0.24404698E+06</totfact>
</mgrwt>
</event>
<event>
 3    1  0.1573868E-001  0.1250000E+03  0.7546771E-02  0.1235069E+00
         21   -1    0    0  502  501  0.00000000000E+00  0.00000000000E+00  0.26942918611E+02  0.26942918611E+02  0.00000000000E+00 0.  1.
         21   -1    0    0  501  502 -0.00000000000E+00 -0.00000000000E+00 -0.14498243700E+03  0.14498243700E+03  0.00000000000E+00 0.  1.
         25    1    1    2    0    0  0.00000000000E+00  0.00000000000E+00 -0.11803951839E+03  0.17192535561E+03  0.12500000000E+03 0.  0.
<mgrwt>
<rscale>  0 0.12500000E+03</rscale>
<asrwt>0</asrwt>
<pdfrwt beam="1">  1       21 0.41450644E-02 0.12500000E+03</pdfrwt>
<pdfrwt beam="2">  1       21 0.22304990E-01 0.12500000E+03</pdfrwt>
<totfact> 0.68090126E+06</totfact>
</mgrwt>
</event>
<event>
 3    1  0.1573868E-001  0.1250000E+03  0.7546771E-02  0.1235069E+00
         21   -1    0    0  502  501  0.00000000000E+00  0.00000000000E+00  0.22409498143E+02  0.22409498143E+02  0.00000000000E+00 0. -1.
         21   -1    0    0  501  502 -0.00000000000E+00 -0.00000000000E+00 -0.17431224810E+03  0.17431224810E+03  0.00000000000E+00 0. -1.
         25    1    1    2    0    0  0.00000000000E+00  0.00000000000E+00 -0.15190274996E+03  0.19672174624E+03  0.12500000000E+03 0.  0.
<mgrwt>
<rscale>  0 0.12500000E+03</rscale>
<asrwt>0</asrwt>
<pdfrwt beam="1">  1       21 0.34476151E-02 0.12500000E+03</pdfrwt>
<pdfrwt beam="2">  1       21 0.26817269E-01 0.12500000E+03</pdfrwt>
<totfact> 0.65283074E+06</totfact>
</mgrwt>
</event>
<event>
 3    1  0.1573868E-001  0.1250000E+03  0.7546771E-02  0.1235069E+00
         21   -1    0    0  502  501  0.00000000000E+00  0.00000000000E+00  0.36123192542E+02  0.36123192542E+02  0.00000000000E+00 0. -1.
         21   -1    0    0  501  502 -0.00000000000E+00 -0.00000000000E+00 -0.10813689835E+03  0.10813689835E+03  0.00000000000E+00 0. -1.
         25    1    1    2    0    0  0.00000000000E+00  0.00000000000E+00 -0.72013705808E+02  0.14426009089E+03  0.12500000000E+03 0.  0.
<mgrwt>
<rscale>  0 0.12500000E+03</rscale>
<asrwt>0</asrwt>
<pdfrwt beam="1">  1       21 0.55574143E-02 0.12500000E+03</pdfrwt>
<pdfrwt beam="2">  1       21 0.16636446E-01 0.12500000E+03</pdfrwt>
<totfact> 0.71487924E+06</totfact>
</mgrwt>
</event>
<event>
 3    1  0.1573868E-001  0.1250000E+03  0.7546771E-02  0.1235069E+00
         21   -1    0    0  502  501  0.00000000000E+00  0.00000000000E+00  0.16564000365E+03  0.16564000365E+03  0.00000000000E+00 0.  1.
         21   -1    0    0  501  502 -0.00000000000E+00 -0.00000000000E+00 -0.23582769342E+02  0.23582769342E+02  0.00000000000E+00 0.  1.
         25    1    1    2    0    0  0.00000000000E+00  0.00000000000E+00  0.14205723431E+03  0.18922277299E+03  0.12500000000E+03 0.  0.
<mgrwt>
<rscale>  0 0.12500000E+03</rscale>
<asrwt>0</asrwt>
<pdfrwt beam="1">  1       21 0.25483077E-01 0.12500000E+03</pdfrwt>
<pdfrwt beam="2">  1       21 0.36281185E-02 0.12500000E+03</pdfrwt>
<totfact> 0.66108950E+06</totfact>
</mgrwt>
</event>
<event>
 3    1  0.1573868E-001  0.1250000E+03  0.7546771E-02  0.1235069E+00
         21   -1    0    0  502  501  0.00000000000E+00  0.00000000000E+00  0.32431122114E+03  0.32431122114E+03  0.00000000000E+00 0. -1.
         21   -1    0    0  501  502 -0.00000000000E+00 -0.00000000000E+00 -0.12044757459E+02  0.12044757459E+02  0.00000000000E+00 0. -1.
         25    1    1    2    0    0  0.00000000000E+00  0.00000000000E+00  0.31226646368E+03  0.33635597860E+03  0.12500000000E+03 0.  0.
<mgrwt>
<rscale>  0 0.12500000E+03</rscale>
<asrwt>0</asrwt>
<pdfrwt beam="1">  1       21 0.49894027E-01 0.12500000E+03</pdfrwt>
<pdfrwt beam="2">  1       21 0.18530399E-02 0.12500000E+03</pdfrwt>
<totfact> 0.52562146E+06</totfact>
</mgrwt>
</event>
<event>
 3    1  0.1573868E-001  0.1250000E+03  0.7546771E-02  0.1235069E+00
         21   -1    0    0  502  501  0.00000000000E+00  0.00000000000E+00  0.24781614232E+03  0.24781614232E+03  0.00000000000E+00 0.  1.
         21   -1    0    0  501  502 -0.00000000000E+00 -0.00000000000E+00 -0.15762693921E+02  0.15762693921E+02  0.00000000000E+00 0.  1.
         25    1    1    2    0    0  0.00000000000E+00  0.00000000000E+00  0.23205344840E+03  0.26357883624E+03  0.12500000000E+03 0.  0.
<mgrwt>
<rscale>  0 0.12500000E+03</rscale>
<asrwt>0</asrwt>
<pdfrwt beam="1">  1       21 0.38125557E-01 0.12500000E+03</pdfrwt>
<pdfrwt beam="2">  1       21 0.24250300E-02 0.12500000E+03</pdfrwt>
<totfact> 0.58622798E+06</totfact>
</mgrwt>
</event>
<event>
 3    1  0.1573868E-001  0.1250000E+03  0.7546771E-02  0.1235069E+00
         21   -1    0    0  502  501  0.00000000000E+00  0.00000000000E+00  0.60759724347E+03  0.60759724347E+03  0.00000000000E+00 0. -1.
         21   -1    0    0  501  502 -0.00000000000E+00 -0.00000000000E+00 -0.64290120503E+01  0.64290120503E+01  0.00000000000E+00 0. -1.
         25    1    1    2    0    0  0.00000000000E+00  0.00000000000E+00  0.60116823142E+03  0.61402625552E+03  0.12500000000E+03 0.  0.
<mgrwt>
<rscale>  0 0.12500000E+03</rscale>
<asrwt>0</asrwt>
<pdfrwt beam="1">  1       21 0.93476454E-01 0.12500000E+03</pdfrwt>
<pdfrwt beam="2">  1       21 0.98907925E-03 0.12500000E+03</pdfrwt>
<totfact> 0.36465910E+06</totfact>
</mgrwt>
</event>
<event>
 3    1  0.1573868E-001  0.1250000E+03  0.7546771E-02  0.1235069E+00
         21   -1    0    0  502  501  0.00000000000E+00  0.00000000000E+00  0.22260374267E+03  0.22260374267E+03  0.00000000000E+00 0. -1.
         21   -1    0    0  501  502 -0.00000000000E+00 -0.00000000000E+00 -0.17547997860E+02  0.17547997860E+02  0.00000000000E+00 0. -1.
         25    1    1    2    0    0  0.00000000000E+00  0.00000000000E+00  0.20505574481E+03  0.24015174053E+03  0.12500000000E+03 0.  0.
<mgrwt>
<rscale>  0 0.12500000E+03</rscale>
<asrwt>0</asrwt>
<pdfrwt beam="1">  1       21 0.34246728E-01 0.12500000E+03</pdfrwt>
<pdfrwt beam="2">  1       21 0.26996921E-02 0.12500000E+03</pdfrwt>
<totfact> 0.60817983E+06</totfact>
</mgrwt>
</event>
<event>
 3    1  0.1573868E-001  0.1250000E+03  0.7546771E-02  0.1235069E+00
         21   -1    0    0  502  501  0.00000000000E+00  0.00000000000E+00  0.90482192992E+02  0.90482192992E+02  0.00000000000E+00 0.  1.
         21   -1    0    0  501  502 -0.00000000000E+00 -0.00000000000E+00 -0.43171477954E+02  0.43171477954E+02  0.00000000000E+00 0.  1.
         25    1    1    2    0    0  0.00000000000E+00  0.00000000000E+00  0.47310715038E+02  0.13365367095E+03  0.12500000000E+03 0.  0.
<mgrwt>
<rscale>  0 0.12500000E+03</rscale>
<asrwt>0</asrwt>
<pdfrwt beam="1">  1       21 0.13920337E-01 0.12500000E+03</pdfrwt>
<pdfrwt beam="2">  1       21 0.66417658E-02 0.12500000E+03</pdfrwt>
<totfact> 0.72875235E+06</totfact>
</mgrwt>
</event>
<event>
 3    1  0.1573868E-001  0.1250000E+03  0.7546771E-02  0.1235069E+00
         21   -1    0    0  502  501  0.00000000000E+00  0.00000000000E+00  0.20130605364E+03  0.20130605364E+03  0.00000000000E+00 0.  1.
         21   -1    0    0  501  502 -0.00000000000E+00 -0.00000000000E+00 -0.19404533194E+02  0.19404533194E+02  0.00000000000E+00 0.  1.
         25    1    1    2    0    0  0.00000000000E+00  0.00000000000E+00  0.18190152044E+03  0.22071058683E+03  0.12500000000E+03 0.  0.
<mgrwt>
<rscale>  0 0.12500000E+03</rscale>
<asrwt>0</asrwt>
<pdfrwt beam="1">  1       21 0.30970161E-01 0.12500000E+03</pdfrwt>
<pdfrwt beam="2">  1       21 0.29853129E-02 0.12500000E+03</pdfrwt>
<totfact> 0.62749978E+06</totfact>
</mgrwt>
</event>
<event>
 3    1  0.1573868E-001  0.1250000E+03  0.7546771E-02  0.1235069E+00
         21   -1    0    0  502  501  0.00000000000E+00  0.00000000000E+00  0.86183565706E+02  0.86183565706E+02  0.00000000000E+00 0. -1.
         21   -1    0    0  501  502 -0.00000000000E+00 -0.00000000000E+00 -0.45324766596E+02  0.45324766596E+02  0.00000000000E+00 0. -1.
         25    1    1    2    0    0  0.00000000000E+00  0.00000000000E+00  0.40858799110E+02  0.13150833230E+03  0.12500000000E+03 0.  0.
<mgrwt>
<rscale>  0 0.12500000E+03</rscale>
<asrwt>0</asrwt>
<pdfrwt beam="1">  1       21 0.13259010E-01 0.12500000E+03</pdfrwt>
<pdfrwt beam="2">  1       21 0.69730410E-02 0.12500000E+03</pdfrwt>
<totfact> 0.73162251E+06</totfact>
</mgrwt>
</event>
<event>
 3    1  0.1573868E-001  0.1250000E+03  0.7546771E-02  0.1235069E+00
         21   -1    0    0  502  501  0.00000000000E+00  0.00000000000E+00  0.81927977530E+02  0.81927977530E+02  0.00000000000E+00 0.  1.
         21   -1    0    0  501  502 -0.00000000000E+00 -0.00000000000E+00 -0.47679072739E+02  0.47679072739E+02  0.00000000000E+00 0.  1.
         25    1    1    2    0    0  0.00000000000E+00  0.00000000000E+00  0.34248904792E+02  0.12960705027E+03  0.12500000000E+03 0.  0.
<mgrwt>
<rscale>  0 0.12500000E+03</rscale>
<asrwt>0</asrwt>
<pdfrwt beam="1">  1       21 0.12604304E-01 0.12500000E+03</pdfrwt>
<pdfrwt beam="2">  1       21 0.73352420E-02 0.12500000E+03</pdfrwt>
<totfact> 0.73417480E+06</totfact>
</mgrwt>
</event>
<event>
 3    1  0.1573868E-001  0.1250000E+03  0.7546771E-02  0.1235069E+00
         21   -1    0    0  502  501  0.00000000000E+00  0.00000000000E+00  0.94269274850E+01  0.94269274850E+01  0.00000000000E+00 0. -1.
         21   -1    0    0  501  502 -0.00000000000E+00 -0.00000000000E+00 -0.41437149127E+03  0.41437149127E+03  0.00000000000E+00 0. -1.
         25    1    1    2    0    0  0.00000000000E+00  0.00000000000E+00 -0.40494456378E+03  0.42379841875E+03  0.12500000000E+03 0.  0.
<mgrwt>
<rscale>  0 0.12500000E+03</rscale>
<asrwt>0</asrwt>
<pdfrwt beam="1">  1       21 0.14502967E-02 0.12500000E+03</pdfrwt>
<pdfrwt beam="2">  1       21 0.63749453E-01 0.12500000E+03</pdfrwt>
<totfact> 0.46501877E+06</totfact>
</mgrwt>
</event>
<event>
 3    1  0.1573868E-001  0.1250000E+03  0.7546771E-02  0.1235069E+00
         21   -1    0    0  502  501  0.00000000000E+00  0.00000000000E+00  0.70329568683E+01  0.70329568683E+01  0.00000000000E+00 0.  1.
         21   -1    0    0  501  502 -0.00000000000E+00 -0.00000000000E+00 -0.55542072462E+03  0.55542072462E+03  0.00000000000E+00 0.  1.
         25    1    1    2    0    0  0.00000000000E+00  0.00000000000E+00 -0.54838776775E+03  0.56245368149E+03  0.12500000000E+03 0.  0.
<mgrwt>
<rscale>  0 0.12500000E+03</rscale>
<asrwt>0</asrwt>
<pdfrwt beam="1">  1       21 0.10819934E-02 0.12500000E+03</pdfrwt>
<pdfrwt beam="2">  1       21 0.85449338E-01 0.12500000E+03</pdfrwt>
<totfact> 0.38847603E+06</totfact>
</mgrwt>
</event>
<event>
 3    1  0.1573868E-001  0.1250000E+03  0.7546771E-02  0.1235069E+00
         21   -1    0    0  502  501  0.00000000000E+00  0.00000000000E+00  0.18430176729E+02  0.18430176729E+02  0.00000000000E+00 0.  1.
         21   -1    0    0  501  502 -0.00000000000E+00 -0.00000000000E+00 -0.21194859157E+03  0.21194859157E+03  0.00000000000E+00 0.  1.
         25    1    1    2    0    0  0.00000000000E+00  0.00000000000E+00 -0.19351841484E+03  0.23037876829E+03  0.12500000000E+03 0.  0.
<mgrwt>
<rscale>  0 0.12500000E+03</rscale>
<asrwt>0</asrwt>
<pdfrwt beam="1">  1       21 0.28354119E-02 0.12500000E+03</pdfrwt>
<pdfrwt beam="2">  1       21 0.32607475E-01 0.12500000E+03</pdfrwt>
<totfact> 0.61776306E+06</totfact>
</mgrwt>
</event>
<event>
 3    1  0.1573868E-001  0.1250000E+03  0.7546771E-02  0.1235069E+00
         21   -1    0    0  502  501  0.00000000000E+00  0.00000000000E+00  0.10898926886E+04  0.10898926886E+04  0.00000000000E+00 0.  1.
         21   -1    0    0  501  502 -0.00000000000E+00 -0.00000000000E+00 -0.35840684509E+01  0.35840684509E+01  0.00000000000E+00 0.  1.
         25    1    1    2    0    0  0.00000000000E+00  0.00000000000E+00  0.10863086201E+04  0.10934767570E+04  0.12500000000E+03 0.  0.
<mgrwt>
<rscale>  0 0.12500000E+03</rscale>
<asrwt>0</asrwt>
<pdfrwt beam="1">  1       21 0.16767553E+00 0.12500000E+03</pdfrwt>
<pdfrwt beam="2">  1       21 0.55139601E-03 0.12500000E+03</pdfrwt>
<totfact> 0.21397103E+06</totfact>
</mgrwt>
</event>
<event>
 3    1  0.1573868E-001  0.1250000E+03  0.7546771E-02  0.1235069E+00
         21   -1    0    0  502  501  0.00000000000E+00  0.00000000000E+00  0.19882769939E+02  0.19882769939E+02  0.00000000000E+00 0.  1.
         21   -1    0    0  501  502 -0.00000000000E+00 -0.00000000000E+00 -0.19646407477E+03  0.19646407477E+03  0.00000000000E+00 0.  1.
         25    1    1    2    0    0  0.00000000000E+00  0.00000000000E+00 -0.17658130483E+03  0.21634684471E+03  0.12500000000E+03 0.  0.
<mgrwt>
<rscale>  0 0.12500000E+03</rscale>
<asrwt>0</asrwt>
<pdfrwt beam="1">  1       21 0.30588877E-02 0.12500000E+03</pdfrwt>
<pdfrwt beam="2">  1       21 0.30225242E-01 0.12500000E+03</pdfrwt>
<totfact> 0.63197900E+06</totfact>
</mgrwt>
</event>
<event>
 3    1  0.1573868E-001  0.1250000E+03  0.7546771E-02  0.1235069E+00
         21   -1    0    0  502  501  0.00000000000E+00  0.00000000000E+00  0.91953086235E+01  0.91953086235E+01  0.00000000000E+00 0.  1.
         21   -1    0    0  501  502 -0.00000000000E+00 -0.00000000000E+00 -0.42480901511E+03  0.42480901511E+03  0.00000000000E+00 0.  1.
         25    1    1    2    0    0  0.00000000000E+00  0.00000000000E+00 -0.41561370649E+03  0.43400432373E+03  0.12500000000E+03 0.  0.
<mgrwt>
<rscale>  0 0.12500000E+03</rscale>
<asrwt>0</asrwt>
<pdfrwt beam="1">  1       21 0.14146630E-02 0.12500000E+03</pdfrwt>
<pdfrwt beam="2">  1       21 0.65355227E-01 0.12500000E+03</pdfrwt>
<totfact> 0.45864741E+06</totfact>
</mgrwt>
</event>
<event>
 3    1  0.1573868E-001  0.1250000E+03  0.7546771E-02  0.1235069E+00
         21   -1    0    0  502  501  0.00000000000E+00  0.00000000000E+00  0.75073159254E+01  0.75073159254E+01  0.00000000000E+00 0.  1.
         21   -1    0    0  501  502 -0.00000000000E+00 -0.00000000000E+00 -0.52032577806E+03  0.52032577806E+03  0.00000000000E+00 0.  1.
         25    1    1    2    0    0  0.00000000000E+00  0.00000000000E+00 -0.51281846213E+03  0.52783309398E+03  0.12500000000E+03 0.  0.
<mgrwt>
<rscale>  0 0.12500000E+03</rscale>
<asrwt>0</asrwt>
<pdfrwt beam="1">  1       21 0.11549716E-02 0.12500000E+03</pdfrwt>
<pdfrwt beam="2">  1       21 0.80050127E-01 0.12500000E+03</pdfrwt>
<totfact> 0.40573756E+06</totfact>
</mgrwt>
</event>
<event>
 3    1  0.1573868E-001  0.1250000E+03  0.7546771E-02  0.1235069E+00
         21   -1    0    0  502  501  0.00000000000E+00  0.00000000000E+00  0.10176172067E+03  0.10176172067E+03  0.00000000000E+00 0.  1.
         21   -1    0    0  501  502 -0.00000000000E+00 -0.00000000000E+00 -0.38386241647E+02  0.38386241647E+02  0.00000000000E+00 0.  1.
         25    1    1    2    0    0  0.00000000000E+00  0.00000000000E+00  0.63375479022E+02  0.14014796232E+03  0.12500000000E+03 0.  0.
<mgrwt>
<rscale>  0 0.12500000E+03</rscale>
<asrwt>0</asrwt>
<pdfrwt beam="1">  1       21 0.15655649E-01 0.12500000E+03</pdfrwt>
<pdfrwt beam="2">  1       21 0.59055757E-02 0.12500000E+03</pdfrwt>
<totfact> 0.72019998E+06</totfact>
</mgrwt>
</event>
<event>
 3    1  0.1573868E-001  0.1250000E+03  0.7546771E-02  0.1235069E+00
         21   -1    0    0  502  501  0.00000000000E+00  0.00000000000E+00  0.84062163207E+02  0.84062163207E+02  0.00000000000E+00 0. -1.
         21   -1    0    0  501  502 -0.00000000000E+00 -0.00000000000E+00 -0.46468587662E+02  0.46468587662E+02  0.00000000000E+00 0. -1.
         25    1    1    2    0    0  0.00000000000E+00  0.00000000000E+00  0.37593575545E+02  0.13053075087E+03  0.12500000000E+03 0.  0.
<mgrwt>
<rscale>  0 0.12500000E+03</rscale>
<asrwt>0</asrwt>
<pdfrwt beam="1">  1       21 0.12932640E-01 0.12500000E+03</pdfrwt>
<pdfrwt beam="2">  1       21 0.71490135E-02 0.12500000E+03</pdfrwt>
<totfact> 0.73293978E+06</totfact>
</mgrwt>
</event>
<event>
 3    1  0.1573868E-001  0.1250000E+03  0.7546771E-02  0.1235069E+00
         21   -1    0    0  502  501  0.00000000000E+00  0.00000000000E+00  0.11596276298E+03  0.11596276298E+03  0.00000000000E+00 0. -1.
         21   -1    0    0  501  502 -0.00000000000E+00 -0.00000000000E+00 -0.33685382268E+02  0.33685382268E+02  0.00000000000E+00 0. -1.
         25    1    1    2    0    0  0.00000000000E+00  0.00000000000E+00  0.82277380716E+02  0.14964814525E+03  0.12500000000E+03 0.  0.
<mgrwt>
<rscale>  0 0.12500000E+03</rscale>
<asrwt>0</asrwt>
<pdfrwt beam="1">  1       21 0.17840425E-01 0.12500000E+03</pdfrwt>
<pdfrwt beam="2">  1       21 0.51823666E-02 0.12500000E+03</pdfrwt>
<totfact> 0.70803428E+06</totfact>
</mgrwt>
</event>
<event>
 3    1  0.1573868E-001  0.1250000E+03  0.7546771E-02  0.1235069E+00
         21   -1    0    0  502  501  0.00000000000E+00  0.00000000000E+00  0.43819626562E+01  0.43819626562E+01  0.00000000000E+00 0.  1.
         21   -1    0    0  501  502 -0.00000000000E+00 -0.00000000000E+00 -0.89143845042E+03  0.89143845042E+03  0.00000000000E+00 0.  1.
         25    1    1    2    0    0  0.00000000000E+00  0.00000000000E+00 -0.88705648776E+03  0.89582041307E+03  0.12500000000E+03 0.  0.
<mgrwt>
<rscale>  0 0.12500000E+03</rscale>
<asrwt>0</asrwt>
<pdfrwt beam="1">  1       21 0.67414795E-03 0.12500000E+03</pdfrwt>
<pdfrwt beam="2">  1       21 0.13714441E+00 0.12500000E+03</pdfrwt>
<totfact> 0.26419637E+06</totfact>
</mgrwt>
</event>
<event>
 3    1  0.1573868E-001  0.1250000E+03  0.7546771E-02  0.1235069E+00
         21   -1    0    0  502  501  0.00000000000E+00  0.00000000000E+00  0.49590848122E+02  0.49590848122E+02  0.00000000000E+00 0.  1.
         21   -1    0    0  501  502 -0.00000000000E+00 -0.00000000000E+00 -0.78769574386E+02  0.78769574386E+02  0.00000000000E+00 0.  1.
         25    1    1    2    0    0  0.00000000000E+00  0.00000000000E+00 -0.29178726264E+02  0.12836042251E+03  0.12500000000E+03 0.  0.
<mgrwt>
<rscale>  0 0.12500000E+03</rscale>
<asrwt>0</asrwt>
<pdfrwt beam="1">  1       21 0.76293612E-02 0.12500000E+03</pdfrwt>
<pdfrwt beam="2">  1       21 0.12118396E-01 0.12500000E+03</pdfrwt>
<totfact> 0.73584927E+06</totfact>
</mgrwt>
</event>
<event>
 3    1  0.1573868E-001  0.1250000E+03  0.7546771E-02  0.1235069E+00
         21   -1    0    0  502  501  0.00000000000E+00  0.00000000000E+00  0.65911810047E+02  0.65911810047E+02  0.00000000000E+00 0.  1.
         21   -1    0    0  501  502 -0.00000000000E+00 -0.00000000000E+00 -0.59264796358E+02  0.59264796358E+02  0.00000000000E+00 0.  1.
         25    1    1    2    0    0  0.00000000000E+00  0.00000000000E+00  0.66470136896E+01  0.12517660640E+03  0.12500000000E+03 0.  0.
<mgrwt>
<rscale>  0 0.12500000E+03</rscale>
<asrwt>0</asrwt>
<pdfrwt beam="1">  1       21 0.10140278E-01 0.12500000E+03</pdfrwt>
<pdfrwt beam="2">  1       21 0.91176610E-02 0.12500000E+03</pdfrwt>
<totfact> 0.74019731E+06</totfact>
</mgrwt>
</event>
<event>
 3    1  0.1573868E-001  0.1250000E+03  0.7546771E-02  0.1235069E+00
         21   -1    0    0  502  501  0.00000000000E+00  0.00000000000E+00  0.17254571872E+03  0.17254571872E+03  0.00000000000E+00 0.  1.
         21   -1    0    0  501  502 -0.00000000000E+00 -0.00000000000E+00 -0.22638927405E+02  0.22638927405E+02  0.00000000000E+00 0.  1.
         25    1    1    2    0    0  0.00000000000E+00  0.00000000000E+00  0.14990679131E+03  0.19518464612E+03  0.12500000000E+03 0.  0.
<mgrwt>
<rscale>  0 0.12500000E+03</rscale>
<asrwt>0</asrwt>
<pdfrwt beam="1">  1       21 0.26545494E-01 0.12500000E+03</pdfrwt>
<pdfrwt beam="2">  1       21 0.34829120E-02 0.12500000E+03</pdfrwt>
<totfact> 0.65450820E+06</totfact>
</mgrwt>
</event>
<event>
 3    1  0.1573868E-001  0.1250000E+03  0.7546771E-02  0.1235069E+00
         21   -1    0    0  502  501  0.00000000000E+00  0.00000000000E+00  0.15917274687E+02  0.15917274687E+02  0.00000000000E+00 0.  1.
         21   -1    0    0  501  502 -0.00000000000E+00 -0.00000000000E+00 -0.24540947346E+03  0.24540947346E+03  0.00000000000E+00 0.  1.
         25    1    1    2    0    0  0.00000000000E+00  0.00000000000E+00 -0.22949219878E+03  0.26132674815E+03  0.12500000000E+03 0.  0.
<mgrwt>
<rscale>  0 0.12500000E+03</rscale>
<asrwt>0</asrwt>
<pdfrwt beam="1">  1       21 0.24488119E-02 0.12500000E+03</pdfrwt>
<pdfrwt beam="2">  1       21 0.37755298E-01 0.12500000E+03</pdfrwt>
<totfact> 0.58827883E+06</totfact>
</mgrwt>
</event>
<event>
 3    1  0.1573868E-001  0.1250000E+03  0.7546771E-02  0.1235069E+00
         21   -1    0    0  502  501  0.00000000000E+00  0.00000000000E+00  0.10716932710E+03  0.10716932710E+03  0.00000000000E+00 0. -1.
         21   -1    0    0  501  502 -0.00000000000E+00 -0.00000000000E+00 -0.36449328420E+02  0.36449328420E+02  0.00000000000E+00 0. -1.
         25    1    1    2    0    0  0.00000000000E+00  0.00000000000E+00  0.70719998680E+02  0.14361865552E+03  0.12500000000E+03 0.  0.
<mgrwt>
<rscale>  0 0.12500000E+03</rscale>
<asrwt>0</asrwt>
<pdfrwt beam="1">  1       21 0.16487589E-01 0.12500000E+03</pdfrwt>
<pdfrwt beam="2">  1       21 0.56075890E-02 0.12500000E+03</pdfrwt>
<totfact> 0.71570349E+06</totfact>
</mgrwt>
</event>
<event>
 3    1  0.1573868E-001  0.1250000E+03  0.7546771E-02  0.1235069E+00
         21   -1    0    0  502  501  0.00000000000E+00  0.00000000000E+00  0.79352805386E+02  0.79352805386E+02  0.00000000000E+00 0.  1.
         21   -1    0    0  501  502 -0.00000000000E+00 -0.00000000000E+00 -0.49226362962E+02  0.49226362962E+02  0.00000000000E+00 0.  1.
         25    1    1    2    0    0  0.00000000000E+00  0.00000000000E+00  0.30126442425E+02  0.12857916835E+03  0.12500000000E+03 0.  0.
<mgrwt>
<rscale>  0 0.12500000E+03</rscale>
<asrwt>0</asrwt>
<pdfrwt beam="1">  1       21 0.12208124E-01 0.12500000E+03</pdfrwt>
<pdfrwt beam="2">  1       21 0.75732866E-02 0.12500000E+03</pdfrwt>
<totfact> 0.73555463E+06</totfact>
</mgrwt>
</event>
<event>
 3    1  0.1573868E-001  0.1250000E+03  0.7546771E-02  0.1235069E+00
         21   -1    0    0  502  501  0.00000000000E+00  0.00000000000E+00  0.13250643217E+03  0.13250643217E+03  0.00000000000E+00 0. -1.
         21   -1    0    0  501  502 -0.00000000000E+00 -0.00000000000E+00 -0.29479700992E+02  0.29479700992E+02  0.00000000000E+00 0. -1.
         25    1    1    2    0    0  0.00000000000E+00  0.00000000000E+00  0.10302673118E+03  0.16198613317E+03  0.12500000000E+03 0.  0.
<mgrwt>
<rscale>  0 0.12500000E+03</rscale>
<asrwt>0</asrwt>
<pdfrwt beam="1">  1       21 0.20385605E-01 0.12500000E+03</pdfrwt>
<pdfrwt beam="2">  1       21 0.45353387E-02 0.12500000E+03</pdfrwt>
<totfact> 0.69277623E+06</totfact>
</mgrwt>
</event>
<event>
 3    1  0.1573868E-001  0.1250000E+03  0.7546771E-02  0.1235069E+00
         21   -1    0    0  502  501  0.00000000000E+00  0.00000000000E+00  0.99353787052E+02  0.99353787052E+02  0.00000000000E+00 0. -1.
         21   -1    0    0  501  502 -0.00000000000E+00 -0.00000000000E+00 -0.39316568758E+02  0.39316568758E+02  0.00000000000E+00 0. -1.
         25    1    1    2    0    0  0.00000000000E+00  0.00000000000E+00  0.60037218294E+02  0.13867035581E+03  0.12500000000E+03 0.  0.
<mgrwt>
<rscale>  0 0.12500000E+03</rscale>
<asrwt>0</asrwt>
<pdfrwt beam="1">  1       21 0.15285198E-01 0.12500000E+03</pdfrwt>
<pdfrwt beam="2">  1       21 0.60487029E-02 0.12500000E+03</pdfrwt>
<totfact> 0.72213369E+06</totfact>
</mgrwt>
</event>
<event>
 3    1  0.1573868E-001  0.1250000E+03  0.7546771E-02  0.1235069E+00
         21   -1    0    0  502  501  0.00000000000E+00  0.00000000000E+00  0.67763644276E+02  0.67763644276E+02  0.00000000000E+00 0.  1.
         21   -1    0    0  501  502 -0.00000000000E+00 -0.00000000000E+00 -0.57645217310E+02  0.57645217310E+02  0.00000000000E+00 0.  1.
         25    1    1    2    0    0  0.00000000000E+00  0.00000000000E+00  0.10118426965E+02  0.12540886159E+03  0.12500000000E+03 0.  0.
<mgrwt>
<rscale>  0 0.12500000E+03</rscale>
<asrwt>0</asrwt>
<pdfrwt beam="1">  1       21 0.10425176E-01 0.12500000E+03</pdfrwt>
<pdfrwt beam="2">  1       21 0.88684950E-02 0.12500000E+03</pdfrwt>
<totfact> 0.73988167E+06</totfact>
</mgrwt>
</event>
<event>
 3    1  0.1573868E-001  0.1250000E+03  0.7546771E-02  0.1235069E+00
         21   -1    0    0  502  501  0.00000000000E+00  0.00000000000E+00  0.39314960250E+03  0.39314960250E+03  0.00000000000E+00 0. -1.
         21   -1    0    0  501  502 -0.00000000000E+00 -0.00000000000E+00 -0.99357851951E+01  0.99357851951E+01  0.00000000000E+00 0. -1.
         25    1    1    2    0    0  0.00000000000E+00  0.00000000000E+00  0.38321381731E+03  0.40308538770E+03  0.12500000000E+03 0.  0.
<mgrwt>
<rscale>  0 0.12500000E+03</rscale>
<asrwt>0</asrwt>
<pdfrwt beam="1">  1       21 0.60484542E-01 0.12500000E+03</pdfrwt>
<pdfrwt beam="2">  1       21 0.15285826E-02 0.12500000E+03</pdfrwt>
<totfact> 0.47837376E+06</totfact>
</mgrwt>
</event>
<event>
 3    1  0.1573868E-001  0.1250000E+03  0.7546771E-02  0.1235069E+00
         21   -1    0    0  502  501  0.00000000000E+00  0.00000000000E+00  0.27443080865E+04  0.27443080865E+04  0.00000000000E+00 0. -1.
         21   -1    0    0  501  502 -0.00000000000E+00 -0.00000000000E+00 -0.14234006813E+01  0.14234006813E+01  0.00000000000E+00 0. -1.
         25    1    1    2    0    0  0.00000000000E+00  0.00000000000E+00  0.27428846858E+04  0.27457314872E+04  0.12500000000E+03 0.  0.
<mgrwt>
<rscale>  0 0.12500000E+03</rscale>
<asrwt>0</asrwt>
<pdfrwt beam="1">  1       21 0.42219701E+00 0.12500000E+03</pdfrwt>
<pdfrwt beam="2">  1       21 0.21898692E-03 0.12500000E+03</pdfrwt>
<totfact> 0.27187760E+05</totfact>
</mgrwt>
</event>
<event>
 3    1  0.1573868E-001  0.1250000E+03  0.7546771E-02  0.1235069E+00
         21   -1    0    0  502  501  0.00000000000E+00  0.00000000000E+00  0.72901633886E+02  0.72901633886E+02  0.00000000000E+00 0. -1.
         21   -1    0    0  501  502 -0.00000000000E+00 -0.00000000000E+00 -0.53582475341E+02  0.53582475341E+02  0.00000000000E+00 0. -1.
         25    1    1    2    0    0  0.00000000000E+00  0.00000000000E+00  0.19319158545E+02  0.12648410923E+03  0.12500000000E+03 0.  0.
<mgrwt>
<rscale>  0 0.12500000E+03</rscale>
<asrwt>0</asrwt>
<pdfrwt beam="1">  1       21 0.11215636E-01 0.12500000E+03</pdfrwt>
<pdfrwt beam="2">  1       21 0.82434578E-02 0.12500000E+03</pdfrwt>
<totfact> 0.73839548E+06</totfact>
</mgrwt>
</event>
<event>
 3    1  0.1573868E-001  0.1250000E+03  0.7546771E-02  0.1235069E+00
         21   -1    0    0  502  501  0.00000000000E+00  0.00000000000E+00  0.19877310088E+02  0.19877310088E+02  0.00000000000E+00 0. -1.
         21   -1    0    0  501  502 -0.00000000000E+00 -0.00000000000E+00 -0.19651803904E+03  0.19651803904E+03  0.00000000000E+00 0. -1.
         25    1    1    2    0    0  0.00000000000E+00  0.00000000000E+00 -0.17664072896E+03  0.21639534913E+03  0.12500000000E+03 0.  0.
<mgrwt>
<rscale>  0 0.12500000E+03</rscale>
<asrwt>0</asrwt>
<pdfrwt beam="1">  1       21 0.30580477E-02 0.12500000E+03</pdfrwt>
<pdfrwt beam="2">  1       21 0.30233544E-01 0.12500000E+03</pdfrwt>
<totfact> 0.63192890E+06</totfact>
</mgrwt>
</event>
<event>
 3    1  0.1573868E-001  0.1250000E+03  0.7546771E-02  0.1235069E+00
         21   -1    0    0  502  501  0.00000000000E+00  0.00000000000E+00  0.31662187889E+03  0.31662187889E+03  0.00000000000E+00 0.  1.
         21   -1    0    0  501  502 -0.00000000000E+00 -0.00000000000E+00 -0.12337271239E+02  0.12337271239E+02  0.00000000000E+00 0.  1.
         25    1    1    2    0    0  0.00000000000E+00  0.00000000000E+00  0.30428460766E+03  0.32895915013E+03  0.12500000000E+03 0.  0.
<mgrwt>
<rscale>  0 0.12500000E+03</rscale>
<asrwt>0</asrwt>
<pdfrwt beam="1">  1       21 0.48711052E-01 0.12500000E+03</pdfrwt>
<pdfrwt beam="2">  1       21 0.18980420E-02 0.12500000E+03</pdfrwt>
<totfact> 0.53130929E+06</totfact>
</mgrwt>
</event>
<event>
 3    1  0.1573868E-001  0.1250000E+03  0.7546771E-02  0.1235069E+00
         21   -1    0    0  502  501  0.00000000000E+00  0.00000000000E+00  0.11587129765E+03  0.11587129765E+03  0.00000000000E+00 0. -1.
         21   -1    0    0  501  502 -0.00000000000E+00 -0.00000000000E+00 -0.33711972501E+02  0.33711972501E+02  0.00000000000E+00 0. -1.
         25    1    1    2    0    0  0.00000000000E+00  0.00000000000E+00  0.82159325147E+02  0.14958327015E+03  0.12500000000E+03 0.  0.
<mgrwt>
<rscale>  0 0.12500000E+03</rscale>
<asrwt>0</asrwt>
<pdfrwt beam="1">  1       21 0.17826353E-01 0.12500000E+03</pdfrwt>
<pdfrwt beam="2">  1       21 0.51864574E-02 0.12500000E+03</pdfrwt>
<totfact> 0.70811589E+06</totfact>
</mgrwt>
</event>
<event>
 3    1  0.1573868E-001  0.1250000E+03  0.7546771E-02  0.1235069E+00
         21   -1    0    0  502  501  0.00000000000E+00  0.00000000000E+00  0.10832149332E+03  0.10832149332E+03  0.00000000000E+00 0. -1.
         21   -1    0    0  501  502 -0.00000000000E+00 -0.00000000000E+00 -0.36061633570E+02  0.36061633570E+02  0.00000000000E+00 0. -1.
         25    1    1    2    0    0  0.00000000000E+00  0.00000000000E+00  0.72259859755E+02  0.14438312689E+03  0.12500000000E+03 0.  0.
<mgrwt>
<rscale>  0 0.12500000E+03</rscale>
<asrwt>0</asrwt>
<pdfrwt beam="1">  1       21 0.16664845E-01 0.12500000E+03</pdfrwt>
<pdfrwt beam="2">  1       21 0.55479437E-02 0.12500000E+03</pdfrwt>
<totfact> 0.71472137E+06</totfact>
</mgrwt>
</event>
<event>
 3    1  0.1573868E-001  0.1250000E+03  0.7546771E-02  0.1235069E+00
         21   -1    0    0  502  501  0.00000000000E+00  0.00000000000E+00  0.18891915173E+03  0.18891915173E+03  0.00000000000E+00 0.  1.
         21   -1    0    0  501  502 -0.00000000000E+00 -0.00000000000E+00 -0.20676834319E+02  0.20676834319E+02  0.00000000000E+00 0.  1.
         25    1    1    2    0    0  0.00000000000E+00  0.00000000000E+00  0.16824231741E+03  0.20959598605E+03  0.12500000000E+03 0.  0.
<mgrwt>
<rscale>  0 0.12500000E+03</rscale>
<asrwt>0</asrwt>
<pdfrwt beam="1">  1       21 0.29064484E-01 0.12500000E+03</pdfrwt>
<pdfrwt beam="2">  1       21 0.31810516E-02 0.12500000E+03</pdfrwt>
<totfact> 0.63902068E+06</totfact>
</mgrwt>
</event>
<event>
 3    1  0.1573868E-001  0.1250000E+03  0.7546771E-02  0.1235069E+00
         21   -1    0    0  502  501  0.00000000000E+00  0.00000000000E+00  0.23092247463E+02  0.23092247463E+02  0.00000000000E+00 0. -1.
         21   -1    0    0  501  502 -0.00000000000E+00 -0.00000000000E+00 -0.16915850249E+03  0.16915850249E+03  0.00000000000E+00 0. -1.
         25    1    1    2    0    0  0.00000000000E+00  0.00000000000E+00 -0.14606625503E+03  0.19225074996E+03  0.12500000000E+03 0.  0.
<mgrwt>
<rscale>  0 0.12500000E+03</rscale>
<asrwt>0</asrwt>
<pdfrwt beam="1">  1       21 0.35526536E-02 0.12500000E+03</pdfrwt>
<pdfrwt beam="2">  1       21 0.26024384E-01 0.12500000E+03</pdfrwt>
<totfact> 0.65773184E+06</totfact>
</mgrwt>
</event>
<event>
 3    1  0.1573868E-001  0.1250000E+03  0.7546771E-02  0.1235069E+00
         21   -1    0    0  502  501  0.00000000000E+00  0.00000000000E+00  0.38965837916E+03  0.38965837916E+03  0.00000000000E+00 0.  1.
         21   -1    0    0  501  502 -0.00000000000E+00 -0.00000000000E+00 -0.10024806879E+02  0.10024806879E+02  0.00000000000E+00 0.  1.
         25    1    1    2    0    0  0.00000000000E+00  0.00000000000E+00  0.37963357229E+03  0.39968318604E+03  0.12500000000E+03 0.  0.
<mgrwt>
<rscale>  0 0.12500000E+03</rscale>
<asrwt>0</asrwt>
<pdfrwt beam="1">  1       21 0.59947431E-01 0.12500000E+03</pdfrwt>
<pdfrwt beam="2">  1       21 0.15422783E-02 0.12500000E+03</pdfrwt>
<totfact> 0.48062376E+06</totfact>
</mgrwt>
</event>
<event>
 3    1  0.1573868E-001  0.1250000E+03  0.7546771E-02  0.1235069E+00
         21   -1    0    0  502  501  0.00000000000E+00  0.00000000000E+00  0.26805504558E+02  0.26805504558E+02  0.00000000000E+00 0. -1.
         21   -1    0    0  501  502 -0.00000000000E+00 -0.00000000000E+00 -0.14572566585E+03  0.14572566585E+03  0.00000000000E+00 0. -1.
         25    1    1    2    0    0  0.00000000000E+00  0.00000000000E+00 -0.11892016129E+03  0.17253117040E+03  0.12500000000E+03 0.  0.
<mgrwt>
<rscale>  0 0.12500000E+03</rscale>
<asrwt>0</asrwt>
<pdfrwt beam="1">  1       21 0.41239237E-02 0.12500000E+03</pdfrwt>
<pdfrwt beam="2">  1       21 0.22419334E-01 0.12500000E+03</pdfrwt>
<totfact> 0.68018839E+06</totfact>
</mgrwt>
</event>
<event>
 3    1  0.1573868E-001  0.1250000E+03  0.7546771E-02  0.1235069E+00
         21   -1    0    0  502  501  0.00000000000E+00  0.00000000000E+00  0.37032018156E+01  0.37032018156E+01  0.00000000000E+00 0.  1.
         21   -1    0    0  501  502 -0.00000000000E+00 -0.00000000000E+00 -0.10548304398E+04  0.10548304398E+04  0.00000000000E+00 0.  1.
         25    1    1    2    0    0  0.00000000000E+00  0.00000000000E+00 -0.10511272380E+04  0.10585336417E+04  0.12500000000E+03 0.  0.
<mgrwt>
<rscale>  0 0.12500000E+03</rscale>
<asrwt>0</asrwt>
<pdfrwt beam="1">  1       21 0.56972278E-03 0.12500000E+03</pdfrwt>
<pdfrwt beam="2">  1       21 0.16228177E+00 0.12500000E+03</pdfrwt>
<totfact> 0.22197941E+06</totfact>
</mgrwt>
</event>
<event>
 3    1  0.1573868E-001  0.1250000E+03  0.7546771E-02  0.1235069E+00
         21   -1    0    0  502  501  0.00000000000E+00  0.00000000000E+00  0.13121618452E+03  0.13121618452E+03  0.00000000000E+00 0. -1.
         21   -1    0    0  501  502 -0.00000000000E+00 -0.00000000000E+00 -0.29769574646E+02  0.29769574646E+02  0.00000000000E+00 0. -1.
         25    1    1    2    0    0  0.00000000000E+00  0.00000000000E+00  0.10144660988E+03  0.16098575917E+03  0.12500000000E+03 0.  0.
<mgrwt>
<rscale>  0 0.12500000E+03</rscale>
<asrwt>0</asrwt>
<pdfrwt beam="1">  1       21 0.20187105E-01 0.12500000E+03</pdfrwt>
<pdfrwt beam="2">  1       21 0.45799346E-02 0.12500000E+03</pdfrwt>
<totfact> 0.69399247E+06</totfact>
</mgrwt>
</event>
<event>
 3    1  0.1573868E-001  0.1250000E+03  0.7546771E-02  0.1235069E+00
         21   -1    0    0  502  501  0.00000000000E+00  0.00000000000E+00  0.86268107767E+02  0.86268107767E+02  0.00000000000E+00 0.  1.
         21   -1    0    0  501  502 -0.00000000000E+00 -0.00000000000E+00 -0.45280348684E+02  0.45280348684E+02  0.00000000000E+00 0.  1.
         25    1    1    2    0    0  0.00000000000E+00  0.00000000000E+00  0.40987759082E+02  0.13154845645E+03  0.12500000000E+03 0.  0.
<mgrwt>
<rscale>  0 0.12500000E+03</rscale>
<asrwt>0</asrwt>
<pdfrwt beam="1">  1       21 0.13272017E-01 0.12500000E+03</pdfrwt>
<pdfrwt beam="2">  1       21 0.69662075E-02 0.12500000E+03</pdfrwt>
<totfact> 0.73156858E+06</totfact>
</mgrwt>
</event>
<event>
 3    1  0.1573868E-001  0.1250000E+03  0.7546771E-02  0.1235069E+00
         21   -1    0    0  502  501  0.00000000000E+00  0.00000000000E+00  0.78395861285E+02  0.78395861285E+02  0.00000000000E+00 0. -1.
         21   -1    0    0  501  502 -0.00000000000E+00 -0.00000000000E+00 -0.49827247714E+02  0.49827247714E+02  0.00000000000E+00 0. -1.
         25    1    1    2    0    0  0.00000000000E+00  0.00000000000E+00  0.28568613570E+02  0.12822310900E+03  0.12500000000E+03 0.  0.
<mgrwt>
<rscale>  0 0.12500000E+03</rscale>
<asrwt>0</asrwt>
<pdfrwt beam="1">  1       21 0.12060902E-01 0.12500000E+03</pdfrwt>
<pdfrwt beam="2">  1       21 0.76657304E-02 0.12500000E+03</pdfrwt>
<totfact> 0.73603442E+06</totfact>
</mgrwt>
</event>
<event>
 3    1  0.1573868E-001  0.1250000E+03  0.7546771E-02  0.1235069E+00
         21   -1    0    0  502  501  0.00000000000E+00  0.00000000000E+00  0.10411242990E+03  0.10411242990E+03  0.00000000000E+00 0.  1.
         21   -1    0    0  501  502 -0.00000000000E+00 -0.00000000000E+00 -0.37519535408E+02  0.37519535408E+02  0.00000000000E+00 0.  1.
         25    1    1    2    0    0  0.00000000000E+00  0.00000000000E+00  0.66592894489E+02  0.14163196531E+03  0.12500000000E+03 0.  0.
<mgrwt>
<rscale>  0 0.12500000E+03</rscale>
<asrwt>0</asrwt>
<pdfrwt beam="1">  1       21 0.16017297E-01 0.12500000E+03</pdfrwt>
<pdfrwt beam="2">  1       21 0.57722363E-02 0.12500000E+03</pdfrwt>
<totfact> 0.71826969E+06</totfact>
</mgrwt>
</event>
<event>
 3    1  0.1573868E-001  0.1250000E+03  0.7546771E-02  0.1235069E+00
         21   -1    0    0  502  501  0.00000000000E+00  0.00000000000E+00  0.18855790078E+03  0.18855790078E+03  0.00000000000E+00 0. -1.
         21   -1    0    0  501  502 -0.00000000000E+00 -0.00000000000E+00 -0.20716448284E+02  0.20716448284E+02  0.00000000000E+00 0. -1.
         25    1    1    2    0    0  0.00000000000E+00  0.00000000000E+00  0.16784145249E+03  0.20927434906E+03  0.12500000000E+03 0.  0.
<mgrwt>
<rscale>  0 0.12500000E+03</rscale>
<asrwt>0</asrwt>
<pdfrwt beam="1">  1       21 0.29008907E-01 0.12500000E+03</pdfrwt>
<pdfrwt beam="2">  1       21 0.31871460E-02 0.12500000E+03</pdfrwt>
<totfact> 0.63935964E+06</totfact>
</mgrwt>
</event>
<event>
 3    1  0.1573868E-001  0.1250000E+03  0.7546771E-02  0.1235069E+00
         21   -1    0    0  502  501  0.00000000000E+00  0.00000000000E+00  0.23199379321E+02  0.23199379321E+02  0.00000000000E+00 0.  1.
         21   -1    0    0  501  502 -0.00000000000E+00 -0.00000000000E+00 -0.16837734950E+03  0.16837734950E+03  0.00000000000E+00 0.  1.
         25    1    1    2    0    0  0.00000000000E+00  0.00000000000E+00 -0.14517797017E+03  0.19157672882E+03  0.12500000000E+03 0.  0.
<mgrwt>
<rscale>  0 0.12500000E+03</rscale>
<asrwt>0</asrwt>
<pdfrwt beam="1">  1       21 0.35691353E-02 0.12500000E+03</pdfrwt>
<pdfrwt beam="2">  1       21 0.25904208E-01 0.12500000E+03</pdfrwt>
<totfact> 0.65847653E+06</totfact>
</mgrwt>
</event>
<event>
 3    1  0.1573868E-001  0.1250000E+03  0.7546771E-02  0.1235069E+00
         21   -1    0    0  502  501  0.00000000000E+00  0.00000000000E+00  0.46496315003E+01  0.46496315003E+01  0.00000000000E+00 0.  1.
         21   -1    0    0  501  502 -0.00000000000E+00 -0.00000000000E+00 -0.84012034067E+03  0.84012034067E+03  0.00000000000E+00 0.  1.
         25    1    1    2    0    0  0.00000000000E+00  0.00000000000E+00 -0.83547070917E+03  0.84476997217E+03  0.12500000000E+03 0.  0.
<mgrwt>
<rscale>  0 0.12500000E+03</rscale>
<asrwt>0</asrwt>
<pdfrwt beam="1">  1       21 0.71532801E-03 0.12500000E+03</pdfrwt>
<pdfrwt beam="2">  1       21 0.12924927E+00 0.12500000E+03</pdfrwt>
<totfact> 0.27932171E+06</totfact>
</mgrwt>
</event>
<event>
 3    1  0.1573868E-001  0.1250000E+03  0.7546771E-02  0.1235069E+00
         21   -1    0    0  502  501  0.00000000000E+00  0.00000000000E+00  0.29725317392E+03  0.29725317392E+03  0.00000000000E+00 0. -1.
         21   -1    0    0  501  502 -0.00000000000E+00 -0.00000000000E+00 -0.13141154890E+02  0.13141154890E+02  0.00000000000E+00 0. -1.
         25    1    1    2    0    0  0.00000000000E+00  0.00000000000E+00  0.28411201903E+03  0.31039432881E+03  0.12500000000E+03 0.  0.
<mgrwt>
<rscale>  0 0.12500000E+03</rscale>
<asrwt>0</asrwt>
<pdfrwt beam="1">  1       21 0.45731252E-01 0.12500000E+03</pdfrwt>
<pdfrwt beam="2">  1       21 0.20217164E-02 0.12500000E+03</pdfrwt>
<totfact> 0.54603278E+06</totfact>
</mgrwt>
</event>
<event>
 3    1  0.1573868E-001  0.1250000E+03  0.7546771E-02  0.1235069E+00
         21   -1    0    0  502  501  0.00000000000E+00  0.00000000000E+00  0.37977696494E+03  0.37977696494E+03  0.00000000000E+00 0. -1.
         21   -1    0    0  501  502 -0.00000000000E+00 -0.00000000000E+00 -0.10285642260E+02  0.10285642260E+02  0.00000000000E+00 0. -1.
         25    1    1    2    0    0  0.00000000000E+00  0.00000000000E+00  0.36949132268E+03  0.39006260720E+03  0.12500000000E+03 0.  0.
<mgrwt>
<rscale>  0 0.12500000E+03</rscale>
<asrwt>0</asrwt>
<pdfrwt beam="1">  1       21 0.58427215E-01 0.12500000E+03</pdfrwt>
<pdfrwt beam="2">  1       21 0.15824068E-02 0.12500000E+03</pdfrwt>
<totfact> 0.48707552E+06</totfact>
</mgrwt>
</event>
<event>
 3    1  0.1573868E-001  0.1250000E+03  0.7546771E-02  0.1235069E+00
         21   -1    0    0  502  501  0.00000000000E+00  0.00000000000E+00  0.18108621144E+02  0.18108621144E+02  0.00000000000E+00 0. -1.
         21   -1    0    0  501  502 -0.00000000000E+00 -0.00000000000E+00 -0.21571217206E+03  0.21571217206E+03  0.00000000000E+00 0. -1.
         25    1    1    2    0    0  0.00000000000E+00  0.00000000000E+00 -0.19760355092E+03  0.23382079321E+03  0.12500000000E+03 0.  0.
<mgrwt>
<rscale>  0 0.12500000E+03</rscale>
<asrwt>0</asrwt>
<pdfrwt beam="1">  1       21 0.27859419E-02 0.12500000E+03</pdfrwt>
<pdfrwt beam="2">  1       21 0.33186486E-01 0.12500000E+03</pdfrwt>
<totfact> 0.61435788E+06</totfact>
</mgrwt>
</event>
<event>
 3    1  0.1573868E-001  0.1250000E+03  0.7546771E-02  0.1235069E+00
         21   -1    0    0  502  501  0.00000000000E+00  0.00000000000E+00  0.78328550375E+02  0.78328550375E+02  0.00000000000E+00 0. -1.
         21   -1    0    0  501  502 -0.00000000000E+00 -0.00000000000E+00 -0.49870066295E+02  0.49870066295E+02  0.00000000000E+00 0. -1.
         25    1    1    2    0    0  0.00000000000E+00  0.00000000000E+00  0.28458484080E+02  0.12819861667E+03  0.12500000000E+03 0.  0.
<mgrwt>
<rscale>  0 0.12500000E+03</rscale>
<asrwt>0</asrwt>
<pdfrwt beam="1">  1       21 0.12050546E-01 0.12500000E+03</pdfrwt>
<pdfrwt beam="2">  1       21 0.76723179E-02 0.12500000E+03</pdfrwt>
<totfact> 0.73606746E+06</totfact>
</mgrwt>
</event>
<event>
 3    1  0.1573868E-001  0.1250000E+03  0.7546771E-02  0.1235069E+00
         21   -1    0    0  502  501  0.00000000000E+00  0.00000000000E+00  0.95715482036E+02  0.95715482036E+02  0.00000000000E+00 0.  1.
         21   -1    0    0  501  502 -0.00000000000E+00 -0.00000000000E+00 -0.40811057072E+02  0.40811057072E+02  0.00000000000E+00 0.  1.
         25    1    1    2    0    0  0.00000000000E+00  0.00000000000E+00  0.54904424964E+02  0.13652653911E+03  0.12500000000E+03 0.  0.
<mgrwt>
<rscale>  0 0.12500000E+03</rscale>
<asrwt>0</asrwt>
<pdfrwt beam="1">  1       21 0.14725459E-01 0.12500000E+03</pdfrwt>
<pdfrwt beam="2">  1       21 0.62786242E-02 0.12500000E+03</pdfrwt>
<totfact> 0.72494973E+06</totfact>
</mgrwt>
</event>
<event>
 3    1  0.1573868E-001  0.1250000E+03  0.7546771E-02  0.1235069E+00
         21   -1    0    0  502  501  0.00000000000E+00  0.00000000000E+00  0.15881810477E+04  0.15881810477E+04  0.00000000000E+00 0. -1.
         21   -1    0    0  501  502 -0.00000000000E+00 -0.00000000000E+00 -0.24595747479E+01  0.24595747479E+01  0.00000000000E+00 0. -1.
         25    1    1    2    0    0  0.00000000000E+00  0.00000000000E+00  0.15857214730E+04  0.15906406225E+04  0.12500000000E+03 0.  0.
<mgrwt>
<rscale>  0 0.12500000E+03</rscale>
<asrwt>0</asrwt>
<pdfrwt beam="1">  1       21 0.24433473E+00 0.12500000E+03</pdfrwt>
<pdfrwt beam="2">  1       21 0.37839738E-03 0.12500000E+03</pdfrwt>
<totfact> 0.12701333E+06</totfact>
</mgrwt>
</event>
<event>
 3    1  0.1573868E-001  0.1250000E+03  0.7546771E-02  0.1235069E+00
         21   -1    0    0  502  501  0.00000000000E+00  0.00000000000E+00  0.11857243898E+03  0.11857243898E+03  0.00000000000E+00 0. -1.
         21   -1    0    0  501  502 -0.00000000000E+00 -0.00000000000E+00 -0.32943996375E+02  0.32943996375E+02  0.00000000000E+00 0. -1.
         25    1    1    2    0    0  0.00000000000E+00  0.00000000000E+00  0.85628442608E+02  0.15151643536E+03  0.12500000000E+03 0.  0.
<mgrwt>
<rscale>  0 0.12500000E+03</rscale>
<asrwt>0</asrwt>
<pdfrwt beam="1">  1       21 0.18241913E-01 0.12500000E+03</pdfrwt>
<pdfrwt beam="2">  1       21 0.50683072E-02 0.12500000E+03</pdfrwt>
<totfact> 0.70569225E+06</totfact>
</mgrwt>
</event>
<event>
 3    1  0.1573868E-001  0.1250000E+03  0.7546771E-02  0.1235069E+00
         21   -1    0    0  502  501  0.00000000000E+00  0.00000000000E+00  0.10593543739E+02  0.10593543739E+02  0.00000000000E+00 0. -1.
         21   -1    0    0  501  502 -0.00000000000E+00 -0.00000000000E+00 -0.36873874278E+03  0.36873874278E+03  0.00000000000E+00 0. -1.
         25    1    1    2    0    0  0.00000000000E+00  0.00000000000E+00 -0.35814519904E+03  0.37933228652E+03  0.12500000000E+03 0.  0.
<mgrwt>
<rscale>  0 0.12500000E+03</rscale>
<asrwt>0</asrwt>
<pdfrwt beam="1">  1       21 0.16297761E-02 0.12500000E+03</pdfrwt>
<pdfrwt beam="2">  1       21 0.56729032E-01 0.12500000E+03</pdfrwt>
<totfact> 0.49442475E+06</totfact>
</mgrwt>
</event>
<event>
 3    1  0.1573868E-001  0.1250000E+03  0.7546771E-02  0.1235069E+00
         21   -1    0    0  502  501  0.00000000000E+00  0.00000000000E+00  0.16486186513E+04  0.16486186513E+04  0.00000000000E+00 0. -1.
         21   -1    0    0  501  502 -0.00000000000E+00 -0.00000000000E+00 -0.23694078657E+01  0.23694078657E+01  0.00000000000E+00 0. -1.
         25    1    1    2    0    0  0.00000000000E+00  0.00000000000E+00  0.16462492434E+04  0.16509880592E+04  0.12500000000E+03 0.  0.
<mgrwt>
<rscale>  0 0.12500000E+03</rscale>
<asrwt>0</asrwt>
<pdfrwt beam="1">  1       21 0.25363272E+00 0.12500000E+03</pdfrwt>
<pdfrwt beam="2">  1       21 0.36452561E-03 0.12500000E+03</pdfrwt>
<totfact> 0.11895082E+06</totfact>
</mgrwt>
</event>
<event>
 3    1  0.1573868E-001  0.1250000E+03  0.7546771E-02  0.1235069E+00
         21   -1    0    0  502  501  0.00000000000E+00  0.00000000000E+00  0.68019362661E+03  0.68019362661E+03  0.00000000000E+00 0. -1.
         21   -1    0    0  501  502 -0.00000000000E+00 -0.00000000000E+00 -0.57428500462E+01  0.57428500462E+01  0.00000000000E+00 0. -1.
         25    1    1    2    0    0  0.00000000000E+00  0.00000000000E+00  0.67445077656E+03  0.68593647666E+03  0.12500000000E+03 0.  0.
<mgrwt>
<rscale>  0 0.12500000E+03</rscale>
<asrwt>0</asrwt>
<pdfrwt beam="1">  1       21 0.10464511E+00 0.12500000E+03</pdfrwt>
<pdfrwt beam="2">  1       21 0.88351593E-03 0.12500000E+03</pdfrwt>
<totfact> 0.33459441E+06</totfact>
</mgrwt>
</event>
<event>
 3    1  0.1573868E-001  0.1250000E+03  0.7546771E-02  0.1235069E+00
         21   -1    0    0  502  501  0.00000000000E+00  0.00000000000E+00  0.13179579588E+03  0.13179579588E+03  0.00000000000E+00 0. -1.
         21   -1    0    0  501  502 -0.00000000000E+00 -0.00000000000E+00 -0.29638654055E+02  0.29638654055E+02  0.00000000000E+00 0. -1.
         25    1    1    2    0    0  0.00000000000E+00  0.00000000000E+00  0.10215714183E+03  0.16143444994E+03  0.12500000000E+03 0.  0.
<mgrwt>
<rscale>  0 0.12500000E+03</rscale>
<asrwt>0</asrwt>
<pdfrwt beam="1">  1       21 0.20276276E-01 0.12500000E+03</pdfrwt>
<pdfrwt beam="2">  1       21 0.45597930E-02 0.12500000E+03</pdfrwt>
<totfact> 0.69344645E+06</totfact>
</mgrwt>
</event>
<event>
 3    1  0.1573868E-001  0.1250000E+03  0.7546771E-02  0.1235069E+00
         21   -1    0    0  502  501  0.00000000000E+00  0.00000000000E+00  0.85391450590E+03  0.85391450590E+03  0.00000000000E+00 0.  1.
         21   -1    0    0  501  502 -0.00000000000E+00 -0.00000000000E+00 -0.45745211880E+01  0.45745211880E+01  0.00000000000E+00 0.  1.
         25    1    1    2    0    0  0.00000000000E+00  0.00000000000E+00  0.84933998471E+03  0.85848902709E+03  0.12500000000E+03 0.  0.
<mgrwt>
<rscale>  0 0.12500000E+03</rscale>
<asrwt>0</asrwt>
<pdfrwt beam="1">  1       21 0.13137134E+00 0.12500000E+03</pdfrwt>
<pdfrwt beam="2">  1       21 0.70377317E-03 0.12500000E+03</pdfrwt>
<totfact> 0.27514158E+06</totfact>
</mgrwt>
</event>
<event>
 3    1  0.1573868E-001  0.1250000E+03  0.7546771E-02  0.1235069E+00
         21   -1    0    0  502  501  0.00000000000E+00  0.00000000000E+00  0.12226917777E+03  0.12226917777E+03  0.00000000000E+00 0. -1.
         21   -1    0    0  501  502 -0.00000000000E+00 -0.00000000000E+00 -0.31947953451E+02  0.31947953451E+02  0.00000000000E+00 0. -1.
         25    1    1    2    0    0  0.00000000000E+00  0.00000000000E+00  0.90321224320E+02  0.15421713122E+03  0.12500000000E+03 0.  0.
<mgrwt>
<rscale>  0 0.12500000E+03</rscale>
<asrwt>0</asrwt>
<pdfrwt beam="1">  1       21 0.18810643E-01 0.12500000E+03</pdfrwt>
<pdfrwt beam="2">  1       21 0.49150698E-02 0.12500000E+03</pdfrwt>
<totfact> 0.70233090E+06</totfact>
</mgrwt>
</event>
<event>
 3    1  0.1573868E-001  0.1250000E+03  0.7546771E-02  0.1235069E+00
         21   -1    0    0  502  501  0.00000000000E+00  0.00000000000E+00  0.26230235936E+02  0.26230235936E+02  0.00000000000E+00 0.  1.
         21   -1    0    0  501  502 -0.00000000000E+00 -0.00000000000E+00 -0.14892164941E+03  0.14892164941E+03  0.00000000000E+00 0.  1.
         25    1    1    2    0    0  0.00000000000E+00  0.00000000000E+00 -0.12269141347E+03  0.17515188535E+03  0.12500000000E+03 0.  0.
<mgrwt>
<rscale>  0 0.12500000E+03</rscale>
<asrwt>0</asrwt>
<pdfrwt beam="1">  1       21 0.40354210E-02 0.12500000E+03</pdfrwt>
<pdfrwt beam="2">  1       21 0.22911022E-01 0.12500000E+03</pdfrwt>
<totfact> 0.67712097E+06</totfact>
</mgrwt>
</event>
<event>
 3    1  0.1573868E-001  0.1250000E+03  0.7546771E-02  0.1235069E+00
         21   -1    0    0  502  501  0.00000000000E+00  0.00000000000E+00  0.30073256973E+02  0.30073256973E+02  0.00000000000E+00 0. -1.
         21   -1    0    0  501  502 -0.00000000000E+00 -0.00000000000E+00 -0.12989115225E+03  0.12989115225E+03  0.00000000000E+00 0. -1.
         25    1    1    2    0    0  0.00000000000E+00  0.00000000000E+00 -0.99817895273E+02  0.15996440922E+03  0.12500000000E+03 0.  0.
<mgrwt>
<rscale>  0 0.12500000E+03</rscale>
<asrwt>0</asrwt>
<pdfrwt beam="1">  1       21 0.46266549E-02 0.12500000E+03</pdfrwt>
<pdfrwt beam="2">  1       21 0.19983254E-01 0.12500000E+03</pdfrwt>
<totfact> 0.69523845E+06</totfact>
</mgrwt>
</event>
<event>
 3    1  0.1573868E-001  0.1250000E+03  0.7546771E-02  0.1235069E+00
         21   -1    0    0  502  501  0.00000000000E+00  0.00000000000E+00  0.40440662487E+03  0.40440662487E+03  0.00000000000E+00 0. -1.
         21   -1    0    0  501  502 -0.00000000000E+00 -0.00000000000E+00 -0.96592136721E+01  0.96592136721E+01  0.00000000000E+00 0. -1.
         25    1    1    2    0    0  0.00000000000E+00  0.00000000000E+00  0.39474741120E+03  0.41406583854E+03  0.12500000000E+03 0.  0.
<mgrwt>
<rscale>  0 0.12500000E+03</rscale>
<asrwt>0</asrwt>
<pdfrwt beam="1">  1       21 0.62216391E-01 0.12500000E+03</pdfrwt>
<pdfrwt beam="2">  1       21 0.14860332E-02 0.12500000E+03</pdfrwt>
<totfact> 0.47122167E+06</totfact>
</mgrwt>
</event>
<event>
 3    1  0.1573868E-001  0.1250000E+03  0.7546771E-02  0.1235069E+00
         21   -1    0    0  502  501  0.00000000000E+00  0.00000000000E+00  0.20858917738E+01  0.20858917738E+01  0.00000000000E+00 0. -1.
         21   -1    0    0  501  502 -0.00000000000E+00 -0.00000000000E+00 -0.18727002278E+04  0.18727002278E+04  0.00000000000E+00 0. -1.
         25    1    1    2    0    0  0.00000000000E+00  0.00000000000E+00 -0.18706143361E+04  0.18747861196E+04  0.12500000000E+03 0.  0.
<mgrwt>
<rscale>  0 0.12500000E+03</rscale>
<asrwt>0</asrwt>
<pdfrwt beam="1">  1       21 0.32090688E-03 0.12500000E+03</pdfrwt>
<pdfrwt beam="2">  1       21 0.28810732E+00 0.12500000E+03</pdfrwt>
<totfact> 0.92351908E+05</totfact>
</mgrwt>
</event>
<event>
 3    1  0.1573868E-001  0.1250000E+03  0.7546771E-02  0.1235069E+00
         21   -1    0    0  502  501  0.00000000000E+00  0.00000000000E+00  0.89589521136E+01  0.89589521136E+01  0.00000000000E+00 0.  1.
         21   -1    0    0  501  502 -0.00000000000E+00 -0.00000000000E+00 -0.43601639460E+03  0.43601639460E+03  0.00000000000E+00 0.  1.
         25    1    1    2    0    0  0.00000000000E+00  0.00000000000E+00 -0.42705744249E+03  0.44497534672E+03  0.12500000000E+03 0.  0.
<mgrwt>
<rscale>  0 0.12500000E+03</rscale>
<asrwt>0</asrwt>
<pdfrwt beam="1">  1       21 0.13783005E-02 0.12500000E+03</pdfrwt>
<pdfrwt beam="2">  1       21 0.67079439E-01 0.12500000E+03</pdfrwt>
<totfact> 0.45194469E+06</totfact>
</mgrwt>
</event>
<event>
 3    1  0.1573868E-001  0.1250000E+03  0.7546771E-02  0.1235069E+00
         21   -1    0    0  502  501  0.00000000000E+00  0.00000000000E+00  0.11948823956E+03  0.11948823956E+03  0.00000000000E+00 0.  1.
         21   -1    0    0  501  502 -0.00000000000E+00 -0.00000000000E+00 -0.32691501810E+02  0.32691501810E+02  0.00000000000E+00 0.  1.
         25    1    1    2    0    0  0.00000000000E+00  0.00000000000E+00  0.86796737755E+02  0.15217974137E+03  0.12500000000E+03 0.  0.
<mgrwt>
<rscale>  0 0.12500000E+03</rscale>
<asrwt>0</asrwt>
<pdfrwt beam="1">  1       21 0.18382806E-01 0.12500000E+03</pdfrwt>
<pdfrwt beam="2">  1       21 0.50294619E-02 0.12500000E+03</pdfrwt>
<totfact> 0.70486448E+06</totfact>
</mgrwt>
</event>
<event>
 3    1  0.1573868E-001  0.1250000E+03  0.7546771E-02  0.1235069E+00
         21   -1    0    0  502  501  0.00000000000E+00  0.00000000000E+00  0.25761248879E+02  0.25761248879E+02  0.00000000000E+00 0. -1.
         21   -1    0    0  501  502 -0.00000000000E+00 -0.00000000000E+00 -0.15163278839E+03  0.15163278839E+03  0.00000000000E+00 0. -1.
         25    1    1    2    0    0  0.00000000000E+00  0.00000000000E+00 -0.12587153951E+03  0.17739403727E+03  0.12500000000E+03 0.  0.
<mgrwt>
<rscale>  0 0.12500000E+03</rscale>
<asrwt>0</asrwt>
<pdfrwt beam="1">  1       21 0.39632691E-02 0.12500000E+03</pdfrwt>
<pdfrwt beam="2">  1       21 0.23328121E-01 0.12500000E+03</pdfrwt>
<totfact> 0.67451749E+06</totfact>
</mgrwt>
</event>
<event>
 3    1  0.1573868E-001  0.1250000E+03  0.7546771E-02  0.1235069E+00
         21   -1    0    0  502  501  0.00000000000E+00  0.00000000000E+00  0.16242717893E+03  0.16242717893E+03  0.00000000000E+00 0. -1.
         21   -1    0    0  501  502 -0.00000000000E+00 -0.00000000000E+00 -0.24049238715E+02  0.24049238715E+02  0.00000000000E+00 0. -1.
         25    1    1    2    0    0  0.00000000000E+00  0.00000000000E+00  0.13837794022E+03  0.18647641765E+03  0.12500000000E+03 0.  0.
<mgrwt>
<rscale>  0 0.12500000E+03</rscale>
<asrwt>0</asrwt>
<pdfrwt beam="1">  1       21 0.24988796E-01 0.12500000E+03</pdfrwt>
<pdfrwt beam="2">  1       21 0.36998830E-02 0.12500000E+03</pdfrwt>
<totfact> 0.66416236E+06</totfact>
</mgrwt>
</event>
<event>
 3    1  0.1573868E-001  0.1250000E+03  0.7546771E-02  0.1235069E+00
         21   -1    0    0  502  501  0.00000000000E+00  0.00000000000E+00  0.62405744819E+02  0.62405744819E+02  0.00000000000E+00 0. -1.
         21   -1    0    0  501  502 -0.00000000000E+00 -0.00000000000E+00 -0.62594397540E+02  0.62594397540E+02  0.00000000000E+00 0. -1.
         25    1    1    2    0    0  0.00000000000E+00  0.00000000000E+00 -0.18865272104E+00  0.12500014236E+03  0.12500000000E+03 0.  0.
<mgrwt>
<rscale>  0 0.12500000E+03</rscale>
<asrwt>0</asrwt>
<pdfrwt beam="1">  1       21 0.96008838E-02 0.12500000E+03</pdfrwt>
<pdfrwt beam="2">  1       21 0.96299073E-02 0.12500000E+03</pdfrwt>
<totfact> 0.74043562E+06</totfact>
</mgrwt>
</event>
<event>
 3    1  0.1573868E-001  0.1250000E+03  0.7546771E-02  0.1235069E+00
         21   -1    0    0  502  501  0.00000000000E+00  0.00000000000E+00  0.41213979699E+01  0.41213979699E+01  0.00000000000E+00 0. -1.
         21   -1    0    0  501  502 -0.00000000000E+00 -0.00000000000E+00 -0.94779733200E+03  0.94779733200E+03  0.00000000000E+00 0. -1.
         25    1    1    2    0    0  0.00000000000E+00  0.00000000000E+00 -0.94367593403E+03  0.95191872997E+03  0.12500000000E+03 0.  0.
<mgrwt>
<rscale>  0 0.12500000E+03</rscale>
<asrwt>0</asrwt>
<pdfrwt beam="1">  1       21 0.63406074E-03 0.12500000E+03</pdfrwt>
<pdfrwt beam="2">  1       21 0.14581509E+00 0.12500000E+03</pdfrwt>
<totfact> 0.24860083E+06</totfact>
</mgrwt>
</event>
<event>
 3    1  0.1573868E-001  0.1250000E+03  0.7546771E-02  0.1235069E+00
         21   -1    0    0  502  501  0.00000000000E+00  0.00000000000E+00  0.11768173257E+02  0.11768173257E+02  0.00000000000E+00 0.  1.
         21   -1    0    0  501  502 -0.00000000000E+00 -0.00000000000E+00 -0.33193342032E+03  0.33193342032E+03  0.00000000000E+00 0.  1.
         25    1    1    2    0    0  0.00000000000E+00  0.00000000000E+00 -0.32016524706E+03  0.34370159357E+03  0.12500000000E+03 0.  0.
<mgrwt>
<rscale>  0 0.12500000E+03</rscale>
<asrwt>0</asrwt>
<pdfrwt beam="1">  1       21 0.18104881E-02 0.12500000E+03</pdfrwt>
<pdfrwt beam="2">  1       21 0.51066684E-01 0.12500000E+03</pdfrwt>
<totfact> 0.52006975E+06</totfact>
</mgrwt>
</event>
<event>
 3    1  0.1573868E-001  0.1250000E+03  0.7546771E-02  0.1235069E+00
         21   -1    0    0  502  501  0.00000000000E+00  0.00000000000E+00  0.26890128872E+03  0.26890128872E+03  0.00000000000E+00 0.  1.
         21   -1    0    0  501  502 -0.00000000000E+00 -0.00000000000E+00 -0.14526706133E+02  0.14526706133E+02  0.00000000000E+00 0.  1.
         25    1    1    2    0    0  0.00000000000E+00  0.00000000000E+00  0.25437458259E+03  0.28342799486E+03  0.12500000000E+03 0.  0.
<mgrwt>
<rscale>  0 0.12500000E+03</rscale>
<asrwt>0</asrwt>
<pdfrwt beam="1">  1       21 0.41369425E-01 0.12500000E+03</pdfrwt>
<pdfrwt beam="2">  1       21 0.22348781E-02 0.12500000E+03</pdfrwt>
<totfact> 0.56862121E+06</totfact>
</mgrwt>
</event>
<event>
 3    1  0.1573868E-001  0.1250000E+03  0.7546771E-02  0.1235069E+00
         21   -1    0    0  502  501  0.00000000000E+00  0.00000000000E+00  0.16347482616E+02  0.16347482616E+02  0.00000000000E+00 0. -1.
         21   -1    0    0  501  502 -0.00000000000E+00 -0.00000000000E+00 -0.23895116403E+03  0.23895116403E+03  0.00000000000E+00 0. -1.
         25    1    1    2    0    0  0.00000000000E+00  0.00000000000E+00 -0.22260368141E+03  0.25529864664E+03  0.12500000000E+03 0.  0.
<mgrwt>
<rscale>  0 0.12500000E+03</rscale>
<asrwt>0</asrwt>
<pdfrwt beam="1">  1       21 0.25149974E-02 0.12500000E+03</pdfrwt>
<pdfrwt beam="2">  1       21 0.36761716E-01 0.12500000E+03</pdfrwt>
<totfact> 0.59382886E+06</totfact>
</mgrwt>
</event>
<event>
 3    1  0.1573868E-001  0.1250000E+03  0.7546771E-02  0.1235069E+00
         21   -1    0    0  502  501  0.00000000000E+00  0.00000000000E+00  0.16817255641E+03  0.16817255641E+03  0.00000000000E+00 0. -1.
         21   -1    0    0  501  502 -0.00000000000E+00 -0.00000000000E+00 -0.23227630496E+02  0.23227630496E+02  0.00000000000E+00 0. -1.
         25    1    1    2    0    0  0.00000000000E+00  0.00000000000E+00  0.14494492592E+03  0.19140018691E+03  0.12500000000E+03 0.  0.
<mgrwt>
<rscale>  0 0.12500000E+03</rscale>
<asrwt>0</asrwt>
<pdfrwt beam="1">  1       21 0.25872700E-01 0.12500000E+03</pdfrwt>
<pdfrwt beam="2">  1       21 0.35734817E-02 0.12500000E+03</pdfrwt>
<totfact> 0.65867184E+06</totfact>
</mgrwt>
</event>
<event>
 3    1  0.1573868E-001  0.1250000E+03  0.7546771E-02  0.1235069E+00
         21   -1    0    0  502  501  0.00000000000E+00  0.00000000000E+00  0.71163783715E+02  0.71163783715E+02  0.00000000000E+00 0. -1.
         21   -1    0    0  501  502 -0.00000000000E+00 -0.00000000000E+00 -0.54890982408E+02  0.54890982408E+02  0.00000000000E+00 0. -1.
         25    1    1    2    0    0  0.00000000000E+00  0.00000000000E+00  0.16272801306E+02  0.12605476612E+03  0.12500000000E+03 0.  0.
<mgrwt>
<rscale>  0 0.12500000E+03</rscale>
<asrwt>0</asrwt>
<pdfrwt beam="1">  1       21 0.10948275E-01 0.12500000E+03</pdfrwt>
<pdfrwt beam="2">  1       21 0.84447665E-02 0.12500000E+03</pdfrwt>
<totfact> 0.73898491E+06</totfact>
</mgrwt>
</event>
<event>
 3    1  0.1573868E-001  0.1250000E+03  0.7546771E-02  0.1235069E+00
         21   -1    0    0  502  501  0.00000000000E+00  0.00000000000E+00  0.28620871145E+03  0.28620871145E+03  0.00000000000E+00 0.  1.
         21   -1    0    0  501  502 -0.00000000000E+00 -0.00000000000E+00 -0.13648256827E+02  0.13648256827E+02  0.00000000000E+00 0.  1.
         25    1    1    2    0    0  0.00000000000E+00  0.00000000000E+00  0.27256045462E+03  0.29985696827E+03  0.12500000000E+03 0.  0.
<mgrwt>
<rscale>  0 0.12500000E+03</rscale>
<asrwt>0</asrwt>
<pdfrwt beam="1">  1       21 0.44032105E-01 0.12500000E+03</pdfrwt>
<pdfrwt beam="2">  1       21 0.20997320E-02 0.12500000E+03</pdfrwt>
<totfact> 0.55468064E+06</totfact>
</mgrwt>
</event>
<event>
 3    1  0.1573868E-001  0.1250000E+03  0.7546771E-02  0.1235069E+00
         21   -1    0    0  502  501  0.00000000000E+00  0.00000000000E+00  0.48656798002E+03  0.48656798002E+03  0.00000000000E+00 0. -1.
         21   -1    0    0  501  502 -0.00000000000E+00 -0.00000000000E+00 -0.80281690543E+01  0.80281690543E+01  0.00000000000E+00 0. -1.
         25    1    1    2    0    0  0.00000000000E+00  0.00000000000E+00  0.47853981097E+03  0.49459614907E+03  0.12500000000E+03 0.  0.
<mgrwt>
<rscale>  0 0.12500000E+03</rscale>
<asrwt>0</asrwt>
<pdfrwt beam="1">  1       21 0.74856589E-01 0.12500000E+03</pdfrwt>
<pdfrwt beam="2">  1       21 0.12351033E-02 0.12500000E+03</pdfrwt>
<totfact> 0.42338666E+06</totfact>
</mgrwt>
</event>
<event>
 3    1  0.1573868E-001  0.1250000E+03  0.7546771E-02  0.1235069E+00
         21   -1    0    0  502  501  0.00000000000E+00  0.00000000000E+00  0.42468551278E+02  0.42468551278E+02  0.00000000000E+00 0. -1.
         21   -1    0    0  501  502 -0.00000000000E+00 -0.00000000000E+00 -0.91979827012E+02  0.91979827012E+02  0.00000000000E+00 0. -1.
         25    1    1    2    0    0  0.00000000000E+00  0.00000000000E+00 -0.49511275734E+02  0.13444837829E+03  0.12500000000E+03 0.  0.
<mgrwt>
<rscale>  0 0.12500000E+03</rscale>
<asrwt>0</asrwt>
<pdfrwt beam="1">  1       21 0.65336233E-02 0.12500000E+03</pdfrwt>
<pdfrwt beam="2">  1       21 0.14150743E-01 0.12500000E+03</pdfrwt>
<totfact> 0.72769593E+06</totfact>
</mgrwt>
</event>
<event>
 3    1  0.1573868E-001  0.1250000E+03  0.7546771E-02  0.1235069E+00
         21   -1    0    0  502  501  0.00000000000E+00  0.00000000000E+00  0.91961564637E+02  0.91961564637E+02  0.00000000000E+00 0.  1.
         21   -1    0    0  501  502 -0.00000000000E+00 -0.00000000000E+00 -0.42476984982E+02  0.42476984982E+02  0.00000000000E+00 0.  1.
         25    1    1    2    0    0  0.00000000000E+00  0.00000000000E+00  0.49484579655E+02  0.13443854962E+03  0.12500000000E+03 0.  0.
<mgrwt>
<rscale>  0 0.12500000E+03</rscale>
<asrwt>0</asrwt>
<pdfrwt beam="1">  1       21 0.14147933E-01 0.12500000E+03</pdfrwt>
<pdfrwt beam="2">  1       21 0.65349208E-02 0.12500000E+03</pdfrwt>
<totfact> 0.72770898E+06</totfact>
</mgrwt>
</event>
<event>
 3    1  0.1573868E-001  0.1250000E+03  0.7546771E-02  0.1235069E+00
         21   -1    0    0  502  501  0.00000000000E+00  0.00000000000E+00  0.35900910968E+01  0.35900910968E+01  0.00000000000E+00 0.  1.
         21   -1    0    0  501  502 -0.00000000000E+00 -0.00000000000E+00 -0.10880643122E+04  0.10880643122E+04  0.00000000000E+00 0.  1.
         25    1    1    2    0    0  0.00000000000E+00  0.00000000000E+00 -0.10844742211E+04  0.10916544033E+04  0.12500000000E+03 0.  0.
<mgrwt>
<rscale>  0 0.12500000E+03</rscale>
<asrwt>0</asrwt>
<pdfrwt beam="1">  1       21 0.55232072E-03 0.12500000E+03</pdfrwt>
<pdfrwt beam="2">  1       21 0.16739481E+00 0.12500000E+03</pdfrwt>
<totfact> 0.21437924E+06</totfact>
</mgrwt>
</event>
<event>
 3    1  0.1573868E-001  0.1250000E+03  0.7546771E-02  0.1235069E+00
         21   -1    0    0  502  501  0.00000000000E+00  0.00000000000E+00  0.19701310310E+03  0.19701310310E+03  0.00000000000E+00 0.  1.
         21   -1    0    0  501  502 -0.00000000000E+00 -0.00000000000E+00 -0.19827361422E+02  0.19827361422E+02  0.00000000000E+00 0.  1.
         25    1    1    2    0    0  0.00000000000E+00  0.00000000000E+00  0.17718574168E+03  0.21684046452E+03  0.12500000000E+03 0.  0.
<mgrwt>
<rscale>  0 0.12500000E+03</rscale>
<asrwt>0</asrwt>
<pdfrwt beam="1">  1       21 0.30309707E-01 0.12500000E+03</pdfrwt>
<pdfrwt beam="2">  1       21 0.30503634E-02 0.12500000E+03</pdfrwt>
<totfact> 0.63146950E+06</totfact>
</mgrwt>
</event>
<event>
 3    1  0.1573868E-001  0.1250000E+03  0.7546771E-02  0.1235069E+00
         21   -1    0    0  502  501  0.00000000000E+00  0.00000000000E+00  0.35362678565E+03  0.35362678565E+03  0.00000000000E+00 0. -1.
         21   -1    0    0  501  502 -0.00000000000E+00 -0.00000000000E+00 -0.11046250337E+02  0.11046250337E+02  0.00000000000E+00 0. -1.
         25    1    1    2    0    0  0.00000000000E+00  0.00000000000E+00  0.34258053531E+03  0.36467303598E+03  0.12500000000E+03 0.  0.
<mgrwt>
<rscale>  0 0.12500000E+03</rscale>
<asrwt>0</asrwt>
<pdfrwt beam="1">  1       21 0.54404112E-01 0.12500000E+03</pdfrwt>
<pdfrwt beam="2">  1       21 0.16994234E-02 0.12500000E+03</pdfrwt>
<totfact> 0.50472713E+06</totfact>
</mgrwt>
</event>
<event>
 3    1  0.1573868E-001  0.1250000E+03  0.7546771E-02  0.1235069E+00
         21   -1    0    0  502  501  0.00000000000E+00  0.00000000000E+00  0.26467420798E+01  0.26467420798E+01  0.00000000000E+00 0.  1.
         21   -1    0    0  501  502 -0.00000000000E+00 -0.00000000000E+00 -0.14758710453E+04  0.14758710453E+04  0.00000000000E+00 0.  1.
         25    1    1    2    0    0  0.00000000000E+00  0.00000000000E+00 -0.14732243032E+04  0.14785177874E+04  0.12500000000E+03 0.  0.
<mgrwt>
<rscale>  0 0.12500000E+03</rscale>
<asrwt>0</asrwt>
<pdfrwt beam="1">  1       21 0.40719047E-03 0.12500000E+03</pdfrwt>
<pdfrwt beam="2">  1       21 0.22705743E+00 0.12500000E+03</pdfrwt>
<totfact> 0.14314571E+06</totfact>
</mgrwt>
</event>
<event>
 3    1  0.1573868E-001  0.1250000E+03  0.7546771E-02  0.1235069E+00
         21   -1    0    0  502  501  0.00000000000E+00  0.00000000000E+00  0.15543709164E+03  0.15543709164E+03  0.00000000000E+00 0. -1.
         21   -1    0    0  501  502 -0.00000000000E+00 -0.00000000000E+00 -0.25130745556E+02  0.25130745556E+02  0.00000000000E+00 0. -1.
         25    1    1    2    0    0  0.00000000000E+00  0.00000000000E+00  0.13030634609E+03  0.18056783720E+03  0.12500000000E+03 0.  0.
<mgrwt>
<rscale>  0 0.12500000E+03</rscale>
<asrwt>0</asrwt>
<pdfrwt beam="1">  1       21 0.23913398E-01 0.12500000E+03</pdfrwt>
<pdfrwt beam="2">  1       21 0.38662686E-02 0.12500000E+03</pdfrwt>
<totfact> 0.67086456E+06</totfact>
</mgrwt>
</event>
<event>
 3    1  0.1573868E-001  0.1250000E+03  0.7546771E-02  0.1235069E+00
         21   -1    0    0  502  501  0.00000000000E+00  0.00000000000E+00  0.19219355105E+03  0.19219355105E+03  0.00000000000E+00 0.  1.
         21   -1    0    0  501  502 -0.00000000000E+00 -0.00000000000E+00 -0.20324563330E+02  0.20324563330E+02  0.00000000000E+00 0.  1.
         25    1    1    2    0    0  0.00000000000E+00  0.00000000000E+00  0.17186898772E+03  0.21251811438E+03  0.12500000000E+03 0.  0.
<mgrwt>
<rscale>  0 0.12500000E+03</rscale>
<asrwt>0</asrwt>
<pdfrwt beam="1">  1       21 0.29568237E-01 0.12500000E+03</pdfrwt>
<pdfrwt beam="2">  1       21 0.31268560E-02 0.12500000E+03</pdfrwt>
<totfact> 0.63595572E+06</totfact>
</mgrwt>
</event>
<event>
 3    1  0.1573868E-001  0.1250000E+03  0.7546771E-02  0.1235069E+00
         21   -1    0    0  502  501  0.00000000000E+00  0.00000000000E+00  0.24905360986E+03  0.24905360986E+03  0.00000000000E+00 0.  1.
         21   -1    0    0  501  502 -0.00000000000E+00 -0.00000000000E+00 -0.15684374148E+02  0.15684374148E+02  0.00000000000E+00 0.  1.
         25    1    1    2    0    0  0.00000000000E+00  0.00000000000E+00  0.23336923571E+03  0.26473798401E+03  0.12500000000E+03 0.  0.
<mgrwt>
<rscale>  0 0.12500000E+03</rscale>
<asrwt>0</asrwt>
<pdfrwt beam="1">  1       21 0.38315937E-01 0.12500000E+03</pdfrwt>
<pdfrwt beam="2">  1       21 0.24129808E-02 0.12500000E+03</pdfrwt>
<totfact> 0.58517715E+06</totfact>
</mgrwt>
</event>
<event>
 3    1  0.1573868E-001  0.1250000E+03  0.7546771E-02  0.1235069E+00
         21   -1    0    0  502  501  0.00000000000E+00  0.00000000000E+00  0.19045483405E+02  0.19045483405E+02  0.00000000000E+00 0.  1.
         21   -1    0    0  501  502 -0.00000000000E+00 -0.00000000000E+00 -0.20510112119E+03  0.20510112119E+03  0.00000000000E+00 0.  1.
         25    1    1    2    0    0  0.00000000000E+00  0.00000000000E+00 -0.18605563779E+03  0.22414660460E+03  0.12500000000E+03 0.  0.
<mgrwt>
<rscale>  0 0.12500000E+03</rscale>
<asrwt>0</asrwt>
<pdfrwt beam="1">  1       21 0.29300744E-02 0.12500000E+03</pdfrwt>
<pdfrwt beam="2">  1       21 0.31554018E-01 0.12500000E+03</pdfrwt>
<totfact> 0.62401194E+06</totfact>
</mgrwt>
</event>
<event>
 3    1  0.1573868E-001  0.1250000E+03  0.7546771E-02  0.1235069E+00
         21   -1    0    0  502  501  0.00000000000E+00  0.00000000000E+00  0.40679017749E+02  0.40679017749E+02  0.00000000000E+00 0. -1.
         21   -1    0    0  501  502 -0.00000000000E+00 -0.00000000000E+00 -0.96026163269E+02  0.96026163269E+02  0.00000000000E+00 0. -1.
         25    1    1    2    0    0  0.00000000000E+00  0.00000000000E+00 -0.55347145520E+02  0.13670518102E+03  0.12500000000E+03 0.  0.
<mgrwt>
<rscale>  0 0.12500000E+03</rscale>
<asrwt>0</asrwt>
<pdfrwt beam="1">  1       21 0.62583104E-02 0.12500000E+03</pdfrwt>
<pdfrwt beam="2">  1       21 0.14773256E-01 0.12500000E+03</pdfrwt>
<totfact> 0.72471473E+06</totfact>
</mgrwt>
</event>
<event>
 3    1  0.1573868E-001  0.1250000E+03  0.7546771E-02  0.1235069E+00
         21   -1    0    0  502  501  0.00000000000E+00  0.00000000000E+00  0.18189980939E+03  0.18189980939E+03  0.00000000000E+00 0.  1.
         21   -1    0    0  501  502 -0.00000000000E+00 -0.00000000000E+00 -0.21474733883E+02  0.21474733883E+02  0.00000000000E+00 0.  1.
         25    1    1    2    0    0  0.00000000000E+00  0.00000000000E+00  0.16042507550E+03  0.20337454327E+03  0.12500000000E+03 0.  0.
<mgrwt>
<rscale>  0 0.12500000E+03</rscale>
<asrwt>0</asrwt>
<pdfrwt beam="1">  1       21 0.27984585E-01 0.12500000E+03</pdfrwt>
<pdfrwt beam="2">  1       21 0.33038053E-02 0.12500000E+03</pdfrwt>
<totfact> 0.64563423E+06</totfact>
</mgrwt>
</event>
<event>
 3    1  0.1573868E-001  0.1250000E+03  0.7546771E-02  0.1235069E+00
         21   -1    0    0  502  501  0.00000000000E+00  0.00000000000E+00  0.83303716721E+01  0.83303716721E+01  0.00000000000E+00 0. -1.
         21   -1    0    0  501  502 -0.00000000000E+00 -0.00000000000E+00 -0.46891665267E+03  0.46891665267E+03  0.00000000000E+00 0. -1.
         25    1    1    2    0    0  0.00000000000E+00  0.00000000000E+00 -0.46058628100E+03  0.47724702434E+03  0.12500000000E+03 0.  0.
<mgrwt>
<rscale>  0 0.12500000E+03</rscale>
<asrwt>0</asrwt>
<pdfrwt beam="1">  1       21 0.12815958E-02 0.12500000E+03</pdfrwt>
<pdfrwt beam="2">  1       21 0.72141015E-01 0.12500000E+03</pdfrwt>
<totfact> 0.43305522E+06</totfact>
</mgrwt>
</event>
<event>
 3    1  0.1573868E-001  0.1250000E+03  0.7546771E-02  0.1235069E+00
         21   -1    0    0  502  501  0.00000000000E+00  0.00000000000E+00  0.15663752617E+04  0.15663752617E+04  0.00000000000E+00 0. -1.
         21   -1    0    0  501  502 -0.00000000000E+00 -0.00000000000E+00 -0.24938149214E+01  0.24938149214E+01  0.00000000000E+00 0. -1.
         25    1    1    2    0    0  0.00000000000E+00  0.00000000000E+00  0.15638814467E+04  0.15688690766E+04  0.12500000000E+03 0.  0.
<mgrwt>
<rscale>  0 0.12500000E+03</rscale>
<asrwt>0</asrwt>
<pdfrwt beam="1">  1       21 0.24098002E+00 0.12500000E+03</pdfrwt>
<pdfrwt beam="2">  1       21 0.38366509E-03 0.12500000E+03</pdfrwt>
<totfact> 0.13002095E+06</totfact>
</mgrwt>
</event>
<event>
 3    1  0.1573868E-001  0.1250000E+03  0.7546771E-02  0.1235069E+00
         21   -1    0    0  502  501  0.00000000000E+00  0.00000000000E+00  0.18494945962E+02  0.18494945962E+02  0.00000000000E+00 0. -1.
         21   -1    0    0  501  502 -0.00000000000E+00 -0.00000000000E+00 -0.21120634838E+03  0.21120634838E+03  0.00000000000E+00 0. -1.
         25    1    1    2    0    0  0.00000000000E+00  0.00000000000E+00 -0.19271140241E+03  0.22970129434E+03  0.12500000000E+03 0.  0.
<mgrwt>
<rscale>  0 0.12500000E+03</rscale>
<asrwt>0</asrwt>
<pdfrwt beam="1">  1       21 0.28453763E-02 0.12500000E+03</pdfrwt>
<pdfrwt beam="2">  1       21 0.32493285E-01 0.12500000E+03</pdfrwt>
<totfact> 0.61843718E+06</totfact>
</mgrwt>
</event>
<event>
 3    1  0.1573868E-001  0.1250000E+03  0.7546771E-02  0.1235069E+00
         21   -1    0    0  502  501  0.00000000000E+00  0.00000000000E+00  0.37111636750E+01  0.37111636750E+01  0.00000000000E+00 0.  1.
         21   -1    0    0  501  502 -0.00000000000E+00 -0.00000000000E+00 -0.10525674268E+04  0.10525674268E+04  0.00000000000E+00 0.  1.
         25    1    1    2    0    0  0.00000000000E+00  0.00000000000E+00 -0.10488562632E+04  0.10562785905E+04  0.12500000000E+03 0.  0.
<mgrwt>
<rscale>  0 0.12500000E+03</rscale>
<asrwt>0</asrwt>
<pdfrwt beam="1">  1       21 0.57094798E-03 0.12500000E+03</pdfrwt>
<pdfrwt beam="2">  1       21 0.16193353E+00 0.12500000E+03</pdfrwt>
<totfact> 0.22250870E+06</totfact>
</mgrwt>
</event>
<event>
 3    1  0.1573868E-001  0.1250000E+03  0.7546771E-02  0.1235069E+00
         21   -1    0    0  502  501  0.00000000000E+00  0.00000000000E+00  0.14169579579E+03  0.14169579579E+03  0.00000000000E+00 0.  1.
         21   -1    0    0  501  502 -0.00000000000E+00 -0.00000000000E+00 -0.27567860982E+02  0.27567860982E+02  0.00000000000E+00 0.  1.
         25    1    1    2    0    0  0.00000000000E+00  0.00000000000E+00  0.11412793480E+03  0.16926365677E+03  0.12500000000E+03 0.  0.
<mgrwt>
<rscale>  0 0.12500000E+03</rscale>
<asrwt>0</asrwt>
<pdfrwt beam="1">  1       21 0.21799353E-01 0.12500000E+03</pdfrwt>
<pdfrwt beam="2">  1       21 0.42412095E-02 0.12500000E+03</pdfrwt>
<totfact> 0.68404919E+06</totfact>
</mgrwt>
</event>
<event>
 3    1  0.1573868E-001  0.1250000E+03  0.7546771E-02  0.1235069E+00
         21   -1    0    0  502  501  0.00000000000E+00  0.00000000000E+00  0.60902890429E+02  0.60902890429E+02  0.00000000000E+00 0. -1.
         21   -1    0    0  501  502 -0.00000000000E+00 -0.00000000000E+00 -0.64138991967E+02  0.64138991967E+02  0.00000000000E+00 0. -1.
         25    1    1    2    0    0  0.00000000000E+00  0.00000000000E+00 -0.32361015380E+01  0.12504188240E+03  0.12500000000E+03 0.  0.
<mgrwt>
<rscale>  0 0.12500000E+03</rscale>
<asrwt>0</asrwt>
<pdfrwt beam="1">  1       21 0.93696754E-02 0.12500000E+03</pdfrwt>
<pdfrwt beam="2">  1       21 0.98675373E-02 0.12500000E+03</pdfrwt>
<totfact> 0.74037924E+06</totfact>
</mgrwt>
</event>
<event>
 3    1  0.1573868E-001  0.1250000E+03  0.7546771E-02  0.1235069E+00
         21   -1    0    0  502  501  0.00000000000E+00  0.00000000000E+00  0.20051121413E+02  0.20051121413E+02  0.00000000000E+00 0. -1.
         21   -1    0    0  501  502 -0.00000000000E+00 -0.00000000000E+00 -0.19481454028E+03  0.19481454028E+03  0.00000000000E+00 0. -1.
         25    1    1    2    0    0  0.00000000000E+00  0.00000000000E+00 -0.17476341886E+03  0.21486566169E+03  0.12500000000E+03 0.  0.
<mgrwt>
<rscale>  0 0.12500000E+03</rscale>
<asrwt>0</asrwt>
<pdfrwt beam="1">  1       21 0.30847879E-02 0.12500000E+03</pdfrwt>
<pdfrwt beam="2">  1       21 0.29971468E-01 0.12500000E+03</pdfrwt>
<totfact> 0.63351220E+06</totfact>
</mgrwt>
</event>
<event>
 3    1  0.1573868E-001  0.1250000E+03  0.7546771E-02  0.1235069E+00
         21   -1    0    0  502  501  0.00000000000E+00  0.00000000000E+00  0.32517024469E+02  0.32517024469E+02  0.00000000000E+00 0.  1.
         21   -1    0    0  501  502 -0.00000000000E+00 -0.00000000000E+00 -0.12012938034E+03  0.12012938034E+03  0.00000000000E+00 0.  1.
         25    1    1    2    0    0  0.00000000000E+00  0.00000000000E+00 -0.87612355870E+02  0.15264640481E+03  0.12500000000E+03 0.  0.
<mgrwt>
<rscale>  0 0.12500000E+03</rscale>
<asrwt>0</asrwt>
<pdfrwt beam="1">  1       21 0.50026192E-02 0.12500000E+03</pdfrwt>
<pdfrwt beam="2">  1       21 0.18481443E-01 0.12500000E+03</pdfrwt>
<totfact> 0.70428326E+06</totfact>
</mgrwt>
</event>
<event>
 3    1  0.1573868E-001  0.1250000E+03  0.7546771E-02  0.1235069E+00
         21   -1    0    0  502  501  0.00000000000E+00  0.00000000000E+00  0.13137425428E+02  0.13137425428E+02  0.00000000000E+00 0. -1.
         21   -1    0    0  501  502 -0.00000000000E+00 -0.00000000000E+00 -0.29733755838E+03  0.29733755838E+03  0.00000000000E+00 0. -1.
         25    1    1    2    0    0  0.00000000000E+00  0.00000000000E+00 -0.28420013295E+03  0.31047498380E+03  0.12500000000E+03 0.  0.
<mgrwt>
<rscale>  0 0.12500000E+03</rscale>
<asrwt>0</asrwt>
<pdfrwt beam="1">  1       21 0.20211424E-02 0.12500000E+03</pdfrwt>
<pdfrwt beam="2">  1       21 0.45744239E-01 0.12500000E+03</pdfrwt>
<totfact> 0.54596742E+06</totfact>
</mgrwt>
</event>
<event>
 3    1  0.1573868E-001  0.1250000E+03  0.7546771E-02  0.1235069E+00
         21   -1    0    0  502  501  0.00000000000E+00  0.00000000000E+00  0.12453296104E+04  0.12453296104E+04  0.00000000000E+00 0.  1.
         21   -1    0    0  501  502 -0.00000000000E+00 -0.00000000000E+00 -0.31367197628E+01  0.31367197628E+01  0.00000000000E+00 0.  1.
         25    1    1    2    0    0  0.00000000000E+00  0.00000000000E+00  0.12421928906E+04  0.12484663301E+04  0.12500000000E+03 0.  0.
<mgrwt>
<rscale>  0 0.12500000E+03</rscale>
<asrwt>0</asrwt>
<pdfrwt beam="1">  1       21 0.19158878E+00 0.12500000E+03</pdfrwt>
<pdfrwt beam="2">  1       21 0.48257326E-03 0.12500000E+03</pdfrwt>
<totfact> 0.18203561E+06</totfact>
</mgrwt>
</event>
<event>
 3    1  0.1573868E-001  0.1250000E+03  0.7546771E-02  0.1235069E+00
         21   -1    0    0  502  501  0.00000000000E+00  0.00000000000E+00  0.18473275198E+01  0.18473275198E+01  0.00000000000E+00 0. -1.
         21   -1    0    0  501  502 -0.00000000000E+00 -0.00000000000E+00 -0.21145411185E+04  0.21145411185E+04  0.00000000000E+00 0. -1.
         25    1    1    2    0    0  0.00000000000E+00  0.00000000000E+00 -0.21126937910E+04  0.21163884460E+04  0.12500000000E+03 0.  0.
<mgrwt>
<rscale>  0 0.12500000E+03</rscale>
<asrwt>0</asrwt>
<pdfrwt beam="1">  1       21 0.28420441E-03 0.12500000E+03</pdfrwt>
<pdfrwt beam="2">  1       21 0.32531382E+00 0.12500000E+03</pdfrwt>
<totfact> 0.68679033E+05</totfact>
</mgrwt>
</event>
<event>
 3    1  0.1573868E-001  0.1250000E+03  0.7546771E-02  0.1235069E+00
         21   -1    0    0  502  501  0.00000000000E+00  0.00000000000E+00  0.44366367797E+03  0.44366367797E+03  0.00000000000E+00 0. -1.
         21   -1    0    0  501  502 -0.00000000000E+00 -0.00000000000E+00 -0.88045296335E+01  0.88045296335E+01  0.00000000000E+00 0. -1.
         25    1    1    2    0    0  0.00000000000E+00  0.00000000000E+00  0.43485914834E+03  0.45246820760E+03  0.12500000000E+03 0.  0.
<mgrwt>
<rscale>  0 0.12500000E+03</rscale>
<asrwt>0</asrwt>
<pdfrwt beam="1">  1       21 0.68255933E-01 0.12500000E+03</pdfrwt>
<pdfrwt beam="2">  1       21 0.13545434E-02 0.12500000E+03</pdfrwt>
<totfact> 0.44744951E+06</totfact>
</mgrwt>
</event>
<event>
 3    1  0.1573868E-001  0.1250000E+03  0.7546771E-02  0.1235069E+00
         21   -1    0    0  502  501  0.00000000000E+00  0.00000000000E+00  0.19055824005E+03  0.19055824005E+03  0.00000000000E+00 0. -1.
         21   -1    0    0  501  502 -0.00000000000E+00 -0.00000000000E+00 -0.20498982353E+02  0.20498982353E+02  0.00000000000E+00 0. -1.
         25    1    1    2    0    0  0.00000000000E+00  0.00000000000E+00  0.17005925769E+03  0.21105722240E+03  0.12500000000E+03 0.  0.
<mgrwt>
<rscale>  0 0.12500000E+03</rscale>
<asrwt>0</asrwt>
<pdfrwt beam="1">  1       21 0.29316651E-01 0.12500000E+03</pdfrwt>
<pdfrwt beam="2">  1       21 0.31536897E-02 0.12500000E+03</pdfrwt>
<totfact> 0.63748476E+06</totfact>
</mgrwt>
</event>
<event>
 3    1  0.1573868E-001  0.1250000E+03  0.7546771E-02  0.1235069E+00
         21   -1    0    0  502  501  0.00000000000E+00  0.00000000000E+00  0.48040096454E+02  0.48040096454E+02  0.00000000000E+00 0.  1.
         21   -1    0    0  501  502 -0.00000000000E+00 -0.00000000000E+00 -0.81312284702E+02  0.81312284702E+02  0.00000000000E+00 0.  1.
         25    1    1    2    0    0  0.00000000000E+00  0.00000000000E+00 -0.33272188248E+02  0.12935238116E+03  0.12500000000E+03 0.  0.
<mgrwt>
<rscale>  0 0.12500000E+03</rscale>
<asrwt>0</asrwt>
<pdfrwt beam="1">  1       21 0.73907842E-02 0.12500000E+03</pdfrwt>
<pdfrwt beam="2">  1       21 0.12509582E-01 0.12500000E+03</pdfrwt>
<totfact> 0.73451599E+06</totfact>
</mgrwt>
</event>
<event>
 3    1  0.1573868E-001  0.1250000E+03  0.7546771E-02  0.1235069E+00
         21   -1    0    0  502  501  0.00000000000E+00  0.00000000000E+00  0.32609089196E+02  0.32609089196E+02  0.00000000000E+00 0. -1.
         21   -1    0    0  501  502 -0.00000000000E+00 -0.00000000000E+00 -0.11979022096E+03  0.11979022096E+03  0.00000000000E+00 0. -1.
         25    1    1    2    0    0  0.00000000000E+00  0.00000000000E+00 -0.87181131763E+02  0.15239931015E+03  0.12500000000E+03 0.  0.
<mgrwt>
<rscale>  0 0.12500000E+03</rscale>
<asrwt>0</asrwt>
<pdfrwt beam="1">  1       21 0.50167830E-02 0.12500000E+03</pdfrwt>
<pdfrwt beam="2">  1       21 0.18429265E-01 0.12500000E+03</pdfrwt>
<totfact> 0.70459089E+06</totfact>
</mgrwt>
</event>
<event>
 3    1  0.1573868E-001  0.1250000E+03  0.7546771E-02  0.1235069E+00
         21   -1    0    0  502  501  0.00000000000E+00  0.00000000000E+00  0.32020874072E+03  0.32020874072E+03  0.00000000000E+00 0. -1.
         21   -1    0    0  501  502 -0.00000000000E+00 -0.00000000000E+00 -0.12199073614E+02  0.12199073614E+02  0.00000000000E+00 0. -1.
         25    1    1    2    0    0  0.00000000000E+00  0.00000000000E+00  0.30800966711E+03  0.33240781434E+03  0.12500000000E+03 0.  0.
<mgrwt>
<rscale>  0 0.12500000E+03</rscale>
<asrwt>0</asrwt>
<pdfrwt beam="1">  1       21 0.49262877E-01 0.12500000E+03</pdfrwt>
<pdfrwt beam="2">  1       21 0.18767808E-02 0.12500000E+03</pdfrwt>
<totfact> 0.52864507E+06</totfact>
</mgrwt>
</event>
<event>
 3    1  0.1573868E-001  0.1250000E+03  0.7546771E-02  0.1235069E+00
         21   -1    0    0  502  501  0.00000000000E+00  0.00000000000E+00  0.54907025834E+01  0.54907025834E+01  0.00000000000E+00 0.  1.
         21   -1    0    0  501  502 -0.00000000000E+00 -0.00000000000E+00 -0.71142990185E+03  0.71142990185E+03  0.00000000000E+00 0.  1.
         25    1    1    2    0    0  0.00000000000E+00  0.00000000000E+00 -0.70593919927E+03  0.71692060444E+03  0.12500000000E+03 0.  0.
<mgrwt>
<rscale>  0 0.12500000E+03</rscale>
<asrwt>0</asrwt>
<pdfrwt beam="1">  1       21 0.84472440E-03 0.12500000E+03</pdfrwt>
<pdfrwt beam="2">  1       21 0.10945063E+00 0.12500000E+03</pdfrwt>
<totfact> 0.32267949E+06</totfact>
</mgrwt>
</event>
<event>
 3    1  0.1573868E-001  0.1250000E+03  0.7546771E-02  0.1235069E+00
         21   -1    0    0  502  501  0.00000000000E+00  0.00000000000E+00  0.93358841448E+01  0.93358841448E+01  0.00000000000E+00 0.  1.
         21   -1    0    0  501  502 -0.00000000000E+00 -0.00000000000E+00 -0.41841243308E+03  0.41841243308E+03  0.00000000000E+00 0.  1.
         25    1    1    2    0    0  0.00000000000E+00  0.00000000000E+00 -0.40907654894E+03  0.42774831723E+03  0.12500000000E+03 0.  0.
<mgrwt>
<rscale>  0 0.12500000E+03</rscale>
<asrwt>0</asrwt>
<pdfrwt beam="1">  1       21 0.14362902E-02 0.12500000E+03</pdfrwt>
<pdfrwt beam="2">  1       21 0.64371129E-01 0.12500000E+03</pdfrwt>
<totfact> 0.46253701E+06</totfact>
</mgrwt>
</event>
<event>
 3    1  0.1573868E-001  0.1250000E+03  0.7546771E-02  0.1235069E+00
         21   -1    0    0  502  501  0.00000000000E+00  0.00000000000E+00  0.25328693749E+02  0.25328693749E+02  0.00000000000E+00 0.  1.
         21   -1    0    0  501  502 -0.00000000000E+00 -0.00000000000E+00 -0.15422232345E+03  0.15422232345E+03  0.00000000000E+00 0.  1.
         25    1    1    2    0    0  0.00000000000E+00  0.00000000000E+00 -0.12889362970E+03  0.17955101720E+03  0.12500000000E+03 0.  0.
<mgrwt>
<rscale>  0 0.12500000E+03</rscale>
<asrwt>0</asrwt>
<pdfrwt beam="1">  1       21 0.38967221E-02 0.12500000E+03</pdfrwt>
<pdfrwt beam="2">  1       21 0.23726511E-01 0.12500000E+03</pdfrwt>
<totfact> 0.67203079E+06</totfact>
</mgrwt>
</event>
<event>
 3    1  0.1573868E-001  0.1250000E+03  0.7546771E-02  0.1235069E+00
         21   -1    0    0  502  501  0.00000000000E+00  0.00000000000E+00  0.22508943546E+03  0.22508943546E+03  0.00000000000E+00 0.  1.
         21   -1    0    0  501  502 -0.00000000000E+00 -0.00000000000E+00 -0.17354212969E+02  0.17354212969E+02  0.00000000000E+00 0.  1.
         25    1    1    2    0    0  0.00000000000E+00  0.00000000000E+00  0.20773522249E+03  0.24244364843E+03  0.12500000000E+03 0.  0.
<mgrwt>
<rscale>  0 0.12500000E+03</rscale>
<asrwt>0</asrwt>
<pdfrwt beam="1">  1       21 0.34629142E-01 0.12500000E+03</pdfrwt>
<pdfrwt beam="2">  1       21 0.26698791E-02 0.12500000E+03</pdfrwt>
<totfact> 0.60596995E+06</totfact>
</mgrwt>
</event>
<event>
 3    1  0.1573868E-001  0.1250000E+03  0.7546771E-02  0.1235069E+00
         21   -1    0    0  502  501  0.00000000000E+00  0.00000000000E+00  0.13630159550E+04  0.13630159550E+04  0.00000000000E+00 0. -1.
         21   -1    0    0  501  502 -0.00000000000E+00 -0.00000000000E+00 -0.28658872155E+01  0.28658872155E+01  0.00000000000E+00 0. -1.
         25    1    1    2    0    0  0.00000000000E+00  0.00000000000E+00  0.13601500678E+04  0.13658818422E+04  0.12500000000E+03 0.  0.
<mgrwt>
<rscale>  0 0.12500000E+03</rscale>
<asrwt>0</asrwt>
<pdfrwt beam="1">  1       21 0.20969424E+00 0.12500000E+03</pdfrwt>
<pdfrwt beam="2">  1       21 0.44090681E-03 0.12500000E+03</pdfrwt>
<totfact> 0.16109388E+06</totfact>
</mgrwt>
</event>
<event>
 3    1  0.1573868E-001  0.1250000E+03  0.7546771E-02  0.1235069E+00
         21   -1    0    0  502  501  0.00000000000E+00  0.00000000000E+00  0.24401703573E+02  0.24401703573E+02  0.00000000000E+00 0.  1.
         21   -1    0    0  501  502 -0.00000000000E+00 -0.00000000000E+00 -0.16008103649E+03  0.16008103649E+03  0.00000000000E+00 0.  1.
         25    1    1    2    0    0  0.00000000000E+00  0.00000000000E+00 -0.13567933291E+03  0.18448274006E+03  0.12500000000E+03 0.  0.
<mgrwt>
<rscale>  0 0.12500000E+03</rscale>
<asrwt>0</asrwt>
<pdfrwt beam="1">  1       21 0.37541082E-02 0.12500000E+03</pdfrwt>
<pdfrwt beam="2">  1       21 0.24627852E-01 0.12500000E+03</pdfrwt>
<totfact> 0.66640975E+06</totfact>
</mgrwt>
</event>
<event>
 3    1  0.1573868E-001  0.1250000E+03  0.7546771E-02  0.1235069E+00
         21   -1    0    0  502  501  0.00000000000E+00  0.00000000000E+00  0.21535279950E+03  0.21535279950E+03  0.00000000000E+00 0.  1.
         21   -1    0    0  501  502 -0.00000000000E+00 -0.00000000000E+00 -0.18138840122E+02  0.18138840122E+02  0.00000000000E+00 0.  1.
         25    1    1    2    0    0  0.00000000000E+00  0.00000000000E+00  0.19721395938E+03  0.23349163963E+03  0.12500000000E+03 0.  0.
<mgrwt>
<rscale>  0 0.12500000E+03</rscale>
<asrwt>0</asrwt>
<pdfrwt beam="1">  1       21 0.33131198E-01 0.12500000E+03</pdfrwt>
<pdfrwt beam="2">  1       21 0.27905909E-02 0.12500000E+03</pdfrwt>
<totfact> 0.61468208E+06</totfact>
</mgrwt>
</event>
<event>
 3    1  0.1573868E-001  0.1250000E+03  0.7546771E-02  0.1235069E+00
         21   -1    0    0  502  501  0.00000000000E+00  0.00000000000E+00  0.10210771259E+02  0.10210771259E+02  0.00000000000E+00 0. -1.
         21   -1    0    0  501  502 -0.00000000000E+00 -0.00000000000E+00 -0.38256169892E+03  0.38256169892E+03  0.00000000000E+00 0. -1.
         25    1    1    2    0    0  0.00000000000E+00  0.00000000000E+00 -0.37235092766E+03  0.39277247018E+03  0.12500000000E+03 0.  0.
<mgrwt>
<rscale>  0 0.12500000E+03</rscale>
<asrwt>0</asrwt>
<pdfrwt beam="1">  1       21 0.15708879E-02 0.12500000E+03</pdfrwt>
<pdfrwt beam="2">  1       21 0.58855646E-01 0.12500000E+03</pdfrwt>
<totfact> 0.48524468E+06</totfact>
</mgrwt>
</event>
<event>
 3    1  0.1573868E-001  0.1250000E+03  0.7546771E-02  0.1235069E+00
         21   -1    0    0  502  501  0.00000000000E+00  0.00000000000E+00  0.18790507509E+02  0.18790507509E+02  0.00000000000E+00 0. -1.
         21   -1    0    0  501  502 -0.00000000000E+00 -0.00000000000E+00 -0.20788422017E+03  0.20788422017E+03  0.00000000000E+00 0. -1.
         25    1    1    2    0    0  0.00000000000E+00  0.00000000000E+00 -0.18909371266E+03  0.22667472768E+03  0.12500000000E+03 0.  0.
<mgrwt>
<rscale>  0 0.12500000E+03</rscale>
<asrwt>0</asrwt>
<pdfrwt beam="1">  1       21 0.28908473E-02 0.12500000E+03</pdfrwt>
<pdfrwt beam="2">  1       21 0.31982188E-01 0.12500000E+03</pdfrwt>
<totfact> 0.62146466E+06</totfact>
</mgrwt>
</event>
<event>
 3    1  0.1573868E-001  0.1250000E+03  0.7546771E-02  0.1235069E+00
         21   -1    0    0  502  501  0.00000000000E+00  0.00000000000E+00  0.20949509598E+02  0.20949509598E+02  0.00000000000E+00 0. -1.
         21   -1    0    0  501  502 -0.00000000000E+00 -0.00000000000E+00 -0.18646021196E+03  0.18646021196E+03  0.00000000000E+00 0. -1.
         25    1    1    2    0    0  0.00000000000E+00  0.00000000000E+00 -0.16551070236E+03  0.20740972156E+03  0.12500000000E+03 0.  0.
<mgrwt>
<rscale>  0 0.12500000E+03</rscale>
<asrwt>0</asrwt>
<pdfrwt beam="1">  1       21 0.32230015E-02 0.12500000E+03</pdfrwt>
<pdfrwt beam="2">  1       21 0.28686186E-01 0.12500000E+03</pdfrwt>
<totfact> 0.64133097E+06</totfact>
</mgrwt>
</event>
<event>
 3    1  0.1573868E-001  0.1250000E+03  0.7546771E-02  0.1235069E+00
         21   -1    0    0  502  501  0.00000000000E+00  0.00000000000E+00  0.86803149798E+02  0.86803149798E+02  0.00000000000E+00 0. -1.
         21   -1    0    0  501  502 -0.00000000000E+00 -0.00000000000E+00 -0.45001247179E+02  0.45001247179E+02  0.00000000000E+00 0. -1.
         25    1    1    2    0    0  0.00000000000E+00  0.00000000000E+00  0.41801902619E+02  0.13180439698E+03  0.12500000000E+03 0.  0.
<mgrwt>
<rscale>  0 0.12500000E+03</rscale>
<asrwt>0</asrwt>
<pdfrwt beam="1">  1       21 0.13354331E-01 0.12500000E+03</pdfrwt>
<pdfrwt beam="2">  1       21 0.69232688E-02 0.12500000E+03</pdfrwt>
<totfact> 0.73122477E+06</totfact>
</mgrwt>
</event>
<event>
 3    1  0.1573868E-001  0.1250000E+03  0.7546771E-02  0.1235069E+00
         21   -1    0    0  502  501  0.00000000000E+00  0.00000000000E+00  0.82015235248E+02  0.82015235248E+02  0.00000000000E+00 0. -1.
         21   -1    0    0  501  502 -0.00000000000E+00 -0.00000000000E+00 -0.47628345980E+02  0.47628345980E+02  0.00000000000E+00 0. -1.
         25    1    1    2    0    0  0.00000000000E+00  0.00000000000E+00  0.34386889268E+02  0.12964358123E+03  0.12500000000E+03 0.  0.
<mgrwt>
<rscale>  0 0.12500000E+03</rscale>
<asrwt>0</asrwt>
<pdfrwt beam="1">  1       21 0.12617729E-01 0.12500000E+03</pdfrwt>
<pdfrwt beam="2">  1       21 0.73274378E-02 0.12500000E+03</pdfrwt>
<totfact> 0.73412589E+06</totfact>
</mgrwt>
</event>
