<event>
 4    1  0.1132373E+000  0.2626756E+03  0.7546771E-02  0.1105546E+00
         21   -1    0    0  501  502  0.00000000000E+00  0.00000000000E+00  0.36070348029E+03  0.36070348029E+03  0.00000000000E+00 0. -1.
         21   -1    0    0  502  503 -0.00000000000E+00 -0.00000000000E+00 -0.31880838472E+03  0.31880838472E+03  0.00000000000E+00 0.  1.
          6    1    1    2  501    0  0.16660041205E+03  0.10797567922E+03  0.23582510450E+03  0.35300414234E+03  0.17200000000E+03 0. -1.
         -6    1    1    2    0  503 -0.16660041205E+03 -0.10797567922E+03 -0.19393000893E+03  0.32650772267E+03  0.17200000000E+03 0.  1.
<mgrwt>
<rscale>  2 0.26267555E+03</rscale>
<asrwt>0</asrwt>
<pdfrwt beam="1">  1       21 0.90175870E-01 0.26267555E+03</pdfrwt>
<pdfrwt beam="2">  1       21 0.79702096E-01 0.26267555E+03</pdfrwt>
<totfact> 0.13683051E+03</totfact>
</mgrwt>
</event>
<event>
 4    1  0.1132373E+000  0.1781625E+03  0.7546771E-02  0.1169593E+00
         21   -1    0    0  501  502  0.00000000000E+00  0.00000000000E+00  0.78818189855E+03  0.78818189855E+03  0.00000000000E+00 0.  1.
         21   -1    0    0  502  503 -0.00000000000E+00 -0.00000000000E+00 -0.48030247112E+02  0.48030247112E+02  0.00000000000E+00 0.  1.
          6    1    1    2  501    0 -0.25116662313E+02  0.39077117306E+02  0.53811229181E+03  0.56683922449E+03  0.17200000000E+03 0.  1.
         -6    1    1    2    0  503  0.25116662313E+02 -0.39077117306E+02  0.20203935963E+03  0.26937292117E+03  0.17200000000E+03 0.  1.
<mgrwt>
<rscale>  2 0.17816248E+03</rscale>
<asrwt>0</asrwt>
<pdfrwt beam="1">  1       21 0.19704543E+00 0.17816248E+03</pdfrwt>
<pdfrwt beam="2">  1       21 0.12007564E-01 0.17816248E+03</pdfrwt>
<totfact> 0.83286743E+03</totfact>
</mgrwt>
</event>
<event>
 4    1  0.1132373E+000  0.1781757E+03  0.7546771E-02  0.1169580E+00
         21   -1    0    0  501  502  0.00000000000E+00  0.00000000000E+00  0.10352992816E+04  0.10352992816E+04  0.00000000000E+00 0.  1.
         21   -1    0    0  502  503 -0.00000000000E+00 -0.00000000000E+00 -0.33064686580E+02  0.33064686580E+02  0.00000000000E+00 0.  1.
          6    1    1    2  501    0  0.13537943245E+02  0.44489433153E+02  0.35718440576E+03  0.39915822087E+03  0.17200000000E+03 0.  1.
         -6    1    1    2    0  503 -0.13537943245E+02 -0.44489433153E+02  0.64505018931E+03  0.66920574736E+03  0.17200000000E+03 0.  1.
<mgrwt>
<rscale>  2 0.17817572E+03</rscale>
<asrwt>0</asrwt>
<pdfrwt beam="1">  1       21 0.25882471E+00 0.17817572E+03</pdfrwt>
<pdfrwt beam="2">  1       21 0.82661751E-02 0.17817572E+03</pdfrwt>
<totfact> 0.67944446E+03</totfact>
</mgrwt>
</event>
<event>
 4    1  0.1132373E+000  0.1992542E+03  0.7546771E-02  0.1150370E+00
         21   -1    0    0  501  502  0.00000000000E+00  0.00000000000E+00  0.29272712322E+03  0.29272712322E+03  0.00000000000E+00 0.  1.
         21   -1    0    0  502  503 -0.00000000000E+00 -0.00000000000E+00 -0.15767469382E+03  0.15767469382E+03  0.00000000000E+00 0.  1.
          6    1    1    2  501    0  0.45858680229E+02 -0.89527666370E+02  0.15173419020E+03  0.25045056613E+03  0.17200000000E+03 0.  1.
         -6    1    1    2    0  503 -0.45858680229E+02  0.89527666370E+02 -0.16681760793E+02  0.19995125091E+03  0.17200000000E+03 0.  1.
<mgrwt>
<rscale>  2 0.19925416E+03</rscale>
<asrwt>0</asrwt>
<pdfrwt beam="1">  1       21 0.73181780E-01 0.19925416E+03</pdfrwt>
<pdfrwt beam="2">  1       21 0.39418674E-01 0.19925416E+03</pdfrwt>
<totfact> 0.10371222E+04</totfact>
</mgrwt>
</event>
<event>
 4    1  0.1132373E+000  0.2038560E+03  0.7546771E-02  0.1146526E+00
         21   -1    0    0  503  502  0.00000000000E+00  0.00000000000E+00  0.58112457165E+03  0.58112457165E+03  0.00000000000E+00 0. -1.
         21   -1    0    0  501  503 -0.00000000000E+00 -0.00000000000E+00 -0.22213707076E+03  0.22213707076E+03  0.00000000000E+00 0. -1.
          6    1    1    2  501    0  0.10901055554E+03 -0.94854426982E+01 -0.15123001705E+03  0.25382630459E+03  0.17200000000E+03 0. -1.
         -6    1    1    2    0  502 -0.10901055554E+03  0.94854426982E+01  0.51021751794E+03  0.54943533783E+03  0.17200000000E+03 0. -1.
<mgrwt>
<rscale>  2 0.20385601E+03</rscale>
<asrwt>0</asrwt>
<pdfrwt beam="1">  1       21 0.14528114E+00 0.20385601E+03</pdfrwt>
<pdfrwt beam="2">  1       21 0.55534269E-01 0.20385601E+03</pdfrwt>
<totfact> 0.98184852E+02</totfact>
</mgrwt>
</event>
<event>
 4    1  0.1132373E+000  0.1820859E+03  0.7546771E-02  0.1165799E+00
         21   -1    0    0  501  502  0.00000000000E+00  0.00000000000E+00  0.47977254682E+03  0.47977254682E+03  0.00000000000E+00 0. -1.
         21   -1    0    0  502  503 -0.00000000000E+00 -0.00000000000E+00 -0.69713110780E+02  0.69713110780E+02  0.00000000000E+00 0. -1.
          6    1    1    2  501    0 -0.31036042157E+02 -0.51068849785E+02  0.23066436063E+03  0.29387294975E+03  0.17200000000E+03 0. -1.
         -6    1    1    2    0  503  0.31036042157E+02  0.51068849785E+02  0.17939507540E+03  0.25561270784E+03  0.17200000000E+03 0. -1.
<mgrwt>
<rscale>  2 0.18208587E+03</rscale>
<asrwt>0</asrwt>
<pdfrwt beam="1">  1       21 0.11994313E+00 0.18208587E+03</pdfrwt>
<pdfrwt beam="2">  1       21 0.17428279E-01 0.18208587E+03</pdfrwt>
<totfact> 0.15866946E+04</totfact>
</mgrwt>
</event>
<event>
 4    1  0.1132373E+000  0.1855895E+03  0.7546771E-02  0.1162501E+00
         21   -1    0    0  501  502  0.00000000000E+00  0.00000000000E+00  0.36930659332E+03  0.36930659332E+03  0.00000000000E+00 0.  1.
         21   -1    0    0  502  503 -0.00000000000E+00 -0.00000000000E+00 -0.10401681780E+03  0.10401681780E+03  0.00000000000E+00 0. -1.
          6    1    1    2  501    0  0.56937084469E+02  0.40219936046E+02  0.56557628884E+02  0.19401608240E+03  0.17200000000E+03 0. -1.
         -6    1    1    2    0  503 -0.56937084469E+02 -0.40219936046E+02  0.20873214663E+03  0.27930732872E+03  0.17200000000E+03 0.  1.
<mgrwt>
<rscale>  2 0.18558953E+03</rscale>
<asrwt>0</asrwt>
<pdfrwt beam="1">  1       21 0.92326645E-01 0.18558953E+03</pdfrwt>
<pdfrwt beam="2">  1       21 0.26004205E-01 0.18558953E+03</pdfrwt>
<totfact> 0.13973911E+04</totfact>
</mgrwt>
</event>
<event>
 4    1  0.1132373E+000  0.2352422E+03  0.7546771E-02  0.1123004E+00
         21   -1    0    0  501  502  0.00000000000E+00  0.00000000000E+00  0.11630105883E+03  0.11630105883E+03  0.00000000000E+00 0. -1.
         21   -1    0    0  502  503 -0.00000000000E+00 -0.00000000000E+00 -0.70206827455E+03  0.70206827455E+03  0.00000000000E+00 0. -1.
          6    1    1    2  501    0 -0.59295628854E+02 -0.14912712651E+03 -0.60600207521E+02  0.24292232630E+03  0.17200000000E+03 0. -1.
         -6    1    1    2    0  503  0.59295628854E+02  0.14912712651E+03 -0.52516700820E+03  0.57544700708E+03  0.17200000000E+03 0. -1.
<mgrwt>
<rscale>  2 0.23524215E+03</rscale>
<asrwt>0</asrwt>
<pdfrwt beam="1">  1       21 0.29075265E-01 0.23524215E+03</pdfrwt>
<pdfrwt beam="2">  1       21 0.17551706E+00 0.23524215E+03</pdfrwt>
<totfact> 0.21274311E+03</totfact>
</mgrwt>
</event>
<event>
 4    1  0.1132373E+000  0.2091088E+03  0.7546771E-02  0.1142274E+00
         21   -1    0    0  503  502  0.00000000000E+00  0.00000000000E+00  0.27307455907E+03  0.27307455907E+03  0.00000000000E+00 0. -1.
         21   -1    0    0  501  503 -0.00000000000E+00 -0.00000000000E+00 -0.20617492494E+03  0.20617492494E+03  0.00000000000E+00 0. -1.
          6    1    1    2  501    0  0.83097528188E+02 -0.85072346554E+02 -0.79795592926E+02  0.22381653198E+03  0.17200000000E+03 0. -1.
         -6    1    1    2    0  502 -0.83097528188E+02  0.85072346554E+02  0.14669522706E+03  0.25543295203E+03  0.17200000000E+03 0. -1.
<mgrwt>
<rscale>  2 0.20910883E+03</rscale>
<asrwt>0</asrwt>
<pdfrwt beam="1">  1       21 0.68268639E-01 0.20910883E+03</pdfrwt>
<pdfrwt beam="2">  1       21 0.51543732E-01 0.20910883E+03</pdfrwt>
<totfact> 0.69175278E+03</totfact>
</mgrwt>
</event>
<event>
 4    1  0.1132373E+000  0.1740404E+03  0.7546771E-02  0.1173699E+00
         21   -1    0    0  501  502  0.00000000000E+00  0.00000000000E+00  0.61211171394E+03  0.61211171394E+03  0.00000000000E+00 0.  1.
         21   -1    0    0  502  503 -0.00000000000E+00 -0.00000000000E+00 -0.54054973924E+02  0.54054973924E+02  0.00000000000E+00 0.  1.
          6    1    1    2  501    0 -0.82583613737E+01  0.25256144717E+02  0.37588141419E+03  0.41421843381E+03  0.17200000000E+03 0.  1.
         -6    1    1    2    0  503  0.82583613737E+01 -0.25256144717E+02  0.18217532583E+03  0.25194825405E+03  0.17200000000E+03 0.  1.
<mgrwt>
<rscale>  2 0.17404044E+03</rscale>
<asrwt>0</asrwt>
<pdfrwt beam="1">  1       21 0.15302791E+00 0.17404044E+03</pdfrwt>
<pdfrwt beam="2">  1       21 0.13513745E-01 0.17404044E+03</pdfrwt>
<totfact> 0.13626758E+04</totfact>
</mgrwt>
</event>
<event>
 4    1  0.1132373E+000  0.2525860E+03  0.7546771E-02  0.1111681E+00
         21   -1    0    0  501  502  0.00000000000E+00  0.00000000000E+00  0.10587382599E+03  0.10587382599E+03  0.00000000000E+00 0.  1.
         21   -1    0    0  502  503 -0.00000000000E+00 -0.00000000000E+00 -0.61249561804E+03  0.61249561804E+03  0.00000000000E+00 0.  1.
          6    1    1    2  501    0  0.66245037899E+02  0.17270583965E+03 -0.20765910079E+03  0.32698931823E+03  0.17200000000E+03 0.  1.
         -6    1    1    2    0  503 -0.66245037899E+02 -0.17270583965E+03 -0.29896269126E+03  0.39138012579E+03  0.17200000000E+03 0.  1.
<mgrwt>
<rscale>  2 0.25258605E+03</rscale>
<asrwt>0</asrwt>
<pdfrwt beam="1">  1       21 0.26468457E-01 0.25258605E+03</pdfrwt>
<pdfrwt beam="2">  1       21 0.15312390E+00 0.25258605E+03</pdfrwt>
<totfact> 0.36661305E+03</totfact>
</mgrwt>
</event>
<event>
 4    1  0.1132373E+000  0.2203233E+03  0.7546771E-02  0.1133642E+00
         21   -1    0    0  503  502  0.00000000000E+00  0.00000000000E+00  0.19811755236E+03  0.19811755236E+03  0.00000000000E+00 0.  1.
         21   -1    0    0  501  503 -0.00000000000E+00 -0.00000000000E+00 -0.29278735836E+03  0.29278735836E+03  0.00000000000E+00 0.  1.
          6    1    1    2  501    0 -0.53060974159E+02  0.12705458924E+03 -0.14647894741E+03  0.26457214075E+03  0.17200000000E+03 0.  1.
         -6    1    1    2    0  502  0.53060974159E+02 -0.12705458924E+03  0.51809141413E+02  0.22633276997E+03  0.17200000000E+03 0.  1.
<mgrwt>
<rscale>  2 0.22032325E+03</rscale>
<asrwt>0</asrwt>
<pdfrwt beam="1">  1       21 0.49529388E-01 0.22032325E+03</pdfrwt>
<pdfrwt beam="2">  1       21 0.73196839E-01 0.22032325E+03</pdfrwt>
<totfact> 0.63939728E+03</totfact>
</mgrwt>
</event>
<event>
 4    1  0.1132373E+000  0.2226717E+03  0.7546771E-02  0.1131907E+00
         21   -1    0    0  501  502  0.00000000000E+00  0.00000000000E+00  0.17267546749E+03  0.17267546749E+03  0.00000000000E+00 0.  1.
         21   -1    0    0  502  503 -0.00000000000E+00 -0.00000000000E+00 -0.35749159895E+03  0.35749159895E+03  0.00000000000E+00 0.  1.
          6    1    1    2  501    0  0.11525161209E+01  0.14141201226E+03  0.25183227287E+02  0.22409123240E+03  0.17200000000E+03 0.  1.
         -6    1    1    2    0  503 -0.11525161209E+01 -0.14141201226E+03 -0.20999935875E+03  0.30607583403E+03  0.17200000000E+03 0.  1.
<mgrwt>
<rscale>  2 0.22267170E+03</rscale>
<asrwt>0</asrwt>
<pdfrwt beam="1">  1       21 0.43168867E-01 0.22267170E+03</pdfrwt>
<pdfrwt beam="2">  1       21 0.89372899E-01 0.22267170E+03</pdfrwt>
<totfact> 0.53869133E+03</totfact>
</mgrwt>
</event>
<event>
 4    1  0.1132373E+000  0.1858670E+03  0.7546771E-02  0.1162243E+00
         21   -1    0    0  501  502  0.00000000000E+00  0.00000000000E+00  0.49904212940E+02  0.49904212940E+02  0.00000000000E+00 0.  1.
         21   -1    0    0  502  503 -0.00000000000E+00 -0.00000000000E+00 -0.82423576285E+03  0.82423576285E+03  0.00000000000E+00 0.  1.
          6    1    1    2  501    0 -0.50002177328E+02  0.49621696369E+02 -0.21227068253E+03  0.28214424175E+03  0.17200000000E+03 0.  1.
         -6    1    1    2    0  503  0.50002177328E+02 -0.49621696369E+02 -0.56206086737E+03  0.59199573404E+03  0.17200000000E+03 0.  1.
<mgrwt>
<rscale>  2 0.18586697E+03</rscale>
<asrwt>0</asrwt>
<pdfrwt beam="1">  1       21 0.12476054E-01 0.18586697E+03</pdfrwt>
<pdfrwt beam="2">  1       21 0.20605893E+00 0.18586697E+03</pdfrwt>
<totfact> 0.67657754E+03</totfact>
</mgrwt>
</event>
<event>
 4    1  0.1132373E+000  0.1764614E+03  0.7546771E-02  0.1171272E+00
         21   -1    0    0  503  502  0.00000000000E+00  0.00000000000E+00  0.80390919720E+03  0.80390919720E+03  0.00000000000E+00 0.  1.
         21   -1    0    0  501  503 -0.00000000000E+00 -0.00000000000E+00 -0.48624299476E+02  0.48624299476E+02  0.00000000000E+00 0.  1.
          6    1    1    2  501    0 -0.35078736795E+02 -0.18003054974E+02  0.18539558901E+03  0.25594951101E+03  0.17200000000E+03 0.  1.
         -6    1    1    2    0  502  0.35078736795E+02  0.18003054974E+02  0.56988930872E+03  0.59658398566E+03  0.17200000000E+03 0.  1.
<mgrwt>
<rscale>  2 0.17646141E+03</rscale>
<asrwt>0</asrwt>
<pdfrwt beam="1">  1       21 0.20097726E+00 0.17646141E+03</pdfrwt>
<pdfrwt beam="2">  1       21 0.12156077E-01 0.17646141E+03</pdfrwt>
<totfact> 0.77004896E+03</totfact>
</mgrwt>
</event>
<event>
 4    1  0.1132373E+000  0.2556023E+03  0.7546771E-02  0.1109815E+00
         21   -1    0    0  503  502  0.00000000000E+00  0.00000000000E+00  0.29108021648E+03  0.29108021648E+03  0.00000000000E+00 0. -1.
         21   -1    0    0  501  503 -0.00000000000E+00 -0.00000000000E+00 -0.27184595920E+03  0.27184595920E+03  0.00000000000E+00 0.  1.
          6    1    1    2  501    0 -0.13540502019E+03 -0.13196225012E+03 -0.10790968330E+03  0.27744739087E+03  0.17200000000E+03 0.  1.
         -6    1    1    2    0  502  0.13540502019E+03  0.13196225012E+03  0.12714394059E+03  0.28547878481E+03  0.17200000000E+03 0. -1.
<mgrwt>
<rscale>  2 0.25560234E+03</rscale>
<asrwt>0</asrwt>
<pdfrwt beam="1">  1       21 0.72770054E-01 0.25560234E+03</pdfrwt>
<pdfrwt beam="2">  1       21 0.67961490E-01 0.25560234E+03</pdfrwt>
<totfact> 0.32084020E+03</totfact>
</mgrwt>
</event>
<event>
 4    1  0.1132373E+000  0.1879721E+03  0.7546771E-02  0.1160303E+00
         21   -1    0    0  503  502  0.00000000000E+00  0.00000000000E+00  0.18838847025E+03  0.18838847025E+03  0.00000000000E+00 0. -1.
         21   -1    0    0  501  503 -0.00000000000E+00 -0.00000000000E+00 -0.21363461298E+03  0.21363461298E+03  0.00000000000E+00 0. -1.
          6    1    1    2  501    0 -0.38978816998E+02 -0.65039821634E+02  0.57606707608E+02  0.19660126992E+03  0.17200000000E+03 0. -1.
         -6    1    1    2    0  502  0.38978816998E+02  0.65039821634E+02 -0.82852850347E+02  0.20542181331E+03  0.17200000000E+03 0. -1.
<mgrwt>
<rscale>  2 0.18797214E+03</rscale>
<asrwt>0</asrwt>
<pdfrwt beam="1">  1       21 0.47097118E-01 0.18797214E+03</pdfrwt>
<pdfrwt beam="2">  1       21 0.53408653E-01 0.18797214E+03</pdfrwt>
<totfact> 0.14359869E+04</totfact>
</mgrwt>
</event>
<event>
 4    1  0.1132373E+000  0.1899443E+03  0.7546771E-02  0.1158512E+00
         21   -1    0    0  503  502  0.00000000000E+00  0.00000000000E+00  0.10265390593E+03  0.10265390593E+03  0.00000000000E+00 0.  1.
         21   -1    0    0  501  503 -0.00000000000E+00 -0.00000000000E+00 -0.44086528541E+03  0.44086528541E+03  0.00000000000E+00 0.  1.
          6    1    1    2  501    0  0.35410723306E+02  0.72394306390E+02 -0.29148580453E+03  0.34791209976E+03  0.17200000000E+03 0.  1.
         -6    1    1    2    0  502 -0.35410723306E+02 -0.72394306390E+02 -0.46725574955E+02  0.19560709158E+03  0.17200000000E+03 0.  1.
<mgrwt>
<rscale>  2 0.18994435E+03</rscale>
<asrwt>0</asrwt>
<pdfrwt beam="1">  1       21 0.25663477E-01 0.18994435E+03</pdfrwt>
<pdfrwt beam="2">  1       21 0.11021632E+00 0.18994435E+03</pdfrwt>
<totfact> 0.93831053E+03</totfact>
</mgrwt>
</event>
<event>
 4    1  0.1132373E+000  0.1911721E+03  0.7546771E-02  0.1157408E+00
         21   -1    0    0  501  502  0.00000000000E+00  0.00000000000E+00  0.20919550518E+02  0.20919550518E+02  0.00000000000E+00 0. -1.
         21   -1    0    0  502  503 -0.00000000000E+00 -0.00000000000E+00 -0.22401993722E+04  0.22401993722E+04  0.00000000000E+00 0.  1.
          6    1    1    2  501    0 -0.79734970476E+02 -0.24598964901E+02 -0.16401023028E+04  0.16512063282E+04  0.17200000000E+03 0.  1.
         -6    1    1    2    0  503  0.79734970476E+02  0.24598964901E+02 -0.57917751888E+03  0.60991259453E+03  0.17200000000E+03 0. -1.
<mgrwt>
<rscale>  2 0.19117211E+03</rscale>
<asrwt>0</asrwt>
<pdfrwt beam="1">  1       21 0.52298881E-02 0.19117211E+03</pdfrwt>
<pdfrwt beam="2">  1       21 0.56004979E+00 0.19117211E+03</pdfrwt>
<totfact> 0.17257546E+02</totfact>
</mgrwt>
</event>
<event>
 4    1  0.1132373E+000  0.1936319E+03  0.7546771E-02  0.1155226E+00
         21   -1    0    0  503  502  0.00000000000E+00  0.00000000000E+00  0.12195258395E+03  0.12195258395E+03  0.00000000000E+00 0. -1.
         21   -1    0    0  501  503 -0.00000000000E+00 -0.00000000000E+00 -0.32167388604E+03  0.32167388604E+03  0.00000000000E+00 0. -1.
          6    1    1    2  501    0 -0.30750592809E+02 -0.83448978110E+02 -0.14651721046E+03  0.24281808801E+03  0.17200000000E+03 0. -1.
         -6    1    1    2    0  502  0.30750592809E+02  0.83448978110E+02 -0.53204091632E+02  0.20080838198E+03  0.17200000000E+03 0. -1.
<mgrwt>
<rscale>  2 0.19363195E+03</rscale>
<asrwt>0</asrwt>
<pdfrwt beam="1">  1       21 0.30488146E-01 0.19363195E+03</pdfrwt>
<pdfrwt beam="2">  1       21 0.80418471E-01 0.19363195E+03</pdfrwt>
<totfact> 0.14027101E+04</totfact>
</mgrwt>
</event>
<event>
 4    1  0.1132373E+000  0.1844714E+03  0.7546771E-02  0.1163544E+00
         21   -1    0    0  501  502  0.00000000000E+00  0.00000000000E+00  0.12102555154E+03  0.12102555154E+03  0.00000000000E+00 0. -1.
         21   -1    0    0  502  503 -0.00000000000E+00 -0.00000000000E+00 -0.28199943725E+03  0.28199943725E+03  0.00000000000E+00 0. -1.
          6    1    1    2  501    0  0.65397570713E+02 -0.12994859895E+02 -0.91363599008E+02  0.20585678483E+03  0.17200000000E+03 0. -1.
         -6    1    1    2    0  503 -0.65397570713E+02  0.12994859895E+02 -0.69610286698E+02  0.19716820396E+03  0.17200000000E+03 0. -1.
<mgrwt>
<rscale>  2 0.18447143E+03</rscale>
<asrwt>0</asrwt>
<pdfrwt beam="1">  1       21 0.30256388E-01 0.18447143E+03</pdfrwt>
<pdfrwt beam="2">  1       21 0.70499858E-01 0.18447143E+03</pdfrwt>
<totfact> 0.19211991E+04</totfact>
</mgrwt>
</event>
<event>
 4    1  0.1132373E+000  0.1905428E+03  0.7546771E-02  0.1157973E+00
         21   -1    0    0  503  502  0.00000000000E+00  0.00000000000E+00  0.89988462052E+03  0.89988462052E+03  0.00000000000E+00 0.  1.
         21   -1    0    0  501  503 -0.00000000000E+00 -0.00000000000E+00 -0.57087690652E+02  0.57087690652E+02  0.00000000000E+00 0.  1.
          6    1    1    2  501    0 -0.74227733405E+02  0.34825286178E+02  0.16227872194E+03  0.25028172238E+03  0.17200000000E+03 0.  1.
         -6    1    1    2    0  502  0.74227733405E+02 -0.34825286178E+02  0.68051820793E+03  0.70669058879E+03  0.17200000000E+03 0.  1.
<mgrwt>
<rscale>  2 0.19054280E+03</rscale>
<asrwt>0</asrwt>
<pdfrwt beam="1">  1       21 0.22497111E+00 0.19054280E+03</pdfrwt>
<pdfrwt beam="2">  1       21 0.14271926E-01 0.19054280E+03</pdfrwt>
<totfact> 0.40367229E+03</totfact>
</mgrwt>
</event>
<event>
 4    1  0.1132373E+000  0.1905183E+03  0.7546771E-02  0.1157995E+00
         21   -1    0    0  501  502  0.00000000000E+00  0.00000000000E+00  0.48969137260E+03  0.48969137260E+03  0.00000000000E+00 0.  1.
         21   -1    0    0  502  503 -0.00000000000E+00 -0.00000000000E+00 -0.89140257847E+02  0.89140257847E+02  0.00000000000E+00 0.  1.
          6    1    1    2  501    0 -0.29832601758E+02 -0.76310030108E+02  0.31906728816E+03  0.37161961627E+03  0.17200000000E+03 0.  1.
         -6    1    1    2    0  503  0.29832601758E+02  0.76310030108E+02  0.81483826591E+02  0.20721201418E+03  0.17200000000E+03 0.  1.
<mgrwt>
<rscale>  2 0.19051825E+03</rscale>
<asrwt>0</asrwt>
<pdfrwt beam="1">  1       21 0.12242284E+00 0.19051825E+03</pdfrwt>
<pdfrwt beam="2">  1       21 0.22285066E-01 0.19051825E+03</pdfrwt>
<totfact> 0.94820865E+03</totfact>
</mgrwt>
</event>
<event>
 4    1  0.1132373E+000  0.1943946E+03  0.7546771E-02  0.1154556E+00
         21   -1    0    0  503  502  0.00000000000E+00  0.00000000000E+00  0.12476517449E+03  0.12476517449E+03  0.00000000000E+00 0.  1.
         21   -1    0    0  501  503 -0.00000000000E+00 -0.00000000000E+00 -0.36102509388E+03  0.36102509388E+03  0.00000000000E+00 0.  1.
          6    1    1    2  501    0 -0.49966061233E+02  0.75555668242E+02 -0.21560534871E+03  0.29030145138E+03  0.17200000000E+03 0.  1.
         -6    1    1    2    0  502  0.49966061233E+02 -0.75555668242E+02 -0.20654570674E+02  0.19548881699E+03  0.17200000000E+03 0.  1.
<mgrwt>
<rscale>  2 0.19439461E+03</rscale>
<asrwt>0</asrwt>
<pdfrwt beam="1">  1       21 0.31191294E-01 0.19439461E+03</pdfrwt>
<pdfrwt beam="2">  1       21 0.90256273E-01 0.19439461E+03</pdfrwt>
<totfact> 0.10295115E+04</totfact>
</mgrwt>
</event>
<event>
 4    1  0.1132373E+000  0.1766994E+03  0.7546771E-02  0.1171036E+00
         21   -1    0    0  501  502  0.00000000000E+00  0.00000000000E+00  0.26233487651E+03  0.26233487651E+03  0.00000000000E+00 0.  1.
         21   -1    0    0  502  503 -0.00000000000E+00 -0.00000000000E+00 -0.20327129966E+03  0.20327129966E+03  0.00000000000E+00 0.  1.
          6    1    1    2  501    0  0.30052533662E+02 -0.27120669571E+02  0.17941157027E+03  0.25181579983E+03  0.17200000000E+03 0.  1.
         -6    1    1    2    0  503 -0.30052533662E+02  0.27120669571E+02 -0.12034799342E+03  0.21379037634E+03  0.17200000000E+03 0.  1.
<mgrwt>
<rscale>  2 0.17669942E+03</rscale>
<asrwt>0</asrwt>
<pdfrwt beam="1">  1       21 0.65583719E-01 0.17669942E+03</pdfrwt>
<pdfrwt beam="2">  1       21 0.50817825E-01 0.17669942E+03</pdfrwt>
<totfact> 0.79658604E+03</totfact>
</mgrwt>
</event>
<event>
 4    1  0.1132373E+000  0.1839803E+03  0.7546771E-02  0.1164006E+00
         21   -1    0    0  501  502  0.00000000000E+00  0.00000000000E+00  0.10723996595E+03  0.10723996595E+03  0.00000000000E+00 0. -1.
         21   -1    0    0  502  503 -0.00000000000E+00 -0.00000000000E+00 -0.33980414577E+03  0.33980414577E+03  0.00000000000E+00 0. -1.
          6    1    1    2  501    0  0.63177318539E+02  0.16534458727E+02 -0.56670542869E+02  0.19251055122E+03  0.17200000000E+03 0. -1.
         -6    1    1    2    0  503 -0.63177318539E+02 -0.16534458727E+02 -0.17589363695E+03  0.25453356050E+03  0.17200000000E+03 0. -1.
<mgrwt>
<rscale>  2 0.18398033E+03</rscale>
<asrwt>0</asrwt>
<pdfrwt beam="1">  1       21 0.26809992E-01 0.18398033E+03</pdfrwt>
<pdfrwt beam="2">  1       21 0.84951036E-01 0.18398033E+03</pdfrwt>
<totfact> 0.15983130E+04</totfact>
</mgrwt>
</event>
<event>
 4    1  0.1132373E+000  0.2546867E+03  0.7546771E-02  0.1110378E+00
         21   -1    0    0  501  502  0.00000000000E+00  0.00000000000E+00  0.12253093704E+03  0.12253093704E+03  0.00000000000E+00 0. -1.
         21   -1    0    0  502  503 -0.00000000000E+00 -0.00000000000E+00 -0.15063793015E+04  0.15063793015E+04  0.00000000000E+00 0.  1.
          6    1    1    2  501    0 -0.51562669938E+02  0.18061728672E+03 -0.36009546725E+02  0.25721975167E+03  0.17200000000E+03 0. -1.
         -6    1    1    2    0  503  0.51562669938E+02 -0.18061728672E+03 -0.13478388177E+04  0.13716904869E+04  0.17200000000E+03 0.  1.
<mgrwt>
<rscale>  2 0.25468670E+03</rscale>
<asrwt>0</asrwt>
<pdfrwt beam="1">  1       21 0.30632734E-01 0.25468670E+03</pdfrwt>
<pdfrwt beam="2">  1       21 0.37659482E+00 0.25468670E+03</pdfrwt>
<totfact> 0.11282166E+02</totfact>
</mgrwt>
</event>
<event>
 4    1  0.1132373E+000  0.1752429E+03  0.7546771E-02  0.1172488E+00
         21   -1    0    0  501  502  0.00000000000E+00  0.00000000000E+00  0.21833835478E+03  0.21833835478E+03  0.00000000000E+00 0. -1.
         21   -1    0    0  502  503 -0.00000000000E+00 -0.00000000000E+00 -0.10317302815E+04  0.10317302815E+04  0.00000000000E+00 0. -1.
          6    1    1    2  501    0 -0.93248147046E+00 -0.33544153241E+02  0.17417318372E+03  0.24707565171E+03  0.17200000000E+03 0. -1.
         -6    1    1    2    0  503  0.93248147046E+00  0.33544153241E+02 -0.98756511045E+03  0.10029929846E+04  0.17200000000E+03 0. -1.
<mgrwt>
<rscale>  2 0.17524292E+03</rscale>
<asrwt>0</asrwt>
<pdfrwt beam="1">  1       21 0.54584589E-01 0.17524292E+03</pdfrwt>
<pdfrwt beam="2">  1       21 0.25793257E+00 0.17524292E+03</pdfrwt>
<totfact> 0.19451410E+02</totfact>
</mgrwt>
</event>
<event>
 4    1  0.1132373E+000  0.2200563E+03  0.7546771E-02  0.1133841E+00
         21   -1    0    0  503  502  0.00000000000E+00  0.00000000000E+00  0.11335192702E+03  0.11335192702E+03  0.00000000000E+00 0.  1.
         21   -1    0    0  501  503 -0.00000000000E+00 -0.00000000000E+00 -0.59408575599E+03  0.59408575599E+03  0.00000000000E+00 0. -1.
          6    1    1    2  501    0 -0.29554662483E+02 -0.13404209581E+03 -0.42783781510E+03  0.48111324816E+03  0.17200000000E+03 0. -1.
         -6    1    1    2    0  502  0.29554662483E+02  0.13404209581E+03 -0.52896013865E+02  0.22632443484E+03  0.17200000000E+03 0.  1.
<mgrwt>
<rscale>  2 0.22005627E+03</rscale>
<asrwt>0</asrwt>
<pdfrwt beam="1">  1       21 0.28337982E-01 0.22005627E+03</pdfrwt>
<pdfrwt beam="2">  1       21 0.14852144E+00 0.22005627E+03</pdfrwt>
<totfact> 0.35680944E+03</totfact>
</mgrwt>
</event>
<event>
 4    1  0.1132373E+000  0.1778386E+03  0.7546771E-02  0.1169911E+00
         21   -1    0    0  503  502  0.00000000000E+00  0.00000000000E+00  0.85417044370E+02  0.85417044370E+02  0.00000000000E+00 0.  1.
         21   -1    0    0  501  503 -0.00000000000E+00 -0.00000000000E+00 -0.63858720981E+03  0.63858720981E+03  0.00000000000E+00 0.  1.
          6    1    1    2  501    0 -0.28933316859E+02 -0.34719381319E+02 -0.51124171194E+03  0.54128981174E+03  0.17200000000E+03 0.  1.
         -6    1    1    2    0  502  0.28933316859E+02  0.34719381319E+02 -0.41928453497E+02  0.18271444244E+03  0.17200000000E+03 0.  1.
<mgrwt>
<rscale>  2 0.17783861E+03</rscale>
<asrwt>0</asrwt>
<pdfrwt beam="1">  1       21 0.21354262E-01 0.17783861E+03</pdfrwt>
<pdfrwt beam="2">  1       21 0.15964680E+00 0.17783861E+03</pdfrwt>
<totfact> 0.52366981E+03</totfact>
</mgrwt>
</event>
<event>
 4    1  0.1132373E+000  0.1826935E+03  0.7546771E-02  0.1165221E+00
         21   -1    0    0  503  502  0.00000000000E+00  0.00000000000E+00  0.21265313859E+03  0.21265313859E+03  0.00000000000E+00 0.  1.
         21   -1    0    0  501  503 -0.00000000000E+00 -0.00000000000E+00 -0.15753719622E+03  0.15753719622E+03  0.00000000000E+00 0. -1.
          6    1    1    2  501    0  0.27529282417E+02  0.55091155446E+02  0.16302272245E+02  0.18341935797E+03  0.17200000000E+03 0. -1.
         -6    1    1    2    0  502 -0.27529282417E+02 -0.55091155446E+02  0.38813670129E+02  0.18677097683E+03  0.17200000000E+03 0. -1.
<mgrwt>
<rscale>  2 0.18269345E+03</rscale>
<asrwt>0</asrwt>
<pdfrwt beam="1">  1       21 0.53163285E-01 0.18269345E+03</pdfrwt>
<pdfrwt beam="2">  1       21 0.39384299E-01 0.18269345E+03</pdfrwt>
<totfact> 0.20948532E+04</totfact>
</mgrwt>
</event>
<event>
 4    1  0.1132373E+000  0.2421885E+03  0.7546771E-02  0.1118343E+00
         21   -1    0    0  501  502  0.00000000000E+00  0.00000000000E+00  0.44151243832E+03  0.44151243832E+03  0.00000000000E+00 0.  1.
         21   -1    0    0  502  503 -0.00000000000E+00 -0.00000000000E+00 -0.15513722697E+03  0.15513722697E+03  0.00000000000E+00 0. -1.
          6    1    1    2  501    0  0.15376915574E+03 -0.73663692604E+02  0.30116576018E+02  0.24405388957E+03  0.17200000000E+03 0. -1.
         -6    1    1    2    0  503 -0.15376915574E+03  0.73663692604E+02  0.25625863533E+03  0.35259577571E+03  0.17200000000E+03 0.  1.
<mgrwt>
<rscale>  2 0.24218855E+03</rscale>
<asrwt>0</asrwt>
<pdfrwt beam="1">  1       21 0.11037811E+00 0.24218855E+03</pdfrwt>
<pdfrwt beam="2">  1       21 0.38784308E-01 0.24218855E+03</pdfrwt>
<totfact> 0.39988211E+03</totfact>
</mgrwt>
</event>
<event>
 4    1  0.1132373E+000  0.2018030E+03  0.7546771E-02  0.1148227E+00
         21   -1    0    0  501  502  0.00000000000E+00  0.00000000000E+00  0.73386268128E+03  0.73386268128E+03  0.00000000000E+00 0. -1.
         21   -1    0    0  502  503 -0.00000000000E+00 -0.00000000000E+00 -0.10950014375E+03  0.10950014375E+03  0.00000000000E+00 0. -1.
          6    1    1    2  501    0 -0.16401065040E+02  0.10426620800E+03  0.60832438916E+03  0.64092355200E+03  0.17200000000E+03 0. -1.
         -6    1    1    2    0  503  0.16401065040E+02 -0.10426620800E+03  0.16038148372E+02  0.20243927304E+03  0.17200000000E+03 0. -1.
<mgrwt>
<rscale>  2 0.20180297E+03</rscale>
<asrwt>0</asrwt>
<pdfrwt beam="1">  1       21 0.18346566E+00 0.20180297E+03</pdfrwt>
<pdfrwt beam="2">  1       21 0.27375038E-01 0.20180297E+03</pdfrwt>
<totfact> 0.21742149E+03</totfact>
</mgrwt>
</event>
<event>
 4    1  0.1132373E+000  0.2022752E+03  0.7546771E-02  0.1147833E+00
         21   -1    0    0  503  502  0.00000000000E+00  0.00000000000E+00  0.71242091859E+03  0.71242091859E+03  0.00000000000E+00 0.  1.
         21   -1    0    0  501  503 -0.00000000000E+00 -0.00000000000E+00 -0.11205723685E+03  0.11205723685E+03  0.00000000000E+00 0.  1.
          6    1    1    2  501    0  0.50155829373E+02 -0.93891722401E+02  0.12356760766E+02  0.20265229407E+03  0.17200000000E+03 0.  1.
         -6    1    1    2    0  502 -0.50155829373E+02  0.93891722401E+02  0.58800692098E+03  0.62182586137E+03  0.17200000000E+03 0.  1.
<mgrwt>
<rscale>  2 0.20227522E+03</rscale>
<asrwt>0</asrwt>
<pdfrwt beam="1">  1       21 0.17810522E+00 0.20227522E+03</pdfrwt>
<pdfrwt beam="2">  1       21 0.28014311E-01 0.20227522E+03</pdfrwt>
<totfact> 0.22603617E+03</totfact>
</mgrwt>
</event>
<event>
 4    1  0.1132373E+000  0.1740192E+03  0.7546771E-02  0.1173720E+00
         21   -1    0    0  501  502  0.00000000000E+00  0.00000000000E+00  0.67184482190E+03  0.67184482190E+03  0.00000000000E+00 0. -1.
         21   -1    0    0  502  503 -0.00000000000E+00 -0.00000000000E+00 -0.61035590796E+02  0.61035590796E+02  0.00000000000E+00 0. -1.
          6    1    1    2  501    0 -0.21875974218E+02  0.14837026848E+02  0.49279633504E+03  0.52261929111E+03  0.17200000000E+03 0. -1.
         -6    1    1    2    0  503  0.21875974218E+02 -0.14837026848E+02  0.11801289607E+03  0.21026112159E+03  0.17200000000E+03 0. -1.
<mgrwt>
<rscale>  2 0.17401924E+03</rscale>
<asrwt>0</asrwt>
<pdfrwt beam="1">  1       21 0.16796118E+00 0.17401924E+03</pdfrwt>
<pdfrwt beam="2">  1       21 0.15258900E-01 0.17401924E+03</pdfrwt>
<totfact> 0.85175371E+03</totfact>
</mgrwt>
</event>
<event>
 4    1  0.1132373E+000  0.1893174E+03  0.7546771E-02  0.1159078E+00
         21   -1    0    0  503  502  0.00000000000E+00  0.00000000000E+00  0.77852896172E+02  0.77852896172E+02  0.00000000000E+00 0.  1.
         21   -1    0    0  501  503 -0.00000000000E+00 -0.00000000000E+00 -0.54583303595E+03  0.54583303595E+03  0.00000000000E+00 0.  1.
          6    1    1    2  501    0  0.74538757466E+02  0.26477404896E+02 -0.35738494153E+03  0.40443179371E+03  0.17200000000E+03 0.  1.
         -6    1    1    2    0  502 -0.74538757466E+02 -0.26477404896E+02 -0.11059519825E+03  0.21925413841E+03  0.17200000000E+03 0.  1.
<mgrwt>
<rscale>  2 0.18931740E+03</rscale>
<asrwt>0</asrwt>
<pdfrwt beam="1">  1       21 0.19463224E-01 0.18931740E+03</pdfrwt>
<pdfrwt beam="2">  1       21 0.13645826E+00 0.18931740E+03</pdfrwt>
<totfact> 0.93057268E+03</totfact>
</mgrwt>
</event>
<event>
 4    1  0.1132373E+000  0.2335338E+03  0.7546771E-02  0.1124177E+00
         21   -1    0    0  501  502  0.00000000000E+00  0.00000000000E+00  0.39214276699E+03  0.39214276699E+03  0.00000000000E+00 0.  1.
         21   -1    0    0  502  503 -0.00000000000E+00 -0.00000000000E+00 -0.14850324386E+03  0.14850324386E+03  0.00000000000E+00 0.  1.
          6    1    1    2  501    0 -0.14102216944E+03  0.71181231937E+02  0.18992578461E+03  0.30101465697E+03  0.17200000000E+03 0.  1.
         -6    1    1    2    0  503  0.14102216944E+03 -0.71181231937E+02  0.53713738512E+02  0.23963135387E+03  0.17200000000E+03 0.  1.
<mgrwt>
<rscale>  2 0.23353377E+03</rscale>
<asrwt>0</asrwt>
<pdfrwt beam="1">  1       21 0.98035690E-01 0.23353377E+03</pdfrwt>
<pdfrwt beam="2">  1       21 0.37125812E-01 0.23353377E+03</pdfrwt>
<totfact> 0.58447891E+03</totfact>
</mgrwt>
</event>
<event>
 4    1  0.1132373E+000  0.2253143E+03  0.7546771E-02  0.1129982E+00
         21   -1    0    0  501  502  0.00000000000E+00  0.00000000000E+00  0.27393335958E+03  0.27393335958E+03  0.00000000000E+00 0. -1.
         21   -1    0    0  502  503 -0.00000000000E+00 -0.00000000000E+00 -0.19071583502E+03  0.19071583502E+03  0.00000000000E+00 0. -1.
          6    1    1    2  501    0 -0.71937176001E+00 -0.14554046288E+03  0.80670609728E+02  0.23932047782E+03  0.17200000000E+03 0. -1.
         -6    1    1    2    0  503  0.71937176001E+00  0.14554046288E+03  0.25469148250E+01  0.22532871678E+03  0.17200000000E+03 0. -1.
<mgrwt>
<rscale>  2 0.22531432E+03</rscale>
<asrwt>0</asrwt>
<pdfrwt beam="1">  1       21 0.68483340E-01 0.22531432E+03</pdfrwt>
<pdfrwt beam="2">  1       21 0.47678959E-01 0.22531432E+03</pdfrwt>
<totfact> 0.79966884E+03</totfact>
</mgrwt>
</event>
<event>
 4    1  0.1132373E+000  0.1846291E+03  0.7546771E-02  0.1163397E+00
         21   -1    0    0  503  502  0.00000000000E+00  0.00000000000E+00  0.33523406167E+03  0.33523406167E+03  0.00000000000E+00 0.  1.
         21   -1    0    0  501  503 -0.00000000000E+00 -0.00000000000E+00 -0.10878625971E+03  0.10878625971E+03  0.00000000000E+00 0.  1.
          6    1    1    2  501    0  0.33094185252E+02 -0.58383766586E+02  0.56497039373E+02  0.19307978857E+03  0.17200000000E+03 0.  1.
         -6    1    1    2    0  502 -0.33094185252E+02  0.58383766586E+02  0.16995076259E+03  0.25094053280E+03  0.17200000000E+03 0.  1.
<mgrwt>
<rscale>  2 0.18462906E+03</rscale>
<asrwt>0</asrwt>
<pdfrwt beam="1">  1       21 0.83808513E-01 0.18462906E+03</pdfrwt>
<pdfrwt beam="2">  1       21 0.27196566E-01 0.18462906E+03</pdfrwt>
<totfact> 0.16030375E+04</totfact>
</mgrwt>
</event>
<event>
 4    1  0.1132373E+000  0.2413333E+03  0.7546771E-02  0.1118908E+00
         21   -1    0    0  503  502  0.00000000000E+00  0.00000000000E+00  0.69003931423E+02  0.69003931423E+02  0.00000000000E+00 0. -1.
         21   -1    0    0  501  503 -0.00000000000E+00 -0.00000000000E+00 -0.85676062547E+03  0.85676062547E+03  0.00000000000E+00 0.  1.
          6    1    1    2  501    0  0.71093111047E+02  0.15363441364E+03 -0.45029052878E+03  0.51088484397E+03  0.17200000000E+03 0.  1.
         -6    1    1    2    0  502 -0.71093111047E+02 -0.15363441364E+03 -0.33746616527E+03  0.41487971292E+03  0.17200000000E+03 0. -1.
<mgrwt>
<rscale>  2 0.24133330E+03</rscale>
<asrwt>0</asrwt>
<pdfrwt beam="1">  1       21 0.17250983E-01 0.24133330E+03</pdfrwt>
<pdfrwt beam="2">  1       21 0.21419015E+00 0.24133330E+03</pdfrwt>
<totfact> 0.31725333E+03</totfact>
</mgrwt>
</event>
<event>
 4    1  0.1132373E+000  0.2331422E+03  0.7546771E-02  0.1124448E+00
         21   -1    0    0  501  502  0.00000000000E+00  0.00000000000E+00  0.46015445961E+02  0.46015445961E+02  0.00000000000E+00 0.  1.
         21   -1    0    0  502  503 -0.00000000000E+00 -0.00000000000E+00 -0.12593199603E+04  0.12593199603E+04  0.00000000000E+00 0. -1.
          6    1    1    2  501    0 -0.14662943152E+03  0.57193308173E+02 -0.76916788195E+03  0.80372538551E+03  0.17200000000E+03 0. -1.
         -6    1    1    2    0  503  0.14662943152E+03 -0.57193308173E+02 -0.44413663238E+03  0.50161002074E+03  0.17200000000E+03 0.  1.
<mgrwt>
<rscale>  2 0.23314216E+03</rscale>
<asrwt>0</asrwt>
<pdfrwt beam="1">  1       21 0.11503862E-01 0.23314216E+03</pdfrwt>
<pdfrwt beam="2">  1       21 0.31482998E+00 0.23314216E+03</pdfrwt>
<totfact> 0.16888383E+03</totfact>
</mgrwt>
</event>
<event>
 4    1  0.1132373E+000  0.1909499E+03  0.7546771E-02  0.1157607E+00
         21   -1    0    0  503  502  0.00000000000E+00  0.00000000000E+00  0.32136029315E+03  0.32136029315E+03  0.00000000000E+00 0. -1.
         21   -1    0    0  501  503 -0.00000000000E+00 -0.00000000000E+00 -0.14818558628E+03  0.14818558628E+03  0.00000000000E+00 0.  1.
          6    1    1    2  501    0  0.51097926344E+02  0.65321264514E+02 -0.27061089676E+02  0.19285789652E+03  0.17200000000E+03 0.  1.
         -6    1    1    2    0  502 -0.51097926344E+02 -0.65321264514E+02  0.20023579654E+03  0.27668798292E+03  0.17200000000E+03 0. -1.
<mgrwt>
<rscale>  2 0.19094990E+03</rscale>
<asrwt>0</asrwt>
<pdfrwt beam="1">  1       21 0.80340072E-01 0.19094990E+03</pdfrwt>
<pdfrwt beam="2">  1       21 0.37046397E-01 0.19094990E+03</pdfrwt>
<totfact> 0.95844127E+03</totfact>
</mgrwt>
</event>
<event>
 4    1  0.1132373E+000  0.1768173E+03  0.7546771E-02  0.1170919E+00
         21   -1    0    0  501  502  0.00000000000E+00  0.00000000000E+00  0.72910261941E+03  0.72910261941E+03  0.00000000000E+00 0.  1.
         21   -1    0    0  502  503 -0.00000000000E+00 -0.00000000000E+00 -0.10378261146E+03  0.10378261146E+03  0.00000000000E+00 0. -1.
          6    1    1    2  501    0 -0.40881293272E+02 -0.30144546403E+01  0.63167319477E+03  0.65595380331E+03  0.17200000000E+03 0.  1.
         -6    1    1    2    0  503  0.40881293272E+02  0.30144546403E+01 -0.63531868198E+01  0.17693142756E+03  0.17200000000E+03 0. -1.
<mgrwt>
<rscale>  2 0.17681733E+03</rscale>
<asrwt>0</asrwt>
<pdfrwt beam="1">  1       21 0.18227564E+00 0.17681733E+03</pdfrwt>
<pdfrwt beam="2">  1       21 0.25945655E-01 0.17681733E+03</pdfrwt>
<totfact> 0.25176366E+03</totfact>
</mgrwt>
</event>
<event>
 4    1  0.1132373E+000  0.2041638E+03  0.7546771E-02  0.1146273E+00
         21   -1    0    0  501  502  0.00000000000E+00  0.00000000000E+00  0.14905371372E+03  0.14905371372E+03  0.00000000000E+00 0.  1.
         21   -1    0    0  502  503 -0.00000000000E+00 -0.00000000000E+00 -0.72521676840E+03  0.72521676840E+03  0.00000000000E+00 0. -1.
          6    1    1    2  501    0  0.49348644755E+02  0.98303515007E+02  0.54558662191E+02  0.21132798542E+03  0.17200000000E+03 0.  1.
         -6    1    1    2    0  503 -0.49348644755E+02 -0.98303515007E+02 -0.63072171687E+03  0.66294249670E+03  0.17200000000E+03 0. -1.
<mgrwt>
<rscale>  2 0.20416383E+03</rscale>
<asrwt>0</asrwt>
<pdfrwt beam="1">  1       21 0.37263429E-01 0.20416383E+03</pdfrwt>
<pdfrwt beam="2">  1       21 0.18130419E+00 0.20416383E+03</pdfrwt>
<totfact> 0.12234071E+03</totfact>
</mgrwt>
</event>
<event>
 4    1  0.1132373E+000  0.1930889E+03  0.7546771E-02  0.1155705E+00
         21   -1    0    0  501  502  0.00000000000E+00  0.00000000000E+00  0.31394125806E+03  0.31394125806E+03  0.00000000000E+00 0.  1.
         21   -1    0    0  502  503 -0.00000000000E+00 -0.00000000000E+00 -0.19806101039E+03  0.19806101039E+03  0.00000000000E+00 0.  1.
          6    1    1    2  501    0  0.75835215111E+02 -0.44139963071E+02  0.21992884868E+03  0.29266365451E+03  0.17200000000E+03 0.  1.
         -6    1    1    2    0  503 -0.75835215111E+02  0.44139963071E+02 -0.10404860101E+03  0.21933861393E+03  0.17200000000E+03 0.  1.
<mgrwt>
<rscale>  2 0.19308888E+03</rscale>
<asrwt>0</asrwt>
<pdfrwt beam="1">  1       21 0.78485314E-01 0.19308888E+03</pdfrwt>
<pdfrwt beam="2">  1       21 0.49515253E-01 0.19308888E+03</pdfrwt>
<totfact> 0.55823587E+03</totfact>
</mgrwt>
</event>
<event>
 4    1  0.1132373E+000  0.1995774E+03  0.7546771E-02  0.1150096E+00
         21   -1    0    0  503  502  0.00000000000E+00  0.00000000000E+00  0.89453679915E+03  0.89453679915E+03  0.00000000000E+00 0. -1.
         21   -1    0    0  501  503 -0.00000000000E+00 -0.00000000000E+00 -0.54173995238E+02  0.54173995238E+02  0.00000000000E+00 0. -1.
          6    1    1    2  501    0  0.75288107662E+02  0.67667182639E+02  0.22001012453E+03  0.29704478056E+03  0.17200000000E+03 0. -1.
         -6    1    1    2    0  502 -0.75288107662E+02 -0.67667182639E+02  0.62035267939E+03  0.65166601384E+03  0.17200000000E+03 0. -1.
<mgrwt>
<rscale>  2 0.19957742E+03</rscale>
<asrwt>0</asrwt>
<pdfrwt beam="1">  1       21 0.22363415E+00 0.19957742E+03</pdfrwt>
<pdfrwt beam="2">  1       21 0.13543502E-01 0.19957742E+03</pdfrwt>
<totfact> 0.44818546E+03</totfact>
</mgrwt>
</event>
<event>
 4    1  0.1132373E+000  0.4834974E+03  0.7546771E-02  0.1018178E+00
         21   -1    0    0  503  502  0.00000000000E+00  0.00000000000E+00  0.27048763867E+03  0.27048763867E+03  0.00000000000E+00 0.  1.
         21   -1    0    0  501  503 -0.00000000000E+00 -0.00000000000E+00 -0.88483334611E+03  0.88483334611E+03  0.00000000000E+00 0. -1.
          6    1    1    2  501    0  0.35018089657E+03  0.28558553436E+03 -0.39527126652E+03  0.62450711116E+03  0.17200000000E+03 0. -1.
         -6    1    1    2    0  502 -0.35018089657E+03 -0.28558553436E+03 -0.21907444092E+03  0.53081387361E+03  0.17200000000E+03 0.  1.
<mgrwt>
<rscale>  2 0.48349742E+03</rscale>
<asrwt>0</asrwt>
<pdfrwt beam="1">  1       21 0.67621911E-01 0.48349742E+03</pdfrwt>
<pdfrwt beam="2">  1       21 0.22120833E+00 0.48349742E+03</pdfrwt>
<totfact> 0.15522572E+02</totfact>
</mgrwt>
</event>
<event>
 4    1  0.1132373E+000  0.2372020E+03  0.7546771E-02  0.1121671E+00
         21   -1    0    0  503  502  0.00000000000E+00  0.00000000000E+00  0.12659190706E+03  0.12659190706E+03  0.00000000000E+00 0.  1.
         21   -1    0    0  501  503 -0.00000000000E+00 -0.00000000000E+00 -0.91301231829E+03  0.91301231829E+03  0.00000000000E+00 0.  1.
          6    1    1    2  501    0 -0.13842273007E+03 -0.86717523955E+02 -0.76558451541E+03  0.80148888414E+03  0.17200000000E+03 0.  1.
         -6    1    1    2    0  502  0.13842273007E+03  0.86717523955E+02 -0.20835895820E+02  0.23811534120E+03  0.17200000000E+03 0.  1.
<mgrwt>
<rscale>  2 0.23720198E+03</rscale>
<asrwt>0</asrwt>
<pdfrwt beam="1">  1       21 0.31647977E-01 0.23720198E+03</pdfrwt>
<pdfrwt beam="2">  1       21 0.22825308E+00 0.23720198E+03</pdfrwt>
<totfact> 0.81870432E+02</totfact>
</mgrwt>
</event>
<event>
 4    1  0.1132373E+000  0.1781152E+03  0.7546771E-02  0.1169640E+00
         21   -1    0    0  503  502  0.00000000000E+00  0.00000000000E+00  0.47724446074E+02  0.47724446074E+02  0.00000000000E+00 0. -1.
         21   -1    0    0  501  503 -0.00000000000E+00 -0.00000000000E+00 -0.83157549775E+03  0.83157549775E+03  0.00000000000E+00 0. -1.
          6    1    1    2  501    0  0.21687232897E+02  0.40874008077E+02 -0.58884202289E+03  0.61519098541E+03  0.17200000000E+03 0. -1.
         -6    1    1    2    0  502 -0.21687232897E+02 -0.40874008077E+02 -0.19500902878E+03  0.26410895841E+03  0.17200000000E+03 0. -1.
<mgrwt>
<rscale>  2 0.17811519E+03</rscale>
<asrwt>0</asrwt>
<pdfrwt beam="1">  1       21 0.11931112E-01 0.17811519E+03</pdfrwt>
<pdfrwt beam="2">  1       21 0.20789387E+00 0.17811519E+03</pdfrwt>
<totfact> 0.71884167E+03</totfact>
</mgrwt>
</event>
<event>
 4    1  0.1132373E+000  0.1728870E+03  0.7546771E-02  0.1174870E+00
         21   -1    0    0  501  502  0.00000000000E+00  0.00000000000E+00  0.34761602084E+03  0.34761602084E+03  0.00000000000E+00 0.  1.
         21   -1    0    0  502  503 -0.00000000000E+00 -0.00000000000E+00 -0.11204064924E+03  0.11204064924E+03  0.00000000000E+00 0.  1.
          6    1    1    2  501    0 -0.16728389677E+02  0.51059584042E+01  0.22861918427E+03  0.28662979826E+03  0.17200000000E+03 0.  1.
         -6    1    1    2    0  503  0.16728389677E+02 -0.51059584042E+01  0.69561873374E+01  0.17302687183E+03  0.17200000000E+03 0.  1.
<mgrwt>
<rscale>  2 0.17288699E+03</rscale>
<asrwt>0</asrwt>
<pdfrwt beam="1">  1       21 0.86904003E-01 0.17288699E+03</pdfrwt>
<pdfrwt beam="2">  1       21 0.28010163E-01 0.17288699E+03</pdfrwt>
<totfact> 0.14050504E+04</totfact>
</mgrwt>
</event>
<event>
 4    1  0.1132373E+000  0.1843824E+03  0.7546771E-02  0.1163628E+00
         21   -1    0    0  503  502  0.00000000000E+00  0.00000000000E+00  0.10326296477E+03  0.10326296477E+03  0.00000000000E+00 0.  1.
         21   -1    0    0  501  503 -0.00000000000E+00 -0.00000000000E+00 -0.43675722816E+03  0.43675722816E+03  0.00000000000E+00 0.  1.
          6    1    1    2  501    0 -0.22164593272E+02  0.62622825508E+02 -0.30072299965E+03  0.35274808290E+03  0.17200000000E+03 0.  1.
         -6    1    1    2    0  502  0.22164593272E+02 -0.62622825508E+02 -0.32771263735E+02  0.18727211003E+03  0.17200000000E+03 0.  1.
<mgrwt>
<rscale>  2 0.18438245E+03</rscale>
<asrwt>0</asrwt>
<pdfrwt beam="1">  1       21 0.25815741E-01 0.18438245E+03</pdfrwt>
<pdfrwt beam="2">  1       21 0.10918931E+00 0.18438245E+03</pdfrwt>
<totfact> 0.95278181E+03</totfact>
</mgrwt>
</event>
<event>
 4    1  0.1132373E+000  0.2366690E+03  0.7546771E-02  0.1122032E+00
         21   -1    0    0  501  502  0.00000000000E+00  0.00000000000E+00  0.11527039188E+04  0.11527039188E+04  0.00000000000E+00 0. -1.
         21   -1    0    0  502  503 -0.00000000000E+00 -0.00000000000E+00 -0.66302679320E+02  0.66302679320E+02  0.00000000000E+00 0.  1.
          6    1    1    2  501    0 -0.12662023869E+03  0.10195857058E+03  0.85821301305E+03  0.89024817367E+03  0.17200000000E+03 0. -1.
         -6    1    1    2    0  503  0.12662023869E+03 -0.10195857058E+03  0.22818822642E+03  0.32875842444E+03  0.17200000000E+03 0.  1.
<mgrwt>
<rscale>  2 0.23666904E+03</rscale>
<asrwt>0</asrwt>
<pdfrwt beam="1">  1       21 0.28817591E+00 0.23666904E+03</pdfrwt>
<pdfrwt beam="2">  1       21 0.16575674E-01 0.23666904E+03</pdfrwt>
<totfact> 0.12386028E+03</totfact>
</mgrwt>
</event>
<event>
 4    1  0.1132373E+000  0.1805571E+03  0.7546771E-02  0.1167265E+00
         21   -1    0    0  501  502  0.00000000000E+00  0.00000000000E+00  0.72325897901E+03  0.72325897901E+03  0.00000000000E+00 0. -1.
         21   -1    0    0  502  503 -0.00000000000E+00 -0.00000000000E+00 -0.12977993948E+03  0.12977993948E+03  0.00000000000E+00 0. -1.
          6    1    1    2  501    0  0.24638711166E+02 -0.49089670813E+02  0.64131912117E+03  0.66625151185E+03  0.17200000000E+03 0. -1.
         -6    1    1    2    0  503 -0.24638711166E+02  0.49089670813E+02 -0.47840081640E+02  0.18678740664E+03  0.17200000000E+03 0. -1.
<mgrwt>
<rscale>  2 0.18055709E+03</rscale>
<asrwt>0</asrwt>
<pdfrwt beam="1">  1       21 0.18081473E+00 0.18055709E+03</pdfrwt>
<pdfrwt beam="2">  1       21 0.32444987E-01 0.18055709E+03</pdfrwt>
<totfact> 0.16633364E+03</totfact>
</mgrwt>
</event>
<event>
 4    1  0.1132373E+000  0.2201567E+03  0.7546771E-02  0.1133766E+00
         21   -1    0    0  503  502  0.00000000000E+00  0.00000000000E+00  0.36229202658E+03  0.36229202658E+03  0.00000000000E+00 0. -1.
         21   -1    0    0  501  503 -0.00000000000E+00 -0.00000000000E+00 -0.22272479046E+03  0.22272479046E+03  0.00000000000E+00 0. -1.
          6    1    1    2  501    0 -0.13451408637E+03 -0.28123448841E+02 -0.11505978370E+03  0.24841038954E+03  0.17200000000E+03 0. -1.
         -6    1    1    2    0  502  0.13451408637E+03  0.28123448841E+02  0.25462701983E+03  0.33660642750E+03  0.17200000000E+03 0. -1.
<mgrwt>
<rscale>  2 0.22015669E+03</rscale>
<asrwt>0</asrwt>
<pdfrwt beam="1">  1       21 0.90573006E-01 0.22015669E+03</pdfrwt>
<pdfrwt beam="2">  1       21 0.55681198E-01 0.22015669E+03</pdfrwt>
<totfact> 0.30761355E+03</totfact>
</mgrwt>
</event>
<event>
 4    1  0.1132373E+000  0.1930274E+03  0.7546771E-02  0.1155759E+00
         21   -1    0    0  503  502  0.00000000000E+00  0.00000000000E+00  0.10879552476E+03  0.10879552476E+03  0.00000000000E+00 0.  1.
         21   -1    0    0  501  503 -0.00000000000E+00 -0.00000000000E+00 -0.75879355119E+03  0.75879355119E+03  0.00000000000E+00 0.  1.
          6    1    1    2  501    0  0.21014028056E+02 -0.85052866025E+02 -0.64631767584E+03  0.67452658769E+03  0.17200000000E+03 0.  1.
         -6    1    1    2    0  502 -0.21014028056E+02  0.85052866025E+02 -0.36803506003E+01  0.19306248826E+03  0.17200000000E+03 0.  1.
<mgrwt>
<rscale>  2 0.19302741E+03</rscale>
<asrwt>0</asrwt>
<pdfrwt beam="1">  1       21 0.27198882E-01 0.19302741E+03</pdfrwt>
<pdfrwt beam="2">  1       21 0.18969838E+00 0.19302741E+03</pdfrwt>
<totfact> 0.20183402E+03</totfact>
</mgrwt>
</event>
<event>
 4    1  0.1132373E+000  0.2193486E+03  0.7546771E-02  0.1134370E+00
         21   -1    0    0  503  502  0.00000000000E+00  0.00000000000E+00  0.18284841038E+03  0.18284841038E+03  0.00000000000E+00 0. -1.
         21   -1    0    0  501  503 -0.00000000000E+00 -0.00000000000E+00 -0.26707311288E+03  0.26707311288E+03  0.00000000000E+00 0.  1.
          6    1    1    2  501    0 -0.13215443068E+03 -0.32634367389E+02 -0.69429923282E+02  0.23007457428E+03  0.17200000000E+03 0. -1.
         -6    1    1    2    0  502  0.13215443068E+03  0.32634367389E+02 -0.14794779213E+02  0.21984694898E+03  0.17200000000E+03 0. -1.
<mgrwt>
<rscale>  2 0.21934857E+03</rscale>
<asrwt>0</asrwt>
<pdfrwt beam="1">  1       21 0.45712103E-01 0.21934857E+03</pdfrwt>
<pdfrwt beam="2">  1       21 0.66768278E-01 0.21934857E+03</pdfrwt>
<totfact> 0.92620136E+03</totfact>
</mgrwt>
</event>
<event>
 4    1  0.1132373E+000  0.2174735E+03  0.7546771E-02  0.1135781E+00
         21   -1    0    0  501  502  0.00000000000E+00  0.00000000000E+00  0.25889901812E+03  0.25889901812E+03  0.00000000000E+00 0. -1.
         21   -1    0    0  502  503 -0.00000000000E+00 -0.00000000000E+00 -0.19751386053E+03  0.19751386053E+03  0.00000000000E+00 0. -1.
          6    1    1    2  501    0  0.97470383137E+02  0.90610307299E+02 -0.31855071313E+02  0.21979410580E+03  0.17200000000E+03 0. -1.
         -6    1    1    2    0  503 -0.97470383137E+02 -0.90610307299E+02  0.93240228901E+02  0.23661877285E+03  0.17200000000E+03 0. -1.
<mgrwt>
<rscale>  2 0.21747345E+03</rscale>
<asrwt>0</asrwt>
<pdfrwt beam="1">  1       21 0.64724754E-01 0.21747345E+03</pdfrwt>
<pdfrwt beam="2">  1       21 0.49378465E-01 0.21747345E+03</pdfrwt>
<totfact> 0.84567955E+03</totfact>
</mgrwt>
</event>
<event>
 4    1  0.1132373E+000  0.1799787E+03  0.7546771E-02  0.1167824E+00
         21   -1    0    0  503  502  0.00000000000E+00  0.00000000000E+00  0.53170134341E+02  0.53170134341E+02  0.00000000000E+00 0.  1.
         21   -1    0    0  501  503 -0.00000000000E+00 -0.00000000000E+00 -0.61731265328E+03  0.61731265328E+03  0.00000000000E+00 0.  1.
          6    1    1    2  501    0 -0.16734505864E+01 -0.52967354016E+02 -0.32045386690E+03  0.36753642247E+03  0.17200000000E+03 0.  1.
         -6    1    1    2    0  502  0.16734505864E+01  0.52967354016E+02 -0.24368865204E+03  0.30294636516E+03  0.17200000000E+03 0.  1.
<mgrwt>
<rscale>  2 0.17997872E+03</rscale>
<asrwt>0</asrwt>
<pdfrwt beam="1">  1       21 0.13292534E-01 0.17997872E+03</pdfrwt>
<pdfrwt beam="2">  1       21 0.15432816E+00 0.17997872E+03</pdfrwt>
<totfact> 0.13665714E+04</totfact>
</mgrwt>
</event>
<event>
 4    1  0.1132373E+000  0.3564967E+03  0.7546771E-02  0.1059980E+00
         21   -1    0    0  501  502  0.00000000000E+00  0.00000000000E+00  0.62234885270E+03  0.62234885270E+03  0.00000000000E+00 0. -1.
         21   -1    0    0  502  503 -0.00000000000E+00 -0.00000000000E+00 -0.35277731655E+03  0.35277731655E+03  0.00000000000E+00 0.  1.
          6    1    1    2  501    0 -0.23275177009E+03 -0.20816469235E+03  0.45118977402E+03  0.57503229283E+03  0.17200000000E+03 0. -1.
         -6    1    1    2    0  503  0.23275177009E+03  0.20816469235E+03 -0.18161823786E+03  0.40009387642E+03  0.17200000000E+03 0.  1.
<mgrwt>
<rscale>  2 0.35649674E+03</rscale>
<asrwt>0</asrwt>
<pdfrwt beam="1">  1       21 0.15558721E+00 0.35649674E+03</pdfrwt>
<pdfrwt beam="2">  1       21 0.88194330E-01 0.35649674E+03</pdfrwt>
<totfact> 0.25818525E+02</totfact>
</mgrwt>
</event>
<event>
 4    1  0.1132373E+000  0.2141522E+03  0.7546771E-02  0.1138319E+00
         21   -1    0    0  503  502  0.00000000000E+00  0.00000000000E+00  0.24041352321E+03  0.24041352321E+03  0.00000000000E+00 0. -1.
         21   -1    0    0  501  503 -0.00000000000E+00 -0.00000000000E+00 -0.20466882936E+03  0.20466882936E+03  0.00000000000E+00 0.  1.
          6    1    1    2  501    0  0.39910320243E+02  0.12117894865E+03  0.75886922180E+02  0.22720034379E+03  0.17200000000E+03 0. -1.
         -6    1    1    2    0  502 -0.39910320243E+02 -0.12117894865E+03 -0.40142228331E+02  0.21788200879E+03  0.17200000000E+03 0.  1.
<mgrwt>
<rscale>  2 0.21415222E+03</rscale>
<asrwt>0</asrwt>
<pdfrwt beam="1">  1       21 0.60103381E-01 0.21415222E+03</pdfrwt>
<pdfrwt beam="2">  1       21 0.51167208E-01 0.21415222E+03</pdfrwt>
<totfact> 0.92373112E+03</totfact>
</mgrwt>
</event>
<event>
 4    1  0.1132373E+000  0.1821514E+03  0.7546771E-02  0.1165737E+00
         21   -1    0    0  501  502  0.00000000000E+00  0.00000000000E+00  0.37604368410E+03  0.37604368410E+03  0.00000000000E+00 0. -1.
         21   -1    0    0  502  503 -0.00000000000E+00 -0.00000000000E+00 -0.14081835404E+03  0.14081835404E+03  0.00000000000E+00 0. -1.
          6    1    1    2  501    0 -0.23994108868E+02 -0.54949349849E+02  0.27553765509E+03  0.33030311486E+03  0.17200000000E+03 0. -1.
         -6    1    1    2    0  503  0.23994108868E+02  0.54949349849E+02 -0.40312325031E+02  0.18655892329E+03  0.17200000000E+03 0. -1.
<mgrwt>
<rscale>  2 0.18215144E+03</rscale>
<asrwt>0</asrwt>
<pdfrwt beam="1">  1       21 0.94010919E-01 0.18215144E+03</pdfrwt>
<pdfrwt beam="2">  1       21 0.35204589E-01 0.18215144E+03</pdfrwt>
<totfact> 0.74424082E+03</totfact>
</mgrwt>
</event>
<event>
 4    1  0.1132373E+000  0.1845271E+03  0.7546771E-02  0.1163492E+00
         21   -1    0    0  503  502  0.00000000000E+00  0.00000000000E+00  0.49288202637E+03  0.49288202637E+03  0.00000000000E+00 0. -1.
         21   -1    0    0  501  503 -0.00000000000E+00 -0.00000000000E+00 -0.80366183855E+02  0.80366183855E+02  0.00000000000E+00 0. -1.
          6    1    1    2  501    0  0.55673648145E+02 -0.36968740388E+02  0.98865565632E+02  0.20934336133E+03  0.17200000000E+03 0. -1.
         -6    1    1    2    0  502 -0.55673648145E+02  0.36968740388E+02  0.31365027688E+03  0.36390484890E+03  0.17200000000E+03 0. -1.
<mgrwt>
<rscale>  2 0.18452708E+03</rscale>
<asrwt>0</asrwt>
<pdfrwt beam="1">  1       21 0.12322050E+00 0.18452708E+03</pdfrwt>
<pdfrwt beam="2">  1       21 0.20091547E-01 0.18452708E+03</pdfrwt>
<totfact> 0.11381405E+04</totfact>
</mgrwt>
</event>
<event>
 4    1  0.1132373E+000  0.2162360E+03  0.7546771E-02  0.1136721E+00
         21   -1    0    0  503  502  0.00000000000E+00  0.00000000000E+00  0.15743819879E+03  0.15743819879E+03  0.00000000000E+00 0. -1.
         21   -1    0    0  501  503 -0.00000000000E+00 -0.00000000000E+00 -0.33485551516E+03  0.33485551516E+03  0.00000000000E+00 0.  1.
          6    1    1    2  501    0  0.81317508171E+02  0.10276898559E+03 -0.17147843919E+03  0.27597618854E+03  0.17200000000E+03 0.  1.
         -6    1    1    2    0  502 -0.81317508171E+02 -0.10276898559E+03 -0.59388771825E+01  0.21631752540E+03  0.17200000000E+03 0. -1.
<mgrwt>
<rscale>  2 0.21623599E+03</rscale>
<asrwt>0</asrwt>
<pdfrwt beam="1">  1       21 0.39359550E-01 0.21623599E+03</pdfrwt>
<pdfrwt beam="2">  1       21 0.83713878E-01 0.21623599E+03</pdfrwt>
<totfact> 0.75925594E+03</totfact>
</mgrwt>
</event>
<event>
 4    1  0.1132373E+000  0.1873829E+03  0.7546771E-02  0.1160843E+00
         21   -1    0    0  503  502  0.00000000000E+00  0.00000000000E+00  0.54585978589E+02  0.54585978589E+02  0.00000000000E+00 0.  1.
         21   -1    0    0  501  503 -0.00000000000E+00 -0.00000000000E+00 -0.73319979941E+03  0.73319979941E+03  0.00000000000E+00 0.  1.
          6    1    1    2  501    0  0.42473404062E+01  0.74231435723E+02 -0.47727251253E+03  0.51273911218E+03  0.17200000000E+03 0. -1.
         -6    1    1    2    0  502 -0.42473404062E+01 -0.74231435723E+02 -0.20134130829E+03  0.27504666581E+03  0.17200000000E+03 0. -1.
<mgrwt>
<rscale>  2 0.18738289E+03</rscale>
<asrwt>0</asrwt>
<pdfrwt beam="1">  1       21 0.13646495E-01 0.18738289E+03</pdfrwt>
<pdfrwt beam="2">  1       21 0.18329995E+00 0.18738289E+03</pdfrwt>
<totfact> 0.80849514E+03</totfact>
</mgrwt>
</event>
<event>
 4    1  0.1132373E+000  0.2051073E+03  0.7546771E-02  0.1145500E+00
         21   -1    0    0  503  502  0.00000000000E+00  0.00000000000E+00  0.12478619856E+03  0.12478619856E+03  0.00000000000E+00 0.  1.
         21   -1    0    0  501  503 -0.00000000000E+00 -0.00000000000E+00 -0.34769685555E+03  0.34769685555E+03  0.00000000000E+00 0.  1.
          6    1    1    2  501    0 -0.14779989199E+02 -0.11075449684E+03 -0.15264191769E+03  0.25567276289E+03  0.17200000000E+03 0.  1.
         -6    1    1    2    0  502  0.14779989199E+02  0.11075449684E+03 -0.70268739301E+02  0.21681029121E+03  0.17200000000E+03 0.  1.
<mgrwt>
<rscale>  2 0.20510731E+03</rscale>
<asrwt>0</asrwt>
<pdfrwt beam="1">  1       21 0.31196550E-01 0.20510731E+03</pdfrwt>
<pdfrwt beam="2">  1       21 0.86924213E-01 0.20510731E+03</pdfrwt>
<totfact> 0.11142811E+04</totfact>
</mgrwt>
</event>
<event>
 4    1  0.1132373E+000  0.1810823E+03  0.7546771E-02  0.1166760E+00
         21   -1    0    0  503  502  0.00000000000E+00  0.00000000000E+00  0.21144976711E+03  0.21144976711E+03  0.00000000000E+00 0. -1.
         21   -1    0    0  501  503 -0.00000000000E+00 -0.00000000000E+00 -0.19675763711E+03  0.19675763711E+03  0.00000000000E+00 0. -1.
          6    1    1    2  501    0 -0.43625045505E+02 -0.36106074474E+02 -0.86595381319E+02  0.20072257789E+03  0.17200000000E+03 0. -1.
         -6    1    1    2    0  502  0.43625045505E+02  0.36106074474E+02  0.10128751132E+03  0.20748482633E+03  0.17200000000E+03 0. -1.
<mgrwt>
<rscale>  2 0.18108228E+03</rscale>
<asrwt>0</asrwt>
<pdfrwt beam="1">  1       21 0.52862442E-01 0.18108228E+03</pdfrwt>
<pdfrwt beam="2">  1       21 0.49189409E-01 0.18108228E+03</pdfrwt>
<totfact> 0.13470148E+04</totfact>
</mgrwt>
</event>
<event>
 4    1  0.1132373E+000  0.1828008E+03  0.7546771E-02  0.1165120E+00
         21   -1    0    0  501  502  0.00000000000E+00  0.00000000000E+00  0.18418728279E+03  0.18418728279E+03  0.00000000000E+00 0. -1.
         21   -1    0    0  502  503 -0.00000000000E+00 -0.00000000000E+00 -0.18498029514E+03  0.18498029514E+03  0.00000000000E+00 0. -1.
          6    1    1    2  501    0 -0.52100382726E+02 -0.33431749485E+02  0.25194296858E+02  0.18452881712E+03  0.17200000000E+03 0. -1.
         -6    1    1    2    0  503  0.52100382726E+02  0.33431749485E+02 -0.25987309206E+02  0.18463876081E+03  0.17200000000E+03 0. -1.
<mgrwt>
<rscale>  2 0.18280080E+03</rscale>
<asrwt>0</asrwt>
<pdfrwt beam="1">  1       21 0.46046821E-01 0.18280080E+03</pdfrwt>
<pdfrwt beam="2">  1       21 0.46245074E-01 0.18280080E+03</pdfrwt>
<totfact> 0.20365945E+04</totfact>
</mgrwt>
</event>
<event>
 4    1  0.1132373E+000  0.2234124E+03  0.7546771E-02  0.1131364E+00
         21   -1    0    0  501  502  0.00000000000E+00  0.00000000000E+00  0.58714358945E+02  0.58714358945E+02  0.00000000000E+00 0. -1.
         21   -1    0    0  502  503 -0.00000000000E+00 -0.00000000000E+00 -0.87920686678E+03  0.87920686678E+03  0.00000000000E+00 0. -1.
          6    1    1    2  501    0  0.14187285172E+03  0.14184613335E+02 -0.49557284555E+03  0.54360422603E+03  0.17200000000E+03 0. -1.
         -6    1    1    2    0  503 -0.14187285172E+03 -0.14184613335E+02 -0.32491966229E+03  0.39431699970E+03  0.17200000000E+03 0. -1.
<mgrwt>
<rscale>  2 0.22341242E+03</rscale>
<asrwt>0</asrwt>
<pdfrwt beam="1">  1       21 0.14678590E-01 0.22341242E+03</pdfrwt>
<pdfrwt beam="2">  1       21 0.21980172E+00 0.22341242E+03</pdfrwt>
<totfact> 0.39986474E+03</totfact>
</mgrwt>
</event>
<event>
 4    1  0.1132373E+000  0.2540203E+03  0.7546771E-02  0.1110790E+00
         21   -1    0    0  503  502  0.00000000000E+00  0.00000000000E+00  0.10901595383E+04  0.10901595383E+04  0.00000000000E+00 0.  1.
         21   -1    0    0  501  503 -0.00000000000E+00 -0.00000000000E+00 -0.95805744094E+02  0.95805744094E+02  0.00000000000E+00 0. -1.
          6    1    1    2  501    0 -0.32659357173E+02 -0.18405351087E+03  0.13058631334E+03  0.28562057647E+03  0.17200000000E+03 0. -1.
         -6    1    1    2    0  502  0.32659357173E+02  0.18405351087E+03  0.86376748091E+03  0.90034470597E+03  0.17200000000E+03 0. -1.
<mgrwt>
<rscale>  2 0.25402033E+03</rscale>
<asrwt>0</asrwt>
<pdfrwt beam="1">  1       21 0.27253985E+00 0.25402033E+03</pdfrwt>
<pdfrwt beam="2">  1       21 0.23951439E-01 0.25402033E+03</pdfrwt>
<totfact> 0.75243173E+02</totfact>
</mgrwt>
</event>
<event>
 4    1  0.1132373E+000  0.2212045E+03  0.7546771E-02  0.1132988E+00
         21   -1    0    0  501  502  0.00000000000E+00  0.00000000000E+00  0.30008029401E+03  0.30008029401E+03  0.00000000000E+00 0. -1.
         21   -1    0    0  502  503 -0.00000000000E+00 -0.00000000000E+00 -0.26737361939E+03  0.26737361939E+03  0.00000000000E+00 0. -1.
          6    1    1    2  501    0 -0.13104498679E+03  0.46632834930E+02  0.19357207125E+03  0.29394141700E+03  0.17200000000E+03 0. -1.
         -6    1    1    2    0  503  0.13104498679E+03 -0.46632834930E+02 -0.16086539663E+03  0.27351249641E+03  0.17200000000E+03 0. -1.
<mgrwt>
<rscale>  2 0.22120445E+03</rscale>
<asrwt>0</asrwt>
<pdfrwt beam="1">  1       21 0.75020073E-01 0.22120445E+03</pdfrwt>
<pdfrwt beam="2">  1       21 0.66843405E-01 0.22120445E+03</pdfrwt>
<totfact> 0.31839619E+03</totfact>
</mgrwt>
</event>
<event>
 4    1  0.1132373E+000  0.2417778E+03  0.7546771E-02  0.1118614E+00
         21   -1    0    0  501  502  0.00000000000E+00  0.00000000000E+00  0.49192615989E+03  0.49192615989E+03  0.00000000000E+00 0. -1.
         21   -1    0    0  502  503 -0.00000000000E+00 -0.00000000000E+00 -0.13889061443E+03  0.13889061443E+03  0.00000000000E+00 0. -1.
          6    1    1    2  501    0  0.87651225382E+02 -0.14556704585E+03  0.29638176376E+03  0.38249006789E+03  0.17200000000E+03 0. -1.
         -6    1    1    2    0  503 -0.87651225382E+02  0.14556704585E+03  0.56653781704E+02  0.24832670644E+03  0.17200000000E+03 0. -1.
<mgrwt>
<rscale>  2 0.24177779E+03</rscale>
<asrwt>0</asrwt>
<pdfrwt beam="1">  1       21 0.12298154E+00 0.24177779E+03</pdfrwt>
<pdfrwt beam="2">  1       21 0.34722655E-01 0.24177779E+03</pdfrwt>
<totfact> 0.38238250E+03</totfact>
</mgrwt>
</event>
<event>
 4    1  0.1132373E+000  0.2052828E+03  0.7546771E-02  0.1145357E+00
         21   -1    0    0  503  502  0.00000000000E+00  0.00000000000E+00  0.22525405614E+03  0.22525405614E+03  0.00000000000E+00 0. -1.
         21   -1    0    0  501  503 -0.00000000000E+00 -0.00000000000E+00 -0.61761865590E+03  0.61761865590E+03  0.00000000000E+00 0.  1.
          6    1    1    2  501    0  0.67948999835E+02 -0.89106462938E+02 -0.54804785274E+03  0.58523284017E+03  0.17200000000E+03 0.  1.
         -6    1    1    2    0  502 -0.67948999835E+02  0.89106462938E+02  0.15568325298E+03  0.25763987187E+03  0.17200000000E+03 0. -1.
<mgrwt>
<rscale>  2 0.20528280E+03</rscale>
<asrwt>0</asrwt>
<pdfrwt beam="1">  1       21 0.56313515E-01 0.20528280E+03</pdfrwt>
<pdfrwt beam="2">  1       21 0.15440466E+00 0.20528280E+03</pdfrwt>
<totfact> 0.81057244E+02</totfact>
</mgrwt>
</event>
<event>
 4    1  0.1132373E+000  0.2521672E+03  0.7546771E-02  0.1111943E+00
         21   -1    0    0  501  502  0.00000000000E+00  0.00000000000E+00  0.10866042293E+04  0.10866042293E+04  0.00000000000E+00 0. -1.
         21   -1    0    0  502  503 -0.00000000000E+00 -0.00000000000E+00 -0.69052735339E+02  0.69052735339E+02  0.00000000000E+00 0. -1.
          6    1    1    2  501    0  0.10331261486E+03  0.15274421678E+03  0.73444638311E+03  0.77653060584E+03  0.17200000000E+03 0. -1.
         -6    1    1    2    0  503 -0.10331261486E+03 -0.15274421678E+03  0.28310511089E+03  0.37912635883E+03  0.17200000000E+03 0. -1.
<mgrwt>
<rscale>  2 0.25216719E+03</rscale>
<asrwt>0</asrwt>
<pdfrwt beam="1">  1       21 0.27165100E+00 0.25216719E+03</pdfrwt>
<pdfrwt beam="2">  1       21 0.17263187E-01 0.25216719E+03</pdfrwt>
<totfact> 0.14133239E+03</totfact>
</mgrwt>
</event>
<event>
 4    1  0.1132373E+000  0.2298190E+03  0.7546771E-02  0.1126767E+00
         21   -1    0    0  501  502  0.00000000000E+00  0.00000000000E+00  0.38906969381E+03  0.38906969381E+03  0.00000000000E+00 0. -1.
         21   -1    0    0  502  503 -0.00000000000E+00 -0.00000000000E+00 -0.17482485814E+03  0.17482485814E+03  0.00000000000E+00 0.  1.
          6    1    1    2  501    0  0.15224534575E+03  0.73576278278E+01  0.24041527818E+03  0.33259026740E+03  0.17200000000E+03 0. -1.
         -6    1    1    2    0  503 -0.15224534575E+03 -0.73576278278E+01 -0.26170442505E+02  0.23130428455E+03  0.17200000000E+03 0.  1.
<mgrwt>
<rscale>  2 0.22981902E+03</rscale>
<asrwt>0</asrwt>
<pdfrwt beam="1">  1       21 0.97267422E-01 0.22981902E+03</pdfrwt>
<pdfrwt beam="2">  1       21 0.43706215E-01 0.22981902E+03</pdfrwt>
<totfact> 0.42855458E+03</totfact>
</mgrwt>
</event>
<event>
 4    1  0.1132373E+000  0.2207701E+03  0.7546771E-02  0.1133310E+00
         21   -1    0    0  501  502  0.00000000000E+00  0.00000000000E+00  0.38766223366E+03  0.38766223366E+03  0.00000000000E+00 0. -1.
         21   -1    0    0  502  503 -0.00000000000E+00 -0.00000000000E+00 -0.19264575414E+03  0.19264575414E+03  0.00000000000E+00 0. -1.
          6    1    1    2  501    0 -0.12943007549E+03 -0.49023213660E+02  0.26851935674E+03  0.34762345270E+03  0.17200000000E+03 0. -1.
         -6    1    1    2    0  503  0.12943007549E+03  0.49023213660E+02 -0.73502877215E+02  0.23268453511E+03  0.17200000000E+03 0. -1.
<mgrwt>
<rscale>  2 0.22077006E+03</rscale>
<asrwt>0</asrwt>
<pdfrwt beam="1">  1       21 0.96915557E-01 0.22077006E+03</pdfrwt>
<pdfrwt beam="2">  1       21 0.48161439E-01 0.22077006E+03</pdfrwt>
<totfact> 0.35600074E+03</totfact>
</mgrwt>
</event>
<event>
 4    1  0.1132373E+000  0.2294833E+03  0.7546771E-02  0.1127004E+00
         21   -1    0    0  503  502  0.00000000000E+00  0.00000000000E+00  0.18648616832E+03  0.18648616832E+03  0.00000000000E+00 0.  1.
         21   -1    0    0  501  503 -0.00000000000E+00 -0.00000000000E+00 -0.40121053636E+03  0.40121053636E+03  0.00000000000E+00 0.  1.
          6    1    1    2  501    0 -0.12649236478E+03 -0.84132391707E+02 -0.26727214340E+03  0.35227400744E+03  0.17200000000E+03 0.  1.
         -6    1    1    2    0  502  0.12649236478E+03  0.84132391707E+02  0.52547775360E+02  0.23542269725E+03  0.17200000000E+03 0.  1.
<mgrwt>
<rscale>  2 0.22948328E+03</rscale>
<asrwt>0</asrwt>
<pdfrwt beam="1">  1       21 0.46621542E-01 0.22948328E+03</pdfrwt>
<pdfrwt beam="2">  1       21 0.10030263E+00 0.22948328E+03</pdfrwt>
<totfact> 0.34878131E+03</totfact>
</mgrwt>
</event>
<event>
 4    1  0.1132373E+000  0.1921496E+03  0.7546771E-02  0.1156537E+00
         21   -1    0    0  503  502  0.00000000000E+00  0.00000000000E+00  0.26717006909E+03  0.26717006909E+03  0.00000000000E+00 0.  1.
         21   -1    0    0  501  503 -0.00000000000E+00 -0.00000000000E+00 -0.15960415917E+03  0.15960415917E+03  0.00000000000E+00 0.  1.
          6    1    1    2  501    0 -0.42037135065E+02  0.74634650995E+02 -0.24370879577E+02  0.19368890424E+03  0.17200000000E+03 0.  1.
         -6    1    1    2    0  502  0.42037135065E+02 -0.74634650995E+02  0.13193678949E+03  0.23308532402E+03  0.17200000000E+03 0.  1.
<mgrwt>
<rscale>  2 0.19214956E+03</rscale>
<asrwt>0</asrwt>
<pdfrwt beam="1">  1       21 0.66792517E-01 0.19214956E+03</pdfrwt>
<pdfrwt beam="2">  1       21 0.39901040E-01 0.19214956E+03</pdfrwt>
<totfact> 0.12438660E+04</totfact>
</mgrwt>
</event>
<event>
 4    1  0.1132373E+000  0.1887296E+03  0.7546771E-02  0.1159612E+00
         21   -1    0    0  503  502  0.00000000000E+00  0.00000000000E+00  0.50508675251E+03  0.50508675251E+03  0.00000000000E+00 0.  1.
         21   -1    0    0  501  503 -0.00000000000E+00 -0.00000000000E+00 -0.70545161409E+02  0.70545161409E+02  0.00000000000E+00 0.  1.
          6    1    1    2  501    0 -0.34034965641E+01 -0.77609713002E+02  0.22267777464E+03  0.29189765786E+03  0.17200000000E+03 0.  1.
         -6    1    1    2    0  502  0.34034965641E+01  0.77609713002E+02  0.21186381646E+03  0.28373425607E+03  0.17200000000E+03 0.  1.
<mgrwt>
<rscale>  2 0.18872957E+03</rscale>
<asrwt>0</asrwt>
<pdfrwt beam="1">  1       21 0.12627168E+00 0.18872957E+03</pdfrwt>
<pdfrwt beam="2">  1       21 0.17636292E-01 0.18872957E+03</pdfrwt>
<totfact> 0.13595993E+04</totfact>
</mgrwt>
</event>
<event>
 4    1  0.1132373E+000  0.1816523E+03  0.7546771E-02  0.1166213E+00
         21   -1    0    0  503  502  0.00000000000E+00  0.00000000000E+00  0.19654129068E+03  0.19654129068E+03  0.00000000000E+00 0. -1.
         21   -1    0    0  501  503 -0.00000000000E+00 -0.00000000000E+00 -0.20029710928E+03  0.20029710928E+03  0.00000000000E+00 0. -1.
          6    1    1    2  501    0  0.56207301942E+02 -0.15946990464E+02 -0.81688031688E+02  0.19917455113E+03  0.17200000000E+03 0. -1.
         -6    1    1    2    0  502 -0.56207301942E+02  0.15946990464E+02  0.77932213088E+02  0.19766384883E+03  0.17200000000E+03 0. -1.
<mgrwt>
<rscale>  2 0.18165233E+03</rscale>
<asrwt>0</asrwt>
<pdfrwt beam="1">  1       21 0.49135323E-01 0.18165233E+03</pdfrwt>
<pdfrwt beam="2">  1       21 0.50074277E-01 0.18165233E+03</pdfrwt>
<totfact> 0.15114855E+04</totfact>
</mgrwt>
</event>
<event>
 4    1  0.1132373E+000  0.2150302E+03  0.7546771E-02  0.1137643E+00
         21   -1    0    0  501  502  0.00000000000E+00  0.00000000000E+00  0.33962043813E+03  0.33962043813E+03  0.00000000000E+00 0. -1.
         21   -1    0    0  502  503 -0.00000000000E+00 -0.00000000000E+00 -0.27166494725E+03  0.27166494725E+03  0.00000000000E+00 0.  1.
          6    1    1    2  501    0  0.12458049141E+03 -0.33670588807E+02  0.24985009588E+03  0.32964083151E+03  0.17200000000E+03 0. -1.
         -6    1    1    2    0  503 -0.12458049141E+03  0.33670588807E+02 -0.18189460500E+03  0.28164455386E+03  0.17200000000E+03 0.  1.
<mgrwt>
<rscale>  2 0.21503025E+03</rscale>
<asrwt>0</asrwt>
<pdfrwt beam="1">  1       21 0.84905109E-01 0.21503025E+03</pdfrwt>
<pdfrwt beam="2">  1       21 0.67916237E-01 0.21503025E+03</pdfrwt>
<totfact> 0.23335927E+03</totfact>
</mgrwt>
</event>
<event>
 4    1  0.1132373E+000  0.2396467E+03  0.7546771E-02  0.1120028E+00
         21   -1    0    0  503  502  0.00000000000E+00  0.00000000000E+00  0.12896770973E+04  0.12896770973E+04  0.00000000000E+00 0.  1.
         21   -1    0    0  501  503 -0.00000000000E+00 -0.00000000000E+00 -0.47508240995E+02  0.47508240995E+02  0.00000000000E+00 0.  1.
          6    1    1    2  501    0 -0.71439437661E+02  0.15080758023E+03  0.78845892872E+03  0.82407402688E+03  0.17200000000E+03 0.  1.
         -6    1    1    2    0  502  0.71439437661E+02 -0.15080758023E+03  0.45370992756E+03  0.51311131139E+03  0.17200000000E+03 0.  1.
<mgrwt>
<rscale>  2 0.23964666E+03</rscale>
<asrwt>0</asrwt>
<pdfrwt beam="1">  1       21 0.32241916E+00 0.23964666E+03</pdfrwt>
<pdfrwt beam="2">  1       21 0.11877065E-01 0.23964666E+03</pdfrwt>
<totfact> 0.14299605E+03</totfact>
</mgrwt>
</event>
<event>
 4    1  0.1132373E+000  0.2318671E+03  0.7546771E-02  0.1125332E+00
         21   -1    0    0  501  502  0.00000000000E+00  0.00000000000E+00  0.10868802213E+03  0.10868802213E+03  0.00000000000E+00 0. -1.
         21   -1    0    0  502  503 -0.00000000000E+00 -0.00000000000E+00 -0.69404204439E+03  0.69404204439E+03  0.00000000000E+00 0.  1.
          6    1    1    2  501    0  0.67056593905E+02 -0.14029169971E+03 -0.77546314084E+02  0.24449085590E+03  0.17200000000E+03 0. -1.
         -6    1    1    2    0  503 -0.67056593905E+02  0.14029169971E+03 -0.50780770818E+03  0.55823921062E+03  0.17200000000E+03 0.  1.
<mgrwt>
<rscale>  2 0.23186709E+03</rscale>
<asrwt>0</asrwt>
<pdfrwt beam="1">  1       21 0.27172006E-01 0.23186709E+03</pdfrwt>
<pdfrwt beam="2">  1       21 0.17351051E+00 0.23186709E+03</pdfrwt>
<totfact> 0.25132803E+03</totfact>
</mgrwt>
</event>
<event>
 4    1  0.1132373E+000  0.1793832E+03  0.7546771E-02  0.1168401E+00
         21   -1    0    0  501  502  0.00000000000E+00  0.00000000000E+00  0.17852209988E+04  0.17852209988E+04  0.00000000000E+00 0.  1.
         21   -1    0    0  502  503 -0.00000000000E+00 -0.00000000000E+00 -0.35446364377E+02  0.35446364377E+02  0.00000000000E+00 0.  1.
          6    1    1    2  501    0  0.10170455797E+02  0.49908691895E+02  0.15130889181E+04  0.15236851348E+04  0.17200000000E+03 0.  1.
         -6    1    1    2    0  503 -0.10170455797E+02 -0.49908691895E+02  0.23668571625E+03  0.29698222838E+03  0.17200000000E+03 0.  1.
<mgrwt>
<rscale>  2 0.17938315E+03</rscale>
<asrwt>0</asrwt>
<pdfrwt beam="1">  1       21 0.44630495E+00 0.17938315E+03</pdfrwt>
<pdfrwt beam="2">  1       21 0.88615971E-02 0.17938315E+03</pdfrwt>
<totfact> 0.45232886E+02</totfact>
</mgrwt>
</event>
<event>
 4    1  0.1132373E+000  0.2600747E+03  0.7546771E-02  0.1107098E+00
         21   -1    0    0  503  502  0.00000000000E+00  0.00000000000E+00  0.92199450805E+03  0.92199450805E+03  0.00000000000E+00 0.  1.
         21   -1    0    0  501  503 -0.00000000000E+00 -0.00000000000E+00 -0.85839665421E+02  0.85839665421E+02  0.00000000000E+00 0.  1.
          6    1    1    2  501    0 -0.16807042083E+03  0.99031240385E+02  0.22594912300E+03  0.34451684881E+03  0.17200000000E+03 0.  1.
         -6    1    1    2    0  502  0.16807042083E+03 -0.99031240385E+02  0.61020571963E+03  0.66331732466E+03  0.17200000000E+03 0.  1.
<mgrwt>
<rscale>  2 0.26007471E+03</rscale>
<asrwt>0</asrwt>
<pdfrwt beam="1">  1       21 0.23049860E+00 0.26007471E+03</pdfrwt>
<pdfrwt beam="2">  1       21 0.21459919E-01 0.26007471E+03</pdfrwt>
<totfact> 0.16447127E+03</totfact>
</mgrwt>
</event>
<event>
 4    1  0.1132373E+000  0.1872389E+03  0.7546771E-02  0.1160976E+00
         21   -1    0    0  503  502  0.00000000000E+00  0.00000000000E+00  0.60945387235E+03  0.60945387235E+03  0.00000000000E+00 0.  1.
         21   -1    0    0  501  503 -0.00000000000E+00 -0.00000000000E+00 -0.66681835784E+02  0.66681835784E+02  0.00000000000E+00 0.  1.
          6    1    1    2  501    0 -0.64662777854E+02  0.35959971469E+02  0.14610365964E+03  0.23749668155E+03  0.17200000000E+03 0.  1.
         -6    1    1    2    0  502  0.64662777854E+02 -0.35959971469E+02  0.39666837693E+03  0.43863902658E+03  0.17200000000E+03 0.  1.
<mgrwt>
<rscale>  2 0.18723887E+03</rscale>
<asrwt>0</asrwt>
<pdfrwt beam="1">  1       21 0.15236345E+00 0.18723887E+03</pdfrwt>
<pdfrwt beam="2">  1       21 0.16670461E-01 0.18723887E+03</pdfrwt>
<totfact> 0.93148324E+03</totfact>
</mgrwt>
</event>
<event>
 4    1  0.1132373E+000  0.2379482E+03  0.7546771E-02  0.1121167E+00
         21   -1    0    0  501  502  0.00000000000E+00  0.00000000000E+00  0.82160753453E+02  0.82160753453E+02  0.00000000000E+00 0. -1.
         21   -1    0    0  502  503 -0.00000000000E+00 -0.00000000000E+00 -0.72418483295E+03  0.72418483295E+03  0.00000000000E+00 0.  1.
          6    1    1    2  501    0  0.13953947278E+02 -0.16383105568E+03 -0.23230686749E+03  0.33254444535E+03  0.17200000000E+03 0. -1.
         -6    1    1    2    0  503 -0.13953947278E+02  0.16383105568E+03 -0.40971721200E+03  0.47380114105E+03  0.17200000000E+03 0.  1.
<mgrwt>
<rscale>  2 0.23794816E+03</rscale>
<asrwt>0</asrwt>
<pdfrwt beam="1">  1       21 0.20540188E-01 0.23794816E+03</pdfrwt>
<pdfrwt beam="2">  1       21 0.18104621E+00 0.23794816E+03</pdfrwt>
<totfact> 0.37821528E+03</totfact>
</mgrwt>
</event>
<event>
 4    1  0.1132373E+000  0.4026152E+03  0.7546771E-02  0.1042878E+00
         21   -1    0    0  503  502  0.00000000000E+00  0.00000000000E+00  0.69710183106E+03  0.69710183106E+03  0.00000000000E+00 0.  1.
         21   -1    0    0  501  503 -0.00000000000E+00 -0.00000000000E+00 -0.32332872388E+03  0.32332872388E+03  0.00000000000E+00 0. -1.
          6    1    1    2  501    0 -0.16419388246E+03 -0.32489287645E+03 -0.83487236009E+02  0.41118016827E+03  0.17200000000E+03 0.  1.
         -6    1    1    2    0  502  0.16419388246E+03  0.32489287645E+03  0.45726034320E+03  0.60925038667E+03  0.17200000000E+03 0. -1.
<mgrwt>
<rscale>  2 0.40261522E+03</rscale>
<asrwt>0</asrwt>
<pdfrwt beam="1">  1       21 0.17427546E+00 0.40261522E+03</pdfrwt>
<pdfrwt beam="2">  1       21 0.80832182E-01 0.40261522E+03</pdfrwt>
<totfact> 0.22376455E+02</totfact>
</mgrwt>
</event>
<event>
 4    1  0.1132373E+000  0.1869956E+03  0.7546771E-02  0.1161199E+00
         21   -1    0    0  501  502  0.00000000000E+00  0.00000000000E+00  0.72417769676E+03  0.72417769676E+03  0.00000000000E+00 0.  1.
         21   -1    0    0  502  503 -0.00000000000E+00 -0.00000000000E+00 -0.66217793847E+02  0.66217793847E+02  0.00000000000E+00 0. -1.
          6    1    1    2  501    0  0.24586411043E+02  0.69129240205E+02  0.53463719147E+03  0.56639585977E+03  0.17200000000E+03 0.  1.
         -6    1    1    2    0  503 -0.24586411043E+02 -0.69129240205E+02  0.12332271145E+03  0.22399963084E+03  0.17200000000E+03 0. -1.
<mgrwt>
<rscale>  2 0.18699557E+03</rscale>
<asrwt>0</asrwt>
<pdfrwt beam="1">  1       21 0.18104440E+00 0.18699557E+03</pdfrwt>
<pdfrwt beam="2">  1       21 0.16554451E-01 0.18699557E+03</pdfrwt>
<totfact> 0.58932060E+03</totfact>
</mgrwt>
</event>
<event>
 4    1  0.1132373E+000  0.1975069E+03  0.7546771E-02  0.1151860E+00
         21   -1    0    0  501  502  0.00000000000E+00  0.00000000000E+00  0.79097722051E+02  0.79097722051E+02  0.00000000000E+00 0. -1.
         21   -1    0    0  502  503 -0.00000000000E+00 -0.00000000000E+00 -0.71023474639E+03  0.71023474639E+03  0.00000000000E+00 0. -1.
          6    1    1    2  501    0 -0.55440069902E+02 -0.79695590365E+02 -0.97386447689E+02  0.22021150894E+03  0.17200000000E+03 0. -1.
         -6    1    1    2    0  503  0.55440069902E+02  0.79695590365E+02 -0.53375057665E+03  0.56912095951E+03  0.17200000000E+03 0. -1.
<mgrwt>
<rscale>  2 0.19750693E+03</rscale>
<asrwt>0</asrwt>
<pdfrwt beam="1">  1       21 0.19774431E-01 0.19750693E+03</pdfrwt>
<pdfrwt beam="2">  1       21 0.17755869E+00 0.19750693E+03</pdfrwt>
<totfact> 0.44387126E+03</totfact>
</mgrwt>
</event>
<event>
 4    1  0.1132373E+000  0.2673102E+03  0.7546771E-02  0.1102829E+00
         21   -1    0    0  503  502  0.00000000000E+00  0.00000000000E+00  0.57877319530E+03  0.57877319530E+03  0.00000000000E+00 0. -1.
         21   -1    0    0  501  503 -0.00000000000E+00 -0.00000000000E+00 -0.14092957681E+03  0.14092957681E+03  0.00000000000E+00 0.  1.
          6    1    1    2  501    0  0.10195820643E+03  0.17741265937E+03  0.92221865313E+02  0.28277128568E+03  0.17200000000E+03 0.  1.
         -6    1    1    2    0  502 -0.10195820643E+03 -0.17741265937E+03  0.34562175318E+03  0.43693148643E+03  0.17200000000E+03 0. -1.
<mgrwt>
<rscale>  2 0.26731017E+03</rscale>
<asrwt>0</asrwt>
<pdfrwt beam="1">  1       21 0.14469329E+00 0.26731017E+03</pdfrwt>
<pdfrwt beam="2">  1       21 0.35232396E-01 0.26731017E+03</pdfrwt>
<totfact> 0.24033192E+03</totfact>
</mgrwt>
</event>
<event>
 4    1  0.1132373E+000  0.4097925E+03  0.7546771E-02  0.1040441E+00
         21   -1    0    0  501  502  0.00000000000E+00  0.00000000000E+00  0.13203055926E+03  0.13203055926E+03  0.00000000000E+00 0. -1.
         21   -1    0    0  502  503 -0.00000000000E+00 -0.00000000000E+00 -0.12929438129E+04  0.12929438129E+04  0.00000000000E+00 0.  1.
          6    1    1    2  501    0 -0.36393488799E+03  0.76793676297E+02 -0.48956297025E+03  0.63843697673E+03  0.17200000000E+03 0. -1.
         -6    1    1    2    0  503  0.36393488799E+03 -0.76793676297E+02 -0.67135028342E+03  0.78653739546E+03  0.17200000000E+03 0. -1.
<mgrwt>
<rscale>  2 0.40979247E+03</rscale>
<asrwt>0</asrwt>
<pdfrwt beam="1">  1       21 0.33007639E-01 0.40979247E+03</pdfrwt>
<pdfrwt beam="2">  1       21 0.32323596E+00 0.40979247E+03</pdfrwt>
<totfact> 0.17638635E+02</totfact>
</mgrwt>
</event>
<event>
 4    1  0.1132373E+000  0.2070558E+03  0.7546771E-02  0.1143919E+00
         21   -1    0    0  501  502  0.00000000000E+00  0.00000000000E+00  0.12052832128E+03  0.12052832128E+03  0.00000000000E+00 0.  1.
         21   -1    0    0  502  503 -0.00000000000E+00 -0.00000000000E+00 -0.37155290624E+03  0.37155290624E+03  0.00000000000E+00 0.  1.
          6    1    1    2  501    0  0.11049701324E+03 -0.32840838294E+02 -0.17633171142E+03  0.27196504012E+03  0.17200000000E+03 0.  1.
         -6    1    1    2    0  503 -0.11049701324E+03  0.32840838294E+02 -0.74692873537E+02  0.22011618739E+03  0.17200000000E+03 0.  1.
<mgrwt>
<rscale>  2 0.20705582E+03</rscale>
<asrwt>0</asrwt>
<pdfrwt beam="1">  1       21 0.30132080E-01 0.20705582E+03</pdfrwt>
<pdfrwt beam="2">  1       21 0.92888226E-01 0.20705582E+03</pdfrwt>
<totfact> 0.10212242E+04</totfact>
</mgrwt>
</event>
<event>
 4    1  0.1132373E+000  0.1784383E+03  0.7546771E-02  0.1169323E+00
         21   -1    0    0  501  502  0.00000000000E+00  0.00000000000E+00  0.79094432830E+02  0.79094432830E+02  0.00000000000E+00 0.  1.
         21   -1    0    0  502  503 -0.00000000000E+00 -0.00000000000E+00 -0.40295798317E+03  0.40295798317E+03  0.00000000000E+00 0.  1.
          6    1    1    2  501    0 -0.24206845449E+02  0.40868817119E+02 -0.15435424955E+03  0.23593530031E+03  0.17200000000E+03 0.  1.
         -6    1    1    2    0  503  0.24206845449E+02 -0.40868817119E+02 -0.16950930079E+03  0.24611711569E+03  0.17200000000E+03 0.  1.
<mgrwt>
<rscale>  2 0.17843831E+03</rscale>
<asrwt>0</asrwt>
<pdfrwt beam="1">  1       21 0.19773608E-01 0.17843831E+03</pdfrwt>
<pdfrwt beam="2">  1       21 0.10073950E+00 0.17843831E+03</pdfrwt>
<totfact> 0.19191528E+04</totfact>
</mgrwt>
</event>
<event>
 4    1  0.1132373E+000  0.1963814E+03  0.7546771E-02  0.1152828E+00
         21   -1    0    0  503  502  0.00000000000E+00  0.00000000000E+00  0.42833427626E+03  0.42833427626E+03  0.00000000000E+00 0.  1.
         21   -1    0    0  501  503 -0.00000000000E+00 -0.00000000000E+00 -0.91283884890E+02  0.91283884890E+02  0.00000000000E+00 0.  1.
          6    1    1    2  501    0 -0.77155193778E+02  0.55033736514E+02  0.13815194804E+03  0.24010746933E+03  0.17200000000E+03 0.  1.
         -6    1    1    2    0  502  0.77155193778E+02 -0.55033736514E+02  0.19889844332E+03  0.27951069181E+03  0.17200000000E+03 0.  1.
<mgrwt>
<rscale>  2 0.19638135E+03</rscale>
<asrwt>0</asrwt>
<pdfrwt beam="1">  1       21 0.10708356E+00 0.19638135E+03</pdfrwt>
<pdfrwt beam="2">  1       21 0.22820972E-01 0.19638135E+03</pdfrwt>
<totfact> 0.12521102E+04</totfact>
</mgrwt>
</event>
<event>
 4    1  0.1132373E+000  0.2549159E+03  0.7546771E-02  0.1110237E+00
         21   -1    0    0  501  502  0.00000000000E+00  0.00000000000E+00  0.24026842843E+03  0.24026842843E+03  0.00000000000E+00 0. -1.
         21   -1    0    0  502  503 -0.00000000000E+00 -0.00000000000E+00 -0.76473206215E+03  0.76473206215E+03  0.00000000000E+00 0. -1.
          6    1    1    2  501    0 -0.18771155285E+03 -0.12747806850E+02  0.14175411608E+03  0.29167852694E+03  0.17200000000E+03 0. -1.
         -6    1    1    2    0  503  0.18771155285E+03  0.12747806850E+02 -0.66621774980E+03  0.71332196363E+03  0.17200000000E+03 0. -1.
<mgrwt>
<rscale>  2 0.25491593E+03</rscale>
<asrwt>0</asrwt>
<pdfrwt beam="1">  1       21 0.60067108E-01 0.25491593E+03</pdfrwt>
<pdfrwt beam="2">  1       21 0.19118301E+00 0.25491593E+03</pdfrwt>
<totfact> 0.37013812E+02</totfact>
</mgrwt>
</event>
<event>
 4    1  0.1132373E+000  0.5902799E+03  0.7546771E-02  0.9925780E-01
         21   -1    0    0  503  502  0.00000000000E+00  0.00000000000E+00  0.69039297396E+03  0.69039297396E+03  0.00000000000E+00 0. -1.
         21   -1    0    0  501  503 -0.00000000000E+00 -0.00000000000E+00 -0.77801231608E+03  0.77801231608E+03  0.00000000000E+00 0.  1.
          6    1    1    2  501    0 -0.22552277136E+03  0.51767343593E+03 -0.47898573499E+03  0.76016948176E+03  0.17200000000E+03 0.  1.
         -6    1    1    2    0  502  0.22552277136E+03 -0.51767343593E+03  0.39136639287E+03  0.70823580829E+03  0.17200000000E+03 0. -1.
<mgrwt>
<rscale>  2 0.59027985E+03</rscale>
<asrwt>0</asrwt>
<pdfrwt beam="1">  1       21 0.17259824E+00 0.59027985E+03</pdfrwt>
<pdfrwt beam="2">  1       21 0.19450308E+00 0.59027985E+03</pdfrwt>
<totfact> 0.21011141E+01</totfact>
</mgrwt>
</event>
<event>
 4    1  0.1132373E+000  0.1882453E+03  0.7546771E-02  0.1160054E+00
         21   -1    0    0  503  502  0.00000000000E+00  0.00000000000E+00  0.17197468564E+03  0.17197468564E+03  0.00000000000E+00 0. -1.
         21   -1    0    0  501  503 -0.00000000000E+00 -0.00000000000E+00 -0.27445933219E+03  0.27445933219E+03  0.00000000000E+00 0. -1.
          6    1    1    2  501    0  0.75327986738E+02 -0.13341234415E+02 -0.16267925836E+03  0.24879878461E+03  0.17200000000E+03 0. -1.
         -6    1    1    2    0  502 -0.75327986738E+02  0.13341234415E+02  0.60194611808E+02  0.19763523323E+03  0.17200000000E+03 0. -1.
<mgrwt>
<rscale>  2 0.18824530E+03</rscale>
<asrwt>0</asrwt>
<pdfrwt beam="1">  1       21 0.42993672E-01 0.18824530E+03</pdfrwt>
<pdfrwt beam="2">  1       21 0.68614833E-01 0.18824530E+03</pdfrwt>
<totfact> 0.10103689E+04</totfact>
</mgrwt>
</event>
<event>
 4    1  0.1132373E+000  0.1888999E+03  0.7546771E-02  0.1159457E+00
         21   -1    0    0  503  502  0.00000000000E+00  0.00000000000E+00  0.38755927106E+03  0.38755927106E+03  0.00000000000E+00 0. -1.
         21   -1    0    0  501  503 -0.00000000000E+00 -0.00000000000E+00 -0.94195221341E+02  0.94195221341E+02  0.00000000000E+00 0. -1.
          6    1    1    2  501    0  0.34140831164E+02 -0.70239394603E+02  0.18285037193E+03  0.26290193499E+03  0.17200000000E+03 0. -1.
         -6    1    1    2    0  502 -0.34140831164E+02  0.70239394603E+02  0.11051367779E+03  0.21885255741E+03  0.17200000000E+03 0. -1.
<mgrwt>
<rscale>  2 0.18889989E+03</rscale>
<asrwt>0</asrwt>
<pdfrwt beam="1">  1       21 0.96889814E-01 0.18889989E+03</pdfrwt>
<pdfrwt beam="2">  1       21 0.23548806E-01 0.18889989E+03</pdfrwt>
<totfact> 0.15049282E+04</totfact>
</mgrwt>
</event>
<event>
 4    1  0.1132373E+000  0.1854794E+03  0.7546771E-02  0.1162603E+00
         21   -1    0    0  501  502  0.00000000000E+00  0.00000000000E+00  0.25644150876E+03  0.25644150876E+03  0.00000000000E+00 0. -1.
         21   -1    0    0  502  503 -0.00000000000E+00 -0.00000000000E+00 -0.14749172130E+03  0.14749172130E+03  0.00000000000E+00 0. -1.
          6    1    1    2  501    0  0.15707644068E+02  0.67615577931E+02  0.11521006315E+03  0.21834824275E+03  0.17200000000E+03 0. -1.
         -6    1    1    2    0  503 -0.15707644068E+02 -0.67615577931E+02 -0.62602756939E+01  0.18558498730E+03  0.17200000000E+03 0. -1.
<mgrwt>
<rscale>  2 0.18547937E+03</rscale>
<asrwt>0</asrwt>
<pdfrwt beam="1">  1       21 0.64110377E-01 0.18547937E+03</pdfrwt>
<pdfrwt beam="2">  1       21 0.36872931E-01 0.18547937E+03</pdfrwt>
<totfact> 0.16001820E+04</totfact>
</mgrwt>
</event>
<event>
 4    1  0.1132373E+000  0.2522393E+03  0.7546771E-02  0.1111898E+00
         21   -1    0    0  501  502  0.00000000000E+00  0.00000000000E+00  0.14116638990E+03  0.14116638990E+03  0.00000000000E+00 0.  1.
         21   -1    0    0  502  503 -0.00000000000E+00 -0.00000000000E+00 -0.45586525227E+03  0.45586525227E+03  0.00000000000E+00 0. -1.
          6    1    1    2  501    0 -0.12558499994E+03  0.13516321249E+03 -0.18910344066E+03  0.31525354477E+03  0.17200000000E+03 0. -1.
         -6    1    1    2    0  503  0.12558499994E+03 -0.13516321249E+03 -0.12559542171E+03  0.28177809740E+03  0.17200000000E+03 0.  1.
<mgrwt>
<rscale>  2 0.25223934E+03</rscale>
<asrwt>0</asrwt>
<pdfrwt beam="1">  1       21 0.35291598E-01 0.25223934E+03</pdfrwt>
<pdfrwt beam="2">  1       21 0.11396631E+00 0.25223934E+03</pdfrwt>
<totfact> 0.44411228E+03</totfact>
</mgrwt>
</event>
<event>
 4    1  0.1132373E+000  0.3058591E+03  0.7546771E-02  0.1082348E+00
         21   -1    0    0  501  502  0.00000000000E+00  0.00000000000E+00  0.36209222862E+03  0.36209222862E+03  0.00000000000E+00 0.  1.
         21   -1    0    0  502  503 -0.00000000000E+00 -0.00000000000E+00 -0.33290260096E+03  0.33290260096E+03  0.00000000000E+00 0. -1.
          6    1    1    2  501    0  0.53911684312E+02 -0.24710180819E+03  0.17903133143E+03  0.35440371181E+03  0.17200000000E+03 0.  1.
         -6    1    1    2    0  503 -0.53911684312E+02  0.24710180819E+03 -0.14984170377E+03  0.34059111777E+03  0.17200000000E+03 0. -1.
<mgrwt>
<rscale>  2 0.30585907E+03</rscale>
<asrwt>0</asrwt>
<pdfrwt beam="1">  1       21 0.90523057E-01 0.30585907E+03</pdfrwt>
<pdfrwt beam="2">  1       21 0.83225650E-01 0.30585907E+03</pdfrwt>
<totfact> 0.11935075E+03</totfact>
</mgrwt>
</event>
<event>
 4    1  0.1132373E+000  0.1977247E+03  0.7546771E-02  0.1151673E+00
         21   -1    0    0  503  502  0.00000000000E+00  0.00000000000E+00  0.62643497477E+03  0.62643497477E+03  0.00000000000E+00 0. -1.
         21   -1    0    0  501  503 -0.00000000000E+00 -0.00000000000E+00 -0.68811668444E+02  0.68811668444E+02  0.00000000000E+00 0.  1.
          6    1    1    2  501    0  0.86471194075E+02  0.45097654428E+02  0.38485039506E+03  0.43267180682E+03  0.17200000000E+03 0.  1.
         -6    1    1    2    0  502 -0.86471194075E+02 -0.45097654428E+02  0.17277291127E+03  0.26257483639E+03  0.17200000000E+03 0. -1.
<mgrwt>
<rscale>  2 0.19772472E+03</rscale>
<asrwt>0</asrwt>
<pdfrwt beam="1">  1       21 0.15660873E+00 0.19772472E+03</pdfrwt>
<pdfrwt beam="2">  1       21 0.17202919E-01 0.19772472E+03</pdfrwt>
<totfact> 0.81052220E+03</totfact>
</mgrwt>
</event>
<event>
 4    1  0.1132373E+000  0.2227749E+03  0.7546771E-02  0.1131831E+00
         21   -1    0    0  501  502  0.00000000000E+00  0.00000000000E+00  0.57226840966E+03  0.57226840966E+03  0.00000000000E+00 0.  1.
         21   -1    0    0  502  503 -0.00000000000E+00 -0.00000000000E+00 -0.87729848384E+02  0.87729848384E+02  0.00000000000E+00 0.  1.
          6    1    1    2  501    0  0.11520934487E+03 -0.82288827048E+02  0.20691089790E+03  0.30404072733E+03  0.17200000000E+03 0.  1.
         -6    1    1    2    0  503 -0.11520934487E+03  0.82288827048E+02  0.27762766338E+03  0.35595753072E+03  0.17200000000E+03 0.  1.
<mgrwt>
<rscale>  2 0.22277487E+03</rscale>
<asrwt>0</asrwt>
<pdfrwt beam="1">  1       21 0.14306709E+00 0.22277487E+03</pdfrwt>
<pdfrwt beam="2">  1       21 0.21932464E-01 0.22277487E+03</pdfrwt>
<totfact> 0.64175397E+03</totfact>
</mgrwt>
</event>
<event>
 4    1  0.1132373E+000  0.2213204E+03  0.7546771E-02  0.1132902E+00
         21   -1    0    0  503  502  0.00000000000E+00  0.00000000000E+00  0.78901636272E+03  0.78901636272E+03  0.00000000000E+00 0. -1.
         21   -1    0    0  501  503 -0.00000000000E+00 -0.00000000000E+00 -0.12042170184E+03  0.12042170184E+03  0.00000000000E+00 0. -1.
          6    1    1    2  501    0 -0.12649889423E+03  0.58281679380E+02  0.17794555612E+02  0.22203461578E+03  0.17200000000E+03 0. -1.
         -6    1    1    2    0  502  0.12649889423E+03 -0.58281679380E+02  0.65080010526E+03  0.68740344879E+03  0.17200000000E+03 0. -1.
<mgrwt>
<rscale>  2 0.22132041E+03</rscale>
<asrwt>0</asrwt>
<pdfrwt beam="1">  1       21 0.19725408E+00 0.22132041E+03</pdfrwt>
<pdfrwt beam="2">  1       21 0.30105428E-01 0.22132041E+03</pdfrwt>
<totfact> 0.14373437E+03</totfact>
</mgrwt>
</event>
<event>
 4    1  0.1132373E+000  0.1907606E+03  0.7546771E-02  0.1157777E+00
         21   -1    0    0  501  502  0.00000000000E+00  0.00000000000E+00  0.25550235814E+03  0.25550235814E+03  0.00000000000E+00 0.  1.
         21   -1    0    0  502  503 -0.00000000000E+00 -0.00000000000E+00 -0.21073493693E+03  0.21073493693E+03  0.00000000000E+00 0.  1.
          6    1    1    2  501    0  0.73965975598E+02  0.36532559825E+02  0.15510933908E+03  0.24586276771E+03  0.17200000000E+03 0.  1.
         -6    1    1    2    0  503 -0.73965975598E+02 -0.36532559825E+02 -0.11034191787E+03  0.22037452737E+03  0.17200000000E+03 0.  1.
<mgrwt>
<rscale>  2 0.19076057E+03</rscale>
<asrwt>0</asrwt>
<pdfrwt beam="1">  1       21 0.63875589E-01 0.19076057E+03</pdfrwt>
<pdfrwt beam="2">  1       21 0.52683734E-01 0.19076057E+03</pdfrwt>
<totfact> 0.77423592E+03</totfact>
</mgrwt>
</event>
<event>
 4    1  0.1132373E+000  0.2330535E+03  0.7546771E-02  0.1124509E+00
         21   -1    0    0  501  502  0.00000000000E+00  0.00000000000E+00  0.85342186139E+03  0.85342186139E+03  0.00000000000E+00 0.  1.
         21   -1    0    0  502  503 -0.00000000000E+00 -0.00000000000E+00 -0.63654981614E+02  0.63654981614E+02  0.00000000000E+00 0. -1.
          6    1    1    2  501    0  0.44083144712E+01 -0.15719574664E+03  0.40129371167E+03  0.46405880988E+03  0.17200000000E+03 0.  1.
         -6    1    1    2    0  503 -0.44083144712E+01  0.15719574664E+03  0.38847316811E+03  0.45301803313E+03  0.17200000000E+03 0.  1.
<mgrwt>
<rscale>  2 0.23305350E+03</rscale>
<asrwt>0</asrwt>
<pdfrwt beam="1">  1       21 0.21335543E+00 0.23305350E+03</pdfrwt>
<pdfrwt beam="2">  1       21 0.15913748E-01 0.23305350E+03</pdfrwt>
<totfact> 0.37516287E+03</totfact>
</mgrwt>
</event>
<event>
 4    1  0.1132373E+000  0.2365511E+03  0.7546771E-02  0.1122112E+00
         21   -1    0    0  503  502  0.00000000000E+00  0.00000000000E+00  0.30925012004E+03  0.30925012004E+03  0.00000000000E+00 0.  1.
         21   -1    0    0  501  503 -0.00000000000E+00 -0.00000000000E+00 -0.20221203554E+03  0.20221203554E+03  0.00000000000E+00 0.  1.
          6    1    1    2  501    0  0.37406154180E+02 -0.15802909205E+03  0.13645855992E+03  0.27308854403E+03  0.17200000000E+03 0.  1.
         -6    1    1    2    0  502 -0.37406154180E+02  0.15802909205E+03 -0.29420475429E+02  0.23837361154E+03  0.17200000000E+03 0.  1.
<mgrwt>
<rscale>  2 0.23655108E+03</rscale>
<asrwt>0</asrwt>
<pdfrwt beam="1">  1       21 0.77312529E-01 0.23655108E+03</pdfrwt>
<pdfrwt beam="2">  1       21 0.50553009E-01 0.23655108E+03</pdfrwt>
<totfact> 0.53598467E+03</totfact>
</mgrwt>
</event>
<event>
 4    1  0.1132373E+000  0.1880460E+03  0.7546771E-02  0.1160236E+00
         21   -1    0    0  503  502  0.00000000000E+00  0.00000000000E+00  0.70689841276E+02  0.70689841276E+02  0.00000000000E+00 0.  1.
         21   -1    0    0  501  503 -0.00000000000E+00 -0.00000000000E+00 -0.78323437413E+03  0.78323437413E+03  0.00000000000E+00 0. -1.
          6    1    1    2  501    0 -0.70922171715E+02 -0.27337548851E+02 -0.61292079058E+03  0.64111870316E+03  0.17200000000E+03 0. -1.
         -6    1    1    2    0  502  0.70922171715E+02  0.27337548851E+02 -0.99623742276E+02  0.21280551225E+03  0.17200000000E+03 0.  1.
<mgrwt>
<rscale>  2 0.18804599E+03</rscale>
<asrwt>0</asrwt>
<pdfrwt beam="1">  1       21 0.17672460E-01 0.18804599E+03</pdfrwt>
<pdfrwt beam="2">  1       21 0.19580859E+00 0.18804599E+03</pdfrwt>
<totfact> 0.41687339E+03</totfact>
</mgrwt>
</event>
<event>
 4    1  0.1132373E+000  0.1793652E+03  0.7546771E-02  0.1168419E+00
         21   -1    0    0  501  502  0.00000000000E+00  0.00000000000E+00  0.26115716065E+03  0.26115716065E+03  0.00000000000E+00 0. -1.
         21   -1    0    0  502  503 -0.00000000000E+00 -0.00000000000E+00 -0.21106832232E+03  0.21106832232E+03  0.00000000000E+00 0. -1.
          6    1    1    2  501    0 -0.50042554705E+02 -0.91435556549E+01  0.17739692890E+03  0.25227273391E+03  0.17200000000E+03 0. -1.
         -6    1    1    2    0  503  0.50042554705E+02  0.91435556549E+01 -0.12730809057E+03  0.21995274905E+03  0.17200000000E+03 0. -1.
<mgrwt>
<rscale>  2 0.17936516E+03</rscale>
<asrwt>0</asrwt>
<pdfrwt beam="1">  1       21 0.65289290E-01 0.17936516E+03</pdfrwt>
<pdfrwt beam="2">  1       21 0.52767081E-01 0.17936516E+03</pdfrwt>
<totfact> 0.74200998E+03</totfact>
</mgrwt>
</event>
<event>
 4    1  0.1132373E+000  0.1944963E+03  0.7546771E-02  0.1154467E+00
         21   -1    0    0  501  502  0.00000000000E+00  0.00000000000E+00  0.54951964283E+03  0.54951964283E+03  0.00000000000E+00 0. -1.
         21   -1    0    0  502  503 -0.00000000000E+00 -0.00000000000E+00 -0.85911852217E+02  0.85911852217E+02  0.00000000000E+00 0. -1.
          6    1    1    2  501    0  0.44145499749E+02 -0.79347251122E+02  0.37343391562E+03  0.42104833540E+03  0.17200000000E+03 0. -1.
         -6    1    1    2    0  503 -0.44145499749E+02  0.79347251122E+02  0.90173874995E+02  0.21438315965E+03  0.17200000000E+03 0. -1.
<mgrwt>
<rscale>  2 0.19449630E+03</rscale>
<asrwt>0</asrwt>
<pdfrwt beam="1">  1       21 0.13737990E+00 0.19449630E+03</pdfrwt>
<pdfrwt beam="2">  1       21 0.21477965E-01 0.19449630E+03</pdfrwt>
<totfact> 0.75767969E+03</totfact>
</mgrwt>
</event>
<event>
 4    1  0.1132373E+000  0.2099533E+03  0.7546771E-02  0.1141603E+00
         21   -1    0    0  501  502  0.00000000000E+00  0.00000000000E+00  0.28255647567E+03  0.28255647567E+03  0.00000000000E+00 0. -1.
         21   -1    0    0  502  503 -0.00000000000E+00 -0.00000000000E+00 -0.15642429135E+03  0.15642429135E+03  0.00000000000E+00 0.  1.
          6    1    1    2  501    0 -0.10377620748E+03 -0.61048120545E+02  0.74422576549E+02  0.22275343804E+03  0.17200000000E+03 0. -1.
         -6    1    1    2    0  503  0.10377620748E+03  0.61048120545E+02  0.51709607776E+02  0.21622732898E+03  0.17200000000E+03 0. -1.
<mgrwt>
<rscale>  2 0.20995327E+03</rscale>
<asrwt>0</asrwt>
<pdfrwt beam="1">  1       21 0.70639118E-01 0.20995327E+03</pdfrwt>
<pdfrwt beam="2">  1       21 0.39106073E-01 0.20995327E+03</pdfrwt>
<totfact> 0.11318252E+04</totfact>
</mgrwt>
</event>
<event>
 4    1  0.1132373E+000  0.1871993E+03  0.7546771E-02  0.1161012E+00
         21   -1    0    0  501  502  0.00000000000E+00  0.00000000000E+00  0.12274531115E+03  0.12274531115E+03  0.00000000000E+00 0. -1.
         21   -1    0    0  502  503 -0.00000000000E+00 -0.00000000000E+00 -0.28748673620E+03  0.28748673620E+03  0.00000000000E+00 0.  1.
          6    1    1    2  501    0  0.18668536398E+02  0.71491735599E+02 -0.99429266112E+02  0.21196641590E+03  0.17200000000E+03 0.  1.
         -6    1    1    2    0  503 -0.18668536398E+02 -0.71491735599E+02 -0.65312158942E+02  0.19826563145E+03  0.17200000000E+03 0.  1.
<mgrwt>
<rscale>  2 0.18719931E+03</rscale>
<asrwt>0</asrwt>
<pdfrwt beam="1">  1       21 0.30686328E-01 0.18719931E+03</pdfrwt>
<pdfrwt beam="2">  1       21 0.71871684E-01 0.18719931E+03</pdfrwt>
<totfact> 0.17881677E+04</totfact>
</mgrwt>
</event>
<event>
 4    1  0.1132373E+000  0.1954989E+03  0.7546771E-02  0.1153593E+00
         21   -1    0    0  501  502  0.00000000000E+00  0.00000000000E+00  0.35761767973E+03  0.35761767973E+03  0.00000000000E+00 0.  1.
         21   -1    0    0  502  503 -0.00000000000E+00 -0.00000000000E+00 -0.10996720579E+03  0.10996720579E+03  0.00000000000E+00 0. -1.
          6    1    1    2  501    0 -0.45714882006E+02 -0.80907053639E+02  0.16303989689E+03  0.25456199587E+03  0.17200000000E+03 0.  1.
         -6    1    1    2    0  503  0.45714882006E+02  0.80907053639E+02  0.84610577048E+02  0.21302288965E+03  0.17200000000E+03 0.  1.
<mgrwt>
<rscale>  2 0.19549885E+03</rscale>
<asrwt>0</asrwt>
<pdfrwt beam="1">  1       21 0.89404417E-01 0.19549885E+03</pdfrwt>
<pdfrwt beam="2">  1       21 0.27491802E-01 0.19549885E+03</pdfrwt>
<totfact> 0.13441041E+04</totfact>
</mgrwt>
</event>
<event>
 4    1  0.1132373E+000  0.3422605E+03  0.7546771E-02  0.1065837E+00
         21   -1    0    0  501  502  0.00000000000E+00  0.00000000000E+00  0.15610762085E+03  0.15610762085E+03  0.00000000000E+00 0. -1.
         21   -1    0    0  502  503 -0.00000000000E+00 -0.00000000000E+00 -0.75067619072E+03  0.75067619072E+03  0.00000000000E+00 0.  1.
          6    1    1    2  501    0 -0.18355411021E+03 -0.23209082924E+03 -0.30607066419E+03  0.45915304188E+03  0.17200000000E+03 0. -1.
         -6    1    1    2    0  503  0.18355411021E+03  0.23209082924E+03 -0.28849790568E+03  0.44763076969E+03  0.17200000000E+03 0.  1.
<mgrwt>
<rscale>  2 0.34226052E+03</rscale>
<asrwt>0</asrwt>
<pdfrwt beam="1">  1       21 0.39026906E-01 0.34226052E+03</pdfrwt>
<pdfrwt beam="2">  1       21 0.18766904E+00 0.34226052E+03</pdfrwt>
<totfact> 0.90401551E+02</totfact>
</mgrwt>
</event>
<event>
 4    1  0.1132373E+000  0.2029328E+03  0.7546771E-02  0.1147288E+00
         21   -1    0    0  501  502  0.00000000000E+00  0.00000000000E+00  0.39516087972E+03  0.39516087972E+03  0.00000000000E+00 0. -1.
         21   -1    0    0  502  503 -0.00000000000E+00 -0.00000000000E+00 -0.15751996114E+03  0.15751996114E+03  0.00000000000E+00 0.  1.
          6    1    1    2  501    0  0.77201083603E+02  0.75084630803E+02 -0.41932969822E+02  0.20721989058E+03  0.17200000000E+03 0.  1.
         -6    1    1    2    0  503 -0.77201083603E+02 -0.75084630803E+02  0.27957388840E+03  0.34546095028E+03  0.17200000000E+03 0. -1.
<mgrwt>
<rscale>  2 0.20293277E+03</rscale>
<asrwt>0</asrwt>
<pdfrwt beam="1">  1       21 0.98790218E-01 0.20293277E+03</pdfrwt>
<pdfrwt beam="2">  1       21 0.39379991E-01 0.20293277E+03</pdfrwt>
<totfact> 0.52104026E+03</totfact>
</mgrwt>
</event>
<event>
 4    1  0.1132373E+000  0.1925749E+03  0.7546771E-02  0.1156159E+00
         21   -1    0    0  501  502  0.00000000000E+00  0.00000000000E+00  0.93083726482E+02  0.93083726482E+02  0.00000000000E+00 0. -1.
         21   -1    0    0  502  503 -0.00000000000E+00 -0.00000000000E+00 -0.42180769597E+03  0.42180769597E+03  0.00000000000E+00 0. -1.
          6    1    1    2  501    0 -0.34680422142E+02  0.79362318172E+02 -0.10372289591E+03  0.21873168120E+03  0.17200000000E+03 0. -1.
         -6    1    1    2    0  503  0.34680422142E+02 -0.79362318172E+02 -0.22500107359E+03  0.29615974126E+03  0.17200000000E+03 0. -1.
<mgrwt>
<rscale>  2 0.19257494E+03</rscale>
<asrwt>0</asrwt>
<pdfrwt beam="1">  1       21 0.23270932E-01 0.19257494E+03</pdfrwt>
<pdfrwt beam="2">  1       21 0.10545192E+00 0.19257494E+03</pdfrwt>
<totfact> 0.12553991E+04</totfact>
</mgrwt>
</event>
<event>
 4    1  0.1132373E+000  0.1986469E+03  0.7546771E-02  0.1150886E+00
         21   -1    0    0  503  502  0.00000000000E+00  0.00000000000E+00  0.16790270186E+03  0.16790270186E+03  0.00000000000E+00 0.  1.
         21   -1    0    0  501  503 -0.00000000000E+00 -0.00000000000E+00 -0.31760272972E+03  0.31760272972E+03  0.00000000000E+00 0. -1.
          6    1    1    2  501    0 -0.41048076635E+01 -0.99296322510E+02 -0.19863409091E+03  0.28092011530E+03  0.17200000000E+03 0. -1.
         -6    1    1    2    0  502  0.41048076635E+01  0.99296322510E+02  0.48934063047E+02  0.20458531628E+03  0.17200000000E+03 0.  1.
<mgrwt>
<rscale>  2 0.19864695E+03</rscale>
<asrwt>0</asrwt>
<pdfrwt beam="1">  1       21 0.41975676E-01 0.19864695E+03</pdfrwt>
<pdfrwt beam="2">  1       21 0.79400682E-01 0.19864695E+03</pdfrwt>
<totfact> 0.76084539E+03</totfact>
</mgrwt>
</event>
<event>
 4    1  0.1132373E+000  0.2006070E+03  0.7546771E-02  0.1149228E+00
         21   -1    0    0  501  502  0.00000000000E+00  0.00000000000E+00  0.48707716969E+03  0.48707716969E+03  0.00000000000E+00 0.  1.
         21   -1    0    0  502  503 -0.00000000000E+00 -0.00000000000E+00 -0.93453300982E+02  0.93453300982E+02  0.00000000000E+00 0.  1.
          6    1    1    2  501    0  0.66364255477E+02 -0.79088389886E+02  0.97992533761E+02  0.22326156071E+03  0.17200000000E+03 0.  1.
         -6    1    1    2    0  503 -0.66364255477E+02  0.79088389886E+02  0.29563133495E+03  0.35726890996E+03  0.17200000000E+03 0.  1.
<mgrwt>
<rscale>  2 0.20060705E+03</rscale>
<asrwt>0</asrwt>
<pdfrwt beam="1">  1       21 0.12176929E+00 0.20060705E+03</pdfrwt>
<pdfrwt beam="2">  1       21 0.23363327E-01 0.20060705E+03</pdfrwt>
<totfact> 0.87222150E+03</totfact>
</mgrwt>
</event>
<event>
 4    1  0.1132373E+000  0.1808776E+03  0.7546771E-02  0.1166956E+00
         21   -1    0    0  503  502  0.00000000000E+00  0.00000000000E+00  0.11994661677E+03  0.11994661677E+03  0.00000000000E+00 0.  1.
         21   -1    0    0  501  503 -0.00000000000E+00 -0.00000000000E+00 -0.28175592068E+03  0.28175592068E+03  0.00000000000E+00 0.  1.
          6    1    1    2  501    0  0.51425280213E+02 -0.22093959467E+02 -0.45016745533E+02  0.18639530538E+03  0.17200000000E+03 0.  1.
         -6    1    1    2    0  502 -0.51425280213E+02  0.22093959467E+02 -0.11679255838E+03  0.21530723207E+03  0.17200000000E+03 0.  1.
<mgrwt>
<rscale>  2 0.18087759E+03</rscale>
<asrwt>0</asrwt>
<pdfrwt beam="1">  1       21 0.29986654E-01 0.18087759E+03</pdfrwt>
<pdfrwt beam="2">  1       21 0.70438980E-01 0.18087759E+03</pdfrwt>
<totfact> 0.19630256E+04</totfact>
</mgrwt>
</event>
<event>
 4    1  0.1132373E+000  0.2690811E+03  0.7546771E-02  0.1101807E+00
         21   -1    0    0  503  502  0.00000000000E+00  0.00000000000E+00  0.19666697215E+03  0.19666697215E+03  0.00000000000E+00 0. -1.
         21   -1    0    0  501  503 -0.00000000000E+00 -0.00000000000E+00 -0.38401532357E+03  0.38401532357E+03  0.00000000000E+00 0. -1.
          6    1    1    2  501    0 -0.76481723113E+02 -0.19227886271E+03 -0.34675457049E+02  0.27130610450E+03  0.17200000000E+03 0. -1.
         -6    1    1    2    0  502  0.76481723113E+02  0.19227886271E+03 -0.15267289438E+03  0.30937619122E+03  0.17200000000E+03 0. -1.
<mgrwt>
<rscale>  2 0.26908106E+03</rscale>
<asrwt>0</asrwt>
<pdfrwt beam="1">  1       21 0.49166743E-01 0.26908106E+03</pdfrwt>
<pdfrwt beam="2">  1       21 0.96003830E-01 0.26908106E+03</pdfrwt>
<totfact> 0.33744187E+03</totfact>
</mgrwt>
</event>
<event>
 4    1  0.1132373E+000  0.1983329E+03  0.7546771E-02  0.1151153E+00
         21   -1    0    0  503  502  0.00000000000E+00  0.00000000000E+00  0.34411310565E+03  0.34411310565E+03  0.00000000000E+00 0. -1.
         21   -1    0    0  501  503 -0.00000000000E+00 -0.00000000000E+00 -0.33415622108E+03  0.33415622108E+03  0.00000000000E+00 0.  1.
          6    1    1    2  501    0 -0.75003265865E+02 -0.64237449385E+02 -0.27009954933E+03  0.33509656271E+03  0.17200000000E+03 0.  1.
         -6    1    1    2    0  502  0.75003265865E+02  0.64237449385E+02  0.28005643390E+03  0.34317276402E+03  0.17200000000E+03 0. -1.
<mgrwt>
<rscale>  2 0.19833290E+03</rscale>
<asrwt>0</asrwt>
<pdfrwt beam="1">  1       21 0.86028276E-01 0.19833290E+03</pdfrwt>
<pdfrwt beam="2">  1       21 0.83539055E-01 0.19833290E+03</pdfrwt>
<totfact> 0.14454068E+03</totfact>
</mgrwt>
</event>
<event>
 4    1  0.1132373E+000  0.1790858E+03  0.7546771E-02  0.1168691E+00
         21   -1    0    0  503  502  0.00000000000E+00  0.00000000000E+00  0.36530833018E+02  0.36530833018E+02  0.00000000000E+00 0. -1.
         21   -1    0    0  501  503 -0.00000000000E+00 -0.00000000000E+00 -0.12857083398E+04  0.12857083398E+04  0.00000000000E+00 0. -1.
          6    1    1    2  501    0  0.42387256512E+02  0.26287582052E+02 -0.99691008718E+03  0.10128679274E+04  0.17200000000E+03 0. -1.
         -6    1    1    2    0  502 -0.42387256512E+02 -0.26287582052E+02 -0.25226741962E+03  0.30937124541E+03  0.17200000000E+03 0. -1.
<mgrwt>
<rscale>  2 0.17908578E+03</rscale>
<asrwt>0</asrwt>
<pdfrwt beam="1">  1       21 0.91327089E-02 0.17908578E+03</pdfrwt>
<pdfrwt beam="2">  1       21 0.32142706E+00 0.17908578E+03</pdfrwt>
<totfact> 0.24898122E+03</totfact>
</mgrwt>
</event>
<event>
 4    1  0.1132373E+000  0.2309719E+03  0.7546771E-02  0.1125958E+00
         21   -1    0    0  501  502  0.00000000000E+00  0.00000000000E+00  0.28048998107E+03  0.28048998107E+03  0.00000000000E+00 0. -1.
         21   -1    0    0  502  503 -0.00000000000E+00 -0.00000000000E+00 -0.26035394022E+03  0.26035394022E+03  0.00000000000E+00 0.  1.
          6    1    1    2  501    0  0.14141240277E+03  0.61372259597E+02  0.15044595640E+03  0.27564834065E+03  0.17200000000E+03 0. -1.
         -6    1    1    2    0  503 -0.14141240277E+03 -0.61372259597E+02 -0.13030991555E+03  0.26519558065E+03  0.17200000000E+03 0.  1.
<mgrwt>
<rscale>  2 0.23097191E+03</rscale>
<asrwt>0</asrwt>
<pdfrwt beam="1">  1       21 0.70122495E-01 0.23097191E+03</pdfrwt>
<pdfrwt beam="2">  1       21 0.65088485E-01 0.23097191E+03</pdfrwt>
<totfact> 0.38950460E+03</totfact>
</mgrwt>
</event>
<event>
 4    1  0.1132373E+000  0.1931970E+03  0.7546771E-02  0.1155609E+00
         21   -1    0    0  501  502  0.00000000000E+00  0.00000000000E+00  0.91973823682E+03  0.91973823682E+03  0.00000000000E+00 0.  1.
         21   -1    0    0  502  503 -0.00000000000E+00 -0.00000000000E+00 -0.56178018775E+02  0.56178018775E+02  0.00000000000E+00 0. -1.
          6    1    1    2  501    0  0.63779266621E+02 -0.60607599281E+02  0.68888024332E+03  0.71545864002E+03  0.17200000000E+03 0.  1.
         -6    1    1    2    0  503 -0.63779266621E+02  0.60607599281E+02  0.17467997472E+03  0.26045761557E+03  0.17200000000E+03 0.  1.
<mgrwt>
<rscale>  2 0.19319699E+03</rscale>
<asrwt>0</asrwt>
<pdfrwt beam="1">  1       21 0.22993451E+00 0.19319699E+03</pdfrwt>
<pdfrwt beam="2">  1       21 0.14044508E-01 0.19319699E+03</pdfrwt>
<totfact> 0.38677387E+03</totfact>
</mgrwt>
</event>
<event>
 4    1  0.1132373E+000  0.2030357E+03  0.7546771E-02  0.1147203E+00
         21   -1    0    0  501  502  0.00000000000E+00  0.00000000000E+00  0.63572893445E+02  0.63572893445E+02  0.00000000000E+00 0.  1.
         21   -1    0    0  502  503 -0.00000000000E+00 -0.00000000000E+00 -0.87101750903E+03  0.87101750903E+03  0.00000000000E+00 0.  1.
          6    1    1    2  501    0  0.21788645130E+02 -0.10566341622E+03 -0.63994084821E+03  0.67137753298E+03  0.17200000000E+03 0.  1.
         -6    1    1    2    0  503 -0.21788645130E+02  0.10566341622E+03 -0.16750376737E+03  0.26321286950E+03  0.17200000000E+03 0.  1.
<mgrwt>
<rscale>  2 0.20303572E+03</rscale>
<asrwt>0</asrwt>
<pdfrwt beam="1">  1       21 0.15893223E-01 0.20303572E+03</pdfrwt>
<pdfrwt beam="2">  1       21 0.21775438E+00 0.20303572E+03</pdfrwt>
<totfact> 0.36281775E+03</totfact>
</mgrwt>
</event>
<event>
 4    1  0.1132373E+000  0.1795174E+03  0.7546771E-02  0.1168271E+00
         21   -1    0    0  503  502  0.00000000000E+00  0.00000000000E+00  0.67139007488E+03  0.67139007488E+03  0.00000000000E+00 0. -1.
         21   -1    0    0  501  503 -0.00000000000E+00 -0.00000000000E+00 -0.63988683708E+02  0.63988683708E+02  0.00000000000E+00 0. -1.
          6    1    1    2  501    0  0.42212156630E+02  0.29336486606E+02  0.11990282965E+03  0.21587770652E+03  0.17200000000E+03 0. -1.
         -6    1    1    2    0  502 -0.42212156630E+02 -0.29336486606E+02  0.48749856152E+03  0.51950105207E+03  0.17200000000E+03 0. -1.
<mgrwt>
<rscale>  2 0.17951740E+03</rscale>
<asrwt>0</asrwt>
<pdfrwt beam="1">  1       21 0.16784750E+00 0.17951740E+03</pdfrwt>
<pdfrwt beam="2">  1       21 0.15997173E-01 0.17951740E+03</pdfrwt>
<totfact> 0.77921453E+03</totfact>
</mgrwt>
</event>
<event>
 4    1  0.1132373E+000  0.2257820E+03  0.7546771E-02  0.1129644E+00
         21   -1    0    0  501  502  0.00000000000E+00  0.00000000000E+00  0.39977856940E+03  0.39977856940E+03  0.00000000000E+00 0. -1.
         21   -1    0    0  502  503 -0.00000000000E+00 -0.00000000000E+00 -0.14101557470E+03  0.14101557470E+03  0.00000000000E+00 0.  1.
          6    1    1    2  501    0  0.14599508630E+03  0.88863577292E+01  0.21304843888E+03  0.31043062009E+03  0.17200000000E+03 0. -1.
         -6    1    1    2    0  503 -0.14599508630E+03 -0.88863577292E+01  0.45714555818E+02  0.23036352400E+03  0.17200000000E+03 0.  1.
<mgrwt>
<rscale>  2 0.22578205E+03</rscale>
<asrwt>0</asrwt>
<pdfrwt beam="1">  1       21 0.99944640E-01 0.22578205E+03</pdfrwt>
<pdfrwt beam="2">  1       21 0.35253895E-01 0.22578205E+03</pdfrwt>
<totfact> 0.62246658E+03</totfact>
</mgrwt>
</event>
<event>
 4    1  0.1132373E+000  0.1818773E+03  0.7546771E-02  0.1165998E+00
         21   -1    0    0  503  502  0.00000000000E+00  0.00000000000E+00  0.29090335061E+03  0.29090335061E+03  0.00000000000E+00 0.  1.
         21   -1    0    0  501  503 -0.00000000000E+00 -0.00000000000E+00 -0.15419783448E+03  0.15419783448E+03  0.00000000000E+00 0.  1.
          6    1    1    2  501    0 -0.29592876167E+02 -0.51182284840E+02 -0.45682241087E+02  0.18752661612E+03  0.17200000000E+03 0.  1.
         -6    1    1    2    0  502  0.29592876167E+02  0.51182284840E+02  0.18238775721E+03  0.25757456897E+03  0.17200000000E+03 0.  1.
<mgrwt>
<rscale>  2 0.18187733E+03</rscale>
<asrwt>0</asrwt>
<pdfrwt beam="1">  1       21 0.72725837E-01 0.18187733E+03</pdfrwt>
<pdfrwt beam="2">  1       21 0.38549459E-01 0.18187733E+03</pdfrwt>
<totfact> 0.11130058E+04</totfact>
</mgrwt>
</event>
<event>
 4    1  0.1132373E+000  0.2393679E+03  0.7546771E-02  0.1120215E+00
         21   -1    0    0  501  502  0.00000000000E+00  0.00000000000E+00  0.13569866346E+03  0.13569866346E+03  0.00000000000E+00 0.  1.
         21   -1    0    0  502  503 -0.00000000000E+00 -0.00000000000E+00 -0.44134049463E+03  0.44134049463E+03  0.00000000000E+00 0. -1.
          6    1    1    2  501    0  0.84407309272E+02 -0.14348653915E+03 -0.21284784579E+03  0.32031419924E+03  0.17200000000E+03 0.  1.
         -6    1    1    2    0  503 -0.84407309272E+02  0.14348653915E+03 -0.92793985380E+02  0.25672495885E+03  0.17200000000E+03 0. -1.
<mgrwt>
<rscale>  2 0.23936788E+03</rscale>
<asrwt>0</asrwt>
<pdfrwt beam="1">  1       21 0.33924666E-01 0.23936788E+03</pdfrwt>
<pdfrwt beam="2">  1       21 0.11033512E+00 0.23936788E+03</pdfrwt>
<totfact> 0.52444960E+03</totfact>
</mgrwt>
</event>
<event>
 4    1  0.1132373E+000  0.1925945E+03  0.7546771E-02  0.1156142E+00
         21   -1    0    0  501  502  0.00000000000E+00  0.00000000000E+00  0.20196393976E+03  0.20196393976E+03  0.00000000000E+00 0.  1.
         21   -1    0    0  502  503 -0.00000000000E+00 -0.00000000000E+00 -0.24845405679E+03  0.24845405679E+03  0.00000000000E+00 0.  1.
          6    1    1    2  501    0  0.86596134393E+02 -0.31255879349E+01  0.91763695688E+02  0.21333831264E+03  0.17200000000E+03 0.  1.
         -6    1    1    2    0  503 -0.86596134393E+02  0.31255879349E+01 -0.13825381272E+03  0.23707968391E+03  0.17200000000E+03 0.  1.
<mgrwt>
<rscale>  2 0.19259455E+03</rscale>
<asrwt>0</asrwt>
<pdfrwt beam="1">  1       21 0.50490985E-01 0.19259455E+03</pdfrwt>
<pdfrwt beam="2">  1       21 0.62113514E-01 0.19259455E+03</pdfrwt>
<totfact> 0.89802345E+03</totfact>
</mgrwt>
</event>
<event>
 4    1  0.1132373E+000  0.2181773E+03  0.7546771E-02  0.1135249E+00
         21   -1    0    0  503  502  0.00000000000E+00  0.00000000000E+00  0.12570129873E+04  0.12570129873E+04  0.00000000000E+00 0. -1.
         21   -1    0    0  501  503 -0.00000000000E+00 -0.00000000000E+00 -0.38442429644E+02  0.38442429644E+02  0.00000000000E+00 0. -1.
          6    1    1    2  501    0  0.13116048586E+03  0.28535222057E+02  0.53014901188E+03  0.57328815333E+03  0.17200000000E+03 0.  1.
         -6    1    1    2    0  502 -0.13116048586E+03 -0.28535222057E+02  0.68842154582E+03  0.72216726366E+03  0.17200000000E+03 0.  1.
<mgrwt>
<rscale>  2 0.21817729E+03</rscale>
<asrwt>0</asrwt>
<pdfrwt beam="1">  1       21 0.31425311E+00 0.21817729E+03</pdfrwt>
<pdfrwt beam="2">  1       21 0.96106116E-02 0.21817729E+03</pdfrwt>
<totfact> 0.23841064E+03</totfact>
</mgrwt>
</event>
<event>
 4    1  0.1132373E+000  0.1763768E+03  0.7546771E-02  0.1171356E+00
         21   -1    0    0  503  502  0.00000000000E+00  0.00000000000E+00  0.38105826492E+03  0.38105826492E+03  0.00000000000E+00 0. -1.
         21   -1    0    0  501  503 -0.00000000000E+00 -0.00000000000E+00 -0.11868131352E+03  0.11868131352E+03  0.00000000000E+00 0. -1.
          6    1    1    2  501    0  0.38446568338E+02  0.68302424499E+01 -0.84091930868E+01  0.17657719376E+03  0.17200000000E+03 0. -1.
         -6    1    1    2    0  502 -0.38446568338E+02 -0.68302424499E+01  0.27078614448E+03  0.32316238468E+03  0.17200000000E+03 0. -1.
<mgrwt>
<rscale>  2 0.17637684E+03</rscale>
<asrwt>0</asrwt>
<pdfrwt beam="1">  1       21 0.95264563E-01 0.17637684E+03</pdfrwt>
<pdfrwt beam="2">  1       21 0.29670329E-01 0.17637684E+03</pdfrwt>
<totfact> 0.10137483E+04</totfact>
</mgrwt>
</event>
<event>
 4    1  0.1132373E+000  0.2360155E+03  0.7546771E-02  0.1122476E+00
         21   -1    0    0  501  502  0.00000000000E+00  0.00000000000E+00  0.22427702058E+03  0.22427702058E+03  0.00000000000E+00 0.  1.
         21   -1    0    0  502  503 -0.00000000000E+00 -0.00000000000E+00 -0.26915946020E+03  0.26915946020E+03  0.00000000000E+00 0.  1.
          6    1    1    2  501    0  0.13217500218E+03  0.93000543386E+02  0.46128820173E+02  0.24048118497E+03  0.17200000000E+03 0.  1.
         -6    1    1    2    0  503 -0.13217500218E+03 -0.93000543386E+02 -0.91011259798E+02  0.25295529582E+03  0.17200000000E+03 0.  1.
<mgrwt>
<rscale>  2 0.23601553E+03</rscale>
<asrwt>0</asrwt>
<pdfrwt beam="1">  1       21 0.56069255E-01 0.23601553E+03</pdfrwt>
<pdfrwt beam="2">  1       21 0.67289865E-01 0.23601553E+03</pdfrwt>
<totfact> 0.58687266E+03</totfact>
</mgrwt>
</event>
<event>
 4    1  0.1132373E+000  0.1872626E+03  0.7546771E-02  0.1160954E+00
         21   -1    0    0  503  502  0.00000000000E+00  0.00000000000E+00  0.99094690426E+02  0.99094690426E+02  0.00000000000E+00 0.  1.
         21   -1    0    0  501  503 -0.00000000000E+00 -0.00000000000E+00 -0.39343257471E+03  0.39343257471E+03  0.00000000000E+00 0. -1.
          6    1    1    2  501    0  0.58287353498E+02  0.45671118995E+02 -0.22525483461E+03  0.29292833117E+03  0.17200000000E+03 0. -1.
         -6    1    1    2    0  502 -0.58287353498E+02 -0.45671118995E+02 -0.69083049676E+02  0.19959893397E+03  0.17200000000E+03 0.  1.
<mgrwt>
<rscale>  2 0.18726256E+03</rscale>
<asrwt>0</asrwt>
<pdfrwt beam="1">  1       21 0.24773673E-01 0.18726256E+03</pdfrwt>
<pdfrwt beam="2">  1       21 0.98358143E-01 0.18726256E+03</pdfrwt>
<totfact> 0.13205001E+04</totfact>
</mgrwt>
</event>
<event>
 4    1  0.1132373E+000  0.1752727E+03  0.7546771E-02  0.1172458E+00
         21   -1    0    0  501  502  0.00000000000E+00  0.00000000000E+00  0.28832618163E+03  0.28832618163E+03  0.00000000000E+00 0. -1.
         21   -1    0    0  502  503 -0.00000000000E+00 -0.00000000000E+00 -0.10656304508E+03  0.10656304508E+03  0.00000000000E+00 0. -1.
          6    1    1    2  501    0 -0.26608513236E+02  0.20700153216E+02  0.93246128389E+02  0.19853299418E+03  0.17200000000E+03 0. -1.
         -6    1    1    2    0  503  0.26608513236E+02 -0.20700153216E+02  0.88517008152E+02  0.19635623253E+03  0.17200000000E+03 0. -1.
<mgrwt>
<rscale>  2 0.17527267E+03</rscale>
<asrwt>0</asrwt>
<pdfrwt beam="1">  1       21 0.72081544E-01 0.17527267E+03</pdfrwt>
<pdfrwt beam="2">  1       21 0.26640762E-01 0.17527267E+03</pdfrwt>
<totfact> 0.23527972E+04</totfact>
</mgrwt>
</event>
<event>
 4    1  0.1132373E+000  0.2035255E+03  0.7546771E-02  0.1146798E+00
         21   -1    0    0  503  502  0.00000000000E+00  0.00000000000E+00  0.31038437149E+03  0.31038437149E+03  0.00000000000E+00 0.  1.
         21   -1    0    0  501  503 -0.00000000000E+00 -0.00000000000E+00 -0.22626588353E+03  0.22626588353E+03  0.00000000000E+00 0.  1.
          6    1    1    2  501    0  0.91865358683E+02  0.58304290003E+02 -0.12979057881E+03  0.24138812876E+03  0.17200000000E+03 0.  1.
         -6    1    1    2    0  502 -0.91865358683E+02 -0.58304290003E+02  0.21390906677E+03  0.29526212626E+03  0.17200000000E+03 0.  1.
<mgrwt>
<rscale>  2 0.20352551E+03</rscale>
<asrwt>0</asrwt>
<pdfrwt beam="1">  1       21 0.77596093E-01 0.20352551E+03</pdfrwt>
<pdfrwt beam="2">  1       21 0.56566471E-01 0.20352551E+03</pdfrwt>
<totfact> 0.42922638E+03</totfact>
</mgrwt>
</event>
<event>
 4    1  0.1132373E+000  0.2217071E+03  0.7546771E-02  0.1132617E+00
         21   -1    0    0  503  502  0.00000000000E+00  0.00000000000E+00  0.41942943645E+02  0.41942943645E+02  0.00000000000E+00 0.  1.
         21   -1    0    0  501  503 -0.00000000000E+00 -0.00000000000E+00 -0.11793450554E+04  0.11793450554E+04  0.00000000000E+00 0.  1.
          6    1    1    2  501    0  0.10411617512E+03  0.93433685439E+02 -0.52026840495E+03  0.56553801348E+03  0.17200000000E+03 0.  1.
         -6    1    1    2    0  502 -0.10411617512E+03 -0.93433685439E+02 -0.61713370678E+03  0.65574998555E+03  0.17200000000E+03 0.  1.
<mgrwt>
<rscale>  2 0.22170708E+03</rscale>
<asrwt>0</asrwt>
<pdfrwt beam="1">  1       21 0.10485736E-01 0.22170708E+03</pdfrwt>
<pdfrwt beam="2">  1       21 0.29483627E+00 0.22170708E+03</pdfrwt>
<totfact> 0.26375911E+03</totfact>
</mgrwt>
</event>
<event>
 4    1  0.1132373E+000  0.2156816E+03  0.7546771E-02  0.1137144E+00
         21   -1    0    0  501  502  0.00000000000E+00  0.00000000000E+00  0.33077600472E+03  0.33077600472E+03  0.00000000000E+00 0.  1.
         21   -1    0    0  502  503 -0.00000000000E+00 -0.00000000000E+00 -0.14345970653E+03  0.14345970653E+03  0.00000000000E+00 0. -1.
          6    1    1    2  501    0  0.10291528884E+03  0.79642866449E+02  0.12693319193E+03  0.25026101987E+03  0.17200000000E+03 0.  1.
         -6    1    1    2    0  503 -0.10291528884E+03 -0.79642866449E+02  0.60383106264E+02  0.22397469137E+03  0.17200000000E+03 0. -1.
<mgrwt>
<rscale>  2 0.21568158E+03</rscale>
<asrwt>0</asrwt>
<pdfrwt beam="1">  1       21 0.82694000E-01 0.21568158E+03</pdfrwt>
<pdfrwt beam="2">  1       21 0.35864927E-01 0.21568158E+03</pdfrwt>
<totfact> 0.94146767E+03</totfact>
</mgrwt>
</event>
<event>
 4    1  0.1132373E+000  0.1866928E+03  0.7546771E-02  0.1161478E+00
         21   -1    0    0  503  502  0.00000000000E+00  0.00000000000E+00  0.38017248036E+02  0.38017248036E+02  0.00000000000E+00 0.  1.
         21   -1    0    0  501  503 -0.00000000000E+00 -0.00000000000E+00 -0.10428769172E+04  0.10428769172E+04  0.00000000000E+00 0.  1.
          6    1    1    2  501    0 -0.69593070623E+02  0.20664208747E+02 -0.69034195893E+03  0.71514070312E+03  0.17200000000E+03 0.  1.
         -6    1    1    2    0  502  0.69593070623E+02 -0.20664208747E+02 -0.31451771027E+03  0.36575346215E+03  0.17200000000E+03 0.  1.
<mgrwt>
<rscale>  2 0.18669281E+03</rscale>
<asrwt>0</asrwt>
<pdfrwt beam="1">  1       21 0.95043119E-02 0.18669281E+03</pdfrwt>
<pdfrwt beam="2">  1       21 0.26071923E+00 0.18669281E+03</pdfrwt>
<totfact> 0.51409039E+03</totfact>
</mgrwt>
</event>
<event>
 4    1  0.1132373E+000  0.1949595E+03  0.7546771E-02  0.1154063E+00
         21   -1    0    0  503  502  0.00000000000E+00  0.00000000000E+00  0.53769186883E+03  0.53769186883E+03  0.00000000000E+00 0.  1.
         21   -1    0    0  501  503 -0.00000000000E+00 -0.00000000000E+00 -0.17319497011E+03  0.17319497011E+03  0.00000000000E+00 0.  1.
          6    1    1    2  501    0  0.91067560972E+02  0.11484587675E+02 -0.91200497428E+02  0.21523644475E+03  0.17200000000E+03 0.  1.
         -6    1    1    2    0  502 -0.91067560972E+02 -0.11484587675E+02  0.45569739615E+03  0.49565039420E+03  0.17200000000E+03 0.  1.
<mgrwt>
<rscale>  2 0.19495947E+03</rscale>
<asrwt>0</asrwt>
<pdfrwt beam="1">  1       21 0.13442296E+00 0.19495947E+03</pdfrwt>
<pdfrwt beam="2">  1       21 0.43298744E-01 0.19495947E+03</pdfrwt>
<totfact> 0.20321255E+03</totfact>
</mgrwt>
</event>
<event>
 4    1  0.1132373E+000  0.2159194E+03  0.7546771E-02  0.1136962E+00
         21   -1    0    0  501  502  0.00000000000E+00  0.00000000000E+00  0.20141633765E+03  0.20141633765E+03  0.00000000000E+00 0.  1.
         21   -1    0    0  502  503 -0.00000000000E+00 -0.00000000000E+00 -0.26488810784E+03  0.26488810784E+03  0.00000000000E+00 0. -1.
          6    1    1    2  501    0  0.12473973959E+03  0.38434080395E+02  0.51081306813E+02  0.22187942914E+03  0.17200000000E+03 0.  1.
         -6    1    1    2    0  503 -0.12473973959E+03 -0.38434080395E+02 -0.11455307700E+03  0.24442501635E+03  0.17200000000E+03 0. -1.
<mgrwt>
<rscale>  2 0.21591939E+03</rscale>
<asrwt>0</asrwt>
<pdfrwt beam="1">  1       21 0.50354085E-01 0.21591939E+03</pdfrwt>
<pdfrwt beam="2">  1       21 0.66222027E-01 0.21591939E+03</pdfrwt>
<totfact> 0.77300527E+03</totfact>
</mgrwt>
</event>
<event>
 4    1  0.1132373E+000  0.1774614E+03  0.7546771E-02  0.1170283E+00
         21   -1    0    0  503  502  0.00000000000E+00  0.00000000000E+00  0.77114909753E+02  0.77114909753E+02  0.00000000000E+00 0. -1.
         21   -1    0    0  501  503 -0.00000000000E+00 -0.00000000000E+00 -0.69457164380E+03  0.69457164380E+03  0.00000000000E+00 0. -1.
          6    1    1    2  501    0 -0.29766030832E+02 -0.31977262467E+02 -0.55640052995E+03  0.58401550634E+03  0.17200000000E+03 0. -1.
         -6    1    1    2    0  502  0.29766030832E+02  0.31977262467E+02 -0.61056204096E+02  0.18767104722E+03  0.17200000000E+03 0. -1.
<mgrwt>
<rscale>  2 0.17746144E+03</rscale>
<asrwt>0</asrwt>
<pdfrwt beam="1">  1       21 0.19278728E-01 0.17746144E+03</pdfrwt>
<pdfrwt beam="2">  1       21 0.17364291E+00 0.17746144E+03</pdfrwt>
<totfact> 0.50432572E+03</totfact>
</mgrwt>
</event>
<event>
 4    1  0.1132373E+000  0.1969185E+03  0.7546771E-02  0.1152365E+00
         21   -1    0    0  503  502  0.00000000000E+00  0.00000000000E+00  0.43142061821E+02  0.43142061821E+02  0.00000000000E+00 0. -1.
         21   -1    0    0  501  503 -0.00000000000E+00 -0.00000000000E+00 -0.91985994247E+03  0.91985994247E+03  0.00000000000E+00 0.  1.
          6    1    1    2  501    0 -0.54025442964E+02 -0.79209541137E+02 -0.36553567892E+03  0.41520264024E+03  0.17200000000E+03 0.  1.
         -6    1    1    2    0  502  0.54025442964E+02  0.79209541137E+02 -0.51118220172E+03  0.54779936405E+03  0.17200000000E+03 0.  1.
<mgrwt>
<rscale>  2 0.19691851E+03</rscale>
<asrwt>0</asrwt>
<pdfrwt beam="1">  1       21 0.10785516E-01 0.19691851E+03</pdfrwt>
<pdfrwt beam="2">  1       21 0.22996498E+00 0.19691851E+03</pdfrwt>
<totfact> 0.61845587E+03</totfact>
</mgrwt>
</event>
<event>
 4    1  0.1132373E+000  0.2135795E+03  0.7546771E-02  0.1138762E+00
         21   -1    0    0  501  502  0.00000000000E+00  0.00000000000E+00  0.20845754968E+03  0.20845754968E+03  0.00000000000E+00 0.  1.
         21   -1    0    0  502  503 -0.00000000000E+00 -0.00000000000E+00 -0.22326422892E+03  0.22326422892E+03  0.00000000000E+00 0. -1.
          6    1    1    2  501    0  0.12623755903E+03 -0.98120218926E+01 -0.37833690335E+02  0.21690455322E+03  0.17200000000E+03 0. -1.
         -6    1    1    2    0  503 -0.12623755903E+03  0.98120218926E+01  0.23027011096E+02  0.21481722539E+03  0.17200000000E+03 0. -1.
<mgrwt>
<rscale>  2 0.21357949E+03</rscale>
<asrwt>0</asrwt>
<pdfrwt beam="1">  1       21 0.52114388E-01 0.21357949E+03</pdfrwt>
<pdfrwt beam="2">  1       21 0.55816057E-01 0.21357949E+03</pdfrwt>
<totfact> 0.10417231E+04</totfact>
</mgrwt>
</event>
<event>
 4    1  0.1132373E+000  0.1820004E+03  0.7546771E-02  0.1165881E+00
         21   -1    0    0  501  502  0.00000000000E+00  0.00000000000E+00  0.10593500186E+03  0.10593500186E+03  0.00000000000E+00 0. -1.
         21   -1    0    0  502  503 -0.00000000000E+00 -0.00000000000E+00 -0.41615245514E+03  0.41615245514E+03  0.00000000000E+00 0. -1.
          6    1    1    2  501    0  0.58705483216E+02 -0.96854351564E+01 -0.24944457983E+02  0.18370184375E+03  0.17200000000E+03 0. -1.
         -6    1    1    2    0  503 -0.58705483216E+02  0.96854351564E+01 -0.28527299530E+03  0.33838561326E+03  0.17200000000E+03 0. -1.
<mgrwt>
<rscale>  2 0.18200039E+03</rscale>
<asrwt>0</asrwt>
<pdfrwt beam="1">  1       21 0.26483751E-01 0.18200039E+03</pdfrwt>
<pdfrwt beam="2">  1       21 0.10403811E+00 0.18200039E+03</pdfrwt>
<totfact> 0.10207755E+04</totfact>
</mgrwt>
</event>
<event>
 4    1  0.1132373E+000  0.3166635E+03  0.7546771E-02  0.1077195E+00
         21   -1    0    0  503  502  0.00000000000E+00  0.00000000000E+00  0.48575303937E+03  0.48575303937E+03  0.00000000000E+00 0.  1.
         21   -1    0    0  501  503 -0.00000000000E+00 -0.00000000000E+00 -0.20722701557E+03  0.20722701557E+03  0.00000000000E+00 0. -1.
          6    1    1    2  501    0  0.19856101833E+03  0.17681987156E+03  0.16070277434E+03  0.35510720446E+03  0.17200000000E+03 0.  1.
         -6    1    1    2    0  502 -0.19856101833E+03 -0.17681987156E+03  0.11782324946E+03  0.33787285048E+03  0.17200000000E+03 0.  1.
<mgrwt>
<rscale>  2 0.31666346E+03</rscale>
<asrwt>0</asrwt>
<pdfrwt beam="1">  1       21 0.12143826E+00 0.31666346E+03</pdfrwt>
<pdfrwt beam="2">  1       21 0.51806755E-01 0.31666346E+03</pdfrwt>
<totfact> 0.16545191E+03</totfact>
</mgrwt>
</event>
<event>
 4    1  0.1132373E+000  0.1785403E+03  0.7546771E-02  0.1169223E+00
         21   -1    0    0  501  502  0.00000000000E+00  0.00000000000E+00  0.12708519835E+03  0.12708519835E+03  0.00000000000E+00 0.  1.
         21   -1    0    0  502  503 -0.00000000000E+00 -0.00000000000E+00 -0.34774466787E+03  0.34774466787E+03  0.00000000000E+00 0.  1.
          6    1    1    2  501    0 -0.39359994687E+02 -0.27266151469E+02  0.15005969820E+02  0.17916983934E+03  0.17200000000E+03 0.  1.
         -6    1    1    2    0  503  0.39359994687E+02  0.27266151469E+02 -0.23566543934E+03  0.29566002688E+03  0.17200000000E+03 0.  1.
<mgrwt>
<rscale>  2 0.17854034E+03</rscale>
<asrwt>0</asrwt>
<pdfrwt beam="1">  1       21 0.31771300E-01 0.17854034E+03</pdfrwt>
<pdfrwt beam="2">  1       21 0.86936166E-01 0.17854034E+03</pdfrwt>
<totfact> 0.10945954E+04</totfact>
</mgrwt>
</event>
<event>
 4    1  0.1132373E+000  0.2859726E+03  0.7546771E-02  0.1092471E+00
         21   -1    0    0  501  502  0.00000000000E+00  0.00000000000E+00  0.36231068050E+03  0.36231068050E+03  0.00000000000E+00 0. -1.
         21   -1    0    0  502  503 -0.00000000000E+00 -0.00000000000E+00 -0.25268351841E+03  0.25268351841E+03  0.00000000000E+00 0.  1.
          6    1    1    2  501    0 -0.15789197155E+02 -0.22791891168E+03  0.15526372807E+03  0.32540306437E+03  0.17200000000E+03 0.  1.
         -6    1    1    2    0  503  0.15789197155E+02  0.22791891168E+03 -0.45636565976E+02  0.28959113454E+03  0.17200000000E+03 0. -1.
<mgrwt>
<rscale>  2 0.28597260E+03</rscale>
<asrwt>0</asrwt>
<pdfrwt beam="1">  1       21 0.90577670E-01 0.28597260E+03</pdfrwt>
<pdfrwt beam="2">  1       21 0.63170880E-01 0.28597260E+03</pdfrwt>
<totfact> 0.22399571E+03</totfact>
</mgrwt>
</event>
<event>
 4    1  0.1132373E+000  0.1817093E+03  0.7546771E-02  0.1166159E+00
         21   -1    0    0  503  502  0.00000000000E+00  0.00000000000E+00  0.83308030715E+03  0.83308030715E+03  0.00000000000E+00 0. -1.
         21   -1    0    0  501  503 -0.00000000000E+00 -0.00000000000E+00 -0.18885731010E+03  0.18885731010E+03  0.00000000000E+00 0. -1.
          6    1    1    2  501    0 -0.46561381333E+02 -0.35585416424E+02 -0.13208717464E+03  0.22464484369E+03  0.17200000000E+03 0. -1.
         -6    1    1    2    0  502  0.46561381333E+02  0.35585416424E+02  0.77631017170E+03  0.79729277356E+03  0.17200000000E+03 0. -1.
<mgrwt>
<rscale>  2 0.18170934E+03</rscale>
<asrwt>0</asrwt>
<pdfrwt beam="1">  1       21 0.20827007E+00 0.18170934E+03</pdfrwt>
<pdfrwt beam="2">  1       21 0.47214330E-01 0.18170934E+03</pdfrwt>
<totfact> 0.51778981E+02</totfact>
</mgrwt>
</event>
<event>
 4    1  0.1132373E+000  0.1808838E+03  0.7546771E-02  0.1166950E+00
         21   -1    0    0  501  502  0.00000000000E+00  0.00000000000E+00  0.10546049188E+03  0.10546049188E+03  0.00000000000E+00 0. -1.
         21   -1    0    0  502  503 -0.00000000000E+00 -0.00000000000E+00 -0.34595649705E+03  0.34595649705E+03  0.00000000000E+00 0. -1.
          6    1    1    2  501    0  0.50981989440E+02  0.23147253854E+02 -0.47734321870E+02  0.18707625208E+03  0.17200000000E+03 0. -1.
         -6    1    1    2    0  503 -0.50981989440E+02 -0.23147253854E+02 -0.19276168330E+03  0.26434073684E+03  0.17200000000E+03 0. -1.
<mgrwt>
<rscale>  2 0.18088383E+03</rscale>
<asrwt>0</asrwt>
<pdfrwt beam="1">  1       21 0.26365123E-01 0.18088383E+03</pdfrwt>
<pdfrwt beam="2">  1       21 0.86489124E-01 0.18088383E+03</pdfrwt>
<totfact> 0.15872552E+04</totfact>
</mgrwt>
</event>
<event>
 4    1  0.1132373E+000  0.1744716E+03  0.7546771E-02  0.1173263E+00
         21   -1    0    0  501  502  0.00000000000E+00  0.00000000000E+00  0.84013401941E+02  0.84013401941E+02  0.00000000000E+00 0.  1.
         21   -1    0    0  502  503 -0.00000000000E+00 -0.00000000000E+00 -0.67819564350E+03  0.67819564350E+03  0.00000000000E+00 0.  1.
          6    1    1    2  501    0 -0.29002417946E+02  0.38969688032E+01 -0.37003405142E+02  0.17835240005E+03  0.17200000000E+03 0.  1.
         -6    1    1    2    0  503  0.29002417946E+02 -0.38969688032E+01 -0.55717883642E+03  0.58385664539E+03  0.17200000000E+03 0.  1.
<mgrwt>
<rscale>  2 0.17447156E+03</rscale>
<asrwt>0</asrwt>
<pdfrwt beam="1">  1       21 0.21003351E-01 0.17447156E+03</pdfrwt>
<pdfrwt beam="2">  1       21 0.16954891E+00 0.17447156E+03</pdfrwt>
<totfact> 0.46029658E+03</totfact>
</mgrwt>
</event>
<event>
 4    1  0.1132373E+000  0.2172107E+03  0.7546771E-02  0.1135980E+00
         21   -1    0    0  501  502  0.00000000000E+00  0.00000000000E+00  0.14362375055E+04  0.14362375055E+04  0.00000000000E+00 0. -1.
         21   -1    0    0  502  503 -0.00000000000E+00 -0.00000000000E+00 -0.52661576868E+02  0.52661576868E+02  0.00000000000E+00 0. -1.
          6    1    1    2  501    0 -0.85570856342E+02 -0.10136138336E+03  0.23517619640E+03  0.32013800906E+03  0.17200000000E+03 0. -1.
         -6    1    1    2    0  503  0.85570856342E+02  0.10136138336E+03  0.11483997323E+04  0.11687610733E+04  0.17200000000E+03 0. -1.
<mgrwt>
<rscale>  2 0.21721073E+03</rscale>
<asrwt>0</asrwt>
<pdfrwt beam="1">  1       21 0.35905925E+00 0.21721073E+03</pdfrwt>
<pdfrwt beam="2">  1       21 0.13165399E-01 0.21721073E+03</pdfrwt>
<totfact> 0.74132708E+02</totfact>
</mgrwt>
</event>
<event>
 4    1  0.1132373E+000  0.2732089E+03  0.7546771E-02  0.1099457E+00
         21   -1    0    0  503  502  0.00000000000E+00  0.00000000000E+00  0.87030474523E+03  0.87030474523E+03  0.00000000000E+00 0. -1.
         21   -1    0    0  501  503 -0.00000000000E+00 -0.00000000000E+00 -0.97110848371E+02  0.97110848371E+02  0.00000000000E+00 0.  1.
          6    1    1    2  501    0 -0.11024727051E+03 -0.18139632764E+03  0.22127258061E+03  0.35157452022E+03  0.17200000000E+03 0. -1.
         -6    1    1    2    0  502  0.11024727051E+03  0.18139632764E+03  0.55192131625E+03  0.61584107339E+03  0.17200000000E+03 0.  1.
<mgrwt>
<rscale>  2 0.27320887E+03</rscale>
<asrwt>0</asrwt>
<pdfrwt beam="1">  1       21 0.21757616E+00 0.27320887E+03</pdfrwt>
<pdfrwt beam="2">  1       21 0.24277715E-01 0.27320887E+03</pdfrwt>
<totfact> 0.15465127E+03</totfact>
</mgrwt>
</event>
<event>
 4    1  0.1132373E+000  0.1992015E+03  0.7546771E-02  0.1150414E+00
         21   -1    0    0  503  502  0.00000000000E+00  0.00000000000E+00  0.12995163567E+03  0.12995163567E+03  0.00000000000E+00 0. -1.
         21   -1    0    0  501  503 -0.00000000000E+00 -0.00000000000E+00 -0.76093126398E+03  0.76093126398E+03  0.00000000000E+00 0. -1.
          6    1    1    2  501    0  0.43237469559E+02 -0.90707062603E+02 -0.66015620829E+03  0.68955599434E+03  0.17200000000E+03 0. -1.
         -6    1    1    2    0  502 -0.43237469559E+02  0.90707062603E+02  0.29176579984E+02  0.20132690530E+03  0.17200000000E+03 0. -1.
<mgrwt>
<rscale>  2 0.19920153E+03</rscale>
<asrwt>0</asrwt>
<pdfrwt beam="1">  1       21 0.32487909E-01 0.19920153E+03</pdfrwt>
<pdfrwt beam="2">  1       21 0.19023281E+00 0.19920153E+03</pdfrwt>
<totfact> 0.14071843E+03</totfact>
</mgrwt>
</event>
<event>
 4    1  0.1132373E+000  0.1973846E+03  0.7546771E-02  0.1151965E+00
         21   -1    0    0  503  502  0.00000000000E+00  0.00000000000E+00  0.89651994031E+02  0.89651994031E+02  0.00000000000E+00 0. -1.
         21   -1    0    0  501  503 -0.00000000000E+00 -0.00000000000E+00 -0.57624874762E+03  0.57624874762E+03  0.00000000000E+00 0.  1.
          6    1    1    2  501    0  0.96809730997E+02 -0.21366375345E+01 -0.40838664934E+03  0.45358609392E+03  0.17200000000E+03 0.  1.
         -6    1    1    2    0  502 -0.96809730997E+02  0.21366375345E+01 -0.78210104247E+02  0.21231464773E+03  0.17200000000E+03 0. -1.
<mgrwt>
<rscale>  2 0.19738462E+03</rscale>
<asrwt>0</asrwt>
<pdfrwt beam="1">  1       21 0.22412999E-01 0.19738462E+03</pdfrwt>
<pdfrwt beam="2">  1       21 0.14406218E+00 0.19738462E+03</pdfrwt>
<totfact> 0.61684821E+03</totfact>
</mgrwt>
</event>
<event>
 4    1  0.1132373E+000  0.2168793E+03  0.7546771E-02  0.1136231E+00
         21   -1    0    0  503  502  0.00000000000E+00  0.00000000000E+00  0.17757036406E+03  0.17757036406E+03  0.00000000000E+00 0.  1.
         21   -1    0    0  501  503 -0.00000000000E+00 -0.00000000000E+00 -0.27308561647E+03  0.27308561647E+03  0.00000000000E+00 0. -1.
          6    1    1    2  501    0 -0.62300297318E+02  0.11649595966E+03 -0.87227081911E+01  0.21705465049E+03  0.17200000000E+03 0.  1.
         -6    1    1    2    0  502  0.62300297318E+02 -0.11649595966E+03 -0.86792544214E+02  0.23360133003E+03  0.17200000000E+03 0.  1.
<mgrwt>
<rscale>  2 0.21687931E+03</rscale>
<asrwt>0</asrwt>
<pdfrwt beam="1">  1       21 0.44392591E-01 0.21687931E+03</pdfrwt>
<pdfrwt beam="2">  1       21 0.68271404E-01 0.21687931E+03</pdfrwt>
<totfact> 0.93832562E+03</totfact>
</mgrwt>
</event>
<event>
 4    1  0.1132373E+000  0.2019646E+03  0.7546771E-02  0.1148092E+00
         21   -1    0    0  503  502  0.00000000000E+00  0.00000000000E+00  0.11259674732E+04  0.11259674732E+04  0.00000000000E+00 0. -1.
         21   -1    0    0  501  503 -0.00000000000E+00 -0.00000000000E+00 -0.69209677018E+02  0.69209677018E+02  0.00000000000E+00 0. -1.
          6    1    1    2  501    0 -0.12119900854E+02 -0.10516092158E+03  0.11583896855E+03  0.23282692727E+03  0.17200000000E+03 0. -1.
         -6    1    1    2    0  502  0.12119900854E+02  0.10516092158E+03  0.94091882767E+03  0.96235022299E+03  0.17200000000E+03 0. -1.
<mgrwt>
<rscale>  2 0.20196463E+03</rscale>
<asrwt>0</asrwt>
<pdfrwt beam="1">  1       21 0.28149181E+00 0.20196463E+03</pdfrwt>
<pdfrwt beam="2">  1       21 0.17302423E-01 0.20196463E+03</pdfrwt>
<totfact> 0.13023477E+03</totfact>
</mgrwt>
</event>
<event>
 4    1  0.1132373E+000  0.1732976E+03  0.7546771E-02  0.1174452E+00
         21   -1    0    0  501  502  0.00000000000E+00  0.00000000000E+00  0.34272561132E+02  0.34272561132E+02  0.00000000000E+00 0. -1.
         21   -1    0    0  502  503 -0.00000000000E+00 -0.00000000000E+00 -0.14251997236E+04  0.14251997236E+04  0.00000000000E+00 0. -1.
          6    1    1    2  501    0  0.11965039866E+02 -0.17460793663E+02 -0.24258051258E+03  0.29812303933E+03  0.17200000000E+03 0. -1.
         -6    1    1    2    0  503 -0.11965039866E+02  0.17460793663E+02 -0.11483466499E+04  0.11613492454E+04  0.17200000000E+03 0. -1.
<mgrwt>
<rscale>  2 0.17329755E+03</rscale>
<asrwt>0</asrwt>
<pdfrwt beam="1">  1       21 0.85681407E-02 0.17329755E+03</pdfrwt>
<pdfrwt beam="2">  1       21 0.35629991E+00 0.17329755E+03</pdfrwt>
<totfact> 0.17585625E+03</totfact>
</mgrwt>
</event>
<event>
 4    1  0.1132373E+000  0.2230549E+03  0.7546771E-02  0.1131626E+00
         21   -1    0    0  503  502  0.00000000000E+00  0.00000000000E+00  0.86245907623E+02  0.86245907623E+02  0.00000000000E+00 0.  1.
         21   -1    0    0  501  503 -0.00000000000E+00 -0.00000000000E+00 -0.58333172026E+03  0.58333172026E+03  0.00000000000E+00 0.  1.
          6    1    1    2  501    0 -0.78278562078E+01  0.14180346741E+03 -0.28375296156E+03  0.36092830575E+03  0.17200000000E+03 0.  1.
         -6    1    1    2    0  502  0.78278562078E+01 -0.14180346741E+03 -0.21333285108E+03  0.30864932213E+03  0.17200000000E+03 0.  1.
<mgrwt>
<rscale>  2 0.22305492E+03</rscale>
<asrwt>0</asrwt>
<pdfrwt beam="1">  1       21 0.21561477E-01 0.22305492E+03</pdfrwt>
<pdfrwt beam="2">  1       21 0.14583293E+00 0.22305492E+03</pdfrwt>
<totfact> 0.63021502E+03</totfact>
</mgrwt>
</event>
<event>
 4    1  0.1132373E+000  0.2818670E+03  0.7546771E-02  0.1094674E+00
         21   -1    0    0  501  502  0.00000000000E+00  0.00000000000E+00  0.12838416258E+03  0.12838416258E+03  0.00000000000E+00 0.  1.
         21   -1    0    0  502  503 -0.00000000000E+00 -0.00000000000E+00 -0.74204317240E+03  0.74204317240E+03  0.00000000000E+00 0. -1.
          6    1    1    2  501    0  0.12841095420E+03 -0.18269004320E+03 -0.12949140803E+03  0.31018873255E+03  0.17200000000E+03 0.  1.
         -6    1    1    2    0  503 -0.12841095420E+03  0.18269004320E+03 -0.48416760178E+03  0.56023860243E+03  0.17200000000E+03 0. -1.
<mgrwt>
<rscale>  2 0.28186703E+03</rscale>
<asrwt>0</asrwt>
<pdfrwt beam="1">  1       21 0.32096041E-01 0.28186703E+03</pdfrwt>
<pdfrwt beam="2">  1       21 0.18551079E+00 0.28186703E+03</pdfrwt>
<totfact> 0.14421769E+03</totfact>
</mgrwt>
</event>
<event>
 4    1  0.1132373E+000  0.1960286E+03  0.7546771E-02  0.1153134E+00
         21   -1    0    0  503  502  0.00000000000E+00  0.00000000000E+00  0.21789165212E+03  0.21789165212E+03  0.00000000000E+00 0.  1.
         21   -1    0    0  501  503 -0.00000000000E+00 -0.00000000000E+00 -0.17683526054E+03  0.17683526054E+03  0.00000000000E+00 0. -1.
          6    1    1    2  501    0 -0.39890934923E+02  0.85158326199E+02  0.10289347623E+02  0.19629849180E+03  0.17200000000E+03 0. -1.
         -6    1    1    2    0  502  0.39890934923E+02 -0.85158326199E+02  0.30767043961E+02  0.19842842086E+03  0.17200000000E+03 0.  1.
<mgrwt>
<rscale>  2 0.19602864E+03</rscale>
<asrwt>0</asrwt>
<pdfrwt beam="1">  1       21 0.54472913E-01 0.19602864E+03</pdfrwt>
<pdfrwt beam="2">  1       21 0.44208815E-01 0.19602864E+03</pdfrwt>
<totfact> 0.15610575E+04</totfact>
</mgrwt>
</event>
<event>
 4    1  0.1132373E+000  0.2081134E+03  0.7546771E-02  0.1143069E+00
         21   -1    0    0  501  502  0.00000000000E+00  0.00000000000E+00  0.79255218985E+02  0.79255218985E+02  0.00000000000E+00 0.  1.
         21   -1    0    0  502  503 -0.00000000000E+00 -0.00000000000E+00 -0.67113567325E+03  0.67113567325E+03  0.00000000000E+00 0.  1.
          6    1    1    2  501    0 -0.11048212924E+03 -0.38998363109E+02 -0.13423903139E+03  0.24765155109E+03  0.17200000000E+03 0.  1.
         -6    1    1    2    0  503  0.11048212924E+03  0.38998363109E+02 -0.45764142288E+03  0.50273934115E+03  0.17200000000E+03 0.  1.
<mgrwt>
<rscale>  2 0.20811337E+03</rscale>
<asrwt>0</asrwt>
<pdfrwt beam="1">  1       21 0.19813805E-01 0.20811337E+03</pdfrwt>
<pdfrwt beam="2">  1       21 0.16778392E+00 0.20811337E+03</pdfrwt>
<totfact> 0.51280944E+03</totfact>
</mgrwt>
</event>
<event>
 4    1  0.1132373E+000  0.2539059E+03  0.7546771E-02  0.1110861E+00
         21   -1    0    0  503  502  0.00000000000E+00  0.00000000000E+00  0.10434256113E+03  0.10434256113E+03  0.00000000000E+00 0. -1.
         21   -1    0    0  501  503 -0.00000000000E+00 -0.00000000000E+00 -0.62070685307E+03  0.62070685307E+03  0.00000000000E+00 0.  1.
          6    1    1    2  501    0 -0.18266555047E+03  0.38954835566E+02 -0.28277125174E+03  0.38003652897E+03  0.17200000000E+03 0. -1.
         -6    1    1    2    0  502  0.18266555047E+03 -0.38954835566E+02 -0.23359304021E+03  0.34501288523E+03  0.17200000000E+03 0.  1.
<mgrwt>
<rscale>  2 0.25390585E+03</rscale>
<asrwt>0</asrwt>
<pdfrwt beam="1">  1       21 0.26085641E-01 0.25390585E+03</pdfrwt>
<pdfrwt beam="2">  1       21 0.15517671E+00 0.25390585E+03</pdfrwt>
<totfact> 0.36351779E+03</totfact>
</mgrwt>
</event>
<event>
 4    1  0.1132373E+000  0.2141699E+03  0.7546771E-02  0.1138306E+00
         21   -1    0    0  503  502  0.00000000000E+00  0.00000000000E+00  0.11459213369E+03  0.11459213369E+03  0.00000000000E+00 0.  1.
         21   -1    0    0  501  503 -0.00000000000E+00 -0.00000000000E+00 -0.60006895259E+03  0.60006895259E+03  0.00000000000E+00 0.  1.
          6    1    1    2  501    0 -0.12312022077E+03 -0.33558500578E+02 -0.44892336810E+03  0.49739416176E+03  0.17200000000E+03 0.  1.
         -6    1    1    2    0  502  0.12312022077E+03  0.33558500578E+02 -0.36553450792E+02  0.21726692452E+03  0.17200000000E+03 0.  1.
<mgrwt>
<rscale>  2 0.21416994E+03</rscale>
<asrwt>0</asrwt>
<pdfrwt beam="1">  1       21 0.28648034E-01 0.21416994E+03</pdfrwt>
<pdfrwt beam="2">  1       21 0.15001724E+00 0.21416994E+03</pdfrwt>
<totfact> 0.34185738E+03</totfact>
</mgrwt>
</event>
<event>
 4    1  0.1132373E+000  0.1743066E+03  0.7546771E-02  0.1173430E+00
         21   -1    0    0  503  502  0.00000000000E+00  0.00000000000E+00  0.35080417635E+02  0.35080417635E+02  0.00000000000E+00 0. -1.
         21   -1    0    0  501  503 -0.00000000000E+00 -0.00000000000E+00 -0.86985923031E+03  0.86985923031E+03  0.00000000000E+00 0.  1.
          6    1    1    2  501    0  0.14443348464E+01  0.28225878902E+02 -0.38760341178E+03  0.42499316602E+03  0.17200000000E+03 0. -1.
         -6    1    1    2    0  502 -0.14443348464E+01 -0.28225878902E+02 -0.44717540089E+03  0.47994648192E+03  0.17200000000E+03 0. -1.
<mgrwt>
<rscale>  2 0.17430659E+03</rscale>
<asrwt>0</asrwt>
<pdfrwt beam="1">  1       21 0.87701043E-02 0.17430659E+03</pdfrwt>
<pdfrwt beam="2">  1       21 0.21746481E+00 0.17430659E+03</pdfrwt>
<totfact> 0.10836059E+04</totfact>
</mgrwt>
</event>
<event>
 4    1  0.1132373E+000  0.2213278E+03  0.7546771E-02  0.1132897E+00
         21   -1    0    0  503  502  0.00000000000E+00  0.00000000000E+00  0.22948742044E+03  0.22948742044E+03  0.00000000000E+00 0. -1.
         21   -1    0    0  501  503 -0.00000000000E+00 -0.00000000000E+00 -0.26574786650E+03  0.26574786650E+03  0.00000000000E+00 0.  1.
          6    1    1    2  501    0 -0.11970737620E+03  0.71218880425E+02 -0.12796867180E+03  0.25565986351E+03  0.17200000000E+03 0.  1.
         -6    1    1    2    0  502  0.11970737620E+03 -0.71218880425E+02  0.91708225740E+02  0.23957542344E+03  0.17200000000E+03 0. -1.
<mgrwt>
<rscale>  2 0.22132778E+03</rscale>
<asrwt>0</asrwt>
<pdfrwt beam="1">  1       21 0.57371855E-01 0.22132778E+03</pdfrwt>
<pdfrwt beam="2">  1       21 0.66436966E-01 0.22132778E+03</pdfrwt>
<totfact> 0.58030603E+03</totfact>
</mgrwt>
</event>
<event>
 4    1  0.1132373E+000  0.2243807E+03  0.7546771E-02  0.1130659E+00
         21   -1    0    0  503  502  0.00000000000E+00  0.00000000000E+00  0.22893634321E+03  0.22893634321E+03  0.00000000000E+00 0. -1.
         21   -1    0    0  501  503 -0.00000000000E+00 -0.00000000000E+00 -0.41968212772E+03  0.41968212772E+03  0.00000000000E+00 0. -1.
          6    1    1    2  501    0  0.38958219960E+02 -0.13872620652E+03 -0.31912147695E+03  0.39010924153E+03  0.17200000000E+03 0. -1.
         -6    1    1    2    0  502 -0.38958219960E+02  0.13872620652E+03  0.12837569243E+03  0.25850922940E+03  0.17200000000E+03 0. -1.
<mgrwt>
<rscale>  2 0.22438071E+03</rscale>
<asrwt>0</asrwt>
<pdfrwt beam="1">  1       21 0.57234086E-01 0.22438071E+03</pdfrwt>
<pdfrwt beam="2">  1       21 0.10492053E+00 0.22438071E+03</pdfrwt>
<totfact> 0.20411399E+03</totfact>
</mgrwt>
</event>
<event>
 4    1  0.1132373E+000  0.3444290E+03  0.7546771E-02  0.1064925E+00
         21   -1    0    0  503  502  0.00000000000E+00  0.00000000000E+00  0.21763638873E+04  0.21763638873E+04  0.00000000000E+00 0.  1.
         21   -1    0    0  501  503 -0.00000000000E+00 -0.00000000000E+00 -0.20653876168E+03  0.20653876168E+03  0.00000000000E+00 0. -1.
          6    1    1    2  501    0  0.25105076634E+03 -0.16130979855E+03 -0.37296860749E+02  0.34644248326E+03  0.17200000000E+03 0. -1.
         -6    1    1    2    0  502 -0.25105076634E+03  0.16130979855E+03  0.20071219863E+04  0.20364601657E+04  0.17200000000E+03 0.  1.
<mgrwt>
<rscale>  2 0.34442900E+03</rscale>
<asrwt>0</asrwt>
<pdfrwt beam="1">  1       21 0.54409090E+00 0.34442900E+03</pdfrwt>
<pdfrwt beam="2">  1       21 0.51634697E-01 0.34442900E+03</pdfrwt>
<totfact> 0.25312741E+00</totfact>
</mgrwt>
</event>
<event>
 4    1  0.1132373E+000  0.2808916E+03  0.7546771E-02  0.1095203E+00
         21   -1    0    0  503  502  0.00000000000E+00  0.00000000000E+00  0.13969210505E+03  0.13969210505E+03  0.00000000000E+00 0.  1.
         21   -1    0    0  501  503 -0.00000000000E+00 -0.00000000000E+00 -0.65447567398E+03  0.65447567398E+03  0.00000000000E+00 0.  1.
          6    1    1    2  501    0  0.79487814079E+01 -0.22192992494E+03 -0.11041842525E+03  0.30181501511E+03  0.17200000000E+03 0.  1.
         -6    1    1    2    0  502 -0.79487814079E+01  0.22192992494E+03 -0.40436514369E+03  0.49235276392E+03  0.17200000000E+03 0.  1.
<mgrwt>
<rscale>  2 0.28089157E+03</rscale>
<asrwt>0</asrwt>
<pdfrwt beam="1">  1       21 0.34923027E-01 0.28089157E+03</pdfrwt>
<pdfrwt beam="2">  1       21 0.16361892E+00 0.28089157E+03</pdfrwt>
<totfact> 0.17398917E+03</totfact>
</mgrwt>
</event>
<event>
 4    1  0.1132373E+000  0.1731292E+03  0.7546771E-02  0.1174623E+00
         21   -1    0    0  501  502  0.00000000000E+00  0.00000000000E+00  0.63228713959E+03  0.63228713959E+03  0.00000000000E+00 0.  1.
         21   -1    0    0  502  503 -0.00000000000E+00 -0.00000000000E+00 -0.58552263376E+02  0.58552263376E+02  0.00000000000E+00 0.  1.
          6    1    1    2  501    0  0.64277316043E+01  0.18665779079E+02  0.43758179010E+03  0.47058638959E+03  0.17200000000E+03 0.  1.
         -6    1    1    2    0  503 -0.64277316043E+01 -0.18665779079E+02  0.13615308611E+03  0.22025301337E+03  0.17200000000E+03 0.  1.
<mgrwt>
<rscale>  2 0.17312922E+03</rscale>
<asrwt>0</asrwt>
<pdfrwt beam="1">  1       21 0.15807176E+00 0.17312922E+03</pdfrwt>
<pdfrwt beam="2">  1       21 0.14638068E-01 0.17312922E+03</pdfrwt>
<totfact> 0.10828798E+04</totfact>
</mgrwt>
</event>
<event>
 4    1  0.1132373E+000  0.1852604E+03  0.7546771E-02  0.1162807E+00
         21   -1    0    0  503  502  0.00000000000E+00  0.00000000000E+00  0.17923849017E+03  0.17923849017E+03  0.00000000000E+00 0.  1.
         21   -1    0    0  501  503 -0.00000000000E+00 -0.00000000000E+00 -0.23378684106E+03  0.23378684106E+03  0.00000000000E+00 0.  1.
          6    1    1    2  501    0 -0.57911884289E+02  0.37197062940E+02  0.60571103867E+02  0.19491091929E+03  0.17200000000E+03 0.  1.
         -6    1    1    2    0  502  0.57911884289E+02 -0.37197062940E+02 -0.11511945476E+03  0.21811441195E+03  0.17200000000E+03 0.  1.
<mgrwt>
<rscale>  2 0.18526038E+03</rscale>
<asrwt>0</asrwt>
<pdfrwt beam="1">  1       21 0.44809623E-01 0.18526038E+03</pdfrwt>
<pdfrwt beam="2">  1       21 0.58446710E-01 0.18526038E+03</pdfrwt>
<totfact> 0.13165225E+04</totfact>
</mgrwt>
</event>
<event>
 4    1  0.1132373E+000  0.2214503E+03  0.7546771E-02  0.1132806E+00
         21   -1    0    0  501  502  0.00000000000E+00  0.00000000000E+00  0.14821823445E+03  0.14821823445E+03  0.00000000000E+00 0. -1.
         21   -1    0    0  502  503 -0.00000000000E+00 -0.00000000000E+00 -0.39776965327E+03  0.39776965327E+03  0.00000000000E+00 0. -1.
          6    1    1    2  501    0  0.12362637365E+03  0.64596733174E+02 -0.12815029961E+02  0.22182074563E+03  0.17200000000E+03 0. -1.
         -6    1    1    2    0  503 -0.12362637365E+03 -0.64596733174E+02 -0.23673638887E+03  0.32416714209E+03  0.17200000000E+03 0. -1.
<mgrwt>
<rscale>  2 0.22145026E+03</rscale>
<asrwt>0</asrwt>
<pdfrwt beam="1">  1       21 0.37054559E-01 0.22145026E+03</pdfrwt>
<pdfrwt beam="2">  1       21 0.99442412E-01 0.22145026E+03</pdfrwt>
<totfact> 0.57193543E+03</totfact>
</mgrwt>
</event>
<event>
 4    1  0.1132373E+000  0.1966593E+03  0.7546771E-02  0.1152589E+00
         21   -1    0    0  503  502  0.00000000000E+00  0.00000000000E+00  0.58103949956E+03  0.58103949956E+03  0.00000000000E+00 0.  1.
         21   -1    0    0  501  503 -0.00000000000E+00 -0.00000000000E+00 -0.75721194844E+02  0.75721194844E+02  0.00000000000E+00 0.  1.
          6    1    1    2  501    0 -0.66286530827E+02 -0.68534591940E+02  0.13844825292E+03  0.24050532884E+03  0.17200000000E+03 0.  1.
         -6    1    1    2    0  502  0.66286530827E+02  0.68534591940E+02  0.36687005179E+03  0.41625536557E+03  0.17200000000E+03 0.  1.
<mgrwt>
<rscale>  2 0.19665934E+03</rscale>
<asrwt>0</asrwt>
<pdfrwt beam="1">  1       21 0.14525986E+00 0.19665934E+03</pdfrwt>
<pdfrwt beam="2">  1       21 0.18930300E-01 0.19665934E+03</pdfrwt>
<totfact> 0.82890372E+03</totfact>
</mgrwt>
</event>
<event>
 4    1  0.1132373E+000  0.2061236E+03  0.7546771E-02  0.1144673E+00
         21   -1    0    0  501  502  0.00000000000E+00  0.00000000000E+00  0.53035860087E+03  0.53035860087E+03  0.00000000000E+00 0.  1.
         21   -1    0    0  502  503 -0.00000000000E+00 -0.00000000000E+00 -0.93260739546E+02  0.93260739546E+02  0.00000000000E+00 0. -1.
          6    1    1    2  501    0  0.11312439281E+03 -0.10286062536E+02  0.33563850717E+03  0.39387832998E+03  0.17200000000E+03 0.  1.
         -6    1    1    2    0  503 -0.11312439281E+03  0.10286062536E+02  0.10145935416E+03  0.22974101044E+03  0.17200000000E+03 0. -1.
<mgrwt>
<rscale>  2 0.20612358E+03</rscale>
<asrwt>0</asrwt>
<pdfrwt beam="1">  1       21 0.13258964E+00 0.20612358E+03</pdfrwt>
<pdfrwt beam="2">  1       21 0.23315186E-01 0.20612358E+03</pdfrwt>
<totfact> 0.70392247E+03</totfact>
</mgrwt>
</event>
<event>
 4    1  0.1132373E+000  0.1720629E+03  0.7546771E-02  0.1175713E+00
         21   -1    0    0  501  502  0.00000000000E+00  0.00000000000E+00  0.58811683298E+02  0.58811683298E+02  0.00000000000E+00 0.  1.
         21   -1    0    0  502  503 -0.00000000000E+00 -0.00000000000E+00 -0.51572363006E+03  0.51572363006E+03  0.00000000000E+00 0.  1.
          6    1    1    2  501    0 -0.42420611341E+01  0.19117673567E+01 -0.27286721439E+03  0.32258668079E+03  0.17200000000E+03 0.  1.
         -6    1    1    2    0  503  0.42420611341E+01 -0.19117673567E+01 -0.18404473238E+03  0.25194863257E+03  0.17200000000E+03 0.  1.
<mgrwt>
<rscale>  2 0.17206292E+03</rscale>
<asrwt>0</asrwt>
<pdfrwt beam="1">  1       21 0.14702921E-01 0.17206292E+03</pdfrwt>
<pdfrwt beam="2">  1       21 0.12893090E+00 0.17206292E+03</pdfrwt>
<totfact> 0.18205459E+04</totfact>
</mgrwt>
</event>
<event>
 4    1  0.1132373E+000  0.1824454E+03  0.7546771E-02  0.1165457E+00
         21   -1    0    0  503  502  0.00000000000E+00  0.00000000000E+00  0.59425263778E+02  0.59425263778E+02  0.00000000000E+00 0.  1.
         21   -1    0    0  501  503 -0.00000000000E+00 -0.00000000000E+00 -0.56404127721E+03  0.56404127721E+03  0.00000000000E+00 0. -1.
          6    1    1    2  501    0  0.50734633872E+01  0.60634721555E+02 -0.22637344955E+03  0.29074258056E+03  0.17200000000E+03 0.  1.
         -6    1    1    2    0  502 -0.50734633872E+01 -0.60634721555E+02 -0.27824256389E+03  0.33272396044E+03  0.17200000000E+03 0. -1.
<mgrwt>
<rscale>  2 0.18244536E+03</rscale>
<asrwt>0</asrwt>
<pdfrwt beam="1">  1       21 0.14856316E-01 0.18244536E+03</pdfrwt>
<pdfrwt beam="2">  1       21 0.14101032E+00 0.18244536E+03</pdfrwt>
<totfact> 0.14123331E+04</totfact>
</mgrwt>
</event>
<event>
 4    1  0.1132373E+000  0.2361661E+03  0.7546771E-02  0.1122373E+00
         21   -1    0    0  501  502  0.00000000000E+00  0.00000000000E+00  0.14046959594E+03  0.14046959594E+03  0.00000000000E+00 0. -1.
         21   -1    0    0  502  503 -0.00000000000E+00 -0.00000000000E+00 -0.46045733945E+03  0.46045733945E+03  0.00000000000E+00 0.  1.
          6    1    1    2  501    0 -0.74988214800E+02  0.14341274788E+03 -0.48502189622E+02  0.24109523225E+03  0.17200000000E+03 0. -1.
         -6    1    1    2    0  503  0.74988214800E+02 -0.14341274788E+03 -0.27148555390E+03  0.35983170314E+03  0.17200000000E+03 0.  1.
<mgrwt>
<rscale>  2 0.23616615E+03</rscale>
<asrwt>0</asrwt>
<pdfrwt beam="1">  1       21 0.35117400E-01 0.23616615E+03</pdfrwt>
<pdfrwt beam="2">  1       21 0.11511433E+00 0.23616615E+03</pdfrwt>
<totfact> 0.44228245E+03</totfact>
</mgrwt>
</event>
<event>
 4    1  0.1132373E+000  0.1774987E+03  0.7546771E-02  0.1170246E+00
         21   -1    0    0  503  502  0.00000000000E+00  0.00000000000E+00  0.44608520468E+02  0.44608520468E+02  0.00000000000E+00 0.  1.
         21   -1    0    0  501  503 -0.00000000000E+00 -0.00000000000E+00 -0.90622026864E+03  0.90622026864E+03  0.00000000000E+00 0.  1.
          6    1    1    2  501    0  0.41670901260E+02 -0.13612948574E+02 -0.20749308386E+03  0.27305522560E+03  0.17200000000E+03 0.  1.
         -6    1    1    2    0  502 -0.41670901260E+02  0.13612948574E+02 -0.65411866432E+03  0.67777356351E+03  0.17200000000E+03 0.  1.
<mgrwt>
<rscale>  2 0.17749867E+03</rscale>
<asrwt>0</asrwt>
<pdfrwt beam="1">  1       21 0.11152130E-01 0.17749867E+03</pdfrwt>
<pdfrwt beam="2">  1       21 0.22655507E+00 0.17749867E+03</pdfrwt>
<totfact> 0.62287386E+03</totfact>
</mgrwt>
</event>
<event>
 4    1  0.1132373E+000  0.2123269E+03  0.7546771E-02  0.1139736E+00
         21   -1    0    0  501  502  0.00000000000E+00  0.00000000000E+00  0.60265389163E+03  0.60265389163E+03  0.00000000000E+00 0.  1.
         21   -1    0    0  502  503 -0.00000000000E+00 -0.00000000000E+00 -0.23059848747E+03  0.23059848747E+03  0.00000000000E+00 0. -1.
          6    1    1    2  501    0  0.44313937322E+02 -0.11634002107E+03  0.52847221436E+03  0.56953104121E+03  0.17200000000E+03 0.  1.
         -6    1    1    2    0  503 -0.44313937322E+02  0.11634002107E+03 -0.15641681021E+03  0.26372133789E+03  0.17200000000E+03 0. -1.
<mgrwt>
<rscale>  2 0.21232693E+03</rscale>
<asrwt>0</asrwt>
<pdfrwt beam="1">  1       21 0.15066347E+00 0.21232693E+03</pdfrwt>
<pdfrwt beam="2">  1       21 0.57649623E-01 0.21232693E+03</pdfrwt>
<totfact> 0.81698391E+02</totfact>
</mgrwt>
</event>
<event>
 4    1  0.1132373E+000  0.2717492E+03  0.7546771E-02  0.1100283E+00
         21   -1    0    0  501  502  0.00000000000E+00  0.00000000000E+00  0.49832641404E+03  0.49832641404E+03  0.00000000000E+00 0. -1.
         21   -1    0    0  502  503 -0.00000000000E+00 -0.00000000000E+00 -0.17001073701E+03  0.17001073701E+03  0.00000000000E+00 0.  1.
          6    1    1    2  501    0 -0.69939164881E+02  0.19842411089E+03  0.28387314812E+03  0.39297783499E+03  0.17200000000E+03 0.  1.
         -6    1    1    2    0  503  0.69939164881E+02 -0.19842411089E+03  0.44442528904E+02  0.27535931606E+03  0.17200000000E+03 0.  1.
<mgrwt>
<rscale>  2 0.27174918E+03</rscale>
<asrwt>0</asrwt>
<pdfrwt beam="1">  1       21 0.12458160E+00 0.27174918E+03</pdfrwt>
<pdfrwt beam="2">  1       21 0.42502685E-01 0.27174918E+03</pdfrwt>
<totfact> 0.24097716E+03</totfact>
</mgrwt>
</event>
<event>
 4    1  0.1132373E+000  0.1757483E+03  0.7546771E-02  0.1171982E+00
         21   -1    0    0  501  502  0.00000000000E+00  0.00000000000E+00  0.15485325276E+03  0.15485325276E+03  0.00000000000E+00 0.  1.
         21   -1    0    0  502  503 -0.00000000000E+00 -0.00000000000E+00 -0.33921414225E+03  0.33921414225E+03  0.00000000000E+00 0.  1.
          6    1    1    2  501    0 -0.50680657326E+01  0.35746258885E+02  0.66380800437E+02  0.18786668406E+03  0.17200000000E+03 0.  1.
         -6    1    1    2    0  503  0.50680657326E+01 -0.35746258885E+02 -0.25074168992E+03  0.30620071094E+03  0.17200000000E+03 0.  1.
<mgrwt>
<rscale>  2 0.17574834E+03</rscale>
<asrwt>0</asrwt>
<pdfrwt beam="1">  1       21 0.38713313E-01 0.17574834E+03</pdfrwt>
<pdfrwt beam="2">  1       21 0.84803535E-01 0.17574834E+03</pdfrwt>
<totfact> 0.78480799E+03</totfact>
</mgrwt>
</event>
<event>
 4    1  0.1132373E+000  0.1934133E+03  0.7546771E-02  0.1155418E+00
         21   -1    0    0  503  502  0.00000000000E+00  0.00000000000E+00  0.14660614837E+03  0.14660614837E+03  0.00000000000E+00 0. -1.
         21   -1    0    0  501  503 -0.00000000000E+00 -0.00000000000E+00 -0.33632371441E+03  0.33632371441E+03  0.00000000000E+00 0. -1.
          6    1    1    2  501    0  0.23439930234E+02 -0.85295200499E+02 -0.21347496130E+03  0.28806294566E+03  0.17200000000E+03 0. -1.
         -6    1    1    2    0  502 -0.23439930234E+02  0.85295200499E+02  0.23757395264E+02  0.19486691712E+03  0.17200000000E+03 0. -1.
<mgrwt>
<rscale>  2 0.19341329E+03</rscale>
<asrwt>0</asrwt>
<pdfrwt beam="1">  1       21 0.36651537E-01 0.19341329E+03</pdfrwt>
<pdfrwt beam="2">  1       21 0.84080928E-01 0.19341329E+03</pdfrwt>
<totfact> 0.88148134E+03</totfact>
</mgrwt>
</event>
<event>
 4    1  0.1132373E+000  0.1782213E+03  0.7546771E-02  0.1169536E+00
         21   -1    0    0  503  502  0.00000000000E+00  0.00000000000E+00  0.21401009520E+03  0.21401009520E+03  0.00000000000E+00 0.  1.
         21   -1    0    0  501  503 -0.00000000000E+00 -0.00000000000E+00 -0.17300627034E+03  0.17300627034E+03  0.00000000000E+00 0.  1.
          6    1    1    2  501    0 -0.13453254760E+01 -0.46658393731E+02 -0.52450214936E+02  0.18577901026E+03  0.17200000000E+03 0.  1.
         -6    1    1    2    0  502  0.13453254760E+01  0.46658393731E+02  0.93454039793E+02  0.20123735528E+03  0.17200000000E+03 0.  1.
<mgrwt>
<rscale>  2 0.17822125E+03</rscale>
<asrwt>0</asrwt>
<pdfrwt beam="1">  1       21 0.53502524E-01 0.17822125E+03</pdfrwt>
<pdfrwt beam="2">  1       21 0.43251568E-01 0.17822125E+03</pdfrwt>
<totfact> 0.17144977E+04</totfact>
</mgrwt>
</event>
<event>
 4    1  0.1132373E+000  0.2349136E+03  0.7546771E-02  0.1123228E+00
         21   -1    0    0  501  502  0.00000000000E+00  0.00000000000E+00  0.61759282000E+02  0.61759282000E+02  0.00000000000E+00 0.  1.
         21   -1    0    0  502  503 -0.00000000000E+00 -0.00000000000E+00 -0.89402044407E+03  0.89402044407E+03  0.00000000000E+00 0.  1.
          6    1    1    2  501    0 -0.15228114739E+03 -0.49100423654E+02 -0.42720695993E+03  0.48753480498E+03  0.17200000000E+03 0.  1.
         -6    1    1    2    0  503  0.15228114739E+03  0.49100423654E+02 -0.40505420214E+03  0.46824492109E+03  0.17200000000E+03 0.  1.
<mgrwt>
<rscale>  2 0.23491360E+03</rscale>
<asrwt>0</asrwt>
<pdfrwt beam="1">  1       21 0.15439821E-01 0.23491360E+03</pdfrwt>
<pdfrwt beam="2">  1       21 0.22350511E+00 0.23491360E+03</pdfrwt>
<totfact> 0.34238885E+03</totfact>
</mgrwt>
</event>
<event>
 4    1  0.1132373E+000  0.3807367E+03  0.7546771E-02  0.1050662E+00
         21   -1    0    0  501  502  0.00000000000E+00  0.00000000000E+00  0.24915608598E+03  0.24915608598E+03  0.00000000000E+00 0.  1.
         21   -1    0    0  502  503 -0.00000000000E+00 -0.00000000000E+00 -0.58276610416E+03  0.58276610416E+03  0.00000000000E+00 0. -1.
          6    1    1    2  501    0  0.20640676554E+03 -0.26976416300E+03 -0.14991968271E+03  0.40918989206E+03  0.17200000000E+03 0. -1.
         -6    1    1    2    0  503 -0.20640676554E+03  0.26976416300E+03 -0.18369033546E+03  0.42273229808E+03  0.17200000000E+03 0. -1.
<mgrwt>
<rscale>  2 0.38073673E+03</rscale>
<asrwt>0</asrwt>
<pdfrwt beam="1">  1       21 0.62289022E-01 0.38073673E+03</pdfrwt>
<pdfrwt beam="2">  1       21 0.14569152E+00 0.38073673E+03</pdfrwt>
<totfact> 0.66862613E+02</totfact>
</mgrwt>
</event>
<event>
 4    1  0.1132373E+000  0.2650520E+03  0.7546771E-02  0.1104145E+00
         21   -1    0    0  501  502  0.00000000000E+00  0.00000000000E+00  0.64353514375E+03  0.64353514375E+03  0.00000000000E+00 0. -1.
         21   -1    0    0  502  503 -0.00000000000E+00 -0.00000000000E+00 -0.11111897882E+03  0.11111897882E+03  0.00000000000E+00 0. -1.
          6    1    1    2  501    0 -0.13205707999E+02 -0.20123159614E+03  0.21619248463E+03  0.34204054792E+03  0.17200000000E+03 0. -1.
         -6    1    1    2    0  503  0.13205707999E+02  0.20123159614E+03  0.31622368030E+03  0.41261357466E+03  0.17200000000E+03 0. -1.
<mgrwt>
<rscale>  2 0.26505197E+03</rscale>
<asrwt>0</asrwt>
<pdfrwt beam="1">  1       21 0.16088378E+00 0.26505197E+03</pdfrwt>
<pdfrwt beam="2">  1       21 0.27779747E-01 0.26505197E+03</pdfrwt>
<totfact> 0.28946206E+03</totfact>
</mgrwt>
</event>
<event>
 4    1  0.1132373E+000  0.2375839E+03  0.7546771E-02  0.1121413E+00
         21   -1    0    0  503  502  0.00000000000E+00  0.00000000000E+00  0.18643813581E+03  0.18643813581E+03  0.00000000000E+00 0. -1.
         21   -1    0    0  501  503 -0.00000000000E+00 -0.00000000000E+00 -0.30741644434E+03  0.30741644434E+03  0.00000000000E+00 0.  1.
          6    1    1    2  501    0 -0.53587631447E+01  0.16380906045E+03 -0.30101017184E+02  0.23948318493E+03  0.17200000000E+03 0. -1.
         -6    1    1    2    0  502  0.53587631447E+01 -0.16380906045E+03 -0.90877291345E+02  0.25437139523E+03  0.17200000000E+03 0. -1.
<mgrwt>
<rscale>  2 0.23758393E+03</rscale>
<asrwt>0</asrwt>
<pdfrwt beam="1">  1       21 0.46609534E-01 0.23758393E+03</pdfrwt>
<pdfrwt beam="2">  1       21 0.76854110E-01 0.23758393E+03</pdfrwt>
<totfact> 0.64314090E+03</totfact>
</mgrwt>
</event>
<event>
 4    1  0.1132373E+000  0.2061169E+03  0.7546771E-02  0.1144678E+00
         21   -1    0    0  501  502  0.00000000000E+00  0.00000000000E+00  0.28950328590E+03  0.28950328590E+03  0.00000000000E+00 0. -1.
         21   -1    0    0  502  503 -0.00000000000E+00 -0.00000000000E+00 -0.28742876292E+03  0.28742876292E+03  0.00000000000E+00 0. -1.
          6    1    1    2  501    0  0.71250459153E+02  0.88450828469E+02  0.20284885913E+03  0.28919169531E+03  0.17200000000E+03 0. -1.
         -6    1    1    2    0  503 -0.71250459153E+02 -0.88450828469E+02 -0.20077433615E+03  0.28774035352E+03  0.17200000000E+03 0. -1.
<mgrwt>
<rscale>  2 0.20611690E+03</rscale>
<asrwt>0</asrwt>
<pdfrwt beam="1">  1       21 0.72375822E-01 0.20611690E+03</pdfrwt>
<pdfrwt beam="2">  1       21 0.71857191E-01 0.20611690E+03</pdfrwt>
<totfact> 0.29757733E+03</totfact>
</mgrwt>
</event>
<event>
 4    1  0.1132373E+000  0.2051629E+03  0.7546771E-02  0.1145455E+00
         21   -1    0    0  503  502  0.00000000000E+00  0.00000000000E+00  0.15075157755E+03  0.15075157755E+03  0.00000000000E+00 0. -1.
         21   -1    0    0  501  503 -0.00000000000E+00 -0.00000000000E+00 -0.58637084012E+03  0.58637084012E+03  0.00000000000E+00 0.  1.
          6    1    1    2  501    0  0.59670191860E+02 -0.94590006230E+02 -0.48455951558E+03  0.52620312163E+03  0.17200000000E+03 0.  1.
         -6    1    1    2    0  502 -0.59670191860E+02  0.94590006230E+02  0.48940253008E+02  0.21091929603E+03  0.17200000000E+03 0. -1.
<mgrwt>
<rscale>  2 0.20516286E+03</rscale>
<asrwt>0</asrwt>
<pdfrwt beam="1">  1       21 0.37687895E-01 0.20516286E+03</pdfrwt>
<pdfrwt beam="2">  1       21 0.14659271E+00 0.20516286E+03</pdfrwt>
<totfact> 0.21306059E+03</totfact>
</mgrwt>
</event>
<event>
 4    1  0.1132373E+000  0.1767001E+03  0.7546771E-02  0.1171035E+00
         21   -1    0    0  501  502  0.00000000000E+00  0.00000000000E+00  0.33580405568E+03  0.33580405568E+03  0.00000000000E+00 0. -1.
         21   -1    0    0  502  503 -0.00000000000E+00 -0.00000000000E+00 -0.51708080350E+03  0.51708080350E+03  0.00000000000E+00 0. -1.
          6    1    1    2  501    0 -0.39040227860E+02  0.10713582946E+02  0.29556491143E+03  0.34435670042E+03  0.17200000000E+03 0. -1.
         -6    1    1    2    0  503  0.39040227860E+02 -0.10713582946E+02 -0.47684165925E+03  0.50852815876E+03  0.17200000000E+03 0. -1.
<mgrwt>
<rscale>  2 0.17670009E+03</rscale>
<asrwt>0</asrwt>
<pdfrwt beam="1">  1       21 0.83951015E-01 0.17670009E+03</pdfrwt>
<pdfrwt beam="2">  1       21 0.12927020E+00 0.17670009E+03</pdfrwt>
<totfact> 0.55052186E+02</totfact>
</mgrwt>
</event>
<event>
 4    1  0.1132373E+000  0.2399286E+03  0.7546771E-02  0.1119840E+00
         21   -1    0    0  503  502  0.00000000000E+00  0.00000000000E+00  0.26113141902E+03  0.26113141902E+03  0.00000000000E+00 0.  1.
         21   -1    0    0  501  503 -0.00000000000E+00 -0.00000000000E+00 -0.33152164668E+03  0.33152164668E+03  0.00000000000E+00 0. -1.
          6    1    1    2  501    0  0.95341750225E+02 -0.13744696617E+03 -0.20671775919E+03  0.31669851564E+03  0.17200000000E+03 0. -1.
         -6    1    1    2    0  502 -0.95341750225E+02  0.13744696617E+03  0.13632753153E+03  0.27595455006E+03  0.17200000000E+03 0.  1.
<mgrwt>
<rscale>  2 0.23992857E+03</rscale>
<asrwt>0</asrwt>
<pdfrwt beam="1">  1       21 0.65282855E-01 0.23992857E+03</pdfrwt>
<pdfrwt beam="2">  1       21 0.82880411E-01 0.23992857E+03</pdfrwt>
<totfact> 0.26391347E+03</totfact>
</mgrwt>
</event>
<event>
 4    1  0.1132373E+000  0.1746552E+03  0.7546771E-02  0.1173078E+00
         21   -1    0    0  501  502  0.00000000000E+00  0.00000000000E+00  0.14989121016E+03  0.14989121016E+03  0.00000000000E+00 0. -1.
         21   -1    0    0  502  503 -0.00000000000E+00 -0.00000000000E+00 -0.20397059406E+03  0.20397059406E+03  0.00000000000E+00 0. -1.
          6    1    1    2  501    0  0.19160563036E+02  0.23522789825E+02 -0.35442029221E+02  0.17821500008E+03  0.17200000000E+03 0. -1.
         -6    1    1    2    0  503 -0.19160563036E+02 -0.23522789825E+02 -0.18637354676E+02  0.17564680414E+03  0.17200000000E+03 0. -1.
<mgrwt>
<rscale>  2 0.17465523E+03</rscale>
<asrwt>0</asrwt>
<pdfrwt beam="1">  1       21 0.37472803E-01 0.17465523E+03</pdfrwt>
<pdfrwt beam="2">  1       21 0.50992648E-01 0.17465523E+03</pdfrwt>
<totfact> 0.25377315E+04</totfact>
</mgrwt>
</event>
<event>
 4    1  0.1132373E+000  0.1789026E+03  0.7546771E-02  0.1168869E+00
         21   -1    0    0  503  502  0.00000000000E+00  0.00000000000E+00  0.19953528217E+03  0.19953528217E+03  0.00000000000E+00 0.  1.
         21   -1    0    0  501  503 -0.00000000000E+00 -0.00000000000E+00 -0.21968726184E+03  0.21968726184E+03  0.00000000000E+00 0.  1.
          6    1    1    2  501    0 -0.33135007234E+02 -0.36389552609E+02 -0.11896413801E+03  0.21484551282E+03  0.17200000000E+03 0.  1.
         -6    1    1    2    0  502  0.33135007234E+02  0.36389552609E+02  0.98812158340E+02  0.20437703119E+03  0.17200000000E+03 0.  1.
<mgrwt>
<rscale>  2 0.17890257E+03</rscale>
<asrwt>0</asrwt>
<pdfrwt beam="1">  1       21 0.49883821E-01 0.17890257E+03</pdfrwt>
<pdfrwt beam="2">  1       21 0.54921815E-01 0.17890257E+03</pdfrwt>
<totfact> 0.12089738E+04</totfact>
</mgrwt>
</event>
<event>
 4    1  0.1132373E+000  0.2085404E+03  0.7546771E-02  0.1142727E+00
         21   -1    0    0  503  502  0.00000000000E+00  0.00000000000E+00  0.56984389522E+02  0.56984389522E+02  0.00000000000E+00 0. -1.
         21   -1    0    0  501  503 -0.00000000000E+00 -0.00000000000E+00 -0.10084858080E+04  0.10084858080E+04  0.00000000000E+00 0. -1.
          6    1    1    2  501    0 -0.10935774487E+03  0.44113338896E+02 -0.73849549815E+03  0.76737520407E+03  0.17200000000E+03 0. -1.
         -6    1    1    2    0  502  0.10935774487E+03 -0.44113338896E+02 -0.21300592035E+03  0.29809499347E+03  0.17200000000E+03 0. -1.
<mgrwt>
<rscale>  2 0.20854041E+03</rscale>
<asrwt>0</asrwt>
<pdfrwt beam="1">  1       21 0.14246098E-01 0.20854041E+03</pdfrwt>
<pdfrwt beam="2">  1       21 0.25212144E+00 0.20854041E+03</pdfrwt>
<totfact> 0.27360902E+03</totfact>
</mgrwt>
</event>
<event>
 4    1  0.1132373E+000  0.1790533E+03  0.7546771E-02  0.1168722E+00
         21   -1    0    0  501  502  0.00000000000E+00  0.00000000000E+00  0.96167714620E+02  0.96167714620E+02  0.00000000000E+00 0. -1.
         21   -1    0    0  502  503 -0.00000000000E+00 -0.00000000000E+00 -0.80222669488E+03  0.80222669488E+03  0.00000000000E+00 0. -1.
          6    1    1    2  501    0  0.48089483175E+02  0.12785907936E+02 -0.96254216379E+01  0.17931181382E+03  0.17200000000E+03 0. -1.
         -6    1    1    2    0  503 -0.48089483175E+02 -0.12785907936E+02 -0.69643355862E+03  0.71908259568E+03  0.17200000000E+03 0. -1.
<mgrwt>
<rscale>  2 0.17905328E+03</rscale>
<asrwt>0</asrwt>
<pdfrwt beam="1">  1       21 0.24041929E-01 0.17905328E+03</pdfrwt>
<pdfrwt beam="2">  1       21 0.20055667E+00 0.17905328E+03</pdfrwt>
<totfact> 0.22045956E+03</totfact>
</mgrwt>
</event>
<event>
 4    1  0.1132373E+000  0.2008201E+03  0.7546771E-02  0.1149049E+00
         21   -1    0    0  503  502  0.00000000000E+00  0.00000000000E+00  0.45673442943E+03  0.45673442943E+03  0.00000000000E+00 0. -1.
         21   -1    0    0  501  503 -0.00000000000E+00 -0.00000000000E+00 -0.97373213699E+02  0.97373213699E+02  0.00000000000E+00 0.  1.
          6    1    1    2  501    0  0.87993334023E+02  0.54789337631E+02  0.95099215568E+02  0.22219936803E+03  0.17200000000E+03 0.  1.
         -6    1    1    2    0  502 -0.87993334023E+02 -0.54789337631E+02  0.26426200017E+03  0.33190827510E+03  0.17200000000E+03 0. -1.
<mgrwt>
<rscale>  2 0.20082006E+03</rscale>
<asrwt>0</asrwt>
<pdfrwt beam="1">  1       21 0.11418360E+00 0.20082006E+03</pdfrwt>
<pdfrwt beam="2">  1       21 0.24343305E-01 0.20082006E+03</pdfrwt>
<totfact> 0.94497299E+03</totfact>
</mgrwt>
</event>
<event>
 4    1  0.1132373E+000  0.1855895E+03  0.7546771E-02  0.1162501E+00
         21   -1    0    0  501  502  0.00000000000E+00  0.00000000000E+00  0.68494859722E+02  0.68494859722E+02  0.00000000000E+00 0. -1.
         21   -1    0    0  502  503 -0.00000000000E+00 -0.00000000000E+00 -0.50322037719E+03  0.50322037719E+03  0.00000000000E+00 0. -1.
          6    1    1    2  501    0 -0.50570709309E+02 -0.47979798267E+02 -0.22499198259E+03  0.29165879022E+03  0.17200000000E+03 0. -1.
         -6    1    1    2    0  503  0.50570709309E+02  0.47979798267E+02 -0.20973353488E+03  0.28005644669E+03  0.17200000000E+03 0. -1.
<mgrwt>
<rscale>  2 0.18558949E+03</rscale>
<asrwt>0</asrwt>
<pdfrwt beam="1">  1       21 0.17123715E-01 0.18558949E+03</pdfrwt>
<pdfrwt beam="2">  1       21 0.12580509E+00 0.18558949E+03</pdfrwt>
<totfact> 0.14519892E+04</totfact>
</mgrwt>
</event>
<event>
 4    1  0.1132373E+000  0.1794565E+03  0.7546771E-02  0.1168330E+00
         21   -1    0    0  501  502  0.00000000000E+00  0.00000000000E+00  0.42193407629E+03  0.42193407629E+03  0.00000000000E+00 0.  1.
         21   -1    0    0  502  503 -0.00000000000E+00 -0.00000000000E+00 -0.76412489260E+02  0.76412489260E+02  0.00000000000E+00 0.  1.
          6    1    1    2  501    0  0.23990075175E+02 -0.45223022990E+02  0.16438986848E+03  0.24336941956E+03  0.17200000000E+03 0.  1.
         -6    1    1    2    0  503 -0.23990075175E+02  0.45223022990E+02  0.18113171854E+03  0.25497714599E+03  0.17200000000E+03 0.  1.
<mgrwt>
<rscale>  2 0.17945653E+03</rscale>
<asrwt>0</asrwt>
<pdfrwt beam="1">  1       21 0.10548351E+00 0.17945653E+03</pdfrwt>
<pdfrwt beam="2">  1       21 0.19103124E-01 0.17945653E+03</pdfrwt>
<totfact> 0.18322087E+04</totfact>
</mgrwt>
</event>
<event>
 4    1  0.1132373E+000  0.1738473E+03  0.7546771E-02  0.1173894E+00
         21   -1    0    0  501  502  0.00000000000E+00  0.00000000000E+00  0.94689297503E+03  0.94689297503E+03  0.00000000000E+00 0.  1.
         21   -1    0    0  502  503 -0.00000000000E+00 -0.00000000000E+00 -0.46134818955E+02  0.46134818955E+02  0.00000000000E+00 0.  1.
          6    1    1    2  501    0 -0.13830440402E+02  0.21156886882E+02  0.17475396829E+03  0.24649917723E+03  0.17200000000E+03 0.  1.
         -6    1    1    2    0  503  0.13830440402E+02 -0.21156886882E+02  0.72600418779E+03  0.74652861675E+03  0.17200000000E+03 0.  1.
<mgrwt>
<rscale>  2 0.17384733E+03</rscale>
<asrwt>0</asrwt>
<pdfrwt beam="1">  1       21 0.23672318E+00 0.17384733E+03</pdfrwt>
<pdfrwt beam="2">  1       21 0.11533708E-01 0.17384733E+03</pdfrwt>
<totfact> 0.51193139E+03</totfact>
</mgrwt>
</event>
<event>
 4    1  0.1132373E+000  0.2245196E+03  0.7546771E-02  0.1130558E+00
         21   -1    0    0  501  502  0.00000000000E+00  0.00000000000E+00  0.26579052809E+03  0.26579052809E+03  0.00000000000E+00 0. -1.
         21   -1    0    0  502  503 -0.00000000000E+00 -0.00000000000E+00 -0.19156485857E+03  0.19156485857E+03  0.00000000000E+00 0. -1.
          6    1    1    2  501    0  0.12508413550E+03  0.71965432110E+02  0.59933381394E+02  0.23238131289E+03  0.17200000000E+03 0. -1.
         -6    1    1    2    0  503 -0.12508413550E+03 -0.71965432110E+02  0.14292288124E+02  0.22497407378E+03  0.17200000000E+03 0. -1.
<mgrwt>
<rscale>  2 0.22451963E+03</rscale>
<asrwt>0</asrwt>
<pdfrwt beam="1">  1       21 0.66447632E-01 0.22451963E+03</pdfrwt>
<pdfrwt beam="2">  1       21 0.47891215E-01 0.22451963E+03</pdfrwt>
<totfact> 0.84711715E+03</totfact>
</mgrwt>
</event>
<event>
 4    1  0.1132373E+000  0.1728427E+03  0.7546771E-02  0.1174915E+00
         21   -1    0    0  503  502  0.00000000000E+00  0.00000000000E+00  0.30194994718E+03  0.30194994718E+03  0.00000000000E+00 0. -1.
         21   -1    0    0  501  503 -0.00000000000E+00 -0.00000000000E+00 -0.98332891685E+03  0.98332891685E+03  0.00000000000E+00 0. -1.
          6    1    1    2  501    0  0.79129324792E+01 -0.15099428482E+02 -0.95014199636E+03  0.96573517099E+03  0.17200000000E+03 0. -1.
         -6    1    1    2    0  502 -0.79129324792E+01  0.15099428482E+02  0.26876302669E+03  0.31954369303E+03  0.17200000000E+03 0. -1.
<mgrwt>
<rscale>  2 0.17284272E+03</rscale>
<asrwt>0</asrwt>
<pdfrwt beam="1">  1       21 0.75487487E-01 0.17284272E+03</pdfrwt>
<pdfrwt beam="2">  1       21 0.24583223E+00 0.17284272E+03</pdfrwt>
<totfact> 0.11381643E+02</totfact>
</mgrwt>
</event>
<event>
 4    1  0.1132373E+000  0.2235137E+03  0.7546771E-02  0.1131290E+00
         21   -1    0    0  501  502  0.00000000000E+00  0.00000000000E+00  0.13722093225E+03  0.13722093225E+03  0.00000000000E+00 0. -1.
         21   -1    0    0  502  503 -0.00000000000E+00 -0.00000000000E+00 -0.38790623928E+03  0.38790623928E+03  0.00000000000E+00 0. -1.
          6    1    1    2  501    0 -0.14232340930E+03 -0.10881913264E+02 -0.19042558958E+03  0.29363288992E+03  0.17200000000E+03 0. -1.
         -6    1    1    2    0  503  0.14232340930E+03  0.10881913264E+02 -0.60259717446E+02  0.23149428161E+03  0.17200000000E+03 0. -1.
<mgrwt>
<rscale>  2 0.22351369E+03</rscale>
<asrwt>0</asrwt>
<pdfrwt beam="1">  1       21 0.34305233E-01 0.22351369E+03</pdfrwt>
<pdfrwt beam="2">  1       21 0.96976559E-01 0.22351369E+03</pdfrwt>
<totfact> 0.70696701E+03</totfact>
</mgrwt>
</event>
<event>
 4    1  0.1132373E+000  0.3460344E+03  0.7546771E-02  0.1064255E+00
         21   -1    0    0  501  502  0.00000000000E+00  0.00000000000E+00  0.28556338074E+03  0.28556338074E+03  0.00000000000E+00 0. -1.
         21   -1    0    0  502  503 -0.00000000000E+00 -0.00000000000E+00 -0.43555897131E+03  0.43555897131E+03  0.00000000000E+00 0.  1.
          6    1    1    2  501    0  0.29825951420E+03 -0.34599080908E+02 -0.14463744437E+03  0.37504642983E+03  0.17200000000E+03 0.  1.
         -6    1    1    2    0  503 -0.29825951420E+03  0.34599080908E+02 -0.53581462069E+01  0.34607592222E+03  0.17200000000E+03 0.  1.
<mgrwt>
<rscale>  2 0.34603444E+03</rscale>
<asrwt>0</asrwt>
<pdfrwt beam="1">  1       21 0.71390845E-01 0.34603444E+03</pdfrwt>
<pdfrwt beam="2">  1       21 0.10888974E+00 0.34603444E+03</pdfrwt>
<totfact> 0.10601329E+03</totfact>
</mgrwt>
</event>
<event>
 4    1  0.1132373E+000  0.1838815E+03  0.7546771E-02  0.1164099E+00
         21   -1    0    0  501  502  0.00000000000E+00  0.00000000000E+00  0.44896016261E+03  0.44896016261E+03  0.00000000000E+00 0. -1.
         21   -1    0    0  502  503 -0.00000000000E+00 -0.00000000000E+00 -0.23230997646E+03  0.23230997646E+03  0.00000000000E+00 0. -1.
          6    1    1    2  501    0 -0.25683455083E+02 -0.59739151084E+02  0.38835310334E+03  0.42968655891E+03  0.17200000000E+03 0. -1.
         -6    1    1    2    0  503  0.25683455083E+02  0.59739151084E+02 -0.17170291719E+03  0.25158358017E+03  0.17200000000E+03 0. -1.
<mgrwt>
<rscale>  2 0.18388150E+03</rscale>
<asrwt>0</asrwt>
<pdfrwt beam="1">  1       21 0.11224004E+00 0.18388150E+03</pdfrwt>
<pdfrwt beam="2">  1       21 0.58077495E-01 0.18388150E+03</pdfrwt>
<totfact> 0.17425539E+03</totfact>
</mgrwt>
</event>
<event>
 4    1  0.1132373E+000  0.2547917E+03  0.7546771E-02  0.1110313E+00
         21   -1    0    0  501  502  0.00000000000E+00  0.00000000000E+00  0.70505825697E+03  0.70505825697E+03  0.00000000000E+00 0.  1.
         21   -1    0    0  502  503 -0.00000000000E+00 -0.00000000000E+00 -0.95249881709E+02  0.95249881709E+02  0.00000000000E+00 0.  1.
          6    1    1    2  501    0 -0.17739747243E+02 -0.18713660844E+03  0.37795137597E+03  0.45581361481E+03  0.17200000000E+03 0.  1.
         -6    1    1    2    0  503  0.17739747243E+02  0.18713660844E+03  0.23185699929E+03  0.34449452386E+03  0.17200000000E+03 0.  1.
<mgrwt>
<rscale>  2 0.25479170E+03</rscale>
<asrwt>0</asrwt>
<pdfrwt beam="1">  1       21 0.17626455E+00 0.25479170E+03</pdfrwt>
<pdfrwt beam="2">  1       21 0.23812472E-01 0.25479170E+03</pdfrwt>
<totfact> 0.30450151E+03</totfact>
</mgrwt>
</event>
<event>
 4    1  0.1132373E+000  0.2497083E+03  0.7546771E-02  0.1113489E+00
         21   -1    0    0  503  502  0.00000000000E+00  0.00000000000E+00  0.17274251528E+03  0.17274251528E+03  0.00000000000E+00 0. -1.
         21   -1    0    0  501  503 -0.00000000000E+00 -0.00000000000E+00 -0.37390101670E+03  0.37390101670E+03  0.00000000000E+00 0.  1.
          6    1    1    2  501    0  0.16256608417E+03  0.79639825166E+02 -0.15141552179E+03  0.29202892616E+03  0.17200000000E+03 0. -1.
         -6    1    1    2    0  502 -0.16256608417E+03 -0.79639825166E+02 -0.49742979639E+02  0.25461460582E+03  0.17200000000E+03 0. -1.
<mgrwt>
<rscale>  2 0.24970830E+03</rscale>
<asrwt>0</asrwt>
<pdfrwt beam="1">  1       21 0.43185629E-01 0.24970830E+03</pdfrwt>
<pdfrwt beam="2">  1       21 0.93475254E-01 0.24970830E+03</pdfrwt>
<totfact> 0.47611899E+03</totfact>
</mgrwt>
</event>
<event>
 4    1  0.1132373E+000  0.2392954E+03  0.7546771E-02  0.1120263E+00
         21   -1    0    0  503  502  0.00000000000E+00  0.00000000000E+00  0.69799576523E+02  0.69799576523E+02  0.00000000000E+00 0. -1.
         21   -1    0    0  501  503 -0.00000000000E+00 -0.00000000000E+00 -0.10052970644E+04  0.10052970644E+04  0.00000000000E+00 0.  1.
          6    1    1    2  501    0  0.51471919118E+02 -0.15820535939E+03 -0.69829433365E+03  0.73815802550E+03  0.17200000000E+03 0.  1.
         -6    1    1    2    0  502 -0.51471919118E+02  0.15820535939E+03 -0.23720315426E+03  0.33693861546E+03  0.17200000000E+03 0. -1.
<mgrwt>
<rscale>  2 0.23929541E+03</rscale>
<asrwt>0</asrwt>
<pdfrwt beam="1">  1       21 0.17449894E-01 0.23929541E+03</pdfrwt>
<pdfrwt beam="2">  1       21 0.25132426E+00 0.23929541E+03</pdfrwt>
<totfact> 0.18485277E+03</totfact>
</mgrwt>
</event>
<event>
 4    1  0.1132373E+000  0.1781635E+03  0.7546771E-02  0.1169592E+00
         21   -1    0    0  501  502  0.00000000000E+00  0.00000000000E+00  0.13778352248E+03  0.13778352248E+03  0.00000000000E+00 0. -1.
         21   -1    0    0  502  503 -0.00000000000E+00 -0.00000000000E+00 -0.24254618165E+03  0.24254618165E+03  0.00000000000E+00 0. -1.
          6    1    1    2  501    0 -0.37012844726E+02 -0.28076315364E+02 -0.94975868829E+02  0.20189761222E+03  0.17200000000E+03 0. -1.
         -6    1    1    2    0  503  0.37012844726E+02  0.28076315364E+02 -0.97867903328E+01  0.17843209191E+03  0.17200000000E+03 0. -1.
<mgrwt>
<rscale>  2 0.17816349E+03</rscale>
<asrwt>0</asrwt>
<pdfrwt beam="1">  1       21 0.34445881E-01 0.17816349E+03</pdfrwt>
<pdfrwt beam="2">  1       21 0.60636545E-01 0.17816349E+03</pdfrwt>
<totfact> 0.20753017E+04</totfact>
</mgrwt>
</event>
<event>
 4    1  0.1132373E+000  0.1833944E+03  0.7546771E-02  0.1164558E+00
         21   -1    0    0  503  502  0.00000000000E+00  0.00000000000E+00  0.59844855964E+02  0.59844855964E+02  0.00000000000E+00 0.  1.
         21   -1    0    0  501  503 -0.00000000000E+00 -0.00000000000E+00 -0.56958215632E+03  0.56958215632E+03  0.00000000000E+00 0.  1.
          6    1    1    2  501    0 -0.43420036172E+01 -0.63487555307E+02 -0.21858660315E+03  0.28533073047E+03  0.17200000000E+03 0.  1.
         -6    1    1    2    0  502  0.43420036172E+01  0.63487555307E+02 -0.29115069721E+03  0.34409628182E+03  0.17200000000E+03 0.  1.
<mgrwt>
<rscale>  2 0.18339445E+03</rscale>
<asrwt>0</asrwt>
<pdfrwt beam="1">  1       21 0.14961214E-01 0.18339445E+03</pdfrwt>
<pdfrwt beam="2">  1       21 0.14239554E+00 0.18339445E+03</pdfrwt>
<totfact> 0.13586273E+04</totfact>
</mgrwt>
</event>
<event>
 4    1  0.1132373E+000  0.2434105E+03  0.7546771E-02  0.1117541E+00
         21   -1    0    0  503  502  0.00000000000E+00  0.00000000000E+00  0.98299706247E+02  0.98299706247E+02  0.00000000000E+00 0.  1.
         21   -1    0    0  501  503 -0.00000000000E+00 -0.00000000000E+00 -0.87410617690E+03  0.87410617690E+03  0.00000000000E+00 0.  1.
          6    1    1    2  501    0  0.17220291806E+03  0.32936919660E+01 -0.65880833723E+03  0.70233689822E+03  0.17200000000E+03 0.  1.
         -6    1    1    2    0  502 -0.17220291806E+03 -0.32936919660E+01 -0.11699813342E+03  0.27006898493E+03  0.17200000000E+03 0.  1.
<mgrwt>
<rscale>  2 0.24341054E+03</rscale>
<asrwt>0</asrwt>
<pdfrwt beam="1">  1       21 0.24574927E-01 0.24341054E+03</pdfrwt>
<pdfrwt beam="2">  1       21 0.21852654E+00 0.24341054E+03</pdfrwt>
<totfact> 0.15278409E+03</totfact>
</mgrwt>
</event>
<event>
 4    1  0.1132373E+000  0.2051197E+03  0.7546771E-02  0.1145490E+00
         21   -1    0    0  501  502  0.00000000000E+00  0.00000000000E+00  0.30997988497E+03  0.30997988497E+03  0.00000000000E+00 0. -1.
         21   -1    0    0  502  503 -0.00000000000E+00 -0.00000000000E+00 -0.14303933319E+03  0.14303933319E+03  0.00000000000E+00 0. -1.
          6    1    1    2  501    0 -0.69853706454E+02  0.87238492028E+02  0.13466762201E+03  0.24537616676E+03  0.17200000000E+03 0. -1.
         -6    1    1    2    0  503  0.69853706454E+02 -0.87238492028E+02  0.32272929775E+02  0.20764305140E+03  0.17200000000E+03 0. -1.
<mgrwt>
<rscale>  2 0.20511971E+03</rscale>
<asrwt>0</asrwt>
<pdfrwt beam="1">  1       21 0.77494970E-01 0.20511971E+03</pdfrwt>
<pdfrwt beam="2">  1       21 0.35759834E-01 0.20511971E+03</pdfrwt>
<totfact> 0.11047804E+04</totfact>
</mgrwt>
</event>
<event>
 4    1  0.1132373E+000  0.2022225E+03  0.7546771E-02  0.1147877E+00
         21   -1    0    0  503  502  0.00000000000E+00  0.00000000000E+00  0.17323440235E+03  0.17323440235E+03  0.00000000000E+00 0.  1.
         21   -1    0    0  501  503 -0.00000000000E+00 -0.00000000000E+00 -0.40743343668E+03  0.40743343668E+03  0.00000000000E+00 0.  1.
          6    1    1    2  501    0  0.10614130229E+03 -0.66295742859E+01 -0.30539488192E+03  0.36627852955E+03  0.17200000000E+03 0.  1.
         -6    1    1    2    0  502 -0.10614130229E+03  0.66295742859E+01  0.71195847582E+02  0.21438930948E+03  0.17200000000E+03 0.  1.
<mgrwt>
<rscale>  2 0.20222247E+03</rscale>
<asrwt>0</asrwt>
<pdfrwt beam="1">  1       21 0.43308601E-01 0.20222247E+03</pdfrwt>
<pdfrwt beam="2">  1       21 0.10185836E+00 0.20222247E+03</pdfrwt>
<totfact> 0.39957541E+03</totfact>
</mgrwt>
</event>
<event>
 4    1  0.1132373E+000  0.1723493E+03  0.7546771E-02  0.1175420E+00
         21   -1    0    0  501  502  0.00000000000E+00  0.00000000000E+00  0.59384379938E+03  0.59384379938E+03  0.00000000000E+00 0. -1.
         21   -1    0    0  502  503 -0.00000000000E+00 -0.00000000000E+00 -0.69320287780E+02  0.69320287780E+02  0.00000000000E+00 0. -1.
          6    1    1    2  501    0  0.24512976947E+01 -0.10690577503E+02  0.43722158709E+03  0.46996490670E+03  0.17200000000E+03 0. -1.
         -6    1    1    2    0  503 -0.24512976947E+01  0.10690577503E+02  0.87301924505E+02  0.19319918046E+03  0.17200000000E+03 0. -1.
<mgrwt>
<rscale>  2 0.17234935E+03</rscale>
<asrwt>0</asrwt>
<pdfrwt beam="1">  1       21 0.14846093E+00 0.17234935E+03</pdfrwt>
<pdfrwt beam="2">  1       21 0.17330074E-01 0.17234935E+03</pdfrwt>
<totfact> 0.93968595E+03</totfact>
</mgrwt>
</event>
<event>
 4    1  0.1132373E+000  0.2447098E+03  0.7546771E-02  0.1116694E+00
         21   -1    0    0  501  502  0.00000000000E+00  0.00000000000E+00  0.16237020141E+03  0.16237020141E+03  0.00000000000E+00 0. -1.
         21   -1    0    0  502  503 -0.00000000000E+00 -0.00000000000E+00 -0.36888601287E+03  0.36888601287E+03  0.00000000000E+00 0.  1.
          6    1    1    2  501    0 -0.17393754150E+03 -0.66796920695E+01 -0.99313157901E+02  0.26409466098E+03  0.17200000000E+03 0. -1.
         -6    1    1    2    0  503  0.17393754150E+03  0.66796920695E+01 -0.10720265356E+03  0.26716155329E+03  0.17200000000E+03 0.  1.
<mgrwt>
<rscale>  2 0.24470980E+03</rscale>
<asrwt>0</asrwt>
<pdfrwt beam="1">  1       21 0.40592551E-01 0.24470980E+03</pdfrwt>
<pdfrwt beam="2">  1       21 0.92221503E-01 0.24470980E+03</pdfrwt>
<totfact> 0.55956028E+03</totfact>
</mgrwt>
</event>
<event>
 4    1  0.1132373E+000  0.1876558E+03  0.7546771E-02  0.1160593E+00
         21   -1    0    0  501  502  0.00000000000E+00  0.00000000000E+00  0.15135998502E+03  0.15135998502E+03  0.00000000000E+00 0. -1.
         21   -1    0    0  502  503 -0.00000000000E+00 -0.00000000000E+00 -0.29745391565E+03  0.29745391565E+03  0.00000000000E+00 0. -1.
          6    1    1    2  501    0 -0.32879932447E+02  0.67450821237E+02 -0.17778617943E+03  0.25850073277E+03  0.17200000000E+03 0. -1.
         -6    1    1    2    0  503  0.32879932447E+02 -0.67450821237E+02  0.31692248807E+02  0.19031316790E+03  0.17200000000E+03 0. -1.
<mgrwt>
<rscale>  2 0.18765581E+03</rscale>
<asrwt>0</asrwt>
<pdfrwt beam="1">  1       21 0.37839997E-01 0.18765581E+03</pdfrwt>
<pdfrwt beam="2">  1       21 0.74363478E-01 0.18765581E+03</pdfrwt>
<totfact> 0.10951322E+04</totfact>
</mgrwt>
</event>
<event>
 4    1  0.1132373E+000  0.1790571E+03  0.7546771E-02  0.1168719E+00
         21   -1    0    0  501  502  0.00000000000E+00  0.00000000000E+00  0.57952417380E+02  0.57952417380E+02  0.00000000000E+00 0. -1.
         21   -1    0    0  502  503 -0.00000000000E+00 -0.00000000000E+00 -0.56341010433E+03  0.56341010433E+03  0.00000000000E+00 0.  1.
          6    1    1    2  501    0  0.33596981636E+02 -0.36724430284E+02 -0.29447556159E+03  0.34464082365E+03  0.17200000000E+03 0. -1.
         -6    1    1    2    0  503 -0.33596981636E+02  0.36724430284E+02 -0.21098212536E+03  0.27672169806E+03  0.17200000000E+03 0. -1.
<mgrwt>
<rscale>  2 0.17905709E+03</rscale>
<asrwt>0</asrwt>
<pdfrwt beam="1">  1       21 0.14488104E-01 0.17905709E+03</pdfrwt>
<pdfrwt beam="2">  1       21 0.14085253E+00 0.17905709E+03</pdfrwt>
<totfact> 0.14860546E+04</totfact>
</mgrwt>
</event>
<event>
 4    1  0.1132373E+000  0.2456561E+03  0.7546771E-02  0.1116081E+00
         21   -1    0    0  503  502  0.00000000000E+00  0.00000000000E+00  0.27461935562E+03  0.27461935562E+03  0.00000000000E+00 0.  1.
         21   -1    0    0  501  503 -0.00000000000E+00 -0.00000000000E+00 -0.22049944461E+03  0.22049944461E+03  0.00000000000E+00 0.  1.
          6    1    1    2  501    0 -0.20057843834E+02 -0.17424295904E+03  0.41516320544E+02  0.24913958085E+03  0.17200000000E+03 0.  1.
         -6    1    1    2    0  502  0.20057843834E+02  0.17424295904E+03  0.12603590467E+02  0.24597921938E+03  0.17200000000E+03 0.  1.
<mgrwt>
<rscale>  2 0.24565611E+03</rscale>
<asrwt>0</asrwt>
<pdfrwt beam="1">  1       21 0.68654839E-01 0.24565611E+03</pdfrwt>
<pdfrwt beam="2">  1       21 0.55124861E-01 0.24565611E+03</pdfrwt>
<totfact> 0.57865817E+03</totfact>
</mgrwt>
</event>
<event>
 4    1  0.1132373E+000  0.2051716E+03  0.7546771E-02  0.1145448E+00
         21   -1    0    0  501  502  0.00000000000E+00  0.00000000000E+00  0.28468356802E+03  0.28468356802E+03  0.00000000000E+00 0.  1.
         21   -1    0    0  502  503 -0.00000000000E+00 -0.00000000000E+00 -0.26386691750E+03  0.26386691750E+03  0.00000000000E+00 0.  1.
          6    1    1    2  501    0  0.34664784978E+02  0.10634730693E+03  0.19226212191E+03  0.28117631574E+03  0.17200000000E+03 0.  1.
         -6    1    1    2    0  503 -0.34664784978E+02 -0.10634730693E+03 -0.17144547139E+03  0.26737416979E+03  0.17200000000E+03 0.  1.
<mgrwt>
<rscale>  2 0.20517163E+03</rscale>
<asrwt>0</asrwt>
<pdfrwt beam="1">  1       21 0.71170892E-01 0.20517163E+03</pdfrwt>
<pdfrwt beam="2">  1       21 0.65966729E-01 0.20517163E+03</pdfrwt>
<totfact> 0.37317224E+03</totfact>
</mgrwt>
</event>
<event>
 4    1  0.1132373E+000  0.2067213E+03  0.7546771E-02  0.1144189E+00
         21   -1    0    0  501  502  0.00000000000E+00  0.00000000000E+00  0.20474396091E+03  0.20474396091E+03  0.00000000000E+00 0. -1.
         21   -1    0    0  502  503 -0.00000000000E+00 -0.00000000000E+00 -0.22456801205E+03  0.22456801205E+03  0.00000000000E+00 0. -1.
          6    1    1    2  501    0 -0.65719061606E+02 -0.93971717059E+02  0.47116038849E+02  0.21202263979E+03  0.17200000000E+03 0. -1.
         -6    1    1    2    0  503  0.65719061606E+02  0.93971717059E+02 -0.66940089982E+02  0.21728933318E+03  0.17200000000E+03 0. -1.
<mgrwt>
<rscale>  2 0.20672126E+03</rscale>
<asrwt>0</asrwt>
<pdfrwt beam="1">  1       21 0.51185990E-01 0.20672126E+03</pdfrwt>
<pdfrwt beam="2">  1       21 0.56142003E-01 0.20672126E+03</pdfrwt>
<totfact> 0.10732671E+04</totfact>
</mgrwt>
</event>
<event>
 4    1  0.1132373E+000  0.1885255E+03  0.7546771E-02  0.1159798E+00
         21   -1    0    0  501  502  0.00000000000E+00  0.00000000000E+00  0.65926394031E+02  0.65926394031E+02  0.00000000000E+00 0.  1.
         21   -1    0    0  502  503 -0.00000000000E+00 -0.00000000000E+00 -0.55768730355E+03  0.55768730355E+03  0.00000000000E+00 0.  1.
          6    1    1    2  501    0  0.34000193716E+01 -0.77112325786E+02 -0.18897816804E+03  0.26693560818E+03  0.17200000000E+03 0.  1.
         -6    1    1    2    0  503 -0.34000193716E+01  0.77112325786E+02 -0.30278274147E+03  0.35667808939E+03  0.17200000000E+03 0.  1.
<mgrwt>
<rscale>  2 0.18852552E+03</rscale>
<asrwt>0</asrwt>
<pdfrwt beam="1">  1       21 0.16481598E-01 0.18852552E+03</pdfrwt>
<pdfrwt beam="2">  1       21 0.13942183E+00 0.18852552E+03</pdfrwt>
<totfact> 0.11979489E+04</totfact>
</mgrwt>
</event>
<event>
 4    1  0.1132373E+000  0.3297129E+03  0.7546771E-02  0.1071264E+00
         21   -1    0    0  503  502  0.00000000000E+00  0.00000000000E+00  0.11626963137E+04  0.11626963137E+04  0.00000000000E+00 0. -1.
         21   -1    0    0  501  503 -0.00000000000E+00 -0.00000000000E+00 -0.94016425748E+02  0.94016425748E+02  0.00000000000E+00 0.  1.
          6    1    1    2  501    0  0.26805954422E+03 -0.85268352700E+02  0.48771183943E+03  0.58870489173E+03  0.17200000000E+03 0. -1.
         -6    1    1    2    0  502 -0.26805954422E+03  0.85268352700E+02  0.58096804851E+03  0.66800784772E+03  0.17200000000E+03 0.  1.
<mgrwt>
<rscale>  2 0.32971292E+03</rscale>
<asrwt>0</asrwt>
<pdfrwt beam="1">  1       21 0.29067403E+00 0.32971292E+03</pdfrwt>
<pdfrwt beam="2">  1       21 0.23504110E-01 0.32971292E+03</pdfrwt>
<totfact> 0.57021668E+02</totfact>
</mgrwt>
</event>
<event>
 4    1  0.1132373E+000  0.1975757E+03  0.7546771E-02  0.1151801E+00
         21   -1    0    0  503  502  0.00000000000E+00  0.00000000000E+00  0.93876182681E+02  0.93876182681E+02  0.00000000000E+00 0. -1.
         21   -1    0    0  501  503 -0.00000000000E+00 -0.00000000000E+00 -0.44350940142E+03  0.44350940142E+03  0.00000000000E+00 0. -1.
          6    1    1    2  501    0 -0.85287644586E+02 -0.46670800420E+02 -0.24194640052E+03  0.31236870307E+03  0.17200000000E+03 0. -1.
         -6    1    1    2    0  502  0.85287644586E+02  0.46670800420E+02 -0.10768681821E+03  0.22501688103E+03  0.17200000000E+03 0. -1.
<mgrwt>
<rscale>  2 0.19757567E+03</rscale>
<asrwt>0</asrwt>
<pdfrwt beam="1">  1       21 0.23469046E-01 0.19757567E+03</pdfrwt>
<pdfrwt beam="2">  1       21 0.11087735E+00 0.19757567E+03</pdfrwt>
<totfact> 0.10906081E+04</totfact>
</mgrwt>
</event>
<event>
 4    1  0.1132373E+000  0.2387497E+03  0.7546771E-02  0.1120629E+00
         21   -1    0    0  503  502  0.00000000000E+00  0.00000000000E+00  0.21926289222E+03  0.21926289222E+03  0.00000000000E+00 0. -1.
         21   -1    0    0  501  503 -0.00000000000E+00 -0.00000000000E+00 -0.30206367334E+03  0.30206367334E+03  0.00000000000E+00 0. -1.
          6    1    1    2  501    0  0.14808093285E+02  0.16491852346E+03 -0.13870823417E+03  0.27611840437E+03  0.17200000000E+03 0. -1.
         -6    1    1    2    0  502 -0.14808093285E+02 -0.16491852346E+03  0.55907453044E+02  0.24520816119E+03  0.17200000000E+03 0. -1.
<mgrwt>
<rscale>  2 0.23874966E+03</rscale>
<asrwt>0</asrwt>
<pdfrwt beam="1">  1       21 0.54815724E-01 0.23874966E+03</pdfrwt>
<pdfrwt beam="2">  1       21 0.75515918E-01 0.23874966E+03</pdfrwt>
<totfact> 0.47563461E+03</totfact>
</mgrwt>
</event>
<event>
 4    1  0.1132373E+000  0.2143950E+03  0.7546771E-02  0.1138132E+00
         21   -1    0    0  501  502  0.00000000000E+00  0.00000000000E+00  0.24710118855E+03  0.24710118855E+03  0.00000000000E+00 0.  1.
         21   -1    0    0  502  503 -0.00000000000E+00 -0.00000000000E+00 -0.18918091619E+03  0.18918091619E+03  0.00000000000E+00 0.  1.
          6    1    1    2  501    0  0.21125500067E+02  0.12623367520E+03  0.57166953209E+02  0.22188575449E+03  0.17200000000E+03 0.  1.
         -6    1    1    2    0  503 -0.21125500067E+02 -0.12623367520E+03  0.75331915166E+00  0.21439635024E+03  0.17200000000E+03 0.  1.
<mgrwt>
<rscale>  2 0.21439503E+03</rscale>
<asrwt>0</asrwt>
<pdfrwt beam="1">  1       21 0.61775297E-01 0.21439503E+03</pdfrwt>
<pdfrwt beam="2">  1       21 0.47295229E-01 0.21439503E+03</pdfrwt>
<totfact> 0.10257279E+04</totfact>
</mgrwt>
</event>
<event>
 4    1  0.1132373E+000  0.2206590E+03  0.7546771E-02  0.1133393E+00
         21   -1    0    0  501  502  0.00000000000E+00  0.00000000000E+00  0.15900278082E+03  0.15900278082E+03  0.00000000000E+00 0.  1.
         21   -1    0    0  502  503 -0.00000000000E+00 -0.00000000000E+00 -0.77801900667E+03  0.77801900667E+03  0.00000000000E+00 0.  1.
          6    1    1    2  501    0 -0.13101251155E+03  0.44069363491E+02  0.55331085950E+02  0.22749047464E+03  0.17200000000E+03 0.  1.
         -6    1    1    2    0  503  0.13101251155E+03 -0.44069363491E+02 -0.67434731180E+03  0.70953131285E+03  0.17200000000E+03 0.  1.
<mgrwt>
<rscale>  2 0.22065898E+03</rscale>
<asrwt>0</asrwt>
<pdfrwt beam="1">  1       21 0.39750696E-01 0.22065898E+03</pdfrwt>
<pdfrwt beam="2">  1       21 0.19450475E+00 0.22065898E+03</pdfrwt>
<totfact> 0.86241704E+02</totfact>
</mgrwt>
</event>
<event>
 4    1  0.1132373E+000  0.2002764E+03  0.7546771E-02  0.1149506E+00
         21   -1    0    0  501  502  0.00000000000E+00  0.00000000000E+00  0.58922097121E+03  0.58922097121E+03  0.00000000000E+00 0. -1.
         21   -1    0    0  502  503 -0.00000000000E+00 -0.00000000000E+00 -0.93040105416E+02  0.93040105416E+02  0.00000000000E+00 0. -1.
          6    1    1    2  501    0  0.62030872539E+02  0.81724042731E+02  0.42480022205E+03  0.46964441545E+03  0.17200000000E+03 0. -1.
         -6    1    1    2    0  503 -0.62030872539E+02 -0.81724042731E+02  0.71380643742E+02  0.21261666118E+03  0.17200000000E+03 0. -1.
<mgrwt>
<rscale>  2 0.20027643E+03</rscale>
<asrwt>0</asrwt>
<pdfrwt beam="1">  1       21 0.14730523E+00 0.20027643E+03</pdfrwt>
<pdfrwt beam="2">  1       21 0.23260028E-01 0.20027643E+03</pdfrwt>
<totfact> 0.54121688E+03</totfact>
</mgrwt>
</event>
<event>
 4    1  0.1132373E+000  0.2063668E+03  0.7546771E-02  0.1144476E+00
         21   -1    0    0  503  502  0.00000000000E+00  0.00000000000E+00  0.19929268781E+03  0.19929268781E+03  0.00000000000E+00 0.  1.
         21   -1    0    0  501  503 -0.00000000000E+00 -0.00000000000E+00 -0.23573522883E+03  0.23573522883E+03  0.00000000000E+00 0.  1.
          6    1    1    2  501    0  0.22317630960E+02  0.11182658291E+03 -0.84735120036E+02  0.22308586209E+03  0.17200000000E+03 0.  1.
         -6    1    1    2    0  502 -0.22317630960E+02 -0.11182658291E+03  0.48292579013E+02  0.21194205455E+03  0.17200000000E+03 0.  1.
<mgrwt>
<rscale>  2 0.20636681E+03</rscale>
<asrwt>0</asrwt>
<pdfrwt beam="1">  1       21 0.49823172E-01 0.20636681E+03</pdfrwt>
<pdfrwt beam="2">  1       21 0.58933807E-01 0.20636681E+03</pdfrwt>
<totfact> 0.10240363E+04</totfact>
</mgrwt>
</event>
<event>
 4    1  0.1132373E+000  0.2157411E+03  0.7546771E-02  0.1137099E+00
         21   -1    0    0  503  502  0.00000000000E+00  0.00000000000E+00  0.56259386957E+02  0.56259386957E+02  0.00000000000E+00 0. -1.
         21   -1    0    0  501  503 -0.00000000000E+00 -0.00000000000E+00 -0.10944381221E+04  0.10944381221E+04  0.00000000000E+00 0.  1.
          6    1    1    2  501    0  0.13023047033E+03 -0.48183467078E+00 -0.80333362832E+03  0.83179872924E+03  0.17200000000E+03 0.  1.
         -6    1    1    2    0  502 -0.13023047033E+03  0.48183467078E+00 -0.23484510679E+03  0.31889877979E+03  0.17200000000E+03 0. -1.
<mgrwt>
<rscale>  2 0.21574107E+03</rscale>
<asrwt>0</asrwt>
<pdfrwt beam="1">  1       21 0.14064847E-01 0.21574107E+03</pdfrwt>
<pdfrwt beam="2">  1       21 0.27360952E+00 0.21574107E+03</pdfrwt>
<totfact> 0.20804304E+03</totfact>
</mgrwt>
</event>
<event>
 4    1  0.1132373E+000  0.1809552E+03  0.7546771E-02  0.1166882E+00
         21   -1    0    0  501  502  0.00000000000E+00  0.00000000000E+00  0.29834223223E+03  0.29834223223E+03  0.00000000000E+00 0.  1.
         21   -1    0    0  502  503 -0.00000000000E+00 -0.00000000000E+00 -0.13915600015E+03  0.13915600015E+03  0.00000000000E+00 0.  1.
          6    1    1    2  501    0 -0.56102801052E+02 -0.36403015067E+01  0.18014051394E+03  0.25533386153E+03  0.17200000000E+03 0.  1.
         -6    1    1    2    0  503  0.56102801052E+02  0.36403015067E+01 -0.20954281859E+02  0.18216437086E+03  0.17200000000E+03 0.  1.
<mgrwt>
<rscale>  2 0.18095518E+03</rscale>
<asrwt>0</asrwt>
<pdfrwt beam="1">  1       21 0.74585557E-01 0.18095518E+03</pdfrwt>
<pdfrwt beam="2">  1       21 0.34789001E-01 0.18095518E+03</pdfrwt>
<totfact> 0.12919790E+04</totfact>
</mgrwt>
</event>
<event>
 4    1  0.1132373E+000  0.1971459E+03  0.7546771E-02  0.1152170E+00
         21   -1    0    0  501  502  0.00000000000E+00  0.00000000000E+00  0.82876763568E+02  0.82876763568E+02  0.00000000000E+00 0.  1.
         21   -1    0    0  502  503 -0.00000000000E+00 -0.00000000000E+00 -0.74482933508E+03  0.74482933508E+03  0.00000000000E+00 0. -1.
          6    1    1    2  501    0 -0.68284185347E+01  0.96103390056E+02 -0.79113634370E+02  0.21242753123E+03  0.17200000000E+03 0.  1.
         -6    1    1    2    0  503  0.68284185347E+01 -0.96103390056E+02 -0.58283893715E+03  0.61527856743E+03  0.17200000000E+03 0. -1.
<mgrwt>
<rscale>  2 0.19714586E+03</rscale>
<asrwt>0</asrwt>
<pdfrwt beam="1">  1       21 0.20719191E-01 0.19714586E+03</pdfrwt>
<pdfrwt beam="2">  1       21 0.18620733E+00 0.19714586E+03</pdfrwt>
<totfact> 0.35557030E+03</totfact>
</mgrwt>
</event>
<event>
 4    1  0.1132373E+000  0.1813277E+03  0.7546771E-02  0.1166524E+00
         21   -1    0    0  503  502  0.00000000000E+00  0.00000000000E+00  0.72085643146E+03  0.72085643146E+03  0.00000000000E+00 0.  1.
         21   -1    0    0  501  503 -0.00000000000E+00 -0.00000000000E+00 -0.55537861074E+02  0.55537861074E+02  0.00000000000E+00 0.  1.
          6    1    1    2  501    0  0.34279679985E+02  0.46050221005E+02  0.49677167940E+03  0.52883061633E+03  0.17200000000E+03 0.  1.
         -6    1    1    2    0  502 -0.34279679985E+02 -0.46050221005E+02  0.16854689099E+03  0.24756367620E+03  0.17200000000E+03 0.  1.
<mgrwt>
<rscale>  2 0.18132766E+03</rscale>
<asrwt>0</asrwt>
<pdfrwt beam="1">  1       21 0.18021408E+00 0.18132766E+03</pdfrwt>
<pdfrwt beam="2">  1       21 0.13884468E-01 0.18132766E+03</pdfrwt>
<totfact> 0.82639525E+03</totfact>
</mgrwt>
</event>
<event>
 4    1  0.1132373E+000  0.5143721E+03  0.7546771E-02  0.1010094E+00
         21   -1    0    0  501  502  0.00000000000E+00  0.00000000000E+00  0.67724321400E+03  0.67724321400E+03  0.00000000000E+00 0. -1.
         21   -1    0    0  502  503 -0.00000000000E+00 -0.00000000000E+00 -0.48574963859E+03  0.48574963859E+03  0.00000000000E+00 0.  1.
          6    1    1    2  501    0  0.46485674322E+03 -0.13748778292E+03  0.35301392418E+03  0.62385696505E+03  0.17200000000E+03 0.  1.
         -6    1    1    2    0  503 -0.46485674322E+03  0.13748778292E+03 -0.16152034878E+03  0.53913588755E+03  0.17200000000E+03 0. -1.
<mgrwt>
<rscale>  2 0.51437212E+03</rscale>
<asrwt>0</asrwt>
<pdfrwt beam="1">  1       21 0.16931080E+00 0.51437212E+03</pdfrwt>
<pdfrwt beam="2">  1       21 0.12143741E+00 0.51437212E+03</pdfrwt>
<totfact> 0.85303373E+01</totfact>
</mgrwt>
</event>
<event>
 4    1  0.1132373E+000  0.1755931E+03  0.7546771E-02  0.1172138E+00
         21   -1    0    0  503  502  0.00000000000E+00  0.00000000000E+00  0.30331707885E+03  0.30331707885E+03  0.00000000000E+00 0.  1.
         21   -1    0    0  501  503 -0.00000000000E+00 -0.00000000000E+00 -0.16884894751E+03  0.16884894751E+03  0.00000000000E+00 0.  1.
          6    1    1    2  501    0 -0.15539877922E+02 -0.31740153748E+02 -0.81698224786E+02  0.19366859606E+03  0.17200000000E+03 0.  1.
         -6    1    1    2    0  502  0.15539877922E+02  0.31740153748E+02  0.21616635613E+03  0.27849743031E+03  0.17200000000E+03 0.  1.
<mgrwt>
<rscale>  2 0.17559307E+03</rscale>
<asrwt>0</asrwt>
<pdfrwt beam="1">  1       21 0.75829269E-01 0.17559307E+03</pdfrwt>
<pdfrwt beam="2">  1       21 0.42212237E-01 0.17559307E+03</pdfrwt>
<totfact> 0.84826649E+03</totfact>
</mgrwt>
</event>
<event>
 4    1  0.1132373E+000  0.2048452E+03  0.7546771E-02  0.1145714E+00
         21   -1    0    0  501  502  0.00000000000E+00  0.00000000000E+00  0.13546577939E+03  0.13546577939E+03  0.00000000000E+00 0.  1.
         21   -1    0    0  502  503 -0.00000000000E+00 -0.00000000000E+00 -0.38169200113E+03  0.38169200113E+03  0.00000000000E+00 0.  1.
          6    1    1    2  501    0 -0.10515965259E+03 -0.36318079221E+02 -0.10858332087E+02  0.20513278330E+03  0.17200000000E+03 0.  1.
         -6    1    1    2    0  503  0.10515965259E+03  0.36318079221E+02 -0.23536788965E+03  0.31202499722E+03  0.17200000000E+03 0.  1.
<mgrwt>
<rscale>  2 0.20484520E+03</rscale>
<asrwt>0</asrwt>
<pdfrwt beam="1">  1       21 0.33866445E-01 0.20484520E+03</pdfrwt>
<pdfrwt beam="2">  1       21 0.95423000E-01 0.20484520E+03</pdfrwt>
<totfact> 0.76319957E+03</totfact>
</mgrwt>
</event>
<event>
 4    1  0.1132373E+000  0.2830639E+03  0.7546771E-02  0.1094027E+00
         21   -1    0    0  501  502  0.00000000000E+00  0.00000000000E+00  0.65075725114E+03  0.65075725114E+03  0.00000000000E+00 0.  1.
         21   -1    0    0  502  503 -0.00000000000E+00 -0.00000000000E+00 -0.22650529174E+03  0.22650529174E+03  0.00000000000E+00 0. -1.
          6    1    1    2  501    0 -0.22181073198E+03  0.36621613242E+02  0.50845703728E+03  0.58193960351E+03  0.17200000000E+03 0.  1.
         -6    1    1    2    0  503  0.22181073198E+03 -0.36621613242E+02 -0.84205077868E+02  0.29532293937E+03  0.17200000000E+03 0. -1.
<mgrwt>
<rscale>  2 0.28306385E+03</rscale>
<asrwt>0</asrwt>
<pdfrwt beam="1">  1       21 0.16268931E+00 0.28306385E+03</pdfrwt>
<pdfrwt beam="2">  1       21 0.56626324E-01 0.28306385E+03</pdfrwt>
<totfact> 0.64866411E+02</totfact>
</mgrwt>
</event>
<event>
 4    1  0.1132373E+000  0.1722586E+03  0.7546771E-02  0.1175513E+00
         21   -1    0    0  501  502  0.00000000000E+00  0.00000000000E+00  0.71708601100E+02  0.71708601100E+02  0.00000000000E+00 0. -1.
         21   -1    0    0  502  503 -0.00000000000E+00 -0.00000000000E+00 -0.53238219280E+03  0.53238219280E+03  0.00000000000E+00 0. -1.
          6    1    1    2  501    0 -0.92423225894E+01 -0.18966326614E+01 -0.87785806647E+02  0.19333743970E+03  0.17200000000E+03 0. -1.
         -6    1    1    2    0  503  0.92423225894E+01  0.18966326614E+01 -0.37288778505E+03  0.41075335419E+03  0.17200000000E+03 0. -1.
<mgrwt>
<rscale>  2 0.17225858E+03</rscale>
<asrwt>0</asrwt>
<pdfrwt beam="1">  1       21 0.17927150E-01 0.17225858E+03</pdfrwt>
<pdfrwt beam="2">  1       21 0.13309555E+00 0.17225858E+03</pdfrwt>
<totfact> 0.11694974E+04</totfact>
</mgrwt>
</event>
<event>
 4    1  0.1132373E+000  0.2147874E+03  0.7546771E-02  0.1137830E+00
         21   -1    0    0  503  502  0.00000000000E+00  0.00000000000E+00  0.12058726887E+03  0.12058726887E+03  0.00000000000E+00 0.  1.
         21   -1    0    0  501  503 -0.00000000000E+00 -0.00000000000E+00 -0.65505054620E+03  0.65505054620E+03  0.00000000000E+00 0.  1.
          6    1    1    2  501    0  0.66435397205E+02 -0.11016337950E+03 -0.51735578356E+03  0.56017018751E+03  0.17200000000E+03 0.  1.
         -6    1    1    2    0  502 -0.66435397205E+02  0.11016337950E+03 -0.17107493764E+02  0.21546762756E+03  0.17200000000E+03 0.  1.
<mgrwt>
<rscale>  2 0.21478741E+03</rscale>
<asrwt>0</asrwt>
<pdfrwt beam="1">  1       21 0.30146818E-01 0.21478741E+03</pdfrwt>
<pdfrwt beam="2">  1       21 0.16376263E+00 0.21478741E+03</pdfrwt>
<totfact> 0.24442781E+03</totfact>
</mgrwt>
</event>
<event>
 4    1  0.1132373E+000  0.2421990E+03  0.7546771E-02  0.1118336E+00
         21   -1    0    0  501  502  0.00000000000E+00  0.00000000000E+00  0.80119995716E+03  0.80119995716E+03  0.00000000000E+00 0.  1.
         21   -1    0    0  502  503 -0.00000000000E+00 -0.00000000000E+00 -0.82271382677E+02  0.82271382677E+02  0.00000000000E+00 0. -1.
          6    1    1    2  501    0 -0.47378514402E+02  0.16380370626E+03  0.50601900505E+03  0.56099519720E+03  0.17200000000E+03 0.  1.
         -6    1    1    2    0  503  0.47378514402E+02 -0.16380370626E+03  0.21290956943E+03  0.32247614264E+03  0.17200000000E+03 0. -1.
<mgrwt>
<rscale>  2 0.24219905E+03</rscale>
<asrwt>0</asrwt>
<pdfrwt beam="1">  1       21 0.20029997E+00 0.24219905E+03</pdfrwt>
<pdfrwt beam="2">  1       21 0.20567848E-01 0.24219905E+03</pdfrwt>
<totfact> 0.27995192E+03</totfact>
</mgrwt>
</event>
<event>
 4    1  0.1132373E+000  0.2309747E+03  0.7546771E-02  0.1125956E+00
         21   -1    0    0  501  502  0.00000000000E+00  0.00000000000E+00  0.20160916697E+04  0.20160916697E+04  0.00000000000E+00 0. -1.
         21   -1    0    0  502  503 -0.00000000000E+00 -0.00000000000E+00 -0.48113617313E+02  0.48113617313E+02  0.00000000000E+00 0.  1.
          6    1    1    2  501    0  0.74427261434E+02 -0.13500324967E+03  0.16763565027E+04  0.16921939660E+04  0.17200000000E+03 0. -1.
         -6    1    1    2    0  503 -0.74427261434E+02  0.13500324967E+03  0.29162154969E+03  0.37201132094E+03  0.17200000000E+03 0.  1.
<mgrwt>
<rscale>  2 0.23097466E+03</rscale>
<asrwt>0</asrwt>
<pdfrwt beam="1">  1       21 0.50402264E+00 0.23097466E+03</pdfrwt>
<pdfrwt beam="2">  1       21 0.12028411E-01 0.23097466E+03</pdfrwt>
<totfact> 0.97038320E+01</totfact>
</mgrwt>
</event>
<event>
 4    1  0.1132373E+000  0.1764961E+03  0.7546771E-02  0.1171238E+00
         21   -1    0    0  503  502  0.00000000000E+00  0.00000000000E+00  0.28858015612E+03  0.28858015612E+03  0.00000000000E+00 0. -1.
         21   -1    0    0  501  503 -0.00000000000E+00 -0.00000000000E+00 -0.14721187058E+03  0.14721187058E+03  0.00000000000E+00 0. -1.
          6    1    1    2  501    0  0.37410390279E+02  0.12935494563E+02 -0.41851343888E+02  0.18139018525E+03  0.17200000000E+03 0. -1.
         -6    1    1    2    0  502 -0.37410390279E+02 -0.12935494563E+02  0.18321962943E+03  0.25440184144E+03  0.17200000000E+03 0. -1.
<mgrwt>
<rscale>  2 0.17649607E+03</rscale>
<asrwt>0</asrwt>
<pdfrwt beam="1">  1       21 0.72145038E-01 0.17649607E+03</pdfrwt>
<pdfrwt beam="2">  1       21 0.36802968E-01 0.17649607E+03</pdfrwt>
<totfact> 0.12476419E+04</totfact>
</mgrwt>
</event>
<event>
 4    1  0.1132373E+000  0.1893197E+03  0.7546771E-02  0.1159076E+00
         21   -1    0    0  503  502  0.00000000000E+00  0.00000000000E+00  0.25598563839E+03  0.25598563839E+03  0.00000000000E+00 0.  1.
         21   -1    0    0  501  503 -0.00000000000E+00 -0.00000000000E+00 -0.14098904704E+03  0.14098904704E+03  0.00000000000E+00 0.  1.
          6    1    1    2  501    0 -0.73782858842E+02  0.28531598134E+02  0.41004748342E+02  0.19370945185E+03  0.17200000000E+03 0.  1.
         -6    1    1    2    0  502  0.73782858842E+02 -0.28531598134E+02  0.73991843001E+02  0.20326523358E+03  0.17200000000E+03 0.  1.
<mgrwt>
<rscale>  2 0.18931974E+03</rscale>
<asrwt>0</asrwt>
<pdfrwt beam="1">  1       21 0.63996409E-01 0.18931974E+03</pdfrwt>
<pdfrwt beam="2">  1       21 0.35247262E-01 0.18931974E+03</pdfrwt>
<totfact> 0.17530958E+04</totfact>
</mgrwt>
</event>
<event>
 4    1  0.1132373E+000  0.1749717E+03  0.7546771E-02  0.1172760E+00
         21   -1    0    0  501  502  0.00000000000E+00  0.00000000000E+00  0.13015692415E+03  0.13015692415E+03  0.00000000000E+00 0. -1.
         21   -1    0    0  502  503 -0.00000000000E+00 -0.00000000000E+00 -0.42138233012E+03  0.42138233012E+03  0.00000000000E+00 0. -1.
          6    1    1    2  501    0 -0.16789414961E+02 -0.27371493377E+02  0.37685419195E+02  0.17898400466E+03  0.17200000000E+03 0. -1.
         -6    1    1    2    0  503  0.16789414961E+02  0.27371493377E+02 -0.32891082516E+03  0.37255524961E+03  0.17200000000E+03 0. -1.
<mgrwt>
<rscale>  2 0.17497166E+03</rscale>
<asrwt>0</asrwt>
<pdfrwt beam="1">  1       21 0.32539231E-01 0.17497166E+03</pdfrwt>
<pdfrwt beam="2">  1       21 0.10534558E+00 0.17497166E+03</pdfrwt>
<totfact> 0.66796610E+03</totfact>
</mgrwt>
</event>
<event>
 4    1  0.1132373E+000  0.1787178E+03  0.7546771E-02  0.1169050E+00
         21   -1    0    0  503  502  0.00000000000E+00  0.00000000000E+00  0.40531329380E+02  0.40531329380E+02  0.00000000000E+00 0.  1.
         21   -1    0    0  501  503 -0.00000000000E+00 -0.00000000000E+00 -0.10938830187E+04  0.10938830187E+04  0.00000000000E+00 0.  1.
          6    1    1    2  501    0  0.35010833291E+02  0.33619840945E+02 -0.82659904148E+03  0.84569854412E+03  0.17200000000E+03 0.  1.
         -6    1    1    2    0  502 -0.35010833291E+02 -0.33619840945E+02 -0.22675264784E+03  0.28871580396E+03  0.17200000000E+03 0.  1.
<mgrwt>
<rscale>  2 0.17871780E+03</rscale>
<asrwt>0</asrwt>
<pdfrwt beam="1">  1       21 0.10132833E-01 0.17871780E+03</pdfrwt>
<pdfrwt beam="2">  1       21 0.27347075E+00 0.17871780E+03</pdfrwt>
<totfact> 0.39106066E+03</totfact>
</mgrwt>
</event>
<event>
 4    1  0.1132373E+000  0.2270425E+03  0.7546771E-02  0.1128739E+00
         21   -1    0    0  501  502  0.00000000000E+00  0.00000000000E+00  0.22429421300E+03  0.22429421300E+03  0.00000000000E+00 0.  1.
         21   -1    0    0  502  503 -0.00000000000E+00 -0.00000000000E+00 -0.24349197195E+03  0.24349197195E+03  0.00000000000E+00 0.  1.
          6    1    1    2  501    0  0.13106832542E+03  0.69176624472E+02  0.45815024389E+02  0.23161892790E+03  0.17200000000E+03 0.  1.
         -6    1    1    2    0  503 -0.13106832542E+03 -0.69176624472E+02 -0.65012783338E+02  0.23616725704E+03  0.17200000000E+03 0.  1.
<mgrwt>
<rscale>  2 0.22704253E+03</rscale>
<asrwt>0</asrwt>
<pdfrwt beam="1">  1       21 0.56073553E-01 0.22704253E+03</pdfrwt>
<pdfrwt beam="2">  1       21 0.60872993E-01 0.22704253E+03</pdfrwt>
<totfact> 0.73435695E+03</totfact>
</mgrwt>
</event>
<event>
 4    1  0.1132373E+000  0.2466693E+03  0.7546771E-02  0.1115428E+00
         21   -1    0    0  503  502  0.00000000000E+00  0.00000000000E+00  0.11677696060E+03  0.11677696060E+03  0.00000000000E+00 0.  1.
         21   -1    0    0  501  503 -0.00000000000E+00 -0.00000000000E+00 -0.89987530360E+03  0.89987530360E+03  0.00000000000E+00 0. -1.
          6    1    1    2  501    0  0.12649683145E+03  0.12353261135E+03 -0.72136772592E+03  0.76237599020E+03  0.17200000000E+03 0.  1.
         -6    1    1    2    0  502 -0.12649683145E+03 -0.12353261135E+03 -0.61730617084E+02  0.25427627400E+03  0.17200000000E+03 0.  1.
<mgrwt>
<rscale>  2 0.24666932E+03</rscale>
<asrwt>0</asrwt>
<pdfrwt beam="1">  1       21 0.29194241E-01 0.24666932E+03</pdfrwt>
<pdfrwt beam="2">  1       21 0.22496882E+00 0.24666932E+03</pdfrwt>
<totfact> 0.99578974E+02</totfact>
</mgrwt>
</event>
<event>
 4    1  0.1132373E+000  0.1812247E+03  0.7546771E-02  0.1166623E+00
         21   -1    0    0  501  502  0.00000000000E+00  0.00000000000E+00  0.24255273055E+03  0.24255273055E+03  0.00000000000E+00 0. -1.
         21   -1    0    0  502  503 -0.00000000000E+00 -0.00000000000E+00 -0.22904359829E+03  0.22904359829E+03  0.00000000000E+00 0. -1.
          6    1    1    2  501    0  0.50976485104E+02 -0.25686595587E+02  0.15752392506E+03  0.24011703436E+03  0.17200000000E+03 0. -1.
         -6    1    1    2    0  503 -0.50976485104E+02  0.25686595587E+02 -0.14401479280E+03  0.23147929448E+03  0.17200000000E+03 0. -1.
<mgrwt>
<rscale>  2 0.18122473E+03</rscale>
<asrwt>0</asrwt>
<pdfrwt beam="1">  1       21 0.60638183E-01 0.18122473E+03</pdfrwt>
<pdfrwt beam="2">  1       21 0.57260900E-01 0.18122473E+03</pdfrwt>
<totfact> 0.73145376E+03</totfact>
</mgrwt>
</event>
<event>
 4    1  0.1132373E+000  0.2516697E+03  0.7546771E-02  0.1112254E+00
         21   -1    0    0  501  502  0.00000000000E+00  0.00000000000E+00  0.48698791074E+03  0.48698791074E+03  0.00000000000E+00 0. -1.
         21   -1    0    0  502  503 -0.00000000000E+00 -0.00000000000E+00 -0.49517983731E+03  0.49517983731E+03  0.00000000000E+00 0. -1.
          6    1    1    2  501    0 -0.16384985316E+03  0.83107535062E+02  0.41759269921E+03  0.48756671256E+03  0.17200000000E+03 0. -1.
         -6    1    1    2    0  503  0.16384985316E+03 -0.83107535062E+02 -0.42578462577E+03  0.49460103549E+03  0.17200000000E+03 0. -1.
<mgrwt>
<rscale>  2 0.25166970E+03</rscale>
<asrwt>0</asrwt>
<pdfrwt beam="1">  1       21 0.12174698E+00 0.25166970E+03</pdfrwt>
<pdfrwt beam="2">  1       21 0.12379496E+00 0.25166970E+03</pdfrwt>
<totfact> 0.23342386E+02</totfact>
</mgrwt>
</event>
<event>
 4    1  0.1132373E+000  0.2418844E+03  0.7546771E-02  0.1118544E+00
         21   -1    0    0  501  502  0.00000000000E+00  0.00000000000E+00  0.24869887643E+04  0.24869887643E+04  0.00000000000E+00 0.  1.
         21   -1    0    0  502  503 -0.00000000000E+00 -0.00000000000E+00 -0.11726875909E+04  0.11726875909E+04  0.00000000000E+00 0. -1.
          6    1    1    2  501    0 -0.13422519328E+03  0.10443981938E+03  0.24685412833E+04  0.24803637123E+04  0.17200000000E+03 0.  1.
         -6    1    1    2    0  503  0.13422519328E+03 -0.10443981938E+03 -0.11542401098E+04  0.11793126428E+04  0.17200000000E+03 0. -1.
<mgrwt>
<rscale>  2 0.24188443E+03</rscale>
<asrwt>0</asrwt>
<pdfrwt beam="1">  1       21 0.62174718E+00 0.24188443E+03</pdfrwt>
<pdfrwt beam="2">  1       21 0.29317190E+00 0.24188443E+03</pdfrwt>
<totfact> 0.74427999E-03</totfact>
</mgrwt>
</event>
<event>
 4    1  0.1132373E+000  0.1772641E+03  0.7546771E-02  0.1170477E+00
         21   -1    0    0  501  502  0.00000000000E+00  0.00000000000E+00  0.88226786386E+02  0.88226786386E+02  0.00000000000E+00 0. -1.
         21   -1    0    0  502  503 -0.00000000000E+00 -0.00000000000E+00 -0.39138824850E+03  0.39138824850E+03  0.00000000000E+00 0.  1.
          6    1    1    2  501    0  0.41343942518E+02 -0.11367647307E+02 -0.22352991841E+03  0.28528611851E+03  0.17200000000E+03 0.  1.
         -6    1    1    2    0  503 -0.41343942518E+02  0.11367647307E+02 -0.79631543702E+02  0.19432891638E+03  0.17200000000E+03 0. -1.
<mgrwt>
<rscale>  2 0.17726405E+03</rscale>
<asrwt>0</asrwt>
<pdfrwt beam="1">  1       21 0.22056697E-01 0.17726405E+03</pdfrwt>
<pdfrwt beam="2">  1       21 0.97847060E-01 0.17726405E+03</pdfrwt>
<totfact> 0.16768105E+04</totfact>
</mgrwt>
</event>
<event>
 4    1  0.1132373E+000  0.4244592E+03  0.7546771E-02  0.1035625E+00
         21   -1    0    0  503  502  0.00000000000E+00  0.00000000000E+00  0.17886334573E+03  0.17886334573E+03  0.00000000000E+00 0.  1.
         21   -1    0    0  501  503 -0.00000000000E+00 -0.00000000000E+00 -0.11074192242E+04  0.11074192242E+04  0.00000000000E+00 0. -1.
          6    1    1    2  501    0 -0.34178375836E+03  0.18375390041E+03 -0.65767528120E+03  0.78275309575E+03  0.17200000000E+03 0. -1.
         -6    1    1    2    0  502  0.34178375836E+03 -0.18375390041E+03 -0.27088059725E+03  0.50352947417E+03  0.17200000000E+03 0.  1.
<mgrwt>
<rscale>  2 0.42445922E+03</rscale>
<asrwt>0</asrwt>
<pdfrwt beam="1">  1       21 0.44715837E-01 0.42445922E+03</pdfrwt>
<pdfrwt beam="2">  1       21 0.27685480E+00 0.42445922E+03</pdfrwt>
<totfact> 0.17815998E+02</totfact>
</mgrwt>
</event>
<event>
 4    1  0.1132373E+000  0.1760809E+03  0.7546771E-02  0.1171651E+00
         21   -1    0    0  501  502  0.00000000000E+00  0.00000000000E+00  0.13796053804E+03  0.13796053804E+03  0.00000000000E+00 0. -1.
         21   -1    0    0  502  503 -0.00000000000E+00 -0.00000000000E+00 -0.22999809783E+03  0.22999809783E+03  0.00000000000E+00 0. -1.
          6    1    1    2  501    0  0.37588457481E+02 -0.27578022091E+01 -0.18186632547E+02  0.17701765791E+03  0.17200000000E+03 0. -1.
         -6    1    1    2    0  503 -0.37588457481E+02  0.27578022091E+01 -0.73850927242E+02  0.19094097796E+03  0.17200000000E+03 0. -1.
<mgrwt>
<rscale>  2 0.17608094E+03</rscale>
<asrwt>0</asrwt>
<pdfrwt beam="1">  1       21 0.34490135E-01 0.17608094E+03</pdfrwt>
<pdfrwt beam="2">  1       21 0.57499524E-01 0.17608094E+03</pdfrwt>
<totfact> 0.23218048E+04</totfact>
</mgrwt>
</event>
<event>
 4    1  0.1132373E+000  0.1727199E+03  0.7546771E-02  0.1175041E+00
         21   -1    0    0  503  502  0.00000000000E+00  0.00000000000E+00  0.76879976644E+02  0.76879976644E+02  0.00000000000E+00 0. -1.
         21   -1    0    0  501  503 -0.00000000000E+00 -0.00000000000E+00 -0.63523558655E+03  0.63523558655E+03  0.00000000000E+00 0. -1.
          6    1    1    2  501    0 -0.15641667937E+02  0.18729437080E+01 -0.50129248977E+03  0.53021347587E+03  0.17200000000E+03 0. -1.
         -6    1    1    2    0  502  0.15641667937E+02 -0.18729437080E+01 -0.57063120138E+02  0.18190208733E+03  0.17200000000E+03 0. -1.
<mgrwt>
<rscale>  2 0.17271992E+03</rscale>
<asrwt>0</asrwt>
<pdfrwt beam="1">  1       21 0.19219994E-01 0.17271992E+03</pdfrwt>
<pdfrwt beam="2">  1       21 0.15880889E+00 0.17271992E+03</pdfrwt>
<totfact> 0.64939173E+03</totfact>
</mgrwt>
</event>
<event>
 4    1  0.1132373E+000  0.2115414E+03  0.7546771E-02  0.1140351E+00
         21   -1    0    0  501  502  0.00000000000E+00  0.00000000000E+00  0.23567928047E+03  0.23567928047E+03  0.00000000000E+00 0. -1.
         21   -1    0    0  502  503 -0.00000000000E+00 -0.00000000000E+00 -0.22777753988E+03  0.22777753988E+03  0.00000000000E+00 0. -1.
          6    1    1    2  501    0  0.11396349429E+03  0.46669811696E+02 -0.90575817656E+02  0.23011677057E+03  0.17200000000E+03 0. -1.
         -6    1    1    2    0  503 -0.11396349429E+03 -0.46669811696E+02  0.98477558241E+02  0.23334004978E+03  0.17200000000E+03 0. -1.
<mgrwt>
<rscale>  2 0.21154137E+03</rscale>
<asrwt>0</asrwt>
<pdfrwt beam="1">  1       21 0.58919820E-01 0.21154137E+03</pdfrwt>
<pdfrwt beam="2">  1       21 0.56944385E-01 0.21154137E+03</pdfrwt>
<totfact> 0.77023023E+03</totfact>
</mgrwt>
</event>
<event>
 4    1  0.1132373E+000  0.1765364E+03  0.7546771E-02  0.1171198E+00
         21   -1    0    0  503  502  0.00000000000E+00  0.00000000000E+00  0.16549073843E+03  0.16549073843E+03  0.00000000000E+00 0.  1.
         21   -1    0    0  501  503 -0.00000000000E+00 -0.00000000000E+00 -0.19337643561E+03  0.19337643561E+03  0.00000000000E+00 0.  1.
          6    1    1    2  501    0  0.39748977628E+02 -0.10511008976E+01 -0.42960208174E+02  0.18168837476E+03  0.17200000000E+03 0.  1.
         -6    1    1    2    0  502 -0.39748977628E+02  0.10511008976E+01  0.15074510994E+02  0.17717879929E+03  0.17200000000E+03 0.  1.
<mgrwt>
<rscale>  2 0.17653636E+03</rscale>
<asrwt>0</asrwt>
<pdfrwt beam="1">  1       21 0.41372685E-01 0.17653636E+03</pdfrwt>
<pdfrwt beam="2">  1       21 0.48344109E-01 0.17653636E+03</pdfrwt>
<totfact> 0.23207446E+04</totfact>
</mgrwt>
</event>
<event>
 4    1  0.1132373E+000  0.1980455E+03  0.7546771E-02  0.1151399E+00
         21   -1    0    0  501  502  0.00000000000E+00  0.00000000000E+00  0.15195916280E+03  0.15195916280E+03  0.00000000000E+00 0.  1.
         21   -1    0    0  502  503 -0.00000000000E+00 -0.00000000000E+00 -0.38942746100E+03  0.38942746100E+03  0.00000000000E+00 0.  1.
          6    1    1    2  501    0  0.91775724810E+01 -0.97743547686E+02  0.38456647928E+02  0.20174474645E+03  0.17200000000E+03 0.  1.
         -6    1    1    2    0  503 -0.91775724810E+01  0.97743547686E+02 -0.27592494613E+03  0.33964187734E+03  0.17200000000E+03 0.  1.
<mgrwt>
<rscale>  2 0.19804552E+03</rscale>
<asrwt>0</asrwt>
<pdfrwt beam="1">  1       21 0.37989791E-01 0.19804552E+03</pdfrwt>
<pdfrwt beam="2">  1       21 0.97356864E-01 0.19804552E+03</pdfrwt>
<totfact> 0.58197312E+03</totfact>
</mgrwt>
</event>
<event>
 4    1  0.1132373E+000  0.2921934E+03  0.7546771E-02  0.1089209E+00
         21   -1    0    0  501  502  0.00000000000E+00  0.00000000000E+00  0.80182201858E+02  0.80182201858E+02  0.00000000000E+00 0. -1.
         21   -1    0    0  502  503 -0.00000000000E+00 -0.00000000000E+00 -0.11036236829E+04  0.11036236829E+04  0.00000000000E+00 0. -1.
          6    1    1    2  501    0 -0.23567411737E+03 -0.15834042746E+02 -0.40068616286E+03  0.49590967687E+03  0.17200000000E+03 0. -1.
         -6    1    1    2    0  503  0.23567411737E+03  0.15834042746E+02 -0.62275531822E+03  0.68789620792E+03  0.17200000000E+03 0. -1.
<mgrwt>
<rscale>  2 0.29219344E+03</rscale>
<asrwt>0</asrwt>
<pdfrwt beam="1">  1       21 0.20045551E-01 0.29219344E+03</pdfrwt>
<pdfrwt beam="2">  1       21 0.27590592E+00 0.29219344E+03</pdfrwt>
<totfact> 0.97332206E+02</totfact>
</mgrwt>
</event>
<event>
 4    1  0.1132373E+000  0.1830601E+03  0.7546771E-02  0.1164874E+00
         21   -1    0    0  503  502  0.00000000000E+00  0.00000000000E+00  0.54230931347E+02  0.54230931347E+02  0.00000000000E+00 0.  1.
         21   -1    0    0  501  503 -0.00000000000E+00 -0.00000000000E+00 -0.82832233620E+03  0.82832233620E+03  0.00000000000E+00 0. -1.
          6    1    1    2  501    0 -0.58225548084E+02 -0.23168740579E+02 -0.60944047483E+03  0.63634007995E+03  0.17200000000E+03 0. -1.
         -6    1    1    2    0  502  0.58225548084E+02  0.23168740579E+02 -0.16465093003E+03  0.24621318760E+03  0.17200000000E+03 0.  1.
<mgrwt>
<rscale>  2 0.18306011E+03</rscale>
<asrwt>0</asrwt>
<pdfrwt beam="1">  1       21 0.13557733E-01 0.18306011E+03</pdfrwt>
<pdfrwt beam="2">  1       21 0.20708059E+00 0.18306011E+03</pdfrwt>
<totfact> 0.57555860E+03</totfact>
</mgrwt>
</event>
<event>
 4    1  0.1132373E+000  0.2271239E+03  0.7546771E-02  0.1128681E+00
         21   -1    0    0  501  502  0.00000000000E+00  0.00000000000E+00  0.81579090453E+02  0.81579090453E+02  0.00000000000E+00 0. -1.
         21   -1    0    0  502  503 -0.00000000000E+00 -0.00000000000E+00 -0.76438824012E+03  0.76438824012E+03  0.00000000000E+00 0. -1.
          6    1    1    2  501    0  0.14617577326E+03  0.25177696683E+02 -0.51721391998E+03  0.56488539733E+03  0.17200000000E+03 0. -1.
         -6    1    1    2    0  503 -0.14617577326E+03 -0.25177696683E+02 -0.16559522968E+03  0.28108193323E+03  0.17200000000E+03 0. -1.
<mgrwt>
<rscale>  2 0.22712392E+03</rscale>
<asrwt>0</asrwt>
<pdfrwt beam="1">  1       21 0.20394773E-01 0.22712392E+03</pdfrwt>
<pdfrwt beam="2">  1       21 0.19109706E+00 0.22712392E+03</pdfrwt>
<totfact> 0.33089328E+03</totfact>
</mgrwt>
</event>
<event>
 4    1  0.1132373E+000  0.2091769E+03  0.7546771E-02  0.1142219E+00
         21   -1    0    0  503  502  0.00000000000E+00  0.00000000000E+00  0.20363263052E+03  0.20363263052E+03  0.00000000000E+00 0.  1.
         21   -1    0    0  501  503 -0.00000000000E+00 -0.00000000000E+00 -0.24641011174E+03  0.24641011174E+03  0.00000000000E+00 0.  1.
          6    1    1    2  501    0 -0.66883004181E+01  0.11885381736E+03 -0.10189171355E+03  0.23267334302E+03  0.17200000000E+03 0.  1.
         -6    1    1    2    0  502  0.66883004181E+01 -0.11885381736E+03  0.59114232325E+02  0.21736939924E+03  0.17200000000E+03 0.  1.
<mgrwt>
<rscale>  2 0.20917687E+03</rscale>
<asrwt>0</asrwt>
<pdfrwt beam="1">  1       21 0.50908158E-01 0.20917687E+03</pdfrwt>
<pdfrwt beam="2">  1       21 0.61602528E-01 0.20917687E+03</pdfrwt>
<totfact> 0.88822035E+03</totfact>
</mgrwt>
</event>
<event>
 4    1  0.1132373E+000  0.2208653E+03  0.7546771E-02  0.1133240E+00
         21   -1    0    0  503  502  0.00000000000E+00  0.00000000000E+00  0.10139681009E+04  0.10139681009E+04  0.00000000000E+00 0. -1.
         21   -1    0    0  501  503 -0.00000000000E+00 -0.00000000000E+00 -0.93963207370E+02  0.93963207370E+02  0.00000000000E+00 0. -1.
          6    1    1    2  501    0  0.12423913444E+03 -0.61336209942E+02  0.73020081572E+02  0.23262292555E+03  0.17200000000E+03 0. -1.
         -6    1    1    2    0  502 -0.12423913444E+03  0.61336209942E+02  0.84698481191E+03  0.87530838268E+03  0.17200000000E+03 0. -1.
<mgrwt>
<rscale>  2 0.22086533E+03</rscale>
<asrwt>0</asrwt>
<pdfrwt beam="1">  1       21 0.25349199E+00 0.22086533E+03</pdfrwt>
<pdfrwt beam="2">  1       21 0.23490805E-01 0.22086533E+03</pdfrwt>
<totfact> 0.10464505E+03</totfact>
</mgrwt>
</event>
<event>
 4    1  0.1132373E+000  0.1959894E+03  0.7546771E-02  0.1153168E+00
         21   -1    0    0  503  502  0.00000000000E+00  0.00000000000E+00  0.10847306670E+03  0.10847306670E+03  0.00000000000E+00 0.  1.
         21   -1    0    0  501  503 -0.00000000000E+00 -0.00000000000E+00 -0.35716547769E+03  0.35716547769E+03  0.00000000000E+00 0. -1.
          6    1    1    2  501    0  0.12813424201E+01 -0.93947795235E+02 -0.14586610582E+03  0.24431281361E+03  0.17200000000E+03 0. -1.
         -6    1    1    2    0  502 -0.12813424201E+01  0.93947795235E+02 -0.10282630517E+03  0.22132573078E+03  0.17200000000E+03 0. -1.
<mgrwt>
<rscale>  2 0.19598936E+03</rscale>
<asrwt>0</asrwt>
<pdfrwt beam="1">  1       21 0.27118267E-01 0.19598936E+03</pdfrwt>
<pdfrwt beam="2">  1       21 0.89291369E-01 0.19598936E+03</pdfrwt>
<totfact> 0.13836305E+04</totfact>
</mgrwt>
</event>
<event>
 4    1  0.1132373E+000  0.1963392E+03  0.7546771E-02  0.1152865E+00
         21   -1    0    0  503  502  0.00000000000E+00  0.00000000000E+00  0.73483695516E+02  0.73483695516E+02  0.00000000000E+00 0.  1.
         21   -1    0    0  501  503 -0.00000000000E+00 -0.00000000000E+00 -0.53766242356E+03  0.53766242356E+03  0.00000000000E+00 0.  1.
          6    1    1    2  501    0 -0.13930713368E+02 -0.93653620218E+02 -0.18444835420E+03  0.26938867965E+03  0.17200000000E+03 0.  1.
         -6    1    1    2    0  502  0.13930713368E+02  0.93653620218E+02 -0.27973037384E+03  0.34175743943E+03  0.17200000000E+03 0.  1.
<mgrwt>
<rscale>  2 0.19633916E+03</rscale>
<asrwt>0</asrwt>
<pdfrwt beam="1">  1       21 0.18370924E-01 0.19633916E+03</pdfrwt>
<pdfrwt beam="2">  1       21 0.13441561E+00 0.19633916E+03</pdfrwt>
<totfact> 0.10709691E+04</totfact>
</mgrwt>
</event>
<event>
 4    1  0.1132373E+000  0.2399426E+03  0.7546771E-02  0.1119831E+00
         21   -1    0    0  503  502  0.00000000000E+00  0.00000000000E+00  0.32279548193E+02  0.32279548193E+02  0.00000000000E+00 0. -1.
         21   -1    0    0  501  503 -0.00000000000E+00 -0.00000000000E+00 -0.18308576019E+04  0.18308576019E+04  0.00000000000E+00 0. -1.
          6    1    1    2  501    0  0.13368275103E+03  0.10058515549E+03 -0.10490213546E+04  0.10761125656E+04  0.17200000000E+03 0. -1.
         -6    1    1    2    0  502 -0.13368275103E+03 -0.10058515549E+03 -0.74955669913E+03  0.78702458452E+03  0.17200000000E+03 0. -1.
<mgrwt>
<rscale>  2 0.23994260E+03</rscale>
<asrwt>0</asrwt>
<pdfrwt beam="1">  1       21 0.80698864E-02 0.23994260E+03</pdfrwt>
<pdfrwt beam="2">  1       21 0.45771444E+00 0.23994260E+03</pdfrwt>
<totfact> 0.40653904E+02</totfact>
</mgrwt>
</event>
<event>
 4    1  0.1132373E+000  0.1725966E+03  0.7546771E-02  0.1175167E+00
         21   -1    0    0  501  502  0.00000000000E+00  0.00000000000E+00  0.20315877383E+03  0.20315877383E+03  0.00000000000E+00 0. -1.
         21   -1    0    0  502  503 -0.00000000000E+00 -0.00000000000E+00 -0.27451362698E+03  0.27451362698E+03  0.00000000000E+00 0. -1.
          6    1    1    2  501    0  0.10204254807E+02 -0.10073300015E+02  0.12733552148E+03  0.21448527506E+03  0.17200000000E+03 0. -1.
         -6    1    1    2    0  503 -0.10204254807E+02  0.10073300015E+02 -0.19869037462E+03  0.26318712574E+03  0.17200000000E+03 0. -1.
<mgrwt>
<rscale>  2 0.17259663E+03</rscale>
<asrwt>0</asrwt>
<pdfrwt beam="1">  1       21 0.50789694E-01 0.17259663E+03</pdfrwt>
<pdfrwt beam="2">  1       21 0.68628406E-01 0.17259663E+03</pdfrwt>
<totfact> 0.72460125E+03</totfact>
</mgrwt>
</event>
<event>
 4    1  0.1132373E+000  0.2085716E+03  0.7546771E-02  0.1142702E+00
         21   -1    0    0  501  502  0.00000000000E+00  0.00000000000E+00  0.12682736088E+03  0.12682736088E+03  0.00000000000E+00 0. -1.
         21   -1    0    0  502  503 -0.00000000000E+00 -0.00000000000E+00 -0.37220745715E+03  0.37220745715E+03  0.00000000000E+00 0. -1.
          6    1    1    2  501    0  0.70873586817E+02  0.94313576483E+02 -0.52796711596E+02  0.21515020049E+03  0.17200000000E+03 0.  1.
         -6    1    1    2    0  503 -0.70873586817E+02 -0.94313576483E+02 -0.19258338467E+03  0.28388461753E+03  0.17200000000E+03 0.  1.
<mgrwt>
<rscale>  2 0.20857161E+03</rscale>
<asrwt>0</asrwt>
<pdfrwt beam="1">  1       21 0.31706840E-01 0.20857161E+03</pdfrwt>
<pdfrwt beam="2">  1       21 0.93051864E-01 0.20857161E+03</pdfrwt>
<totfact> 0.91947739E+03</totfact>
</mgrwt>
</event>
<event>
 4    1  0.1132373E+000  0.2041002E+03  0.7546771E-02  0.1146325E+00
         21   -1    0    0  501  502  0.00000000000E+00  0.00000000000E+00  0.72312202351E+02  0.72312202351E+02  0.00000000000E+00 0.  1.
         21   -1    0    0  502  503 -0.00000000000E+00 -0.00000000000E+00 -0.58931376181E+03  0.58931376181E+03  0.00000000000E+00 0. -1.
          6    1    1    2  501    0  0.44414834423E+02 -0.10049992249E+03 -0.30809260030E+03  0.36956455769E+03  0.17200000000E+03 0. -1.
         -6    1    1    2    0  503 -0.44414834423E+02  0.10049992249E+03 -0.20890895915E+03  0.29206140647E+03  0.17200000000E+03 0. -1.
<mgrwt>
<rscale>  2 0.20410025E+03</rscale>
<asrwt>0</asrwt>
<pdfrwt beam="1">  1       21 0.18078051E-01 0.20410025E+03</pdfrwt>
<pdfrwt beam="2">  1       21 0.14732844E+00 0.20410025E+03</pdfrwt>
<totfact> 0.86508939E+03</totfact>
</mgrwt>
</event>
<event>
 4    1  0.1132373E+000  0.1882778E+03  0.7546771E-02  0.1160024E+00
         21   -1    0    0  501  502  0.00000000000E+00  0.00000000000E+00  0.58239991955E+03  0.58239991955E+03  0.00000000000E+00 0.  1.
         21   -1    0    0  502  503 -0.00000000000E+00 -0.00000000000E+00 -0.62589940250E+02  0.62589940250E+02  0.00000000000E+00 0.  1.
          6    1    1    2  501    0 -0.45551829108E+02 -0.61559485475E+02  0.31342196023E+03  0.36562530621E+03  0.17200000000E+03 0.  1.
         -6    1    1    2    0  503  0.45551829108E+02  0.61559485475E+02  0.20638801907E+03  0.27936455359E+03  0.17200000000E+03 0.  1.
<mgrwt>
<rscale>  2 0.18827783E+03</rscale>
<asrwt>0</asrwt>
<pdfrwt beam="1">  1       21 0.14559996E+00 0.18827783E+03</pdfrwt>
<pdfrwt beam="2">  1       21 0.15647487E-01 0.18827783E+03</pdfrwt>
<totfact> 0.11774450E+04</totfact>
</mgrwt>
</event>
<event>
 4    1  0.1132373E+000  0.1771913E+03  0.7546771E-02  0.1170549E+00
         21   -1    0    0  503  502  0.00000000000E+00  0.00000000000E+00  0.32138098248E+03  0.32138098248E+03  0.00000000000E+00 0.  1.
         21   -1    0    0  501  503 -0.00000000000E+00 -0.00000000000E+00 -0.10634768990E+03  0.10634768990E+03  0.00000000000E+00 0.  1.
          6    1    1    2  501    0  0.34920601358E+01 -0.42433052567E+02  0.46507721563E+02  0.18319314015E+03  0.17200000000E+03 0. -1.
         -6    1    1    2    0  502 -0.34920601358E+01  0.42433052567E+02  0.16852557102E+03  0.24453553223E+03  0.17200000000E+03 0. -1.
<mgrwt>
<rscale>  2 0.17719130E+03</rscale>
<asrwt>0</asrwt>
<pdfrwt beam="1">  1       21 0.80345244E-01 0.17719130E+03</pdfrwt>
<pdfrwt beam="2">  1       21 0.26586923E-01 0.17719130E+03</pdfrwt>
<totfact> 0.18512961E+04</totfact>
</mgrwt>
</event>
<event>
 4    1  0.1132373E+000  0.2069271E+03  0.7546771E-02  0.1144023E+00
         21   -1    0    0  503  502  0.00000000000E+00  0.00000000000E+00  0.55848015293E+02  0.55848015293E+02  0.00000000000E+00 0.  1.
         21   -1    0    0  501  503 -0.00000000000E+00 -0.00000000000E+00 -0.78609318071E+03  0.78609318071E+03  0.00000000000E+00 0. -1.
          6    1    1    2  501    0 -0.11434467919E+03  0.12653422195E+02 -0.29900592133E+03  0.36362529580E+03  0.17200000000E+03 0.  1.
         -6    1    1    2    0  502  0.11434467919E+03 -0.12653422195E+02 -0.43123924408E+03  0.47831590021E+03  0.17200000000E+03 0. -1.
<mgrwt>
<rscale>  2 0.20692708E+03</rscale>
<asrwt>0</asrwt>
<pdfrwt beam="1">  1       21 0.13962004E-01 0.20692708E+03</pdfrwt>
<pdfrwt beam="2">  1       21 0.19652329E+00 0.20692708E+03</pdfrwt>
<totfact> 0.62387950E+03</totfact>
</mgrwt>
</event>
<event>
 4    1  0.1132373E+000  0.1865147E+03  0.7546771E-02  0.1161643E+00
         21   -1    0    0  503  502  0.00000000000E+00  0.00000000000E+00  0.34542781143E+02  0.34542781143E+02  0.00000000000E+00 0.  1.
         21   -1    0    0  501  503 -0.00000000000E+00 -0.00000000000E+00 -0.12134142997E+04  0.12134142997E+04  0.00000000000E+00 0. -1.
          6    1    1    2  501    0 -0.22592276467E+02 -0.68507814313E+02 -0.84673529714E+03  0.86703425250E+03  0.17200000000E+03 0. -1.
         -6    1    1    2    0  502  0.22592276467E+02  0.68507814313E+02 -0.33213622140E+03  0.38092282833E+03  0.17200000000E+03 0.  1.
<mgrwt>
<rscale>  2 0.18651470E+03</rscale>
<asrwt>0</asrwt>
<pdfrwt beam="1">  1       21 0.86356954E-02 0.18651470E+03</pdfrwt>
<pdfrwt beam="2">  1       21 0.30335357E+00 0.18651470E+03</pdfrwt>
<totfact> 0.34549668E+03</totfact>
</mgrwt>
</event>
<event>
 4    1  0.1132373E+000  0.1814391E+03  0.7546771E-02  0.1166417E+00
         21   -1    0    0  501  502  0.00000000000E+00  0.00000000000E+00  0.19684296146E+03  0.19684296146E+03  0.00000000000E+00 0.  1.
         21   -1    0    0  502  503 -0.00000000000E+00 -0.00000000000E+00 -0.17773463523E+03  0.17773463523E+03  0.00000000000E+00 0. -1.
          6    1    1    2  501    0 -0.22054834034E+02  0.53383024143E+02  0.55062827105E+02  0.18961033173E+03  0.17200000000E+03 0. -1.
         -6    1    1    2    0  503  0.22054834034E+02 -0.53383024143E+02 -0.35954500874E+02  0.18496726495E+03  0.17200000000E+03 0.  1.
<mgrwt>
<rscale>  2 0.18143914E+03</rscale>
<asrwt>0</asrwt>
<pdfrwt beam="1">  1       21 0.49210740E-01 0.18143914E+03</pdfrwt>
<pdfrwt beam="2">  1       21 0.44433659E-01 0.18143914E+03</pdfrwt>
<totfact> 0.19285243E+04</totfact>
</mgrwt>
</event>
<event>
 4    1  0.1132373E+000  0.3148436E+03  0.7546771E-02  0.1078047E+00
         21   -1    0    0  503  502  0.00000000000E+00  0.00000000000E+00  0.62759043867E+03  0.62759043867E+03  0.00000000000E+00 0.  1.
         21   -1    0    0  501  503 -0.00000000000E+00 -0.00000000000E+00 -0.15810275523E+03  0.15810275523E+03  0.00000000000E+00 0.  1.
          6    1    1    2  501    0  0.10630667593E+03  0.24133256802E+03  0.22244450350E+03  0.38549717881E+03  0.17200000000E+03 0.  1.
         -6    1    1    2    0  502 -0.10630667593E+03 -0.24133256802E+03  0.24704317994E+03  0.40019601508E+03  0.17200000000E+03 0.  1.
<mgrwt>
<rscale>  2 0.31484364E+03</rscale>
<asrwt>0</asrwt>
<pdfrwt beam="1">  1       21 0.15689760E+00 0.31484364E+03</pdfrwt>
<pdfrwt beam="2">  1       21 0.39525690E-01 0.31484364E+03</pdfrwt>
<totfact> 0.14873739E+03</totfact>
</mgrwt>
</event>
<event>
 4    1  0.1132373E+000  0.1745664E+03  0.7546771E-02  0.1173168E+00
         21   -1    0    0  503  502  0.00000000000E+00  0.00000000000E+00  0.10144449060E+03  0.10144449060E+03  0.00000000000E+00 0. -1.
         21   -1    0    0  501  503 -0.00000000000E+00 -0.00000000000E+00 -0.30684586559E+03  0.30684586559E+03  0.00000000000E+00 0. -1.
          6    1    1    2  501    0 -0.29793201434E+02  0.13369327804E+01 -0.73101042931E+02  0.18925428587E+03  0.17200000000E+03 0.  1.
         -6    1    1    2    0  502  0.29793201434E+02 -0.13369327804E+01 -0.13230033205E+03  0.21903607032E+03  0.17200000000E+03 0.  1.
<mgrwt>
<rscale>  2 0.17456638E+03</rscale>
<asrwt>0</asrwt>
<pdfrwt beam="1">  1       21 0.25361123E-01 0.17456638E+03</pdfrwt>
<pdfrwt beam="2">  1       21 0.76711465E-01 0.17456638E+03</pdfrwt>
<totfact> 0.22518860E+04</totfact>
</mgrwt>
</event>
<event>
 4    1  0.1132373E+000  0.1955591E+03  0.7546771E-02  0.1153541E+00
         21   -1    0    0  503  502  0.00000000000E+00  0.00000000000E+00  0.66707165050E+03  0.66707165050E+03  0.00000000000E+00 0. -1.
         21   -1    0    0  501  503 -0.00000000000E+00 -0.00000000000E+00 -0.17856304649E+03  0.17856304649E+03  0.00000000000E+00 0. -1.
          6    1    1    2  501    0  0.46003997398E+02 -0.80888844575E+02 -0.10413683454E+03  0.22155778763E+03  0.17200000000E+03 0. -1.
         -6    1    1    2    0  502 -0.46003997398E+02  0.80888844575E+02  0.59264543855E+03  0.62407690936E+03  0.17200000000E+03 0. -1.
<mgrwt>
<rscale>  2 0.19555913E+03</rscale>
<asrwt>0</asrwt>
<pdfrwt beam="1">  1       21 0.16676791E+00 0.19555913E+03</pdfrwt>
<pdfrwt beam="2">  1       21 0.44640763E-01 0.19555913E+03</pdfrwt>
<totfact> 0.10801593E+03</totfact>
</mgrwt>
</event>
<event>
 4    1  0.1132373E+000  0.1942354E+03  0.7546771E-02  0.1154696E+00
         21   -1    0    0  503  502  0.00000000000E+00  0.00000000000E+00  0.81498748976E+02  0.81498748976E+02  0.00000000000E+00 0.  1.
         21   -1    0    0  501  503 -0.00000000000E+00 -0.00000000000E+00 -0.47679273139E+03  0.47679273139E+03  0.00000000000E+00 0.  1.
          6    1    1    2  501    0  0.81795403544E+02  0.38117102707E+02 -0.24526234867E+03  0.31285942727E+03  0.17200000000E+03 0.  1.
         -6    1    1    2    0  502 -0.81795403544E+02 -0.38117102707E+02 -0.15003163374E+03  0.24543205309E+03  0.17200000000E+03 0.  1.
<mgrwt>
<rscale>  2 0.19423543E+03</rscale>
<asrwt>0</asrwt>
<pdfrwt beam="1">  1       21 0.20374688E-01 0.19423543E+03</pdfrwt>
<pdfrwt beam="2">  1       21 0.11919818E+00 0.19423543E+03</pdfrwt>
<totfact> 0.11958955E+04</totfact>
</mgrwt>
</event>
<event>
 4    1  0.1132373E+000  0.1771731E+03  0.7546771E-02  0.1170567E+00
         21   -1    0    0  501  502  0.00000000000E+00  0.00000000000E+00  0.66416510175E+03  0.66416510175E+03  0.00000000000E+00 0.  1.
         21   -1    0    0  502  503 -0.00000000000E+00 -0.00000000000E+00 -0.10127110167E+03  0.10127110167E+03  0.00000000000E+00 0.  1.
          6    1    1    2  501    0 -0.31250778562E+02 -0.28804427568E+02  0.56093712884E+03  0.58825230022E+03  0.17200000000E+03 0.  1.
         -6    1    1    2    0  503  0.31250778562E+02  0.28804427568E+02  0.19568712409E+01  0.17718390320E+03  0.17200000000E+03 0.  1.
<mgrwt>
<rscale>  2 0.17717310E+03</rscale>
<asrwt>0</asrwt>
<pdfrwt beam="1">  1       21 0.16604126E+00 0.17717310E+03</pdfrwt>
<pdfrwt beam="2">  1       21 0.25317777E-01 0.17717310E+03</pdfrwt>
<totfact> 0.34148624E+03</totfact>
</mgrwt>
</event>
<event>
 4    1  0.1132373E+000  0.1997015E+03  0.7546771E-02  0.1149991E+00
         21   -1    0    0  501  502  0.00000000000E+00  0.00000000000E+00  0.71642487637E+02  0.71642487637E+02  0.00000000000E+00 0.  1.
         21   -1    0    0  502  503 -0.00000000000E+00 -0.00000000000E+00 -0.55666572751E+03  0.55666572751E+03  0.00000000000E+00 0. -1.
          6    1    1    2  501    0 -0.91746419652E+02 -0.43350878821E+02 -0.24178510742E+03  0.31359327542E+03  0.17200000000E+03 0. -1.
         -6    1    1    2    0  503  0.91746419652E+02  0.43350878821E+02 -0.24323813245E+03  0.31471493973E+03  0.17200000000E+03 0. -1.
<mgrwt>
<rscale>  2 0.19970154E+03</rscale>
<asrwt>0</asrwt>
<pdfrwt beam="1">  1       21 0.17910622E-01 0.19970154E+03</pdfrwt>
<pdfrwt beam="2">  1       21 0.13916643E+00 0.19970154E+03</pdfrwt>
<totfact> 0.10243123E+04</totfact>
</mgrwt>
</event>
<event>
 4    1  0.1132373E+000  0.1790610E+03  0.7546771E-02  0.1168715E+00
         21   -1    0    0  503  502  0.00000000000E+00  0.00000000000E+00  0.10290997871E+03  0.10290997871E+03  0.00000000000E+00 0.  1.
         21   -1    0    0  501  503 -0.00000000000E+00 -0.00000000000E+00 -0.77752541333E+03  0.77752541333E+03  0.00000000000E+00 0.  1.
          6    1    1    2  501    0 -0.16706548849E+02 -0.46901415767E+02 -0.67809709632E+03  0.70134051901E+03  0.17200000000E+03 0.  1.
         -6    1    1    2    0  502  0.16706548849E+02  0.46901415767E+02  0.34816616934E+01  0.17909487302E+03  0.17200000000E+03 0.  1.
<mgrwt>
<rscale>  2 0.17906103E+03</rscale>
<asrwt>0</asrwt>
<pdfrwt beam="1">  1       21 0.25727495E-01 0.17906103E+03</pdfrwt>
<pdfrwt beam="2">  1       21 0.19438135E+00 0.17906103E+03</pdfrwt>
<totfact> 0.21234694E+03</totfact>
</mgrwt>
</event>
<event>
 4    1  0.1132373E+000  0.2139950E+03  0.7546771E-02  0.1138441E+00
         21   -1    0    0  503  502  0.00000000000E+00  0.00000000000E+00  0.21305230084E+03  0.21305230084E+03  0.00000000000E+00 0. -1.
         21   -1    0    0  501  503 -0.00000000000E+00 -0.00000000000E+00 -0.28610775011E+03  0.28610775011E+03  0.00000000000E+00 0. -1.
          6    1    1    2  501    0  0.12488939701E+03 -0.24748785446E+02 -0.16100236205E+03  0.26779773048E+03  0.17200000000E+03 0. -1.
         -6    1    1    2    0  502 -0.12488939701E+03  0.24748785446E+02  0.87946912780E+02  0.23136232047E+03  0.17200000000E+03 0. -1.
<mgrwt>
<rscale>  2 0.21399501E+03</rscale>
<asrwt>0</asrwt>
<pdfrwt beam="1">  1       21 0.53263075E-01 0.21399501E+03</pdfrwt>
<pdfrwt beam="2">  1       21 0.71526937E-01 0.21399501E+03</pdfrwt>
<totfact> 0.58037733E+03</totfact>
</mgrwt>
</event>
<event>
 4    1  0.1132373E+000  0.2244587E+03  0.7546771E-02  0.1130602E+00
         21   -1    0    0  501  502  0.00000000000E+00  0.00000000000E+00  0.88626620188E+03  0.88626620188E+03  0.00000000000E+00 0. -1.
         21   -1    0    0  502  503 -0.00000000000E+00 -0.00000000000E+00 -0.59683125172E+02  0.59683125172E+02  0.00000000000E+00 0. -1.
          6    1    1    2  501    0 -0.93410041361E+02  0.10987398727E+03  0.51639220673E+03  0.56306539591E+03  0.17200000000E+03 0. -1.
         -6    1    1    2    0  503  0.93410041361E+02 -0.10987398727E+03  0.31019086998E+03  0.38288393114E+03  0.17200000000E+03 0. -1.
<mgrwt>
<rscale>  2 0.22445875E+03</rscale>
<asrwt>0</asrwt>
<pdfrwt beam="1">  1       21 0.22156651E+00 0.22445875E+03</pdfrwt>
<pdfrwt beam="2">  1       21 0.14920784E-01 0.22445875E+03</pdfrwt>
<totfact> 0.37812294E+03</totfact>
</mgrwt>
</event>
<event>
 4    1  0.1132373E+000  0.2204010E+03  0.7546771E-02  0.1133584E+00
         21   -1    0    0  501  502  0.00000000000E+00  0.00000000000E+00  0.20571487732E+03  0.20571487732E+03  0.00000000000E+00 0. -1.
         21   -1    0    0  502  503 -0.00000000000E+00 -0.00000000000E+00 -0.46986367824E+03  0.46986367824E+03  0.00000000000E+00 0.  1.
          6    1    1    2  501    0  0.80560306594E+02  0.11181516316E+03  0.10616600658E+03  0.24463813003E+03  0.17200000000E+03 0. -1.
         -6    1    1    2    0  503 -0.80560306594E+02 -0.11181516316E+03 -0.37031480750E+03  0.43094042554E+03  0.17200000000E+03 0.  1.
<mgrwt>
<rscale>  2 0.22040098E+03</rscale>
<asrwt>0</asrwt>
<pdfrwt beam="1">  1       21 0.51428720E-01 0.22040098E+03</pdfrwt>
<pdfrwt beam="2">  1       21 0.11746592E+00 0.22040098E+03</pdfrwt>
<totfact> 0.19511504E+03</totfact>
</mgrwt>
</event>
<event>
 4    1  0.1132373E+000  0.1917413E+03  0.7546771E-02  0.1156900E+00
         21   -1    0    0  503  502  0.00000000000E+00  0.00000000000E+00  0.10094858569E+03  0.10094858569E+03  0.00000000000E+00 0. -1.
         21   -1    0    0  501  503 -0.00000000000E+00 -0.00000000000E+00 -0.48387687083E+03  0.48387687083E+03  0.00000000000E+00 0.  1.
          6    1    1    2  501    0 -0.40925793614E+02  0.74201006956E+02 -0.33689203205E+03  0.38763507487E+03  0.17200000000E+03 0.  1.
         -6    1    1    2    0  502  0.40925793614E+02 -0.74201006956E+02 -0.46036253093E+02  0.19719038165E+03  0.17200000000E+03 0. -1.
<mgrwt>
<rscale>  2 0.19174126E+03</rscale>
<asrwt>0</asrwt>
<pdfrwt beam="1">  1       21 0.25237147E-01 0.19174126E+03</pdfrwt>
<pdfrwt beam="2">  1       21 0.12096922E+00 0.19174126E+03</pdfrwt>
<totfact> 0.77063218E+03</totfact>
</mgrwt>
</event>
<event>
 4    1  0.1132373E+000  0.1822700E+03  0.7546771E-02  0.1165624E+00
         21   -1    0    0  501  502  0.00000000000E+00  0.00000000000E+00  0.87473816903E+02  0.87473816903E+02  0.00000000000E+00 0.  1.
         21   -1    0    0  502  503 -0.00000000000E+00 -0.00000000000E+00 -0.54005529805E+03  0.54005529805E+03  0.00000000000E+00 0.  1.
          6    1    1    2  501    0  0.36389393940E+02  0.48105927298E+02 -0.55370352381E+02  0.19049473524E+03  0.17200000000E+03 0.  1.
         -6    1    1    2    0  503 -0.36389393940E+02 -0.48105927298E+02 -0.39721112877E+03  0.43703437971E+03  0.17200000000E+03 0.  1.
<mgrwt>
<rscale>  2 0.18227004E+03</rscale>
<asrwt>0</asrwt>
<pdfrwt beam="1">  1       21 0.21868454E-01 0.18227004E+03</pdfrwt>
<pdfrwt beam="2">  1       21 0.13501382E+00 0.18227004E+03</pdfrwt>
<totfact> 0.77293146E+03</totfact>
</mgrwt>
</event>
<event>
 4    1  0.1132373E+000  0.1744792E+03  0.7546771E-02  0.1173256E+00
         21   -1    0    0  503  502  0.00000000000E+00  0.00000000000E+00  0.20078857923E+03  0.20078857923E+03  0.00000000000E+00 0.  1.
         21   -1    0    0  501  503 -0.00000000000E+00 -0.00000000000E+00 -0.19352765011E+03  0.19352765011E+03  0.00000000000E+00 0.  1.
          6    1    1    2  501    0 -0.14563783704E+02  0.25433770912E+02  0.95380209757E+02  0.19884759217E+03  0.17200000000E+03 0.  1.
         -6    1    1    2    0  502  0.14563783704E+02 -0.25433770912E+02 -0.88119280634E+02  0.19546863717E+03  0.17200000000E+03 0.  1.
<mgrwt>
<rscale>  2 0.17447917E+03</rscale>
<asrwt>0</asrwt>
<pdfrwt beam="1">  1       21 0.50197145E-01 0.17447917E+03</pdfrwt>
<pdfrwt beam="2">  1       21 0.48381913E-01 0.17447917E+03</pdfrwt>
<totfact> 0.15600632E+04</totfact>
</mgrwt>
</event>
<event>
 4    1  0.1132373E+000  0.1906568E+03  0.7546771E-02  0.1157870E+00
         21   -1    0    0  501  502  0.00000000000E+00  0.00000000000E+00  0.15014978440E+03  0.15014978440E+03  0.00000000000E+00 0. -1.
         21   -1    0    0  502  503 -0.00000000000E+00 -0.00000000000E+00 -0.51314392464E+03  0.51314392464E+03  0.00000000000E+00 0. -1.
          6    1    1    2  501    0  0.46186723391E+02  0.68064659661E+02  0.59539424577E+02  0.19973721334E+03  0.17200000000E+03 0. -1.
         -6    1    1    2    0  503 -0.46186723391E+02 -0.68064659661E+02 -0.42253356482E+03  0.46355649571E+03  0.17200000000E+03 0. -1.
<mgrwt>
<rscale>  2 0.19065679E+03</rscale>
<asrwt>0</asrwt>
<pdfrwt beam="1">  1       21 0.37537447E-01 0.19065679E+03</pdfrwt>
<pdfrwt beam="2">  1       21 0.12828598E+00 0.19065679E+03</pdfrwt>
<totfact> 0.30646725E+03</totfact>
</mgrwt>
</event>
<event>
 4    1  0.1132373E+000  0.1730010E+03  0.7546771E-02  0.1174754E+00
         21   -1    0    0  501  502  0.00000000000E+00  0.00000000000E+00  0.20377812805E+02  0.20377812805E+02  0.00000000000E+00 0. -1.
         21   -1    0    0  502  503 -0.00000000000E+00 -0.00000000000E+00 -0.15367325478E+04  0.15367325478E+04  0.00000000000E+00 0. -1.
          6    1    1    2  501    0  0.74280199988E+01  0.17034156719E+02 -0.59439052239E+03  0.61905527304E+03  0.17200000000E+03 0. -1.
         -6    1    1    2    0  503 -0.74280199988E+01 -0.17034156719E+02 -0.92196421259E+03  0.93805508755E+03  0.17200000000E+03 0. -1.
<mgrwt>
<rscale>  2 0.17300098E+03</rscale>
<asrwt>0</asrwt>
<pdfrwt beam="1">  1       21 0.50944530E-02 0.17300098E+03</pdfrwt>
<pdfrwt beam="2">  1       21 0.38418315E+00 0.17300098E+03</pdfrwt>
<totfact> 0.29256154E+03</totfact>
</mgrwt>
</event>
<event>
 4    1  0.1132373E+000  0.1721870E+03  0.7546771E-02  0.1175586E+00
         21   -1    0    0  501  502  0.00000000000E+00  0.00000000000E+00  0.67673404022E+02  0.67673404022E+02  0.00000000000E+00 0. -1.
         21   -1    0    0  502  503 -0.00000000000E+00 -0.00000000000E+00 -0.61224187175E+03  0.61224187175E+03  0.00000000000E+00 0. -1.
          6    1    1    2  501    0 -0.76550148064E+01 -0.24037091029E+01 -0.90982167393E+02  0.19474632693E+03  0.17200000000E+03 0. -1.
         -6    1    1    2    0  503  0.76550148064E+01  0.24037091029E+01 -0.45358630033E+03  0.48516894884E+03  0.17200000000E+03 0. -1.
<mgrwt>
<rscale>  2 0.17218704E+03</rscale>
<asrwt>0</asrwt>
<pdfrwt beam="1">  1       21 0.16918351E-01 0.17218704E+03</pdfrwt>
<pdfrwt beam="2">  1       21 0.15306047E+00 0.17218704E+03</pdfrwt>
<totfact> 0.90665880E+03</totfact>
</mgrwt>
</event>
<event>
 4    1  0.1132373E+000  0.1916177E+03  0.7546771E-02  0.1157010E+00
         21   -1    0    0  501  502  0.00000000000E+00  0.00000000000E+00  0.24372589489E+03  0.24372589489E+03  0.00000000000E+00 0.  1.
         21   -1    0    0  502  503 -0.00000000000E+00 -0.00000000000E+00 -0.23212954801E+03  0.23212954801E+03  0.00000000000E+00 0. -1.
          6    1    1    2  501    0  0.20940166102E+02 -0.81822043146E+02  0.14676073942E+03  0.24136290505E+03  0.17200000000E+03 0.  1.
         -6    1    1    2    0  503 -0.20940166102E+02  0.81822043146E+02 -0.13516439254E+03  0.23449253786E+03  0.17200000000E+03 0. -1.
<mgrwt>
<rscale>  2 0.19161769E+03</rscale>
<asrwt>0</asrwt>
<pdfrwt beam="1">  1       21 0.60931474E-01 0.19161769E+03</pdfrwt>
<pdfrwt beam="2">  1       21 0.58032387E-01 0.19161769E+03</pdfrwt>
<totfact> 0.69819539E+03</totfact>
</mgrwt>
</event>
<event>
 4    1  0.1132373E+000  0.2521186E+03  0.7546771E-02  0.1111973E+00
         21   -1    0    0  503  502  0.00000000000E+00  0.00000000000E+00  0.62143006829E+03  0.62143006829E+03  0.00000000000E+00 0.  1.
         21   -1    0    0  501  503 -0.00000000000E+00 -0.00000000000E+00 -0.14704649214E+03  0.14704649214E+03  0.00000000000E+00 0. -1.
          6    1    1    2  501    0  0.16698513057E+03  0.78075354726E+02  0.25199935898E+02  0.25337488355E+03  0.17200000000E+03 0.  1.
         -6    1    1    2    0  502 -0.16698513057E+03 -0.78075354726E+02  0.44918364026E+03  0.51510167688E+03  0.17200000000E+03 0. -1.
<mgrwt>
<rscale>  2 0.25211861E+03</rscale>
<asrwt>0</asrwt>
<pdfrwt beam="1">  1       21 0.15535751E+00 0.25211861E+03</pdfrwt>
<pdfrwt beam="2">  1       21 0.36761625E-01 0.25211861E+03</pdfrwt>
<totfact> 0.18462797E+03</totfact>
</mgrwt>
</event>
<event>
 4    1  0.1132373E+000  0.2483303E+03  0.7546771E-02  0.1114365E+00
         21   -1    0    0  503  502  0.00000000000E+00  0.00000000000E+00  0.17533420206E+03  0.17533420206E+03  0.00000000000E+00 0.  1.
         21   -1    0    0  501  503 -0.00000000000E+00 -0.00000000000E+00 -0.37317838574E+03  0.37317838574E+03  0.00000000000E+00 0. -1.
          6    1    1    2  501    0 -0.27065976130E+01 -0.17909944977E+03 -0.16469270864E+03  0.29797923897E+03  0.17200000000E+03 0.  1.
         -6    1    1    2    0  502  0.27065976130E+01  0.17909944977E+03 -0.33151475038E+02  0.25053334883E+03  0.17200000000E+03 0.  1.
<mgrwt>
<rscale>  2 0.24833030E+03</rscale>
<asrwt>0</asrwt>
<pdfrwt beam="1">  1       21 0.43833551E-01 0.24833030E+03</pdfrwt>
<pdfrwt beam="2">  1       21 0.93294595E-01 0.24833030E+03</pdfrwt>
<totfact> 0.46426286E+03</totfact>
</mgrwt>
</event>
<event>
 4    1  0.1132373E+000  0.1738290E+03  0.7546771E-02  0.1173913E+00
         21   -1    0    0  501  502  0.00000000000E+00  0.00000000000E+00  0.64768878187E+03  0.64768878187E+03  0.00000000000E+00 0. -1.
         21   -1    0    0  502  503 -0.00000000000E+00 -0.00000000000E+00 -0.16197844688E+03  0.16197844688E+03  0.00000000000E+00 0. -1.
          6    1    1    2  501    0  0.81722091194E+01  0.23785257020E+02  0.58444962715E+03  0.60975231867E+03  0.17200000000E+03 0. -1.
         -6    1    1    2    0  503 -0.81722091194E+01 -0.23785257020E+02 -0.98739292163E+02  0.19991491007E+03  0.17200000000E+03 0. -1.
<mgrwt>
<rscale>  2 0.17382901E+03</rscale>
<asrwt>0</asrwt>
<pdfrwt beam="1">  1       21 0.16192219E+00 0.17382901E+03</pdfrwt>
<pdfrwt beam="2">  1       21 0.40494613E-01 0.17382901E+03</pdfrwt>
<totfact> 0.14607756E+03</totfact>
</mgrwt>
</event>
<event>
 4    1  0.1132373E+000  0.2072094E+03  0.7546771E-02  0.1143795E+00
         21   -1    0    0  501  502  0.00000000000E+00  0.00000000000E+00  0.17202411631E+03  0.17202411631E+03  0.00000000000E+00 0.  1.
         21   -1    0    0  502  503 -0.00000000000E+00 -0.00000000000E+00 -0.26940011621E+03  0.26940011621E+03  0.00000000000E+00 0.  1.
          6    1    1    2  501    0 -0.11440989807E+03 -0.16189263005E+02 -0.10853700251E+03  0.23391450987E+03  0.17200000000E+03 0.  1.
         -6    1    1    2    0  503  0.11440989807E+03  0.16189263005E+02  0.11161002610E+02  0.20750972265E+03  0.17200000000E+03 0.  1.
<mgrwt>
<rscale>  2 0.20720936E+03</rscale>
<asrwt>0</asrwt>
<pdfrwt beam="1">  1       21 0.43006029E-01 0.20720936E+03</pdfrwt>
<pdfrwt beam="2">  1       21 0.67350029E-01 0.20720936E+03</pdfrwt>
<totfact> 0.10383127E+04</totfact>
</mgrwt>
</event>
<event>
 4    1  0.1132373E+000  0.2389026E+03  0.7546771E-02  0.1120526E+00
         21   -1    0    0  503  502  0.00000000000E+00  0.00000000000E+00  0.14448270695E+03  0.14448270695E+03  0.00000000000E+00 0. -1.
         21   -1    0    0  501  503 -0.00000000000E+00 -0.00000000000E+00 -0.72887939975E+03  0.72887939975E+03  0.00000000000E+00 0. -1.
          6    1    1    2  501    0 -0.14808811824E+03 -0.74567686653E+02 -0.58773706839E+03  0.63443620027E+03  0.17200000000E+03 0. -1.
         -6    1    1    2    0  502  0.14808811824E+03  0.74567686653E+02  0.33403755939E+01  0.23892590643E+03  0.17200000000E+03 0. -1.
<mgrwt>
<rscale>  2 0.23890255E+03</rscale>
<asrwt>0</asrwt>
<pdfrwt beam="1">  1       21 0.36120677E-01 0.23890255E+03</pdfrwt>
<pdfrwt beam="2">  1       21 0.18221985E+00 0.23890255E+03</pdfrwt>
<totfact> 0.12417554E+03</totfact>
</mgrwt>
</event>
<event>
 4    1  0.1132373E+000  0.2025610E+03  0.7546771E-02  0.1147596E+00
         21   -1    0    0  501  502  0.00000000000E+00  0.00000000000E+00  0.79191874487E+02  0.79191874487E+02  0.00000000000E+00 0. -1.
         21   -1    0    0  502  503 -0.00000000000E+00 -0.00000000000E+00 -0.55806388179E+03  0.55806388179E+03  0.00000000000E+00 0.  1.
          6    1    1    2  501    0  0.87630778466E+02 -0.61382484698E+02 -0.32467969105E+03  0.38268507227E+03  0.17200000000E+03 0.  1.
         -6    1    1    2    0  503 -0.87630778466E+02  0.61382484698E+02 -0.15419231626E+03  0.25457068401E+03  0.17200000000E+03 0. -1.
<mgrwt>
<rscale>  2 0.20256101E+03</rscale>
<asrwt>0</asrwt>
<pdfrwt beam="1">  1       21 0.19797969E-01 0.20256101E+03</pdfrwt>
<pdfrwt beam="2">  1       21 0.13951597E+00 0.20256101E+03</pdfrwt>
<totfact> 0.84295938E+03</totfact>
</mgrwt>
</event>
<event>
 4    1  0.1132373E+000  0.2688469E+03  0.7546771E-02  0.1101941E+00
         21   -1    0    0  501  502  0.00000000000E+00  0.00000000000E+00  0.12615064208E+04  0.12615064208E+04  0.00000000000E+00 0.  1.
         21   -1    0    0  502  503 -0.00000000000E+00 -0.00000000000E+00 -0.11104278631E+03  0.11104278631E+03  0.00000000000E+00 0.  1.
          6    1    1    2  501    0  0.16780170571E+03 -0.12057045717E+03  0.10526852305E+04  0.10864735810E+04  0.17200000000E+03 0.  1.
         -6    1    1    2    0  503 -0.16780170571E+03  0.12057045717E+03  0.97778403935E+02  0.28607562612E+03  0.17200000000E+03 0.  1.
<mgrwt>
<rscale>  2 0.26884689E+03</rscale>
<asrwt>0</asrwt>
<pdfrwt beam="1">  1       21 0.31537656E+00 0.26884689E+03</pdfrwt>
<pdfrwt beam="2">  1       21 0.27760700E-01 0.26884689E+03</pdfrwt>
<totfact> 0.31259895E+02</totfact>
</mgrwt>
</event>
<event>
 4    1  0.1132373E+000  0.1762182E+03  0.7546771E-02  0.1171514E+00
         21   -1    0    0  501  502  0.00000000000E+00  0.00000000000E+00  0.76999831048E+02  0.76999831048E+02  0.00000000000E+00 0.  1.
         21   -1    0    0  502  503 -0.00000000000E+00 -0.00000000000E+00 -0.75853878562E+03  0.75853878562E+03  0.00000000000E+00 0.  1.
          6    1    1    2  501    0  0.37588107902E+02 -0.74835023680E+01 -0.54867566803E+02  0.18456250581E+03  0.17200000000E+03 0.  1.
         -6    1    1    2    0  503 -0.37588107902E+02  0.74835023680E+01 -0.62667138777E+03  0.65097611086E+03  0.17200000000E+03 0.  1.
<mgrwt>
<rscale>  2 0.17621824E+03</rscale>
<asrwt>0</asrwt>
<pdfrwt beam="1">  1       21 0.19249958E-01 0.17621824E+03</pdfrwt>
<pdfrwt beam="2">  1       21 0.18963470E+00 0.17621824E+03</pdfrwt>
<totfact> 0.39500549E+03</totfact>
</mgrwt>
</event>
<event>
 4    1  0.1132373E+000  0.1801572E+03  0.7546771E-02  0.1167651E+00
         21   -1    0    0  501  502  0.00000000000E+00  0.00000000000E+00  0.23503378580E+03  0.23503378580E+03  0.00000000000E+00 0.  1.
         21   -1    0    0  502  503 -0.00000000000E+00 -0.00000000000E+00 -0.17320609275E+03  0.17320609275E+03  0.00000000000E+00 0. -1.
          6    1    1    2  501    0  0.38622638711E+02 -0.37160399799E+02  0.12281822602E+03  0.21803880429E+03  0.17200000000E+03 0.  1.
         -6    1    1    2    0  503 -0.38622638711E+02  0.37160399799E+02 -0.60990532972E+02  0.19020107425E+03  0.17200000000E+03 0. -1.
<mgrwt>
<rscale>  2 0.18015716E+03</rscale>
<asrwt>0</asrwt>
<pdfrwt beam="1">  1       21 0.58758446E-01 0.18015716E+03</pdfrwt>
<pdfrwt beam="2">  1       21 0.43301523E-01 0.18015716E+03</pdfrwt>
<totfact> 0.14007185E+04</totfact>
</mgrwt>
</event>
<event>
 4    1  0.1132373E+000  0.2306920E+03  0.7546771E-02  0.1126154E+00
         21   -1    0    0  503  502  0.00000000000E+00  0.00000000000E+00  0.40000391173E+03  0.40000391173E+03  0.00000000000E+00 0.  1.
         21   -1    0    0  501  503 -0.00000000000E+00 -0.00000000000E+00 -0.25047663467E+03  0.25047663467E+03  0.00000000000E+00 0.  1.
          6    1    1    2  501    0 -0.14578698480E+03 -0.48795190905E+02 -0.14793209468E+03  0.27404875521E+03  0.17200000000E+03 0.  1.
         -6    1    1    2    0  502  0.14578698480E+03  0.48795190905E+02  0.29745937174E+03  0.37643179120E+03  0.17200000000E+03 0.  1.
<mgrwt>
<rscale>  2 0.23069204E+03</rscale>
<asrwt>0</asrwt>
<pdfrwt beam="1">  1       21 0.10000098E+00 0.23069204E+03</pdfrwt>
<pdfrwt beam="2">  1       21 0.62619159E-01 0.23069204E+03</pdfrwt>
<totfact> 0.18774790E+03</totfact>
</mgrwt>
</event>
<event>
 4    1  0.1132373E+000  0.1786370E+03  0.7546771E-02  0.1169129E+00
         21   -1    0    0  503  502  0.00000000000E+00  0.00000000000E+00  0.16193073135E+03  0.16193073135E+03  0.00000000000E+00 0.  1.
         21   -1    0    0  501  503 -0.00000000000E+00 -0.00000000000E+00 -0.28386516907E+03  0.28386516907E+03  0.00000000000E+00 0.  1.
          6    1    1    2  501    0  0.16829739245E+02  0.45210007707E+02 -0.18422251499E+03  0.25661083365E+03  0.17200000000E+03 0.  1.
         -6    1    1    2    0  502 -0.16829739245E+02 -0.45210007707E+02  0.62288077270E+02  0.18918506677E+03  0.17200000000E+03 0.  1.
<mgrwt>
<rscale>  2 0.17863702E+03</rscale>
<asrwt>0</asrwt>
<pdfrwt beam="1">  1       21 0.40482683E-01 0.17863702E+03</pdfrwt>
<pdfrwt beam="2">  1       21 0.70966292E-01 0.17863702E+03</pdfrwt>
<totfact> 0.10671376E+04</totfact>
</mgrwt>
</event>
<event>
 4    1  0.1132373E+000  0.1867858E+03  0.7546771E-02  0.1161393E+00
         21   -1    0    0  501  502  0.00000000000E+00  0.00000000000E+00  0.32244824502E+03  0.32244824502E+03  0.00000000000E+00 0. -1.
         21   -1    0    0  502  503 -0.00000000000E+00 -0.00000000000E+00 -0.21203490685E+03  0.21203490685E+03  0.00000000000E+00 0.  1.
          6    1    1    2  501    0  0.73505564619E+01  0.72463069980E+02  0.24221969422E+03  0.30587465972E+03  0.17200000000E+03 0. -1.
         -6    1    1    2    0  503 -0.73505564619E+01 -0.72463069980E+02 -0.13180635605E+03  0.22860849216E+03  0.17200000000E+03 0.  1.
<mgrwt>
<rscale>  2 0.18678578E+03</rscale>
<asrwt>0</asrwt>
<pdfrwt beam="1">  1       21 0.80612061E-01 0.18678578E+03</pdfrwt>
<pdfrwt beam="2">  1       21 0.53008727E-01 0.18678578E+03</pdfrwt>
<totfact> 0.45792154E+03</totfact>
</mgrwt>
</event>
<event>
 4    1  0.1132373E+000  0.1935105E+03  0.7546771E-02  0.1155333E+00
         21   -1    0    0  501  502  0.00000000000E+00  0.00000000000E+00  0.20762085752E+03  0.20762085752E+03  0.00000000000E+00 0. -1.
         21   -1    0    0  502  503 -0.00000000000E+00 -0.00000000000E+00 -0.27871223002E+03  0.27871223002E+03  0.00000000000E+00 0.  1.
          6    1    1    2  501    0  0.99659006720E+01  0.88107852544E+02  0.10890509067E+03  0.22205096629E+03  0.17200000000E+03 0.  1.
         -6    1    1    2    0  503 -0.99659006720E+01 -0.88107852544E+02 -0.17999646317E+03  0.26428212125E+03  0.17200000000E+03 0. -1.
<mgrwt>
<rscale>  2 0.19351050E+03</rscale>
<asrwt>0</asrwt>
<pdfrwt beam="1">  1       21 0.51905215E-01 0.19351050E+03</pdfrwt>
<pdfrwt beam="2">  1       21 0.69678057E-01 0.19351050E+03</pdfrwt>
<totfact> 0.65922041E+03</totfact>
</mgrwt>
</event>
<event>
 4    1  0.1132373E+000  0.1795511E+03  0.7546771E-02  0.1168238E+00
         21   -1    0    0  501  502  0.00000000000E+00  0.00000000000E+00  0.14210457585E+03  0.14210457585E+03  0.00000000000E+00 0. -1.
         21   -1    0    0  502  503 -0.00000000000E+00 -0.00000000000E+00 -0.54824707143E+03  0.54824707143E+03  0.00000000000E+00 0. -1.
          6    1    1    2  501    0 -0.35549778036E+02  0.37293704045E+02  0.61207830119E+02  0.18969714164E+03  0.17200000000E+03 0. -1.
         -6    1    1    2    0  503  0.35549778036E+02 -0.37293704045E+02 -0.46735032570E+03  0.50065450564E+03  0.17200000000E+03 0. -1.
<mgrwt>
<rscale>  2 0.17955113E+03</rscale>
<asrwt>0</asrwt>
<pdfrwt beam="1">  1       21 0.35526144E-01 0.17955113E+03</pdfrwt>
<pdfrwt beam="2">  1       21 0.13706177E+00 0.17955113E+03</pdfrwt>
<totfact> 0.29220958E+03</totfact>
</mgrwt>
</event>
<event>
 4    1  0.1132373E+000  0.1985717E+03  0.7546771E-02  0.1150950E+00
         21   -1    0    0  503  502  0.00000000000E+00  0.00000000000E+00  0.20752987465E+03  0.20752987465E+03  0.00000000000E+00 0.  1.
         21   -1    0    0  501  503 -0.00000000000E+00 -0.00000000000E+00 -0.20412345708E+03  0.20412345708E+03  0.00000000000E+00 0.  1.
          6    1    1    2  501    0 -0.22167563532E+02 -0.96722993639E+02 -0.52437144019E+02  0.20537865625E+03  0.17200000000E+03 0.  1.
         -6    1    1    2    0  502  0.22167563532E+02  0.96722993639E+02  0.55843561591E+02  0.20627467548E+03  0.17200000000E+03 0.  1.
<mgrwt>
<rscale>  2 0.19857175E+03</rscale>
<asrwt>0</asrwt>
<pdfrwt beam="1">  1       21 0.51882469E-01 0.19857175E+03</pdfrwt>
<pdfrwt beam="2">  1       21 0.51030864E-01 0.19857175E+03</pdfrwt>
<totfact> 0.12828818E+04</totfact>
</mgrwt>
</event>
<event>
 4    1  0.1132373E+000  0.2082145E+03  0.7546771E-02  0.1142988E+00
         21   -1    0    0  503  502  0.00000000000E+00  0.00000000000E+00  0.12865381607E+03  0.12865381607E+03  0.00000000000E+00 0. -1.
         21   -1    0    0  501  503 -0.00000000000E+00 -0.00000000000E+00 -0.47158490289E+03  0.47158490289E+03  0.00000000000E+00 0. -1.
          6    1    1    2  501    0 -0.95905219573E+02 -0.67612726261E+02 -0.33180869305E+03  0.39172732950E+03  0.17200000000E+03 0. -1.
         -6    1    1    2    0  502  0.95905219573E+02  0.67612726261E+02 -0.11122393774E+02  0.20851138947E+03  0.17200000000E+03 0. -1.
<mgrwt>
<rscale>  2 0.20821453E+03</rscale>
<asrwt>0</asrwt>
<pdfrwt beam="1">  1       21 0.32163454E-01 0.20821453E+03</pdfrwt>
<pdfrwt beam="2">  1       21 0.11789622E+00 0.20821453E+03</pdfrwt>
<totfact> 0.50670175E+03</totfact>
</mgrwt>
</event>
<event>
 4    1  0.1132373E+000  0.2814446E+03  0.7546771E-02  0.1094903E+00
         21   -1    0    0  501  502  0.00000000000E+00  0.00000000000E+00  0.71236150945E+03  0.71236150945E+03  0.00000000000E+00 0. -1.
         21   -1    0    0  502  503 -0.00000000000E+00 -0.00000000000E+00 -0.12603842338E+03  0.12603842338E+03  0.00000000000E+00 0. -1.
          6    1    1    2  501    0  0.99455839764E+02  0.19933789451E+03  0.43702031202E+03  0.51980555342E+03  0.17200000000E+03 0. -1.
         -6    1    1    2    0  503 -0.99455839764E+02 -0.19933789451E+03  0.14930277405E+03  0.31859437941E+03  0.17200000000E+03 0. -1.
<mgrwt>
<rscale>  2 0.28144460E+03</rscale>
<asrwt>0</asrwt>
<pdfrwt beam="1">  1       21 0.17809037E+00 0.28144460E+03</pdfrwt>
<pdfrwt beam="2">  1       21 0.31509608E-01 0.28144460E+03</pdfrwt>
<totfact> 0.16828597E+03</totfact>
</mgrwt>
</event>
<event>
 4    1  0.1132373E+000  0.2180818E+03  0.7546771E-02  0.1135321E+00
         21   -1    0    0  503  502  0.00000000000E+00  0.00000000000E+00  0.73588777398E+02  0.73588777398E+02  0.00000000000E+00 0. -1.
         21   -1    0    0  501  503 -0.00000000000E+00 -0.00000000000E+00 -0.66817958615E+03  0.66817958615E+03  0.00000000000E+00 0.  1.
          6    1    1    2  501    0 -0.99209364737E+02 -0.90184222794E+02 -0.36442442795E+03  0.42469383770E+03  0.17200000000E+03 0.  1.
         -6    1    1    2    0  502  0.99209364737E+02  0.90184222794E+02 -0.23016638081E+03  0.31707452586E+03  0.17200000000E+03 0. -1.
<mgrwt>
<rscale>  2 0.21808185E+03</rscale>
<asrwt>0</asrwt>
<pdfrwt beam="1">  1       21 0.18397195E-01 0.21808185E+03</pdfrwt>
<pdfrwt beam="2">  1       21 0.16704489E+00 0.21808185E+03</pdfrwt>
<totfact> 0.59129566E+03</totfact>
</mgrwt>
</event>
<event>
 4    1  0.1132373E+000  0.1940800E+03  0.7546771E-02  0.1154832E+00
         21   -1    0    0  503  502  0.00000000000E+00  0.00000000000E+00  0.45669288709E+03  0.45669288709E+03  0.00000000000E+00 0. -1.
         21   -1    0    0  501  503 -0.00000000000E+00 -0.00000000000E+00 -0.10496167019E+03  0.10496167019E+03  0.00000000000E+00 0.  1.
          6    1    1    2  501    0  0.45004008303E+02 -0.77831240380E+02  0.30584025741E+03  0.36222275715E+03  0.17200000000E+03 0. -1.
         -6    1    1    2    0  502 -0.45004008303E+02  0.77831240380E+02  0.45890959491E+02  0.19943180014E+03  0.17200000000E+03 0.  1.
<mgrwt>
<rscale>  2 0.19408004E+03</rscale>
<asrwt>0</asrwt>
<pdfrwt beam="1">  1       21 0.11417322E+00 0.19408004E+03</pdfrwt>
<pdfrwt beam="2">  1       21 0.26240419E-01 0.19408004E+03</pdfrwt>
<totfact> 0.82291303E+03</totfact>
</mgrwt>
</event>
<event>
 4    1  0.1132373E+000  0.2380655E+03  0.7546771E-02  0.1121088E+00
         21   -1    0    0  503  502  0.00000000000E+00  0.00000000000E+00  0.27256239423E+03  0.27256239423E+03  0.00000000000E+00 0.  1.
         21   -1    0    0  501  503 -0.00000000000E+00 -0.00000000000E+00 -0.21663250568E+03  0.21663250568E+03  0.00000000000E+00 0.  1.
          6    1    1    2  501    0 -0.98713736486E+02  0.13170712162E+03  0.76976226499E+02  0.25020093346E+03  0.17200000000E+03 0.  1.
         -6    1    1    2    0  502  0.98713736486E+02 -0.13170712162E+03 -0.21046337951E+02  0.23899396645E+03  0.17200000000E+03 0.  1.
<mgrwt>
<rscale>  2 0.23806547E+03</rscale>
<asrwt>0</asrwt>
<pdfrwt beam="1">  1       21 0.68140598E-01 0.23806547E+03</pdfrwt>
<pdfrwt beam="2">  1       21 0.54158127E-01 0.23806547E+03</pdfrwt>
<totfact> 0.61376198E+03</totfact>
</mgrwt>
</event>
<event>
 4    1  0.1132373E+000  0.2095205E+03  0.7546771E-02  0.1141946E+00
         21   -1    0    0  503  502  0.00000000000E+00  0.00000000000E+00  0.22925224379E+03  0.22925224379E+03  0.00000000000E+00 0. -1.
         21   -1    0    0  501  503 -0.00000000000E+00 -0.00000000000E+00 -0.37969676883E+03  0.37969676883E+03  0.00000000000E+00 0.  1.
          6    1    1    2  501    0  0.97041870476E+02  0.69983607990E+02 -0.28958709392E+03  0.35743463036E+03  0.17200000000E+03 0.  1.
         -6    1    1    2    0  502 -0.97041870476E+02 -0.69983607990E+02  0.13914256888E+03  0.25151438227E+03  0.17200000000E+03 0.  1.
<mgrwt>
<rscale>  2 0.20952048E+03</rscale>
<asrwt>0</asrwt>
<pdfrwt beam="1">  1       21 0.57313061E-01 0.20952048E+03</pdfrwt>
<pdfrwt beam="2">  1       21 0.94924192E-01 0.20952048E+03</pdfrwt>
<totfact> 0.26143664E+03</totfact>
</mgrwt>
</event>
<event>
 4    1  0.1132373E+000  0.1951846E+03  0.7546771E-02  0.1153867E+00
         21   -1    0    0  503  502  0.00000000000E+00  0.00000000000E+00  0.14496592006E+03  0.14496592006E+03  0.00000000000E+00 0. -1.
         21   -1    0    0  501  503 -0.00000000000E+00 -0.00000000000E+00 -0.27019779813E+03  0.27019779813E+03  0.00000000000E+00 0. -1.
          6    1    1    2  501    0 -0.78863857864E+02 -0.47890566291E+02 -0.96964273280E+02  0.21794284735E+03  0.17200000000E+03 0. -1.
         -6    1    1    2    0  502  0.78863857864E+02  0.47890566291E+02 -0.28267604795E+02  0.19722087085E+03  0.17200000000E+03 0. -1.
<mgrwt>
<rscale>  2 0.19518457E+03</rscale>
<asrwt>0</asrwt>
<pdfrwt beam="1">  1       21 0.36241480E-01 0.19518457E+03</pdfrwt>
<pdfrwt beam="2">  1       21 0.67549449E-01 0.19518457E+03</pdfrwt>
<totfact> 0.14689498E+04</totfact>
</mgrwt>
</event>
<event>
 4    1  0.1132373E+000  0.1907213E+03  0.7546771E-02  0.1157812E+00
         21   -1    0    0  503  502  0.00000000000E+00  0.00000000000E+00  0.58931039799E+02  0.58931039799E+02  0.00000000000E+00 0.  1.
         21   -1    0    0  501  503 -0.00000000000E+00 -0.00000000000E+00 -0.62065550759E+03  0.62065550759E+03  0.00000000000E+00 0.  1.
          6    1    1    2  501    0 -0.72438351134E+02  0.39285037558E+02 -0.30606687619E+03  0.36062662352E+03  0.17200000000E+03 0.  1.
         -6    1    1    2    0  502  0.72438351134E+02 -0.39285037558E+02 -0.25565759160E+03  0.31895992387E+03  0.17200000000E+03 0.  1.
<mgrwt>
<rscale>  2 0.19072134E+03</rscale>
<asrwt>0</asrwt>
<pdfrwt beam="1">  1       21 0.14732760E-01 0.19072134E+03</pdfrwt>
<pdfrwt beam="2">  1       21 0.15516387E+00 0.19072134E+03</pdfrwt>
<totfact> 0.11094178E+04</totfact>
</mgrwt>
</event>
<event>
 4    1  0.1132373E+000  0.1759375E+03  0.7546771E-02  0.1171794E+00
         21   -1    0    0  503  502  0.00000000000E+00  0.00000000000E+00  0.39425031437E+02  0.39425031437E+02  0.00000000000E+00 0. -1.
         21   -1    0    0  501  503 -0.00000000000E+00 -0.00000000000E+00 -0.99248782544E+03  0.99248782544E+03  0.00000000000E+00 0.  1.
          6    1    1    2  501    0 -0.37013657924E+02  0.57670490932E-01 -0.71236424360E+03  0.73376892123E+03  0.17200000000E+03 0.  1.
         -6    1    1    2    0  502  0.37013657924E+02 -0.57670490932E-01 -0.24069855040E+03  0.29814393565E+03  0.17200000000E+03 0. -1.
<mgrwt>
<rscale>  2 0.17593753E+03</rscale>
<asrwt>0</asrwt>
<pdfrwt beam="1">  1       21 0.98562577E-02 0.17593753E+03</pdfrwt>
<pdfrwt beam="2">  1       21 0.24812196E+00 0.17593753E+03</pdfrwt>
<totfact> 0.57790706E+03</totfact>
</mgrwt>
</event>
<event>
 4    1  0.1132373E+000  0.1775152E+03  0.7546771E-02  0.1170230E+00
         21   -1    0    0  501  502  0.00000000000E+00  0.00000000000E+00  0.60570572788E+03  0.60570572788E+03  0.00000000000E+00 0.  1.
         21   -1    0    0  502  503 -0.00000000000E+00 -0.00000000000E+00 -0.76965329928E+02  0.76965329928E+02  0.00000000000E+00 0.  1.
          6    1    1    2  501    0  0.42870811288E+02 -0.94725579180E+01  0.45867698444E+03  0.49182945404E+03  0.17200000000E+03 0.  1.
         -6    1    1    2    0  503 -0.42870811288E+02  0.94725579180E+01  0.70063413517E+02  0.19084160377E+03  0.17200000000E+03 0.  1.
<mgrwt>
<rscale>  2 0.17751517E+03</rscale>
<asrwt>0</asrwt>
<pdfrwt beam="1">  1       21 0.15142642E+00 0.17751517E+03</pdfrwt>
<pdfrwt beam="2">  1       21 0.19241334E-01 0.17751517E+03</pdfrwt>
<totfact> 0.73226207E+03</totfact>
</mgrwt>
</event>
<event>
 4    1  0.1132373E+000  0.2459160E+03  0.7546771E-02  0.1115913E+00
         21   -1    0    0  503  502  0.00000000000E+00  0.00000000000E+00  0.28690402077E+03  0.28690402077E+03  0.00000000000E+00 0. -1.
         21   -1    0    0  501  503 -0.00000000000E+00 -0.00000000000E+00 -0.23775393777E+03  0.23775393777E+03  0.00000000000E+00 0. -1.
          6    1    1    2  501    0 -0.31346798864E+02  0.17293949712E+03 -0.63778667606E+02  0.25405198268E+03  0.17200000000E+03 0. -1.
         -6    1    1    2    0  502  0.31346798864E+02 -0.17293949712E+03  0.11292875061E+03  0.27060597587E+03  0.17200000000E+03 0. -1.
<mgrwt>
<rscale>  2 0.24591603E+03</rscale>
<asrwt>0</asrwt>
<pdfrwt beam="1">  1       21 0.71726005E-01 0.24591603E+03</pdfrwt>
<pdfrwt beam="2">  1       21 0.59438485E-01 0.24591603E+03</pdfrwt>
<totfact> 0.44672186E+03</totfact>
</mgrwt>
</event>
<event>
 4    1  0.1132373E+000  0.2153603E+03  0.7546771E-02  0.1137390E+00
         21   -1    0    0  501  502  0.00000000000E+00  0.00000000000E+00  0.66175407022E+03  0.66175407022E+03  0.00000000000E+00 0.  1.
         21   -1    0    0  502  503 -0.00000000000E+00 -0.00000000000E+00 -0.30132390642E+03  0.30132390642E+03  0.00000000000E+00 0.  1.
          6    1    1    2  501    0  0.84406773438E+02  0.98344052645E+02  0.60205110549E+03  0.63941034533E+03  0.17200000000E+03 0.  1.
         -6    1    1    2    0  503 -0.84406773438E+02 -0.98344052645E+02 -0.24162094169E+03  0.32366763131E+03  0.17200000000E+03 0.  1.
<mgrwt>
<rscale>  2 0.21536029E+03</rscale>
<asrwt>0</asrwt>
<pdfrwt beam="1">  1       21 0.16543852E+00 0.21536029E+03</pdfrwt>
<pdfrwt beam="2">  1       21 0.75330978E-01 0.21536029E+03</pdfrwt>
<totfact> 0.35250414E+02</totfact>
</mgrwt>
</event>
<event>
 4    1  0.1132373E+000  0.2013717E+03  0.7546771E-02  0.1148587E+00
         21   -1    0    0  501  502  0.00000000000E+00  0.00000000000E+00  0.11724110072E+03  0.11724110072E+03  0.00000000000E+00 0.  1.
         21   -1    0    0  502  503 -0.00000000000E+00 -0.00000000000E+00 -0.35176376129E+03  0.35176376129E+03  0.00000000000E+00 0.  1.
          6    1    1    2  501    0  0.34406053808E+02  0.98907969629E+02 -0.86915604729E+02  0.21932825933E+03  0.17200000000E+03 0.  1.
         -6    1    1    2    0  503 -0.34406053808E+02 -0.98907969629E+02 -0.14760705584E+03  0.24967660269E+03  0.17200000000E+03 0.  1.
<mgrwt>
<rscale>  2 0.20137170E+03</rscale>
<asrwt>0</asrwt>
<pdfrwt beam="1">  1       21 0.29310275E-01 0.20137170E+03</pdfrwt>
<pdfrwt beam="2">  1       21 0.87940939E-01 0.20137170E+03</pdfrwt>
<totfact> 0.12284335E+04</totfact>
</mgrwt>
</event>
<event>
 4    1  0.1132373E+000  0.1989057E+03  0.7546771E-02  0.1150666E+00
         21   -1    0    0  501  502  0.00000000000E+00  0.00000000000E+00  0.51105516802E+03  0.51105516802E+03  0.00000000000E+00 0.  1.
         21   -1    0    0  502  503 -0.00000000000E+00 -0.00000000000E+00 -0.11441644912E+03  0.11441644912E+03  0.00000000000E+00 0.  1.
          6    1    1    2  501    0 -0.91450455554E+02 -0.40202890049E+02  0.37616422850E+03  0.42551496447E+03  0.17200000000E+03 0.  1.
         -6    1    1    2    0  503  0.91450455554E+02  0.40202890049E+02  0.20474490398E+02  0.19995665267E+03  0.17200000000E+03 0.  1.
<mgrwt>
<rscale>  2 0.19890565E+03</rscale>
<asrwt>0</asrwt>
<pdfrwt beam="1">  1       21 0.12776379E+00 0.19890565E+03</pdfrwt>
<pdfrwt beam="2">  1       21 0.28604114E-01 0.19890565E+03</pdfrwt>
<totfact> 0.52522045E+03</totfact>
</mgrwt>
</event>
<event>
 4    1  0.1132373E+000  0.1954336E+03  0.7546771E-02  0.1153650E+00
         21   -1    0    0  501  502  0.00000000000E+00  0.00000000000E+00  0.13291457070E+03  0.13291457070E+03  0.00000000000E+00 0. -1.
         21   -1    0    0  502  503 -0.00000000000E+00 -0.00000000000E+00 -0.30669027809E+03  0.30669027809E+03  0.00000000000E+00 0. -1.
          6    1    1    2  501    0 -0.81202465404E+01 -0.92435678068E+02 -0.31704925668E+02  0.19798862416E+03  0.17200000000E+03 0. -1.
         -6    1    1    2    0  503  0.81202465404E+01  0.92435678068E+02 -0.14207078173E+03  0.24161622463E+03  0.17200000000E+03 0. -1.
<mgrwt>
<rscale>  2 0.19543360E+03</rscale>
<asrwt>0</asrwt>
<pdfrwt beam="1">  1       21 0.33228643E-01 0.19543360E+03</pdfrwt>
<pdfrwt beam="2">  1       21 0.76672569E-01 0.19543360E+03</pdfrwt>
<totfact> 0.13174405E+04</totfact>
</mgrwt>
</event>
<event>
 4    1  0.1132373E+000  0.2786233E+03  0.7546771E-02  0.1096443E+00
         21   -1    0    0  501  502  0.00000000000E+00  0.00000000000E+00  0.26171551734E+04  0.26171551734E+04  0.00000000000E+00 0.  1.
         21   -1    0    0  502  503 -0.00000000000E+00 -0.00000000000E+00 -0.61134326642E+02  0.61134326642E+02  0.00000000000E+00 0. -1.
          6    1    1    2  501    0  0.19477871607E+03 -0.10053948956E+03  0.22388415424E+04  0.22561122288E+04  0.17200000000E+03 0.  1.
         -6    1    1    2    0  503 -0.19477871607E+03  0.10053948956E+03  0.31717930434E+03  0.42217727118E+03  0.17200000000E+03 0. -1.
<mgrwt>
<rscale>  2 0.27862329E+03</rscale>
<asrwt>0</asrwt>
<pdfrwt beam="1">  1       21 0.65428842E+00 0.27862329E+03</pdfrwt>
<pdfrwt beam="2">  1       21 0.15283590E-01 0.27862329E+03</pdfrwt>
<totfact> 0.40779029E+00</totfact>
</mgrwt>
</event>
<event>
 4    1  0.1132373E+000  0.1747171E+03  0.7546771E-02  0.1173016E+00
         21   -1    0    0  501  502  0.00000000000E+00  0.00000000000E+00  0.19462892010E+03  0.19462892010E+03  0.00000000000E+00 0. -1.
         21   -1    0    0  502  503 -0.00000000000E+00 -0.00000000000E+00 -0.39252347317E+03  0.39252347317E+03  0.00000000000E+00 0. -1.
          6    1    1    2  501    0  0.30503099081E+02 -0.34088237217E+01  0.12853649176E+03  0.21690479212E+03  0.17200000000E+03 0. -1.
         -6    1    1    2    0  503 -0.30503099081E+02  0.34088237217E+01 -0.32643104483E+03  0.37024760115E+03  0.17200000000E+03 0. -1.
<mgrwt>
<rscale>  2 0.17471708E+03</rscale>
<asrwt>0</asrwt>
<pdfrwt beam="1">  1       21 0.48657230E-01 0.17471708E+03</pdfrwt>
<pdfrwt beam="2">  1       21 0.98130868E-01 0.17471708E+03</pdfrwt>
<totfact> 0.35156007E+03</totfact>
</mgrwt>
</event>
<event>
 4    1  0.1132373E+000  0.1791734E+03  0.7546771E-02  0.1168605E+00
         21   -1    0    0  503  502  0.00000000000E+00  0.00000000000E+00  0.87570420260E+02  0.87570420260E+02  0.00000000000E+00 0.  1.
         21   -1    0    0  501  503 -0.00000000000E+00 -0.00000000000E+00 -0.79295387012E+03  0.79295387012E+03  0.00000000000E+00 0.  1.
          6    1    1    2  501    0 -0.40152578973E+02  0.30114498339E+02 -0.67552156570E+03  0.69887945909E+03  0.17200000000E+03 0.  1.
         -6    1    1    2    0  502  0.40152578973E+02 -0.30114498339E+02 -0.29861884154E+02  0.18164483129E+03  0.17200000000E+03 0.  1.
<mgrwt>
<rscale>  2 0.17917341E+03</rscale>
<asrwt>0</asrwt>
<pdfrwt beam="1">  1       21 0.21892605E-01 0.17917341E+03</pdfrwt>
<pdfrwt beam="2">  1       21 0.19823846E+00 0.17917341E+03</pdfrwt>
<totfact> 0.27224658E+03</totfact>
</mgrwt>
</event>
<event>
 4    1  0.1132373E+000  0.1807650E+03  0.7546771E-02  0.1167065E+00
         21   -1    0    0  503  502  0.00000000000E+00  0.00000000000E+00  0.40289717850E+03  0.40289717850E+03  0.00000000000E+00 0.  1.
         21   -1    0    0  501  503 -0.00000000000E+00 -0.00000000000E+00 -0.12043228433E+03  0.12043228433E+03  0.00000000000E+00 0.  1.
          6    1    1    2  501    0  0.17514097119E+02 -0.52775531105E+02 -0.82995294229E+01  0.18095547096E+03  0.17200000000E+03 0.  1.
         -6    1    1    2    0  502 -0.17514097119E+02  0.52775531105E+02  0.29076442360E+03  0.34237399187E+03  0.17200000000E+03 0.  1.
<mgrwt>
<rscale>  2 0.18076504E+03</rscale>
<asrwt>0</asrwt>
<pdfrwt beam="1">  1       21 0.10072429E+00 0.18076504E+03</pdfrwt>
<pdfrwt beam="2">  1       21 0.30108072E-01 0.18076504E+03</pdfrwt>
<totfact> 0.86139676E+03</totfact>
</mgrwt>
</event>
<event>
 4    1  0.1132373E+000  0.2059356E+03  0.7546771E-02  0.1144826E+00
         21   -1    0    0  503  502  0.00000000000E+00  0.00000000000E+00  0.17360865594E+03  0.17360865594E+03  0.00000000000E+00 0.  1.
         21   -1    0    0  501  503 -0.00000000000E+00 -0.00000000000E+00 -0.44645774594E+03  0.44645774594E+03  0.00000000000E+00 0. -1.
          6    1    1    2  501    0  0.98330950887E+02  0.56182649127E+02 -0.34505733854E+03  0.40183831679E+03  0.17200000000E+03 0. -1.
         -6    1    1    2    0  502 -0.98330950887E+02 -0.56182649127E+02  0.72208248533E+02  0.21822808509E+03  0.17200000000E+03 0.  1.
<mgrwt>
<rscale>  2 0.20593559E+03</rscale>
<asrwt>0</asrwt>
<pdfrwt beam="1">  1       21 0.43402164E-01 0.20593559E+03</pdfrwt>
<pdfrwt beam="2">  1       21 0.11161444E+00 0.20593559E+03</pdfrwt>
<totfact> 0.31810230E+03</totfact>
</mgrwt>
</event>
<event>
 4    1  0.1132373E+000  0.3564158E+03  0.7546771E-02  0.1060012E+00
         21   -1    0    0  503  502  0.00000000000E+00  0.00000000000E+00  0.17496751844E+03  0.17496751844E+03  0.00000000000E+00 0.  1.
         21   -1    0    0  501  503 -0.00000000000E+00 -0.00000000000E+00 -0.82241890885E+03  0.82241890885E+03  0.00000000000E+00 0. -1.
          6    1    1    2  501    0 -0.42624092446E+02 -0.30924331886E+03 -0.49444908644E+03  0.60951795920E+03  0.17200000000E+03 0. -1.
         -6    1    1    2    0  502  0.42624092446E+02  0.30924331886E+03 -0.15300230398E+03  0.38786846809E+03  0.17200000000E+03 0.  1.
<mgrwt>
<rscale>  2 0.35641583E+03</rscale>
<asrwt>0</asrwt>
<pdfrwt beam="1">  1       21 0.43741881E-01 0.35641583E+03</pdfrwt>
<pdfrwt beam="2">  1       21 0.20560472E+00 0.35641583E+03</pdfrwt>
<totfact> 0.53828761E+02</totfact>
</mgrwt>
</event>
<event>
 4    1  0.1132373E+000  0.1867900E+03  0.7546771E-02  0.1161389E+00
         21   -1    0    0  501  502  0.00000000000E+00  0.00000000000E+00  0.21527159100E+03  0.21527159100E+03  0.00000000000E+00 0. -1.
         21   -1    0    0  502  503 -0.00000000000E+00 -0.00000000000E+00 -0.28617333208E+03  0.28617333208E+03  0.00000000000E+00 0. -1.
          6    1    1    2  501    0 -0.20745675996E+02  0.69829260342E+02  0.12965353568E+03  0.22737754504E+03  0.17200000000E+03 0. -1.
         -6    1    1    2    0  503  0.20745675996E+02 -0.69829260342E+02 -0.20055527676E+03  0.27406737804E+03  0.17200000000E+03 0. -1.
<mgrwt>
<rscale>  2 0.18679001E+03</rscale>
<asrwt>0</asrwt>
<pdfrwt beam="1">  1       21 0.53817898E-01 0.18679001E+03</pdfrwt>
<pdfrwt beam="2">  1       21 0.71543333E-01 0.18679001E+03</pdfrwt>
<totfact> 0.57922502E+03</totfact>
</mgrwt>
</event>
<event>
 4    1  0.1132373E+000  0.1741290E+03  0.7546771E-02  0.1173609E+00
         21   -1    0    0  501  502  0.00000000000E+00  0.00000000000E+00  0.11220629066E+03  0.11220629066E+03  0.00000000000E+00 0.  1.
         21   -1    0    0  502  503 -0.00000000000E+00 -0.00000000000E+00 -0.27823325406E+03  0.27823325406E+03  0.00000000000E+00 0. -1.
          6    1    1    2  501    0  0.16097035022E+02 -0.21858524774E+02 -0.49892993909E+02  0.18113591715E+03  0.17200000000E+03 0.  1.
         -6    1    1    2    0  503 -0.16097035022E+02  0.21858524774E+02 -0.11613396949E+03  0.20930362756E+03  0.17200000000E+03 0. -1.
<mgrwt>
<rscale>  2 0.17412900E+03</rscale>
<asrwt>0</asrwt>
<pdfrwt beam="1">  1       21 0.28051573E-01 0.17412900E+03</pdfrwt>
<pdfrwt beam="2">  1       21 0.69558313E-01 0.17412900E+03</pdfrwt>
<totfact> 0.23061121E+04</totfact>
</mgrwt>
</event>
<event>
 4    1  0.1132373E+000  0.2281041E+03  0.7546771E-02  0.1127981E+00
         21   -1    0    0  501  502  0.00000000000E+00  0.00000000000E+00  0.68744566701E+02  0.68744566701E+02  0.00000000000E+00 0.  1.
         21   -1    0    0  502  503 -0.00000000000E+00 -0.00000000000E+00 -0.18204997142E+04  0.18204997142E+04  0.00000000000E+00 0. -1.
          6    1    1    2  501    0  0.58234610339E+02 -0.13804423007E+03 -0.15384676355E+03  0.27513688584E+03  0.17200000000E+03 0.  1.
         -6    1    1    2    0  503 -0.58234610339E+02  0.13804423007E+03 -0.15979083839E+04  0.16141073950E+04  0.17200000000E+03 0. -1.
<mgrwt>
<rscale>  2 0.22810410E+03</rscale>
<asrwt>0</asrwt>
<pdfrwt beam="1">  1       21 0.17186142E-01 0.22810410E+03</pdfrwt>
<pdfrwt beam="2">  1       21 0.45512491E+00 0.22810410E+03</pdfrwt>
<totfact> 0.11068993E+02</totfact>
</mgrwt>
</event>
<event>
 4    1  0.1132373E+000  0.1759566E+03  0.7546771E-02  0.1171775E+00
         21   -1    0    0  501  502  0.00000000000E+00  0.00000000000E+00  0.11197637354E+03  0.11197637354E+03  0.00000000000E+00 0. -1.
         21   -1    0    0  502  503 -0.00000000000E+00 -0.00000000000E+00 -0.35487796427E+03  0.35487796427E+03  0.00000000000E+00 0. -1.
          6    1    1    2  501    0 -0.35535306351E+02 -0.10676354187E+02 -0.11745698112E+02  0.17634824626E+03  0.17200000000E+03 0. -1.
         -6    1    1    2    0  503  0.35535306351E+02  0.10676354187E+02 -0.23115589262E+03  0.29050609155E+03  0.17200000000E+03 0. -1.
<mgrwt>
<rscale>  2 0.17595665E+03</rscale>
<asrwt>0</asrwt>
<pdfrwt beam="1">  1       21 0.27994094E-01 0.17595665E+03</pdfrwt>
<pdfrwt beam="2">  1       21 0.88719491E-01 0.17595665E+03</pdfrwt>
<totfact> 0.13385252E+04</totfact>
</mgrwt>
</event>
<event>
 4    1  0.1132373E+000  0.2791471E+03  0.7546771E-02  0.1096156E+00
         21   -1    0    0  501  502  0.00000000000E+00  0.00000000000E+00  0.76434391347E+03  0.76434391347E+03  0.00000000000E+00 0.  1.
         21   -1    0    0  502  503 -0.00000000000E+00 -0.00000000000E+00 -0.10829106779E+03  0.10829106779E+03  0.00000000000E+00 0.  1.
          6    1    1    2  501    0  0.19140525260E+03  0.10818112472E+03  0.43362674528E+03  0.51570852299E+03  0.17200000000E+03 0.  1.
         -6    1    1    2    0  503 -0.19140525260E+03 -0.10818112472E+03  0.22242610041E+03  0.35692645827E+03  0.17200000000E+03 0.  1.
<mgrwt>
<rscale>  2 0.27914714E+03</rscale>
<asrwt>0</asrwt>
<pdfrwt beam="1">  1       21 0.19108596E+00 0.27914714E+03</pdfrwt>
<pdfrwt beam="2">  1       21 0.27072769E-01 0.27914714E+03</pdfrwt>
<totfact> 0.18509517E+03</totfact>
</mgrwt>
</event>
<event>
 4    1  0.1132373E+000  0.1968469E+03  0.7546771E-02  0.1152427E+00
         21   -1    0    0  503  502  0.00000000000E+00  0.00000000000E+00  0.11431567959E+03  0.11431567959E+03  0.00000000000E+00 0.  1.
         21   -1    0    0  501  503 -0.00000000000E+00 -0.00000000000E+00 -0.35653751897E+03  0.35653751897E+03  0.00000000000E+00 0.  1.
          6    1    1    2  501    0 -0.92561594199E+02 -0.24434687718E+02 -0.17338105281E+03  0.26231601583E+03  0.17200000000E+03 0.  1.
         -6    1    1    2    0  502  0.92561594199E+02  0.24434687718E+02 -0.68840786569E+02  0.20853718273E+03  0.17200000000E+03 0.  1.
<mgrwt>
<rscale>  2 0.19684690E+03</rscale>
<asrwt>0</asrwt>
<pdfrwt beam="1">  1       21 0.28578920E-01 0.19684690E+03</pdfrwt>
<pdfrwt beam="2">  1       21 0.89134379E-01 0.19684690E+03</pdfrwt>
<totfact> 0.12545323E+04</totfact>
</mgrwt>
</event>
<event>
 4    1  0.1132373E+000  0.2373021E+03  0.7546771E-02  0.1121603E+00
         21   -1    0    0  503  502  0.00000000000E+00  0.00000000000E+00  0.10738948983E+03  0.10738948983E+03  0.00000000000E+00 0.  1.
         21   -1    0    0  501  503 -0.00000000000E+00 -0.00000000000E+00 -0.99926077716E+03  0.99926077716E+03  0.00000000000E+00 0. -1.
          6    1    1    2  501    0  0.16345660754E+03 -0.32004515746E+01 -0.82738405155E+03  0.86074193240E+03  0.17200000000E+03 0. -1.
         -6    1    1    2    0  502 -0.16345660754E+03  0.32004515746E+01 -0.64487235774E+02  0.24590833458E+03  0.17200000000E+03 0.  1.
<mgrwt>
<rscale>  2 0.23730214E+03</rscale>
<asrwt>0</asrwt>
<pdfrwt beam="1">  1       21 0.26847373E-01 0.23730214E+03</pdfrwt>
<pdfrwt beam="2">  1       21 0.24981519E+00 0.23730214E+03</pdfrwt>
<totfact> 0.83681984E+02</totfact>
</mgrwt>
</event>
<event>
 4    1  0.1132373E+000  0.2209464E+03  0.7546771E-02  0.1133179E+00
         21   -1    0    0  503  502  0.00000000000E+00  0.00000000000E+00  0.18385948973E+04  0.18385948973E+04  0.00000000000E+00 0. -1.
         21   -1    0    0  501  503 -0.00000000000E+00 -0.00000000000E+00 -0.75834703666E+02  0.75834703666E+02  0.00000000000E+00 0.  1.
          6    1    1    2  501    0  0.79314364599E+02  0.11376532712E+03  0.16530386880E+04  0.16677392548E+04  0.17200000000E+03 0. -1.
         -6    1    1    2    0  502 -0.79314364599E+02 -0.11376532712E+03  0.10972150567E+03  0.24669034617E+03  0.17200000000E+03 0.  1.
<mgrwt>
<rscale>  2 0.22094641E+03</rscale>
<asrwt>0</asrwt>
<pdfrwt beam="1">  1       21 0.45964858E+00 0.22094641E+03</pdfrwt>
<pdfrwt beam="2">  1       21 0.18958682E-01 0.22094641E+03</pdfrwt>
<totfact> 0.87038691E+01</totfact>
</mgrwt>
</event>
<event>
 4    1  0.1132373E+000  0.2202306E+03  0.7546771E-02  0.1133711E+00
         21   -1    0    0  503  502  0.00000000000E+00  0.00000000000E+00  0.59034174582E+03  0.59034174582E+03  0.00000000000E+00 0. -1.
         21   -1    0    0  501  503 -0.00000000000E+00 -0.00000000000E+00 -0.11552115022E+03  0.11552115022E+03  0.00000000000E+00 0. -1.
          6    1    1    2  501    0 -0.97229481795E+02  0.97282738576E+02  0.47743698339E+02  0.22534632033E+03  0.17200000000E+03 0. -1.
         -6    1    1    2    0  502  0.97229481795E+02 -0.97282738576E+02  0.42707689726E+03  0.48051657571E+03  0.17200000000E+03 0. -1.
<mgrwt>
<rscale>  2 0.22023057E+03</rscale>
<asrwt>0</asrwt>
<pdfrwt beam="1">  1       21 0.14758543E+00 0.22023057E+03</pdfrwt>
<pdfrwt beam="2">  1       21 0.28880289E-01 0.22023057E+03</pdfrwt>
<totfact> 0.34962555E+03</totfact>
</mgrwt>
</event>
<event>
 4    1  0.1132373E+000  0.2073395E+03  0.7546771E-02  0.1143690E+00
         21   -1    0    0  501  502  0.00000000000E+00  0.00000000000E+00  0.90187987671E+02  0.90187987671E+02  0.00000000000E+00 0. -1.
         21   -1    0    0  502  503 -0.00000000000E+00 -0.00000000000E+00 -0.47667338566E+03  0.47667338566E+03  0.00000000000E+00 0.  1.
          6    1    1    2  501    0 -0.10716340728E+03  0.43837120260E+02 -0.19423265627E+03  0.28410563834E+03  0.17200000000E+03 0.  1.
         -6    1    1    2    0  503  0.10716340728E+03 -0.43837120260E+02 -0.19225274172E+03  0.28275573499E+03  0.17200000000E+03 0. -1.
<mgrwt>
<rscale>  2 0.20733955E+03</rscale>
<asrwt>0</asrwt>
<pdfrwt beam="1">  1       21 0.22546997E-01 0.20733955E+03</pdfrwt>
<pdfrwt beam="2">  1       21 0.11916835E+00 0.20733955E+03</pdfrwt>
<totfact> 0.97977227E+03</totfact>
</mgrwt>
</event>
<event>
 4    1  0.1132373E+000  0.2313674E+03  0.7546771E-02  0.1125681E+00
         21   -1    0    0  501  502  0.00000000000E+00  0.00000000000E+00  0.11460793358E+03  0.11460793358E+03  0.00000000000E+00 0. -1.
         21   -1    0    0  502  503 -0.00000000000E+00 -0.00000000000E+00 -0.59324138786E+03  0.59324138786E+03  0.00000000000E+00 0.  1.
          6    1    1    2  501    0  0.92031464417E+02  0.12440690344E+03 -0.76101219845E+02  0.24356162204E+03  0.17200000000E+03 0. -1.
         -6    1    1    2    0  503 -0.92031464417E+02 -0.12440690344E+03 -0.40253223443E+03  0.46428769941E+03  0.17200000000E+03 0.  1.
<mgrwt>
<rscale>  2 0.23136739E+03</rscale>
<asrwt>0</asrwt>
<pdfrwt beam="1">  1       21 0.28651984E-01 0.23136739E+03</pdfrwt>
<pdfrwt beam="2">  1       21 0.14831035E+00 0.23136739E+03</pdfrwt>
<totfact> 0.34745627E+03</totfact>
</mgrwt>
</event>
<event>
 4    1  0.1132373E+000  0.2005233E+03  0.7546771E-02  0.1149298E+00
         21   -1    0    0  503  502  0.00000000000E+00  0.00000000000E+00  0.77082526326E+02  0.77082526326E+02  0.00000000000E+00 0. -1.
         21   -1    0    0  501  503 -0.00000000000E+00 -0.00000000000E+00 -0.62615897960E+03  0.62615897960E+03  0.00000000000E+00 0. -1.
          6    1    1    2  501    0  0.74819766231E+02 -0.70905673237E+02 -0.13088276271E+03  0.23945753171E+03  0.17200000000E+03 0. -1.
         -6    1    1    2    0  502 -0.74819766231E+02  0.70905673237E+02 -0.41819369056E+03  0.46378397422E+03  0.17200000000E+03 0. -1.
<mgrwt>
<rscale>  2 0.20052335E+03</rscale>
<asrwt>0</asrwt>
<pdfrwt beam="1">  1       21 0.19270632E-01 0.20052335E+03</pdfrwt>
<pdfrwt beam="2">  1       21 0.15653974E+00 0.20052335E+03</pdfrwt>
<totfact> 0.65611818E+03</totfact>
</mgrwt>
</event>
<event>
 4    1  0.1132373E+000  0.1758113E+03  0.7546771E-02  0.1171920E+00
         21   -1    0    0  501  502  0.00000000000E+00  0.00000000000E+00  0.56547035966E+03  0.56547035966E+03  0.00000000000E+00 0.  1.
         21   -1    0    0  502  503 -0.00000000000E+00 -0.00000000000E+00 -0.63585614824E+02  0.63585614824E+02  0.00000000000E+00 0.  1.
          6    1    1    2  501    0 -0.23009199539E+02 -0.28216671604E+02  0.36877244930E+03  0.40853729717E+03  0.17200000000E+03 0.  1.
         -6    1    1    2    0  503  0.23009199539E+02  0.28216671604E+02  0.13311229554E+03  0.22051867731E+03  0.17200000000E+03 0.  1.
<mgrwt>
<rscale>  2 0.17581127E+03</rscale>
<asrwt>0</asrwt>
<pdfrwt beam="1">  1       21 0.14136757E+00 0.17581127E+03</pdfrwt>
<pdfrwt beam="2">  1       21 0.15896405E-01 0.17581127E+03</pdfrwt>
<totfact> 0.12465405E+04</totfact>
</mgrwt>
</event>
<event>
 4    1  0.1132373E+000  0.2563720E+03  0.7546771E-02  0.1109343E+00
         21   -1    0    0  503  502  0.00000000000E+00  0.00000000000E+00  0.12224202645E+03  0.12224202645E+03  0.00000000000E+00 0. -1.
         21   -1    0    0  501  503 -0.00000000000E+00 -0.00000000000E+00 -0.11239950944E+04  0.11239950944E+04  0.00000000000E+00 0. -1.
          6    1    1    2  501    0 -0.15803820351E+03 -0.10567171051E+03 -0.95092113705E+03  0.98487440472E+03  0.17200000000E+03 0. -1.
         -6    1    1    2    0  502  0.15803820351E+03  0.10567171051E+03 -0.50831930856E+02  0.26136271610E+03  0.17200000000E+03 0. -1.
<mgrwt>
<rscale>  2 0.25637196E+03</rscale>
<asrwt>0</asrwt>
<pdfrwt beam="1">  1       21 0.30560507E-01 0.25637196E+03</pdfrwt>
<pdfrwt beam="2">  1       21 0.28099877E+00 0.25637196E+03</pdfrwt>
<totfact> 0.41744111E+02</totfact>
</mgrwt>
</event>
<event>
 4    1  0.1132373E+000  0.2046567E+03  0.7546771E-02  0.1145869E+00
         21   -1    0    0  503  502  0.00000000000E+00  0.00000000000E+00  0.47092915403E+02  0.47092915403E+02  0.00000000000E+00 0.  1.
         21   -1    0    0  501  503 -0.00000000000E+00 -0.00000000000E+00 -0.90388348034E+03  0.90388348034E+03  0.00000000000E+00 0.  1.
          6    1    1    2  501    0  0.93463148115E+02  0.59707494255E+02 -0.48858882720E+03  0.52972010249E+03  0.17200000000E+03 0.  1.
         -6    1    1    2    0  502 -0.93463148115E+02 -0.59707494255E+02 -0.36820173774E+03  0.42125629325E+03  0.17200000000E+03 0.  1.
<mgrwt>
<rscale>  2 0.20465665E+03</rscale>
<asrwt>0</asrwt>
<pdfrwt beam="1">  1       21 0.11773229E-01 0.20465665E+03</pdfrwt>
<pdfrwt beam="2">  1       21 0.22597086E+00 0.20465665E+03</pdfrwt>
<totfact> 0.55526961E+03</totfact>
</mgrwt>
</event>
<event>
 4    1  0.1132373E+000  0.2370087E+03  0.7546771E-02  0.1121802E+00
         21   -1    0    0  501  502  0.00000000000E+00  0.00000000000E+00  0.30900281103E+03  0.30900281103E+03  0.00000000000E+00 0. -1.
         21   -1    0    0  502  503 -0.00000000000E+00 -0.00000000000E+00 -0.22889680642E+03  0.22889680642E+03  0.00000000000E+00 0.  1.
          6    1    1    2  501    0 -0.14582349340E+03  0.72970237849E+02  0.16206436509E+03  0.28712019307E+03  0.17200000000E+03 0.  1.
         -6    1    1    2    0  503  0.14582349340E+03 -0.72970237849E+02 -0.81958360481E+02  0.25077942438E+03  0.17200000000E+03 0.  1.
<mgrwt>
<rscale>  2 0.23700875E+03</rscale>
<asrwt>0</asrwt>
<pdfrwt beam="1">  1       21 0.77250703E-01 0.23700875E+03</pdfrwt>
<pdfrwt beam="2">  1       21 0.57224202E-01 0.23700875E+03</pdfrwt>
<totfact> 0.41277649E+03</totfact>
</mgrwt>
</event>
<event>
 4    1  0.1132373E+000  0.2003084E+03  0.7546771E-02  0.1149479E+00
         21   -1    0    0  503  502  0.00000000000E+00  0.00000000000E+00  0.15109129229E+03  0.15109129229E+03  0.00000000000E+00 0. -1.
         21   -1    0    0  501  503 -0.00000000000E+00 -0.00000000000E+00 -0.43366240786E+03  0.43366240786E+03  0.00000000000E+00 0.  1.
          6    1    1    2  501    0  0.92529492728E+02 -0.44472004467E+02 -0.32332141614E+03  0.38034222004E+03  0.17200000000E+03 0.  1.
         -6    1    1    2    0  502 -0.92529492728E+02  0.44472004467E+02  0.40750300574E+02  0.20441148011E+03  0.17200000000E+03 0. -1.
<mgrwt>
<rscale>  2 0.20030843E+03</rscale>
<asrwt>0</asrwt>
<pdfrwt beam="1">  1       21 0.37772823E-01 0.20030843E+03</pdfrwt>
<pdfrwt beam="2">  1       21 0.10841560E+00 0.20030843E+03</pdfrwt>
<totfact> 0.45438676E+03</totfact>
</mgrwt>
</event>
<event>
 4    1  0.1132373E+000  0.1776801E+03  0.7546771E-02  0.1170067E+00
         21   -1    0    0  503  502  0.00000000000E+00  0.00000000000E+00  0.69789813342E+03  0.69789813342E+03  0.00000000000E+00 0.  1.
         21   -1    0    0  501  503 -0.00000000000E+00 -0.00000000000E+00 -0.72466302193E+02  0.72466302193E+02  0.00000000000E+00 0. -1.
          6    1    1    2  501    0 -0.39411181087E+02 -0.20807866108E+02  0.76601013425E+02  0.19348882072E+03  0.17200000000E+03 0. -1.
         -6    1    1    2    0  502  0.39411181087E+02  0.20807866108E+02  0.54883081780E+03  0.57687561489E+03  0.17200000000E+03 0.  1.
<mgrwt>
<rscale>  2 0.17768007E+03</rscale>
<asrwt>0</asrwt>
<pdfrwt beam="1">  1       21 0.17447451E+00 0.17768007E+03</pdfrwt>
<pdfrwt beam="2">  1       21 0.18116578E-01 0.17768007E+03</pdfrwt>
<totfact> 0.55830725E+03</totfact>
</mgrwt>
</event>
<event>
 4    1  0.1132373E+000  0.2422082E+03  0.7546771E-02  0.1118330E+00
         21   -1    0    0  503  502  0.00000000000E+00  0.00000000000E+00  0.52870398616E+03  0.52870398616E+03  0.00000000000E+00 0.  1.
         21   -1    0    0  501  503 -0.00000000000E+00 -0.00000000000E+00 -0.12251720582E+03  0.12251720582E+03  0.00000000000E+00 0.  1.
          6    1    1    2  501    0  0.95581007029E+02 -0.14122711887E+03  0.30310083261E+03  0.38798832809E+03  0.17200000000E+03 0.  1.
         -6    1    1    2    0  502 -0.95581007029E+02  0.14122711887E+03  0.10308594774E+03  0.26323286389E+03  0.17200000000E+03 0.  1.
<mgrwt>
<rscale>  2 0.24220823E+03</rscale>
<asrwt>0</asrwt>
<pdfrwt beam="1">  1       21 0.13217599E+00 0.24220823E+03</pdfrwt>
<pdfrwt beam="2">  1       21 0.30629303E-01 0.24220823E+03</pdfrwt>
<totfact> 0.40819873E+03</totfact>
</mgrwt>
</event>
<event>
 4    1  0.1132373E+000  0.1800164E+03  0.7546771E-02  0.1167787E+00
         21   -1    0    0  503  502  0.00000000000E+00  0.00000000000E+00  0.10597273087E+03  0.10597273087E+03  0.00000000000E+00 0. -1.
         21   -1    0    0  501  503 -0.00000000000E+00 -0.00000000000E+00 -0.58828343790E+03  0.58828343790E+03  0.00000000000E+00 0. -1.
          6    1    1    2  501    0 -0.11666449615E+02  0.51824832900E+02 -0.48170064791E+03  0.51423869317E+03  0.17200000000E+03 0. -1.
         -6    1    1    2    0  502  0.11666449615E+02 -0.51824832900E+02 -0.61005911792E+00  0.18001747561E+03  0.17200000000E+03 0. -1.
<mgrwt>
<rscale>  2 0.18001644E+03</rscale>
<asrwt>0</asrwt>
<pdfrwt beam="1">  1       21 0.26493183E-01 0.18001644E+03</pdfrwt>
<pdfrwt beam="2">  1       21 0.14707086E+00 0.18001644E+03</pdfrwt>
<totfact> 0.43141021E+03</totfact>
</mgrwt>
</event>
<event>
 4    1  0.1132373E+000  0.1795431E+03  0.7546771E-02  0.1168246E+00
         21   -1    0    0  501  502  0.00000000000E+00  0.00000000000E+00  0.39890710038E+03  0.39890710038E+03  0.00000000000E+00 0.  1.
         21   -1    0    0  502  503 -0.00000000000E+00 -0.00000000000E+00 -0.18096359859E+03  0.18096359859E+03  0.00000000000E+00 0.  1.
          6    1    1    2  501    0  0.18528368931E+02  0.48046056843E+02  0.32466602268E+03  0.37100370661E+03  0.17200000000E+03 0.  1.
         -6    1    1    2    0  503 -0.18528368931E+02 -0.48046056843E+02 -0.10672252089E+03  0.20886699236E+03  0.17200000000E+03 0.  1.
<mgrwt>
<rscale>  2 0.17954310E+03</rscale>
<asrwt>0</asrwt>
<pdfrwt beam="1">  1       21 0.99726773E-01 0.17954310E+03</pdfrwt>
<pdfrwt beam="2">  1       21 0.45240900E-01 0.17954310E+03</pdfrwt>
<totfact> 0.39157843E+03</totfact>
</mgrwt>
</event>
<event>
 4    1  0.1132373E+000  0.1999203E+03  0.7546771E-02  0.1149806E+00
         21   -1    0    0  501  502  0.00000000000E+00  0.00000000000E+00  0.84812815035E+02  0.84812815035E+02  0.00000000000E+00 0.  1.
         21   -1    0    0  502  503 -0.00000000000E+00 -0.00000000000E+00 -0.49855998214E+03  0.49855998214E+03  0.00000000000E+00 0.  1.
          6    1    1    2  501    0 -0.72713172614E+02  0.71392751710E+02 -0.13860677331E+03  0.24326933238E+03  0.17200000000E+03 0.  1.
         -6    1    1    2    0  503  0.72713172614E+02 -0.71392751710E+02 -0.27514039380E+03  0.34010346480E+03  0.17200000000E+03 0.  1.
<mgrwt>
<rscale>  2 0.19992031E+03</rscale>
<asrwt>0</asrwt>
<pdfrwt beam="1">  1       21 0.21203204E-01 0.19992031E+03</pdfrwt>
<pdfrwt beam="2">  1       21 0.12463999E+00 0.19992031E+03</pdfrwt>
<totfact> 0.98888430E+03</totfact>
</mgrwt>
</event>
<event>
 4    1  0.1132373E+000  0.1966486E+03  0.7546771E-02  0.1152598E+00
         21   -1    0    0  503  502  0.00000000000E+00  0.00000000000E+00  0.13803184178E+03  0.13803184178E+03  0.00000000000E+00 0. -1.
         21   -1    0    0  501  503 -0.00000000000E+00 -0.00000000000E+00 -0.46466330021E+03  0.46466330021E+03  0.00000000000E+00 0. -1.
          6    1    1    2  501    0 -0.61205817218E+02  0.73078937487E+02 -0.35320625041E+03  0.40425899927E+03  0.17200000000E+03 0. -1.
         -6    1    1    2    0  502  0.61205817218E+02 -0.73078937487E+02  0.26574791978E+02  0.19843614271E+03  0.17200000000E+03 0. -1.
<mgrwt>
<rscale>  2 0.19664863E+03</rscale>
<asrwt>0</asrwt>
<pdfrwt beam="1">  1       21 0.34507961E-01 0.19664863E+03</pdfrwt>
<pdfrwt beam="2">  1       21 0.11616582E+00 0.19664863E+03</pdfrwt>
<totfact> 0.46145098E+03</totfact>
</mgrwt>
</event>
<event>
 4    1  0.1132373E+000  0.1840509E+03  0.7546771E-02  0.1163939E+00
         21   -1    0    0  503  502  0.00000000000E+00  0.00000000000E+00  0.12437843110E+04  0.12437843110E+04  0.00000000000E+00 0.  1.
         21   -1    0    0  501  503 -0.00000000000E+00 -0.00000000000E+00 -0.27423049117E+02  0.27423049117E+02  0.00000000000E+00 0.  1.
          6    1    1    2  501    0  0.60705273689E+02  0.24609381160E+02  0.66078215439E+03  0.68593571671E+03  0.17200000000E+03 0.  1.
         -6    1    1    2    0  502 -0.60705273689E+02 -0.24609381160E+02  0.55557910746E+03  0.58527164338E+03  0.17200000000E+03 0.  1.
<mgrwt>
<rscale>  2 0.18405095E+03</rscale>
<asrwt>0</asrwt>
<pdfrwt beam="1">  1       21 0.31094589E+00 0.18405095E+03</pdfrwt>
<pdfrwt beam="2">  1       21 0.68557664E-02 0.18405095E+03</pdfrwt>
<totfact> 0.46780541E+03</totfact>
</mgrwt>
</event>
<event>
 4    1  0.1132373E+000  0.2036330E+03  0.7546771E-02  0.1146710E+00
         21   -1    0    0  501  502  0.00000000000E+00  0.00000000000E+00  0.50990919671E+03  0.50990919671E+03  0.00000000000E+00 0.  1.
         21   -1    0    0  502  503 -0.00000000000E+00 -0.00000000000E+00 -0.15423454703E+03  0.15423454703E+03  0.00000000000E+00 0.  1.
          6    1    1    2  501    0 -0.74401123947E+02  0.79667351097E+02  0.40615779832E+03  0.45434631198E+03  0.17200000000E+03 0.  1.
         -6    1    1    2    0  503  0.74401123947E+02 -0.79667351097E+02 -0.50483148645E+02  0.20979743176E+03  0.17200000000E+03 0.  1.
<mgrwt>
<rscale>  2 0.20363304E+03</rscale>
<asrwt>0</asrwt>
<pdfrwt beam="1">  1       21 0.12747730E+00 0.20363304E+03</pdfrwt>
<pdfrwt beam="2">  1       21 0.38558638E-01 0.20363304E+03</pdfrwt>
<totfact> 0.29170743E+03</totfact>
</mgrwt>
</event>
<event>
 4    1  0.1132373E+000  0.2085836E+03  0.7546771E-02  0.1142693E+00
         21   -1    0    0  503  502  0.00000000000E+00  0.00000000000E+00  0.71210081597E+03  0.71210081597E+03  0.00000000000E+00 0.  1.
         21   -1    0    0  501  503 -0.00000000000E+00 -0.00000000000E+00 -0.62086617195E+02  0.62086617195E+02  0.00000000000E+00 0. -1.
          6    1    1    2  501    0 -0.79908114917E+02  0.86820610105E+02  0.27613274281E+03  0.34605840088E+03  0.17200000000E+03 0. -1.
         -6    1    1    2    0  502  0.79908114917E+02 -0.86820610105E+02  0.37388145597E+03  0.42812903228E+03  0.17200000000E+03 0. -1.
<mgrwt>
<rscale>  2 0.20858362E+03</rscale>
<asrwt>0</asrwt>
<pdfrwt beam="1">  1       21 0.17802518E+00 0.20858362E+03</pdfrwt>
<pdfrwt beam="2">  1       21 0.15521657E-01 0.20858362E+03</pdfrwt>
<totfact> 0.68268663E+03</totfact>
</mgrwt>
</event>
<event>
 4    1  0.1132373E+000  0.2386880E+03  0.7546771E-02  0.1120670E+00
         21   -1    0    0  503  502  0.00000000000E+00  0.00000000000E+00  0.62970761271E+03  0.62970761271E+03  0.00000000000E+00 0.  1.
         21   -1    0    0  501  503 -0.00000000000E+00 -0.00000000000E+00 -0.33350858709E+03  0.33350858709E+03  0.00000000000E+00 0. -1.
          6    1    1    2  501    0 -0.16213943573E+03  0.33147558367E+02 -0.26302617321E+03  0.35518266433E+03  0.17200000000E+03 0. -1.
         -6    1    1    2    0  502  0.16213943573E+03 -0.33147558367E+02  0.55922519884E+03  0.60803353547E+03  0.17200000000E+03 0.  1.
<mgrwt>
<rscale>  2 0.23868799E+03</rscale>
<asrwt>0</asrwt>
<pdfrwt beam="1">  1       21 0.15742690E+00 0.23868799E+03</pdfrwt>
<pdfrwt beam="2">  1       21 0.83377148E-01 0.23868799E+03</pdfrwt>
<totfact> 0.31284659E+02</totfact>
</mgrwt>
</event>
<event>
 4    1  0.1132373E+000  0.2150578E+03  0.7546771E-02  0.1137622E+00
         21   -1    0    0  503  502  0.00000000000E+00  0.00000000000E+00  0.60079319774E+02  0.60079319774E+02  0.00000000000E+00 0.  1.
         21   -1    0    0  501  503 -0.00000000000E+00 -0.00000000000E+00 -0.80513679395E+03  0.80513679395E+03  0.00000000000E+00 0.  1.
          6    1    1    2  501    0  0.91749860219E+02  0.90817441637E+02 -0.28191519355E+03  0.35457865264E+03  0.17200000000E+03 0.  1.
         -6    1    1    2    0  502 -0.91749860219E+02 -0.90817441637E+02 -0.46314228063E+03  0.51063746108E+03  0.17200000000E+03 0.  1.
<mgrwt>
<rscale>  2 0.21505777E+03</rscale>
<asrwt>0</asrwt>
<pdfrwt beam="1">  1       21 0.15019830E-01 0.21505777E+03</pdfrwt>
<pdfrwt beam="2">  1       21 0.20128420E+00 0.21505777E+03</pdfrwt>
<totfact> 0.50532507E+03</totfact>
</mgrwt>
</event>
<event>
 4    1  0.1132373E+000  0.2015846E+03  0.7546771E-02  0.1148409E+00
         21   -1    0    0  503  502  0.00000000000E+00  0.00000000000E+00  0.48510736359E+03  0.48510736359E+03  0.00000000000E+00 0. -1.
         21   -1    0    0  501  503 -0.00000000000E+00 -0.00000000000E+00 -0.18468414274E+03  0.18468414274E+03  0.00000000000E+00 0. -1.
          6    1    1    2  501    0 -0.85451023158E+02 -0.61241218295E+02 -0.97345635790E+02  0.22385829666E+03  0.17200000000E+03 0. -1.
         -6    1    1    2    0  502  0.85451023158E+02  0.61241218295E+02  0.39776885664E+03  0.44593320967E+03  0.17200000000E+03 0. -1.
<mgrwt>
<rscale>  2 0.20158463E+03</rscale>
<asrwt>0</asrwt>
<pdfrwt beam="1">  1       21 0.12127684E+00 0.20158463E+03</pdfrwt>
<pdfrwt beam="2">  1       21 0.46171037E-01 0.20158463E+03</pdfrwt>
<totfact> 0.22934726E+03</totfact>
</mgrwt>
</event>
<event>
 4    1  0.1132373E+000  0.1759740E+03  0.7546771E-02  0.1171757E+00
         21   -1    0    0  501  502  0.00000000000E+00  0.00000000000E+00  0.67722340806E+02  0.67722340806E+02  0.00000000000E+00 0.  1.
         21   -1    0    0  502  503 -0.00000000000E+00 -0.00000000000E+00 -0.14769062877E+04  0.14769062877E+04  0.00000000000E+00 0.  1.
          6    1    1    2  501    0 -0.37182828332E+02 -0.52424240657E+00 -0.62877243283E+02  0.18686996890E+03  0.17200000000E+03 0.  1.
         -6    1    1    2    0  503  0.37182828332E+02  0.52424240657E+00 -0.13463067036E+04  0.13577586596E+04  0.17200000000E+03 0.  1.
<mgrwt>
<rscale>  2 0.17597397E+03</rscale>
<asrwt>0</asrwt>
<pdfrwt beam="1">  1       21 0.16930585E-01 0.17597397E+03</pdfrwt>
<pdfrwt beam="2">  1       21 0.36922657E+00 0.17597397E+03</pdfrwt>
<totfact> 0.43435835E+02</totfact>
</mgrwt>
</event>
<event>
 4    1  0.1132373E+000  0.2027288E+03  0.7546771E-02  0.1147457E+00
         21   -1    0    0  501  502  0.00000000000E+00  0.00000000000E+00  0.11091256823E+04  0.11091256823E+04  0.00000000000E+00 0. -1.
         21   -1    0    0  502  503 -0.00000000000E+00 -0.00000000000E+00 -0.63409579981E+02  0.63409579981E+02  0.00000000000E+00 0. -1.
          6    1    1    2  501    0  0.61420905662E+02  0.87991123638E+02  0.90081662391E+03  0.92334693122E+03  0.17200000000E+03 0. -1.
         -6    1    1    2    0  503 -0.61420905662E+02 -0.87991123638E+02  0.14489947841E+03  0.24918833106E+03  0.17200000000E+03 0. -1.
<mgrwt>
<rscale>  2 0.20272880E+03</rscale>
<asrwt>0</asrwt>
<pdfrwt beam="1">  1       21 0.27728136E+00 0.20272880E+03</pdfrwt>
<pdfrwt beam="2">  1       21 0.15852399E-01 0.20272880E+03</pdfrwt>
<totfact> 0.16163498E+03</totfact>
</mgrwt>
</event>
<event>
 4    1  0.1132373E+000  0.2027723E+03  0.7546771E-02  0.1147421E+00
         21   -1    0    0  503  502  0.00000000000E+00  0.00000000000E+00  0.46726970609E+02  0.46726970609E+02  0.00000000000E+00 0.  1.
         21   -1    0    0  501  503 -0.00000000000E+00 -0.00000000000E+00 -0.13680078155E+04  0.13680078155E+04  0.00000000000E+00 0. -1.
          6    1    1    2  501    0 -0.22699678744E+02  0.10496340665E+03 -0.10831572927E+04  0.11019738259E+04  0.17200000000E+03 0. -1.
         -6    1    1    2    0  502  0.22699678744E+02 -0.10496340665E+03 -0.23812355221E+03  0.31276096027E+03  0.17200000000E+03 0.  1.
<mgrwt>
<rscale>  2 0.20277227E+03</rscale>
<asrwt>0</asrwt>
<pdfrwt beam="1">  1       21 0.11681743E-01 0.20277227E+03</pdfrwt>
<pdfrwt beam="2">  1       21 0.34200195E+00 0.20277227E+03</pdfrwt>
<totfact> 0.11831283E+03</totfact>
</mgrwt>
</event>
<event>
 4    1  0.1132373E+000  0.1883234E+03  0.7546771E-02  0.1159982E+00
         21   -1    0    0  501  502  0.00000000000E+00  0.00000000000E+00  0.81589573776E+03  0.81589573776E+03  0.00000000000E+00 0.  1.
         21   -1    0    0  502  503 -0.00000000000E+00 -0.00000000000E+00 -0.47300581031E+02  0.47300581031E+02  0.00000000000E+00 0. -1.
          6    1    1    2  501    0  0.76095041724E+02 -0.95527759747E+01  0.50714537375E+03  0.54098256998E+03  0.17200000000E+03 0.  1.
         -6    1    1    2    0  503 -0.76095041724E+02  0.95527759747E+01  0.26144978298E+03  0.32221374881E+03  0.17200000000E+03 0.  1.
<mgrwt>
<rscale>  2 0.18832342E+03</rscale>
<asrwt>0</asrwt>
<pdfrwt beam="1">  1       21 0.20397389E+00 0.18832342E+03</pdfrwt>
<pdfrwt beam="2">  1       21 0.11825148E-01 0.18832342E+03</pdfrwt>
<totfact> 0.76591148E+03</totfact>
</mgrwt>
</event>
<event>
 4    1  0.1132373E+000  0.1894648E+03  0.7546771E-02  0.1158945E+00
         21   -1    0    0  503  502  0.00000000000E+00  0.00000000000E+00  0.19965521259E+03  0.19965521259E+03  0.00000000000E+00 0.  1.
         21   -1    0    0  501  503 -0.00000000000E+00 -0.00000000000E+00 -0.73428263006E+03  0.73428263006E+03  0.00000000000E+00 0.  1.
          6    1    1    2  501    0 -0.25098807049E+02 -0.75385506460E+02 -0.67310474208E+03  0.69926169530E+03  0.17200000000E+03 0.  1.
         -6    1    1    2    0  502  0.25098807049E+02  0.75385506460E+02  0.13847732462E+03  0.23467614735E+03  0.17200000000E+03 0.  1.
<mgrwt>
<rscale>  2 0.18946484E+03</rscale>
<asrwt>0</asrwt>
<pdfrwt beam="1">  1       21 0.49913804E-01 0.18946484E+03</pdfrwt>
<pdfrwt beam="2">  1       21 0.18357066E+00 0.18946484E+03</pdfrwt>
<totfact> 0.66066890E+02</totfact>
</mgrwt>
</event>
<event>
 4    1  0.1132373E+000  0.1993236E+03  0.7546771E-02  0.1150311E+00
         21   -1    0    0  503  502  0.00000000000E+00  0.00000000000E+00  0.80754002745E+02  0.80754002745E+02  0.00000000000E+00 0. -1.
         21   -1    0    0  501  503 -0.00000000000E+00 -0.00000000000E+00 -0.59925545430E+03  0.59925545430E+03  0.00000000000E+00 0. -1.
          6    1    1    2  501    0  0.26294705607E+01 -0.10069245794E+03 -0.40310270164E+03  0.44969064174E+03  0.17200000000E+03 0. -1.
         -6    1    1    2    0  502 -0.26294705607E+01  0.10069245794E+03 -0.11539874992E+03  0.23031881531E+03  0.17200000000E+03 0. -1.
<mgrwt>
<rscale>  2 0.19932357E+03</rscale>
<asrwt>0</asrwt>
<pdfrwt beam="1">  1       21 0.20188501E-01 0.19932357E+03</pdfrwt>
<pdfrwt beam="2">  1       21 0.14981386E+00 0.19932357E+03</pdfrwt>
<totfact> 0.67654388E+03</totfact>
</mgrwt>
</event>
<event>
 4    1  0.1132373E+000  0.2837275E+03  0.7546771E-02  0.1093670E+00
         21   -1    0    0  501  502  0.00000000000E+00  0.00000000000E+00  0.11443402639E+03  0.11443402639E+03  0.00000000000E+00 0.  1.
         21   -1    0    0  502  503 -0.00000000000E+00 -0.00000000000E+00 -0.70795010560E+03  0.70795010560E+03  0.00000000000E+00 0. -1.
          6    1    1    2  501    0  0.15937813636E+03 -0.15973703857E+03 -0.26406050965E+03  0.38759420094E+03  0.17200000000E+03 0. -1.
         -6    1    1    2    0  503 -0.15937813636E+03  0.15973703857E+03 -0.32945556955E+03  0.43478993106E+03  0.17200000000E+03 0. -1.
<mgrwt>
<rscale>  2 0.28372753E+03</rscale>
<asrwt>0</asrwt>
<pdfrwt beam="1">  1       21 0.28608507E-01 0.28372753E+03</pdfrwt>
<pdfrwt beam="2">  1       21 0.17698752E+00 0.28372753E+03</pdfrwt>
<totfact> 0.20681634E+03</totfact>
</mgrwt>
</event>
<event>
 4    1  0.1132373E+000  0.1725312E+03  0.7546771E-02  0.1175234E+00
         21   -1    0    0  501  502  0.00000000000E+00  0.00000000000E+00  0.90767739489E+03  0.90767739489E+03  0.00000000000E+00 0.  1.
         21   -1    0    0  502  503 -0.00000000000E+00 -0.00000000000E+00 -0.37296043878E+02  0.37296043878E+02  0.00000000000E+00 0.  1.
          6    1    1    2  501    0  0.12156589925E+02  0.59355467454E+01  0.59933619181E+03  0.62367530351E+03  0.17200000000E+03 0.  1.
         -6    1    1    2    0  503 -0.12156589925E+02 -0.59355467454E+01  0.27104515920E+03  0.32129813526E+03  0.17200000000E+03 0.  1.
<mgrwt>
<rscale>  2 0.17253120E+03</rscale>
<asrwt>0</asrwt>
<pdfrwt beam="1">  1       21 0.22691928E+00 0.17253120E+03</pdfrwt>
<pdfrwt beam="2">  1       21 0.93240139E-02 0.17253120E+03</pdfrwt>
<totfact> 0.85431066E+03</totfact>
</mgrwt>
</event>
<event>
 4    1  0.1132373E+000  0.1839992E+03  0.7546771E-02  0.1163988E+00
         21   -1    0    0  503  502  0.00000000000E+00  0.00000000000E+00  0.83973455741E+02  0.83973455741E+02  0.00000000000E+00 0. -1.
         21   -1    0    0  501  503 -0.00000000000E+00 -0.00000000000E+00 -0.14929831179E+04  0.14929831179E+04  0.00000000000E+00 0. -1.
          6    1    1    2  501    0 -0.55118874301E+02  0.35122836387E+02 -0.13781605590E+04  0.13903892370E+04  0.17200000000E+03 0. -1.
         -6    1    1    2    0  502  0.55118874301E+02 -0.35122836387E+02 -0.30849103156E+02  0.18656733665E+03  0.17200000000E+03 0. -1.
<mgrwt>
<rscale>  2 0.18399920E+03</rscale>
<asrwt>0</asrwt>
<pdfrwt beam="1">  1       21 0.20993363E-01 0.18399920E+03</pdfrwt>
<pdfrwt beam="2">  1       21 0.37324579E+00 0.18399920E+03</pdfrwt>
<totfact> 0.27189066E+02</totfact>
</mgrwt>
</event>
<event>
 4    1  0.1132373E+000  0.1815338E+03  0.7546771E-02  0.1166327E+00
         21   -1    0    0  501  502  0.00000000000E+00  0.00000000000E+00  0.57349414447E+02  0.57349414447E+02  0.00000000000E+00 0. -1.
         21   -1    0    0  502  503 -0.00000000000E+00 -0.00000000000E+00 -0.91592090009E+03  0.91592090009E+03  0.00000000000E+00 0. -1.
          6    1    1    2  501    0 -0.19744440348E+02  0.54595509505E+02 -0.13222937648E+03  0.22458655478E+03  0.17200000000E+03 0.  1.
         -6    1    1    2    0  503  0.19744440348E+02 -0.54595509505E+02 -0.72634210917E+03  0.74868375977E+03  0.17200000000E+03 0.  1.
<mgrwt>
<rscale>  2 0.18153378E+03</rscale>
<asrwt>0</asrwt>
<pdfrwt beam="1">  1       21 0.14337354E-01 0.18153378E+03</pdfrwt>
<pdfrwt beam="2">  1       21 0.22898022E+00 0.18153378E+03</pdfrwt>
<totfact> 0.38217688E+03</totfact>
</mgrwt>
</event>
<event>
 4    1  0.1132373E+000  0.1876287E+03  0.7546771E-02  0.1160618E+00
         21   -1    0    0  501  502  0.00000000000E+00  0.00000000000E+00  0.11075041846E+03  0.11075041846E+03  0.00000000000E+00 0.  1.
         21   -1    0    0  502  503 -0.00000000000E+00 -0.00000000000E+00 -0.42607527699E+03  0.42607527699E+03  0.00000000000E+00 0.  1.
          6    1    1    2  501    0  0.66087405011E+02  0.35397443279E+02 -0.22399395531E+02  0.18896099336E+03  0.17200000000E+03 0.  1.
         -6    1    1    2    0  503 -0.66087405011E+02 -0.35397443279E+02 -0.29292546299E+03  0.34786470209E+03  0.17200000000E+03 0.  1.
<mgrwt>
<rscale>  2 0.18762869E+03</rscale>
<asrwt>0</asrwt>
<pdfrwt beam="1">  1       21 0.27687605E-01 0.18762869E+03</pdfrwt>
<pdfrwt beam="2">  1       21 0.10651882E+00 0.18762869E+03</pdfrwt>
<totfact> 0.88200089E+03</totfact>
</mgrwt>
</event>
<event>
 4    1  0.1132373E+000  0.1931841E+03  0.7546771E-02  0.1155620E+00
         21   -1    0    0  501  502  0.00000000000E+00  0.00000000000E+00  0.76379605063E+02  0.76379605063E+02  0.00000000000E+00 0.  1.
         21   -1    0    0  502  503 -0.00000000000E+00 -0.00000000000E+00 -0.61130972967E+03  0.61130972967E+03  0.00000000000E+00 0. -1.
          6    1    1    2  501    0 -0.85446671396E+02  0.20855334692E+02 -0.11341996328E+03  0.22401822852E+03  0.17200000000E+03 0.  1.
         -6    1    1    2    0  503  0.85446671396E+02 -0.20855334692E+02 -0.42151016132E+03  0.46367110621E+03  0.17200000000E+03 0. -1.
<mgrwt>
<rscale>  2 0.19318405E+03</rscale>
<asrwt>0</asrwt>
<pdfrwt beam="1">  1       21 0.19094902E-01 0.19318405E+03</pdfrwt>
<pdfrwt beam="2">  1       21 0.15282743E+00 0.19318405E+03</pdfrwt>
<totfact> 0.71572363E+03</totfact>
</mgrwt>
</event>
<event>
 4    1  0.1132373E+000  0.2223335E+03  0.7546771E-02  0.1132155E+00
         21   -1    0    0  503  502  0.00000000000E+00  0.00000000000E+00  0.19019735954E+03  0.19019735954E+03  0.00000000000E+00 0. -1.
         21   -1    0    0  501  503 -0.00000000000E+00 -0.00000000000E+00 -0.38986258733E+03  0.38986258733E+03  0.00000000000E+00 0.  1.
          6    1    1    2  501    0  0.64312360064E+02 -0.12534789815E+03 -0.26728730483E+03  0.34767035904E+03  0.17200000000E+03 0.  1.
         -6    1    1    2    0  502 -0.64312360064E+02  0.12534789815E+03  0.67622077053E+02  0.23238958783E+03  0.17200000000E+03 0. -1.
<mgrwt>
<rscale>  2 0.22233348E+03</rscale>
<asrwt>0</asrwt>
<pdfrwt beam="1">  1       21 0.47549340E-01 0.22233348E+03</pdfrwt>
<pdfrwt beam="2">  1       21 0.97465646E-01 0.22233348E+03</pdfrwt>
<totfact> 0.36031379E+03</totfact>
</mgrwt>
</event>
<event>
 4    1  0.1132373E+000  0.2069688E+03  0.7546771E-02  0.1143989E+00
         21   -1    0    0  503  502  0.00000000000E+00  0.00000000000E+00  0.29815970255E+03  0.29815970255E+03  0.00000000000E+00 0.  1.
         21   -1    0    0  501  503 -0.00000000000E+00 -0.00000000000E+00 -0.14458111648E+03  0.14458111648E+03  0.00000000000E+00 0. -1.
          6    1    1    2  501    0  0.69652397665E+02  0.91654918044E+02  0.94379427284E+02  0.22747210114E+03  0.17200000000E+03 0.  1.
         -6    1    1    2    0  502 -0.69652397665E+02 -0.91654918044E+02  0.59199158789E+02  0.21526871789E+03  0.17200000000E+03 0. -1.
<mgrwt>
<rscale>  2 0.20696879E+03</rscale>
<asrwt>0</asrwt>
<pdfrwt beam="1">  1       21 0.74539925E-01 0.20696879E+03</pdfrwt>
<pdfrwt beam="2">  1       21 0.36145280E-01 0.20696879E+03</pdfrwt>
<totfact> 0.11784727E+04</totfact>
</mgrwt>
</event>
<event>
 4    1  0.1132373E+000  0.1769612E+03  0.7546771E-02  0.1170777E+00
         21   -1    0    0  503  502  0.00000000000E+00  0.00000000000E+00  0.99897101482E+02  0.99897101482E+02  0.00000000000E+00 0.  1.
         21   -1    0    0  501  503 -0.00000000000E+00 -0.00000000000E+00 -0.36910576808E+03  0.36910576808E+03  0.00000000000E+00 0. -1.
          6    1    1    2  501    0 -0.12427162855E+02 -0.39709562268E+02 -0.22564303596E+03  0.28675784800E+03  0.17200000000E+03 0. -1.
         -6    1    1    2    0  502  0.12427162855E+02  0.39709562268E+02 -0.43565630641E+02  0.18224502157E+03  0.17200000000E+03 0.  1.
<mgrwt>
<rscale>  2 0.17696125E+03</rscale>
<asrwt>0</asrwt>
<pdfrwt beam="1">  1       21 0.24974276E-01 0.17696125E+03</pdfrwt>
<pdfrwt beam="2">  1       21 0.92276441E-01 0.17696125E+03</pdfrwt>
<totfact> 0.15201585E+04</totfact>
</mgrwt>
</event>
<event>
 4    1  0.1132373E+000  0.1956796E+03  0.7546771E-02  0.1153436E+00
         21   -1    0    0  501  502  0.00000000000E+00  0.00000000000E+00  0.25506778033E+03  0.25506778033E+03  0.00000000000E+00 0.  1.
         21   -1    0    0  502  503 -0.00000000000E+00 -0.00000000000E+00 -0.16675058801E+03  0.16675058801E+03  0.00000000000E+00 0. -1.
          6    1    1    2  501    0 -0.71551629906E+02 -0.59890433550E+02  0.11076710408E+03  0.22485517810E+03  0.17200000000E+03 0.  1.
         -6    1    1    2    0  503  0.71551629906E+02  0.59890433550E+02 -0.22449911761E+02  0.19696319024E+03  0.17200000000E+03 0.  1.
<mgrwt>
<rscale>  2 0.19567958E+03</rscale>
<asrwt>0</asrwt>
<pdfrwt beam="1">  1       21 0.63766945E-01 0.19567958E+03</pdfrwt>
<pdfrwt beam="2">  1       21 0.41687647E-01 0.19567958E+03</pdfrwt>
<totfact> 0.12561871E+04</totfact>
</mgrwt>
</event>
<event>
 4    1  0.1132373E+000  0.2204533E+03  0.7546771E-02  0.1133546E+00
         21   -1    0    0  503  502  0.00000000000E+00  0.00000000000E+00  0.36209667222E+02  0.36209667222E+02  0.00000000000E+00 0.  1.
         21   -1    0    0  501  503 -0.00000000000E+00 -0.00000000000E+00 -0.15318734114E+04  0.15318734114E+04  0.00000000000E+00 0.  1.
          6    1    1    2  501    0 -0.10763991077E+03 -0.86193320403E+02 -0.10237382452E+04  0.10472056310E+04  0.17200000000E+03 0.  1.
         -6    1    1    2    0  502  0.10763991077E+03  0.86193320403E+02 -0.47192549896E+03  0.52087744763E+03  0.17200000000E+03 0.  1.
<mgrwt>
<rscale>  2 0.22045326E+03</rscale>
<asrwt>0</asrwt>
<pdfrwt beam="1">  1       21 0.90524178E-02 0.22045326E+03</pdfrwt>
<pdfrwt beam="2">  1       21 0.38296831E+00 0.22045326E+03</pdfrwt>
<totfact> 0.10309604E+03</totfact>
</mgrwt>
</event>
<event>
 4    1  0.1132373E+000  0.2113664E+03  0.7546771E-02  0.1140488E+00
         21   -1    0    0  503  502  0.00000000000E+00  0.00000000000E+00  0.81939175396E+02  0.81939175396E+02  0.00000000000E+00 0.  1.
         21   -1    0    0  501  503 -0.00000000000E+00 -0.00000000000E+00 -0.54651466282E+03  0.54651466282E+03  0.00000000000E+00 0. -1.
          6    1    1    2  501    0  0.92075512461E+02  0.81325708818E+02 -0.21705831151E+03  0.30296877975E+03  0.17200000000E+03 0.  1.
         -6    1    1    2    0  502 -0.92075512461E+02 -0.81325708818E+02 -0.24751717591E+03  0.32548505846E+03  0.17200000000E+03 0. -1.
<mgrwt>
<rscale>  2 0.21136644E+03</rscale>
<asrwt>0</asrwt>
<pdfrwt beam="1">  1       21 0.20484794E-01 0.21136644E+03</pdfrwt>
<pdfrwt beam="2">  1       21 0.13662866E+00 0.21136644E+03</pdfrwt>
<totfact> 0.82927068E+03</totfact>
</mgrwt>
</event>
<event>
 4    1  0.1132373E+000  0.2075674E+03  0.7546771E-02  0.1143507E+00
         21   -1    0    0  501  502  0.00000000000E+00  0.00000000000E+00  0.50739864833E+03  0.50739864833E+03  0.00000000000E+00 0. -1.
         21   -1    0    0  502  503 -0.00000000000E+00 -0.00000000000E+00 -0.15450224087E+03  0.15450224087E+03  0.00000000000E+00 0. -1.
          6    1    1    2  501    0  0.90582886529E+02  0.72766385975E+02  0.39855912737E+03  0.44937020848E+03  0.17200000000E+03 0. -1.
         -6    1    1    2    0  503 -0.90582886529E+02 -0.72766385975E+02 -0.45662719911E+02  0.21253068073E+03  0.17200000000E+03 0. -1.
<mgrwt>
<rscale>  2 0.20756735E+03</rscale>
<asrwt>0</asrwt>
<pdfrwt beam="1">  1       21 0.12684966E+00 0.20756735E+03</pdfrwt>
<pdfrwt beam="2">  1       21 0.38625561E-01 0.20756735E+03</pdfrwt>
<totfact> 0.29333821E+03</totfact>
</mgrwt>
</event>
<event>
 4    1  0.1132373E+000  0.2124314E+03  0.7546771E-02  0.1139655E+00
         21   -1    0    0  503  502  0.00000000000E+00  0.00000000000E+00  0.11211790690E+04  0.11211790690E+04  0.00000000000E+00 0.  1.
         21   -1    0    0  501  503 -0.00000000000E+00 -0.00000000000E+00 -0.40688628058E+02  0.40688628058E+02  0.00000000000E+00 0.  1.
          6    1    1    2  501    0  0.71651862124E+02 -0.10202498757E+03  0.47990571903E+03  0.52482052798E+03  0.17200000000E+03 0. -1.
         -6    1    1    2    0  502 -0.71651862124E+02  0.10202498757E+03  0.60058472193E+03  0.63704716909E+03  0.17200000000E+03 0. -1.
<mgrwt>
<rscale>  2 0.21243137E+03</rscale>
<asrwt>0</asrwt>
<pdfrwt beam="1">  1       21 0.28029467E+00 0.21243137E+03</pdfrwt>
<pdfrwt beam="2">  1       21 0.10172161E-01 0.21243137E+03</pdfrwt>
<totfact> 0.34141851E+03</totfact>
</mgrwt>
</event>
<event>
 4    1  0.1132373E+000  0.1747803E+03  0.7546771E-02  0.1172952E+00
         21   -1    0    0  501  502  0.00000000000E+00  0.00000000000E+00  0.22246134841E+03  0.22246134841E+03  0.00000000000E+00 0.  1.
         21   -1    0    0  502  503 -0.00000000000E+00 -0.00000000000E+00 -0.24865510491E+03  0.24865510491E+03  0.00000000000E+00 0. -1.
          6    1    1    2  501    0  0.30029723012E+02  0.78982134420E+01  0.14452541141E+03  0.22679453385E+03  0.17200000000E+03 0.  1.
         -6    1    1    2    0  503 -0.30029723012E+02 -0.78982134420E+01 -0.17071916791E+03  0.24432191947E+03  0.17200000000E+03 0. -1.
<mgrwt>
<rscale>  2 0.17478034E+03</rscale>
<asrwt>0</asrwt>
<pdfrwt beam="1">  1       21 0.55615337E-01 0.17478034E+03</pdfrwt>
<pdfrwt beam="2">  1       21 0.62163776E-01 0.17478034E+03</pdfrwt>
<totfact> 0.74123816E+03</totfact>
</mgrwt>
</event>
<event>
 4    1  0.1132373E+000  0.1742409E+03  0.7546771E-02  0.1173496E+00
         21   -1    0    0  503  502  0.00000000000E+00  0.00000000000E+00  0.36502705648E+03  0.36502705648E+03  0.00000000000E+00 0. -1.
         21   -1    0    0  501  503 -0.00000000000E+00 -0.00000000000E+00 -0.92053989145E+02  0.92053989145E+02  0.00000000000E+00 0.  1.
          6    1    1    2  501    0  0.26187282275E+02 -0.94933184405E+01  0.65495096276E+02  0.18614377369E+03  0.17200000000E+03 0.  1.
         -6    1    1    2    0  502 -0.26187282275E+02  0.94933184405E+01  0.20747797106E+03  0.27093727193E+03  0.17200000000E+03 0. -1.
<mgrwt>
<rscale>  2 0.17424092E+03</rscale>
<asrwt>0</asrwt>
<pdfrwt beam="1">  1       21 0.91256760E-01 0.17424092E+03</pdfrwt>
<pdfrwt beam="2">  1       21 0.23013498E-01 0.17424092E+03</pdfrwt>
<totfact> 0.18247842E+04</totfact>
</mgrwt>
</event>
<event>
 4    1  0.1132373E+000  0.1958092E+03  0.7546771E-02  0.1153324E+00
         21   -1    0    0  501  502  0.00000000000E+00  0.00000000000E+00  0.34737500911E+03  0.34737500911E+03  0.00000000000E+00 0. -1.
         21   -1    0    0  502  503 -0.00000000000E+00 -0.00000000000E+00 -0.11041626736E+03  0.11041626736E+03  0.00000000000E+00 0.  1.
          6    1    1    2  501    0  0.50733966607E+02  0.78634002269E+02  0.12294671868E+03  0.23120799578E+03  0.17200000000E+03 0.  1.
         -6    1    1    2    0  503 -0.50733966607E+02 -0.78634002269E+02  0.11401202307E+03  0.22658328068E+03  0.17200000000E+03 0.  1.
<mgrwt>
<rscale>  2 0.19580920E+03</rscale>
<asrwt>0</asrwt>
<pdfrwt beam="1">  1       21 0.86843750E-01 0.19580920E+03</pdfrwt>
<pdfrwt beam="2">  1       21 0.27604068E-01 0.19580920E+03</pdfrwt>
<totfact> 0.14256727E+04</totfact>
</mgrwt>
</event>
<event>
 4    1  0.1132373E+000  0.2301499E+03  0.7546771E-02  0.1126534E+00
         21   -1    0    0  503  502  0.00000000000E+00  0.00000000000E+00  0.78705451598E+02  0.78705451598E+02  0.00000000000E+00 0. -1.
         21   -1    0    0  501  503 -0.00000000000E+00 -0.00000000000E+00 -0.69947606968E+03  0.69947606968E+03  0.00000000000E+00 0.  1.
          6    1    1    2  501    0 -0.65644886408E+00 -0.15292012479E+03 -0.38608038594E+03  0.44947420382E+03  0.17200000000E+03 0.  1.
         -6    1    1    2    0  502  0.65644886408E+00  0.15292012479E+03 -0.23469023215E+03  0.32870731746E+03  0.17200000000E+03 0.  1.
<mgrwt>
<rscale>  2 0.23014994E+03</rscale>
<asrwt>0</asrwt>
<pdfrwt beam="1">  1       21 0.19676364E-01 0.23014994E+03</pdfrwt>
<pdfrwt beam="2">  1       21 0.17486901E+00 0.23014994E+03</pdfrwt>
<totfact> 0.45505364E+03</totfact>
</mgrwt>
</event>
<event>
 4    1  0.1132373E+000  0.1750950E+03  0.7546771E-02  0.1172636E+00
         21   -1    0    0  503  502  0.00000000000E+00  0.00000000000E+00  0.28727696352E+03  0.28727696352E+03  0.00000000000E+00 0. -1.
         21   -1    0    0  501  503 -0.00000000000E+00 -0.00000000000E+00 -0.11484092951E+03  0.11484092951E+03  0.00000000000E+00 0. -1.
          6    1    1    2  501    0 -0.21527116784E+02 -0.24715502551E+02  0.32752851335E+02  0.17813203556E+03  0.17200000000E+03 0. -1.
         -6    1    1    2    0  502  0.21527116784E+02  0.24715502551E+02  0.13968318267E+03  0.22398585747E+03  0.17200000000E+03 0. -1.
<mgrwt>
<rscale>  2 0.17509504E+03</rscale>
<asrwt>0</asrwt>
<pdfrwt beam="1">  1       21 0.71819239E-01 0.17509504E+03</pdfrwt>
<pdfrwt beam="2">  1       21 0.28710233E-01 0.17509504E+03</pdfrwt>
<totfact> 0.20537432E+04</totfact>
</mgrwt>
</event>
<event>
 4    1  0.1132373E+000  0.2615437E+03  0.7546771E-02  0.1106219E+00
         21   -1    0    0  503  502  0.00000000000E+00  0.00000000000E+00  0.41007534892E+03  0.41007534892E+03  0.00000000000E+00 0.  1.
         21   -1    0    0  501  503 -0.00000000000E+00 -0.00000000000E+00 -0.20836902328E+03  0.20836902328E+03  0.00000000000E+00 0.  1.
          6    1    1    2  501    0  0.20013102933E+02 -0.19601175696E+03 -0.37242748217E+02  0.26418204983E+03  0.17200000000E+03 0.  1.
         -6    1    1    2    0  502 -0.20013102933E+02  0.19601175696E+03  0.23894907386E+03  0.35426232237E+03  0.17200000000E+03 0.  1.
<mgrwt>
<rscale>  2 0.26154375E+03</rscale>
<asrwt>0</asrwt>
<pdfrwt beam="1">  1       21 0.10251884E+00 0.26154375E+03</pdfrwt>
<pdfrwt beam="2">  1       21 0.52092256E-01 0.26154375E+03</pdfrwt>
<totfact> 0.25662109E+03</totfact>
</mgrwt>
</event>
<event>
 4    1  0.1132373E+000  0.1944895E+03  0.7546771E-02  0.1154473E+00
         21   -1    0    0  501  502  0.00000000000E+00  0.00000000000E+00  0.40349137504E+03  0.40349137504E+03  0.00000000000E+00 0. -1.
         21   -1    0    0  502  503 -0.00000000000E+00 -0.00000000000E+00 -0.10086948532E+03  0.10086948532E+03  0.00000000000E+00 0.  1.
          6    1    1    2  501    0  0.40547180251E+02  0.81228724895E+02  0.21832126550E+03  0.29238733650E+03  0.17200000000E+03 0. -1.
         -6    1    1    2    0  503 -0.40547180251E+02 -0.81228724895E+02  0.84300624216E+02  0.21197352386E+03  0.17200000000E+03 0. -1.
<mgrwt>
<rscale>  2 0.19448954E+03</rscale>
<asrwt>0</asrwt>
<pdfrwt beam="1">  1       21 0.10087284E+00 0.19448954E+03</pdfrwt>
<pdfrwt beam="2">  1       21 0.25217372E-01 0.19448954E+03</pdfrwt>
<totfact> 0.11966143E+04</totfact>
</mgrwt>
</event>
<event>
 4    1  0.1132373E+000  0.1772313E+03  0.7546771E-02  0.1170510E+00
         21   -1    0    0  501  502  0.00000000000E+00  0.00000000000E+00  0.18799128706E+04  0.18799128706E+04  0.00000000000E+00 0. -1.
         21   -1    0    0  502  503 -0.00000000000E+00 -0.00000000000E+00 -0.29141003105E+02  0.29141003105E+02  0.00000000000E+00 0. -1.
          6    1    1    2  501    0  0.34606631073E+02  0.25086284443E+02  0.15488499024E+04  0.15589570106E+04  0.17200000000E+03 0. -1.
         -6    1    1    2    0  503 -0.34606631073E+02 -0.25086284443E+02  0.30192196507E+03  0.35009686313E+03  0.17200000000E+03 0. -1.
<mgrwt>
<rscale>  2 0.17723132E+03</rscale>
<asrwt>0</asrwt>
<pdfrwt beam="1">  1       21 0.46997781E+00 0.17723132E+03</pdfrwt>
<pdfrwt beam="2">  1       21 0.72852571E-02 0.17723132E+03</pdfrwt>
<totfact> 0.44346341E+02</totfact>
</mgrwt>
</event>
<event>
 4    1  0.1132373E+000  0.2454357E+03  0.7546771E-02  0.1116224E+00
         21   -1    0    0  503  502  0.00000000000E+00  0.00000000000E+00  0.10867129243E+03  0.10867129243E+03  0.00000000000E+00 0.  1.
         21   -1    0    0  501  503 -0.00000000000E+00 -0.00000000000E+00 -0.65822175650E+03  0.65822175650E+03  0.00000000000E+00 0.  1.
          6    1    1    2  501    0 -0.17386470814E+03  0.20633434149E+02 -0.42712087812E+03  0.49261640236E+03  0.17200000000E+03 0.  1.
         -6    1    1    2    0  502  0.17386470814E+03 -0.20633434149E+02 -0.12242958594E+03  0.27427664657E+03  0.17200000000E+03 0.  1.
<mgrwt>
<rscale>  2 0.24543568E+03</rscale>
<asrwt>0</asrwt>
<pdfrwt beam="1">  1       21 0.27167824E-01 0.24543568E+03</pdfrwt>
<pdfrwt beam="2">  1       21 0.16455544E+00 0.24543568E+03</pdfrwt>
<totfact> 0.28812438E+03</totfact>
</mgrwt>
</event>
<event>
 4    1  0.1132373E+000  0.2207823E+03  0.7546771E-02  0.1133301E+00
         21   -1    0    0  501  502  0.00000000000E+00  0.00000000000E+00  0.19648782308E+03  0.19648782308E+03  0.00000000000E+00 0. -1.
         21   -1    0    0  502  503 -0.00000000000E+00 -0.00000000000E+00 -0.72556378583E+03  0.72556378583E+03  0.00000000000E+00 0.  1.
          6    1    1    2  501    0 -0.83223344759E+02  0.11061057920E+03  0.10945758816E+03  0.24642603140E+03  0.17200000000E+03 0. -1.
         -6    1    1    2    0  503  0.83223344759E+02 -0.11061057920E+03 -0.63853355091E+03  0.67562557751E+03  0.17200000000E+03 0.  1.
<mgrwt>
<rscale>  2 0.22078230E+03</rscale>
<asrwt>0</asrwt>
<pdfrwt beam="1">  1       21 0.49121956E-01 0.22078230E+03</pdfrwt>
<pdfrwt beam="2">  1       21 0.18139094E+00 0.22078230E+03</pdfrwt>
<totfact> 0.68272756E+02</totfact>
</mgrwt>
</event>
<event>
 4    1  0.1132373E+000  0.1744852E+03  0.7546771E-02  0.1173250E+00
         21   -1    0    0  501  502  0.00000000000E+00  0.00000000000E+00  0.64014546319E+02  0.64014546319E+02  0.00000000000E+00 0.  1.
         21   -1    0    0  502  503 -0.00000000000E+00 -0.00000000000E+00 -0.58752116926E+03  0.58752116926E+03  0.00000000000E+00 0.  1.
          6    1    1    2  501    0  0.27379645580E+02  0.10557190959E+02 -0.11956652868E+03  0.21152128511E+03  0.17200000000E+03 0.  1.
         -6    1    1    2    0  503 -0.27379645580E+02 -0.10557190959E+02 -0.40394009426E+03  0.44001443047E+03  0.17200000000E+03 0.  1.
<mgrwt>
<rscale>  2 0.17448524E+03</rscale>
<asrwt>0</asrwt>
<pdfrwt beam="1">  1       21 0.16003637E-01 0.17448524E+03</pdfrwt>
<pdfrwt beam="2">  1       21 0.14688029E+00 0.17448524E+03</pdfrwt>
<totfact> 0.11161369E+04</totfact>
</mgrwt>
</event>
<event>
 4    1  0.1132373E+000  0.1882366E+03  0.7546771E-02  0.1160061E+00
         21   -1    0    0  501  502  0.00000000000E+00  0.00000000000E+00  0.47408845191E+02  0.47408845191E+02  0.00000000000E+00 0. -1.
         21   -1    0    0  502  503 -0.00000000000E+00 -0.00000000000E+00 -0.74743162462E+03  0.74743162462E+03  0.00000000000E+00 0. -1.
          6    1    1    2  501    0 -0.49308617548E+02 -0.58460966025E+02 -0.35287975907E+03  0.39994643225E+03  0.17200000000E+03 0.  1.
         -6    1    1    2    0  503  0.49308617548E+02  0.58460966025E+02 -0.34714302037E+03  0.39489403756E+03  0.17200000000E+03 0.  1.
<mgrwt>
<rscale>  2 0.18823662E+03</rscale>
<asrwt>0</asrwt>
<pdfrwt beam="1">  1       21 0.11852212E-01 0.18823662E+03</pdfrwt>
<pdfrwt beam="2">  1       21 0.18685790E+00 0.18823662E+03</pdfrwt>
<totfact> 0.98525546E+03</totfact>
</mgrwt>
</event>
<event>
 4    1  0.1132373E+000  0.1737559E+03  0.7546771E-02  0.1173987E+00
         21   -1    0    0  501  502  0.00000000000E+00  0.00000000000E+00  0.80703720197E+03  0.80703720197E+03  0.00000000000E+00 0.  1.
         21   -1    0    0  502  503 -0.00000000000E+00 -0.00000000000E+00 -0.37823021132E+02  0.37823021132E+02  0.00000000000E+00 0.  1.
          6    1    1    2  501    0  0.24169620819E+02 -0.47890284813E+01  0.42876054981E+03  0.46263021350E+03  0.17200000000E+03 0. -1.
         -6    1    1    2    0  503 -0.24169620819E+02  0.47890284813E+01  0.34045363102E+03  0.38223000960E+03  0.17200000000E+03 0. -1.
<mgrwt>
<rscale>  2 0.17375588E+03</rscale>
<asrwt>0</asrwt>
<pdfrwt beam="1">  1       21 0.20175924E+00 0.17375588E+03</pdfrwt>
<pdfrwt beam="2">  1       21 0.94557579E-02 0.17375588E+03</pdfrwt>
<totfact> 0.11907736E+04</totfact>
</mgrwt>
</event>
<event>
 4    1  0.1132373E+000  0.1866212E+03  0.7546771E-02  0.1161545E+00
         21   -1    0    0  501  502  0.00000000000E+00  0.00000000000E+00  0.81159568032E+02  0.81159568032E+02  0.00000000000E+00 0. -1.
         21   -1    0    0  502  503 -0.00000000000E+00 -0.00000000000E+00 -0.47415513312E+03  0.47415513312E+03  0.00000000000E+00 0. -1.
          6    1    1    2  501    0 -0.67169376083E+02 -0.27050516375E+02 -0.11093022708E+03  0.21710129157E+03  0.17200000000E+03 0. -1.
         -6    1    1    2    0  503  0.67169376083E+02  0.27050516375E+02 -0.28206533801E+03  0.33821340959E+03  0.17200000000E+03 0. -1.
<mgrwt>
<rscale>  2 0.18662116E+03</rscale>
<asrwt>0</asrwt>
<pdfrwt beam="1">  1       21 0.20289892E-01 0.18662116E+03</pdfrwt>
<pdfrwt beam="2">  1       21 0.11853878E+00 0.18662116E+03</pdfrwt>
<totfact> 0.12283581E+04</totfact>
</mgrwt>
</event>
<event>
 4    1  0.1132373E+000  0.1993835E+03  0.7546771E-02  0.1150260E+00
         21   -1    0    0  503  502  0.00000000000E+00  0.00000000000E+00  0.11007196986E+03  0.11007196986E+03  0.00000000000E+00 0.  1.
         21   -1    0    0  501  503 -0.00000000000E+00 -0.00000000000E+00 -0.36521817164E+03  0.36521817164E+03  0.00000000000E+00 0.  1.
          6    1    1    2  501    0  0.74201641130E+02 -0.68292619431E+02 -0.15261883800E+03  0.25109017330E+03  0.17200000000E+03 0.  1.
         -6    1    1    2    0  502 -0.74201641130E+02  0.68292619431E+02 -0.10252736378E+03  0.22419996820E+03  0.17200000000E+03 0.  1.
<mgrwt>
<rscale>  2 0.19938346E+03</rscale>
<asrwt>0</asrwt>
<pdfrwt beam="1">  1       21 0.27517993E-01 0.19938346E+03</pdfrwt>
<pdfrwt beam="2">  1       21 0.91304542E-01 0.19938346E+03</pdfrwt>
<totfact> 0.12744510E+04</totfact>
</mgrwt>
</event>
<event>
 4    1  0.1132373E+000  0.1966876E+03  0.7546771E-02  0.1152564E+00
         21   -1    0    0  501  502  0.00000000000E+00  0.00000000000E+00  0.75206212086E+02  0.75206212086E+02  0.00000000000E+00 0.  1.
         21   -1    0    0  502  503 -0.00000000000E+00 -0.00000000000E+00 -0.51828048023E+03  0.51828048023E+03  0.00000000000E+00 0.  1.
          6    1    1    2  501    0 -0.19386481706E+02 -0.93413961307E+02 -0.19585715816E+03  0.27757166686E+03  0.17200000000E+03 0.  1.
         -6    1    1    2    0  503  0.19386481706E+02  0.93413961307E+02 -0.24721710998E+03  0.31591502546E+03  0.17200000000E+03 0.  1.
<mgrwt>
<rscale>  2 0.19668758E+03</rscale>
<asrwt>0</asrwt>
<pdfrwt beam="1">  1       21 0.18801553E-01 0.19668758E+03</pdfrwt>
<pdfrwt beam="2">  1       21 0.12957012E+00 0.19668758E+03</pdfrwt>
<totfact> 0.11256120E+04</totfact>
</mgrwt>
</event>
<event>
 4    1  0.1132373E+000  0.2000411E+03  0.7546771E-02  0.1149704E+00
         21   -1    0    0  503  502  0.00000000000E+00  0.00000000000E+00  0.15759709500E+03  0.15759709500E+03  0.00000000000E+00 0.  1.
         21   -1    0    0  501  503 -0.00000000000E+00 -0.00000000000E+00 -0.36274230418E+03  0.36274230418E+03  0.00000000000E+00 0.  1.
          6    1    1    2  501    0 -0.84461509754E+02 -0.57434108075E+02 -0.24507578572E+03  0.31635196245E+03  0.17200000000E+03 0.  1.
         -6    1    1    2    0  502  0.84461509754E+02  0.57434108075E+02  0.39930576537E+02  0.20398743673E+03  0.17200000000E+03 0.  1.
<mgrwt>
<rscale>  2 0.20004105E+03</rscale>
<asrwt>0</asrwt>
<pdfrwt beam="1">  1       21 0.39399274E-01 0.20004105E+03</pdfrwt>
<pdfrwt beam="2">  1       21 0.90685575E-01 0.20004105E+03</pdfrwt>
<totfact> 0.63750677E+03</totfact>
</mgrwt>
</event>
<event>
 4    1  0.1132373E+000  0.1829970E+03  0.7546771E-02  0.1164934E+00
         21   -1    0    0  501  502  0.00000000000E+00  0.00000000000E+00  0.97423009768E+03  0.97423009768E+03  0.00000000000E+00 0. -1.
         21   -1    0    0  502  503 -0.00000000000E+00 -0.00000000000E+00 -0.50420064646E+02  0.50420064646E+02  0.00000000000E+00 0. -1.
          6    1    1    2  501    0  0.62124546567E+02 -0.66670398298E+01  0.75092776744E+03  0.77290388835E+03  0.17200000000E+03 0. -1.
         -6    1    1    2    0  503 -0.62124546567E+02  0.66670398298E+01  0.17288226560E+03  0.25174627398E+03  0.17200000000E+03 0. -1.
<mgrwt>
<rscale>  2 0.18299702E+03</rscale>
<asrwt>0</asrwt>
<pdfrwt beam="1">  1       21 0.24355746E+00 0.18299702E+03</pdfrwt>
<pdfrwt beam="2">  1       21 0.12605019E-01 0.18299702E+03</pdfrwt>
<totfact> 0.39401548E+03</totfact>
</mgrwt>
</event>
<event>
 4    1  0.1132373E+000  0.1826734E+03  0.7546771E-02  0.1165241E+00
         21   -1    0    0  503  502  0.00000000000E+00  0.00000000000E+00  0.14257966103E+03  0.14257966103E+03  0.00000000000E+00 0. -1.
         21   -1    0    0  501  503 -0.00000000000E+00 -0.00000000000E+00 -0.75204773207E+03  0.75204773207E+03  0.00000000000E+00 0. -1.
          6    1    1    2  501    0  0.52388335521E+02 -0.32265131439E+02 -0.67597588773E+03  0.70022351946E+03  0.17200000000E+03 0. -1.
         -6    1    1    2    0  502 -0.52388335521E+02  0.32265131439E+02  0.66507816694E+02  0.19440387364E+03  0.17200000000E+03 0. -1.
<mgrwt>
<rscale>  2 0.18267341E+03</rscale>
<asrwt>0</asrwt>
<pdfrwt beam="1">  1       21 0.35644915E-01 0.18267341E+03</pdfrwt>
<pdfrwt beam="2">  1       21 0.18801193E+00 0.18267341E+03</pdfrwt>
<totfact> 0.12335489E+03</totfact>
</mgrwt>
</event>
<event>
 4    1  0.1132373E+000  0.1830425E+03  0.7546771E-02  0.1164891E+00
         21   -1    0    0  501  502  0.00000000000E+00  0.00000000000E+00  0.42906962367E+03  0.42906962367E+03  0.00000000000E+00 0.  1.
         21   -1    0    0  502  503 -0.00000000000E+00 -0.00000000000E+00 -0.10590498753E+03  0.10590498753E+03  0.00000000000E+00 0.  1.
          6    1    1    2  501    0  0.43989534523E+02 -0.44558508393E+02  0.29867422700E+03  0.35030106150E+03  0.17200000000E+03 0.  1.
         -6    1    1    2    0  503 -0.43989534523E+02  0.44558508393E+02  0.24490409153E+02  0.18467354970E+03  0.17200000000E+03 0.  1.
<mgrwt>
<rscale>  2 0.18304245E+03</rscale>
<asrwt>0</asrwt>
<pdfrwt beam="1">  1       21 0.10726740E+00 0.18304245E+03</pdfrwt>
<pdfrwt beam="2">  1       21 0.26476248E-01 0.18304245E+03</pdfrwt>
<totfact> 0.94838349E+03</totfact>
</mgrwt>
</event>
<event>
 4    1  0.1132373E+000  0.2467460E+03  0.7546771E-02  0.1115379E+00
         21   -1    0    0  501  502  0.00000000000E+00  0.00000000000E+00  0.22320199091E+03  0.22320199091E+03  0.00000000000E+00 0. -1.
         21   -1    0    0  502  503 -0.00000000000E+00 -0.00000000000E+00 -0.27716851966E+03  0.27716851966E+03  0.00000000000E+00 0.  1.
          6    1    1    2  501    0  0.17546863696E+03 -0.22590360921E+02  0.45214021055E+01  0.24678737821E+03  0.17200000000E+03 0. -1.
         -6    1    1    2    0  503 -0.17546863696E+03  0.22590360921E+02 -0.58487930853E+02  0.25358313237E+03  0.17200000000E+03 0.  1.
<mgrwt>
<rscale>  2 0.24674596E+03</rscale>
<asrwt>0</asrwt>
<pdfrwt beam="1">  1       21 0.55800498E-01 0.24674596E+03</pdfrwt>
<pdfrwt beam="2">  1       21 0.69292129E-01 0.24674596E+03</pdfrwt>
<totfact> 0.55204595E+03</totfact>
</mgrwt>
</event>
<event>
 4    1  0.1132373E+000  0.1936589E+03  0.7546771E-02  0.1155202E+00
         21   -1    0    0  501  502  0.00000000000E+00  0.00000000000E+00  0.98357292137E+02  0.98357292137E+02  0.00000000000E+00 0.  1.
         21   -1    0    0  502  503 -0.00000000000E+00 -0.00000000000E+00 -0.49066730115E+03  0.49066730115E+03  0.00000000000E+00 0.  1.
          6    1    1    2  501    0 -0.50803594967E+01  0.88848011484E+02 -0.57111495108E+02  0.20190468561E+03  0.17200000000E+03 0.  1.
         -6    1    1    2    0  503  0.50803594967E+01 -0.88848011484E+02 -0.33519851390E+03  0.38711990768E+03  0.17200000000E+03 0.  1.
<mgrwt>
<rscale>  2 0.19365892E+03</rscale>
<asrwt>0</asrwt>
<pdfrwt beam="1">  1       21 0.24589324E-01 0.19365892E+03</pdfrwt>
<pdfrwt beam="2">  1       21 0.12266682E+00 0.19365892E+03</pdfrwt>
<totfact> 0.78111066E+03</totfact>
</mgrwt>
</event>
<event>
 4    1  0.1132373E+000  0.1798837E+03  0.7546771E-02  0.1167916E+00
         21   -1    0    0  501  502  0.00000000000E+00  0.00000000000E+00  0.21267859711E+03  0.21267859711E+03  0.00000000000E+00 0. -1.
         21   -1    0    0  502  503 -0.00000000000E+00 -0.00000000000E+00 -0.41232710063E+03  0.41232710063E+03  0.00000000000E+00 0. -1.
          6    1    1    2  501    0  0.27843533587E+02 -0.44708907378E+02  0.14841537328E+03  0.23320650031E+03  0.17200000000E+03 0. -1.
         -6    1    1    2    0  503 -0.27843533587E+02  0.44708907378E+02 -0.34806387681E+03  0.39179919743E+03  0.17200000000E+03 0. -1.
<mgrwt>
<rscale>  2 0.17988371E+03</rscale>
<asrwt>0</asrwt>
<pdfrwt beam="1">  1       21 0.53169650E-01 0.17988371E+03</pdfrwt>
<pdfrwt beam="2">  1       21 0.10308177E+00 0.17988371E+03</pdfrwt>
<totfact> 0.25877930E+03</totfact>
</mgrwt>
</event>
<event>
 4    1  0.1132373E+000  0.1727353E+03  0.7546771E-02  0.1175025E+00
         21   -1    0    0  501  502  0.00000000000E+00  0.00000000000E+00  0.40622016787E+02  0.40622016787E+02  0.00000000000E+00 0.  1.
         21   -1    0    0  502  503 -0.00000000000E+00 -0.00000000000E+00 -0.91376066666E+03  0.91376066666E+03  0.00000000000E+00 0.  1.
          6    1    1    2  501    0  0.15913601660E+02 -0.48478301800E+00 -0.22522005830E+03  0.28383367030E+03  0.17200000000E+03 0.  1.
         -6    1    1    2    0  503 -0.15913601660E+02  0.48478301800E+00 -0.64791859157E+03  0.67054901315E+03  0.17200000000E+03 0.  1.
<mgrwt>
<rscale>  2 0.17273528E+03</rscale>
<asrwt>0</asrwt>
<pdfrwt beam="1">  1       21 0.10155504E-01 0.17273528E+03</pdfrwt>
<pdfrwt beam="2">  1       21 0.22844017E+00 0.17273528E+03</pdfrwt>
<totfact> 0.71966951E+03</totfact>
</mgrwt>
</event>
<event>
 4    1  0.1132373E+000  0.2142316E+03  0.7546771E-02  0.1138258E+00
         21   -1    0    0  501  502  0.00000000000E+00  0.00000000000E+00  0.30796717097E+03  0.30796717097E+03  0.00000000000E+00 0. -1.
         21   -1    0    0  502  503 -0.00000000000E+00 -0.00000000000E+00 -0.16279124963E+03  0.16279124963E+03  0.00000000000E+00 0. -1.
          6    1    1    2  501    0 -0.99468223137E+02 -0.80107829241E+02  0.41431193821E+01  0.21427169005E+03  0.17200000000E+03 0. -1.
         -6    1    1    2    0  503  0.99468223137E+02  0.80107829241E+02  0.14103280195E+03  0.25648673055E+03  0.17200000000E+03 0. -1.
<mgrwt>
<rscale>  2 0.21423163E+03</rscale>
<asrwt>0</asrwt>
<pdfrwt beam="1">  1       21 0.76991792E-01 0.21423163E+03</pdfrwt>
<pdfrwt beam="2">  1       21 0.40697813E-01 0.21423163E+03</pdfrwt>
<totfact> 0.85906131E+03</totfact>
</mgrwt>
</event>
<event>
 4    1  0.1132373E+000  0.1979943E+03  0.7546771E-02  0.1151442E+00
         21   -1    0    0  503  502  0.00000000000E+00  0.00000000000E+00  0.49452602427E+03  0.49452602427E+03  0.00000000000E+00 0. -1.
         21   -1    0    0  501  503 -0.00000000000E+00 -0.00000000000E+00 -0.83151772590E+02  0.83151772590E+02  0.00000000000E+00 0. -1.
          6    1    1    2  501    0 -0.34620962193E+02 -0.91755813472E+02  0.14329065487E+03  0.24440530293E+03  0.17200000000E+03 0. -1.
         -6    1    1    2    0  502  0.34620962193E+02  0.91755813472E+02  0.26808359682E+03  0.33327249393E+03  0.17200000000E+03 0. -1.
<mgrwt>
<rscale>  2 0.19799429E+03</rscale>
<asrwt>0</asrwt>
<pdfrwt beam="1">  1       21 0.12363150E+00 0.19799429E+03</pdfrwt>
<pdfrwt beam="2">  1       21 0.20787945E-01 0.19799429E+03</pdfrwt>
<totfact> 0.10488436E+04</totfact>
</mgrwt>
</event>
<event>
 4    1  0.1132373E+000  0.2464696E+03  0.7546771E-02  0.1115557E+00
         21   -1    0    0  503  502  0.00000000000E+00  0.00000000000E+00  0.20803639948E+03  0.20803639948E+03  0.00000000000E+00 0. -1.
         21   -1    0    0  501  503 -0.00000000000E+00 -0.00000000000E+00 -0.40885442810E+03  0.40885442810E+03  0.00000000000E+00 0. -1.
          6    1    1    2  501    0  0.12318067613E+03  0.12645067871E+03 -0.26530533802E+03  0.36212453037E+03  0.17200000000E+03 0. -1.
         -6    1    1    2    0  502 -0.12318067613E+03 -0.12645067871E+03  0.64487309399E+02  0.25476629721E+03  0.17200000000E+03 0. -1.
<mgrwt>
<rscale>  2 0.24646958E+03</rscale>
<asrwt>0</asrwt>
<pdfrwt beam="1">  1       21 0.52009100E-01 0.24646958E+03</pdfrwt>
<pdfrwt beam="2">  1       21 0.10221361E+00 0.24646958E+03</pdfrwt>
<totfact> 0.26201225E+03</totfact>
</mgrwt>
</event>
<event>
 4    1  0.1132373E+000  0.1731432E+03  0.7546771E-02  0.1174609E+00
         21   -1    0    0  503  502  0.00000000000E+00  0.00000000000E+00  0.46753945296E+03  0.46753945296E+03  0.00000000000E+00 0.  1.
         21   -1    0    0  501  503 -0.00000000000E+00 -0.00000000000E+00 -0.11215440476E+03  0.11215440476E+03  0.00000000000E+00 0.  1.
          6    1    1    2  501    0  0.43979175720E+01 -0.19370350564E+02 -0.11994442836E+02  0.17355811366E+03  0.17200000000E+03 0.  1.
         -6    1    1    2    0  502 -0.43979175720E+01  0.19370350564E+02  0.36737949104E+03  0.40613574405E+03  0.17200000000E+03 0.  1.
<mgrwt>
<rscale>  2 0.17314316E+03</rscale>
<asrwt>0</asrwt>
<pdfrwt beam="1">  1       21 0.11688486E+00 0.17314316E+03</pdfrwt>
<pdfrwt beam="2">  1       21 0.28038602E-01 0.17314316E+03</pdfrwt>
<totfact> 0.69525114E+03</totfact>
</mgrwt>
</event>
<event>
 4    1  0.1132373E+000  0.2973502E+03  0.7546771E-02  0.1086573E+00
         21   -1    0    0  503  502  0.00000000000E+00  0.00000000000E+00  0.41774574627E+03  0.41774574627E+03  0.00000000000E+00 0.  1.
         21   -1    0    0  501  503 -0.00000000000E+00 -0.00000000000E+00 -0.26115445103E+03  0.26115445103E+03  0.00000000000E+00 0. -1.
          6    1    1    2  501    0  0.19700355764E+03  0.14150180243E+03 -0.69491260549E+02  0.30536240290E+03  0.17200000000E+03 0. -1.
         -6    1    1    2    0  502 -0.19700355764E+03 -0.14150180243E+03  0.22608255579E+03  0.37353779440E+03  0.17200000000E+03 0.  1.
<mgrwt>
<rscale>  2 0.29735023E+03</rscale>
<asrwt>0</asrwt>
<pdfrwt beam="1">  1       21 0.10443644E+00 0.29735023E+03</pdfrwt>
<pdfrwt beam="2">  1       21 0.65288613E-01 0.29735023E+03</pdfrwt>
<totfact> 0.14734658E+03</totfact>
</mgrwt>
</event>
<event>
 4    1  0.1132373E+000  0.1808887E+03  0.7546771E-02  0.1166946E+00
         21   -1    0    0  503  502  0.00000000000E+00  0.00000000000E+00  0.37155780414E+03  0.37155780414E+03  0.00000000000E+00 0. -1.
         21   -1    0    0  501  503 -0.00000000000E+00 -0.00000000000E+00 -0.90928959916E+02  0.90928959916E+02  0.00000000000E+00 0. -1.
          6    1    1    2  501    0  0.38937839725E+02 -0.40256402298E+02  0.18136361671E+03  0.25615131223E+03  0.17200000000E+03 0. -1.
         -6    1    1    2    0  502 -0.38937839725E+02  0.40256402298E+02  0.99265227511E+02  0.20633545183E+03  0.17200000000E+03 0. -1.
<mgrwt>
<rscale>  2 0.18088873E+03</rscale>
<asrwt>0</asrwt>
<pdfrwt beam="1">  1       21 0.92889447E-01 0.18088873E+03</pdfrwt>
<pdfrwt beam="2">  1       21 0.22732241E-01 0.18088873E+03</pdfrwt>
<totfact> 0.17846469E+04</totfact>
</mgrwt>
</event>
<event>
 4    1  0.1132373E+000  0.1863542E+03  0.7546771E-02  0.1161791E+00
         21   -1    0    0  503  502  0.00000000000E+00  0.00000000000E+00  0.17207546014E+03  0.17207546014E+03  0.00000000000E+00 0. -1.
         21   -1    0    0  501  503 -0.00000000000E+00 -0.00000000000E+00 -0.20835881505E+03  0.20835881505E+03  0.00000000000E+00 0. -1.
          6    1    1    2  501    0  0.52692745945E+01 -0.71527194023E+02  0.15560936623E+02  0.18700280075E+03  0.17200000000E+03 0. -1.
         -6    1    1    2    0  502 -0.52692745945E+01  0.71527194023E+02 -0.51844291535E+02  0.19343147444E+03  0.17200000000E+03 0. -1.
<mgrwt>
<rscale>  2 0.18635425E+03</rscale>
<asrwt>0</asrwt>
<pdfrwt beam="1">  1       21 0.43018865E-01 0.18635425E+03</pdfrwt>
<pdfrwt beam="2">  1       21 0.52089704E-01 0.18635425E+03</pdfrwt>
<totfact> 0.18243939E+04</totfact>
</mgrwt>
</event>
<event>
 4    1  0.1132373E+000  0.2835322E+03  0.7546771E-02  0.1093775E+00
         21   -1    0    0  503  502  0.00000000000E+00  0.00000000000E+00  0.13224268830E+03  0.13224268830E+03  0.00000000000E+00 0.  1.
         21   -1    0    0  501  503 -0.00000000000E+00 -0.00000000000E+00 -0.68797113731E+03  0.68797113731E+03  0.00000000000E+00 0.  1.
          6    1    1    2  501    0  0.22454923940E+03 -0.19600132852E+02 -0.41777332412E+03  0.50490105611E+03  0.17200000000E+03 0.  1.
         -6    1    1    2    0  502 -0.22454923940E+03  0.19600132852E+02 -0.13795512489E+03  0.31531276949E+03  0.17200000000E+03 0.  1.
<mgrwt>
<rscale>  2 0.28353223E+03</rscale>
<asrwt>0</asrwt>
<pdfrwt beam="1">  1       21 0.33060672E-01 0.28353223E+03</pdfrwt>
<pdfrwt beam="2">  1       21 0.17199278E+00 0.28353223E+03</pdfrwt>
<totfact> 0.16862287E+03</totfact>
</mgrwt>
</event>
<event>
 4    1  0.1132373E+000  0.1842663E+03  0.7546771E-02  0.1163737E+00
         21   -1    0    0  503  502  0.00000000000E+00  0.00000000000E+00  0.73657814442E+02  0.73657814442E+02  0.00000000000E+00 0. -1.
         21   -1    0    0  501  503 -0.00000000000E+00 -0.00000000000E+00 -0.53826171219E+03  0.53826171219E+03  0.00000000000E+00 0. -1.
          6    1    1    2  501    0  0.30749087751E+02  0.58519814534E+02 -0.34824181685E+03  0.39398786541E+03  0.17200000000E+03 0.  1.
         -6    1    1    2    0  502 -0.30749087751E+02 -0.58519814534E+02 -0.11636208090E+03  0.21793166122E+03  0.17200000000E+03 0.  1.
<mgrwt>
<rscale>  2 0.18426632E+03</rscale>
<asrwt>0</asrwt>
<pdfrwt beam="1">  1       21 0.18414454E-01 0.18426632E+03</pdfrwt>
<pdfrwt beam="2">  1       21 0.13456542E+00 0.18426632E+03</pdfrwt>
<totfact> 0.10726814E+04</totfact>
</mgrwt>
</event>
<event>
 4    1  0.1132373E+000  0.1910170E+03  0.7546771E-02  0.1157547E+00
         21   -1    0    0  503  502  0.00000000000E+00  0.00000000000E+00  0.10048443604E+03  0.10048443604E+03  0.00000000000E+00 0.  1.
         21   -1    0    0  501  503 -0.00000000000E+00 -0.00000000000E+00 -0.39501755700E+03  0.39501755700E+03  0.00000000000E+00 0.  1.
          6    1    1    2  501    0 -0.83012135790E+02  0.35324181690E+01 -0.21767327620E+03  0.28960170552E+03  0.17200000000E+03 0.  1.
         -6    1    1    2    0  502  0.83012135790E+02 -0.35324181690E+01 -0.76859844762E+02  0.20590028753E+03  0.17200000000E+03 0.  1.
<mgrwt>
<rscale>  2 0.19101700E+03</rscale>
<asrwt>0</asrwt>
<pdfrwt beam="1">  1       21 0.25121109E-01 0.19101700E+03</pdfrwt>
<pdfrwt beam="2">  1       21 0.98754389E-01 0.19101700E+03</pdfrwt>
<totfact> 0.12705823E+04</totfact>
</mgrwt>
</event>
<event>
 4    1  0.1132373E+000  0.2040278E+03  0.7546771E-02  0.1146385E+00
         21   -1    0    0  503  502  0.00000000000E+00  0.00000000000E+00  0.10358039368E+04  0.10358039368E+04  0.00000000000E+00 0. -1.
         21   -1    0    0  501  503 -0.00000000000E+00 -0.00000000000E+00 -0.18141742287E+03  0.18141742287E+03  0.00000000000E+00 0. -1.
          6    1    1    2  501    0 -0.75181263665E+02 -0.79944592019E+02 -0.10979150833E+03  0.23169276100E+03  0.17200000000E+03 0. -1.
         -6    1    1    2    0  502  0.75181263665E+02  0.79944592019E+02  0.96417802230E+03  0.98552859872E+03  0.17200000000E+03 0. -1.
<mgrwt>
<rscale>  2 0.20402784E+03</rscale>
<asrwt>0</asrwt>
<pdfrwt beam="1">  1       21 0.25895097E+00 0.20402784E+03</pdfrwt>
<pdfrwt beam="2">  1       21 0.45354359E-01 0.20402784E+03</pdfrwt>
<totfact> 0.27049301E+02</totfact>
</mgrwt>
</event>
<event>
 4    1  0.1132373E+000  0.3372739E+03  0.7546771E-02  0.1067963E+00
         21   -1    0    0  501  502  0.00000000000E+00  0.00000000000E+00  0.46248399474E+03  0.46248399474E+03  0.00000000000E+00 0. -1.
         21   -1    0    0  502  503 -0.00000000000E+00 -0.00000000000E+00 -0.24682900573E+03  0.24682900573E+03  0.00000000000E+00 0.  1.
          6    1    1    2  501    0 -0.23781369917E+03 -0.16617550080E+03  0.86812376372E+02  0.34826719810E+03  0.17200000000E+03 0.  1.
         -6    1    1    2    0  503  0.23781369917E+03  0.16617550080E+03  0.12884261263E+03  0.36104580237E+03  0.17200000000E+03 0. -1.
<mgrwt>
<rscale>  2 0.33727385E+03</rscale>
<asrwt>0</asrwt>
<pdfrwt beam="1">  1       21 0.11562100E+00 0.33727385E+03</pdfrwt>
<pdfrwt beam="2">  1       21 0.61707252E-01 0.33727385E+03</pdfrwt>
<totfact> 0.12687963E+03</totfact>
</mgrwt>
</event>
<event>
 4    1  0.1132373E+000  0.1919058E+03  0.7546771E-02  0.1156754E+00
         21   -1    0    0  503  502  0.00000000000E+00  0.00000000000E+00  0.19578579328E+03  0.19578579328E+03  0.00000000000E+00 0.  1.
         21   -1    0    0  501  503 -0.00000000000E+00 -0.00000000000E+00 -0.28189671530E+03  0.28189671530E+03  0.00000000000E+00 0.  1.
          6    1    1    2  501    0 -0.83872184953E+02  0.14467422201E+02 -0.18082453569E+03  0.26367662471E+03  0.17200000000E+03 0.  1.
         -6    1    1    2    0  502  0.83872184953E+02 -0.14467422201E+02  0.94713613669E+02  0.21400588386E+03  0.17200000000E+03 0.  1.
<mgrwt>
<rscale>  2 0.19190584E+03</rscale>
<asrwt>0</asrwt>
<pdfrwt beam="1">  1       21 0.48946449E-01 0.19190584E+03</pdfrwt>
<pdfrwt beam="2">  1       21 0.70474178E-01 0.19190584E+03</pdfrwt>
<totfact> 0.72756680E+03</totfact>
</mgrwt>
</event>
<event>
 4    1  0.1132373E+000  0.1822272E+03  0.7546771E-02  0.1165665E+00
         21   -1    0    0  501  502  0.00000000000E+00  0.00000000000E+00  0.10557467834E+03  0.10557467834E+03  0.00000000000E+00 0.  1.
         21   -1    0    0  502  503 -0.00000000000E+00 -0.00000000000E+00 -0.37747523851E+03  0.37747523851E+03  0.00000000000E+00 0.  1.
          6    1    1    2  501    0  0.26313496206E+02 -0.54132687937E+02 -0.37325063610E+02  0.18601050605E+03  0.17200000000E+03 0.  1.
         -6    1    1    2    0  503 -0.26313496206E+02  0.54132687937E+02 -0.23457549656E+03  0.29703941081E+03  0.17200000000E+03 0.  1.
<mgrwt>
<rscale>  2 0.18222719E+03</rscale>
<asrwt>0</asrwt>
<pdfrwt beam="1">  1       21 0.26393670E-01 0.18222719E+03</pdfrwt>
<pdfrwt beam="2">  1       21 0.94368808E-01 0.18222719E+03</pdfrwt>
<totfact> 0.12935847E+04</totfact>
</mgrwt>
</event>
<event>
 4    1  0.1132373E+000  0.1773952E+03  0.7546771E-02  0.1170348E+00
         21   -1    0    0  503  502  0.00000000000E+00  0.00000000000E+00  0.37222197003E+03  0.37222197003E+03  0.00000000000E+00 0. -1.
         21   -1    0    0  501  503 -0.00000000000E+00 -0.00000000000E+00 -0.87610670193E+02  0.87610670193E+02  0.00000000000E+00 0. -1.
          6    1    1    2  501    0  0.19181575604E+01 -0.43374798816E+02  0.18532267596E+03  0.25654151072E+03  0.17200000000E+03 0. -1.
         -6    1    1    2    0  502 -0.19181575604E+01  0.43374798816E+02  0.99288623879E+02  0.20329112950E+03  0.17200000000E+03 0. -1.
<mgrwt>
<rscale>  2 0.17739519E+03</rscale>
<asrwt>0</asrwt>
<pdfrwt beam="1">  1       21 0.93055488E-01 0.17739519E+03</pdfrwt>
<pdfrwt beam="2">  1       21 0.21902669E-01 0.17739519E+03</pdfrwt>
<totfact> 0.19104787E+04</totfact>
</mgrwt>
</event>
<event>
 4    1  0.1132373E+000  0.1771145E+03  0.7546771E-02  0.1170625E+00
         21   -1    0    0  503  502  0.00000000000E+00  0.00000000000E+00  0.11146425325E+03  0.11146425325E+03  0.00000000000E+00 0. -1.
         21   -1    0    0  501  503 -0.00000000000E+00 -0.00000000000E+00 -0.51643291276E+03  0.51643291276E+03  0.00000000000E+00 0. -1.
          6    1    1    2  501    0 -0.26153977861E+02 -0.33189054113E+02 -0.41426527133E+03  0.45053885393E+03  0.17200000000E+03 0.  1.
         -6    1    1    2    0  502  0.26153977861E+02  0.33189054113E+02  0.92966118179E+01  0.17735831208E+03  0.17200000000E+03 0.  1.
<mgrwt>
<rscale>  2 0.17711449E+03</rscale>
<asrwt>0</asrwt>
<pdfrwt beam="1">  1       21 0.27866064E-01 0.17711449E+03</pdfrwt>
<pdfrwt beam="2">  1       21 0.12910823E+00 0.17711449E+03</pdfrwt>
<totfact> 0.54782974E+03</totfact>
</mgrwt>
</event>
<event>
 4    1  0.1132373E+000  0.2271357E+03  0.7546771E-02  0.1128672E+00
         21   -1    0    0  501  502  0.00000000000E+00  0.00000000000E+00  0.45026968223E+03  0.45026968223E+03  0.00000000000E+00 0.  1.
         21   -1    0    0  502  503 -0.00000000000E+00 -0.00000000000E+00 -0.13745714325E+03  0.13745714325E+03  0.00000000000E+00 0. -1.
          6    1    1    2  501    0 -0.12965888950E+03  0.72077579310E+02  0.27629822860E+03  0.35767487498E+03  0.17200000000E+03 0.  1.
         -6    1    1    2    0  503  0.12965888950E+03 -0.72077579310E+02  0.36514310372E+02  0.23005195050E+03  0.17200000000E+03 0.  1.
<mgrwt>
<rscale>  2 0.22713565E+03</rscale>
<asrwt>0</asrwt>
<pdfrwt beam="1">  1       21 0.11256742E+00 0.22713565E+03</pdfrwt>
<pdfrwt beam="2">  1       21 0.34364287E-01 0.22713565E+03</pdfrwt>
<totfact> 0.49088505E+03</totfact>
</mgrwt>
</event>
<event>
 4    1  0.1132373E+000  0.1787365E+03  0.7546771E-02  0.1169032E+00
         21   -1    0    0  503  502  0.00000000000E+00  0.00000000000E+00  0.21695900818E+03  0.21695900818E+03  0.00000000000E+00 0. -1.
         21   -1    0    0  501  503 -0.00000000000E+00 -0.00000000000E+00 -0.19742607193E+03  0.19742607193E+03  0.00000000000E+00 0. -1.
          6    1    1    2  501    0  0.39365897680E+02 -0.28514015269E+02 -0.94688712759E+02  0.20226881937E+03  0.17200000000E+03 0. -1.
         -6    1    1    2    0  502 -0.39365897680E+02  0.28514015269E+02  0.11422164901E+03  0.21211626074E+03  0.17200000000E+03 0. -1.
<mgrwt>
<rscale>  2 0.17873646E+03</rscale>
<asrwt>0</asrwt>
<pdfrwt beam="1">  1       21 0.54239752E-01 0.17873646E+03</pdfrwt>
<pdfrwt beam="2">  1       21 0.49356518E-01 0.17873646E+03</pdfrwt>
<totfact> 0.12691287E+04</totfact>
</mgrwt>
</event>
<event>
 4    1  0.1132373E+000  0.2034734E+03  0.7546771E-02  0.1146841E+00
         21   -1    0    0  503  502  0.00000000000E+00  0.00000000000E+00  0.32951249815E+03  0.32951249815E+03  0.00000000000E+00 0.  1.
         21   -1    0    0  501  503 -0.00000000000E+00 -0.00000000000E+00 -0.14025328669E+03  0.14025328669E+03  0.00000000000E+00 0.  1.
          6    1    1    2  501    0 -0.10835268492E+03  0.87808659663E+01  0.17043551660E+03  0.26542357328E+03  0.17200000000E+03 0.  1.
         -6    1    1    2    0  502  0.10835268492E+03 -0.87808659663E+01  0.18823694867E+02  0.20434221156E+03  0.17200000000E+03 0.  1.
<mgrwt>
<rscale>  2 0.20347336E+03</rscale>
<asrwt>0</asrwt>
<pdfrwt beam="1">  1       21 0.82378123E-01 0.20347336E+03</pdfrwt>
<pdfrwt beam="2">  1       21 0.35063322E-01 0.20347336E+03</pdfrwt>
<totfact> 0.10016123E+04</totfact>
</mgrwt>
</event>
<event>
 4    1  0.1132373E+000  0.1759018E+03  0.7546771E-02  0.1171829E+00
         21   -1    0    0  501  502  0.00000000000E+00  0.00000000000E+00  0.26897438763E+03  0.26897438763E+03  0.00000000000E+00 0. -1.
         21   -1    0    0  502  503 -0.00000000000E+00 -0.00000000000E+00 -0.14014701112E+03  0.14014701112E+03  0.00000000000E+00 0. -1.
          6    1    1    2  501    0  0.30810902862E+02  0.20202130390E+02  0.15100454164E+03  0.23182711102E+03  0.17200000000E+03 0. -1.
         -6    1    1    2    0  503 -0.30810902862E+02 -0.20202130390E+02 -0.22177165140E+02  0.17729428773E+03  0.17200000000E+03 0. -1.
<mgrwt>
<rscale>  2 0.17590178E+03</rscale>
<asrwt>0</asrwt>
<pdfrwt beam="1">  1       21 0.67243596E-01 0.17590178E+03</pdfrwt>
<pdfrwt beam="2">  1       21 0.35036753E-01 0.17590178E+03</pdfrwt>
<totfact> 0.16063733E+04</totfact>
</mgrwt>
</event>
<event>
 4    1  0.1132373E+000  0.1912260E+03  0.7546771E-02  0.1157360E+00
         21   -1    0    0  503  502  0.00000000000E+00  0.00000000000E+00  0.11402444450E+03  0.11402444450E+03  0.00000000000E+00 0. -1.
         21   -1    0    0  501  503 -0.00000000000E+00 -0.00000000000E+00 -0.49303348699E+03  0.49303348699E+03  0.00000000000E+00 0. -1.
          6    1    1    2  501    0  0.41602259688E+02  0.72474943480E+02 -0.36895713896E+03  0.41556796776E+03  0.17200000000E+03 0. -1.
         -6    1    1    2    0  502 -0.41602259688E+02 -0.72474943480E+02 -0.10051903533E+02  0.19148996373E+03  0.17200000000E+03 0. -1.
<mgrwt>
<rscale>  2 0.19122595E+03</rscale>
<asrwt>0</asrwt>
<pdfrwt beam="1">  1       21 0.28506112E-01 0.19122595E+03</pdfrwt>
<pdfrwt beam="2">  1       21 0.12325837E+00 0.19122595E+03</pdfrwt>
<totfact> 0.58208693E+03</totfact>
</mgrwt>
</event>
<event>
 4    1  0.1132373E+000  0.1780046E+03  0.7546771E-02  0.1169748E+00
         21   -1    0    0  501  502  0.00000000000E+00  0.00000000000E+00  0.25122871204E+03  0.25122871204E+03  0.00000000000E+00 0. -1.
         21   -1    0    0  502  503 -0.00000000000E+00 -0.00000000000E+00 -0.29324824074E+03  0.29324824074E+03  0.00000000000E+00 0. -1.
          6    1    1    2  501    0  0.37408748385E+02  0.26499238915E+02  0.18450986627E+03  0.25637768013E+03  0.17200000000E+03 0. -1.
         -6    1    1    2    0  503 -0.37408748385E+02 -0.26499238915E+02 -0.22652939497E+03  0.28809927265E+03  0.17200000000E+03 0. -1.
<mgrwt>
<rscale>  2 0.17800456E+03</rscale>
<asrwt>0</asrwt>
<pdfrwt beam="1">  1       21 0.62807178E-01 0.17800456E+03</pdfrwt>
<pdfrwt beam="2">  1       21 0.73312060E-01 0.17800456E+03</pdfrwt>
<totfact> 0.39754064E+03</totfact>
</mgrwt>
</event>
<event>
 4    1  0.1132373E+000  0.3424293E+03  0.7546771E-02  0.1065766E+00
         21   -1    0    0  501  502  0.00000000000E+00  0.00000000000E+00  0.51562018511E+03  0.51562018511E+03  0.00000000000E+00 0.  1.
         21   -1    0    0  502  503 -0.00000000000E+00 -0.00000000000E+00 -0.26085108545E+03  0.26085108545E+03  0.00000000000E+00 0. -1.
          6    1    1    2  501    0 -0.26987744822E+03 -0.12181944001E+03  0.26638985058E+03  0.43384486342E+03  0.17200000000E+03 0.  1.
         -6    1    1    2    0  503  0.26987744822E+03  0.12181944001E+03 -0.11620750917E+02  0.34262640715E+03  0.17200000000E+03 0. -1.
<mgrwt>
<rscale>  2 0.34242928E+03</rscale>
<asrwt>0</asrwt>
<pdfrwt beam="1">  1       21 0.12890504E+00 0.34242928E+03</pdfrwt>
<pdfrwt beam="2">  1       21 0.65212772E-01 0.34242928E+03</pdfrwt>
<totfact> 0.85077134E+02</totfact>
</mgrwt>
</event>
<event>
 4    1  0.1132373E+000  0.2162251E+03  0.7546771E-02  0.1136729E+00
         21   -1    0    0  501  502  0.00000000000E+00  0.00000000000E+00  0.12872594646E+04  0.12872594646E+04  0.00000000000E+00 0. -1.
         21   -1    0    0  502  503 -0.00000000000E+00 -0.00000000000E+00 -0.36624403019E+02  0.36624403019E+02  0.00000000000E+00 0. -1.
          6    1    1    2  501    0 -0.71195830994E+02 -0.11000210542E+03  0.68566147821E+03  0.71894712758E+03  0.17200000000E+03 0. -1.
         -6    1    1    2    0  503  0.71195830994E+02  0.11000210542E+03  0.56497358337E+03  0.60493674005E+03  0.17200000000E+03 0. -1.
<mgrwt>
<rscale>  2 0.21622514E+03</rscale>
<asrwt>0</asrwt>
<pdfrwt beam="1">  1       21 0.32181472E+00 0.21622514E+03</pdfrwt>
<pdfrwt beam="2">  1       21 0.91561050E-02 0.21622514E+03</pdfrwt>
<totfact> 0.23519641E+03</totfact>
</mgrwt>
</event>
<event>
 4    1  0.1132373E+000  0.1757076E+03  0.7546771E-02  0.1172023E+00
         21   -1    0    0  501  502  0.00000000000E+00  0.00000000000E+00  0.62555864954E+03  0.62555864954E+03  0.00000000000E+00 0.  1.
         21   -1    0    0  502  503 -0.00000000000E+00 -0.00000000000E+00 -0.86195714118E+02  0.86195714118E+02  0.00000000000E+00 0.  1.
          6    1    1    2  501    0 -0.17836562850E+02  0.31161122513E+02  0.50234775949E+03  0.53219021975E+03  0.17200000000E+03 0.  1.
         -6    1    1    2    0  503  0.17836562850E+02 -0.31161122513E+02  0.37015175937E+02  0.17956414392E+03  0.17200000000E+03 0.  1.
<mgrwt>
<rscale>  2 0.17570759E+03</rscale>
<asrwt>0</asrwt>
<pdfrwt beam="1">  1       21 0.15638965E+00 0.17570759E+03</pdfrwt>
<pdfrwt beam="2">  1       21 0.21548930E-01 0.17570759E+03</pdfrwt>
<totfact> 0.54507676E+03</totfact>
</mgrwt>
</event>
<event>
 4    1  0.1132373E+000  0.2761911E+03  0.7546771E-02  0.1097788E+00
         21   -1    0    0  503  502  0.00000000000E+00  0.00000000000E+00  0.78054672710E+02  0.78054672710E+02  0.00000000000E+00 0. -1.
         21   -1    0    0  501  503 -0.00000000000E+00 -0.00000000000E+00 -0.11372871697E+04  0.11372871697E+04  0.00000000000E+00 0.  1.
          6    1    1    2  501    0  0.20675814697E+03  0.62837626772E+02 -0.75754501487E+03  0.80632248402E+03  0.17200000000E+03 0. -1.
         -6    1    1    2    0  502 -0.20675814697E+03 -0.62837626772E+02 -0.30168748215E+03  0.40901935842E+03  0.17200000000E+03 0. -1.
<mgrwt>
<rscale>  2 0.27619105E+03</rscale>
<asrwt>0</asrwt>
<pdfrwt beam="1">  1       21 0.19513668E-01 0.27619105E+03</pdfrwt>
<pdfrwt beam="2">  1       21 0.28432179E+00 0.27619105E+03</pdfrwt>
<totfact> 0.92621826E+02</totfact>
</mgrwt>
</event>
<event>
 4    1  0.1132373E+000  0.4046667E+03  0.7546771E-02  0.1042176E+00
         21   -1    0    0  503  502  0.00000000000E+00  0.00000000000E+00  0.14037866413E+03  0.14037866413E+03  0.00000000000E+00 0. -1.
         21   -1    0    0  501  503 -0.00000000000E+00 -0.00000000000E+00 -0.15259625591E+04  0.15259625591E+04  0.00000000000E+00 0. -1.
          6    1    1    2  501    0  0.36450271999E+03  0.36178365829E+02 -0.10971575667E+04  0.11694057607E+04  0.17200000000E+03 0. -1.
         -6    1    1    2    0  502 -0.36450271999E+03 -0.36178365829E+02 -0.28842632820E+03  0.49693546244E+03  0.17200000000E+03 0. -1.
<mgrwt>
<rscale>  2 0.40466666E+03</rscale>
<asrwt>0</asrwt>
<pdfrwt beam="1">  1       21 0.35094666E-01 0.40466666E+03</pdfrwt>
<pdfrwt beam="2">  1       21 0.38149064E+00 0.40466666E+03</pdfrwt>
<totfact> 0.68776418E+01</totfact>
</mgrwt>
</event>
<event>
 4    1  0.1132373E+000  0.1758986E+03  0.7546771E-02  0.1171832E+00
         21   -1    0    0  503  502  0.00000000000E+00  0.00000000000E+00  0.96231518996E+03  0.96231518996E+03  0.00000000000E+00 0. -1.
         21   -1    0    0  501  503 -0.00000000000E+00 -0.00000000000E+00 -0.54126318035E+02  0.54126318035E+02  0.00000000000E+00 0. -1.
          6    1    1    2  501    0  0.31037245425E+02  0.19824632494E+02  0.13027256457E+03  0.21888642657E+03  0.17200000000E+03 0. -1.
         -6    1    1    2    0  502 -0.31037245425E+02 -0.19824632494E+02  0.77791630735E+03  0.79755508142E+03  0.17200000000E+03 0. -1.
<mgrwt>
<rscale>  2 0.17589863E+03</rscale>
<asrwt>0</asrwt>
<pdfrwt beam="1">  1       21 0.24057874E+00 0.17589863E+03</pdfrwt>
<pdfrwt beam="2">  1       21 0.13531583E-01 0.17589863E+03</pdfrwt>
<totfact> 0.36404592E+03</totfact>
</mgrwt>
</event>
<event>
 4    1  0.1132373E+000  0.2342395E+03  0.7546771E-02  0.1123691E+00
         21   -1    0    0  501  502  0.00000000000E+00  0.00000000000E+00  0.25399098051E+02  0.25399098051E+02  0.00000000000E+00 0. -1.
         21   -1    0    0  502  503 -0.00000000000E+00 -0.00000000000E+00 -0.22472039205E+04  0.22472039205E+04  0.00000000000E+00 0.  1.
          6    1    1    2  501    0  0.14296304625E+03  0.69611163245E+02 -0.88736923542E+03  0.91776484276E+03  0.17200000000E+03 0. -1.
         -6    1    1    2    0  503 -0.14296304625E+03 -0.69611163245E+02 -0.13344355870E+04  0.13548381758E+04  0.17200000000E+03 0.  1.
<mgrwt>
<rscale>  2 0.23423951E+03</rscale>
<asrwt>0</asrwt>
<pdfrwt beam="1">  1       21 0.63497751E-02 0.23423951E+03</pdfrwt>
<pdfrwt beam="2">  1       21 0.56180093E+00 0.23423951E+03</pdfrwt>
<totfact> 0.11202266E+02</totfact>
</mgrwt>
</event>
<event>
 4    1  0.1132373E+000  0.1774291E+03  0.7546771E-02  0.1170315E+00
         21   -1    0    0  501  502  0.00000000000E+00  0.00000000000E+00  0.12418475313E+03  0.12418475313E+03  0.00000000000E+00 0.  1.
         21   -1    0    0  502  503 -0.00000000000E+00 -0.00000000000E+00 -0.39330963784E+03  0.39330963784E+03  0.00000000000E+00 0.  1.
          6    1    1    2  501    0  0.35964861289E+02  0.24568329146E+02  0.19704872924E+02  0.17851990382E+03  0.17200000000E+03 0.  1.
         -6    1    1    2    0  503 -0.35964861289E+02 -0.24568329146E+02 -0.28882975763E+03  0.33897448715E+03  0.17200000000E+03 0.  1.
<mgrwt>
<rscale>  2 0.17742907E+03</rscale>
<asrwt>0</asrwt>
<pdfrwt beam="1">  1       21 0.31046189E-01 0.17742907E+03</pdfrwt>
<pdfrwt beam="2">  1       21 0.98327408E-01 0.17742907E+03</pdfrwt>
<totfact> 0.86105471E+03</totfact>
</mgrwt>
</event>
<event>
 4    1  0.1132373E+000  0.1748294E+03  0.7546771E-02  0.1172903E+00
         21   -1    0    0  503  502  0.00000000000E+00  0.00000000000E+00  0.40453247449E+03  0.40453247449E+03  0.00000000000E+00 0.  1.
         21   -1    0    0  501  503 -0.00000000000E+00 -0.00000000000E+00 -0.96428666001E+02  0.96428666001E+02  0.00000000000E+00 0.  1.
          6    1    1    2  501    0  0.30953913685E+02  0.48122278010E+01  0.37519035313E+02  0.17880989995E+03  0.17200000000E+03 0.  1.
         -6    1    1    2    0  502 -0.30953913685E+02 -0.48122278010E+01  0.27058477318E+03  0.32215124054E+03  0.17200000000E+03 0.  1.
<mgrwt>
<rscale>  2 0.17482935E+03</rscale>
<asrwt>0</asrwt>
<pdfrwt beam="1">  1       21 0.10113311E+00 0.17482935E+03</pdfrwt>
<pdfrwt beam="2">  1       21 0.24107168E-01 0.17482935E+03</pdfrwt>
<totfact> 0.13133750E+04</totfact>
</mgrwt>
</event>
<event>
 4    1  0.1132373E+000  0.2068031E+03  0.7546771E-02  0.1144123E+00
         21   -1    0    0  503  502  0.00000000000E+00  0.00000000000E+00  0.23777686482E+03  0.23777686482E+03  0.00000000000E+00 0.  1.
         21   -1    0    0  501  503 -0.00000000000E+00 -0.00000000000E+00 -0.19434112656E+03  0.19434112656E+03  0.00000000000E+00 0. -1.
          6    1    1    2  501    0  0.80873132344E+01  0.11453442961E+03 -0.37251776667E+02  0.21013147091E+03  0.17200000000E+03 0.  1.
         -6    1    1    2    0  502 -0.80873132344E+01 -0.11453442961E+03  0.80687514924E+02  0.22198652046E+03  0.17200000000E+03 0.  1.
<mgrwt>
<rscale>  2 0.20680314E+03</rscale>
<asrwt>0</asrwt>
<pdfrwt beam="1">  1       21 0.59444216E-01 0.20680314E+03</pdfrwt>
<pdfrwt beam="2">  1       21 0.48585282E-01 0.20680314E+03</pdfrwt>
<totfact> 0.10590597E+04</totfact>
</mgrwt>
</event>
<event>
 4    1  0.1132373E+000  0.2187311E+03  0.7546771E-02  0.1134833E+00
         21   -1    0    0  501  502  0.00000000000E+00  0.00000000000E+00  0.12198762908E+03  0.12198762908E+03  0.00000000000E+00 0.  1.
         21   -1    0    0  502  503 -0.00000000000E+00 -0.00000000000E+00 -0.47870701518E+03  0.47870701518E+03  0.00000000000E+00 0.  1.
          6    1    1    2  501    0 -0.13333117479E+03 -0.21956192359E+02 -0.50680502670E+02  0.22452569988E+03  0.17200000000E+03 0.  1.
         -6    1    1    2    0  503  0.13333117479E+03  0.21956192359E+02 -0.30603888342E+03  0.37616894439E+03  0.17200000000E+03 0.  1.
<mgrwt>
<rscale>  2 0.21873106E+03</rscale>
<asrwt>0</asrwt>
<pdfrwt beam="1">  1       21 0.30496907E-01 0.21873106E+03</pdfrwt>
<pdfrwt beam="2">  1       21 0.11967675E+00 0.21873106E+03</pdfrwt>
<totfact> 0.53773116E+03</totfact>
</mgrwt>
</event>
<event>
 4    1  0.1132373E+000  0.2706664E+03  0.7546771E-02  0.1100899E+00
         21   -1    0    0  503  502  0.00000000000E+00  0.00000000000E+00  0.23768124531E+03  0.23768124531E+03  0.00000000000E+00 0. -1.
         21   -1    0    0  501  503 -0.00000000000E+00 -0.00000000000E+00 -0.31225933153E+03  0.31225933153E+03  0.00000000000E+00 0.  1.
          6    1    1    2  501    0 -0.44852630555E+02  0.20411889472E+03 -0.60504225637E+01  0.27073398247E+03  0.17200000000E+03 0. -1.
         -6    1    1    2    0  502  0.44852630555E+02 -0.20411889472E+03 -0.68527663654E+02  0.27920659436E+03  0.17200000000E+03 0. -1.
<mgrwt>
<rscale>  2 0.27066637E+03</rscale>
<asrwt>0</asrwt>
<pdfrwt beam="1">  1       21 0.59420312E-01 0.27066637E+03</pdfrwt>
<pdfrwt beam="2">  1       21 0.78064832E-01 0.27066637E+03</pdfrwt>
<totfact> 0.36388151E+03</totfact>
</mgrwt>
</event>
<event>
 4    1  0.1132373E+000  0.1868676E+03  0.7546771E-02  0.1161317E+00
         21   -1    0    0  501  502  0.00000000000E+00  0.00000000000E+00  0.92790207281E+02  0.92790207281E+02  0.00000000000E+00 0.  1.
         21   -1    0    0  502  503 -0.00000000000E+00 -0.00000000000E+00 -0.66779380724E+03  0.66779380724E+03  0.00000000000E+00 0.  1.
          6    1    1    2  501    0  0.67429902305E+02  0.28083765325E+02 -0.36260911249E+02  0.19035320666E+03  0.17200000000E+03 0.  1.
         -6    1    1    2    0  503 -0.67429902305E+02 -0.28083765325E+02 -0.53874268871E+03  0.57023080786E+03  0.17200000000E+03 0.  1.
<mgrwt>
<rscale>  2 0.18686757E+03</rscale>
<asrwt>0</asrwt>
<pdfrwt beam="1">  1       21 0.23197553E-01 0.18686757E+03</pdfrwt>
<pdfrwt beam="2">  1       21 0.16694845E+00 0.18686757E+03</pdfrwt>
<totfact> 0.39367625E+03</totfact>
</mgrwt>
</event>
<event>
 4    1  0.1132373E+000  0.2175059E+03  0.7546771E-02  0.1135756E+00
         21   -1    0    0  503  502  0.00000000000E+00  0.00000000000E+00  0.11068313929E+03  0.11068313929E+03  0.00000000000E+00 0. -1.
         21   -1    0    0  501  503 -0.00000000000E+00 -0.00000000000E+00 -0.84557239691E+03  0.84557239691E+03  0.00000000000E+00 0. -1.
          6    1    1    2  501    0 -0.34154221511E+02  0.12867900824E+03 -0.70367194853E+03  0.73652088168E+03  0.17200000000E+03 0. -1.
         -6    1    1    2    0  502  0.34154221511E+02 -0.12867900824E+03 -0.31217309083E+02  0.21973465452E+03  0.17200000000E+03 0. -1.
<mgrwt>
<rscale>  2 0.21750586E+03</rscale>
<asrwt>0</asrwt>
<pdfrwt beam="1">  1       21 0.27670785E-01 0.21750586E+03</pdfrwt>
<pdfrwt beam="2">  1       21 0.21139310E+00 0.21750586E+03</pdfrwt>
<totfact> 0.13808208E+03</totfact>
</mgrwt>
</event>
<event>
 4    1  0.1132373E+000  0.2605379E+03  0.7546771E-02  0.1106820E+00
         21   -1    0    0  503  502  0.00000000000E+00  0.00000000000E+00  0.51613517465E+03  0.51613517465E+03  0.00000000000E+00 0.  1.
         21   -1    0    0  501  503 -0.00000000000E+00 -0.00000000000E+00 -0.19228068430E+03  0.19228068430E+03  0.00000000000E+00 0. -1.
          6    1    1    2  501    0 -0.14798662585E+03 -0.12804672304E+03 -0.37193391823E+02  0.26317931740E+03  0.17200000000E+03 0. -1.
         -6    1    1    2    0  502  0.14798662585E+03  0.12804672304E+03  0.36104788217E+03  0.44523654155E+03  0.17200000000E+03 0.  1.
<mgrwt>
<rscale>  2 0.26053791E+03</rscale>
<asrwt>0</asrwt>
<pdfrwt beam="1">  1       21 0.12903379E+00 0.26053791E+03</pdfrwt>
<pdfrwt beam="2">  1       21 0.48070172E-01 0.26053791E+03</pdfrwt>
<totfact> 0.17214130E+03</totfact>
</mgrwt>
</event>
<event>
 4    1  0.1132373E+000  0.2314861E+03  0.7546771E-02  0.1125598E+00
         21   -1    0    0  501  502  0.00000000000E+00  0.00000000000E+00  0.45804470034E+03  0.45804470034E+03  0.00000000000E+00 0.  1.
         21   -1    0    0  502  503 -0.00000000000E+00 -0.00000000000E+00 -0.16101221854E+03  0.16101221854E+03  0.00000000000E+00 0.  1.
          6    1    1    2  501    0  0.14462355814E+03 -0.55550371634E+02  0.31036750396E+03  0.38718704120E+03  0.17200000000E+03 0.  1.
         -6    1    1    2    0  503 -0.14462355814E+03  0.55550371634E+02 -0.13335022167E+02  0.23186987768E+03  0.17200000000E+03 0.  1.
<mgrwt>
<rscale>  2 0.23148611E+03</rscale>
<asrwt>0</asrwt>
<pdfrwt beam="1">  1       21 0.11451117E+00 0.23148611E+03</pdfrwt>
<pdfrwt beam="2">  1       21 0.40253056E-01 0.23148611E+03</pdfrwt>
<totfact> 0.34152831E+03</totfact>
</mgrwt>
</event>
<event>
 4    1  0.1132373E+000  0.1760814E+03  0.7546771E-02  0.1171650E+00
         21   -1    0    0  501  502  0.00000000000E+00  0.00000000000E+00  0.32045856777E+03  0.32045856777E+03  0.00000000000E+00 0. -1.
         21   -1    0    0  502  503 -0.00000000000E+00 -0.00000000000E+00 -0.11596140584E+03  0.11596140584E+03  0.00000000000E+00 0. -1.
          6    1    1    2  501    0 -0.14529522451E+02 -0.34778580987E+02  0.19106376527E+03  0.25982690222E+03  0.17200000000E+03 0. -1.
         -6    1    1    2    0  503  0.14529522451E+02  0.34778580987E+02  0.13433396655E+02  0.17659307139E+03  0.17200000000E+03 0. -1.
<mgrwt>
<rscale>  2 0.17608139E+03</rscale>
<asrwt>0</asrwt>
<pdfrwt beam="1">  1       21 0.80114640E-01 0.17608139E+03</pdfrwt>
<pdfrwt beam="2">  1       21 0.28990352E-01 0.17608139E+03</pdfrwt>
<totfact> 0.15781919E+04</totfact>
</mgrwt>
</event>
<event>
 4    1  0.1132373E+000  0.3805793E+03  0.7546771E-02  0.1050720E+00
         21   -1    0    0  503  502  0.00000000000E+00  0.00000000000E+00  0.95859226812E+03  0.95859226812E+03  0.00000000000E+00 0. -1.
         21   -1    0    0  501  503 -0.00000000000E+00 -0.00000000000E+00 -0.28369448657E+03  0.28369448657E+03  0.00000000000E+00 0.  1.
          6    1    1    2  501    0 -0.33764595371E+03  0.35381163156E+02 -0.87203637571E+02  0.39044217391E+03  0.17200000000E+03 0. -1.
         -6    1    1    2    0  502  0.33764595371E+03 -0.35381163156E+02  0.76210141912E+03  0.85184458077E+03  0.17200000000E+03 0. -1.
<mgrwt>
<rscale>  2 0.38057932E+03</rscale>
<asrwt>0</asrwt>
<pdfrwt beam="1">  1       21 0.23964806E+00 0.38057932E+03</pdfrwt>
<pdfrwt beam="2">  1       21 0.70923624E-01 0.38057932E+03</pdfrwt>
<totfact> 0.11378554E+02</totfact>
</mgrwt>
</event>
<event>
 4    1  0.1132373E+000  0.2008299E+03  0.7546771E-02  0.1149041E+00
         21   -1    0    0  501  502  0.00000000000E+00  0.00000000000E+00  0.11824076514E+04  0.11824076514E+04  0.00000000000E+00 0.  1.
         21   -1    0    0  502  503 -0.00000000000E+00 -0.00000000000E+00 -0.39116621692E+02  0.39116621692E+02  0.00000000000E+00 0.  1.
          6    1    1    2  501    0 -0.10067621408E+03  0.24757744873E+02  0.35315259192E+03  0.40626272189E+03  0.17200000000E+03 0.  1.
         -6    1    1    2    0  503  0.10067621408E+03 -0.24757744873E+02  0.79013843783E+03  0.81526155125E+03  0.17200000000E+03 0.  1.
<mgrwt>
<rscale>  2 0.20082989E+03</rscale>
<asrwt>0</asrwt>
<pdfrwt beam="1">  1       21 0.29560179E+00 0.20082989E+03</pdfrwt>
<pdfrwt beam="2">  1       21 0.97791593E-02 0.20082989E+03</pdfrwt>
<totfact> 0.30247274E+03</totfact>
</mgrwt>
</event>
<event>
 4    1  0.1132373E+000  0.2707395E+03  0.7546771E-02  0.1100857E+00
         21   -1    0    0  501  502  0.00000000000E+00  0.00000000000E+00  0.58071523910E+03  0.58071523910E+03  0.00000000000E+00 0.  1.
         21   -1    0    0  502  503 -0.00000000000E+00 -0.00000000000E+00 -0.47897339571E+03  0.47897339571E+03  0.00000000000E+00 0. -1.
          6    1    1    2  501    0  0.20754179876E+03 -0.25343610283E+02  0.50557206491E+03  0.57350066228E+03  0.17200000000E+03 0.  1.
         -6    1    1    2    0  503 -0.20754179876E+03  0.25343610283E+02 -0.40383022153E+03  0.48618797253E+03  0.17200000000E+03 0. -1.
<mgrwt>
<rscale>  2 0.27073954E+03</rscale>
<asrwt>0</asrwt>
<pdfrwt beam="1">  1       21 0.14517881E+00 0.27073954E+03</pdfrwt>
<pdfrwt beam="2">  1       21 0.11974335E+00 0.27073954E+03</pdfrwt>
<totfact> 0.15854750E+02</totfact>
</mgrwt>
</event>
<event>
 4    1  0.1132373E+000  0.2271061E+03  0.7546771E-02  0.1128693E+00
         21   -1    0    0  501  502  0.00000000000E+00  0.00000000000E+00  0.60059234420E+03  0.60059234420E+03  0.00000000000E+00 0. -1.
         21   -1    0    0  502  503 -0.00000000000E+00 -0.00000000000E+00 -0.17328828682E+03  0.17328828682E+03  0.00000000000E+00 0. -1.
          6    1    1    2  501    0  0.13580972203E+03 -0.59572817101E+02  0.48846839098E+03  0.53868225339E+03  0.17200000000E+03 0. -1.
         -6    1    1    2    0  503 -0.13580972203E+03  0.59572817101E+02 -0.61164333593E+02  0.23519837763E+03  0.17200000000E+03 0. -1.
<mgrwt>
<rscale>  2 0.22710615E+03</rscale>
<asrwt>0</asrwt>
<pdfrwt beam="1">  1       21 0.15014808E+00 0.22710615E+03</pdfrwt>
<pdfrwt beam="2">  1       21 0.43322073E-01 0.22710615E+03</pdfrwt>
<totfact> 0.14784078E+03</totfact>
</mgrwt>
</event>
<event>
 4    1  0.1132373E+000  0.3392347E+03  0.7546771E-02  0.1067122E+00
         21   -1    0    0  501  502  0.00000000000E+00  0.00000000000E+00  0.39791627142E+03  0.39791627142E+03  0.00000000000E+00 0.  1.
         21   -1    0    0  502  503 -0.00000000000E+00 -0.00000000000E+00 -0.29337955882E+03  0.29337955882E+03  0.00000000000E+00 0. -1.
          6    1    1    2  501    0 -0.22389598523E+03  0.18806061791E+03  0.11047653047E+02  0.33941458256E+03  0.17200000000E+03 0. -1.
         -6    1    1    2    0  503  0.22389598523E+03 -0.18806061791E+03  0.93489059554E+02  0.35188124768E+03  0.17200000000E+03 0.  1.
<mgrwt>
<rscale>  2 0.33923474E+03</rscale>
<asrwt>0</asrwt>
<pdfrwt beam="1">  1       21 0.99479068E-01 0.33923474E+03</pdfrwt>
<pdfrwt beam="2">  1       21 0.73344890E-01 0.33923474E+03</pdfrwt>
<totfact> 0.12480665E+03</totfact>
</mgrwt>
</event>
<event>
 4    1  0.1132373E+000  0.2138502E+03  0.7546771E-02  0.1138553E+00
         21   -1    0    0  501  502  0.00000000000E+00  0.00000000000E+00  0.96083195270E+02  0.96083195270E+02  0.00000000000E+00 0. -1.
         21   -1    0    0  502  503 -0.00000000000E+00 -0.00000000000E+00 -0.68983978334E+03  0.68983978334E+03  0.00000000000E+00 0.  1.
          6    1    1    2  501    0 -0.90079441710E+02 -0.89630439227E+02 -0.78072403643E+02  0.22765592825E+03  0.17200000000E+03 0. -1.
         -6    1    1    2    0  503  0.90079441710E+02  0.89630439227E+02 -0.51568418443E+03  0.55826705036E+03  0.17200000000E+03 0.  1.
<mgrwt>
<rscale>  2 0.21385023E+03</rscale>
<asrwt>0</asrwt>
<pdfrwt beam="1">  1       21 0.24020800E-01 0.21385023E+03</pdfrwt>
<pdfrwt beam="2">  1       21 0.17245994E+00 0.21385023E+03</pdfrwt>
<totfact> 0.32887150E+03</totfact>
</mgrwt>
</event>
<event>
 4    1  0.1132373E+000  0.1883204E+03  0.7546771E-02  0.1159985E+00
         21   -1    0    0  503  502  0.00000000000E+00  0.00000000000E+00  0.24998571710E+02  0.24998571710E+02  0.00000000000E+00 0.  1.
         21   -1    0    0  501  503 -0.00000000000E+00 -0.00000000000E+00 -0.21715938186E+04  0.21715938186E+04  0.00000000000E+00 0.  1.
          6    1    1    2  501    0  0.94602278784E+01  0.76099204725E+02 -0.17200042347E+04  0.17302829689E+04  0.17200000000E+03 0. -1.
         -6    1    1    2    0  502 -0.94602278784E+01 -0.76099204725E+02 -0.42659101220E+03  0.46630942148E+03  0.17200000000E+03 0. -1.
<mgrwt>
<rscale>  2 0.18832043E+03</rscale>
<asrwt>0</asrwt>
<pdfrwt beam="1">  1       21 0.62496427E-02 0.18832043E+03</pdfrwt>
<pdfrwt beam="2">  1       21 0.54289848E+00 0.18832043E+03</pdfrwt>
<totfact> 0.17186446E+02</totfact>
</mgrwt>
</event>
<event>
 4    1  0.1132373E+000  0.3831138E+03  0.7546771E-02  0.1049789E+00
         21   -1    0    0  503  502  0.00000000000E+00  0.00000000000E+00  0.15174498900E+03  0.15174498900E+03  0.00000000000E+00 0.  1.
         21   -1    0    0  501  503 -0.00000000000E+00 -0.00000000000E+00 -0.11705101110E+04  0.11705101110E+04  0.00000000000E+00 0. -1.
          6    1    1    2  501    0  0.31477928851E+03  0.13455909130E+03 -0.23388481217E+03  0.44886329198E+03  0.17200000000E+03 0.  1.
         -6    1    1    2    0  502 -0.31477928851E+03 -0.13455909130E+03 -0.78488030980E+03  0.87339180797E+03  0.17200000000E+03 0. -1.
<mgrwt>
<rscale>  2 0.38311376E+03</rscale>
<asrwt>0</asrwt>
<pdfrwt beam="1">  1       21 0.37936248E-01 0.38311376E+03</pdfrwt>
<pdfrwt beam="2">  1       21 0.29262752E+00 0.38311376E+03</pdfrwt>
<totfact> 0.20700729E+02</totfact>
</mgrwt>
</event>
<event>
 4    1  0.1132373E+000  0.2021515E+03  0.7546771E-02  0.1147936E+00
         21   -1    0    0  501  502  0.00000000000E+00  0.00000000000E+00  0.52556728642E+03  0.52556728642E+03  0.00000000000E+00 0. -1.
         21   -1    0    0  502  503 -0.00000000000E+00 -0.00000000000E+00 -0.11138060564E+03  0.11138060564E+03  0.00000000000E+00 0.  1.
          6    1    1    2  501    0 -0.34485078162E+02  0.10045906949E+03  0.38208087681E+03  0.43226269986E+03  0.17200000000E+03 0. -1.
         -6    1    1    2    0  503  0.34485078162E+02 -0.10045906949E+03  0.32105803961E+02  0.20468519220E+03  0.17200000000E+03 0.  1.
<mgrwt>
<rscale>  2 0.20215154E+03</rscale>
<asrwt>0</asrwt>
<pdfrwt beam="1">  1       21 0.13139181E+00 0.20215154E+03</pdfrwt>
<pdfrwt beam="2">  1       21 0.27845153E-01 0.20215154E+03</pdfrwt>
<totfact> 0.51419445E+03</totfact>
</mgrwt>
</event>
<event>
 4    1  0.1132373E+000  0.2387551E+03  0.7546771E-02  0.1120625E+00
         21   -1    0    0  503  502  0.00000000000E+00  0.00000000000E+00  0.34421864494E+03  0.34421864494E+03  0.00000000000E+00 0.  1.
         21   -1    0    0  501  503 -0.00000000000E+00 -0.00000000000E+00 -0.21764061295E+03  0.21764061295E+03  0.00000000000E+00 0.  1.
          6    1    1    2  501    0  0.15043250411E+03  0.69210239798E+02 -0.74077837694E+02  0.24998304267E+03  0.17200000000E+03 0.  1.
         -6    1    1    2    0  502 -0.15043250411E+03 -0.69210239798E+02  0.20065586968E+03  0.31187621523E+03  0.17200000000E+03 0.  1.
<mgrwt>
<rscale>  2 0.23875510E+03</rscale>
<asrwt>0</asrwt>
<pdfrwt beam="1">  1       21 0.86054661E-01 0.23875510E+03</pdfrwt>
<pdfrwt beam="2">  1       21 0.54410154E-01 0.23875510E+03</pdfrwt>
<totfact> 0.35886139E+03</totfact>
</mgrwt>
</event>
<event>
 4    1  0.1132373E+000  0.2558586E+03  0.7546771E-02  0.1109657E+00
         21   -1    0    0  503  502  0.00000000000E+00  0.00000000000E+00  0.42521498994E+03  0.42521498994E+03  0.00000000000E+00 0.  1.
         21   -1    0    0  501  503 -0.00000000000E+00 -0.00000000000E+00 -0.26041775795E+03  0.26041775795E+03  0.00000000000E+00 0. -1.
          6    1    1    2  501    0 -0.10838026732E+03  0.15534905362E+03 -0.13679447275E+03  0.29013158839E+03  0.17200000000E+03 0. -1.
         -6    1    1    2    0  502  0.10838026732E+03 -0.15534905362E+03  0.30159170474E+03  0.39550115951E+03  0.17200000000E+03 0.  1.
<mgrwt>
<rscale>  2 0.25585858E+03</rscale>
<asrwt>0</asrwt>
<pdfrwt beam="1">  1       21 0.10630375E+00 0.25585858E+03</pdfrwt>
<pdfrwt beam="2">  1       21 0.65104440E-01 0.25585858E+03</pdfrwt>
<totfact> 0.14603852E+03</totfact>
</mgrwt>
</event>
<event>
 4    1  0.1132373E+000  0.2524483E+03  0.7546771E-02  0.1111767E+00
         21   -1    0    0  503  502  0.00000000000E+00  0.00000000000E+00  0.49438654705E+03  0.49438654705E+03  0.00000000000E+00 0. -1.
         21   -1    0    0  501  503 -0.00000000000E+00 -0.00000000000E+00 -0.22304556847E+03  0.22304556847E+03  0.00000000000E+00 0. -1.
          6    1    1    2  501    0  0.17326642813E+03  0.64225366818E+02  0.36871376239E+03  0.44685567181E+03  0.17200000000E+03 0. -1.
         -6    1    1    2    0  502 -0.17326642813E+03 -0.64225366818E+02 -0.97372783806E+02  0.27057644370E+03  0.17200000000E+03 0. -1.
<mgrwt>
<rscale>  2 0.25244832E+03</rscale>
<asrwt>0</asrwt>
<pdfrwt beam="1">  1       21 0.12359663E+00 0.25244832E+03</pdfrwt>
<pdfrwt beam="2">  1       21 0.55761393E-01 0.25244832E+03</pdfrwt>
<totfact> 0.14116602E+03</totfact>
</mgrwt>
</event>
<event>
 4    1  0.1132373E+000  0.2127200E+03  0.7546771E-02  0.1139430E+00
         21   -1    0    0  503  502  0.00000000000E+00  0.00000000000E+00  0.94646309518E+02  0.94646309518E+02  0.00000000000E+00 0.  1.
         21   -1    0    0  501  503 -0.00000000000E+00 -0.00000000000E+00 -0.48459107705E+03  0.48459107705E+03  0.00000000000E+00 0.  1.
          6    1    1    2  501    0 -0.67094054578E+02 -0.10566067449E+03 -0.22850850781E+03  0.31219533698E+03  0.17200000000E+03 0.  1.
         -6    1    1    2    0  502  0.67094054578E+02  0.10566067449E+03 -0.16143625973E+03  0.26704204959E+03  0.17200000000E+03 0.  1.
<mgrwt>
<rscale>  2 0.21271998E+03</rscale>
<asrwt>0</asrwt>
<pdfrwt beam="1">  1       21 0.23661578E-01 0.21271998E+03</pdfrwt>
<pdfrwt beam="2">  1       21 0.12114777E+00 0.21271998E+03</pdfrwt>
<totfact> 0.85490813E+03</totfact>
</mgrwt>
</event>
<event>
 4    1  0.1132373E+000  0.1877179E+03  0.7546771E-02  0.1160536E+00
         21   -1    0    0  501  502  0.00000000000E+00  0.00000000000E+00  0.68555265452E+03  0.68555265452E+03  0.00000000000E+00 0. -1.
         21   -1    0    0  502  503 -0.00000000000E+00 -0.00000000000E+00 -0.51979385567E+02  0.51979385567E+02  0.00000000000E+00 0. -1.
          6    1    1    2  501    0  0.64350721702E+02  0.38897085027E+02  0.35569071772E+03  0.40218638127E+03  0.17200000000E+03 0. -1.
         -6    1    1    2    0  503 -0.64350721702E+02 -0.38897085027E+02  0.27788255123E+03  0.33534565881E+03  0.17200000000E+03 0. -1.
<mgrwt>
<rscale>  2 0.18771787E+03</rscale>
<asrwt>0</asrwt>
<pdfrwt beam="1">  1       21 0.17138814E+00 0.18771787E+03</pdfrwt>
<pdfrwt beam="2">  1       21 0.12994849E-01 0.18771787E+03</pdfrwt>
<totfact> 0.10654795E+04</totfact>
</mgrwt>
</event>
<event>
 4    1  0.1132373E+000  0.1774674E+03  0.7546771E-02  0.1170277E+00
         21   -1    0    0  503  502  0.00000000000E+00  0.00000000000E+00  0.16201309974E+03  0.16201309974E+03  0.00000000000E+00 0. -1.
         21   -1    0    0  501  503 -0.00000000000E+00 -0.00000000000E+00 -0.59392477729E+03  0.59392477729E+03  0.00000000000E+00 0.  1.
          6    1    1    2  501    0  0.31351698874E+02 -0.30458704816E+02 -0.52595787453E+03  0.55509129655E+03  0.17200000000E+03 0.  1.
         -6    1    1    2    0  502 -0.31351698874E+02  0.30458704816E+02  0.94046196983E+02  0.20084658047E+03  0.17200000000E+03 0. -1.
<mgrwt>
<rscale>  2 0.17746735E+03</rscale>
<asrwt>0</asrwt>
<pdfrwt beam="1">  1       21 0.40503275E-01 0.17746735E+03</pdfrwt>
<pdfrwt beam="2">  1       21 0.14848119E+00 0.17746735E+03</pdfrwt>
<totfact> 0.18306612E+03</totfact>
</mgrwt>
</event>
<event>
 4    1  0.1132373E+000  0.1799101E+03  0.7546771E-02  0.1167890E+00
         21   -1    0    0  503  502  0.00000000000E+00  0.00000000000E+00  0.77680640928E+02  0.77680640928E+02  0.00000000000E+00 0. -1.
         21   -1    0    0  501  503 -0.00000000000E+00 -0.00000000000E+00 -0.88072369406E+03  0.88072369406E+03  0.00000000000E+00 0. -1.
          6    1    1    2  501    0 -0.89051742989E+01 -0.52003371905E+02 -0.74936213233E+03  0.77065638140E+03  0.17200000000E+03 0. -1.
         -6    1    1    2    0  502  0.89051742989E+01  0.52003371905E+02 -0.53680920802E+02  0.18774795359E+03  0.17200000000E+03 0. -1.
<mgrwt>
<rscale>  2 0.17991012E+03</rscale>
<asrwt>0</asrwt>
<pdfrwt beam="1">  1       21 0.19420160E-01 0.17991012E+03</pdfrwt>
<pdfrwt beam="2">  1       21 0.22018092E+00 0.17991012E+03</pdfrwt>
<totfact> 0.24809545E+03</totfact>
</mgrwt>
</event>
<event>
 4    1  0.1132373E+000  0.3305130E+03  0.7546771E-02  0.1070910E+00
         21   -1    0    0  501  502  0.00000000000E+00  0.00000000000E+00  0.84862341435E+03  0.84862341435E+03  0.00000000000E+00 0.  1.
         21   -1    0    0  502  503 -0.00000000000E+00 -0.00000000000E+00 -0.15221085732E+03  0.15221085732E+03  0.00000000000E+00 0.  1.
          6    1    1    2  501    0  0.92427825216E+02 -0.26666824204E+03  0.54477512474E+03  0.63719603791E+03  0.17200000000E+03 0.  1.
         -6    1    1    2    0  503 -0.92427825216E+02  0.26666824204E+03  0.15163743229E+03  0.36363823377E+03  0.17200000000E+03 0.  1.
<mgrwt>
<rscale>  2 0.33051302E+03</rscale>
<asrwt>0</asrwt>
<pdfrwt beam="1">  1       21 0.21215584E+00 0.33051302E+03</pdfrwt>
<pdfrwt beam="2">  1       21 0.38052717E-01 0.33051302E+03</pdfrwt>
<totfact> 0.66130751E+02</totfact>
</mgrwt>
</event>
<event>
 4    1  0.1132373E+000  0.2258748E+03  0.7546771E-02  0.1129577E+00
         21   -1    0    0  503  502  0.00000000000E+00  0.00000000000E+00  0.85364815953E+03  0.85364815953E+03  0.00000000000E+00 0.  1.
         21   -1    0    0  501  503 -0.00000000000E+00 -0.00000000000E+00 -0.83518083694E+02  0.83518083694E+02  0.00000000000E+00 0. -1.
          6    1    1    2  501    0  0.80613911768E+02 -0.12221633624E+03  0.13517782780E+03  0.26323464959E+03  0.17200000000E+03 0. -1.
         -6    1    1    2    0  502 -0.80613911768E+02  0.12221633624E+03  0.63495224803E+03  0.67393159363E+03  0.17200000000E+03 0.  1.
<mgrwt>
<rscale>  2 0.22587482E+03</rscale>
<asrwt>0</asrwt>
<pdfrwt beam="1">  1       21 0.21341201E+00 0.22587482E+03</pdfrwt>
<pdfrwt beam="2">  1       21 0.20879524E-01 0.22587482E+03</pdfrwt>
<totfact> 0.22767952E+03</totfact>
</mgrwt>
</event>
<event>
 4    1  0.1132373E+000  0.1811330E+03  0.7546771E-02  0.1166711E+00
         21   -1    0    0  501  502  0.00000000000E+00  0.00000000000E+00  0.58520444074E+03  0.58520444074E+03  0.00000000000E+00 0. -1.
         21   -1    0    0  502  503 -0.00000000000E+00 -0.00000000000E+00 -0.60283904994E+02  0.60283904994E+02  0.00000000000E+00 0. -1.
          6    1    1    2  501    0  0.53310060438E+02  0.19575373383E+02  0.34784624343E+03  0.39218129335E+03  0.17200000000E+03 0. -1.
         -6    1    1    2    0  503 -0.53310060438E+02 -0.19575373383E+02  0.17707429231E+03  0.25330705238E+03  0.17200000000E+03 0. -1.
<mgrwt>
<rscale>  2 0.18113298E+03</rscale>
<asrwt>0</asrwt>
<pdfrwt beam="1">  1       21 0.14630109E+00 0.18113298E+03</pdfrwt>
<pdfrwt beam="2">  1       21 0.15070978E-01 0.18113298E+03</pdfrwt>
<totfact> 0.12516976E+04</totfact>
</mgrwt>
</event>
<event>
 4    1  0.1132373E+000  0.2111869E+03  0.7546771E-02  0.1140630E+00
         21   -1    0    0  503  502  0.00000000000E+00  0.00000000000E+00  0.27907033427E+03  0.27907033427E+03  0.00000000000E+00 0.  1.
         21   -1    0    0  501  503 -0.00000000000E+00 -0.00000000000E+00 -0.15990268266E+03  0.15990268266E+03  0.00000000000E+00 0.  1.
          6    1    1    2  501    0 -0.49247887448E+02 -0.11220759659E+03  0.64694691294E+02  0.22087395101E+03  0.17200000000E+03 0.  1.
         -6    1    1    2    0  502  0.49247887448E+02  0.11220759659E+03  0.54472960322E+02  0.21809906593E+03  0.17200000000E+03 0.  1.
<mgrwt>
<rscale>  2 0.21118688E+03</rscale>
<asrwt>0</asrwt>
<pdfrwt beam="1">  1       21 0.69767583E-01 0.21118688E+03</pdfrwt>
<pdfrwt beam="2">  1       21 0.39975671E-01 0.21118688E+03</pdfrwt>
<totfact> 0.11118562E+04</totfact>
</mgrwt>
</event>
<event>
 4    1  0.1132373E+000  0.1995326E+03  0.7546771E-02  0.1150134E+00
         21   -1    0    0  503  502  0.00000000000E+00  0.00000000000E+00  0.50553524144E+03  0.50553524144E+03  0.00000000000E+00 0. -1.
         21   -1    0    0  501  503 -0.00000000000E+00 -0.00000000000E+00 -0.78759687653E+02  0.78759687653E+02  0.00000000000E+00 0.  1.
          6    1    1    2  501    0 -0.92055723022E+02  0.41892776021E+02  0.21105579509E+03  0.29044415894E+03  0.17200000000E+03 0. -1.
         -6    1    1    2    0  502  0.92055723022E+02 -0.41892776021E+02  0.21571975869E+03  0.29385077014E+03  0.17200000000E+03 0.  1.
<mgrwt>
<rscale>  2 0.19953261E+03</rscale>
<asrwt>0</asrwt>
<pdfrwt beam="1">  1       21 0.12638380E+00 0.19953261E+03</pdfrwt>
<pdfrwt beam="2">  1       21 0.19689923E-01 0.19953261E+03</pdfrwt>
<totfact> 0.10974233E+04</totfact>
</mgrwt>
</event>
<event>
 4    1  0.1132373E+000  0.1736937E+03  0.7546771E-02  0.1174050E+00
         21   -1    0    0  503  502  0.00000000000E+00  0.00000000000E+00  0.10823648369E+03  0.10823648369E+03  0.00000000000E+00 0. -1.
         21   -1    0    0  501  503 -0.00000000000E+00 -0.00000000000E+00 -0.27922560600E+03  0.27922560600E+03  0.00000000000E+00 0. -1.
          6    1    1    2  501    0 -0.21504350483E+02 -0.11093651903E+02 -0.77390029988E+02  0.19015447127E+03  0.17200000000E+03 0. -1.
         -6    1    1    2    0  502  0.21504350483E+02  0.11093651903E+02 -0.93599092328E+02  0.19730761842E+03  0.17200000000E+03 0. -1.
<mgrwt>
<rscale>  2 0.17369371E+03</rscale>
<asrwt>0</asrwt>
<pdfrwt beam="1">  1       21 0.27059121E-01 0.17369371E+03</pdfrwt>
<pdfrwt beam="2">  1       21 0.69806401E-01 0.17369371E+03</pdfrwt>
<totfact> 0.24531123E+04</totfact>
</mgrwt>
</event>
<event>
 4    1  0.1132373E+000  0.2089607E+03  0.7546771E-02  0.1142392E+00
         21   -1    0    0  501  502  0.00000000000E+00  0.00000000000E+00  0.76212999141E+02  0.76212999141E+02  0.00000000000E+00 0. -1.
         21   -1    0    0  502  503 -0.00000000000E+00 -0.00000000000E+00 -0.58849519694E+03  0.58849519694E+03  0.00000000000E+00 0.  1.
          6    1    1    2  501    0  0.44855675005E+02  0.10985687277E+03 -0.20208630009E+03  0.29069474842E+03  0.17200000000E+03 0. -1.
         -6    1    1    2    0  503 -0.44855675005E+02 -0.10985687277E+03 -0.31019589771E+03  0.37401344766E+03  0.17200000000E+03 0. -1.
<mgrwt>
<rscale>  2 0.20896068E+03</rscale>
<asrwt>0</asrwt>
<pdfrwt beam="1">  1       21 0.19053250E-01 0.20896068E+03</pdfrwt>
<pdfrwt beam="2">  1       21 0.14712380E+00 0.20896068E+03</pdfrwt>
<totfact> 0.78465673E+03</totfact>
</mgrwt>
</event>
<event>
 4    1  0.1132373E+000  0.2113499E+03  0.7546771E-02  0.1140501E+00
         21   -1    0    0  501  502  0.00000000000E+00  0.00000000000E+00  0.44055049632E+03  0.44055049632E+03  0.00000000000E+00 0. -1.
         21   -1    0    0  502  503 -0.00000000000E+00 -0.00000000000E+00 -0.11244288945E+03  0.11244288945E+03  0.00000000000E+00 0.  1.
          6    1    1    2  501    0 -0.99834469908E+02 -0.71539172295E+02  0.77377334514E+02  0.22506893711E+03  0.17200000000E+03 0.  1.
         -6    1    1    2    0  503  0.99834469908E+02  0.71539172295E+02  0.25073027235E+03  0.32792444866E+03  0.17200000000E+03 0.  1.
<mgrwt>
<rscale>  2 0.21134989E+03</rscale>
<asrwt>0</asrwt>
<pdfrwt beam="1">  1       21 0.11013762E+00 0.21134989E+03</pdfrwt>
<pdfrwt beam="2">  1       21 0.28110723E-01 0.21134989E+03</pdfrwt>
<totfact> 0.77657014E+03</totfact>
</mgrwt>
</event>
<event>
 4    1  0.1132373E+000  0.1855188E+03  0.7546771E-02  0.1162566E+00
         21   -1    0    0  503  502  0.00000000000E+00  0.00000000000E+00  0.46491426622E+03  0.46491426622E+03  0.00000000000E+00 0.  1.
         21   -1    0    0  501  503 -0.00000000000E+00 -0.00000000000E+00 -0.17689406295E+03  0.17689406295E+03  0.00000000000E+00 0.  1.
          6    1    1    2  501    0  0.58408546448E+02 -0.37705170407E+02 -0.10070018118E+03  0.21108710208E+03  0.17200000000E+03 0.  1.
         -6    1    1    2    0  502 -0.58408546448E+02  0.37705170407E+02  0.38872038445E+03  0.43072122709E+03  0.17200000000E+03 0.  1.
<mgrwt>
<rscale>  2 0.18551884E+03</rscale>
<asrwt>0</asrwt>
<pdfrwt beam="1">  1       21 0.11622856E+00 0.18551884E+03</pdfrwt>
<pdfrwt beam="2">  1       21 0.44223517E-01 0.18551884E+03</pdfrwt>
<totfact> 0.28231945E+03</totfact>
</mgrwt>
</event>
<event>
 4    1  0.1132373E+000  0.3031384E+03  0.7546771E-02  0.1083682E+00
         21   -1    0    0  503  502  0.00000000000E+00  0.00000000000E+00  0.98990201709E+03  0.98990201709E+03  0.00000000000E+00 0.  1.
         21   -1    0    0  501  503 -0.00000000000E+00 -0.00000000000E+00 -0.17944904388E+03  0.17944904388E+03  0.00000000000E+00 0. -1.
          6    1    1    2  501    0  0.24713035389E+03 -0.35149321162E+02 -0.98324325066E+00  0.30313998971E+03  0.17200000000E+03 0. -1.
         -6    1    1    2    0  502 -0.24713035389E+03  0.35149321162E+02  0.81143621646E+03  0.86621107126E+03  0.17200000000E+03 0.  1.
<mgrwt>
<rscale>  2 0.30313840E+03</rscale>
<asrwt>0</asrwt>
<pdfrwt beam="1">  1       21 0.24747549E+00 0.30313840E+03</pdfrwt>
<pdfrwt beam="2">  1       21 0.44862264E-01 0.30313840E+03</pdfrwt>
<totfact> 0.29091616E+02</totfact>
</mgrwt>
</event>
<event>
 4    1  0.1132373E+000  0.2023480E+03  0.7546771E-02  0.1147773E+00
         21   -1    0    0  503  502  0.00000000000E+00  0.00000000000E+00  0.24976180616E+03  0.24976180616E+03  0.00000000000E+00 0.  1.
         21   -1    0    0  501  503 -0.00000000000E+00 -0.00000000000E+00 -0.19559057528E+03  0.19559057528E+03  0.00000000000E+00 0.  1.
          6    1    1    2  501    0 -0.56216233204E+01 -0.10643827785E+03 -0.62497200143E+02  0.21177962524E+03  0.17200000000E+03 0.  1.
         -6    1    1    2    0  502  0.56216233204E+01  0.10643827785E+03  0.11666843102E+03  0.23357275620E+03  0.17200000000E+03 0.  1.
<mgrwt>
<rscale>  2 0.20234799E+03</rscale>
<asrwt>0</asrwt>
<pdfrwt beam="1">  1       21 0.62440451E-01 0.20234799E+03</pdfrwt>
<pdfrwt beam="2">  1       21 0.48897644E-01 0.20234799E+03</pdfrwt>
<totfact> 0.94274014E+03</totfact>
</mgrwt>
</event>
<event>
 4    1  0.1132373E+000  0.1839817E+03  0.7546771E-02  0.1164004E+00
         21   -1    0    0  501  502  0.00000000000E+00  0.00000000000E+00  0.24801397524E+03  0.24801397524E+03  0.00000000000E+00 0. -1.
         21   -1    0    0  502  503 -0.00000000000E+00 -0.00000000000E+00 -0.42156657953E+03  0.42156657953E+03  0.00000000000E+00 0. -1.
          6    1    1    2  501    0 -0.64043427325E+02  0.12795366446E+02  0.18853694526E+03  0.26343018376E+03  0.17200000000E+03 0. -1.
         -6    1    1    2    0  503  0.64043427325E+02 -0.12795366446E+02 -0.36208954955E+03  0.40615037102E+03  0.17200000000E+03 0. -1.
<mgrwt>
<rscale>  2 0.18398174E+03</rscale>
<asrwt>0</asrwt>
<pdfrwt beam="1">  1       21 0.62003494E-01 0.18398174E+03</pdfrwt>
<pdfrwt beam="2">  1       21 0.10539164E+00 0.18398174E+03</pdfrwt>
<totfact> 0.17626379E+03</totfact>
</mgrwt>
</event>
<event>
 4    1  0.1132373E+000  0.1798715E+03  0.7546771E-02  0.1167927E+00
         21   -1    0    0  501  502  0.00000000000E+00  0.00000000000E+00  0.30868802665E+03  0.30868802665E+03  0.00000000000E+00 0.  1.
         21   -1    0    0  502  503 -0.00000000000E+00 -0.00000000000E+00 -0.13840697439E+03  0.13840697439E+03  0.00000000000E+00 0.  1.
          6    1    1    2  501    0  0.55892914050E+01 -0.52330886706E+02  0.19527857020E+03  0.26549478688E+03  0.17200000000E+03 0.  1.
         -6    1    1    2    0  503 -0.55892914050E+01  0.52330886706E+02 -0.24997517932E+02  0.18160021416E+03  0.17200000000E+03 0.  1.
<mgrwt>
<rscale>  2 0.17987151E+03</rscale>
<asrwt>0</asrwt>
<pdfrwt beam="1">  1       21 0.77172005E-01 0.17987151E+03</pdfrwt>
<pdfrwt beam="2">  1       21 0.34601744E-01 0.17987151E+03</pdfrwt>
<totfact> 0.12110173E+04</totfact>
</mgrwt>
</event>
<event>
 4    1  0.1132373E+000  0.2252240E+03  0.7546771E-02  0.1130047E+00
         21   -1    0    0  501  502  0.00000000000E+00  0.00000000000E+00  0.22277951601E+03  0.22277951601E+03  0.00000000000E+00 0. -1.
         21   -1    0    0  502  503 -0.00000000000E+00 -0.00000000000E+00 -0.27197935280E+03  0.27197935280E+03  0.00000000000E+00 0. -1.
          6    1    1    2  501    0  0.11735854909E+03 -0.85841788588E+02  0.75220516737E+02  0.23745308558E+03  0.17200000000E+03 0. -1.
         -6    1    1    2    0  503 -0.11735854909E+03  0.85841788588E+02 -0.12442035353E+03  0.25730578323E+03  0.17200000000E+03 0. -1.
<mgrwt>
<rscale>  2 0.22522398E+03</rscale>
<asrwt>0</asrwt>
<pdfrwt beam="1">  1       21 0.55694879E-01 0.22522398E+03</pdfrwt>
<pdfrwt beam="2">  1       21 0.67994838E-01 0.22522398E+03</pdfrwt>
<totfact> 0.58594865E+03</totfact>
</mgrwt>
</event>
<event>
 4    1  0.1132373E+000  0.1979165E+03  0.7546771E-02  0.1151509E+00
         21   -1    0    0  501  502  0.00000000000E+00  0.00000000000E+00  0.12864281818E+04  0.12864281818E+04  0.00000000000E+00 0.  1.
         21   -1    0    0  502  503 -0.00000000000E+00 -0.00000000000E+00 -0.40061361087E+02  0.40061361087E+02  0.00000000000E+00 0.  1.
          6    1    1    2  501    0  0.36522199291E+02 -0.90846329478E+02  0.94805945071E+03  0.96849762452E+03  0.17200000000E+03 0.  1.
         -6    1    1    2    0  503 -0.36522199291E+02  0.90846329478E+02  0.29830737003E+03  0.35799191839E+03  0.17200000000E+03 0.  1.
<mgrwt>
<rscale>  2 0.19791646E+03</rscale>
<asrwt>0</asrwt>
<pdfrwt beam="1">  1       21 0.32160691E+00 0.19791646E+03</pdfrwt>
<pdfrwt beam="2">  1       21 0.10015345E-01 0.19791646E+03</pdfrwt>
<totfact> 0.20590402E+03</totfact>
</mgrwt>
</event>
<event>
 4    1  0.1132373E+000  0.2019855E+03  0.7546771E-02  0.1148075E+00
         21   -1    0    0  501  502  0.00000000000E+00  0.00000000000E+00  0.13417774569E+03  0.13417774569E+03  0.00000000000E+00 0. -1.
         21   -1    0    0  502  503 -0.00000000000E+00 -0.00000000000E+00 -0.51747968735E+03  0.51747968735E+03  0.00000000000E+00 0.  1.
          6    1    1    2  501    0  0.28492888441E+02 -0.10199174106E+03  0.17596095707E+02  0.20275054259E+03  0.17200000000E+03 0. -1.
         -6    1    1    2    0  503 -0.28492888441E+02  0.10199174106E+03 -0.40089803736E+03  0.44890689045E+03  0.17200000000E+03 0.  1.
<mgrwt>
<rscale>  2 0.20198554E+03</rscale>
<asrwt>0</asrwt>
<pdfrwt beam="1">  1       21 0.33544437E-01 0.20198554E+03</pdfrwt>
<pdfrwt beam="2">  1       21 0.12936992E+00 0.20198554E+03</pdfrwt>
<totfact> 0.37159525E+03</totfact>
</mgrwt>
</event>
<event>
 4    1  0.1132373E+000  0.2215060E+03  0.7546771E-02  0.1132765E+00
         21   -1    0    0  501  502  0.00000000000E+00  0.00000000000E+00  0.65565965067E+03  0.65565965067E+03  0.00000000000E+00 0.  1.
         21   -1    0    0  502  503 -0.00000000000E+00 -0.00000000000E+00 -0.10888908754E+03  0.10888908754E+03  0.00000000000E+00 0.  1.
          6    1    1    2  501    0 -0.13132080371E+03 -0.47283641230E+02  0.48717222557E+03  0.53516509002E+03  0.17200000000E+03 0.  1.
         -6    1    1    2    0  503  0.13132080371E+03  0.47283641230E+02  0.59598337565E+02  0.22938364819E+03  0.17200000000E+03 0.  1.
<mgrwt>
<rscale>  2 0.22150597E+03</rscale>
<asrwt>0</asrwt>
<pdfrwt beam="1">  1       21 0.16391490E+00 0.22150597E+03</pdfrwt>
<pdfrwt beam="2">  1       21 0.27222274E-01 0.22150597E+03</pdfrwt>
<totfact> 0.29561284E+03</totfact>
</mgrwt>
</event>
<event>
 4    1  0.1132373E+000  0.1750657E+03  0.7546771E-02  0.1172666E+00
         21   -1    0    0  503  502  0.00000000000E+00  0.00000000000E+00  0.50900163884E+02  0.50900163884E+02  0.00000000000E+00 0. -1.
         21   -1    0    0  501  503 -0.00000000000E+00 -0.00000000000E+00 -0.82529188892E+03  0.82529188892E+03  0.00000000000E+00 0. -1.
          6    1    1    2  501    0 -0.25328655788E+02  0.20553827397E+02 -0.61501247300E+03  0.63944377593E+03  0.17200000000E+03 0. -1.
         -6    1    1    2    0  502  0.25328655788E+02 -0.20553827397E+02 -0.15937925203E+03  0.23674827688E+03  0.17200000000E+03 0. -1.
<mgrwt>
<rscale>  2 0.17506570E+03</rscale>
<asrwt>0</asrwt>
<pdfrwt beam="1">  1       21 0.12725041E-01 0.17506570E+03</pdfrwt>
<pdfrwt beam="2">  1       21 0.20632297E+00 0.17506570E+03</pdfrwt>
<totfact> 0.65722859E+03</totfact>
</mgrwt>
</event>
<event>
 4    1  0.1132373E+000  0.1734722E+03  0.7546771E-02  0.1174275E+00
         21   -1    0    0  501  502  0.00000000000E+00  0.00000000000E+00  0.69316761767E+02  0.69316761767E+02  0.00000000000E+00 0. -1.
         21   -1    0    0  502  503 -0.00000000000E+00 -0.00000000000E+00 -0.10172380222E+04  0.10172380222E+04  0.00000000000E+00 0. -1.
          6    1    1    2  501    0  0.99466101607E+01 -0.20240132475E+02 -0.62636445621E+02  0.18443405959E+03  0.17200000000E+03 0. -1.
         -6    1    1    2    0  503 -0.99466101607E+01  0.20240132475E+02 -0.88528481479E+03  0.90212072436E+03  0.17200000000E+03 0. -1.
<mgrwt>
<rscale>  2 0.17347218E+03</rscale>
<asrwt>0</asrwt>
<pdfrwt beam="1">  1       21 0.17329191E-01 0.17347218E+03</pdfrwt>
<pdfrwt beam="2">  1       21 0.25430950E+00 0.17347218E+03</pdfrwt>
<totfact> 0.19338747E+03</totfact>
</mgrwt>
</event>
<event>
 4    1  0.1132373E+000  0.1832421E+03  0.7546771E-02  0.1164702E+00
         21   -1    0    0  503  502  0.00000000000E+00  0.00000000000E+00  0.17777859147E+03  0.17777859147E+03  0.00000000000E+00 0.  1.
         21   -1    0    0  501  503 -0.00000000000E+00 -0.00000000000E+00 -0.18934765709E+03  0.18934765709E+03  0.00000000000E+00 0.  1.
          6    1    1    2  501    0  0.23961222015E+02  0.58476608801E+02  0.34018506361E+01  0.18327363838E+03  0.17200000000E+03 0.  1.
         -6    1    1    2    0  502 -0.23961222015E+02 -0.58476608801E+02 -0.14970916256E+02  0.18385261018E+03  0.17200000000E+03 0.  1.
<mgrwt>
<rscale>  2 0.18324206E+03</rscale>
<asrwt>0</asrwt>
<pdfrwt beam="1">  1       21 0.44444648E-01 0.18324206E+03</pdfrwt>
<pdfrwt beam="2">  1       21 0.47336914E-01 0.18324206E+03</pdfrwt>
<totfact> 0.20866854E+04</totfact>
</mgrwt>
</event>
<event>
 4    1  0.1132373E+000  0.2293776E+03  0.7546771E-02  0.1127079E+00
         21   -1    0    0  501  502  0.00000000000E+00  0.00000000000E+00  0.26962230015E+03  0.26962230015E+03  0.00000000000E+00 0.  1.
         21   -1    0    0  502  503 -0.00000000000E+00 -0.00000000000E+00 -0.20646497547E+03  0.20646497547E+03  0.00000000000E+00 0.  1.
          6    1    1    2  501    0  0.88953918777E+02 -0.12295233514E+03  0.87329755770E+02  0.24543952947E+03  0.17200000000E+03 0.  1.
         -6    1    1    2    0  503 -0.88953918777E+02  0.12295233514E+03 -0.24172431096E+02  0.23064774616E+03  0.17200000000E+03 0.  1.
<mgrwt>
<rscale>  2 0.22937758E+03</rscale>
<asrwt>0</asrwt>
<pdfrwt beam="1">  1       21 0.67405575E-01 0.22937758E+03</pdfrwt>
<pdfrwt beam="2">  1       21 0.51616244E-01 0.22937758E+03</pdfrwt>
<totfact> 0.69964930E+03</totfact>
</mgrwt>
</event>
<event>
 4    1  0.1132373E+000  0.1976443E+03  0.7546771E-02  0.1151742E+00
         21   -1    0    0  503  502  0.00000000000E+00  0.00000000000E+00  0.10133352435E+03  0.10133352435E+03  0.00000000000E+00 0.  1.
         21   -1    0    0  501  503 -0.00000000000E+00 -0.00000000000E+00 -0.63121247449E+03  0.63121247449E+03  0.00000000000E+00 0.  1.
          6    1    1    2  501    0  0.96352464645E+02 -0.13981000122E+02 -0.49346660546E+03  0.53157554168E+03  0.17200000000E+03 0.  1.
         -6    1    1    2    0  502 -0.96352464645E+02  0.13981000122E+02 -0.36412344673E+02  0.20097045716E+03  0.17200000000E+03 0.  1.
<mgrwt>
<rscale>  2 0.19764429E+03</rscale>
<asrwt>0</asrwt>
<pdfrwt beam="1">  1       21 0.25333382E-01 0.19764429E+03</pdfrwt>
<pdfrwt beam="2">  1       21 0.15780311E+00 0.19764429E+03</pdfrwt>
<totfact> 0.38410003E+03</totfact>
</mgrwt>
</event>
<event>
 4    1  0.1132373E+000  0.1798496E+03  0.7546771E-02  0.1167949E+00
         21   -1    0    0  501  502  0.00000000000E+00  0.00000000000E+00  0.76995101077E+02  0.76995101077E+02  0.00000000000E+00 0.  1.
         21   -1    0    0  502  503 -0.00000000000E+00 -0.00000000000E+00 -0.56139910078E+03  0.56139910078E+03  0.00000000000E+00 0.  1.
          6    1    1    2  501    0  0.52048596363E+02 -0.72674363784E+01 -0.82066290048E+02  0.19768851251E+03  0.17200000000E+03 0.  1.
         -6    1    1    2    0  503 -0.52048596363E+02  0.72674363784E+01 -0.40233770966E+03  0.44070568935E+03  0.17200000000E+03 0.  1.
<mgrwt>
<rscale>  2 0.17984958E+03</rscale>
<asrwt>0</asrwt>
<pdfrwt beam="1">  1       21 0.19248776E-01 0.17984958E+03</pdfrwt>
<pdfrwt beam="2">  1       21 0.14034977E+00 0.17984958E+03</pdfrwt>
<totfact> 0.89012381E+03</totfact>
</mgrwt>
</event>
<event>
 4    1  0.1132373E+000  0.1922971E+03  0.7546771E-02  0.1156406E+00
         21   -1    0    0  503  502  0.00000000000E+00  0.00000000000E+00  0.14716855015E+03  0.14716855015E+03  0.00000000000E+00 0.  1.
         21   -1    0    0  501  503 -0.00000000000E+00 -0.00000000000E+00 -0.41015630713E+03  0.41015630713E+03  0.00000000000E+00 0.  1.
          6    1    1    2  501    0 -0.46170347746E+02  0.72543035472E+02 -0.30493610363E+03  0.36050550662E+03  0.17200000000E+03 0.  1.
         -6    1    1    2    0  502  0.46170347746E+02 -0.72543035472E+02  0.41948346652E+02  0.19681935066E+03  0.17200000000E+03 0.  1.
<mgrwt>
<rscale>  2 0.19229715E+03</rscale>
<asrwt>0</asrwt>
<pdfrwt beam="1">  1       21 0.36792138E-01 0.19229715E+03</pdfrwt>
<pdfrwt beam="2">  1       21 0.10253908E+00 0.19229715E+03</pdfrwt>
<totfact> 0.55114993E+03</totfact>
</mgrwt>
</event>
<event>
 4    1  0.1132373E+000  0.1740966E+03  0.7546771E-02  0.1173642E+00
         21   -1    0    0  503  502  0.00000000000E+00  0.00000000000E+00  0.32880468467E+03  0.32880468467E+03  0.00000000000E+00 0. -1.
         21   -1    0    0  501  503 -0.00000000000E+00 -0.00000000000E+00 -0.10698155892E+03  0.10698155892E+03  0.00000000000E+00 0. -1.
          6    1    1    2  501    0  0.26883798514E+02 -0.16957191379E+01  0.29866788183E+02  0.17663985712E+03  0.17200000000E+03 0. -1.
         -6    1    1    2    0  502 -0.26883798514E+02  0.16957191379E+01  0.19195633757E+03  0.25914638647E+03  0.17200000000E+03 0. -1.
<mgrwt>
<rscale>  2 0.17409657E+03</rscale>
<asrwt>0</asrwt>
<pdfrwt beam="1">  1       21 0.82201169E-01 0.17409657E+03</pdfrwt>
<pdfrwt beam="2">  1       21 0.26745391E-01 0.17409657E+03</pdfrwt>
<totfact> 0.17417088E+04</totfact>
</mgrwt>
</event>
<event>
 4    1  0.1132373E+000  0.2110008E+03  0.7546771E-02  0.1140776E+00
         21   -1    0    0  501  502  0.00000000000E+00  0.00000000000E+00  0.16923403964E+03  0.16923403964E+03  0.00000000000E+00 0. -1.
         21   -1    0    0  502  503 -0.00000000000E+00 -0.00000000000E+00 -0.30322008623E+03  0.30322008623E+03  0.00000000000E+00 0.  1.
          6    1    1    2  501    0 -0.94566975942E+02  0.77423644358E+02 -0.15294661526E+03  0.26060314803E+03  0.17200000000E+03 0.  1.
         -6    1    1    2    0  503  0.94566975942E+02 -0.77423644358E+02  0.18960568674E+02  0.21185097783E+03  0.17200000000E+03 0. -1.
<mgrwt>
<rscale>  2 0.21100079E+03</rscale>
<asrwt>0</asrwt>
<pdfrwt beam="1">  1       21 0.42308510E-01 0.21100079E+03</pdfrwt>
<pdfrwt beam="2">  1       21 0.75805021E-01 0.21100079E+03</pdfrwt>
<totfact> 0.82377957E+03</totfact>
</mgrwt>
</event>
<event>
 4    1  0.1132373E+000  0.2225324E+03  0.7546771E-02  0.1132009E+00
         21   -1    0    0  503  502  0.00000000000E+00  0.00000000000E+00  0.37127068098E+03  0.37127068098E+03  0.00000000000E+00 0. -1.
         21   -1    0    0  501  503 -0.00000000000E+00 -0.00000000000E+00 -0.13487707869E+03  0.13487707869E+03  0.00000000000E+00 0. -1.
          6    1    1    2  501    0 -0.38105546931E+02  0.13595816206E+03  0.91548021358E+02  0.24062770986E+03  0.17200000000E+03 0. -1.
         -6    1    1    2    0  502  0.38105546931E+02 -0.13595816206E+03  0.14484558093E+03  0.26552004982E+03  0.17200000000E+03 0. -1.
<mgrwt>
<rscale>  2 0.22253237E+03</rscale>
<asrwt>0</asrwt>
<pdfrwt beam="1">  1       21 0.92817668E-01 0.22253237E+03</pdfrwt>
<pdfrwt beam="2">  1       21 0.33719270E-01 0.22253237E+03</pdfrwt>
<totfact> 0.81148281E+03</totfact>
</mgrwt>
</event>
<event>
 4    1  0.1132373E+000  0.1834650E+03  0.7546771E-02  0.1164491E+00
         21   -1    0    0  501  502  0.00000000000E+00  0.00000000000E+00  0.54326764349E+02  0.54326764349E+02  0.00000000000E+00 0.  1.
         21   -1    0    0  502  503 -0.00000000000E+00 -0.00000000000E+00 -0.64230149882E+03  0.64230149882E+03  0.00000000000E+00 0.  1.
          6    1    1    2  501    0 -0.39759489243E+02  0.49945729618E+02 -0.35950943801E+03  0.40361668562E+03  0.17200000000E+03 0.  1.
         -6    1    1    2    0  503  0.39759489243E+02 -0.49945729618E+02 -0.22846529646E+03  0.29301157755E+03  0.17200000000E+03 0.  1.
<mgrwt>
<rscale>  2 0.18346496E+03</rscale>
<asrwt>0</asrwt>
<pdfrwt beam="1">  1       21 0.13581691E-01 0.18346496E+03</pdfrwt>
<pdfrwt beam="2">  1       21 0.16057537E+00 0.18346496E+03</pdfrwt>
<totfact> 0.11790513E+04</totfact>
</mgrwt>
</event>
<event>
 4    1  0.1132373E+000  0.1902234E+03  0.7546771E-02  0.1158260E+00
         21   -1    0    0  501  502  0.00000000000E+00  0.00000000000E+00  0.14077423008E+03  0.14077423008E+03  0.00000000000E+00 0. -1.
         21   -1    0    0  502  503 -0.00000000000E+00 -0.00000000000E+00 -0.39968639165E+03  0.39968639165E+03  0.00000000000E+00 0. -1.
          6    1    1    2  501    0 -0.63817469011E+02 -0.50282108859E+02 -0.29089229765E+03  0.34756767493E+03  0.17200000000E+03 0. -1.
         -6    1    1    2    0  503  0.63817469011E+02  0.50282108859E+02  0.31980136083E+02  0.19289294680E+03  0.17200000000E+03 0. -1.
<mgrwt>
<rscale>  2 0.19022345E+03</rscale>
<asrwt>0</asrwt>
<pdfrwt beam="1">  1       21 0.35193558E-01 0.19022345E+03</pdfrwt>
<pdfrwt beam="2">  1       21 0.99921598E-01 0.19022345E+03</pdfrwt>
<totfact> 0.64140943E+03</totfact>
</mgrwt>
</event>
<event>
 4    1  0.1132373E+000  0.2105629E+03  0.7546771E-02  0.1141121E+00
         21   -1    0    0  501  502  0.00000000000E+00  0.00000000000E+00  0.55546265478E+03  0.55546265478E+03  0.00000000000E+00 0. -1.
         21   -1    0    0  502  503 -0.00000000000E+00 -0.00000000000E+00 -0.80111756218E+02  0.80111756218E+02  0.00000000000E+00 0.  1.
          6    1    1    2  501    0 -0.10164789126E+03 -0.66486474902E+02  0.21848087452E+03  0.30343143818E+03  0.17200000000E+03 0. -1.
         -6    1    1    2    0  503  0.10164789126E+03  0.66486474902E+02  0.25687002404E+03  0.33214297282E+03  0.17200000000E+03 0. -1.
<mgrwt>
<rscale>  2 0.21056292E+03</rscale>
<asrwt>0</asrwt>
<pdfrwt beam="1">  1       21 0.13886565E+00 0.21056292E+03</pdfrwt>
<pdfrwt beam="2">  1       21 0.20027941E-01 0.21056292E+03</pdfrwt>
<totfact> 0.83004883E+03</totfact>
</mgrwt>
</event>
<event>
 4    1  0.1132373E+000  0.2921182E+03  0.7546771E-02  0.1089248E+00
         21   -1    0    0  503  502  0.00000000000E+00  0.00000000000E+00  0.76843444490E+03  0.76843444490E+03  0.00000000000E+00 0. -1.
         21   -1    0    0  501  503 -0.00000000000E+00 -0.00000000000E+00 -0.12749532777E+03  0.12749532777E+03  0.00000000000E+00 0. -1.
          6    1    1    2  501    0  0.13705559638E+02  0.23571426328E+03  0.15957350026E+03  0.33286147008E+03  0.17200000000E+03 0. -1.
         -6    1    1    2    0  502 -0.13705559638E+02 -0.23571426328E+03  0.48136561687E+03  0.56306830259E+03  0.17200000000E+03 0. -1.
<mgrwt>
<rscale>  2 0.29211822E+03</rscale>
<asrwt>0</asrwt>
<pdfrwt beam="1">  1       21 0.19210860E+00 0.29211822E+03</pdfrwt>
<pdfrwt beam="2">  1       21 0.31873834E-01 0.29211822E+03</pdfrwt>
<totfact> 0.13105109E+03</totfact>
</mgrwt>
</event>
<event>
 4    1  0.1132373E+000  0.2930739E+03  0.7546771E-02  0.1088755E+00
         21   -1    0    0  503  502  0.00000000000E+00  0.00000000000E+00  0.27124543330E+03  0.27124543330E+03  0.00000000000E+00 0. -1.
         21   -1    0    0  501  503 -0.00000000000E+00 -0.00000000000E+00 -0.31839274473E+03  0.31839274473E+03  0.00000000000E+00 0.  1.
          6    1    1    2  501    0 -0.23671153695E+03 -0.16612158544E+02 -0.45328849673E+02  0.29655862852E+03  0.17200000000E+03 0.  1.
         -6    1    1    2    0  502  0.23671153695E+03  0.16612158544E+02 -0.18184617643E+01  0.29307954951E+03  0.17200000000E+03 0. -1.
<mgrwt>
<rscale>  2 0.29307391E+03</rscale>
<asrwt>0</asrwt>
<pdfrwt beam="1">  1       21 0.67811359E-01 0.29307391E+03</pdfrwt>
<pdfrwt beam="2">  1       21 0.79598186E-01 0.29307391E+03</pdfrwt>
<totfact> 0.25730964E+03</totfact>
</mgrwt>
</event>
<event>
 4    1  0.1132373E+000  0.2772334E+03  0.7546771E-02  0.1097210E+00
         21   -1    0    0  503  502  0.00000000000E+00  0.00000000000E+00  0.10800777855E+03  0.10800777855E+03  0.00000000000E+00 0. -1.
         21   -1    0    0  501  503 -0.00000000000E+00 -0.00000000000E+00 -0.77580873348E+03  0.77580873348E+03  0.00000000000E+00 0.  1.
          6    1    1    2  501    0  0.21038581718E+03  0.54883431618E+02 -0.46103114712E+03  0.53796663628E+03  0.17200000000E+03 0.  1.
         -6    1    1    2    0  502 -0.21038581718E+03 -0.54883431618E+02 -0.20676980781E+03  0.34584987576E+03  0.17200000000E+03 0. -1.
<mgrwt>
<rscale>  2 0.27723345E+03</rscale>
<asrwt>0</asrwt>
<pdfrwt beam="1">  1       21 0.27001945E-01 0.27723345E+03</pdfrwt>
<pdfrwt beam="2">  1       21 0.19395218E+00 0.27723345E+03</pdfrwt>
<totfact> 0.17828556E+03</totfact>
</mgrwt>
</event>
<event>
 4    1  0.1132373E+000  0.1986469E+03  0.7546771E-02  0.1150886E+00
         21   -1    0    0  503  502  0.00000000000E+00  0.00000000000E+00  0.10678887370E+03  0.10678887370E+03  0.00000000000E+00 0.  1.
         21   -1    0    0  501  503 -0.00000000000E+00 -0.00000000000E+00 -0.67228705215E+03  0.67228705215E+03  0.00000000000E+00 0. -1.
          6    1    1    2  501    0  0.45701171044E+02 -0.88249524718E+02 -0.54416201048E+03  0.57928651745E+03  0.17200000000E+03 0. -1.
         -6    1    1    2    0  502 -0.45701171044E+02  0.88249524718E+02 -0.21336167969E+02  0.19978940841E+03  0.17200000000E+03 0.  1.
<mgrwt>
<rscale>  2 0.19864686E+03</rscale>
<asrwt>0</asrwt>
<pdfrwt beam="1">  1       21 0.26697219E-01 0.19864686E+03</pdfrwt>
<pdfrwt beam="2">  1       21 0.16807176E+00 0.19864686E+03</pdfrwt>
<totfact> 0.29241651E+03</totfact>
</mgrwt>
</event>
<event>
 4    1  0.1132373E+000  0.2573737E+03  0.7546771E-02  0.1108731E+00
         21   -1    0    0  503  502  0.00000000000E+00  0.00000000000E+00  0.24735448600E+04  0.24735448600E+04  0.00000000000E+00 0. -1.
         21   -1    0    0  501  503 -0.00000000000E+00 -0.00000000000E+00 -0.84824031711E+02  0.84824031711E+02  0.00000000000E+00 0.  1.
          6    1    1    2  501    0 -0.15487752811E+03 -0.11256192963E+03  0.13619650342E+03  0.29118846862E+03  0.17200000000E+03 0.  1.
         -6    1    1    2    0  502  0.15487752811E+03  0.11256192963E+03  0.22525243249E+04  0.22671804231E+04  0.17200000000E+03 0. -1.
<mgrwt>
<rscale>  2 0.25737373E+03</rscale>
<asrwt>0</asrwt>
<pdfrwt beam="1">  1       21 0.61838598E+00 0.25737373E+03</pdfrwt>
<pdfrwt beam="2">  1       21 0.21206016E-01 0.25737373E+03</pdfrwt>
<totfact> 0.44999804E+00</totfact>
</mgrwt>
</event>
<event>
 4    1  0.1132373E+000  0.2074149E+03  0.7546771E-02  0.1143630E+00
         21   -1    0    0  503  502  0.00000000000E+00  0.00000000000E+00  0.91872334549E+02  0.91872334549E+02  0.00000000000E+00 0.  1.
         21   -1    0    0  501  503 -0.00000000000E+00 -0.00000000000E+00 -0.46843194234E+03  0.46843194234E+03  0.00000000000E+00 0.  1.
          6    1    1    2  501    0 -0.32500345089E+02 -0.11126846891E+03 -0.18305101542E+03  0.27663806472E+03  0.17200000000E+03 0.  1.
         -6    1    1    2    0  502  0.32500345089E+02  0.11126846891E+03 -0.19350859238E+03  0.28366621217E+03  0.17200000000E+03 0.  1.
<mgrwt>
<rscale>  2 0.20741491E+03</rscale>
<asrwt>0</asrwt>
<pdfrwt beam="1">  1       21 0.22968084E-01 0.20741491E+03</pdfrwt>
<pdfrwt beam="2">  1       21 0.11710798E+00 0.20741491E+03</pdfrwt>
<totfact> 0.98752080E+03</totfact>
</mgrwt>
</event>
<event>
 4    1  0.1132373E+000  0.1928842E+03  0.7546771E-02  0.1155885E+00
         21   -1    0    0  501  502  0.00000000000E+00  0.00000000000E+00  0.48561424072E+02  0.48561424072E+02  0.00000000000E+00 0. -1.
         21   -1    0    0  502  503 -0.00000000000E+00 -0.00000000000E+00 -0.76865014727E+03  0.76865014727E+03  0.00000000000E+00 0. -1.
          6    1    1    2  501    0 -0.32281561883E+02 -0.81106113974E+02 -0.33664173377E+03  0.38798448149E+03  0.17200000000E+03 0. -1.
         -6    1    1    2    0  503  0.32281561883E+02  0.81106113974E+02 -0.38344698942E+03  0.42922708985E+03  0.17200000000E+03 0. -1.
<mgrwt>
<rscale>  2 0.19288416E+03</rscale>
<asrwt>0</asrwt>
<pdfrwt beam="1">  1       21 0.12140356E-01 0.19288416E+03</pdfrwt>
<pdfrwt beam="2">  1       21 0.19216253E+00 0.19288416E+03</pdfrwt>
<totfact> 0.86742721E+03</totfact>
</mgrwt>
</event>
<event>
 4    1  0.1132373E+000  0.2060893E+03  0.7546771E-02  0.1144701E+00
         21   -1    0    0  501  502  0.00000000000E+00  0.00000000000E+00  0.33073313632E+03  0.33073313632E+03  0.00000000000E+00 0. -1.
         21   -1    0    0  502  503 -0.00000000000E+00 -0.00000000000E+00 -0.13413582574E+03  0.13413582574E+03  0.00000000000E+00 0. -1.
          6    1    1    2  501    0  0.61268601274E+02 -0.95577009478E+02  0.50318558706E+02  0.21214326196E+03  0.17200000000E+03 0. -1.
         -6    1    1    2    0  503 -0.61268601274E+02  0.95577009478E+02  0.14627875187E+03  0.25272570010E+03  0.17200000000E+03 0. -1.
<mgrwt>
<rscale>  2 0.20608932E+03</rscale>
<asrwt>0</asrwt>
<pdfrwt beam="1">  1       21 0.82683283E-01 0.20608932E+03</pdfrwt>
<pdfrwt beam="2">  1       21 0.33533957E-01 0.20608932E+03</pdfrwt>
<totfact> 0.10831250E+04</totfact>
</mgrwt>
</event>
<event>
 4    1  0.1132373E+000  0.2515799E+03  0.7546771E-02  0.1112310E+00
         21   -1    0    0  501  502  0.00000000000E+00  0.00000000000E+00  0.27898866303E+03  0.27898866303E+03  0.00000000000E+00 0.  1.
         21   -1    0    0  502  503 -0.00000000000E+00 -0.00000000000E+00 -0.24229279893E+03  0.24229279893E+03  0.00000000000E+00 0.  1.
          6    1    1    2  501    0  0.16786276348E+03 -0.74367450553E+02  0.84119934889E+02  0.26527078337E+03  0.17200000000E+03 0.  1.
         -6    1    1    2    0  503 -0.16786276348E+03  0.74367450553E+02 -0.47424070787E+02  0.25601067859E+03  0.17200000000E+03 0.  1.
<mgrwt>
<rscale>  2 0.25157986E+03</rscale>
<asrwt>0</asrwt>
<pdfrwt beam="1">  1       21 0.69747166E-01 0.25157986E+03</pdfrwt>
<pdfrwt beam="2">  1       21 0.60573200E-01 0.25157986E+03</pdfrwt>
<totfact> 0.45473736E+03</totfact>
</mgrwt>
</event>
<event>
 4    1  0.1132373E+000  0.2032418E+03  0.7546771E-02  0.1147032E+00
         21   -1    0    0  501  502  0.00000000000E+00  0.00000000000E+00  0.14101521591E+03  0.14101521591E+03  0.00000000000E+00 0. -1.
         21   -1    0    0  502  503 -0.00000000000E+00 -0.00000000000E+00 -0.46891463218E+03  0.46891463218E+03  0.00000000000E+00 0.  1.
          6    1    1    2  501    0 -0.64057082331E+02 -0.87292105983E+02  0.22878982691E+02  0.20452547375E+03  0.17200000000E+03 0. -1.
         -6    1    1    2    0  503  0.64057082331E+02  0.87292105983E+02 -0.35077839896E+03  0.40540437434E+03  0.17200000000E+03 0.  1.
<mgrwt>
<rscale>  2 0.20324178E+03</rscale>
<asrwt>0</asrwt>
<pdfrwt beam="1">  1       21 0.35253804E-01 0.20324178E+03</pdfrwt>
<pdfrwt beam="2">  1       21 0.11722866E+00 0.20324178E+03</pdfrwt>
<totfact> 0.43019692E+03</totfact>
</mgrwt>
</event>
<event>
 4    1  0.1132373E+000  0.2089107E+03  0.7546771E-02  0.1142432E+00
         21   -1    0    0  503  502  0.00000000000E+00  0.00000000000E+00  0.77710691817E+03  0.77710691817E+03  0.00000000000E+00 0.  1.
         21   -1    0    0  501  503 -0.00000000000E+00 -0.00000000000E+00 -0.56289636069E+02  0.56289636069E+02  0.00000000000E+00 0. -1.
          6    1    1    2  501    0 -0.59171437558E+02 -0.10275407922E+03  0.34054435597E+03  0.39951735658E+03  0.17200000000E+03 0. -1.
         -6    1    1    2    0  502  0.59171437558E+02  0.10275407922E+03  0.38027292612E+03  0.43387919766E+03  0.17200000000E+03 0.  1.
<mgrwt>
<rscale>  2 0.20891065E+03</rscale>
<asrwt>0</asrwt>
<pdfrwt beam="1">  1       21 0.19427670E+00 0.20891065E+03</pdfrwt>
<pdfrwt beam="2">  1       21 0.14072411E-01 0.20891065E+03</pdfrwt>
<totfact> 0.63506972E+03</totfact>
</mgrwt>
</event>
<event>
 4    1  0.1132373E+000  0.2421476E+03  0.7546771E-02  0.1118370E+00
         21   -1    0    0  501  502  0.00000000000E+00  0.00000000000E+00  0.34913428779E+03  0.34913428779E+03  0.00000000000E+00 0.  1.
         21   -1    0    0  502  503 -0.00000000000E+00 -0.00000000000E+00 -0.22900966957E+03  0.22900966957E+03  0.00000000000E+00 0.  1.
          6    1    1    2  501    0  0.14229272199E+03  0.93830921293E+02  0.20933248558E+03  0.32008678517E+03  0.17200000000E+03 0.  1.
         -6    1    1    2    0  503 -0.14229272199E+03 -0.93830921293E+02 -0.89207867362E+02  0.25805717219E+03  0.17200000000E+03 0.  1.
<mgrwt>
<rscale>  2 0.24214760E+03</rscale>
<asrwt>0</asrwt>
<pdfrwt beam="1">  1       21 0.87283571E-01 0.24214760E+03</pdfrwt>
<pdfrwt beam="2">  1       21 0.57252418E-01 0.24214760E+03</pdfrwt>
<totfact> 0.31083839E+03</totfact>
</mgrwt>
</event>
<event>
 4    1  0.1132373E+000  0.4864929E+03  0.7546771E-02  0.1017366E+00
         21   -1    0    0  501  502  0.00000000000E+00  0.00000000000E+00  0.27334125994E+03  0.27334125994E+03  0.00000000000E+00 0. -1.
         21   -1    0    0  502  503 -0.00000000000E+00 -0.00000000000E+00 -0.14161557248E+04  0.14161557248E+04  0.00000000000E+00 0.  1.
          6    1    1    2  501    0 -0.55913742168E+02  0.45162479154E+03 -0.44820470179E+02  0.48855314291E+03  0.17200000000E+03 0. -1.
         -6    1    1    2    0  503  0.55913742168E+02 -0.45162479154E+03 -0.10979939947E+04  0.12009438419E+04  0.17200000000E+03 0.  1.
<mgrwt>
<rscale>  2 0.48649286E+03</rscale>
<asrwt>0</asrwt>
<pdfrwt beam="1">  1       21 0.68335316E-01 0.48649286E+03</pdfrwt>
<pdfrwt beam="2">  1       21 0.35403893E+00 0.48649286E+03</pdfrwt>
<totfact> 0.23280337E+01</totfact>
</mgrwt>
</event>
<event>
 4    1  0.1132373E+000  0.1789639E+03  0.7546771E-02  0.1168810E+00
         21   -1    0    0  501  502  0.00000000000E+00  0.00000000000E+00  0.44920002592E+03  0.44920002592E+03  0.00000000000E+00 0. -1.
         21   -1    0    0  502  503 -0.00000000000E+00 -0.00000000000E+00 -0.34256617791E+03  0.34256617791E+03  0.00000000000E+00 0. -1.
          6    1    1    2  501    0 -0.33578107923E+02  0.36284607714E+02  0.40560047789E+03  0.44332810621E+03  0.17200000000E+03 0. -1.
         -6    1    1    2    0  503  0.33578107923E+02 -0.36284607714E+02 -0.29896662988E+03  0.34843809762E+03  0.17200000000E+03 0. -1.
<mgrwt>
<rscale>  2 0.17896386E+03</rscale>
<asrwt>0</asrwt>
<pdfrwt beam="1">  1       21 0.11230001E+00 0.17896386E+03</pdfrwt>
<pdfrwt beam="2">  1       21 0.85641545E-01 0.17896386E+03</pdfrwt>
<totfact> 0.74260937E+02</totfact>
</mgrwt>
</event>
<event>
 4    1  0.1132373E+000  0.1772560E+03  0.7546771E-02  0.1170485E+00
         21   -1    0    0  501  502  0.00000000000E+00  0.00000000000E+00  0.68473466304E+03  0.68473466304E+03  0.00000000000E+00 0.  1.
         21   -1    0    0  502  503 -0.00000000000E+00 -0.00000000000E+00 -0.15174516880E+03  0.15174516880E+03  0.00000000000E+00 0.  1.
          6    1    1    2  501    0 -0.25025770373E+02  0.34776492565E+02  0.61582194891E+03  0.64082475481E+03  0.17200000000E+03 0.  1.
         -6    1    1    2    0  503  0.25025770373E+02 -0.34776492565E+02 -0.82832454673E+02  0.19565507702E+03  0.17200000000E+03 0.  1.
<mgrwt>
<rscale>  2 0.17725601E+03</rscale>
<asrwt>0</asrwt>
<pdfrwt beam="1">  1       21 0.17118366E+00 0.17725601E+03</pdfrwt>
<pdfrwt beam="2">  1       21 0.37936294E-01 0.17725601E+03</pdfrwt>
<totfact> 0.14261116E+03</totfact>
</mgrwt>
</event>
<event>
 4    1  0.1132373E+000  0.2468954E+03  0.7546771E-02  0.1115283E+00
         21   -1    0    0  503  502  0.00000000000E+00  0.00000000000E+00  0.11568418856E+03  0.11568418856E+03  0.00000000000E+00 0. -1.
         21   -1    0    0  501  503 -0.00000000000E+00 -0.00000000000E+00 -0.52804708557E+03  0.52804708557E+03  0.00000000000E+00 0.  1.
          6    1    1    2  501    0  0.10509158122E+03 -0.14258016057E+03 -0.22099279510E+03  0.33135352438E+03  0.17200000000E+03 0.  1.
         -6    1    1    2    0  502 -0.10509158122E+03  0.14258016057E+03 -0.19137010191E+03  0.31237774975E+03  0.17200000000E+03 0. -1.
<mgrwt>
<rscale>  2 0.24689541E+03</rscale>
<asrwt>0</asrwt>
<pdfrwt beam="1">  1       21 0.28921048E-01 0.24689541E+03</pdfrwt>
<pdfrwt beam="2">  1       21 0.13201177E+00 0.24689541E+03</pdfrwt>
<totfact> 0.45676195E+03</totfact>
</mgrwt>
</event>
<event>
 4    1  0.1132373E+000  0.2746243E+03  0.7546771E-02  0.1098662E+00
         21   -1    0    0  501  502  0.00000000000E+00  0.00000000000E+00  0.34300355716E+03  0.34300355716E+03  0.00000000000E+00 0.  1.
         21   -1    0    0  502  503 -0.00000000000E+00 -0.00000000000E+00 -0.61516766398E+03  0.61516766398E+03  0.00000000000E+00 0. -1.
          6    1    1    2  501    0  0.20937861564E+03 -0.44666804286E+02  0.24795644266E+03  0.37000125074E+03  0.17200000000E+03 0.  1.
         -6    1    1    2    0  503 -0.20937861564E+03  0.44666804286E+02 -0.52012054947E+03  0.58816997040E+03  0.17200000000E+03 0. -1.
<mgrwt>
<rscale>  2 0.27462434E+03</rscale>
<asrwt>0</asrwt>
<pdfrwt beam="1">  1       21 0.85750890E-01 0.27462434E+03</pdfrwt>
<pdfrwt beam="2">  1       21 0.15379191E+00 0.27462434E+03</pdfrwt>
<totfact> 0.30221247E+02</totfact>
</mgrwt>
</event>
<event>
 4    1  0.1132373E+000  0.2274428E+03  0.7546771E-02  0.1128453E+00
         21   -1    0    0  501  502  0.00000000000E+00  0.00000000000E+00  0.24362203096E+03  0.24362203096E+03  0.00000000000E+00 0.  1.
         21   -1    0    0  502  503 -0.00000000000E+00 -0.00000000000E+00 -0.23547547815E+03  0.23547547815E+03  0.00000000000E+00 0.  1.
          6    1    1    2  501    0  0.70770437089E+02 -0.13091135745E+03  0.79162597958E+02  0.24082557005E+03  0.17200000000E+03 0.  1.
         -6    1    1    2    0  503 -0.70770437089E+02  0.13091135745E+03 -0.71016045150E+02  0.23827193906E+03  0.17200000000E+03 0.  1.
<mgrwt>
<rscale>  2 0.22744282E+03</rscale>
<asrwt>0</asrwt>
<pdfrwt beam="1">  1       21 0.60905508E-01 0.22744282E+03</pdfrwt>
<pdfrwt beam="2">  1       21 0.58868869E-01 0.22744282E+03</pdfrwt>
<totfact> 0.66080376E+03</totfact>
</mgrwt>
</event>
<event>
 4    1  0.1132373E+000  0.1998336E+03  0.7546771E-02  0.1149879E+00
         21   -1    0    0  503  502  0.00000000000E+00  0.00000000000E+00  0.54663499878E+03  0.54663499878E+03  0.00000000000E+00 0.  1.
         21   -1    0    0  501  503 -0.00000000000E+00 -0.00000000000E+00 -0.90850843513E+02  0.90850843513E+02  0.00000000000E+00 0. -1.
          6    1    1    2  501    0  0.61406066980E+02 -0.81109582673E+02  0.86814962909E+02  0.21787681668E+03  0.17200000000E+03 0. -1.
         -6    1    1    2    0  502 -0.61406066980E+02  0.81109582673E+02  0.36896919236E+03  0.41960902561E+03  0.17200000000E+03 0.  1.
<mgrwt>
<rscale>  2 0.19983360E+03</rscale>
<asrwt>0</asrwt>
<pdfrwt beam="1">  1       21 0.13665874E+00 0.19983360E+03</pdfrwt>
<pdfrwt beam="2">  1       21 0.22712712E-01 0.19983360E+03</pdfrwt>
<totfact> 0.68823275E+03</totfact>
</mgrwt>
</event>
<event>
 4    1  0.1132373E+000  0.2791929E+03  0.7546771E-02  0.1096131E+00
         21   -1    0    0  501  502  0.00000000000E+00  0.00000000000E+00  0.38930773414E+03  0.38930773414E+03  0.00000000000E+00 0. -1.
         21   -1    0    0  502  503 -0.00000000000E+00 -0.00000000000E+00 -0.23599836489E+03  0.23599836489E+03  0.00000000000E+00 0. -1.
          6    1    1    2  501    0 -0.19484425498E+03  0.10198225830E+03  0.19838408857E+03  0.34249804569E+03  0.17200000000E+03 0. -1.
         -6    1    1    2    0  503  0.19484425498E+03 -0.10198225830E+03 -0.45074719323E+02  0.28280805333E+03  0.17200000000E+03 0. -1.
<mgrwt>
<rscale>  2 0.27919288E+03</rscale>
<asrwt>0</asrwt>
<pdfrwt beam="1">  1       21 0.97326933E-01 0.27919288E+03</pdfrwt>
<pdfrwt beam="2">  1       21 0.58999592E-01 0.27919288E+03</pdfrwt>
<totfact> 0.22022122E+03</totfact>
</mgrwt>
</event>
<event>
 4    1  0.1132373E+000  0.1732706E+03  0.7546771E-02  0.1174479E+00
         21   -1    0    0  503  502  0.00000000000E+00  0.00000000000E+00  0.12570145628E+03  0.12570145628E+03  0.00000000000E+00 0. -1.
         21   -1    0    0  501  503 -0.00000000000E+00 -0.00000000000E+00 -0.23927606941E+03  0.23927606941E+03  0.00000000000E+00 0. -1.
          6    1    1    2  501    0 -0.18995689603E+02  0.88239226800E+01 -0.64566266301E+02  0.18490943886E+03  0.17200000000E+03 0. -1.
         -6    1    1    2    0  502  0.18995689603E+02 -0.88239226800E+01 -0.49008346825E+02  0.18006808683E+03  0.17200000000E+03 0. -1.
<mgrwt>
<rscale>  2 0.17327059E+03</rscale>
<asrwt>0</asrwt>
<pdfrwt beam="1">  1       21 0.31425364E-01 0.17327059E+03</pdfrwt>
<pdfrwt beam="2">  1       21 0.59819017E-01 0.17327059E+03</pdfrwt>
<totfact> 0.25665215E+04</totfact>
</mgrwt>
</event>
<event>
 4    1  0.1132373E+000  0.2109116E+03  0.7546771E-02  0.1140846E+00
         21   -1    0    0  501  502  0.00000000000E+00  0.00000000000E+00  0.23241065797E+03  0.23241065797E+03  0.00000000000E+00 0.  1.
         21   -1    0    0  502  503 -0.00000000000E+00 -0.00000000000E+00 -0.19167824092E+03  0.19167824092E+03  0.00000000000E+00 0.  1.
          6    1    1    2  501    0  0.15762673134E+02  0.12104230834E+03  0.28426177792E+02  0.21281858438E+03  0.17200000000E+03 0.  1.
         -6    1    1    2    0  503 -0.15762673134E+02 -0.12104230834E+03  0.12306239264E+02  0.21127031452E+03  0.17200000000E+03 0.  1.
<mgrwt>
<rscale>  2 0.21091160E+03</rscale>
<asrwt>0</asrwt>
<pdfrwt beam="1">  1       21 0.58102664E-01 0.21091160E+03</pdfrwt>
<pdfrwt beam="2">  1       21 0.47919560E-01 0.21091160E+03</pdfrwt>
<totfact> 0.11414881E+04</totfact>
</mgrwt>
</event>
<event>
 4    1  0.1132373E+000  0.1833825E+03  0.7546771E-02  0.1164569E+00
         21   -1    0    0  501  502  0.00000000000E+00  0.00000000000E+00  0.17580802313E+03  0.17580802313E+03  0.00000000000E+00 0. -1.
         21   -1    0    0  502  503 -0.00000000000E+00 -0.00000000000E+00 -0.25082305604E+03  0.25082305604E+03  0.00000000000E+00 0. -1.
          6    1    1    2  501    0 -0.63374717626E+02 -0.53640295512E+01  0.66422865644E+02  0.19504134107E+03  0.17200000000E+03 0. -1.
         -6    1    1    2    0  503  0.63374717626E+02  0.53640295512E+01 -0.14143789856E+03  0.23158973810E+03  0.17200000000E+03 0. -1.
<mgrwt>
<rscale>  2 0.18338246E+03</rscale>
<asrwt>0</asrwt>
<pdfrwt beam="1">  1       21 0.43952006E-01 0.18338246E+03</pdfrwt>
<pdfrwt beam="2">  1       21 0.62705764E-01 0.18338246E+03</pdfrwt>
<totfact> 0.11790659E+04</totfact>
</mgrwt>
</event>
<event>
 4    1  0.1132373E+000  0.1944606E+03  0.7546771E-02  0.1154499E+00
         21   -1    0    0  501  502  0.00000000000E+00  0.00000000000E+00  0.37540979062E+02  0.37540979062E+02  0.00000000000E+00 0.  1.
         21   -1    0    0  502  503 -0.00000000000E+00 -0.00000000000E+00 -0.10716644940E+04  0.10716644940E+04  0.00000000000E+00 0.  1.
          6    1    1    2  501    0  0.89411736469E+02 -0.15376879063E+02 -0.65298278742E+03  0.68132329162E+03  0.17200000000E+03 0.  1.
         -6    1    1    2    0  503 -0.89411736469E+02  0.15376879063E+02 -0.38114072752E+03  0.42788218145E+03  0.17200000000E+03 0.  1.
<mgrwt>
<rscale>  2 0.19446055E+03</rscale>
<asrwt>0</asrwt>
<pdfrwt beam="1">  1       21 0.93852452E-02 0.19446055E+03</pdfrwt>
<pdfrwt beam="2">  1       21 0.26791611E+00 0.19446055E+03</pdfrwt>
<totfact> 0.47338957E+03</totfact>
</mgrwt>
</event>
<event>
 4    1  0.1132373E+000  0.2621850E+03  0.7546771E-02  0.1105838E+00
         21   -1    0    0  501  502  0.00000000000E+00  0.00000000000E+00  0.88469077298E+02  0.88469077298E+02  0.00000000000E+00 0. -1.
         21   -1    0    0  502  503 -0.00000000000E+00 -0.00000000000E+00 -0.78587147230E+03  0.78587147230E+03  0.00000000000E+00 0.  1.
          6    1    1    2  501    0  0.11853277606E+03 -0.15845169711E+03 -0.30226697933E+03  0.40013283558E+03  0.17200000000E+03 0. -1.
         -6    1    1    2    0  503 -0.11853277606E+03  0.15845169711E+03 -0.39513541568E+03  0.47420771402E+03  0.17200000000E+03 0.  1.
<mgrwt>
<rscale>  2 0.26218497E+03</rscale>
<asrwt>0</asrwt>
<pdfrwt beam="1">  1       21 0.22117270E-01 0.26218497E+03</pdfrwt>
<pdfrwt beam="2">  1       21 0.19646787E+00 0.26218497E+03</pdfrwt>
<totfact> 0.25453451E+03</totfact>
</mgrwt>
</event>
<event>
 4    1  0.1132373E+000  0.2325101E+03  0.7546771E-02  0.1124885E+00
         21   -1    0    0  503  502  0.00000000000E+00  0.00000000000E+00  0.86852195777E+02  0.86852195777E+02  0.00000000000E+00 0. -1.
         21   -1    0    0  501  503 -0.00000000000E+00 -0.00000000000E+00 -0.65859206843E+03  0.65859206843E+03  0.00000000000E+00 0. -1.
          6    1    1    2  501    0 -0.23995877326E+02 -0.15459998791E+03 -0.37318650063E+03  0.43969207708E+03  0.17200000000E+03 0. -1.
         -6    1    1    2    0  502  0.23995877326E+02  0.15459998791E+03 -0.19855337202E+03  0.30575218712E+03  0.17200000000E+03 0. -1.
<mgrwt>
<rscale>  2 0.23251013E+03</rscale>
<asrwt>0</asrwt>
<pdfrwt beam="1">  1       21 0.21713050E-01 0.23251013E+03</pdfrwt>
<pdfrwt beam="2">  1       21 0.16464801E+00 0.23251013E+03</pdfrwt>
<totfact> 0.44597111E+03</totfact>
</mgrwt>
</event>
<event>
 4    1  0.1132373E+000  0.1758238E+03  0.7546771E-02  0.1171907E+00
         21   -1    0    0  503  502  0.00000000000E+00  0.00000000000E+00  0.23299016082E+03  0.23299016082E+03  0.00000000000E+00 0.  1.
         21   -1    0    0  501  503 -0.00000000000E+00 -0.00000000000E+00 -0.21182863711E+03  0.21182863711E+03  0.00000000000E+00 0.  1.
          6    1    1    2  501    0  0.18147267043E+02  0.31633721226E+02 -0.12536702617E+03  0.21594190624E+03  0.17200000000E+03 0.  1.
         -6    1    1    2    0  502 -0.18147267043E+02 -0.31633721226E+02  0.14652854987E+03  0.22887689169E+03  0.17200000000E+03 0.  1.
<mgrwt>
<rscale>  2 0.17582382E+03</rscale>
<asrwt>0</asrwt>
<pdfrwt beam="1">  1       21 0.58247540E-01 0.17582382E+03</pdfrwt>
<pdfrwt beam="2">  1       21 0.52957159E-01 0.17582382E+03</pdfrwt>
<totfact> 0.94399132E+03</totfact>
</mgrwt>
</event>
<event>
 4    1  0.1132373E+000  0.2248620E+03  0.7546771E-02  0.1130309E+00
         21   -1    0    0  503  502  0.00000000000E+00  0.00000000000E+00  0.65470368605E+03  0.65470368605E+03  0.00000000000E+00 0.  1.
         21   -1    0    0  501  503 -0.00000000000E+00 -0.00000000000E+00 -0.23060850699E+03  0.23060850699E+03  0.00000000000E+00 0.  1.
          6    1    1    2  501    0 -0.13722317268E+03 -0.46354288025E+02 -0.14895532572E+03  0.26972320664E+03  0.17200000000E+03 0.  1.
         -6    1    1    2    0  502  0.13722317268E+03  0.46354288025E+02  0.57305050479E+03  0.61558898640E+03  0.17200000000E+03 0.  1.
<mgrwt>
<rscale>  2 0.22486200E+03</rscale>
<asrwt>0</asrwt>
<pdfrwt beam="1">  1       21 0.16367592E+00 0.22486200E+03</pdfrwt>
<pdfrwt beam="2">  1       21 0.57652128E-01 0.22486200E+03</pdfrwt>
<totfact> 0.64556794E+02</totfact>
</mgrwt>
</event>
<event>
 4    1  0.1132373E+000  0.1921444E+03  0.7546771E-02  0.1156541E+00
         21   -1    0    0  503  502  0.00000000000E+00  0.00000000000E+00  0.68235843228E+02  0.68235843228E+02  0.00000000000E+00 0. -1.
         21   -1    0    0  501  503 -0.00000000000E+00 -0.00000000000E+00 -0.59338517625E+03  0.59338517625E+03  0.00000000000E+00 0.  1.
          6    1    1    2  501    0 -0.14068649787E+02 -0.84483871728E+02 -0.36081289532E+03  0.40878526994E+03  0.17200000000E+03 0.  1.
         -6    1    1    2    0  502  0.14068649787E+02  0.84483871728E+02 -0.16433643770E+03  0.25283574954E+03  0.17200000000E+03 0. -1.
<mgrwt>
<rscale>  2 0.19214435E+03</rscale>
<asrwt>0</asrwt>
<pdfrwt beam="1">  1       21 0.17058961E-01 0.19214435E+03</pdfrwt>
<pdfrwt beam="2">  1       21 0.14834629E+00 0.19214435E+03</pdfrwt>
<totfact> 0.95436278E+03</totfact>
</mgrwt>
</event>
<event>
 4    1  0.1132373E+000  0.1917330E+03  0.7546771E-02  0.1156907E+00
         21   -1    0    0  501  502  0.00000000000E+00  0.00000000000E+00  0.29285661339E+03  0.29285661339E+03  0.00000000000E+00 0.  1.
         21   -1    0    0  502  503 -0.00000000000E+00 -0.00000000000E+00 -0.12626177813E+03  0.12626177813E+03  0.00000000000E+00 0.  1.
          6    1    1    2  501    0  0.20452421178E+02  0.82214680185E+02  0.99278436728E+02  0.21591147068E+03  0.17200000000E+03 0. -1.
         -6    1    1    2    0  503 -0.20452421178E+02 -0.82214680185E+02  0.67316398534E+02  0.20320692085E+03  0.17200000000E+03 0. -1.
<mgrwt>
<rscale>  2 0.19173303E+03</rscale>
<asrwt>0</asrwt>
<pdfrwt beam="1">  1       21 0.73214152E-01 0.19173303E+03</pdfrwt>
<pdfrwt beam="2">  1       21 0.31565445E-01 0.19173303E+03</pdfrwt>
<totfact> 0.16195119E+04</totfact>
</mgrwt>
</event>
<event>
 4    1  0.1132373E+000  0.1871364E+03  0.7546771E-02  0.1161070E+00
         21   -1    0    0  503  502  0.00000000000E+00  0.00000000000E+00  0.96798221528E+02  0.96798221528E+02  0.00000000000E+00 0.  1.
         21   -1    0    0  501  503 -0.00000000000E+00 -0.00000000000E+00 -0.46401716962E+03  0.46401716962E+03  0.00000000000E+00 0. -1.
          6    1    1    2  501    0  0.70740019289E+02  0.20781452262E+02 -0.31522873426E+03  0.36659129012E+03  0.17200000000E+03 0. -1.
         -6    1    1    2    0  502 -0.70740019289E+02 -0.20781452262E+02 -0.51990213834E+02  0.19422410103E+03  0.17200000000E+03 0.  1.
<mgrwt>
<rscale>  2 0.18713636E+03</rscale>
<asrwt>0</asrwt>
<pdfrwt beam="1">  1       21 0.24199556E-01 0.18713636E+03</pdfrwt>
<pdfrwt beam="2">  1       21 0.11600429E+00 0.18713636E+03</pdfrwt>
<totfact> 0.92870266E+03</totfact>
</mgrwt>
</event>
<event>
 4    1  0.1132373E+000  0.2481134E+03  0.7546771E-02  0.1114503E+00
         21   -1    0    0  501  502  0.00000000000E+00  0.00000000000E+00  0.94628341349E+03  0.94628341349E+03  0.00000000000E+00 0. -1.
         21   -1    0    0  502  503 -0.00000000000E+00 -0.00000000000E+00 -0.12901864635E+03  0.12901864635E+03  0.00000000000E+00 0.  1.
          6    1    1    2  501    0  0.11792678131E+03  0.13442296082E+03  0.78719837744E+03  0.82537357820E+03  0.17200000000E+03 0. -1.
         -6    1    1    2    0  503 -0.11792678131E+03 -0.13442296082E+03  0.30066389700E+02  0.24992848164E+03  0.17200000000E+03 0.  1.
<mgrwt>
<rscale>  2 0.24811340E+03</rscale>
<asrwt>0</asrwt>
<pdfrwt beam="1">  1       21 0.23657083E+00 0.24811340E+03</pdfrwt>
<pdfrwt beam="2">  1       21 0.32254664E-01 0.24811340E+03</pdfrwt>
<totfact> 0.69439990E+02</totfact>
</mgrwt>
</event>
<event>
 4    1  0.1132373E+000  0.6471745E+03  0.7546771E-02  0.9812096E-01
         21   -1    0    0  503  502  0.00000000000E+00  0.00000000000E+00  0.13366508305E+04  0.13366508305E+04  0.00000000000E+00 0.  1.
         21   -1    0    0  501  503 -0.00000000000E+00 -0.00000000000E+00 -0.43149720621E+03  0.43149720621E+03  0.00000000000E+00 0. -1.
          6    1    1    2  501    0  0.25813584997E+03 -0.56799356261E+03 -0.10036227765E+02  0.64725229245E+03  0.17200000000E+03 0.  1.
         -6    1    1    2    0  502 -0.25813584997E+03  0.56799356261E+03  0.91518985201E+03  0.11208957442E+04  0.17200000000E+03 0. -1.
<mgrwt>
<rscale>  2 0.64717448E+03</rscale>
<asrwt>0</asrwt>
<pdfrwt beam="1">  1       21 0.33416270E+00 0.64717448E+03</pdfrwt>
<pdfrwt beam="2">  1       21 0.10787430E+00 0.64717448E+03</pdfrwt>
<totfact> 0.95380733E+00</totfact>
</mgrwt>
</event>
<event>
 4    1  0.1132373E+000  0.1732808E+03  0.7546771E-02  0.1174469E+00
         21   -1    0    0  503  502  0.00000000000E+00  0.00000000000E+00  0.63168430145E+02  0.63168430145E+02  0.00000000000E+00 0.  1.
         21   -1    0    0  501  503 -0.00000000000E+00 -0.00000000000E+00 -0.52919820993E+03  0.52919820993E+03  0.00000000000E+00 0.  1.
          6    1    1    2  501    0  0.17517107846E+02  0.11636249271E+02 -0.32750624230E+03  0.37052205078E+03  0.17200000000E+03 0. -1.
         -6    1    1    2    0  502 -0.17517107846E+02 -0.11636249271E+02 -0.13852353748E+03  0.22184458930E+03  0.17200000000E+03 0. -1.
<mgrwt>
<rscale>  2 0.17328085E+03</rscale>
<asrwt>0</asrwt>
<pdfrwt beam="1">  1       21 0.15792108E-01 0.17328085E+03</pdfrwt>
<pdfrwt beam="2">  1       21 0.13229955E+00 0.17328085E+03</pdfrwt>
<totfact> 0.14969476E+04</totfact>
</mgrwt>
</event>
<event>
 4    1  0.1132373E+000  0.2196246E+03  0.7546771E-02  0.1134163E+00
         21   -1    0    0  501  502  0.00000000000E+00  0.00000000000E+00  0.14132160001E+03  0.14132160001E+03  0.00000000000E+00 0. -1.
         21   -1    0    0  502  503 -0.00000000000E+00 -0.00000000000E+00 -0.34260856382E+03  0.34260856382E+03  0.00000000000E+00 0. -1.
          6    1    1    2  501    0 -0.84825775563E+02 -0.10703062767E+03 -0.11552002763E+03  0.24815286467E+03  0.17200000000E+03 0. -1.
         -6    1    1    2    0  503  0.84825775563E+02  0.10703062767E+03 -0.85766936172E+02  0.23577729916E+03  0.17200000000E+03 0. -1.
<mgrwt>
<rscale>  2 0.21962461E+03</rscale>
<asrwt>0</asrwt>
<pdfrwt beam="1">  1       21 0.35330400E-01 0.21962461E+03</pdfrwt>
<pdfrwt beam="2">  1       21 0.85652140E-01 0.21962461E+03</pdfrwt>
<totfact> 0.89274651E+03</totfact>
</mgrwt>
</event>
<event>
 4    1  0.1132373E+000  0.1955697E+03  0.7546771E-02  0.1153532E+00
         21   -1    0    0  503  502  0.00000000000E+00  0.00000000000E+00  0.53679305705E+03  0.53679305705E+03  0.00000000000E+00 0. -1.
         21   -1    0    0  501  503 -0.00000000000E+00 -0.00000000000E+00 -0.77143026071E+02  0.77143026071E+02  0.00000000000E+00 0. -1.
          6    1    1    2  501    0 -0.39304197166E+02  0.84372240705E+02  0.31465435145E+03  0.37047922452E+03  0.17200000000E+03 0.  1.
         -6    1    1    2    0  502  0.39304197166E+02 -0.84372240705E+02  0.14499567953E+03  0.24345685860E+03  0.17200000000E+03 0.  1.
<mgrwt>
<rscale>  2 0.19556967E+03</rscale>
<asrwt>0</asrwt>
<pdfrwt beam="1">  1       21 0.13419825E+00 0.19556967E+03</pdfrwt>
<pdfrwt beam="2">  1       21 0.19285758E-01 0.19556967E+03</pdfrwt>
<totfact> 0.98311509E+03</totfact>
</mgrwt>
</event>
<event>
 4    1  0.1132373E+000  0.1784890E+03  0.7546771E-02  0.1169273E+00
         21   -1    0    0  503  502  0.00000000000E+00  0.00000000000E+00  0.15745530842E+03  0.15745530842E+03  0.00000000000E+00 0.  1.
         21   -1    0    0  501  503 -0.00000000000E+00 -0.00000000000E+00 -0.31400090044E+03  0.31400090044E+03  0.00000000000E+00 0.  1.
          6    1    1    2  501    0  0.36788214219E+02 -0.30346940010E+02 -0.21884882504E+03  0.28240594486E+03  0.17200000000E+03 0.  1.
         -6    1    1    2    0  502 -0.36788214219E+02  0.30346940010E+02  0.62303233023E+02  0.18905026400E+03  0.17200000000E+03 0.  1.
<mgrwt>
<rscale>  2 0.17848896E+03</rscale>
<asrwt>0</asrwt>
<pdfrwt beam="1">  1       21 0.39363828E-01 0.17848896E+03</pdfrwt>
<pdfrwt beam="2">  1       21 0.78500224E-01 0.17848896E+03</pdfrwt>
<totfact> 0.90211091E+03</totfact>
</mgrwt>
</event>
<event>
 4    1  0.1132373E+000  0.1971746E+03  0.7546771E-02  0.1152145E+00
         21   -1    0    0  501  502  0.00000000000E+00  0.00000000000E+00  0.17064158414E+03  0.17064158414E+03  0.00000000000E+00 0.  1.
         21   -1    0    0  502  503 -0.00000000000E+00 -0.00000000000E+00 -0.24472166913E+03  0.24472166913E+03  0.00000000000E+00 0. -1.
          6    1    1    2  501    0 -0.50210491219E+02  0.82296605340E+02  0.17517715501E+02  0.19795124409E+03  0.17200000000E+03 0.  1.
         -6    1    1    2    0  503  0.50210491219E+02 -0.82296605340E+02 -0.91597800490E+02  0.21741200918E+03  0.17200000000E+03 0. -1.
<mgrwt>
<rscale>  2 0.19717460E+03</rscale>
<asrwt>0</asrwt>
<pdfrwt beam="1">  1       21 0.42660396E-01 0.19717460E+03</pdfrwt>
<pdfrwt beam="2">  1       21 0.61180417E-01 0.19717460E+03</pdfrwt>
<totfact> 0.13095299E+04</totfact>
</mgrwt>
</event>
<event>
 4    1  0.1132373E+000  0.1833829E+03  0.7546771E-02  0.1164569E+00
         21   -1    0    0  501  502  0.00000000000E+00  0.00000000000E+00  0.12262493002E+03  0.12262493002E+03  0.00000000000E+00 0.  1.
         21   -1    0    0  502  503 -0.00000000000E+00 -0.00000000000E+00 -0.35467283814E+03  0.35467283814E+03  0.00000000000E+00 0.  1.
          6    1    1    2  501    0  0.63586633420E+02  0.14287044906E+01 -0.23795537387E+01  0.18339837355E+03  0.17200000000E+03 0.  1.
         -6    1    1    2    0  503 -0.63586633420E+02 -0.14287044906E+01 -0.22966835439E+03  0.29389939461E+03  0.17200000000E+03 0.  1.
<mgrwt>
<rscale>  2 0.18338294E+03</rscale>
<asrwt>0</asrwt>
<pdfrwt beam="1">  1       21 0.30656233E-01 0.18338294E+03</pdfrwt>
<pdfrwt beam="2">  1       21 0.88668208E-01 0.18338294E+03</pdfrwt>
<totfact> 0.11179270E+04</totfact>
</mgrwt>
</event>
<event>
 4    1  0.1132373E+000  0.1752625E+03  0.7546771E-02  0.1172468E+00
         21   -1    0    0  501  502  0.00000000000E+00  0.00000000000E+00  0.19702465136E+03  0.19702465136E+03  0.00000000000E+00 0. -1.
         21   -1    0    0  502  503 -0.00000000000E+00 -0.00000000000E+00 -0.21551777572E+03  0.21551777572E+03  0.00000000000E+00 0. -1.
          6    1    1    2  501    0  0.46542311410E+01  0.33336026033E+02  0.99238513744E+02  0.20140813069E+03  0.17200000000E+03 0. -1.
         -6    1    1    2    0  503 -0.46542311410E+01 -0.33336026033E+02 -0.11773163811E+03  0.21113429639E+03  0.17200000000E+03 0. -1.
<mgrwt>
<rscale>  2 0.17526252E+03</rscale>
<asrwt>0</asrwt>
<pdfrwt beam="1">  1       21 0.49256163E-01 0.17526252E+03</pdfrwt>
<pdfrwt beam="2">  1       21 0.53879444E-01 0.17526252E+03</pdfrwt>
<totfact> 0.12955943E+04</totfact>
</mgrwt>
</event>
<event>
 4    1  0.1132373E+000  0.1954199E+03  0.7546771E-02  0.1153662E+00
         21   -1    0    0  503  502  0.00000000000E+00  0.00000000000E+00  0.44297747936E+02  0.44297747936E+02  0.00000000000E+00 0.  1.
         21   -1    0    0  501  503 -0.00000000000E+00 -0.00000000000E+00 -0.87592080279E+03  0.87592080279E+03  0.00000000000E+00 0. -1.
          6    1    1    2  501    0  0.56464067491E+02 -0.73598609202E+02 -0.47361390054E+03  0.51234663362E+03  0.17200000000E+03 0. -1.
         -6    1    1    2    0  502 -0.56464067491E+02  0.73598609202E+02 -0.35800915431E+03  0.40787191711E+03  0.17200000000E+03 0. -1.
<mgrwt>
<rscale>  2 0.19541992E+03</rscale>
<asrwt>0</asrwt>
<pdfrwt beam="1">  1       21 0.11074437E-01 0.19541992E+03</pdfrwt>
<pdfrwt beam="2">  1       21 0.21898020E+00 0.19541992E+03</pdfrwt>
<totfact> 0.68934062E+03</totfact>
</mgrwt>
</event>
<event>
 4    1  0.1132373E+000  0.1786641E+03  0.7546771E-02  0.1169102E+00
         21   -1    0    0  503  502  0.00000000000E+00  0.00000000000E+00  0.33000524539E+03  0.33000524539E+03  0.00000000000E+00 0.  1.
         21   -1    0    0  501  503 -0.00000000000E+00 -0.00000000000E+00 -0.12395735799E+03  0.12395735799E+03  0.00000000000E+00 0.  1.
          6    1    1    2  501    0  0.59482930479E+01 -0.47973852440E+02 -0.33584109854E+01  0.17869569562E+03  0.17200000000E+03 0.  1.
         -6    1    1    2    0  502 -0.59482930479E+01  0.47973852440E+02  0.20940629838E+03  0.27526690776E+03  0.17200000000E+03 0.  1.
<mgrwt>
<rscale>  2 0.17866413E+03</rscale>
<asrwt>0</asrwt>
<pdfrwt beam="1">  1       21 0.82501310E-01 0.17866413E+03</pdfrwt>
<pdfrwt beam="2">  1       21 0.30989340E-01 0.17866413E+03</pdfrwt>
<totfact> 0.12949293E+04</totfact>
</mgrwt>
</event>
<event>
 4    1  0.1132373E+000  0.2428678E+03  0.7546771E-02  0.1117897E+00
         21   -1    0    0  503  502  0.00000000000E+00  0.00000000000E+00  0.16161181219E+03  0.16161181219E+03  0.00000000000E+00 0.  1.
         21   -1    0    0  501  503 -0.00000000000E+00 -0.00000000000E+00 -0.65627473034E+03  0.65627473034E+03  0.00000000000E+00 0.  1.
          6    1    1    2  501    0  0.14714056479E+03  0.88036564506E+02 -0.51978214669E+03  0.57372315843E+03  0.17200000000E+03 0.  1.
         -6    1    1    2    0  502 -0.14714056479E+03 -0.88036564506E+02  0.25119228537E+02  0.24416338411E+03  0.17200000000E+03 0.  1.
<mgrwt>
<rscale>  2 0.24286783E+03</rscale>
<asrwt>0</asrwt>
<pdfrwt beam="1">  1       21 0.40402954E-01 0.24286783E+03</pdfrwt>
<pdfrwt beam="2">  1       21 0.16406868E+00 0.24286783E+03</pdfrwt>
<totfact> 0.13243926E+03</totfact>
</mgrwt>
</event>
<event>
 4    1  0.1132373E+000  0.1854048E+03  0.7546771E-02  0.1162672E+00
         21   -1    0    0  501  502  0.00000000000E+00  0.00000000000E+00  0.38820793513E+03  0.38820793513E+03  0.00000000000E+00 0. -1.
         21   -1    0    0  502  503 -0.00000000000E+00 -0.00000000000E+00 -0.32681369719E+03  0.32681369719E+03  0.00000000000E+00 0. -1.
          6    1    1    2  501    0 -0.42349461544E+02 -0.54749154595E+02  0.33595721141E+03  0.38372150672E+03  0.17200000000E+03 0. -1.
         -6    1    1    2    0  503  0.42349461544E+02  0.54749154595E+02 -0.27456297347E+03  0.33130012560E+03  0.17200000000E+03 0. -1.
<mgrwt>
<rscale>  2 0.18540482E+03</rscale>
<asrwt>0</asrwt>
<pdfrwt beam="1">  1       21 0.97051984E-01 0.18540482E+03</pdfrwt>
<pdfrwt beam="2">  1       21 0.81703424E-01 0.18540482E+03</pdfrwt>
<totfact> 0.11637127E+03</totfact>
</mgrwt>
</event>
<event>
 4    1  0.1132373E+000  0.1837003E+03  0.7546771E-02  0.1164269E+00
         21   -1    0    0  503  502  0.00000000000E+00  0.00000000000E+00  0.59311713348E+03  0.59311713348E+03  0.00000000000E+00 0. -1.
         21   -1    0    0  501  503 -0.00000000000E+00 -0.00000000000E+00 -0.62836454907E+02  0.62836454907E+02  0.00000000000E+00 0. -1.
          6    1    1    2  501    0 -0.33283829791E+00  0.64511040984E+02  0.36598662387E+03  0.40950212948E+03  0.17200000000E+03 0. -1.
         -6    1    1    2    0  502  0.33283829791E+00 -0.64511040984E+02  0.16429405470E+03  0.24645145891E+03  0.17200000000E+03 0. -1.
<mgrwt>
<rscale>  2 0.18370026E+03</rscale>
<asrwt>0</asrwt>
<pdfrwt beam="1">  1       21 0.14827927E+00 0.18370026E+03</pdfrwt>
<pdfrwt beam="2">  1       21 0.15709116E-01 0.18370026E+03</pdfrwt>
<totfact> 0.11184048E+04</totfact>
</mgrwt>
</event>
<event>
 4    1  0.1132373E+000  0.1774303E+03  0.7546771E-02  0.1170313E+00
         21   -1    0    0  501  502  0.00000000000E+00  0.00000000000E+00  0.36516261687E+03  0.36516261687E+03  0.00000000000E+00 0.  1.
         21   -1    0    0  502  503 -0.00000000000E+00 -0.00000000000E+00 -0.15172726493E+03  0.15172726493E+03  0.00000000000E+00 0. -1.
          6    1    1    2  501    0 -0.16144185529E+02  0.40458431141E+02  0.27654453742E+03  0.32857023686E+03  0.17200000000E+03 0.  1.
         -6    1    1    2    0  503  0.16144185529E+02 -0.40458431141E+02 -0.63109185480E+02  0.18831964494E+03  0.17200000000E+03 0. -1.
<mgrwt>
<rscale>  2 0.17743032E+03</rscale>
<asrwt>0</asrwt>
<pdfrwt beam="1">  1       21 0.91290653E-01 0.17743032E+03</pdfrwt>
<pdfrwt beam="2">  1       21 0.37931817E-01 0.17743032E+03</pdfrwt>
<totfact> 0.68924914E+03</totfact>
</mgrwt>
</event>
<event>
 4    1  0.1132373E+000  0.1860936E+03  0.7546771E-02  0.1162033E+00
         21   -1    0    0  503  502  0.00000000000E+00  0.00000000000E+00  0.66870323201E+02  0.66870323201E+02  0.00000000000E+00 0. -1.
         21   -1    0    0  501  503 -0.00000000000E+00 -0.00000000000E+00 -0.60306906597E+03  0.60306906597E+03  0.00000000000E+00 0. -1.
          6    1    1    2  501    0  0.70280004375E+02  0.10371157260E+02 -0.39399553941E+03  0.43573308916E+03  0.17200000000E+03 0. -1.
         -6    1    1    2    0  502 -0.70280004375E+02 -0.10371157260E+02 -0.14220320336E+03  0.23420630001E+03  0.17200000000E+03 0. -1.
<mgrwt>
<rscale>  2 0.18609363E+03</rscale>
<asrwt>0</asrwt>
<pdfrwt beam="1">  1       21 0.16717581E-01 0.18609363E+03</pdfrwt>
<pdfrwt beam="2">  1       21 0.15076726E+00 0.18609363E+03</pdfrwt>
<totfact> 0.95360146E+03</totfact>
</mgrwt>
</event>
<event>
 4    1  0.1132373E+000  0.1885621E+03  0.7546771E-02  0.1159765E+00
         21   -1    0    0  501  502  0.00000000000E+00  0.00000000000E+00  0.10578584278E+03  0.10578584278E+03  0.00000000000E+00 0.  1.
         21   -1    0    0  502  503 -0.00000000000E+00 -0.00000000000E+00 -0.33761196504E+03  0.33761196504E+03  0.00000000000E+00 0.  1.
          6    1    1    2  501    0  0.74297116031E+02  0.21250829283E+02 -0.13070116352E+03  0.22943071578E+03  0.17200000000E+03 0.  1.
         -6    1    1    2    0  503 -0.74297116031E+02 -0.21250829283E+02 -0.10112495874E+03  0.21396709204E+03  0.17200000000E+03 0.  1.
<mgrwt>
<rscale>  2 0.18856208E+03</rscale>
<asrwt>0</asrwt>
<pdfrwt beam="1">  1       21 0.26446461E-01 0.18856208E+03</pdfrwt>
<pdfrwt beam="2">  1       21 0.84402991E-01 0.18856208E+03</pdfrwt>
<totfact> 0.16603977E+04</totfact>
</mgrwt>
</event>
<event>
 4    1  0.1132373E+000  0.3913335E+03  0.7546771E-02  0.1046823E+00
         21   -1    0    0  503  502  0.00000000000E+00  0.00000000000E+00  0.10834009533E+04  0.10834009533E+04  0.00000000000E+00 0.  1.
         21   -1    0    0  501  503 -0.00000000000E+00 -0.00000000000E+00 -0.15066196595E+03  0.15066196595E+03  0.00000000000E+00 0. -1.
          6    1    1    2  501    0 -0.85023798713E+02  0.34107012810E+03  0.31299318302E+03  0.50110538936E+03  0.17200000000E+03 0.  1.
         -6    1    1    2    0  502  0.85023798713E+02 -0.34107012810E+03  0.61974580432E+03  0.73295752988E+03  0.17200000000E+03 0. -1.
<mgrwt>
<rscale>  2 0.39133346E+03</rscale>
<asrwt>0</asrwt>
<pdfrwt beam="1">  1       21 0.27085022E+00 0.39133346E+03</pdfrwt>
<pdfrwt beam="2">  1       21 0.37665495E-01 0.39133346E+03</pdfrwt>
<totfact> 0.28192297E+02</totfact>
</mgrwt>
</event>
<event>
 4    1  0.1132373E+000  0.1994714E+03  0.7546771E-02  0.1150186E+00
         21   -1    0    0  501  502  0.00000000000E+00  0.00000000000E+00  0.17460211360E+03  0.17460211360E+03  0.00000000000E+00 0. -1.
         21   -1    0    0  502  503 -0.00000000000E+00 -0.00000000000E+00 -0.23848417234E+03  0.23848417234E+03  0.00000000000E+00 0.  1.
          6    1    1    2  501    0  0.19791586942E+02  0.99061235382E+02 -0.75488213872E+02  0.21327753211E+03  0.17200000000E+03 0.  1.
         -6    1    1    2    0  503 -0.19791586942E+02 -0.99061235382E+02  0.11606155127E+02  0.19980875383E+03  0.17200000000E+03 0. -1.
<mgrwt>
<rscale>  2 0.19947139E+03</rscale>
<asrwt>0</asrwt>
<pdfrwt beam="1">  1       21 0.43650529E-01 0.19947139E+03</pdfrwt>
<pdfrwt beam="2">  1       21 0.59621043E-01 0.19947139E+03</pdfrwt>
<totfact> 0.13189177E+04</totfact>
</mgrwt>
</event>
<event>
 4    1  0.1132373E+000  0.2689873E+03  0.7546771E-02  0.1101861E+00
         21   -1    0    0  501  502  0.00000000000E+00  0.00000000000E+00  0.32317346214E+03  0.32317346214E+03  0.00000000000E+00 0. -1.
         21   -1    0    0  502  503 -0.00000000000E+00 -0.00000000000E+00 -0.32031384860E+03  0.32031384860E+03  0.00000000000E+00 0. -1.
          6    1    1    2  501    0 -0.19897893996E+03  0.56369658429E+02 -0.17510175957E+03  0.32095916118E+03  0.17200000000E+03 0. -1.
         -6    1    1    2    0  503  0.19897893996E+03 -0.56369658429E+02  0.17796137311E+03  0.32252814956E+03  0.17200000000E+03 0. -1.
<mgrwt>
<rscale>  2 0.26898728E+03</rscale>
<asrwt>0</asrwt>
<pdfrwt beam="1">  1       21 0.80793365E-01 0.26898728E+03</pdfrwt>
<pdfrwt beam="2">  1       21 0.80078462E-01 0.26898728E+03</pdfrwt>
<totfact> 0.17371818E+03</totfact>
</mgrwt>
</event>
<event>
 4    1  0.1132373E+000  0.2037994E+03  0.7546771E-02  0.1146572E+00
         21   -1    0    0  501  502  0.00000000000E+00  0.00000000000E+00  0.52374488396E+03  0.52374488396E+03  0.00000000000E+00 0.  1.
         21   -1    0    0  502  503 -0.00000000000E+00 -0.00000000000E+00 -0.12289024353E+03  0.12289024353E+03  0.00000000000E+00 0.  1.
          6    1    1    2  501    0  0.25963937513E+02  0.10618890994E+03  0.39298171516E+03  0.44268367837E+03  0.17200000000E+03 0.  1.
         -6    1    1    2    0  503 -0.25963937513E+02 -0.10618890994E+03  0.78729252671E+01  0.20395144912E+03  0.17200000000E+03 0.  1.
<mgrwt>
<rscale>  2 0.20379944E+03</rscale>
<asrwt>0</asrwt>
<pdfrwt beam="1">  1       21 0.13093622E+00 0.20379944E+03</pdfrwt>
<pdfrwt beam="2">  1       21 0.30722562E-01 0.20379944E+03</pdfrwt>
<totfact> 0.42782231E+03</totfact>
</mgrwt>
</event>
<event>
 4    1  0.1132373E+000  0.2232751E+03  0.7546771E-02  0.1131465E+00
         21   -1    0    0  501  502  0.00000000000E+00  0.00000000000E+00  0.11058798511E+03  0.11058798511E+03  0.00000000000E+00 0.  1.
         21   -1    0    0  502  503 -0.00000000000E+00 -0.00000000000E+00 -0.45087030516E+03  0.45087030516E+03  0.00000000000E+00 0.  1.
          6    1    1    2  501    0 -0.53669743240E+02  0.13186104863E+03 -0.16635674802E+03  0.27843553131E+03  0.17200000000E+03 0.  1.
         -6    1    1    2    0  503  0.53669743240E+02 -0.13186104863E+03 -0.17392557203E+03  0.28302275896E+03  0.17200000000E+03 0.  1.
<mgrwt>
<rscale>  2 0.22327512E+03</rscale>
<asrwt>0</asrwt>
<pdfrwt beam="1">  1       21 0.27646997E-01 0.22327512E+03</pdfrwt>
<pdfrwt beam="2">  1       21 0.11271757E+00 0.22327512E+03</pdfrwt>
<totfact> 0.75184150E+03</totfact>
</mgrwt>
</event>
<event>
 4    1  0.1132373E+000  0.1887648E+03  0.7546771E-02  0.1159580E+00
         21   -1    0    0  501  502  0.00000000000E+00  0.00000000000E+00  0.23735770849E+03  0.23735770849E+03  0.00000000000E+00 0. -1.
         21   -1    0    0  502  503 -0.00000000000E+00 -0.00000000000E+00 -0.16552930640E+03  0.16552930640E+03  0.00000000000E+00 0. -1.
          6    1    1    2  501    0  0.61182246354E+02 -0.48009256352E+02  0.97376156985E+02  0.21240120507E+03  0.17200000000E+03 0. -1.
         -6    1    1    2    0  503 -0.61182246354E+02  0.48009256352E+02 -0.25547754900E+02  0.19048580983E+03  0.17200000000E+03 0. -1.
<mgrwt>
<rscale>  2 0.18876482E+03</rscale>
<asrwt>0</asrwt>
<pdfrwt beam="1">  1       21 0.59339427E-01 0.18876482E+03</pdfrwt>
<pdfrwt beam="2">  1       21 0.41382327E-01 0.18876482E+03</pdfrwt>
<totfact> 0.14957339E+04</totfact>
</mgrwt>
</event>
<event>
 4    1  0.1132373E+000  0.2532783E+03  0.7546771E-02  0.1111250E+00
         21   -1    0    0  501  502  0.00000000000E+00  0.00000000000E+00  0.12754843297E+03  0.12754843297E+03  0.00000000000E+00 0. -1.
         21   -1    0    0  502  503 -0.00000000000E+00 -0.00000000000E+00 -0.63892011644E+03  0.63892011644E+03  0.00000000000E+00 0. -1.
          6    1    1    2  501    0  0.14622920336E+03  0.11481678160E+03 -0.78890650317E+02  0.26528024420E+03  0.17200000000E+03 0. -1.
         -6    1    1    2    0  503 -0.14622920336E+03 -0.11481678160E+03 -0.43248103315E+03  0.50118830522E+03  0.17200000000E+03 0. -1.
<mgrwt>
<rscale>  2 0.25327825E+03</rscale>
<asrwt>0</asrwt>
<pdfrwt beam="1">  1       21 0.31887109E-01 0.25327825E+03</pdfrwt>
<pdfrwt beam="2">  1       21 0.15973003E+00 0.25327825E+03</pdfrwt>
<totfact> 0.22715476E+03</totfact>
</mgrwt>
</event>
<event>
 4    1  0.1132373E+000  0.2385803E+03  0.7546771E-02  0.1120742E+00
         21   -1    0    0  501  502  0.00000000000E+00  0.00000000000E+00  0.37135583551E+03  0.37135583551E+03  0.00000000000E+00 0. -1.
         21   -1    0    0  502  503 -0.00000000000E+00 -0.00000000000E+00 -0.29151533833E+03  0.29151533833E+03  0.00000000000E+00 0.  1.
          6    1    1    2  501    0  0.10782453480E+03  0.12534124309E+03  0.26815492617E+03  0.35892564962E+03  0.17200000000E+03 0. -1.
         -6    1    1    2    0  503 -0.10782453480E+03 -0.12534124309E+03 -0.18831442900E+03  0.30394552422E+03  0.17200000000E+03 0.  1.
<mgrwt>
<rscale>  2 0.23858030E+03</rscale>
<asrwt>0</asrwt>
<pdfrwt beam="1">  1       21 0.92838959E-01 0.23858030E+03</pdfrwt>
<pdfrwt beam="2">  1       21 0.72878835E-01 0.23858030E+03</pdfrwt>
<totfact> 0.15922308E+03</totfact>
</mgrwt>
</event>
<event>
 4    1  0.1132373E+000  0.2515611E+03  0.7546771E-02  0.1112322E+00
         21   -1    0    0  501  502  0.00000000000E+00  0.00000000000E+00  0.19531135570E+03  0.19531135570E+03  0.00000000000E+00 0.  1.
         21   -1    0    0  502  503 -0.00000000000E+00 -0.00000000000E+00 -0.33579774357E+03  0.33579774357E+03  0.00000000000E+00 0.  1.
          6    1    1    2  501    0 -0.16830621369E+03  0.73293994270E+02 -0.11999572972E+03  0.27871484767E+03  0.17200000000E+03 0.  1.
         -6    1    1    2    0  503  0.16830621369E+03 -0.73293994270E+02 -0.20490658150E+02  0.25239425159E+03  0.17200000000E+03 0.  1.
<mgrwt>
<rscale>  2 0.25156111E+03</rscale>
<asrwt>0</asrwt>
<pdfrwt beam="1">  1       21 0.48827839E-01 0.25156111E+03</pdfrwt>
<pdfrwt beam="2">  1       21 0.83949435E-01 0.25156111E+03</pdfrwt>
<totfact> 0.47332647E+03</totfact>
</mgrwt>
</event>
<event>
 4    1  0.1132373E+000  0.1860462E+03  0.7546771E-02  0.1162076E+00
         21   -1    0    0  501  502  0.00000000000E+00  0.00000000000E+00  0.18667798319E+03  0.18667798319E+03  0.00000000000E+00 0. -1.
         21   -1    0    0  502  503 -0.00000000000E+00 -0.00000000000E+00 -0.24753640244E+03  0.24753640244E+03  0.00000000000E+00 0. -1.
          6    1    1    2  501    0 -0.33332549425E+02 -0.62595071351E+02  0.78330894893E+02  0.20186364433E+03  0.17200000000E+03 0.  1.
         -6    1    1    2    0  503  0.33332549425E+02  0.62595071351E+02 -0.13918931414E+03  0.23235074129E+03  0.17200000000E+03 0.  1.
<mgrwt>
<rscale>  2 0.18604624E+03</rscale>
<asrwt>0</asrwt>
<pdfrwt beam="1">  1       21 0.46669496E-01 0.18604624E+03</pdfrwt>
<pdfrwt beam="2">  1       21 0.61884100E-01 0.18604624E+03</pdfrwt>
<totfact> 0.10705847E+04</totfact>
</mgrwt>
</event>
<event>
 4    1  0.1132373E+000  0.1788770E+03  0.7546771E-02  0.1168894E+00
         21   -1    0    0  501  502  0.00000000000E+00  0.00000000000E+00  0.34559295207E+03  0.34559295207E+03  0.00000000000E+00 0.  1.
         21   -1    0    0  502  503 -0.00000000000E+00 -0.00000000000E+00 -0.30124126190E+03  0.30124126190E+03  0.00000000000E+00 0.  1.
          6    1    1    2  501    0 -0.30946972876E+02 -0.38147822743E+02  0.29134216900E+03  0.34187312113E+03  0.17200000000E+03 0.  1.
         -6    1    1    2    0  503  0.30946972876E+02  0.38147822743E+02 -0.24699047883E+03  0.30496109284E+03  0.17200000000E+03 0.  1.
<mgrwt>
<rscale>  2 0.17887697E+03</rscale>
<asrwt>0</asrwt>
<pdfrwt beam="1">  1       21 0.86398238E-01 0.17887697E+03</pdfrwt>
<pdfrwt beam="2">  1       21 0.75310316E-01 0.17887697E+03</pdfrwt>
<totfact> 0.18421781E+03</totfact>
</mgrwt>
</event>
<event>
 4    1  0.1132373E+000  0.2904950E+03  0.7546771E-02  0.1090091E+00
         21   -1    0    0  503  502  0.00000000000E+00  0.00000000000E+00  0.36678336990E+03  0.36678336990E+03  0.00000000000E+00 0.  1.
         21   -1    0    0  501  503 -0.00000000000E+00 -0.00000000000E+00 -0.23604933321E+03  0.23604933321E+03  0.00000000000E+00 0.  1.
          6    1    1    2  501    0  0.21970419221E+03 -0.80829470463E+02  0.11332320792E+03  0.31181642809E+03  0.17200000000E+03 0.  1.
         -6    1    1    2    0  502 -0.21970419221E+03  0.80829470463E+02  0.17410828765E+02  0.29101627503E+03  0.17200000000E+03 0.  1.
<mgrwt>
<rscale>  2 0.29049498E+03</rscale>
<asrwt>0</asrwt>
<pdfrwt beam="1">  1       21 0.91695842E-01 0.29049498E+03</pdfrwt>
<pdfrwt beam="2">  1       21 0.59012334E-01 0.29049498E+03</pdfrwt>
<totfact> 0.25171800E+03</totfact>
</mgrwt>
</event>
<event>
 4    1  0.1132373E+000  0.1861689E+03  0.7546771E-02  0.1161963E+00
         21   -1    0    0  503  502  0.00000000000E+00  0.00000000000E+00  0.12676000540E+03  0.12676000540E+03  0.00000000000E+00 0. -1.
         21   -1    0    0  501  503 -0.00000000000E+00 -0.00000000000E+00 -0.37033762365E+03  0.37033762365E+03  0.00000000000E+00 0. -1.
          6    1    1    2  501    0 -0.25997857473E+02 -0.66324655020E+02 -0.24893750154E+03  0.31085161754E+03  0.17200000000E+03 0. -1.
         -6    1    1    2    0  502  0.25997857473E+02  0.66324655020E+02  0.53598832840E+01  0.18624601152E+03  0.17200000000E+03 0. -1.
<mgrwt>
<rscale>  2 0.18616887E+03</rscale>
<asrwt>0</asrwt>
<pdfrwt beam="1">  1       21 0.31690002E-01 0.18616887E+03</pdfrwt>
<pdfrwt beam="2">  1       21 0.92584405E-01 0.18616887E+03</pdfrwt>
<totfact> 0.94612576E+03</totfact>
</mgrwt>
</event>
<event>
 4    1  0.1132373E+000  0.1796124E+03  0.7546771E-02  0.1168179E+00
         21   -1    0    0  501  502  0.00000000000E+00  0.00000000000E+00  0.12531442332E+04  0.12531442332E+04  0.00000000000E+00 0. -1.
         21   -1    0    0  502  503 -0.00000000000E+00 -0.00000000000E+00 -0.35710931049E+02  0.35710931049E+02  0.00000000000E+00 0. -1.
          6    1    1    2  501    0 -0.48925371526E+02  0.16819885887E+02  0.94917207050E+03  0.96601667685E+03  0.17200000000E+03 0. -1.
         -6    1    1    2    0  503  0.48925371526E+02 -0.16819885887E+02  0.26826123167E+03  0.32283848742E+03  0.17200000000E+03 0. -1.
<mgrwt>
<rscale>  2 0.17961236E+03</rscale>
<asrwt>0</asrwt>
<pdfrwt beam="1">  1       21 0.31328591E+00 0.17961236E+03</pdfrwt>
<pdfrwt beam="2">  1       21 0.89277369E-02 0.17961236E+03</pdfrwt>
<totfact> 0.28838996E+03</totfact>
</mgrwt>
</event>
<event>
 4    1  0.1132373E+000  0.1948391E+03  0.7546771E-02  0.1154168E+00
         21   -1    0    0  501  502  0.00000000000E+00  0.00000000000E+00  0.86060008004E+02  0.86060008004E+02  0.00000000000E+00 0. -1.
         21   -1    0    0  502  503 -0.00000000000E+00 -0.00000000000E+00 -0.45734566608E+03  0.45734566608E+03  0.00000000000E+00 0. -1.
          6    1    1    2  501    0  0.76851133269E+01 -0.91209664622E+02 -0.23682928590E+03  0.30667633516E+03  0.17200000000E+03 0. -1.
         -6    1    1    2    0  503 -0.76851133269E+01  0.91209664622E+02 -0.13445637217E+03  0.23672933892E+03  0.17200000000E+03 0. -1.
<mgrwt>
<rscale>  2 0.19483907E+03</rscale>
<asrwt>0</asrwt>
<pdfrwt beam="1">  1       21 0.21515002E-01 0.19483907E+03</pdfrwt>
<pdfrwt beam="2">  1       21 0.11433641E+00 0.19483907E+03</pdfrwt>
<totfact> 0.11951564E+04</totfact>
</mgrwt>
</event>
<event>
 4    1  0.1132373E+000  0.1932541E+03  0.7546771E-02  0.1155559E+00
         21   -1    0    0  501  502  0.00000000000E+00  0.00000000000E+00  0.11951773112E+03  0.11951773112E+03  0.00000000000E+00 0. -1.
         21   -1    0    0  502  503 -0.00000000000E+00 -0.00000000000E+00 -0.65163952034E+03  0.65163952034E+03  0.00000000000E+00 0. -1.
          6    1    1    2  501    0 -0.88097440162E+02 -0.14154773463E+01  0.12108821019E+02  0.19363312239E+03  0.17200000000E+03 0. -1.
         -6    1    1    2    0  503  0.88097440162E+02  0.14154773463E+01 -0.54423061024E+03  0.57752412907E+03  0.17200000000E+03 0. -1.
<mgrwt>
<rscale>  2 0.19325414E+03</rscale>
<asrwt>0</asrwt>
<pdfrwt beam="1">  1       21 0.29879433E-01 0.19325414E+03</pdfrwt>
<pdfrwt beam="2">  1       21 0.16290988E+00 0.19325414E+03</pdfrwt>
<totfact> 0.25732668E+03</totfact>
</mgrwt>
</event>
<event>
 4    1  0.1132373E+000  0.2008358E+03  0.7546771E-02  0.1149036E+00
         21   -1    0    0  503  502  0.00000000000E+00  0.00000000000E+00  0.10849092223E+03  0.10849092223E+03  0.00000000000E+00 0.  1.
         21   -1    0    0  501  503 -0.00000000000E+00 -0.00000000000E+00 -0.41449648154E+03  0.41449648154E+03  0.00000000000E+00 0. -1.
          6    1    1    2  501    0 -0.76810981846E+02  0.69649867811E+02 -0.23694599795E+03  0.31060978246E+03  0.17200000000E+03 0. -1.
         -6    1    1    2    0  502  0.76810981846E+02 -0.69649867811E+02 -0.69059561363E+02  0.21237762131E+03  0.17200000000E+03 0.  1.
<mgrwt>
<rscale>  2 0.20083583E+03</rscale>
<asrwt>0</asrwt>
<pdfrwt beam="1">  1       21 0.27122731E-01 0.20083583E+03</pdfrwt>
<pdfrwt beam="2">  1       21 0.10362412E+00 0.20083583E+03</pdfrwt>
<totfact> 0.97129409E+03</totfact>
</mgrwt>
</event>
<event>
 4    1  0.1132373E+000  0.2198482E+03  0.7546771E-02  0.1133996E+00
         21   -1    0    0  501  502  0.00000000000E+00  0.00000000000E+00  0.40821049271E+03  0.40821049271E+03  0.00000000000E+00 0. -1.
         21   -1    0    0  502  503 -0.00000000000E+00 -0.00000000000E+00 -0.12185941921E+03  0.12185941921E+03  0.00000000000E+00 0.  1.
          6    1    1    2  501    0 -0.27542041081E+02 -0.13412928535E+03  0.18781355777E+03  0.28914903026E+03  0.17200000000E+03 0. -1.
         -6    1    1    2    0  503  0.27542041081E+02  0.13412928535E+03  0.98537515737E+02  0.24092088167E+03  0.17200000000E+03 0.  1.
<mgrwt>
<rscale>  2 0.21984820E+03</rscale>
<asrwt>0</asrwt>
<pdfrwt beam="1">  1       21 0.10205262E+00 0.21984820E+03</pdfrwt>
<pdfrwt beam="2">  1       21 0.30464856E-01 0.21984820E+03</pdfrwt>
<totfact> 0.79336837E+03</totfact>
</mgrwt>
</event>
<event>
 4    1  0.1132373E+000  0.2259497E+03  0.7546771E-02  0.1129523E+00
         21   -1    0    0  501  502  0.00000000000E+00  0.00000000000E+00  0.15841511134E+03  0.15841511134E+03  0.00000000000E+00 0. -1.
         21   -1    0    0  502  503 -0.00000000000E+00 -0.00000000000E+00 -0.57766117585E+03  0.57766117585E+03  0.00000000000E+00 0. -1.
          6    1    1    2  501    0 -0.92276516081E+02  0.11381697493E+03  0.35088692109E+02  0.22865798809E+03  0.17200000000E+03 0. -1.
         -6    1    1    2    0  503  0.92276516081E+02 -0.11381697493E+03 -0.45433475661E+03  0.50741829910E+03  0.17200000000E+03 0. -1.
<mgrwt>
<rscale>  2 0.22594968E+03</rscale>
<asrwt>0</asrwt>
<pdfrwt beam="1">  1       21 0.39603778E-01 0.22594968E+03</pdfrwt>
<pdfrwt beam="2">  1       21 0.14441529E+00 0.22594968E+03</pdfrwt>
<totfact> 0.19688996E+03</totfact>
</mgrwt>
</event>
<event>
 4    1  0.1132373E+000  0.1780880E+03  0.7546771E-02  0.1169666E+00
         21   -1    0    0  503  502  0.00000000000E+00  0.00000000000E+00  0.12698080356E+03  0.12698080356E+03  0.00000000000E+00 0. -1.
         21   -1    0    0  501  503 -0.00000000000E+00 -0.00000000000E+00 -0.38757767676E+03  0.38757767676E+03  0.00000000000E+00 0. -1.
          6    1    1    2  501    0 -0.12118047012E+02 -0.44547474268E+02 -0.28371434506E+03  0.33497634860E+03  0.17200000000E+03 0. -1.
         -6    1    1    2    0  502  0.12118047012E+02  0.44547474268E+02  0.23117471857E+02  0.17958213172E+03  0.17200000000E+03 0. -1.
<mgrwt>
<rscale>  2 0.17808797E+03</rscale>
<asrwt>0</asrwt>
<pdfrwt beam="1">  1       21 0.31745201E-01 0.17808797E+03</pdfrwt>
<pdfrwt beam="2">  1       21 0.96894418E-01 0.17808797E+03</pdfrwt>
<totfact> 0.85287400E+03</totfact>
</mgrwt>
</event>
<event>
 4    1  0.1132373E+000  0.2000463E+03  0.7546771E-02  0.1149700E+00
         21   -1    0    0  503  502  0.00000000000E+00  0.00000000000E+00  0.96452281976E+02  0.96452281976E+02  0.00000000000E+00 0. -1.
         21   -1    0    0  501  503 -0.00000000000E+00 -0.00000000000E+00 -0.41578518725E+03  0.41578518725E+03  0.00000000000E+00 0. -1.
          6    1    1    2  501    0 -0.74430183533E+02  0.69962037262E+02 -0.14788274290E+03  0.24877267641E+03  0.17200000000E+03 0.  1.
         -6    1    1    2    0  502  0.74430183533E+02 -0.69962037262E+02 -0.17145016238E+03  0.26346479282E+03  0.17200000000E+03 0.  1.
<mgrwt>
<rscale>  2 0.20004634E+03</rscale>
<asrwt>0</asrwt>
<pdfrwt beam="1">  1       21 0.24113071E-01 0.20004634E+03</pdfrwt>
<pdfrwt beam="2">  1       21 0.10394629E+00 0.20004634E+03</pdfrwt>
<totfact> 0.12083769E+04</totfact>
</mgrwt>
</event>
<event>
 4    1  0.1132373E+000  0.2230333E+03  0.7546771E-02  0.1131642E+00
         21   -1    0    0  501  502  0.00000000000E+00  0.00000000000E+00  0.41902891436E+03  0.41902891436E+03  0.00000000000E+00 0.  1.
         21   -1    0    0  502  503 -0.00000000000E+00 -0.00000000000E+00 -0.12655552172E+03  0.12655552172E+03  0.00000000000E+00 0.  1.
          6    1    1    2  501    0 -0.29143436129E+02  0.13896233525E+03  0.21414763156E+03  0.30919747507E+03  0.17200000000E+03 0.  1.
         -6    1    1    2    0  503  0.29143436129E+02 -0.13896233525E+03  0.78325761083E+02  0.23638696101E+03  0.17200000000E+03 0.  1.
<mgrwt>
<rscale>  2 0.22303334E+03</rscale>
<asrwt>0</asrwt>
<pdfrwt beam="1">  1       21 0.10475723E+00 0.22303334E+03</pdfrwt>
<pdfrwt beam="2">  1       21 0.31638881E-01 0.22303334E+03</pdfrwt>
<totfact> 0.69021396E+03</totfact>
</mgrwt>
</event>
<event>
 4    1  0.1132373E+000  0.2157096E+03  0.7546771E-02  0.1137123E+00
         21   -1    0    0  501  502  0.00000000000E+00  0.00000000000E+00  0.29178336015E+03  0.29178336015E+03  0.00000000000E+00 0. -1.
         21   -1    0    0  502  503 -0.00000000000E+00 -0.00000000000E+00 -0.62320337554E+03  0.62320337554E+03  0.00000000000E+00 0. -1.
          6    1    1    2  501    0 -0.75746027185E+02 -0.10587330770E+03  0.22893280757E+03  0.31454864219E+03  0.17200000000E+03 0. -1.
         -6    1    1    2    0  503  0.75746027185E+02  0.10587330770E+03 -0.56035282297E+03  0.60043809350E+03  0.17200000000E+03 0. -1.
<mgrwt>
<rscale>  2 0.21570957E+03</rscale>
<asrwt>0</asrwt>
<pdfrwt beam="1">  1       21 0.72945840E-01 0.21570957E+03</pdfrwt>
<pdfrwt beam="2">  1       21 0.15580084E+00 0.21570957E+03</pdfrwt>
<totfact> 0.44558785E+02</totfact>
</mgrwt>
</event>
<event>
 4    1  0.1132373E+000  0.2175715E+03  0.7546771E-02  0.1135707E+00
         21   -1    0    0  503  502  0.00000000000E+00  0.00000000000E+00  0.54463982020E+03  0.54463982020E+03  0.00000000000E+00 0.  1.
         21   -1    0    0  501  503 -0.00000000000E+00 -0.00000000000E+00 -0.87990040445E+02  0.87990040445E+02  0.00000000000E+00 0.  1.
          6    1    1    2  501    0 -0.92751128500E+02  0.95658669626E+02  0.19336084561E+03  0.29107691342E+03  0.17200000000E+03 0.  1.
         -6    1    1    2    0  502  0.92751128500E+02 -0.95658669626E+02  0.26328893415E+03  0.34155294722E+03  0.17200000000E+03 0.  1.
<mgrwt>
<rscale>  2 0.21757149E+03</rscale>
<asrwt>0</asrwt>
<pdfrwt beam="1">  1       21 0.13615995E+00 0.21757149E+03</pdfrwt>
<pdfrwt beam="2">  1       21 0.21997512E-01 0.21757149E+03</pdfrwt>
<totfact> 0.72829178E+03</totfact>
</mgrwt>
</event>
<event>
 4    1  0.1132373E+000  0.3038295E+03  0.7546771E-02  0.1083342E+00
         21   -1    0    0  503  502  0.00000000000E+00  0.00000000000E+00  0.13445596296E+03  0.13445596296E+03  0.00000000000E+00 0. -1.
         21   -1    0    0  501  503 -0.00000000000E+00 -0.00000000000E+00 -0.97974010303E+03  0.97974010303E+03  0.00000000000E+00 0.  1.
          6    1    1    2  501    0 -0.78902445418E+02  0.23770309081E+03 -0.72739082876E+03  0.78829548586E+03  0.17200000000E+03 0.  1.
         -6    1    1    2    0  502  0.78902445418E+02 -0.23770309081E+03 -0.11789331131E+03  0.32590058012E+03  0.17200000000E+03 0. -1.
<mgrwt>
<rscale>  2 0.30382948E+03</rscale>
<asrwt>0</asrwt>
<pdfrwt beam="1">  1       21 0.33613992E-01 0.30382948E+03</pdfrwt>
<pdfrwt beam="2">  1       21 0.24493502E+00 0.30382948E+03</pdfrwt>
<totfact> 0.54190997E+02</totfact>
</mgrwt>
</event>
<event>
 4    1  0.1132373E+000  0.2135827E+03  0.7546771E-02  0.1138760E+00
         21   -1    0    0  503  502  0.00000000000E+00  0.00000000000E+00  0.31239576702E+03  0.31239576702E+03  0.00000000000E+00 0.  1.
         21   -1    0    0  501  503 -0.00000000000E+00 -0.00000000000E+00 -0.32289980475E+03  0.32289980475E+03  0.00000000000E+00 0.  1.
          6    1    1    2  501    0  0.41281421202E+02 -0.11970552414E+03 -0.24034790028E+03  0.32153488367E+03  0.17200000000E+03 0.  1.
         -6    1    1    2    0  502 -0.41281421202E+02  0.11970552414E+03  0.22984386255E+03  0.31376068810E+03  0.17200000000E+03 0.  1.
<mgrwt>
<rscale>  2 0.21358270E+03</rscale>
<asrwt>0</asrwt>
<pdfrwt beam="1">  1       21 0.78098942E-01 0.21358270E+03</pdfrwt>
<pdfrwt beam="2">  1       21 0.80724951E-01 0.21358270E+03</pdfrwt>
<totfact> 0.19207129E+03</totfact>
</mgrwt>
</event>
<event>
 4    1  0.1132373E+000  0.1908908E+03  0.7546771E-02  0.1157660E+00
         21   -1    0    0  503  502  0.00000000000E+00  0.00000000000E+00  0.13605905312E+03  0.13605905312E+03  0.00000000000E+00 0. -1.
         21   -1    0    0  501  503 -0.00000000000E+00 -0.00000000000E+00 -0.28204510933E+03  0.28204510933E+03  0.00000000000E+00 0. -1.
          6    1    1    2  501    0 -0.79313777116E+02  0.23761623434E+02 -0.11994222128E+03  0.22544495211E+03  0.17200000000E+03 0. -1.
         -6    1    1    2    0  502  0.79313777116E+02 -0.23761623434E+02 -0.26043834934E+02  0.19265921033E+03  0.17200000000E+03 0. -1.
<mgrwt>
<rscale>  2 0.19089078E+03</rscale>
<asrwt>0</asrwt>
<pdfrwt beam="1">  1       21 0.34014764E-01 0.19089078E+03</pdfrwt>
<pdfrwt beam="2">  1       21 0.70511277E-01 0.19089078E+03</pdfrwt>
<totfact> 0.15201692E+04</totfact>
</mgrwt>
</event>
<event>
 4    1  0.1132373E+000  0.1872967E+03  0.7546771E-02  0.1160922E+00
         21   -1    0    0  503  502  0.00000000000E+00  0.00000000000E+00  0.96786644403E+02  0.96786644403E+02  0.00000000000E+00 0.  1.
         21   -1    0    0  501  503 -0.00000000000E+00 -0.00000000000E+00 -0.40472278679E+03  0.40472278679E+03  0.00000000000E+00 0.  1.
          6    1    1    2  501    0 -0.73507975995E+02 -0.96242999104E+01 -0.23501098128E+03  0.30051657360E+03  0.17200000000E+03 0.  1.
         -6    1    1    2    0  502  0.73507975995E+02  0.96242999104E+01 -0.72925161110E+02  0.20099285760E+03  0.17200000000E+03 0.  1.
<mgrwt>
<rscale>  2 0.18729669E+03</rscale>
<asrwt>0</asrwt>
<pdfrwt beam="1">  1       21 0.24196661E-01 0.18729669E+03</pdfrwt>
<pdfrwt beam="2">  1       21 0.10118070E+00 0.18729669E+03</pdfrwt>
<totfact> 0.12915413E+04</totfact>
</mgrwt>
</event>
<event>
 4    1  0.1132373E+000  0.1867672E+03  0.7546771E-02  0.1161410E+00
         21   -1    0    0  501  502  0.00000000000E+00  0.00000000000E+00  0.71437370999E+03  0.71437370999E+03  0.00000000000E+00 0. -1.
         21   -1    0    0  502  503 -0.00000000000E+00 -0.00000000000E+00 -0.18089266444E+03  0.18089266444E+03  0.00000000000E+00 0. -1.
          6    1    1    2  501    0  0.45668191471E+02 -0.56678085103E+02  0.64921622508E+03  0.67554696058E+03  0.17200000000E+03 0. -1.
         -6    1    1    2    0  503 -0.45668191471E+02  0.56678085103E+02 -0.11573517953E+03  0.21971941385E+03  0.17200000000E+03 0. -1.
<mgrwt>
<rscale>  2 0.18676721E+03</rscale>
<asrwt>0</asrwt>
<pdfrwt beam="1">  1       21 0.17859342E+00 0.18676721E+03</pdfrwt>
<pdfrwt beam="2">  1       21 0.45223168E-01 0.18676721E+03</pdfrwt>
<totfact> 0.87840525E+02</totfact>
</mgrwt>
</event>
<event>
 4    1  0.1132373E+000  0.1966261E+03  0.7546771E-02  0.1152617E+00
         21   -1    0    0  501  502  0.00000000000E+00  0.00000000000E+00  0.18886649542E+04  0.18886649542E+04  0.00000000000E+00 0. -1.
         21   -1    0    0  502  503 -0.00000000000E+00 -0.00000000000E+00 -0.54178133058E+02  0.54178133058E+02  0.00000000000E+00 0.  1.
          6    1    1    2  501    0 -0.56770897945E+02  0.76517119166E+02  0.15101152177E+03  0.24792394819E+03  0.17200000000E+03 0.  1.
         -6    1    1    2    0  503  0.56770897945E+02 -0.76517119166E+02  0.16834752994E+04  0.16949191391E+04  0.17200000000E+03 0. -1.
<mgrwt>
<rscale>  2 0.19662605E+03</rscale>
<asrwt>0</asrwt>
<pdfrwt beam="1">  1       21 0.47216602E+00 0.19662605E+03</pdfrwt>
<pdfrwt beam="2">  1       21 0.13544540E-01 0.19662605E+03</pdfrwt>
<totfact> 0.13835868E+02</totfact>
</mgrwt>
</event>
<event>
 4    1  0.1132373E+000  0.1987719E+03  0.7546771E-02  0.1150779E+00
         21   -1    0    0  501  502  0.00000000000E+00  0.00000000000E+00  0.21874801449E+03  0.21874801449E+03  0.00000000000E+00 0. -1.
         21   -1    0    0  502  503 -0.00000000000E+00 -0.00000000000E+00 -0.18063672200E+03  0.18063672200E+03  0.00000000000E+00 0. -1.
          6    1    1    2  501    0  0.54032735810E+02 -0.83706190026E+02  0.17133371205E+02  0.19950893513E+03  0.17200000000E+03 0. -1.
         -6    1    1    2    0  503 -0.54032735810E+02  0.83706190026E+02  0.20977921291E+02  0.19987580136E+03  0.17200000000E+03 0. -1.
<mgrwt>
<rscale>  2 0.19877189E+03</rscale>
<asrwt>0</asrwt>
<pdfrwt beam="1">  1       21 0.54687003E-01 0.19877189E+03</pdfrwt>
<pdfrwt beam="2">  1       21 0.45159181E-01 0.19877189E+03</pdfrwt>
<totfact> 0.14793995E+04</totfact>
</mgrwt>
</event>
<event>
 4    1  0.1132373E+000  0.1815711E+03  0.7546771E-02  0.1166291E+00
         21   -1    0    0  501  502  0.00000000000E+00  0.00000000000E+00  0.10362061794E+03  0.10362061794E+03  0.00000000000E+00 0. -1.
         21   -1    0    0  502  503 -0.00000000000E+00 -0.00000000000E+00 -0.38986325624E+03  0.38986325624E+03  0.00000000000E+00 0.  1.
          6    1    1    2  501    0 -0.51200369761E+02 -0.27615217943E+02 -0.37305134886E+02  0.18536383470E+03  0.17200000000E+03 0. -1.
         -6    1    1    2    0  503  0.51200369761E+02  0.27615217943E+02 -0.24893750342E+03  0.30812003949E+03  0.17200000000E+03 0.  1.
<mgrwt>
<rscale>  2 0.18157114E+03</rscale>
<asrwt>0</asrwt>
<pdfrwt beam="1">  1       21 0.25905155E-01 0.18157114E+03</pdfrwt>
<pdfrwt beam="2">  1       21 0.97465813E-01 0.18157114E+03</pdfrwt>
<totfact> 0.12436248E+04</totfact>
</mgrwt>
</event>
<event>
 4    1  0.1132373E+000  0.1822837E+03  0.7546771E-02  0.1165611E+00
         21   -1    0    0  503  502  0.00000000000E+00  0.00000000000E+00  0.32588378162E+03  0.32588378162E+03  0.00000000000E+00 0. -1.
         21   -1    0    0  501  503 -0.00000000000E+00 -0.00000000000E+00 -0.11558125445E+03  0.11558125445E+03  0.00000000000E+00 0. -1.
          6    1    1    2  501    0  0.55255945080E+02 -0.24292294865E+02  0.29377269942E+02  0.18463574693E+03  0.17200000000E+03 0. -1.
         -6    1    1    2    0  502 -0.55255945080E+02  0.24292294865E+02  0.18092525723E+03  0.25682928914E+03  0.17200000000E+03 0. -1.
<mgrwt>
<rscale>  2 0.18228367E+03</rscale>
<asrwt>0</asrwt>
<pdfrwt beam="1">  1       21 0.81470943E-01 0.18228367E+03</pdfrwt>
<pdfrwt beam="2">  1       21 0.28895314E-01 0.18228367E+03</pdfrwt>
<totfact> 0.15229060E+04</totfact>
</mgrwt>
</event>
<event>
 4    1  0.1132373E+000  0.3011567E+03  0.7546771E-02  0.1084664E+00
         21   -1    0    0  503  502  0.00000000000E+00  0.00000000000E+00  0.78563003944E+03  0.78563003944E+03  0.00000000000E+00 0.  1.
         21   -1    0    0  501  503 -0.00000000000E+00 -0.00000000000E+00 -0.12957520912E+03  0.12957520912E+03  0.00000000000E+00 0. -1.
          6    1    1    2  501    0  0.23450079197E+03  0.78235207057E+02  0.17690290238E+03  0.34927067717E+03  0.17200000000E+03 0.  1.
         -6    1    1    2    0  502 -0.23450079197E+03 -0.78235207057E+02  0.47915192793E+03  0.56593457139E+03  0.17200000000E+03 0.  1.
<mgrwt>
<rscale>  2 0.30115672E+03</rscale>
<asrwt>0</asrwt>
<pdfrwt beam="1">  1       21 0.19640750E+00 0.30115672E+03</pdfrwt>
<pdfrwt beam="2">  1       21 0.32393804E-01 0.30115672E+03</pdfrwt>
<totfact> 0.11807319E+03</totfact>
</mgrwt>
</event>
<event>
 4    1  0.1132373E+000  0.2029891E+03  0.7546771E-02  0.1147241E+00
         21   -1    0    0  501  502  0.00000000000E+00  0.00000000000E+00  0.22176264792E+03  0.22176264792E+03  0.00000000000E+00 0. -1.
         21   -1    0    0  502  503 -0.00000000000E+00 -0.00000000000E+00 -0.39194215743E+03  0.39194215743E+03  0.00000000000E+00 0.  1.
          6    1    1    2  501    0 -0.97477160282E+02  0.46030384552E+02  0.13744444024E+03  0.24514397246E+03  0.17200000000E+03 0.  1.
         -6    1    1    2    0  503  0.97477160282E+02 -0.46030384552E+02 -0.30762394975E+03  0.36856083289E+03  0.17200000000E+03 0.  1.
<mgrwt>
<rscale>  2 0.20298915E+03</rscale>
<asrwt>0</asrwt>
<pdfrwt beam="1">  1       21 0.55440662E-01 0.20298915E+03</pdfrwt>
<pdfrwt beam="2">  1       21 0.97985539E-01 0.20298915E+03</pdfrwt>
<totfact> 0.26182202E+03</totfact>
</mgrwt>
</event>
<event>
 4    1  0.1132373E+000  0.1757927E+03  0.7546771E-02  0.1171938E+00
         21   -1    0    0  501  502  0.00000000000E+00  0.00000000000E+00  0.99237440724E+03  0.99237440724E+03  0.00000000000E+00 0.  1.
         21   -1    0    0  502  503 -0.00000000000E+00 -0.00000000000E+00 -0.46050240052E+02  0.46050240052E+02  0.00000000000E+00 0.  1.
          6    1    1    2  501    0 -0.35863167716E+02 -0.57353256176E+01  0.76859828041E+03  0.78844554499E+03  0.17200000000E+03 0.  1.
         -6    1    1    2    0  503  0.35863167716E+02  0.57353256176E+01  0.17772588677E+03  0.24997910230E+03  0.17200000000E+03 0.  1.
<mgrwt>
<rscale>  2 0.17579266E+03</rscale>
<asrwt>0</asrwt>
<pdfrwt beam="1">  1       21 0.24809353E+00 0.17579266E+03</pdfrwt>
<pdfrwt beam="2">  1       21 0.11512563E-01 0.17579266E+03</pdfrwt>
<totfact> 0.43920367E+03</totfact>
</mgrwt>
</event>
<event>
 4    1  0.1132373E+000  0.1978501E+03  0.7546771E-02  0.1151566E+00
         21   -1    0    0  501  502  0.00000000000E+00  0.00000000000E+00  0.88760356047E+03  0.88760356047E+03  0.00000000000E+00 0.  1.
         21   -1    0    0  502  503 -0.00000000000E+00 -0.00000000000E+00 -0.45654933459E+02  0.45654933459E+02  0.00000000000E+00 0. -1.
          6    1    1    2  501    0  0.60974512724E+02 -0.76437963707E+02  0.33489998827E+03  0.38897642041E+03  0.17200000000E+03 0. -1.
         -6    1    1    2    0  503 -0.60974512724E+02  0.76437963707E+02  0.50704863875E+03  0.54428207352E+03  0.17200000000E+03 0.  1.
<mgrwt>
<rscale>  2 0.19785008E+03</rscale>
<asrwt>0</asrwt>
<pdfrwt beam="1">  1       21 0.22190083E+00 0.19785008E+03</pdfrwt>
<pdfrwt beam="2">  1       21 0.11413736E-01 0.19785008E+03</pdfrwt>
<totfact> 0.62541806E+03</totfact>
</mgrwt>
</event>
<event>
 4    1  0.1132373E+000  0.2491655E+03  0.7546771E-02  0.1113833E+00
         21   -1    0    0  501  502  0.00000000000E+00  0.00000000000E+00  0.13168508662E+04  0.13168508662E+04  0.00000000000E+00 0. -1.
         21   -1    0    0  502  503 -0.00000000000E+00 -0.00000000000E+00 -0.14585853022E+03  0.14585853022E+03  0.00000000000E+00 0.  1.
          6    1    1    2  501    0  0.16551556417E+03  0.71442425567E+02  0.11871541263E+04  0.12130203385E+04  0.17200000000E+03 0. -1.
         -6    1    1    2    0  503 -0.16551556417E+03 -0.71442425567E+02 -0.16161790326E+02  0.24968905787E+03  0.17200000000E+03 0.  1.
<mgrwt>
<rscale>  2 0.24916545E+03</rscale>
<asrwt>0</asrwt>
<pdfrwt beam="1">  1       21 0.32921268E+00 0.24916545E+03</pdfrwt>
<pdfrwt beam="2">  1       21 0.36464637E-01 0.24916545E+03</pdfrwt>
<totfact> 0.15468709E+02</totfact>
</mgrwt>
</event>
<event>
 4    1  0.1132373E+000  0.1913768E+03  0.7546771E-02  0.1157225E+00
         21   -1    0    0  503  502  0.00000000000E+00  0.00000000000E+00  0.88154761802E+02  0.88154761802E+02  0.00000000000E+00 0. -1.
         21   -1    0    0  501  503 -0.00000000000E+00 -0.00000000000E+00 -0.41586396631E+03  0.41586396631E+03  0.00000000000E+00 0. -1.
          6    1    1    2  501    0 -0.80045767545E+02  0.25174185533E+02 -0.15603192568E+03  0.24692311830E+03  0.17200000000E+03 0.  1.
         -6    1    1    2    0  502  0.80045767545E+02 -0.25174185533E+02 -0.17167727883E+03  0.25709560982E+03  0.17200000000E+03 0.  1.
<mgrwt>
<rscale>  2 0.19137676E+03</rscale>
<asrwt>0</asrwt>
<pdfrwt beam="1">  1       21 0.22038690E-01 0.19137676E+03</pdfrwt>
<pdfrwt beam="2">  1       21 0.10396599E+00 0.19137676E+03</pdfrwt>
<totfact> 0.14406831E+04</totfact>
</mgrwt>
</event>
<event>
 4    1  0.1132373E+000  0.2913097E+03  0.7546771E-02  0.1089667E+00
         21   -1    0    0  503  502  0.00000000000E+00  0.00000000000E+00  0.99889068149E+03  0.99889068149E+03  0.00000000000E+00 0. -1.
         21   -1    0    0  501  503 -0.00000000000E+00 -0.00000000000E+00 -0.10878239297E+03  0.10878239297E+03  0.00000000000E+00 0.  1.
          6    1    1    2  501    0  0.23504119126E+03 -0.57431962041E+01  0.18585402451E+03  0.34554748489E+03  0.17200000000E+03 0.  1.
         -6    1    1    2    0  502 -0.23504119126E+03  0.57431962041E+01  0.70425426402E+03  0.76212558957E+03  0.17200000000E+03 0. -1.
<mgrwt>
<rscale>  2 0.29130971E+03</rscale>
<asrwt>0</asrwt>
<pdfrwt beam="1">  1       21 0.24972264E+00 0.29130971E+03</pdfrwt>
<pdfrwt beam="2">  1       21 0.27195601E-01 0.29130971E+03</pdfrwt>
<totfact> 0.77768867E+02</totfact>
</mgrwt>
</event>
<event>
 4    1  0.1132373E+000  0.1733764E+03  0.7546771E-02  0.1174372E+00
         21   -1    0    0  501  502  0.00000000000E+00  0.00000000000E+00  0.82891446966E+03  0.82891446966E+03  0.00000000000E+00 0. -1.
         21   -1    0    0  502  503 -0.00000000000E+00 -0.00000000000E+00 -0.10564919778E+03  0.10564919778E+03  0.00000000000E+00 0. -1.
          6    1    1    2  501    0  0.21389943607E+02 -0.42247411389E+01  0.74031984075E+03  0.76035047494E+03  0.17200000000E+03 0. -1.
         -6    1    1    2    0  503 -0.21389943607E+02  0.42247411389E+01 -0.17054568874E+02  0.17421319251E+03  0.17200000000E+03 0. -1.
<mgrwt>
<rscale>  2 0.17337641E+03</rscale>
<asrwt>0</asrwt>
<pdfrwt beam="1">  1       21 0.20722860E+00 0.17337641E+03</pdfrwt>
<pdfrwt beam="2">  1       21 0.26412302E-01 0.17337641E+03</pdfrwt>
<totfact> 0.16829576E+03</totfact>
</mgrwt>
</event>
<event>
 4    1  0.1132373E+000  0.1835677E+03  0.7546771E-02  0.1164394E+00
         21   -1    0    0  501  502  0.00000000000E+00  0.00000000000E+00  0.72002008173E+02  0.72002008173E+02  0.00000000000E+00 0. -1.
         21   -1    0    0  502  503 -0.00000000000E+00 -0.00000000000E+00 -0.49933692374E+03  0.49933692374E+03  0.00000000000E+00 0. -1.
          6    1    1    2  501    0 -0.25529547778E+02  0.58833218329E+02 -0.14210599189E+03  0.23214482187E+03  0.17200000000E+03 0. -1.
         -6    1    1    2    0  503  0.25529547778E+02 -0.58833218329E+02 -0.28522892368E+03  0.33919411005E+03  0.17200000000E+03 0. -1.
<mgrwt>
<rscale>  2 0.18356771E+03</rscale>
<asrwt>0</asrwt>
<pdfrwt beam="1">  1       21 0.18000502E-01 0.18356771E+03</pdfrwt>
<pdfrwt beam="2">  1       21 0.12483423E+00 0.18356771E+03</pdfrwt>
<totfact> 0.13521205E+04</totfact>
</mgrwt>
</event>
<event>
 4    1  0.1132373E+000  0.1931955E+03  0.7546771E-02  0.1155610E+00
         21   -1    0    0  503  502  0.00000000000E+00  0.00000000000E+00  0.46450073900E+03  0.46450073900E+03  0.00000000000E+00 0.  1.
         21   -1    0    0  501  503 -0.00000000000E+00 -0.00000000000E+00 -0.88425283291E+02  0.88425283291E+02  0.00000000000E+00 0.  1.
          6    1    1    2  501    0  0.56367968626E+02  0.67551196378E+02  0.10451225135E+03  0.21965273206E+03  0.17200000000E+03 0.  1.
         -6    1    1    2    0  502 -0.56367968626E+02 -0.67551196378E+02  0.27156320436E+03  0.33327329023E+03  0.17200000000E+03 0.  1.
<mgrwt>
<rscale>  2 0.19319553E+03</rscale>
<asrwt>0</asrwt>
<pdfrwt beam="1">  1       21 0.11612518E+00 0.19319553E+03</pdfrwt>
<pdfrwt beam="2">  1       21 0.22106322E-01 0.19319553E+03</pdfrwt>
<totfact> 0.10947444E+04</totfact>
</mgrwt>
</event>
<event>
 4    1  0.1132373E+000  0.1736753E+03  0.7546771E-02  0.1174068E+00
         21   -1    0    0  503  502  0.00000000000E+00  0.00000000000E+00  0.90260572727E+02  0.90260572727E+02  0.00000000000E+00 0.  1.
         21   -1    0    0  501  503 -0.00000000000E+00 -0.00000000000E+00 -0.33766958684E+03  0.33766958684E+03  0.00000000000E+00 0.  1.
          6    1    1    2  501    0  0.23526737512E+02  0.50601863494E+01 -0.14546145055E+03  0.22654391729E+03  0.17200000000E+03 0.  1.
         -6    1    1    2    0  502 -0.23526737512E+02 -0.50601863494E+01 -0.10194756356E+03  0.20138624228E+03  0.17200000000E+03 0.  1.
<mgrwt>
<rscale>  2 0.17367531E+03</rscale>
<asrwt>0</asrwt>
<pdfrwt beam="1">  1       21 0.22565143E-01 0.17367531E+03</pdfrwt>
<pdfrwt beam="2">  1       21 0.84417396E-01 0.17367531E+03</pdfrwt>
<totfact> 0.22654844E+04</totfact>
</mgrwt>
</event>
<event>
 4    1  0.1132373E+000  0.1943509E+03  0.7546771E-02  0.1154595E+00
         21   -1    0    0  501  502  0.00000000000E+00  0.00000000000E+00  0.20004492409E+03  0.20004492409E+03  0.00000000000E+00 0. -1.
         21   -1    0    0  502  503 -0.00000000000E+00 -0.00000000000E+00 -0.19093238433E+03  0.19093238433E+03  0.00000000000E+00 0. -1.
          6    1    1    2  501    0 -0.78335317256E+01 -0.90149462297E+02 -0.16010556247E+02  0.19500930153E+03  0.17200000000E+03 0.  1.
         -6    1    1    2    0  503  0.78335317256E+01  0.90149462297E+02  0.25123095998E+02  0.19596800689E+03  0.17200000000E+03 0.  1.
<mgrwt>
<rscale>  2 0.19435094E+03</rscale>
<asrwt>0</asrwt>
<pdfrwt beam="1">  1       21 0.50011231E-01 0.19435094E+03</pdfrwt>
<pdfrwt beam="2">  1       21 0.47733096E-01 0.19435094E+03</pdfrwt>
<totfact> 0.15965167E+04</totfact>
</mgrwt>
</event>
<event>
 4    1  0.1132373E+000  0.2120500E+03  0.7546771E-02  0.1139953E+00
         21   -1    0    0  503  502  0.00000000000E+00  0.00000000000E+00  0.19459647712E+03  0.19459647712E+03  0.00000000000E+00 0.  1.
         21   -1    0    0  501  503 -0.00000000000E+00 -0.00000000000E+00 -0.23128607509E+03  0.23128607509E+03  0.00000000000E+00 0.  1.
          6    1    1    2  501    0  0.67110840863E+02  0.10429441477E+03 -0.11819346080E+02  0.21237911115E+03  0.17200000000E+03 0.  1.
         -6    1    1    2    0  502 -0.67110840863E+02 -0.10429441477E+03 -0.24870251894E+02  0.21350344105E+03  0.17200000000E+03 0.  1.
<mgrwt>
<rscale>  2 0.21204997E+03</rscale>
<asrwt>0</asrwt>
<pdfrwt beam="1">  1       21 0.48649120E-01 0.21204997E+03</pdfrwt>
<pdfrwt beam="2">  1       21 0.57821518E-01 0.21204997E+03</pdfrwt>
<totfact> 0.11169123E+04</totfact>
</mgrwt>
</event>
<event>
 4    1  0.1132373E+000  0.1871074E+03  0.7546771E-02  0.1161096E+00
         21   -1    0    0  501  502  0.00000000000E+00  0.00000000000E+00  0.15100784336E+03  0.15100784336E+03  0.00000000000E+00 0. -1.
         21   -1    0    0  502  503 -0.00000000000E+00 -0.00000000000E+00 -0.35625718130E+03  0.35625718130E+03  0.00000000000E+00 0. -1.
          6    1    1    2  501    0  0.70269759564E+02  0.22076165131E+02  0.47263940682E+02  0.19298465293E+03  0.17200000000E+03 0. -1.
         -6    1    1    2    0  503 -0.70269759564E+02 -0.22076165131E+02 -0.25251327863E+03  0.31428037174E+03  0.17200000000E+03 0. -1.
<mgrwt>
<rscale>  2 0.18710745E+03</rscale>
<asrwt>0</asrwt>
<pdfrwt beam="1">  1       21 0.37751961E-01 0.18710745E+03</pdfrwt>
<pdfrwt beam="2">  1       21 0.89064295E-01 0.18710745E+03</pdfrwt>
<totfact> 0.73129494E+03</totfact>
</mgrwt>
</event>
<event>
 4    1  0.1132373E+000  0.2595572E+03  0.7546771E-02  0.1107410E+00
         21   -1    0    0  501  502  0.00000000000E+00  0.00000000000E+00  0.19951237364E+03  0.19951237364E+03  0.00000000000E+00 0. -1.
         21   -1    0    0  502  503 -0.00000000000E+00 -0.00000000000E+00 -0.41461179561E+03  0.41461179561E+03  0.00000000000E+00 0.  1.
          6    1    1    2  501    0  0.74112573827E+02  0.17970329440E+03  0.24725351681E+02  0.26073222017E+03  0.17200000000E+03 0. -1.
         -6    1    1    2    0  503 -0.74112573827E+02 -0.17970329440E+03 -0.23982477365E+03  0.35339194908E+03  0.17200000000E+03 0.  1.
<mgrwt>
<rscale>  2 0.25955721E+03</rscale>
<asrwt>0</asrwt>
<pdfrwt beam="1">  1       21 0.49878094E-01 0.25955721E+03</pdfrwt>
<pdfrwt beam="2">  1       21 0.10365295E+00 0.25955721E+03</pdfrwt>
<totfact> 0.27419927E+03</totfact>
</mgrwt>
</event>
<event>
 4    1  0.1132373E+000  0.1724790E+03  0.7546771E-02  0.1175287E+00
         21   -1    0    0  503  502  0.00000000000E+00  0.00000000000E+00  0.14200948390E+03  0.14200948390E+03  0.00000000000E+00 0.  1.
         21   -1    0    0  501  503 -0.00000000000E+00 -0.00000000000E+00 -0.20949459767E+03  0.20949459767E+03  0.00000000000E+00 0.  1.
          6    1    1    2  501    0 -0.88620289749E+01  0.92981563648E+01 -0.34871909193E+02  0.17596886463E+03  0.17200000000E+03 0.  1.
         -6    1    1    2    0  502  0.88620289749E+01 -0.92981563648E+01 -0.32613204578E+02  0.17553521693E+03  0.17200000000E+03 0.  1.
<mgrwt>
<rscale>  2 0.17247896E+03</rscale>
<asrwt>0</asrwt>
<pdfrwt beam="1">  1       21 0.35502371E-01 0.17247896E+03</pdfrwt>
<pdfrwt beam="2">  1       21 0.52373649E-01 0.17247896E+03</pdfrwt>
<totfact> 0.26756758E+04</totfact>
</mgrwt>
</event>
<event>
 4    1  0.1132373E+000  0.2205570E+03  0.7546771E-02  0.1133468E+00
         21   -1    0    0  503  502  0.00000000000E+00  0.00000000000E+00  0.14004415540E+03  0.14004415540E+03  0.00000000000E+00 0. -1.
         21   -1    0    0  501  503 -0.00000000000E+00 -0.00000000000E+00 -0.66951826451E+03  0.66951826451E+03  0.00000000000E+00 0. -1.
          6    1    1    2  501    0  0.20480316398E+02 -0.13653547494E+03 -0.54552308289E+03  0.58842230859E+03  0.17200000000E+03 0. -1.
         -6    1    1    2    0  502 -0.20480316398E+02  0.13653547494E+03  0.16048973785E+02  0.22114011133E+03  0.17200000000E+03 0. -1.
<mgrwt>
<rscale>  2 0.22055698E+03</rscale>
<asrwt>0</asrwt>
<pdfrwt beam="1">  1       21 0.35011040E-01 0.22055698E+03</pdfrwt>
<pdfrwt beam="2">  1       21 0.16737956E+00 0.22055698E+03</pdfrwt>
<totfact> 0.17050013E+03</totfact>
</mgrwt>
</event>
<event>
 4    1  0.1132373E+000  0.3404843E+03  0.7546771E-02  0.1066590E+00
         21   -1    0    0  503  502  0.00000000000E+00  0.00000000000E+00  0.12275359427E+04  0.12275359427E+04  0.00000000000E+00 0. -1.
         21   -1    0    0  501  503 -0.00000000000E+00 -0.00000000000E+00 -0.10326077415E+03  0.10326077415E+03  0.00000000000E+00 0.  1.
          6    1    1    2  501    0  0.27947967667E+03  0.90756076849E+02  0.75660467383E+03  0.82968680092E+03  0.17200000000E+03 0. -1.
         -6    1    1    2    0  502 -0.27947967667E+03 -0.90756076849E+02  0.36767049471E+03  0.50110991593E+03  0.17200000000E+03 0.  1.
<mgrwt>
<rscale>  2 0.34048430E+03</rscale>
<asrwt>0</asrwt>
<pdfrwt beam="1">  1       21 0.30688394E+00 0.34048430E+03</pdfrwt>
<pdfrwt beam="2">  1       21 0.25815197E-01 0.34048430E+03</pdfrwt>
<totfact> 0.37798891E+02</totfact>
</mgrwt>
</event>
<event>
 4    1  0.1132373E+000  0.2032550E+03  0.7546771E-02  0.1147021E+00
         21   -1    0    0  501  502  0.00000000000E+00  0.00000000000E+00  0.25350077092E+03  0.25350077092E+03  0.00000000000E+00 0.  1.
         21   -1    0    0  502  503 -0.00000000000E+00 -0.00000000000E+00 -0.16516703624E+03  0.16516703624E+03  0.00000000000E+00 0.  1.
          6    1    1    2  501    0  0.89873306416E+02  0.60426532108E+02  0.68319773738E+02  0.21442986842E+03  0.17200000000E+03 0.  1.
         -6    1    1    2    0  503 -0.89873306416E+02 -0.60426532108E+02  0.20013960943E+02  0.20423793874E+03  0.17200000000E+03 0.  1.
<mgrwt>
<rscale>  2 0.20325496E+03</rscale>
<asrwt>0</asrwt>
<pdfrwt beam="1">  1       21 0.63375192E-01 0.20325496E+03</pdfrwt>
<pdfrwt beam="2">  1       21 0.41291759E-01 0.20325496E+03</pdfrwt>
<totfact> 0.12915320E+04</totfact>
</mgrwt>
</event>
<event>
 4    1  0.1132373E+000  0.2329752E+03  0.7546771E-02  0.1124563E+00
         21   -1    0    0  503  502  0.00000000000E+00  0.00000000000E+00  0.52877150343E+02  0.52877150343E+02  0.00000000000E+00 0. -1.
         21   -1    0    0  501  503 -0.00000000000E+00 -0.00000000000E+00 -0.10265113751E+04  0.10265113751E+04  0.00000000000E+00 0.  1.
          6    1    1    2  501    0  0.85682733609E+02  0.13172659022E+03 -0.48972050863E+03  0.54231319547E+03  0.17200000000E+03 0.  1.
         -6    1    1    2    0  502 -0.85682733609E+02 -0.13172659022E+03 -0.48391371612E+03  0.53707532996E+03  0.17200000000E+03 0.  1.
<mgrwt>
<rscale>  2 0.23297516E+03</rscale>
<asrwt>0</asrwt>
<pdfrwt beam="1">  1       21 0.13219288E-01 0.23297516E+03</pdfrwt>
<pdfrwt beam="2">  1       21 0.25662783E+00 0.23297516E+03</pdfrwt>
<totfact> 0.28760003E+03</totfact>
</mgrwt>
</event>
<event>
 4    1  0.1132373E+000  0.1907742E+03  0.7546771E-02  0.1157765E+00
         21   -1    0    0  503  502  0.00000000000E+00  0.00000000000E+00  0.21625700044E+03  0.21625700044E+03  0.00000000000E+00 0. -1.
         21   -1    0    0  501  503 -0.00000000000E+00 -0.00000000000E+00 -0.17558488382E+03  0.17558488382E+03  0.00000000000E+00 0. -1.
          6    1    1    2  501    0 -0.82477641570E+02 -0.28665850235E+01 -0.19587037821E+02  0.19177703387E+03  0.17200000000E+03 0. -1.
         -6    1    1    2    0  502  0.82477641570E+02  0.28665850235E+01  0.60259154444E+02  0.20006485039E+03  0.17200000000E+03 0. -1.
<mgrwt>
<rscale>  2 0.19077416E+03</rscale>
<asrwt>0</asrwt>
<pdfrwt beam="1">  1       21 0.54064250E-01 0.19077416E+03</pdfrwt>
<pdfrwt beam="2">  1       21 0.43896221E-01 0.19077416E+03</pdfrwt>
<totfact> 0.16146263E+04</totfact>
</mgrwt>
</event>
<event>
 4    1  0.1132373E+000  0.2836354E+03  0.7546771E-02  0.1093720E+00
         21   -1    0    0  503  502  0.00000000000E+00  0.00000000000E+00  0.89551033022E+03  0.89551033022E+03  0.00000000000E+00 0. -1.
         21   -1    0    0  501  503 -0.00000000000E+00 -0.00000000000E+00 -0.12170896790E+03  0.12170896790E+03  0.00000000000E+00 0. -1.
          6    1    1    2  501    0 -0.14612273401E+03  0.17179406505E+03  0.12662436693E+03  0.31061678075E+03  0.17200000000E+03 0. -1.
         -6    1    1    2    0  502  0.14612273401E+03 -0.17179406505E+03  0.64717699540E+03  0.70660251737E+03  0.17200000000E+03 0. -1.
<mgrwt>
<rscale>  2 0.28363542E+03</rscale>
<asrwt>0</asrwt>
<pdfrwt beam="1">  1       21 0.22387756E+00 0.28363542E+03</pdfrwt>
<pdfrwt beam="2">  1       21 0.30427245E-01 0.28363542E+03</pdfrwt>
<totfact> 0.90315364E+02</totfact>
</mgrwt>
</event>
<event>
 4    1  0.1132373E+000  0.1927332E+03  0.7546771E-02  0.1156019E+00
         21   -1    0    0  501  502  0.00000000000E+00  0.00000000000E+00  0.41883667153E+03  0.41883667153E+03  0.00000000000E+00 0. -1.
         21   -1    0    0  502  503 -0.00000000000E+00 -0.00000000000E+00 -0.21300719132E+03  0.21300719132E+03  0.00000000000E+00 0.  1.
          6    1    1    2  501    0 -0.86707219570E+02  0.66277205222E+01  0.34426654759E+03  0.39454470519E+03  0.17200000000E+03 0. -1.
         -6    1    1    2    0  503  0.86707219570E+02 -0.66277205222E+01 -0.13843706737E+03  0.23729915766E+03  0.17200000000E+03 0.  1.
<mgrwt>
<rscale>  2 0.19273315E+03</rscale>
<asrwt>0</asrwt>
<pdfrwt beam="1">  1       21 0.10470917E+00 0.19273315E+03</pdfrwt>
<pdfrwt beam="2">  1       21 0.53251798E-01 0.19273315E+03</pdfrwt>
<totfact> 0.24559468E+03</totfact>
</mgrwt>
</event>
<event>
 4    1  0.1132373E+000  0.2045397E+03  0.7546771E-02  0.1145964E+00
         21   -1    0    0  503  502  0.00000000000E+00  0.00000000000E+00  0.84264137180E+02  0.84264137180E+02  0.00000000000E+00 0.  1.
         21   -1    0    0  501  503 -0.00000000000E+00 -0.00000000000E+00 -0.10641626592E+04  0.10641626592E+04  0.00000000000E+00 0.  1.
          6    1    1    2  501    0  0.36659793563E+02 -0.10444405062E+03 -0.90933861391E+03  0.93205858985E+03  0.17200000000E+03 0.  1.
         -6    1    1    2    0  502 -0.36659793563E+02  0.10444405062E+03 -0.70559908151E+02  0.21636820657E+03  0.17200000000E+03 0.  1.
<mgrwt>
<rscale>  2 0.20453973E+03</rscale>
<asrwt>0</asrwt>
<pdfrwt beam="1">  1       21 0.21066035E-01 0.20453973E+03</pdfrwt>
<pdfrwt beam="2">  1       21 0.26604066E+00 0.20453973E+03</pdfrwt>
<totfact> 0.11062042E+03</totfact>
</mgrwt>
</event>
<event>
 4    1  0.1132373E+000  0.1931753E+03  0.7546771E-02  0.1155628E+00
         21   -1    0    0  501  502  0.00000000000E+00  0.00000000000E+00  0.73717335999E+03  0.73717335999E+03  0.00000000000E+00 0. -1.
         21   -1    0    0  502  503 -0.00000000000E+00 -0.00000000000E+00 -0.60009823378E+02  0.60009823378E+02  0.00000000000E+00 0.  1.
          6    1    1    2  501    0 -0.61447980335E+02 -0.62903550639E+02  0.49623919685E+03  0.53251295896E+03  0.17200000000E+03 0. -1.
         -6    1    1    2    0  503  0.61447980335E+02  0.62903550639E+02  0.18092433977E+03  0.26467022441E+03  0.17200000000E+03 0.  1.
<mgrwt>
<rscale>  2 0.19317534E+03</rscale>
<asrwt>0</asrwt>
<pdfrwt beam="1">  1       21 0.18429331E+00 0.19317534E+03</pdfrwt>
<pdfrwt beam="2">  1       21 0.15002458E-01 0.19317534E+03</pdfrwt>
<totfact> 0.66720987E+03</totfact>
</mgrwt>
</event>
<event>
 4    1  0.1132373E+000  0.2192335E+03  0.7546771E-02  0.1134456E+00
         21   -1    0    0  503  502  0.00000000000E+00  0.00000000000E+00  0.29840547067E+03  0.29840547067E+03  0.00000000000E+00 0.  1.
         21   -1    0    0  501  503 -0.00000000000E+00 -0.00000000000E+00 -0.80336078571E+03  0.80336078571E+03  0.00000000000E+00 0. -1.
          6    1    1    2  501    0 -0.73982485001E+02  0.11404340854E+03 -0.74505108507E+03  0.77663661161E+03  0.17200000000E+03 0. -1.
         -6    1    1    2    0  502  0.73982485001E+02 -0.11404340854E+03  0.24009577003E+03  0.32512964477E+03  0.17200000000E+03 0.  1.
<mgrwt>
<rscale>  2 0.21923345E+03</rscale>
<asrwt>0</asrwt>
<pdfrwt beam="1">  1       21 0.74601368E-01 0.21923345E+03</pdfrwt>
<pdfrwt beam="2">  1       21 0.20084020E+00 0.21923345E+03</pdfrwt>
<totfact> 0.20628662E+02</totfact>
</mgrwt>
</event>
<event>
 4    1  0.1132373E+000  0.1966815E+03  0.7546771E-02  0.1152569E+00
         21   -1    0    0  501  502  0.00000000000E+00  0.00000000000E+00  0.38966819226E+03  0.38966819226E+03  0.00000000000E+00 0.  1.
         21   -1    0    0  502  503 -0.00000000000E+00 -0.00000000000E+00 -0.12679863036E+03  0.12679863036E+03  0.00000000000E+00 0. -1.
          6    1    1    2  501    0 -0.94239025482E+02 -0.14785776930E+02  0.25175042887E+03  0.31947126875E+03  0.17200000000E+03 0.  1.
         -6    1    1    2    0  503  0.94239025482E+02  0.14785776930E+02  0.11119133039E+02  0.19699555387E+03  0.17200000000E+03 0. -1.
<mgrwt>
<rscale>  2 0.19668150E+03</rscale>
<asrwt>0</asrwt>
<pdfrwt beam="1">  1       21 0.97417045E-01 0.19668150E+03</pdfrwt>
<pdfrwt beam="2">  1       21 0.31699658E-01 0.19668150E+03</pdfrwt>
<totfact> 0.83310481E+03</totfact>
</mgrwt>
</event>
<event>
 4    1  0.1132373E+000  0.1723814E+03  0.7546771E-02  0.1175387E+00
         21   -1    0    0  503  502  0.00000000000E+00  0.00000000000E+00  0.16557799593E+03  0.16557799593E+03  0.00000000000E+00 0.  1.
         21   -1    0    0  501  503 -0.00000000000E+00 -0.00000000000E+00 -0.19409895978E+03  0.19409895978E+03  0.00000000000E+00 0.  1.
          6    1    1    2  501    0 -0.37369356359E+01  0.10834477823E+02  0.35120679735E+02  0.17592274652E+03  0.17200000000E+03 0.  1.
         -6    1    1    2    0  502  0.37369356359E+01 -0.10834477823E+02 -0.63641643591E+02  0.18375420919E+03  0.17200000000E+03 0.  1.
<mgrwt>
<rscale>  2 0.17238141E+03</rscale>
<asrwt>0</asrwt>
<pdfrwt beam="1">  1       21 0.41394499E-01 0.17238141E+03</pdfrwt>
<pdfrwt beam="2">  1       21 0.48524740E-01 0.17238141E+03</pdfrwt>
<totfact> 0.23062570E+04</totfact>
</mgrwt>
</event>
<event>
 4    1  0.1132373E+000  0.1778856E+03  0.7546771E-02  0.1169865E+00
         21   -1    0    0  501  502  0.00000000000E+00  0.00000000000E+00  0.35411710068E+03  0.35411710068E+03  0.00000000000E+00 0. -1.
         21   -1    0    0  502  503 -0.00000000000E+00 -0.00000000000E+00 -0.93325018752E+02  0.93325018752E+02  0.00000000000E+00 0. -1.
          6    1    1    2  501    0  0.44969055650E+02  0.60883356082E+01  0.84272104873E+02  0.19683767794E+03  0.17200000000E+03 0.  1.
         -6    1    1    2    0  503 -0.44969055650E+02 -0.60883356082E+01  0.17651997706E+03  0.25060444149E+03  0.17200000000E+03 0.  1.
<mgrwt>
<rscale>  2 0.17788559E+03</rscale>
<asrwt>0</asrwt>
<pdfrwt beam="1">  1       21 0.88529272E-01 0.17788559E+03</pdfrwt>
<pdfrwt beam="2">  1       21 0.23331256E-01 0.17788559E+03</pdfrwt>
<totfact> 0.19025546E+04</totfact>
</mgrwt>
</event>
<event>
 4    1  0.1132373E+000  0.1937731E+03  0.7546771E-02  0.1155102E+00
         21   -1    0    0  503  502  0.00000000000E+00  0.00000000000E+00  0.32609389460E+03  0.32609389460E+03  0.00000000000E+00 0.  1.
         21   -1    0    0  501  503 -0.00000000000E+00 -0.00000000000E+00 -0.13286979034E+03  0.13286979034E+03  0.00000000000E+00 0.  1.
          6    1    1    2  501    0  0.78402846730E+02  0.42626248361E+02  0.12795712708E+02  0.19419509182E+03  0.17200000000E+03 0.  1.
         -6    1    1    2    0  502 -0.78402846730E+02 -0.42626248361E+02  0.18042839155E+03  0.26476859312E+03  0.17200000000E+03 0.  1.
<mgrwt>
<rscale>  2 0.19377307E+03</rscale>
<asrwt>0</asrwt>
<pdfrwt beam="1">  1       21 0.81523472E-01 0.19377307E+03</pdfrwt>
<pdfrwt beam="2">  1       21 0.33217448E-01 0.19377307E+03</pdfrwt>
<totfact> 0.11492574E+04</totfact>
</mgrwt>
</event>
<event>
 4    1  0.1132373E+000  0.3119372E+03  0.7546771E-02  0.1079421E+00
         21   -1    0    0  501  502  0.00000000000E+00  0.00000000000E+00  0.54210501185E+03  0.54210501185E+03  0.00000000000E+00 0. -1.
         21   -1    0    0  502  503 -0.00000000000E+00 -0.00000000000E+00 -0.23962364522E+03  0.23962364522E+03  0.00000000000E+00 0.  1.
          6    1    1    2  501    0  0.18894805081E+03  0.17893984619E+03  0.34703673995E+03  0.46662547437E+03  0.17200000000E+03 0.  1.
         -6    1    1    2    0  503 -0.18894805081E+03 -0.17893984619E+03 -0.44555373319E+02  0.31510318271E+03  0.17200000000E+03 0.  1.
<mgrwt>
<rscale>  2 0.31193723E+03</rscale>
<asrwt>0</asrwt>
<pdfrwt beam="1">  1       21 0.13552625E+00 0.31193723E+03</pdfrwt>
<pdfrwt beam="2">  1       21 0.59905912E-01 0.31193723E+03</pdfrwt>
<totfact> 0.91745794E+02</totfact>
</mgrwt>
</event>
<event>
 4    1  0.1132373E+000  0.2079208E+03  0.7546771E-02  0.1143223E+00
         21   -1    0    0  501  502  0.00000000000E+00  0.00000000000E+00  0.26828285109E+03  0.26828285109E+03  0.00000000000E+00 0.  1.
         21   -1    0    0  502  503 -0.00000000000E+00 -0.00000000000E+00 -0.16325044633E+03  0.16325044633E+03  0.00000000000E+00 0.  1.
          6    1    1    2  501    0  0.10300383064E+03 -0.55111325622E+02  0.77049953330E+02  0.22173800451E+03  0.17200000000E+03 0.  1.
         -6    1    1    2    0  503 -0.10300383064E+03  0.55111325622E+02  0.27982451426E+02  0.20979529291E+03  0.17200000000E+03 0.  1.
<mgrwt>
<rscale>  2 0.20792077E+03</rscale>
<asrwt>0</asrwt>
<pdfrwt beam="1">  1       21 0.67070712E-01 0.20792077E+03</pdfrwt>
<pdfrwt beam="2">  1       21 0.40812612E-01 0.20792077E+03</pdfrwt>
<totfact> 0.11651934E+04</totfact>
</mgrwt>
</event>
<event>
 4    1  0.1132373E+000  0.1924455E+03  0.7546771E-02  0.1156274E+00
         21   -1    0    0  503  502  0.00000000000E+00  0.00000000000E+00  0.63473393014E+02  0.63473393014E+02  0.00000000000E+00 0. -1.
         21   -1    0    0  501  503 -0.00000000000E+00 -0.00000000000E+00 -0.59298141720E+03  0.59298141720E+03  0.00000000000E+00 0.  1.
          6    1    1    2  501    0 -0.72701033830E+02  0.46538618006E+02 -0.30630778271E+03  0.36174540914E+03  0.17200000000E+03 0. -1.
         -6    1    1    2    0  502  0.72701033830E+02 -0.46538618006E+02 -0.22320024148E+03  0.29470940108E+03  0.17200000000E+03 0.  1.
<mgrwt>
<rscale>  2 0.19244553E+03</rscale>
<asrwt>0</asrwt>
<pdfrwt beam="1">  1       21 0.15868348E-01 0.19244553E+03</pdfrwt>
<pdfrwt beam="2">  1       21 0.14824536E+00 0.19244553E+03</pdfrwt>
<totfact> 0.10915377E+04</totfact>
</mgrwt>
</event>
<event>
 4    1  0.1132373E+000  0.1758719E+03  0.7546771E-02  0.1171859E+00
         21   -1    0    0  503  502  0.00000000000E+00  0.00000000000E+00  0.90065801742E+02  0.90065801742E+02  0.00000000000E+00 0. -1.
         21   -1    0    0  501  503 -0.00000000000E+00 -0.00000000000E+00 -0.79862785548E+03  0.79862785548E+03  0.00000000000E+00 0. -1.
          6    1    1    2  501    0  0.36625585108E+02  0.23403367957E+01 -0.68974973379E+03  0.71181852035E+03  0.17200000000E+03 0. -1.
         -6    1    1    2    0  502 -0.36625585108E+02 -0.23403367957E+01 -0.18812319954E+02  0.17687513687E+03  0.17200000000E+03 0. -1.
<mgrwt>
<rscale>  2 0.17587186E+03</rscale>
<asrwt>0</asrwt>
<pdfrwt beam="1">  1       21 0.22516451E-01 0.17587186E+03</pdfrwt>
<pdfrwt beam="2">  1       21 0.19965696E+00 0.17587186E+03</pdfrwt>
<totfact> 0.25376553E+03</totfact>
</mgrwt>
</event>
<event>
 4    1  0.1132373E+000  0.2101743E+03  0.7546771E-02  0.1141428E+00
         21   -1    0    0  501  502  0.00000000000E+00  0.00000000000E+00  0.90734589873E+03  0.90734589873E+03  0.00000000000E+00 0. -1.
         21   -1    0    0  502  503 -0.00000000000E+00 -0.00000000000E+00 -0.12304903278E+03  0.12304903278E+03  0.00000000000E+00 0. -1.
          6    1    1    2  501    0  0.41297875055E+02  0.11350653634E+03  0.79266357208E+03  0.82005413649E+03  0.17200000000E+03 0. -1.
         -6    1    1    2    0  503 -0.41297875055E+02 -0.11350653634E+03 -0.83667061309E+01  0.21034079502E+03  0.17200000000E+03 0. -1.
<mgrwt>
<rscale>  2 0.21017433E+03</rscale>
<asrwt>0</asrwt>
<pdfrwt beam="1">  1       21 0.22683645E+00 0.21017433E+03</pdfrwt>
<pdfrwt beam="2">  1       21 0.30762261E-01 0.21017433E+03</pdfrwt>
<totfact> 0.90873427E+02</totfact>
</mgrwt>
</event>
<event>
 4    1  0.1132373E+000  0.1911456E+03  0.7546771E-02  0.1157432E+00
         21   -1    0    0  503  502  0.00000000000E+00  0.00000000000E+00  0.13020869550E+03  0.13020869550E+03  0.00000000000E+00 0. -1.
         21   -1    0    0  501  503 -0.00000000000E+00 -0.00000000000E+00 -0.10366036567E+04  0.10366036567E+04  0.00000000000E+00 0.  1.
          6    1    1    2  501    0 -0.77504808701E+02  0.30751054199E+02 -0.95142356807E+03  0.97043465962E+03  0.17200000000E+03 0.  1.
         -6    1    1    2    0  502  0.77504808701E+02 -0.30751054199E+02  0.45028606867E+02  0.19637769258E+03  0.17200000000E+03 0. -1.
<mgrwt>
<rscale>  2 0.19114555E+03</rscale>
<asrwt>0</asrwt>
<pdfrwt beam="1">  1       21 0.32552175E-01 0.19114555E+03</pdfrwt>
<pdfrwt beam="2">  1       21 0.25915091E+00 0.19114555E+03</pdfrwt>
<totfact> 0.53486518E+02</totfact>
</mgrwt>
</event>
<event>
 4    1  0.1132373E+000  0.1784545E+03  0.7546771E-02  0.1169307E+00
         21   -1    0    0  503  502  0.00000000000E+00  0.00000000000E+00  0.96142680100E+03  0.96142680100E+03  0.00000000000E+00 0. -1.
         21   -1    0    0  501  503 -0.00000000000E+00 -0.00000000000E+00 -0.43464925636E+02  0.43464925636E+02  0.00000000000E+00 0. -1.
          6    1    1    2  501    0 -0.22585377200E+02 -0.41855906174E+02  0.21390213986E+03  0.27856801967E+03  0.17200000000E+03 0. -1.
         -6    1    1    2    0  502  0.22585377200E+02  0.41855906174E+02  0.70405973551E+03  0.72632370697E+03  0.17200000000E+03 0. -1.
<mgrwt>
<rscale>  2 0.17845452E+03</rscale>
<asrwt>0</asrwt>
<pdfrwt beam="1">  1       21 0.24035663E+00 0.17845452E+03</pdfrwt>
<pdfrwt beam="2">  1       21 0.10866235E-01 0.17845452E+03</pdfrwt>
<totfact> 0.53890219E+03</totfact>
</mgrwt>
</event>
<event>
 4    1  0.1132373E+000  0.1868743E+03  0.7546771E-02  0.1161311E+00
         21   -1    0    0  503  502  0.00000000000E+00  0.00000000000E+00  0.97395604339E+03  0.97395604339E+03  0.00000000000E+00 0. -1.
         21   -1    0    0  501  503 -0.00000000000E+00 -0.00000000000E+00 -0.62382891919E+02  0.62382891919E+02  0.00000000000E+00 0. -1.
          6    1    1    2  501    0  0.54874528045E+01  0.72855235468E+02  0.11789008321E+03  0.22095264016E+03  0.17200000000E+03 0. -1.
         -6    1    1    2    0  502 -0.54874528045E+01 -0.72855235468E+02  0.79368306826E+03  0.81538629515E+03  0.17200000000E+03 0. -1.
<mgrwt>
<rscale>  2 0.18687428E+03</rscale>
<asrwt>0</asrwt>
<pdfrwt beam="1">  1       21 0.24348896E+00 0.18687428E+03</pdfrwt>
<pdfrwt beam="2">  1       21 0.15595726E-01 0.18687428E+03</pdfrwt>
<totfact> 0.26714357E+03</totfact>
</mgrwt>
</event>
<event>
 4    1  0.1132373E+000  0.2027708E+03  0.7546771E-02  0.1147422E+00
         21   -1    0    0  503  502  0.00000000000E+00  0.00000000000E+00  0.37859928114E+03  0.37859928114E+03  0.00000000000E+00 0. -1.
         21   -1    0    0  501  503 -0.00000000000E+00 -0.00000000000E+00 -0.21175520977E+03  0.21175520977E+03  0.00000000000E+00 0.  1.
          6    1    1    2  501    0  0.38951093567E+02  0.10007410782E+03 -0.12259857420E+03  0.23695236893E+03  0.17200000000E+03 0.  1.
         -6    1    1    2    0  502 -0.38951093567E+02 -0.10007410782E+03  0.28944264557E+03  0.35340212198E+03  0.17200000000E+03 0. -1.
<mgrwt>
<rscale>  2 0.20277084E+03</rscale>
<asrwt>0</asrwt>
<pdfrwt beam="1">  1       21 0.94649819E-01 0.20277084E+03</pdfrwt>
<pdfrwt beam="2">  1       21 0.52938803E-01 0.20277084E+03</pdfrwt>
<totfact> 0.31321511E+03</totfact>
</mgrwt>
</event>
<event>
 4    1  0.1132373E+000  0.2232954E+03  0.7546771E-02  0.1131450E+00
         21   -1    0    0  501  502  0.00000000000E+00  0.00000000000E+00  0.22933385467E+03  0.22933385467E+03  0.00000000000E+00 0.  1.
         21   -1    0    0  502  503 -0.00000000000E+00 -0.00000000000E+00 -0.23525622238E+03  0.23525622238E+03  0.00000000000E+00 0. -1.
          6    1    1    2  501    0 -0.33843612826E+02 -0.13831654635E+03 -0.66930114912E+02  0.23311048326E+03  0.17200000000E+03 0. -1.
         -6    1    1    2    0  503  0.33843612826E+02  0.13831654635E+03  0.61007747207E+02  0.23147959379E+03  0.17200000000E+03 0. -1.
<mgrwt>
<rscale>  2 0.22329545E+03</rscale>
<asrwt>0</asrwt>
<pdfrwt beam="1">  1       21 0.57333464E-01 0.22329545E+03</pdfrwt>
<pdfrwt beam="2">  1       21 0.58814056E-01 0.22329545E+03</pdfrwt>
<totfact> 0.75608116E+03</totfact>
</mgrwt>
</event>
<event>
 4    1  0.1132373E+000  0.2076343E+03  0.7546771E-02  0.1143453E+00
         21   -1    0    0  501  502  0.00000000000E+00  0.00000000000E+00  0.39354105557E+03  0.39354105557E+03  0.00000000000E+00 0. -1.
         21   -1    0    0  502  503 -0.00000000000E+00 -0.00000000000E+00 -0.12572249928E+03  0.12572249928E+03  0.00000000000E+00 0.  1.
          6    1    1    2  501    0  0.62956953277E+02 -0.97797970394E+02  0.40786994607E+02  0.21160245724E+03  0.17200000000E+03 0.  1.
         -6    1    1    2    0  503 -0.62956953277E+02  0.97797970394E+02  0.22703156169E+03  0.30766109761E+03  0.17200000000E+03 0. -1.
<mgrwt>
<rscale>  2 0.20763434E+03</rscale>
<asrwt>0</asrwt>
<pdfrwt beam="1">  1       21 0.98385261E-01 0.20763434E+03</pdfrwt>
<pdfrwt beam="2">  1       21 0.31430626E-01 0.20763434E+03</pdfrwt>
<totfact> 0.82111330E+03</totfact>
</mgrwt>
</event>
<event>
 4    1  0.1132373E+000  0.1792936E+03  0.7546771E-02  0.1168488E+00
         21   -1    0    0  501  502  0.00000000000E+00  0.00000000000E+00  0.13744676752E+04  0.13744676752E+04  0.00000000000E+00 0.  1.
         21   -1    0    0  502  503 -0.00000000000E+00 -0.00000000000E+00 -0.14069611893E+03  0.14069611893E+03  0.00000000000E+00 0.  1.
          6    1    1    2  501    0  0.51517090774E+01  0.50355424948E+02  0.13086408482E+04  0.13208660335E+04  0.17200000000E+03 0.  1.
         -6    1    1    2    0  503 -0.51517090774E+01 -0.50355424948E+02 -0.74869291883E+02  0.19429776065E+03  0.17200000000E+03 0.  1.
<mgrwt>
<rscale>  2 0.17929364E+03</rscale>
<asrwt>0</asrwt>
<pdfrwt beam="1">  1       21 0.34361688E+00 0.17929364E+03</pdfrwt>
<pdfrwt beam="2">  1       21 0.35174034E-01 0.17929364E+03</pdfrwt>
<totfact> 0.15212005E+02</totfact>
</mgrwt>
</event>
<event>
 4    1  0.1132373E+000  0.1862656E+03  0.7546771E-02  0.1161873E+00
         21   -1    0    0  503  502  0.00000000000E+00  0.00000000000E+00  0.28754093401E+03  0.28754093401E+03  0.00000000000E+00 0. -1.
         21   -1    0    0  501  503 -0.00000000000E+00 -0.00000000000E+00 -0.12687029013E+03  0.12687029013E+03  0.00000000000E+00 0. -1.
          6    1    1    2  501    0  0.60157645859E+02 -0.38625436171E+02  0.12617651345E+03  0.22497861947E+03  0.17200000000E+03 0. -1.
         -6    1    1    2    0  502 -0.60157645859E+02  0.38625436171E+02  0.34494130435E+02  0.18943260466E+03  0.17200000000E+03 0. -1.
<mgrwt>
<rscale>  2 0.18626558E+03</rscale>
<asrwt>0</asrwt>
<pdfrwt beam="1">  1       21 0.71885232E-01 0.18626558E+03</pdfrwt>
<pdfrwt beam="2">  1       21 0.31717573E-01 0.18626558E+03</pdfrwt>
<totfact> 0.16764630E+04</totfact>
</mgrwt>
</event>
<event>
 4    1  0.1132373E+000  0.2370828E+03  0.7546771E-02  0.1121752E+00
         21   -1    0    0  503  502  0.00000000000E+00  0.00000000000E+00  0.15972797233E+03  0.15972797233E+03  0.00000000000E+00 0.  1.
         21   -1    0    0  501  503 -0.00000000000E+00 -0.00000000000E+00 -0.36817707731E+03  0.36817707731E+03  0.00000000000E+00 0.  1.
          6    1    1    2  501    0 -0.61595749155E+02 -0.15109664294E+03 -0.48725043792E+02  0.24203793445E+03  0.17200000000E+03 0.  1.
         -6    1    1    2    0  502  0.61595749155E+02  0.15109664294E+03 -0.15972406119E+03  0.28586711519E+03  0.17200000000E+03 0.  1.
<mgrwt>
<rscale>  2 0.23708275E+03</rscale>
<asrwt>0</asrwt>
<pdfrwt beam="1">  1       21 0.39931993E-01 0.23708275E+03</pdfrwt>
<pdfrwt beam="2">  1       21 0.92044269E-01 0.23708275E+03</pdfrwt>
<totfact> 0.58395448E+03</totfact>
</mgrwt>
</event>
<event>
 4    1  0.1132373E+000  0.1867339E+03  0.7546771E-02  0.1161441E+00
         21   -1    0    0  501  502  0.00000000000E+00  0.00000000000E+00  0.36374546450E+03  0.36374546450E+03  0.00000000000E+00 0.  1.
         21   -1    0    0  502  503 -0.00000000000E+00 -0.00000000000E+00 -0.95888540252E+02  0.95888540252E+02  0.00000000000E+00 0.  1.
          6    1    1    2  501    0  0.45036451436E+02  0.57072478121E+02  0.13014125984E+03  0.22760996733E+03  0.17200000000E+03 0.  1.
         -6    1    1    2    0  503 -0.45036451436E+02 -0.57072478121E+02  0.13771566441E+03  0.23202403742E+03  0.17200000000E+03 0.  1.
<mgrwt>
<rscale>  2 0.18673390E+03</rscale>
<asrwt>0</asrwt>
<pdfrwt beam="1">  1       21 0.90936363E-01 0.18673390E+03</pdfrwt>
<pdfrwt beam="2">  1       21 0.23972136E-01 0.18673390E+03</pdfrwt>
<totfact> 0.16892279E+04</totfact>
</mgrwt>
</event>
<event>
 4    1  0.1132373E+000  0.1916650E+03  0.7546771E-02  0.1156968E+00
         21   -1    0    0  501  502  0.00000000000E+00  0.00000000000E+00  0.28704911788E+03  0.28704911788E+03  0.00000000000E+00 0.  1.
         21   -1    0    0  502  503 -0.00000000000E+00 -0.00000000000E+00 -0.23962567547E+03  0.23962567547E+03  0.00000000000E+00 0.  1.
          6    1    1    2  501    0 -0.83789303315E+02  0.11438147787E+02  0.20346385264E+03  0.27952283969E+03  0.17200000000E+03 0.  1.
         -6    1    1    2    0  503  0.83789303315E+02 -0.11438147787E+02 -0.15604041023E+03  0.24715195366E+03  0.17200000000E+03 0.  1.
<mgrwt>
<rscale>  2 0.19166502E+03</rscale>
<asrwt>0</asrwt>
<pdfrwt beam="1">  1       21 0.71762279E-01 0.19166502E+03</pdfrwt>
<pdfrwt beam="2">  1       21 0.59906419E-01 0.19166502E+03</pdfrwt>
<totfact> 0.45636309E+03</totfact>
</mgrwt>
</event>
<event>
 4    1  0.1132373E+000  0.1898133E+03  0.7546771E-02  0.1158630E+00
         21   -1    0    0  503  502  0.00000000000E+00  0.00000000000E+00  0.21108176566E+03  0.21108176566E+03  0.00000000000E+00 0.  1.
         21   -1    0    0  501  503 -0.00000000000E+00 -0.00000000000E+00 -0.41928312785E+03  0.41928312785E+03  0.00000000000E+00 0. -1.
          6    1    1    2  501    0 -0.73346123103E+02 -0.32641117574E+02 -0.34679228505E+03  0.39534034110E+03  0.17200000000E+03 0. -1.
         -6    1    1    2    0  502  0.73346123103E+02  0.32641117574E+02  0.13859092286E+03  0.23502455240E+03  0.17200000000E+03 0.  1.
<mgrwt>
<rscale>  2 0.18981332E+03</rscale>
<asrwt>0</asrwt>
<pdfrwt beam="1">  1       21 0.52770442E-01 0.18981332E+03</pdfrwt>
<pdfrwt beam="2">  1       21 0.10482078E+00 0.18981332E+03</pdfrwt>
<totfact> 0.25033300E+03</totfact>
</mgrwt>
</event>
<event>
 4    1  0.1132373E+000  0.1789596E+03  0.7546771E-02  0.1168814E+00
         21   -1    0    0  503  502  0.00000000000E+00  0.00000000000E+00  0.10013115974E+04  0.10013115974E+04  0.00000000000E+00 0.  1.
         21   -1    0    0  501  503 -0.00000000000E+00 -0.00000000000E+00 -0.93776816219E+02  0.93776816219E+02  0.00000000000E+00 0.  1.
          6    1    1    2  501    0  0.15715446708E+02 -0.46856704895E+02  0.93015187553E+01  0.17920112809E+03  0.17200000000E+03 0. -1.
         -6    1    1    2    0  502 -0.15715446708E+02  0.46856704895E+02  0.89823326243E+03  0.91588728553E+03  0.17200000000E+03 0. -1.
<mgrwt>
<rscale>  2 0.17895957E+03</rscale>
<asrwt>0</asrwt>
<pdfrwt beam="1">  1       21 0.25032787E+00 0.17895957E+03</pdfrwt>
<pdfrwt beam="2">  1       21 0.23444207E-01 0.17895957E+03</pdfrwt>
<totfact> 0.11528881E+03</totfact>
</mgrwt>
</event>
<event>
 4    1  0.1132373E+000  0.2284110E+03  0.7546771E-02  0.1127763E+00
         21   -1    0    0  501  502  0.00000000000E+00  0.00000000000E+00  0.13541420531E+03  0.13541420531E+03  0.00000000000E+00 0.  1.
         21   -1    0    0  502  503 -0.00000000000E+00 -0.00000000000E+00 -0.38527478416E+03  0.38527478416E+03  0.00000000000E+00 0.  1.
          6    1    1    2  501    0  0.11800036313E+03 -0.93077890704E+02 -0.12457113873E+03  0.26017215078E+03  0.17200000000E+03 0.  1.
         -6    1    1    2    0  503 -0.11800036313E+03  0.93077890704E+02 -0.12528944011E+03  0.26051683869E+03  0.17200000000E+03 0.  1.
<mgrwt>
<rscale>  2 0.22841099E+03</rscale>
<asrwt>0</asrwt>
<pdfrwt beam="1">  1       21 0.33853552E-01 0.22841099E+03</pdfrwt>
<pdfrwt beam="2">  1       21 0.96318695E-01 0.22841099E+03</pdfrwt>
<totfact> 0.73519255E+03</totfact>
</mgrwt>
</event>
<event>
 4    1  0.1132373E+000  0.1797859E+03  0.7546771E-02  0.1168010E+00
         21   -1    0    0  501  502  0.00000000000E+00  0.00000000000E+00  0.26242120044E+03  0.26242120044E+03  0.00000000000E+00 0. -1.
         21   -1    0    0  502  503 -0.00000000000E+00 -0.00000000000E+00 -0.12318709184E+03  0.12318709184E+03  0.00000000000E+00 0. -1.
          6    1    1    2  501    0 -0.43165558260E+02  0.29592249505E+02  0.71745021089E+02  0.19357250503E+03  0.17200000000E+03 0. -1.
         -6    1    1    2    0  503  0.43165558260E+02 -0.29592249505E+02  0.67489087509E+02  0.19203578725E+03  0.17200000000E+03 0. -1.
<mgrwt>
<rscale>  2 0.17978589E+03</rscale>
<asrwt>0</asrwt>
<pdfrwt beam="1">  1       21 0.65605299E-01 0.17978589E+03</pdfrwt>
<pdfrwt beam="2">  1       21 0.30796773E-01 0.17978589E+03</pdfrwt>
<totfact> 0.21789908E+04</totfact>
</mgrwt>
</event>
<event>
 4    1  0.1132373E+000  0.1918752E+03  0.7546771E-02  0.1156781E+00
         21   -1    0    0  501  502  0.00000000000E+00  0.00000000000E+00  0.17746855669E+03  0.17746855669E+03  0.00000000000E+00 0. -1.
         21   -1    0    0  502  503 -0.00000000000E+00 -0.00000000000E+00 -0.20847793461E+03  0.20847793461E+03  0.00000000000E+00 0.  1.
          6    1    1    2  501    0  0.66038803040E+02 -0.53581372542E+02 -0.29046289609E+02  0.19406126334E+03  0.17200000000E+03 0.  1.
         -6    1    1    2    0  503 -0.66038803040E+02  0.53581372542E+02 -0.19630883144E+01  0.19188522795E+03  0.17200000000E+03 0. -1.
<mgrwt>
<rscale>  2 0.19187519E+03</rscale>
<asrwt>0</asrwt>
<pdfrwt beam="1">  1       21 0.44367139E-01 0.19187519E+03</pdfrwt>
<pdfrwt beam="2">  1       21 0.52119483E-01 0.19187519E+03</pdfrwt>
<totfact> 0.17051579E+04</totfact>
</mgrwt>
</event>
<event>
 4    1  0.1132373E+000  0.2239835E+03  0.7546771E-02  0.1130948E+00
         21   -1    0    0  503  502  0.00000000000E+00  0.00000000000E+00  0.24817122282E+03  0.24817122282E+03  0.00000000000E+00 0. -1.
         21   -1    0    0  501  503 -0.00000000000E+00 -0.00000000000E+00 -0.20456975020E+03  0.20456975020E+03  0.00000000000E+00 0. -1.
          6    1    1    2  501    0  0.80832105241E+02  0.11853598249E+03 -0.28027385621E+01  0.22400103510E+03  0.17200000000E+03 0. -1.
         -6    1    1    2    0  502 -0.80832105241E+02 -0.11853598249E+03  0.46404211190E+02  0.22873993792E+03  0.17200000000E+03 0. -1.
<mgrwt>
<rscale>  2 0.22398350E+03</rscale>
<asrwt>0</asrwt>
<pdfrwt beam="1">  1       21 0.62042805E-01 0.22398350E+03</pdfrwt>
<pdfrwt beam="2">  1       21 0.51142438E-01 0.22398350E+03</pdfrwt>
<totfact> 0.85788205E+03</totfact>
</mgrwt>
</event>
<event>
 4    1  0.1132373E+000  0.1955081E+03  0.7546771E-02  0.1153585E+00
         21   -1    0    0  501  502  0.00000000000E+00  0.00000000000E+00  0.64438828455E+02  0.64438828455E+02  0.00000000000E+00 0.  1.
         21   -1    0    0  502  503 -0.00000000000E+00 -0.00000000000E+00 -0.11027078271E+04  0.11027078271E+04  0.00000000000E+00 0.  1.
          6    1    1    2  501    0  0.57912021934E+02  0.72702214554E+02 -0.12244393479E+03  0.23068578511E+03  0.17200000000E+03 0.  1.
         -6    1    1    2    0  503 -0.57912021934E+02 -0.72702214554E+02 -0.91582506383E+03  0.93646087042E+03  0.17200000000E+03 0.  1.
<mgrwt>
<rscale>  2 0.19550809E+03</rscale>
<asrwt>0</asrwt>
<pdfrwt beam="1">  1       21 0.16109707E-01 0.19550809E+03</pdfrwt>
<pdfrwt beam="2">  1       21 0.27567696E+00 0.19550809E+03</pdfrwt>
<totfact> 0.16172860E+03</totfact>
</mgrwt>
</event>
<event>
 4    1  0.1132373E+000  0.2254685E+03  0.7546771E-02  0.1129870E+00
         21   -1    0    0  503  502  0.00000000000E+00  0.00000000000E+00  0.98224581154E+02  0.98224581154E+02  0.00000000000E+00 0.  1.
         21   -1    0    0  501  503 -0.00000000000E+00 -0.00000000000E+00 -0.62123788049E+03  0.62123788049E+03  0.00000000000E+00 0.  1.
          6    1    1    2  501    0  0.76608357834E+02 -0.12402912367E+03 -0.11454141021E+03  0.25289483716E+03  0.17200000000E+03 0.  1.
         -6    1    1    2    0  502 -0.76608357834E+02  0.12402912367E+03 -0.40847188913E+03  0.46656762448E+03  0.17200000000E+03 0.  1.
<mgrwt>
<rscale>  2 0.22546854E+03</rscale>
<asrwt>0</asrwt>
<pdfrwt beam="1">  1       21 0.24556146E-01 0.22546854E+03</pdfrwt>
<pdfrwt beam="2">  1       21 0.15530947E+00 0.22546854E+03</pdfrwt>
<totfact> 0.41581597E+03</totfact>
</mgrwt>
</event>
<event>
 4    1  0.1132373E+000  0.1912593E+03  0.7546771E-02  0.1157330E+00
         21   -1    0    0  501  502  0.00000000000E+00  0.00000000000E+00  0.16201438431E+03  0.16201438431E+03  0.00000000000E+00 0. -1.
         21   -1    0    0  502  503 -0.00000000000E+00 -0.00000000000E+00 -0.22602981848E+03  0.22602981848E+03  0.00000000000E+00 0.  1.
          6    1    1    2  501    0 -0.49237610598E+02 -0.67614840822E+02 -0.25597477380E+02  0.19296460775E+03  0.17200000000E+03 0.  1.
         -6    1    1    2    0  503  0.49237610598E+02  0.67614840822E+02 -0.38417956789E+02  0.19507959504E+03  0.17200000000E+03 0. -1.
<mgrwt>
<rscale>  2 0.19125927E+03</rscale>
<asrwt>0</asrwt>
<pdfrwt beam="1">  1       21 0.40503596E-01 0.19125927E+03</pdfrwt>
<pdfrwt beam="2">  1       21 0.56507455E-01 0.19125927E+03</pdfrwt>
<totfact> 0.17313838E+04</totfact>
</mgrwt>
</event>
<event>
 4    1  0.1132373E+000  0.1733778E+03  0.7546771E-02  0.1174370E+00
         21   -1    0    0  501  502  0.00000000000E+00  0.00000000000E+00  0.57593162928E+03  0.57593162928E+03  0.00000000000E+00 0. -1.
         21   -1    0    0  502  503 -0.00000000000E+00 -0.00000000000E+00 -0.71667490256E+02  0.71667490256E+02  0.00000000000E+00 0. -1.
          6    1    1    2  501    0  0.14702652503E+02  0.16115339368E+02  0.42092059805E+03  0.45522963657E+03  0.17200000000E+03 0. -1.
         -6    1    1    2    0  503 -0.14702652503E+02 -0.16115339368E+02  0.83343540977E+02  0.19236948296E+03  0.17200000000E+03 0. -1.
<mgrwt>
<rscale>  2 0.17337783E+03</rscale>
<asrwt>0</asrwt>
<pdfrwt beam="1">  1       21 0.14398289E+00 0.17337783E+03</pdfrwt>
<pdfrwt beam="2">  1       21 0.17916874E-01 0.17337783E+03</pdfrwt>
<totfact> 0.95636107E+03</totfact>
</mgrwt>
</event>
<event>
 4    1  0.1132373E+000  0.1812136E+03  0.7546771E-02  0.1166634E+00
         21   -1    0    0  501  502  0.00000000000E+00  0.00000000000E+00  0.16014936135E+03  0.16014936135E+03  0.00000000000E+00 0.  1.
         21   -1    0    0  502  503 -0.00000000000E+00 -0.00000000000E+00 -0.25547896451E+03  0.25547896451E+03  0.00000000000E+00 0.  1.
          6    1    1    2  501    0  0.51044086119E+02  0.25473181211E+02  0.44665483675E+02  0.18663704648E+03  0.17200000000E+03 0.  1.
         -6    1    1    2    0  503 -0.51044086119E+02 -0.25473181211E+02 -0.13999508684E+03  0.22899127937E+03  0.17200000000E+03 0.  1.
<mgrwt>
<rscale>  2 0.18121364E+03</rscale>
<asrwt>0</asrwt>
<pdfrwt beam="1">  1       21 0.40037341E-01 0.18121364E+03</pdfrwt>
<pdfrwt beam="2">  1       21 0.63869741E-01 0.18121364E+03</pdfrwt>
<totfact> 0.13714069E+04</totfact>
</mgrwt>
</event>
<event>
 4    1  0.1132373E+000  0.2104581E+03  0.7546771E-02  0.1141204E+00
         21   -1    0    0  503  502  0.00000000000E+00  0.00000000000E+00  0.69151815585E+03  0.69151815585E+03  0.00000000000E+00 0.  1.
         21   -1    0    0  501  503 -0.00000000000E+00 -0.00000000000E+00 -0.64907563755E+02  0.64907563755E+02  0.00000000000E+00 0.  1.
          6    1    1    2  501    0  0.10032221881E+03  0.68147388303E+02  0.26986420189E+03  0.34222697378E+03  0.17200000000E+03 0.  1.
         -6    1    1    2    0  502 -0.10032221881E+03 -0.68147388303E+02  0.35674639020E+03  0.41419874582E+03  0.17200000000E+03 0.  1.
<mgrwt>
<rscale>  2 0.21045811E+03</rscale>
<asrwt>0</asrwt>
<pdfrwt beam="1">  1       21 0.17287952E+00 0.21045811E+03</pdfrwt>
<pdfrwt beam="2">  1       21 0.16226893E-01 0.21045811E+03</pdfrwt>
<totfact> 0.68216833E+03</totfact>
</mgrwt>
</event>
<event>
 4    1  0.1132373E+000  0.1789264E+03  0.7546771E-02  0.1168846E+00
         21   -1    0    0  501  502  0.00000000000E+00  0.00000000000E+00  0.45903544770E+03  0.45903544770E+03  0.00000000000E+00 0.  1.
         21   -1    0    0  502  503 -0.00000000000E+00 -0.00000000000E+00 -0.75674727869E+02  0.75674727869E+02  0.00000000000E+00 0.  1.
          6    1    1    2  501    0 -0.37094919826E+02 -0.32475169895E+02  0.26653019154E+03  0.32101871088E+03  0.17200000000E+03 0. -1.
         -6    1    1    2    0  503  0.37094919826E+02  0.32475169895E+02  0.11683052829E+03  0.21369146468E+03  0.17200000000E+03 0. -1.
<mgrwt>
<rscale>  2 0.17892644E+03</rscale>
<asrwt>0</asrwt>
<pdfrwt beam="1">  1       21 0.11475885E+00 0.17892644E+03</pdfrwt>
<pdfrwt beam="2">  1       21 0.18918683E-01 0.17892644E+03</pdfrwt>
<totfact> 0.15225616E+04</totfact>
</mgrwt>
</event>
<event>
 4    1  0.1132373E+000  0.2458122E+03  0.7546771E-02  0.1115980E+00
         21   -1    0    0  503  502  0.00000000000E+00  0.00000000000E+00  0.41040732010E+03  0.41040732010E+03  0.00000000000E+00 0. -1.
         21   -1    0    0  501  503 -0.00000000000E+00 -0.00000000000E+00 -0.35257335899E+03  0.35257335899E+03  0.00000000000E+00 0. -1.
          6    1    1    2  501    0  0.11101914015E+03  0.13606760874E+03 -0.26222225841E+03  0.35942197545E+03  0.17200000000E+03 0. -1.
         -6    1    1    2    0  502 -0.11101914015E+03 -0.13606760874E+03  0.32005621952E+03  0.40355870364E+03  0.17200000000E+03 0. -1.
<mgrwt>
<rscale>  2 0.24581221E+03</rscale>
<asrwt>0</asrwt>
<pdfrwt beam="1">  1       21 0.10260183E+00 0.24581221E+03</pdfrwt>
<pdfrwt beam="2">  1       21 0.88143340E-01 0.24581221E+03</pdfrwt>
<totfact> 0.81000109E+02</totfact>
</mgrwt>
</event>
<event>
 4    1  0.1132373E+000  0.1791488E+03  0.7546771E-02  0.1168629E+00
         21   -1    0    0  501  502  0.00000000000E+00  0.00000000000E+00  0.17571449684E+03  0.17571449684E+03  0.00000000000E+00 0. -1.
         21   -1    0    0  502  503 -0.00000000000E+00 -0.00000000000E+00 -0.28691430935E+03  0.28691430935E+03  0.00000000000E+00 0. -1.
          6    1    1    2  501    0  0.45479087729E+02  0.21022489938E+02  0.83842200827E+02  0.19779738912E+03  0.17200000000E+03 0. -1.
         -6    1    1    2    0  503 -0.45479087729E+02 -0.21022489938E+02 -0.19504201334E+03  0.26483141707E+03  0.17200000000E+03 0. -1.
<mgrwt>
<rscale>  2 0.17914880E+03</rscale>
<asrwt>0</asrwt>
<pdfrwt beam="1">  1       21 0.43928625E-01 0.17914880E+03</pdfrwt>
<pdfrwt beam="2">  1       21 0.71728577E-01 0.17914880E+03</pdfrwt>
<totfact> 0.88256445E+03</totfact>
</mgrwt>
</event>
<event>
 4    1  0.1132373E+000  0.2741156E+03  0.7546771E-02  0.1098947E+00
         21   -1    0    0  501  502  0.00000000000E+00  0.00000000000E+00  0.83448336444E+02  0.83448336444E+02  0.00000000000E+00 0. -1.
         21   -1    0    0  502  503 -0.00000000000E+00 -0.00000000000E+00 -0.91310992659E+03  0.91310992659E+03  0.00000000000E+00 0.  1.
          6    1    1    2  501    0  0.19773867854E+03 -0.80341784930E+02 -0.47354851246E+03  0.54716321244E+03  0.17200000000E+03 0.  1.
         -6    1    1    2    0  503 -0.19773867854E+03  0.80341784930E+02 -0.35611307768E+03  0.44939505059E+03  0.17200000000E+03 0. -1.
<mgrwt>
<rscale>  2 0.27411565E+03</rscale>
<asrwt>0</asrwt>
<pdfrwt beam="1">  1       21 0.20862084E-01 0.27411565E+03</pdfrwt>
<pdfrwt beam="2">  1       21 0.22827748E+00 0.27411565E+03</pdfrwt>
<totfact> 0.17699754E+03</totfact>
</mgrwt>
</event>
<event>
 4    1  0.1132373E+000  0.1899904E+03  0.7546771E-02  0.1158470E+00
         21   -1    0    0  501  502  0.00000000000E+00  0.00000000000E+00  0.10072711712E+03  0.10072711712E+03  0.00000000000E+00 0.  1.
         21   -1    0    0  502  503 -0.00000000000E+00 -0.00000000000E+00 -0.40176088872E+03  0.40176088872E+03  0.00000000000E+00 0.  1.
          6    1    1    2  501    0 -0.22336880909E+02 -0.77546158884E+02 -0.67937348168E+02  0.20177171824E+03  0.17200000000E+03 0.  1.
         -6    1    1    2    0  503  0.22336880909E+02  0.77546158884E+02 -0.23309642343E+03  0.30071628759E+03  0.17200000000E+03 0.  1.
<mgrwt>
<rscale>  2 0.18999038E+03</rscale>
<asrwt>0</asrwt>
<pdfrwt beam="1">  1       21 0.25181780E-01 0.18999038E+03</pdfrwt>
<pdfrwt beam="2">  1       21 0.10044022E+00 0.18999038E+03</pdfrwt>
<totfact> 0.12158888E+04</totfact>
</mgrwt>
</event>
<event>
 4    1  0.1132373E+000  0.1726281E+03  0.7546771E-02  0.1175135E+00
         21   -1    0    0  503  502  0.00000000000E+00  0.00000000000E+00  0.48666319864E+03  0.48666319864E+03  0.00000000000E+00 0. -1.
         21   -1    0    0  501  503 -0.00000000000E+00 -0.00000000000E+00 -0.69367570259E+02  0.69367570259E+02  0.00000000000E+00 0. -1.
          6    1    1    2  501    0 -0.71603959056E+01  0.12852797142E+02  0.11345065413E+03  0.20657085125E+03  0.17200000000E+03 0. -1.
         -6    1    1    2    0  502  0.71603959056E+01 -0.12852797142E+02  0.30384497425E+03  0.34945991765E+03  0.17200000000E+03 0. -1.
<mgrwt>
<rscale>  2 0.17262811E+03</rscale>
<asrwt>0</asrwt>
<pdfrwt beam="1">  1       21 0.12166579E+00 0.17262811E+03</pdfrwt>
<pdfrwt beam="2">  1       21 0.17341894E-01 0.17262811E+03</pdfrwt>
<totfact> 0.15559026E+04</totfact>
</mgrwt>
</event>
<event>
 4    1  0.1132373E+000  0.1844879E+03  0.7546771E-02  0.1163529E+00
         21   -1    0    0  501  502  0.00000000000E+00  0.00000000000E+00  0.82632036571E+03  0.82632036571E+03  0.00000000000E+00 0. -1.
         21   -1    0    0  502  503 -0.00000000000E+00 -0.00000000000E+00 -0.11464083731E+03  0.11464083731E+03  0.00000000000E+00 0. -1.
          6    1    1    2  501    0  0.19946552969E+02  0.63670417807E+02  0.73243226738E+03  0.75530974665E+03  0.17200000000E+03 0. -1.
         -6    1    1    2    0  503 -0.19946552969E+02 -0.63670417807E+02 -0.20752738984E+02  0.18565145638E+03  0.17200000000E+03 0. -1.
<mgrwt>
<rscale>  2 0.18448790E+03</rscale>
<asrwt>0</asrwt>
<pdfrwt beam="1">  1       21 0.20658007E+00 0.18448790E+03</pdfrwt>
<pdfrwt beam="2">  1       21 0.28660212E-01 0.18448790E+03</pdfrwt>
<totfact> 0.14329930E+03</totfact>
</mgrwt>
</event>
<event>
 4    1  0.1132373E+000  0.1832407E+03  0.7546771E-02  0.1164703E+00
         21   -1    0    0  503  502  0.00000000000E+00  0.00000000000E+00  0.13814022858E+03  0.13814022858E+03  0.00000000000E+00 0.  1.
         21   -1    0    0  501  503 -0.00000000000E+00 -0.00000000000E+00 -0.34160900187E+03  0.34160900187E+03  0.00000000000E+00 0. -1.
          6    1    1    2  501    0 -0.10605351863E+02 -0.62295218358E+02 -0.23056911079E+03  0.29451533503E+03  0.17200000000E+03 0. -1.
         -6    1    1    2    0  502  0.10605351863E+02  0.62295218358E+02  0.27100337509E+02  0.18523389542E+03  0.17200000000E+03 0.  1.
<mgrwt>
<rscale>  2 0.18324074E+03</rscale>
<asrwt>0</asrwt>
<pdfrwt beam="1">  1       21 0.34535057E-01 0.18324074E+03</pdfrwt>
<pdfrwt beam="2">  1       21 0.85402250E-01 0.18324074E+03</pdfrwt>
<totfact> 0.96424754E+03</totfact>
</mgrwt>
</event>
<event>
 4    1  0.1132373E+000  0.2310240E+03  0.7546771E-02  0.1125921E+00
         21   -1    0    0  503  502  0.00000000000E+00  0.00000000000E+00  0.15375001601E+03  0.15375001601E+03  0.00000000000E+00 0. -1.
         21   -1    0    0  501  503 -0.00000000000E+00 -0.00000000000E+00 -0.38601600524E+03  0.38601600524E+03  0.00000000000E+00 0.  1.
          6    1    1    2  501    0 -0.12425463629E+03  0.91372215488E+02 -0.20178520196E+03  0.30673989654E+03  0.17200000000E+03 0.  1.
         -6    1    1    2    0  502  0.12425463629E+03 -0.91372215488E+02 -0.30480787269E+02  0.23302612471E+03  0.17200000000E+03 0. -1.
<mgrwt>
<rscale>  2 0.23102402E+03</rscale>
<asrwt>0</asrwt>
<pdfrwt beam="1">  1       21 0.38437504E-01 0.23102402E+03</pdfrwt>
<pdfrwt beam="2">  1       21 0.96504001E-01 0.23102402E+03</pdfrwt>
<totfact> 0.56665799E+03</totfact>
</mgrwt>
</event>
<event>
 4    1  0.1132373E+000  0.1773925E+03  0.7546771E-02  0.1170351E+00
         21   -1    0    0  503  502  0.00000000000E+00  0.00000000000E+00  0.76912974891E+02  0.76912974891E+02  0.00000000000E+00 0.  1.
         21   -1    0    0  501  503 -0.00000000000E+00 -0.00000000000E+00 -0.88398721942E+03  0.88398721942E+03  0.00000000000E+00 0.  1.
          6    1    1    2  501    0  0.94448603862E+01 -0.42366028600E+02 -0.75566691409E+03  0.77620910251E+03  0.17200000000E+03 0.  1.
         -6    1    1    2    0  502 -0.94448603862E+01  0.42366028600E+02 -0.51407330433E+02  0.18469109180E+03  0.17200000000E+03 0.  1.
<mgrwt>
<rscale>  2 0.17739246E+03</rscale>
<asrwt>0</asrwt>
<pdfrwt beam="1">  1       21 0.19228244E-01 0.17739246E+03</pdfrwt>
<pdfrwt beam="2">  1       21 0.22099680E+00 0.17739246E+03</pdfrwt>
<totfact> 0.25054294E+03</totfact>
</mgrwt>
</event>
<event>
 4    1  0.1132373E+000  0.1806199E+03  0.7546771E-02  0.1167204E+00
         21   -1    0    0  503  502  0.00000000000E+00  0.00000000000E+00  0.44392758075E+03  0.44392758075E+03  0.00000000000E+00 0.  1.
         21   -1    0    0  501  503 -0.00000000000E+00 -0.00000000000E+00 -0.78448217592E+02  0.78448217592E+02  0.00000000000E+00 0.  1.
          6    1    1    2  501    0 -0.24431368093E+01 -0.55077869467E+02  0.11706573997E+03  0.21523923457E+03  0.17200000000E+03 0.  1.
         -6    1    1    2    0  502  0.24431368093E+01  0.55077869467E+02  0.24841362318E+03  0.30713656377E+03  0.17200000000E+03 0.  1.
<mgrwt>
<rscale>  2 0.18061988E+03</rscale>
<asrwt>0</asrwt>
<pdfrwt beam="1">  1       21 0.11098189E+00 0.18061988E+03</pdfrwt>
<pdfrwt beam="2">  1       21 0.19612056E-01 0.18061988E+03</pdfrwt>
<totfact> 0.15426505E+04</totfact>
</mgrwt>
</event>
<event>
 4    1  0.1132373E+000  0.2280730E+03  0.7546771E-02  0.1128003E+00
         21   -1    0    0  503  502  0.00000000000E+00  0.00000000000E+00  0.37664619752E+03  0.37664619752E+03  0.00000000000E+00 0.  1.
         21   -1    0    0  501  503 -0.00000000000E+00 -0.00000000000E+00 -0.15665836978E+03  0.15665836978E+03  0.00000000000E+00 0.  1.
          6    1    1    2  501    0 -0.42542127030E+02  0.14360863046E+03  0.20175591383E+03  0.30450405594E+03  0.17200000000E+03 0.  1.
         -6    1    1    2    0  502  0.42542127030E+02 -0.14360863046E+03  0.18231913908E+02  0.22880051136E+03  0.17200000000E+03 0.  1.
<mgrwt>
<rscale>  2 0.22807295E+03</rscale>
<asrwt>0</asrwt>
<pdfrwt beam="1">  1       21 0.94161548E-01 0.22807295E+03</pdfrwt>
<pdfrwt beam="2">  1       21 0.39164593E-01 0.22807295E+03</pdfrwt>
<totfact> 0.57927377E+03</totfact>
</mgrwt>
</event>
<event>
 4    1  0.1132373E+000  0.1724537E+03  0.7546771E-02  0.1175313E+00
         21   -1    0    0  501  502  0.00000000000E+00  0.00000000000E+00  0.24854358073E+03  0.24854358073E+03  0.00000000000E+00 0.  1.
         21   -1    0    0  502  503 -0.00000000000E+00 -0.00000000000E+00 -0.15169942804E+03  0.15169942804E+03  0.00000000000E+00 0.  1.
          6    1    1    2  501    0  0.84070863154E+01 -0.92522490430E+01  0.14039419856E+03  0.22237539028E+03  0.17200000000E+03 0.  1.
         -6    1    1    2    0  503 -0.84070863154E+01  0.92522490430E+01 -0.43550045869E+02  0.17786761849E+03  0.17200000000E+03 0.  1.
<mgrwt>
<rscale>  2 0.17245371E+03</rscale>
<asrwt>0</asrwt>
<pdfrwt beam="1">  1       21 0.62135895E-01 0.17245371E+03</pdfrwt>
<pdfrwt beam="2">  1       21 0.37924857E-01 0.17245371E+03</pdfrwt>
<totfact> 0.16322483E+04</totfact>
</mgrwt>
</event>
<event>
 4    1  0.1132373E+000  0.1901284E+03  0.7546771E-02  0.1158346E+00
         21   -1    0    0  501  502  0.00000000000E+00  0.00000000000E+00  0.32764335996E+03  0.32764335996E+03  0.00000000000E+00 0.  1.
         21   -1    0    0  502  503 -0.00000000000E+00 -0.00000000000E+00 -0.11915369254E+03  0.11915369254E+03  0.00000000000E+00 0.  1.
          6    1    1    2  501    0  0.79552122528E+02 -0.15371165512E+02  0.16503840635E+03  0.25176673429E+03  0.17200000000E+03 0.  1.
         -6    1    1    2    0  503 -0.79552122528E+02  0.15371165512E+02  0.43451261078E+02  0.19503031820E+03  0.17200000000E+03 0.  1.
<mgrwt>
<rscale>  2 0.19012841E+03</rscale>
<asrwt>0</asrwt>
<pdfrwt beam="1">  1       21 0.81910838E-01 0.19012841E+03</pdfrwt>
<pdfrwt beam="2">  1       21 0.29788424E-01 0.19012841E+03</pdfrwt>
<totfact> 0.14109195E+04</totfact>
</mgrwt>
</event>
<event>
 4    1  0.1132373E+000  0.3800505E+03  0.7546771E-02  0.1050915E+00
         21   -1    0    0  503  502  0.00000000000E+00  0.00000000000E+00  0.29432270305E+03  0.29432270305E+03  0.00000000000E+00 0.  1.
         21   -1    0    0  501  503 -0.00000000000E+00 -0.00000000000E+00 -0.67075731941E+03  0.67075731941E+03  0.00000000000E+00 0. -1.
          6    1    1    2  501    0  0.23714995293E+03 -0.24210386853E+03 -0.43819294445E+03  0.58004434304E+03  0.17200000000E+03 0. -1.
         -6    1    1    2    0  502 -0.23714995293E+03  0.24210386853E+03  0.61758328086E+02  0.38503567941E+03  0.17200000000E+03 0.  1.
<mgrwt>
<rscale>  2 0.38005050E+03</rscale>
<asrwt>0</asrwt>
<pdfrwt beam="1">  1       21 0.73580676E-01 0.38005050E+03</pdfrwt>
<pdfrwt beam="2">  1       21 0.16768933E+00 0.38005050E+03</pdfrwt>
<totfact> 0.31366274E+02</totfact>
</mgrwt>
</event>
<event>
 4    1  0.1132373E+000  0.2044810E+03  0.7546771E-02  0.1146013E+00
         21   -1    0    0  503  502  0.00000000000E+00  0.00000000000E+00  0.63197579381E+02  0.63197579381E+02  0.00000000000E+00 0.  1.
         21   -1    0    0  501  503 -0.00000000000E+00 -0.00000000000E+00 -0.16734456743E+04  0.16734456743E+04  0.00000000000E+00 0.  1.
          6    1    1    2  501    0  0.92166522674E+02 -0.61104908527E+02 -0.14803182290E+04  0.14943742961E+04  0.17200000000E+03 0.  1.
         -6    1    1    2    0  502 -0.92166522674E+02  0.61104908527E+02 -0.12992986592E+03  0.24226895758E+03  0.17200000000E+03 0.  1.
<mgrwt>
<rscale>  2 0.20448100E+03</rscale>
<asrwt>0</asrwt>
<pdfrwt beam="1">  1       21 0.15799395E-01 0.20448100E+03</pdfrwt>
<pdfrwt beam="2">  1       21 0.41836142E+00 0.20448100E+03</pdfrwt>
<totfact> 0.23357178E+02</totfact>
</mgrwt>
</event>
<event>
 4    1  0.1132373E+000  0.3555564E+03  0.7546771E-02  0.1060357E+00
         21   -1    0    0  501  502  0.00000000000E+00  0.00000000000E+00  0.32620812219E+03  0.32620812219E+03  0.00000000000E+00 0.  1.
         21   -1    0    0  502  503 -0.00000000000E+00 -0.00000000000E+00 -0.70390368192E+03  0.70390368192E+03  0.00000000000E+00 0. -1.
          6    1    1    2  501    0  0.15893525370E+03  0.26753686219E+03  0.15644500258E+03  0.38845260500E+03  0.17200000000E+03 0.  1.
         -6    1    1    2    0  503 -0.15893525370E+03 -0.26753686219E+03 -0.53414056230E+03  0.64165919911E+03  0.17200000000E+03 0. -1.
<mgrwt>
<rscale>  2 0.35555645E+03</rscale>
<asrwt>0</asrwt>
<pdfrwt beam="1">  1       21 0.81552031E-01 0.35555645E+03</pdfrwt>
<pdfrwt beam="2">  1       21 0.17597592E+00 0.35555645E+03</pdfrwt>
<totfact> 0.21962233E+02</totfact>
</mgrwt>
</event>
<event>
 4    1  0.1132373E+000  0.1744106E+03  0.7546771E-02  0.1173325E+00
         21   -1    0    0  501  502  0.00000000000E+00  0.00000000000E+00  0.13370875162E+03  0.13370875162E+03  0.00000000000E+00 0.  1.
         21   -1    0    0  502  503 -0.00000000000E+00 -0.00000000000E+00 -0.23350337151E+03  0.23350337151E+03  0.00000000000E+00 0.  1.
          6    1    1    2  501    0  0.26384267490E+02  0.11786573636E+02 -0.79331606218E+02  0.19160521035E+03  0.17200000000E+03 0.  1.
         -6    1    1    2    0  503 -0.26384267490E+02 -0.11786573636E+02 -0.20463013674E+02  0.17560691278E+03  0.17200000000E+03 0.  1.
<mgrwt>
<rscale>  2 0.17441059E+03</rscale>
<asrwt>0</asrwt>
<pdfrwt beam="1">  1       21 0.33427188E-01 0.17441059E+03</pdfrwt>
<pdfrwt beam="2">  1       21 0.58375843E-01 0.17441059E+03</pdfrwt>
<totfact> 0.23938413E+04</totfact>
</mgrwt>
</event>
<event>
 4    1  0.1132373E+000  0.2249486E+03  0.7546771E-02  0.1130247E+00
         21   -1    0    0  503  502  0.00000000000E+00  0.00000000000E+00  0.13702645844E+03  0.13702645844E+03  0.00000000000E+00 0. -1.
         21   -1    0    0  501  503 -0.00000000000E+00 -0.00000000000E+00 -0.78299830208E+03  0.78299830208E+03  0.00000000000E+00 0. -1.
          6    1    1    2  501    0 -0.75007015453E+02 -0.12406374514E+03 -0.65736466616E+03  0.69478785938E+03  0.17200000000E+03 0. -1.
         -6    1    1    2    0  502  0.75007015453E+02  0.12406374514E+03  0.11392822526E+02  0.22523690113E+03  0.17200000000E+03 0. -1.
<mgrwt>
<rscale>  2 0.22494858E+03</rscale>
<asrwt>0</asrwt>
<pdfrwt beam="1">  1       21 0.34256615E-01 0.22494858E+03</pdfrwt>
<pdfrwt beam="2">  1       21 0.19574957E+00 0.22494858E+03</pdfrwt>
<totfact> 0.11356569E+03</totfact>
</mgrwt>
</event>
<event>
 4    1  0.1132373E+000  0.1846251E+03  0.7546771E-02  0.1163400E+00
         21   -1    0    0  501  502  0.00000000000E+00  0.00000000000E+00  0.21066123610E+03  0.21066123610E+03  0.00000000000E+00 0. -1.
         21   -1    0    0  502  503 -0.00000000000E+00 -0.00000000000E+00 -0.16756585669E+03  0.16756585669E+03  0.00000000000E+00 0. -1.
          6    1    1    2  501    0  0.66540951136E+02  0.86447355309E+01  0.56607044173E+02  0.19310822634E+03  0.17200000000E+03 0.  1.
         -6    1    1    2    0  503 -0.66540951136E+02 -0.86447355309E+01 -0.13511664769E+02  0.18511886645E+03  0.17200000000E+03 0.  1.
<mgrwt>
<rscale>  2 0.18462511E+03</rscale>
<asrwt>0</asrwt>
<pdfrwt beam="1">  1       21 0.52665309E-01 0.18462511E+03</pdfrwt>
<pdfrwt beam="2">  1       21 0.41891464E-01 0.18462511E+03</pdfrwt>
<totfact> 0.18837856E+04</totfact>
</mgrwt>
</event>
<event>
 4    1  0.1132373E+000  0.1735428E+03  0.7546771E-02  0.1174203E+00
         21   -1    0    0  501  502  0.00000000000E+00  0.00000000000E+00  0.35053900282E+03  0.35053900282E+03  0.00000000000E+00 0.  1.
         21   -1    0    0  502  503 -0.00000000000E+00 -0.00000000000E+00 -0.97463914830E+02  0.97463914830E+02  0.00000000000E+00 0.  1.
          6    1    1    2  501    0  0.20107873279E+02  0.11347334063E+02  0.20364050786E+03  0.26755662018E+03  0.17200000000E+03 0.  1.
         -6    1    1    2    0  503 -0.20107873279E+02 -0.11347334063E+02  0.49434580121E+02  0.18044629747E+03  0.17200000000E+03 0.  1.
<mgrwt>
<rscale>  2 0.17354276E+03</rscale>
<asrwt>0</asrwt>
<pdfrwt beam="1">  1       21 0.87634748E-01 0.17354276E+03</pdfrwt>
<pdfrwt beam="2">  1       21 0.24365980E-01 0.17354276E+03</pdfrwt>
<totfact> 0.17987681E+04</totfact>
</mgrwt>
</event>
<event>
 4    1  0.1132373E+000  0.1894944E+03  0.7546771E-02  0.1158918E+00
         21   -1    0    0  501  502  0.00000000000E+00  0.00000000000E+00  0.15908769191E+03  0.15908769191E+03  0.00000000000E+00 0. -1.
         21   -1    0    0  502  503 -0.00000000000E+00 -0.00000000000E+00 -0.31735960855E+03  0.31735960855E+03  0.00000000000E+00 0. -1.
          6    1    1    2  501    0  0.75341635175E+02 -0.25451427421E+02  0.48881025747E+02  0.19569744972E+03  0.17200000000E+03 0. -1.
         -6    1    1    2    0  503 -0.75341635175E+02  0.25451427421E+02 -0.20715294239E+03  0.28074985074E+03  0.17200000000E+03 0. -1.
<mgrwt>
<rscale>  2 0.18949443E+03</rscale>
<asrwt>0</asrwt>
<pdfrwt beam="1">  1       21 0.39771923E-01 0.18949443E+03</pdfrwt>
<pdfrwt beam="2">  1       21 0.79339902E-01 0.18949443E+03</pdfrwt>
<totfact> 0.85584000E+03</totfact>
</mgrwt>
</event>
<event>
 4    1  0.1132373E+000  0.2080338E+03  0.7546771E-02  0.1143133E+00
         21   -1    0    0  503  502  0.00000000000E+00  0.00000000000E+00  0.18243225838E+03  0.18243225838E+03  0.00000000000E+00 0.  1.
         21   -1    0    0  501  503 -0.00000000000E+00 -0.00000000000E+00 -0.69113154094E+03  0.69113154094E+03  0.00000000000E+00 0.  1.
          6    1    1    2  501    0  0.58927932687E+02  0.10110165546E+03 -0.60831930669E+03  0.64290778879E+03  0.17200000000E+03 0.  1.
         -6    1    1    2    0  502 -0.58927932687E+02 -0.10110165546E+03  0.99620024130E+02  0.23065601054E+03  0.17200000000E+03 0.  1.
<mgrwt>
<rscale>  2 0.20803376E+03</rscale>
<asrwt>0</asrwt>
<pdfrwt beam="1">  1       21 0.45608065E-01 0.20803376E+03</pdfrwt>
<pdfrwt beam="2">  1       21 0.17278288E+00 0.20803376E+03</pdfrwt>
<totfact> 0.92522711E+02</totfact>
</mgrwt>
</event>
<event>
 4    1  0.1132373E+000  0.2676775E+03  0.7546771E-02  0.1102616E+00
         21   -1    0    0  501  502  0.00000000000E+00  0.00000000000E+00  0.82478850702E+03  0.82478850702E+03  0.00000000000E+00 0. -1.
         21   -1    0    0  502  503 -0.00000000000E+00 -0.00000000000E+00 -0.10365822463E+03  0.10365822463E+03  0.00000000000E+00 0.  1.
          6    1    1    2  501    0  0.18120733699E+03  0.96078974852E+02  0.17375611997E+03  0.31912765097E+03  0.17200000000E+03 0.  1.
         -6    1    1    2    0  503 -0.18120733699E+03 -0.96078974852E+02  0.54737416242E+03  0.60931908068E+03  0.17200000000E+03 0. -1.
<mgrwt>
<rscale>  2 0.26767755E+03</rscale>
<asrwt>0</asrwt>
<pdfrwt beam="1">  1       21 0.20619711E+00 0.26767755E+03</pdfrwt>
<pdfrwt beam="2">  1       21 0.25914559E-01 0.26767755E+03</pdfrwt>
<totfact> 0.16178359E+03</totfact>
</mgrwt>
</event>
<event>
 4    1  0.1132373E+000  0.1857069E+03  0.7546771E-02  0.1162391E+00
         21   -1    0    0  503  502  0.00000000000E+00  0.00000000000E+00  0.42034138579E+03  0.42034138579E+03  0.00000000000E+00 0. -1.
         21   -1    0    0  501  503 -0.00000000000E+00 -0.00000000000E+00 -0.20536789277E+03  0.20536789277E+03  0.00000000000E+00 0. -1.
          6    1    1    2  501    0  0.38738368922E+02  0.58330119408E+02 -0.13494948696E+03  0.22956138196E+03  0.17200000000E+03 0. -1.
         -6    1    1    2    0  502 -0.38738368922E+02 -0.58330119408E+02  0.34992297999E+03  0.39614789660E+03  0.17200000000E+03 0. -1.
<mgrwt>
<rscale>  2 0.18570693E+03</rscale>
<asrwt>0</asrwt>
<pdfrwt beam="1">  1       21 0.10508535E+00 0.18570693E+03</pdfrwt>
<pdfrwt beam="2">  1       21 0.51341974E-01 0.18570693E+03</pdfrwt>
<totfact> 0.26452300E+03</totfact>
</mgrwt>
</event>
<event>
 4    1  0.1132373E+000  0.1995403E+03  0.7546771E-02  0.1150127E+00
         21   -1    0    0  501  502  0.00000000000E+00  0.00000000000E+00  0.48515683992E+02  0.48515683992E+02  0.00000000000E+00 0.  1.
         21   -1    0    0  502  503 -0.00000000000E+00 -0.00000000000E+00 -0.96615561421E+03  0.96615561421E+03  0.00000000000E+00 0.  1.
          6    1    1    2  501    0  0.10112964619E+03 -0.22629247012E+01 -0.26196229733E+03  0.32930316031E+03  0.17200000000E+03 0.  1.
         -6    1    1    2    0  503 -0.10112964619E+03  0.22629247012E+01 -0.65567763289E+03  0.68536813789E+03  0.17200000000E+03 0.  1.
<mgrwt>
<rscale>  2 0.19954029E+03</rscale>
<asrwt>0</asrwt>
<pdfrwt beam="1">  1       21 0.12128921E-01 0.19954029E+03</pdfrwt>
<pdfrwt beam="2">  1       21 0.24153890E+00 0.19954029E+03</pdfrwt>
<totfact> 0.42645251E+03</totfact>
</mgrwt>
</event>
<event>
 4    1  0.1132373E+000  0.3129130E+03  0.7546771E-02  0.1078958E+00
         21   -1    0    0  503  502  0.00000000000E+00  0.00000000000E+00  0.64858189094E+03  0.64858189094E+03  0.00000000000E+00 0.  1.
         21   -1    0    0  501  503 -0.00000000000E+00 -0.00000000000E+00 -0.15099624841E+03  0.15099624841E+03  0.00000000000E+00 0.  1.
          6    1    1    2  501    0  0.24947757393E+03  0.78048087821E+02  0.24324358618E+03  0.39633572401E+03  0.17200000000E+03 0.  1.
         -6    1    1    2    0  502 -0.24947757393E+03 -0.78048087821E+02  0.25434205634E+03  0.40324241534E+03  0.17200000000E+03 0.  1.
<mgrwt>
<rscale>  2 0.31291303E+03</rscale>
<asrwt>0</asrwt>
<pdfrwt beam="1">  1       21 0.16214547E+00 0.31291303E+03</pdfrwt>
<pdfrwt beam="2">  1       21 0.37749064E-01 0.31291303E+03</pdfrwt>
<totfact> 0.14938100E+03</totfact>
</mgrwt>
</event>
<event>
 4    1  0.1132373E+000  0.2860527E+03  0.7546771E-02  0.1092428E+00
         21   -1    0    0  501  502  0.00000000000E+00  0.00000000000E+00  0.32942282133E+03  0.32942282133E+03  0.00000000000E+00 0.  1.
         21   -1    0    0  502  503 -0.00000000000E+00 -0.00000000000E+00 -0.27642804363E+03  0.27642804363E+03  0.00000000000E+00 0.  1.
          6    1    1    2  501    0  0.18847195290E+03 -0.12930760973E+03  0.12296904241E+03  0.31136396766E+03  0.17200000000E+03 0.  1.
         -6    1    1    2    0  503 -0.18847195290E+03  0.12930760973E+03 -0.69974264708E+02  0.29448689731E+03  0.17200000000E+03 0.  1.
<mgrwt>
<rscale>  2 0.28605268E+03</rscale>
<asrwt>0</asrwt>
<pdfrwt beam="1">  1       21 0.82355705E-01 0.28605268E+03</pdfrwt>
<pdfrwt beam="2">  1       21 0.69107011E-01 0.28605268E+03</pdfrwt>
<totfact> 0.22914886E+03</totfact>
</mgrwt>
</event>
<event>
 4    1  0.1132373E+000  0.1728643E+03  0.7546771E-02  0.1174893E+00
         21   -1    0    0  503  502  0.00000000000E+00  0.00000000000E+00  0.17038772149E+03  0.17038772149E+03  0.00000000000E+00 0. -1.
         21   -1    0    0  501  503 -0.00000000000E+00 -0.00000000000E+00 -0.26972099845E+03  0.26972099845E+03  0.00000000000E+00 0. -1.
          6    1    1    2  501    0  0.14439456095E+02 -0.94633535914E+01 -0.17981245226E+03  0.24942848864E+03  0.17200000000E+03 0. -1.
         -6    1    1    2    0  502 -0.14439456095E+02  0.94633535914E+01  0.80479175308E+02  0.19068023131E+03  0.17200000000E+03 0. -1.
<mgrwt>
<rscale>  2 0.17286426E+03</rscale>
<asrwt>0</asrwt>
<pdfrwt beam="1">  1       21 0.42596931E-01 0.17286426E+03</pdfrwt>
<pdfrwt beam="2">  1       21 0.67430249E-01 0.17286426E+03</pdfrwt>
<totfact> 0.10812942E+04</totfact>
</mgrwt>
</event>
<event>
 4    1  0.1132373E+000  0.1892469E+03  0.7546771E-02  0.1159142E+00
         21   -1    0    0  503  502  0.00000000000E+00  0.00000000000E+00  0.11049320521E+03  0.11049320521E+03  0.00000000000E+00 0.  1.
         21   -1    0    0  501  503 -0.00000000000E+00 -0.00000000000E+00 -0.57329757843E+03  0.57329757843E+03  0.00000000000E+00 0.  1.
          6    1    1    2  501    0 -0.78520244059E+02 -0.80588221096E+01 -0.45679875368E+03  0.49444865730E+03  0.17200000000E+03 0.  1.
         -6    1    1    2    0  502  0.78520244059E+02  0.80588221096E+01 -0.60056195468E+01  0.18934212634E+03  0.17200000000E+03 0.  1.
<mgrwt>
<rscale>  2 0.18924686E+03</rscale>
<asrwt>0</asrwt>
<pdfrwt beam="1">  1       21 0.27623302E-01 0.18924686E+03</pdfrwt>
<pdfrwt beam="2">  1       21 0.14332439E+00 0.18924686E+03</pdfrwt>
<totfact> 0.42234910E+03</totfact>
</mgrwt>
</event>
<event>
 4    1  0.1132373E+000  0.1776520E+03  0.7546771E-02  0.1170095E+00
         21   -1    0    0  501  502  0.00000000000E+00  0.00000000000E+00  0.21197646260E+03  0.21197646260E+03  0.00000000000E+00 0.  1.
         21   -1    0    0  502  503 -0.00000000000E+00 -0.00000000000E+00 -0.17797125930E+03  0.17797125930E+03  0.00000000000E+00 0.  1.
          6    1    1    2  501    0  0.42033228586E+02  0.14472605710E+02  0.95823377803E+02  0.20184738877E+03  0.17200000000E+03 0.  1.
         -6    1    1    2    0  503 -0.42033228586E+02 -0.14472605710E+02 -0.61818174504E+02  0.18810033312E+03  0.17200000000E+03 0.  1.
<mgrwt>
<rscale>  2 0.17765204E+03</rscale>
<asrwt>0</asrwt>
<pdfrwt beam="1">  1       21 0.52994116E-01 0.17765204E+03</pdfrwt>
<pdfrwt beam="2">  1       21 0.44492815E-01 0.17765204E+03</pdfrwt>
<totfact> 0.16516299E+04</totfact>
</mgrwt>
</event>
<event>
 4    1  0.1132373E+000  0.1819472E+03  0.7546771E-02  0.1165932E+00
         21   -1    0    0  501  502  0.00000000000E+00  0.00000000000E+00  0.96862361950E+02  0.96862361950E+02  0.00000000000E+00 0. -1.
         21   -1    0    0  502  503 -0.00000000000E+00 -0.00000000000E+00 -0.49390608649E+03  0.49390608649E+03  0.00000000000E+00 0. -1.
          6    1    1    2  501    0 -0.52349239423E+02  0.27934557341E+02 -0.34583999313E+02  0.18520484705E+03  0.17200000000E+03 0. -1.
         -6    1    1    2    0  503  0.52349239423E+02 -0.27934557341E+02 -0.36245972522E+03  0.40556360139E+03  0.17200000000E+03 0. -1.
<mgrwt>
<rscale>  2 0.18194720E+03</rscale>
<asrwt>0</asrwt>
<pdfrwt beam="1">  1       21 0.24215591E-01 0.18194720E+03</pdfrwt>
<pdfrwt beam="2">  1       21 0.12347652E+00 0.18194720E+03</pdfrwt>
<totfact> 0.79817110E+03</totfact>
</mgrwt>
</event>
<event>
 4    1  0.1132373E+000  0.1878497E+03  0.7546771E-02  0.1160415E+00
         21   -1    0    0  503  502  0.00000000000E+00  0.00000000000E+00  0.14938350115E+03  0.14938350115E+03  0.00000000000E+00 0. -1.
         21   -1    0    0  501  503 -0.00000000000E+00 -0.00000000000E+00 -0.23799463031E+03  0.23799463031E+03  0.00000000000E+00 0. -1.
          6    1    1    2  501    0  0.70167713160E+02  0.27928801724E+02 -0.61026025001E+02  0.19751380120E+03  0.17200000000E+03 0. -1.
         -6    1    1    2    0  502 -0.70167713160E+02 -0.27928801724E+02 -0.27585104163E+02  0.18986433027E+03  0.17200000000E+03 0. -1.
<mgrwt>
<rscale>  2 0.18784974E+03</rscale>
<asrwt>0</asrwt>
<pdfrwt beam="1">  1       21 0.37345875E-01 0.18784974E+03</pdfrwt>
<pdfrwt beam="2">  1       21 0.59498657E-01 0.18784974E+03</pdfrwt>
<totfact> 0.18296825E+04</totfact>
</mgrwt>
</event>
<event>
 4    1  0.1132373E+000  0.2211287E+03  0.7546771E-02  0.1133044E+00
         21   -1    0    0  501  502  0.00000000000E+00  0.00000000000E+00  0.15630599302E+03  0.15630599302E+03  0.00000000000E+00 0.  1.
         21   -1    0    0  502  503 -0.00000000000E+00 -0.00000000000E+00 -0.39580706891E+03  0.39580706891E+03  0.00000000000E+00 0. -1.
          6    1    1    2  501    0 -0.13482122880E+03 -0.33721224889E+02  0.66427166260E+01  0.22122841234E+03  0.17200000000E+03 0.  1.
         -6    1    1    2    0  503  0.13482122880E+03  0.33721224889E+02 -0.24614379252E+03  0.33088464959E+03  0.17200000000E+03 0. -1.
<mgrwt>
<rscale>  2 0.22112866E+03</rscale>
<asrwt>0</asrwt>
<pdfrwt beam="1">  1       21 0.39076498E-01 0.22112866E+03</pdfrwt>
<pdfrwt beam="2">  1       21 0.98951767E-01 0.22112866E+03</pdfrwt>
<totfact> 0.52012019E+03</totfact>
</mgrwt>
</event>
<event>
 4    1  0.1132373E+000  0.1837113E+03  0.7546771E-02  0.1164259E+00
         21   -1    0    0  503  502  0.00000000000E+00  0.00000000000E+00  0.22027863625E+03  0.22027863625E+03  0.00000000000E+00 0. -1.
         21   -1    0    0  501  503 -0.00000000000E+00 -0.00000000000E+00 -0.59489323206E+03  0.59489323206E+03  0.00000000000E+00 0. -1.
          6    1    1    2  501    0 -0.59304347600E+02 -0.25472362986E+02 -0.53850607420E+03  0.56898035016E+03  0.17200000000E+03 0. -1.
         -6    1    1    2    0  502  0.59304347600E+02  0.25472362986E+02  0.16389147839E+03  0.24619151815E+03  0.17200000000E+03 0. -1.
<mgrwt>
<rscale>  2 0.18371131E+03</rscale>
<asrwt>0</asrwt>
<pdfrwt beam="1">  1       21 0.55069660E-01 0.18371131E+03</pdfrwt>
<pdfrwt beam="2">  1       21 0.14872331E+00 0.18371131E+03</pdfrwt>
<totfact> 0.96015866E+02</totfact>
</mgrwt>
</event>
<event>
 4    1  0.1132373E+000  0.2246981E+03  0.7546771E-02  0.1130428E+00
         21   -1    0    0  503  502  0.00000000000E+00  0.00000000000E+00  0.52572856670E+03  0.52572856670E+03  0.00000000000E+00 0. -1.
         21   -1    0    0  501  503 -0.00000000000E+00 -0.00000000000E+00 -0.97689089383E+02  0.97689089383E+02  0.00000000000E+00 0. -1.
          6    1    1    2  501    0 -0.12985119791E+03 -0.63591728502E+02  0.17347999047E+03  0.28387417746E+03  0.17200000000E+03 0. -1.
         -6    1    1    2    0  502  0.12985119791E+03  0.63591728502E+02  0.25455948684E+03  0.33954347862E+03  0.17200000000E+03 0. -1.
<mgrwt>
<rscale>  2 0.22469811E+03</rscale>
<asrwt>0</asrwt>
<pdfrwt beam="1">  1       21 0.13143213E+00 0.22469811E+03</pdfrwt>
<pdfrwt beam="2">  1       21 0.24422274E-01 0.22469811E+03</pdfrwt>
<totfact> 0.65004119E+03</totfact>
</mgrwt>
</event>
<event>
 4    1  0.1132373E+000  0.2088439E+03  0.7546771E-02  0.1142485E+00
         21   -1    0    0  503  502  0.00000000000E+00  0.00000000000E+00  0.25633934196E+03  0.25633934196E+03  0.00000000000E+00 0. -1.
         21   -1    0    0  501  503 -0.00000000000E+00 -0.00000000000E+00 -0.17283947305E+03  0.17283947305E+03  0.00000000000E+00 0. -1.
          6    1    1    2  501    0  0.49274111710E+02  0.10772106459E+03  0.68525455190E+02  0.21979878037E+03  0.17200000000E+03 0. -1.
         -6    1    1    2    0  502 -0.49274111710E+02 -0.10772106459E+03  0.14974413715E+02  0.20938003464E+03  0.17200000000E+03 0. -1.
<mgrwt>
<rscale>  2 0.20884388E+03</rscale>
<asrwt>0</asrwt>
<pdfrwt beam="1">  1       21 0.64084835E-01 0.20884388E+03</pdfrwt>
<pdfrwt beam="2">  1       21 0.43209868E-01 0.20884388E+03</pdfrwt>
<totfact> 0.11450289E+04</totfact>
</mgrwt>
</event>
<event>
 4    1  0.1132373E+000  0.2053691E+03  0.7546771E-02  0.1145287E+00
         21   -1    0    0  501  502  0.00000000000E+00  0.00000000000E+00  0.54503955698E+03  0.54503955698E+03  0.00000000000E+00 0. -1.
         21   -1    0    0  502  503 -0.00000000000E+00 -0.00000000000E+00 -0.11274121212E+03  0.11274121212E+03  0.00000000000E+00 0.  1.
          6    1    1    2  501    0 -0.55251188384E+02 -0.97671827734E+02  0.40033598783E+03  0.44993931025E+03  0.17200000000E+03 0. -1.
         -6    1    1    2    0  503  0.55251188384E+02  0.97671827734E+02  0.31962357028E+02  0.20784145885E+03  0.17200000000E+03 0.  1.
<mgrwt>
<rscale>  2 0.20536913E+03</rscale>
<asrwt>0</asrwt>
<pdfrwt beam="1">  1       21 0.13625988E+00 0.20536913E+03</pdfrwt>
<pdfrwt beam="2">  1       21 0.28185304E-01 0.20536913E+03</pdfrwt>
<totfact> 0.45665676E+03</totfact>
</mgrwt>
</event>
<event>
 4    1  0.1132373E+000  0.2491725E+03  0.7546771E-02  0.1113829E+00
         21   -1    0    0  501  502  0.00000000000E+00  0.00000000000E+00  0.84230339506E+02  0.84230339506E+02  0.00000000000E+00 0.  1.
         21   -1    0    0  502  503 -0.00000000000E+00 -0.00000000000E+00 -0.88772642532E+03  0.88772642532E+03  0.00000000000E+00 0.  1.
          6    1    1    2  501    0  0.17808462388E+03 -0.28085558545E+02 -0.20157059463E+03  0.32049592272E+03  0.17200000000E+03 0.  1.
         -6    1    1    2    0  503 -0.17808462388E+03  0.28085558545E+02 -0.60192549118E+03  0.65146084211E+03  0.17200000000E+03 0.  1.
<mgrwt>
<rscale>  2 0.24917249E+03</rscale>
<asrwt>0</asrwt>
<pdfrwt beam="1">  1       21 0.21057585E-01 0.24917249E+03</pdfrwt>
<pdfrwt beam="2">  1       21 0.22193161E+00 0.24917249E+03</pdfrwt>
<totfact> 0.19425470E+03</totfact>
</mgrwt>
</event>
<event>
 4    1  0.1132373E+000  0.2192249E+03  0.7546771E-02  0.1134462E+00
         21   -1    0    0  501  502  0.00000000000E+00  0.00000000000E+00  0.42563632376E+03  0.42563632376E+03  0.00000000000E+00 0. -1.
         21   -1    0    0  502  503 -0.00000000000E+00 -0.00000000000E+00 -0.11291675786E+03  0.11291675786E+03  0.00000000000E+00 0. -1.
          6    1    1    2  501    0  0.11420453450E+03  0.73708180549E+02  0.15805380760E+03  0.27026020365E+03  0.17200000000E+03 0. -1.
         -6    1    1    2    0  503 -0.11420453450E+03 -0.73708180549E+02  0.15466575829E+03  0.26829287797E+03  0.17200000000E+03 0. -1.
<mgrwt>
<rscale>  2 0.21922493E+03</rscale>
<asrwt>0</asrwt>
<pdfrwt beam="1">  1       21 0.10640908E+00 0.21922493E+03</pdfrwt>
<pdfrwt beam="2">  1       21 0.28229190E-01 0.21922493E+03</pdfrwt>
<totfact> 0.83273246E+03</totfact>
</mgrwt>
</event>
<event>
 4    1  0.1132373E+000  0.1954907E+03  0.7546771E-02  0.1153600E+00
         21   -1    0    0  503  502  0.00000000000E+00  0.00000000000E+00  0.30029091044E+03  0.30029091044E+03  0.00000000000E+00 0.  1.
         21   -1    0    0  501  503 -0.00000000000E+00 -0.00000000000E+00 -0.38453766535E+03  0.38453766535E+03  0.00000000000E+00 0.  1.
          6    1    1    2  501    0  0.39110569914E+02 -0.84279102968E+02 -0.32220139926E+03  0.37686913585E+03  0.17200000000E+03 0.  1.
         -6    1    1    2    0  502 -0.39110569914E+02  0.84279102968E+02  0.23795464435E+03  0.30795943993E+03  0.17200000000E+03 0.  1.
<mgrwt>
<rscale>  2 0.19549067E+03</rscale>
<asrwt>0</asrwt>
<pdfrwt beam="1">  1       21 0.75072728E-01 0.19549067E+03</pdfrwt>
<pdfrwt beam="2">  1       21 0.96134416E-01 0.19549067E+03</pdfrwt>
<totfact> 0.14254706E+03</totfact>
</mgrwt>
</event>
<event>
 4    1  0.1132373E+000  0.3800091E+03  0.7546771E-02  0.1050930E+00
         21   -1    0    0  501  502  0.00000000000E+00  0.00000000000E+00  0.10192205033E+04  0.10192205033E+04  0.00000000000E+00 0.  1.
         21   -1    0    0  502  503 -0.00000000000E+00 -0.00000000000E+00 -0.14797440328E+03  0.14797440328E+03  0.00000000000E+00 0.  1.
          6    1    1    2  501    0  0.25677370941E+03 -0.22111119966E+03  0.31529392500E+03  0.49377845194E+03  0.17200000000E+03 0.  1.
         -6    1    1    2    0  503 -0.25677370941E+03  0.22111119966E+03  0.55595217508E+03  0.67341645468E+03  0.17200000000E+03 0.  1.
<mgrwt>
<rscale>  2 0.38000908E+03</rscale>
<asrwt>0</asrwt>
<pdfrwt beam="1">  1       21 0.25480511E+00 0.38000908E+03</pdfrwt>
<pdfrwt beam="2">  1       21 0.36993604E-01 0.38000908E+03</pdfrwt>
<totfact> 0.36827288E+02</totfact>
</mgrwt>
</event>
<event>
 4    1  0.1132373E+000  0.1964933E+03  0.7546771E-02  0.1152732E+00
         21   -1    0    0  501  502  0.00000000000E+00  0.00000000000E+00  0.36416411020E+02  0.36416411020E+02  0.00000000000E+00 0. -1.
         21   -1    0    0  502  503 -0.00000000000E+00 -0.00000000000E+00 -0.15101501404E+04  0.15101501404E+04  0.00000000000E+00 0. -1.
          6    1    1    2  501    0 -0.92940818898E+02 -0.19688240904E+02 -0.31478349284E+03  0.37107717528E+03  0.17200000000E+03 0. -1.
         -6    1    1    2    0  503  0.92940818898E+02  0.19688240904E+02 -0.11589502365E+04  0.11754893761E+04  0.17200000000E+03 0. -1.
<mgrwt>
<rscale>  2 0.19649331E+03</rscale>
<asrwt>0</asrwt>
<pdfrwt beam="1">  1       21 0.91041032E-02 0.19649331E+03</pdfrwt>
<pdfrwt beam="2">  1       21 0.37753752E+00 0.19649331E+03</pdfrwt>
<totfact> 0.11392746E+03</totfact>
</mgrwt>
</event>
<event>
 4    1  0.1132373E+000  0.2384905E+03  0.7546771E-02  0.1120803E+00
         21   -1    0    0  501  502  0.00000000000E+00  0.00000000000E+00  0.72244769050E+03  0.72244769050E+03  0.00000000000E+00 0. -1.
         21   -1    0    0  502  503 -0.00000000000E+00 -0.00000000000E+00 -0.83863184432E+02  0.83863184432E+02  0.00000000000E+00 0. -1.
          6    1    1    2  501    0  0.13073566372E+03  0.10100437294E+03  0.41904295726E+03  0.48215629950E+03  0.17200000000E+03 0. -1.
         -6    1    1    2    0  503 -0.13073566372E+03 -0.10100437294E+03  0.21954154881E+03  0.32415457543E+03  0.17200000000E+03 0. -1.
<mgrwt>
<rscale>  2 0.23849045E+03</rscale>
<asrwt>0</asrwt>
<pdfrwt beam="1">  1       21 0.18061190E+00 0.23849045E+03</pdfrwt>
<pdfrwt beam="2">  1       21 0.20965798E-01 0.23849045E+03</pdfrwt>
<totfact> 0.36623256E+03</totfact>
</mgrwt>
</event>
<event>
 4    1  0.1132373E+000  0.1723938E+03  0.7546771E-02  0.1175374E+00
         21   -1    0    0  503  502  0.00000000000E+00  0.00000000000E+00  0.86016924806E+02  0.86016924806E+02  0.00000000000E+00 0. -1.
         21   -1    0    0  501  503 -0.00000000000E+00 -0.00000000000E+00 -0.51257503392E+03  0.51257503392E+03  0.00000000000E+00 0. -1.
          6    1    1    2  501    0 -0.78815751801E+01 -0.85741766204E+01 -0.42408972852E+02  0.17753353686E+03  0.17200000000E+03 0. -1.
         -6    1    1    2    0  502  0.78815751801E+01  0.85741766204E+01 -0.38414913626E+03  0.42105842186E+03  0.17200000000E+03 0. -1.
<mgrwt>
<rscale>  2 0.17239384E+03</rscale>
<asrwt>0</asrwt>
<pdfrwt beam="1">  1       21 0.21504232E-01 0.17239384E+03</pdfrwt>
<pdfrwt beam="2">  1       21 0.12814376E+00 0.17239384E+03</pdfrwt>
<totfact> 0.91718699E+03</totfact>
</mgrwt>
</event>
<event>
 4    1  0.1132373E+000  0.1795919E+03  0.7546771E-02  0.1168199E+00
         21   -1    0    0  503  502  0.00000000000E+00  0.00000000000E+00  0.36092627984E+02  0.36092627984E+02  0.00000000000E+00 0. -1.
         21   -1    0    0  501  503 -0.00000000000E+00 -0.00000000000E+00 -0.10086378666E+04  0.10086378666E+04  0.00000000000E+00 0. -1.
          6    1    1    2  501    0  0.38878655756E+02  0.34024946448E+02 -0.30987963366E+03  0.35816006786E+03  0.17200000000E+03 0. -1.
         -6    1    1    2    0  502 -0.38878655756E+02 -0.34024946448E+02 -0.66266560491E+03  0.68657042667E+03  0.17200000000E+03 0. -1.
<mgrwt>
<rscale>  2 0.17959189E+03</rscale>
<asrwt>0</asrwt>
<pdfrwt beam="1">  1       21 0.90231568E-02 0.17959189E+03</pdfrwt>
<pdfrwt beam="2">  1       21 0.25215947E+00 0.17959189E+03</pdfrwt>
<totfact> 0.63660441E+03</totfact>
</mgrwt>
</event>
<event>
 4    1  0.1132373E+000  0.2940515E+03  0.7546771E-02  0.1088253E+00
         21   -1    0    0  503  502  0.00000000000E+00  0.00000000000E+00  0.33058862331E+03  0.33058862331E+03  0.00000000000E+00 0.  1.
         21   -1    0    0  501  503 -0.00000000000E+00 -0.00000000000E+00 -0.29257075785E+03  0.29257075785E+03  0.00000000000E+00 0. -1.
          6    1    1    2  501    0  0.22760278744E+03 -0.71268761400E+02 -0.82443558688E+02  0.30539025127E+03  0.17200000000E+03 0. -1.
         -6    1    1    2    0  502 -0.22760278744E+03  0.71268761400E+02  0.12046142415E+03  0.31776912989E+03  0.17200000000E+03 0.  1.
<mgrwt>
<rscale>  2 0.29405147E+03</rscale>
<asrwt>0</asrwt>
<pdfrwt beam="1">  1       21 0.82647156E-01 0.29405147E+03</pdfrwt>
<pdfrwt beam="2">  1       21 0.73142689E-01 0.29405147E+03</pdfrwt>
<totfact> 0.19927295E+03</totfact>
</mgrwt>
</event>
<event>
 4    1  0.1132373E+000  0.1728505E+03  0.7546771E-02  0.1174907E+00
         21   -1    0    0  501  502  0.00000000000E+00  0.00000000000E+00  0.16331315035E+04  0.16331315035E+04  0.00000000000E+00 0.  1.
         21   -1    0    0  502  503 -0.00000000000E+00 -0.00000000000E+00 -0.30999613419E+02  0.30999613419E+02  0.00000000000E+00 0.  1.
          6    1    1    2  501    0 -0.17114831239E+02 -0.60526153867E+00  0.13337492723E+04  0.13449031211E+04  0.17200000000E+03 0.  1.
         -6    1    1    2    0  503  0.17114831239E+02  0.60526153867E+00  0.26838261781E+03  0.31922799585E+03  0.17200000000E+03 0.  1.
<mgrwt>
<rscale>  2 0.17285047E+03</rscale>
<asrwt>0</asrwt>
<pdfrwt beam="1">  1       21 0.40828259E+00 0.17285047E+03</pdfrwt>
<pdfrwt beam="2">  1       21 0.77499089E-02 0.17285047E+03</pdfrwt>
<totfact> 0.10133878E+03</totfact>
</mgrwt>
</event>
<event>
 4    1  0.1132373E+000  0.2274598E+03  0.7546771E-02  0.1128441E+00
         21   -1    0    0  501  502  0.00000000000E+00  0.00000000000E+00  0.17328384591E+03  0.17328384591E+03  0.00000000000E+00 0. -1.
         21   -1    0    0  502  503 -0.00000000000E+00 -0.00000000000E+00 -0.38478670356E+03  0.38478670356E+03  0.00000000000E+00 0.  1.
          6    1    1    2  501    0 -0.13037554671E+03  0.71806437871E+02  0.26328313944E+02  0.22897844400E+03  0.17200000000E+03 0. -1.
         -6    1    1    2    0  503  0.13037554671E+03 -0.71806437871E+02 -0.23783117159E+03  0.32909210547E+03  0.17200000000E+03 0. -1.
<mgrwt>
<rscale>  2 0.22745977E+03</rscale>
<asrwt>0</asrwt>
<pdfrwt beam="1">  1       21 0.43320962E-01 0.22745977E+03</pdfrwt>
<pdfrwt beam="2">  1       21 0.96196676E-01 0.22745977E+03</pdfrwt>
<totfact> 0.44872634E+03</totfact>
</mgrwt>
</event>
<event>
 4    1  0.1132373E+000  0.2049602E+03  0.7546771E-02  0.1145620E+00
         21   -1    0    0  501  502  0.00000000000E+00  0.00000000000E+00  0.10448165322E+04  0.10448165322E+04  0.00000000000E+00 0.  1.
         21   -1    0    0  502  503 -0.00000000000E+00 -0.00000000000E+00 -0.12377827268E+03  0.12377827268E+03  0.00000000000E+00 0. -1.
          6    1    1    2  501    0 -0.10033292221E+03  0.48559138020E+02  0.94062927615E+03  0.96270043125E+03  0.17200000000E+03 0.  1.
         -6    1    1    2    0  503  0.10033292221E+03 -0.48559138020E+02 -0.19591016621E+02  0.20589437364E+03  0.17200000000E+03 0. -1.
<mgrwt>
<rscale>  2 0.20496020E+03</rscale>
<asrwt>0</asrwt>
<pdfrwt beam="1">  1       21 0.26120411E+00 0.20496020E+03</pdfrwt>
<pdfrwt beam="2">  1       21 0.30944571E-01 0.20496020E+03</pdfrwt>
<totfact> 0.56441497E+02</totfact>
</mgrwt>
</event>
<event>
 4    1  0.1132373E+000  0.2457422E+03  0.7546771E-02  0.1116026E+00
         21   -1    0    0  501  502  0.00000000000E+00  0.00000000000E+00  0.76238116370E+03  0.76238116370E+03  0.00000000000E+00 0. -1.
         21   -1    0    0  502  503 -0.00000000000E+00 -0.00000000000E+00 -0.10073575310E+03  0.10073575310E+03  0.00000000000E+00 0.  1.
          6    1    1    2  501    0 -0.12660424343E+02  0.17505693958E+03  0.53030928019E+03  0.58448024013E+03  0.17200000000E+03 0. -1.
         -6    1    1    2    0  503  0.12660424343E+02 -0.17505693958E+03  0.13133613041E+03  0.27863667668E+03  0.17200000000E+03 0.  1.
<mgrwt>
<rscale>  2 0.24574218E+03</rscale>
<asrwt>0</asrwt>
<pdfrwt beam="1">  1       21 0.19059527E+00 0.24574218E+03</pdfrwt>
<pdfrwt beam="2">  1       21 0.25183941E-01 0.24574218E+03</pdfrwt>
<totfact> 0.21998348E+03</totfact>
</mgrwt>
</event>
<event>
 4    1  0.1132373E+000  0.2589081E+03  0.7546771E-02  0.1107801E+00
         21   -1    0    0  503  502  0.00000000000E+00  0.00000000000E+00  0.54336176735E+02  0.54336176735E+02  0.00000000000E+00 0. -1.
         21   -1    0    0  501  503 -0.00000000000E+00 -0.00000000000E+00 -0.14597554918E+04  0.14597554918E+04  0.00000000000E+00 0.  1.
          6    1    1    2  501    0  0.79924604417E+02 -0.17624255013E+03 -0.10006368846E+04  0.10335896447E+04  0.17200000000E+03 0.  1.
         -6    1    1    2    0  502 -0.79924604417E+02  0.17624255013E+03 -0.40478243045E+03  0.48050202379E+03  0.17200000000E+03 0. -1.
<mgrwt>
<rscale>  2 0.25890805E+03</rscale>
<asrwt>0</asrwt>
<pdfrwt beam="1">  1       21 0.13584044E-01 0.25890805E+03</pdfrwt>
<pdfrwt beam="2">  1       21 0.36493888E+00 0.25890805E+03</pdfrwt>
<totfact> 0.61304597E+02</totfact>
</mgrwt>
</event>
<event>
 4    1  0.1132373E+000  0.1842827E+03  0.7546771E-02  0.1163721E+00
         21   -1    0    0  503  502  0.00000000000E+00  0.00000000000E+00  0.29493797272E+03  0.29493797272E+03  0.00000000000E+00 0.  1.
         21   -1    0    0  501  503 -0.00000000000E+00 -0.00000000000E+00 -0.12339631362E+03  0.12339631362E+03  0.00000000000E+00 0. -1.
          6    1    1    2  501    0 -0.28143173175E+02  0.59867109915E+02  0.31676635622E+02  0.18698534245E+03  0.17200000000E+03 0. -1.
         -6    1    1    2    0  502  0.28143173175E+02 -0.59867109915E+02  0.13986502348E+03  0.23134894389E+03  0.17200000000E+03 0.  1.
<mgrwt>
<rscale>  2 0.18428269E+03</rscale>
<asrwt>0</asrwt>
<pdfrwt beam="1">  1       21 0.73734492E-01 0.18428269E+03</pdfrwt>
<pdfrwt beam="2">  1       21 0.30849079E-01 0.18428269E+03</pdfrwt>
<totfact> 0.16751485E+04</totfact>
</mgrwt>
</event>
<event>
 4    1  0.1132373E+000  0.2928801E+03  0.7546771E-02  0.1088855E+00
         21   -1    0    0  503  502  0.00000000000E+00  0.00000000000E+00  0.17121894267E+03  0.17121894267E+03  0.00000000000E+00 0.  1.
         21   -1    0    0  501  503 -0.00000000000E+00 -0.00000000000E+00 -0.58926691522E+03  0.58926691522E+03  0.00000000000E+00 0. -1.
          6    1    1    2  501    0 -0.11343927657E+03 -0.20814969474E+03 -0.35619821034E+03  0.46114632161E+03  0.17200000000E+03 0. -1.
         -6    1    1    2    0  502  0.11343927657E+03  0.20814969474E+03 -0.61849762214E+02  0.29933953627E+03  0.17200000000E+03 0.  1.
<mgrwt>
<rscale>  2 0.29288012E+03</rscale>
<asrwt>0</asrwt>
<pdfrwt beam="1">  1       21 0.42804736E-01 0.29288012E+03</pdfrwt>
<pdfrwt beam="2">  1       21 0.14731673E+00 0.29288012E+03</pdfrwt>
<totfact> 0.15173409E+03</totfact>
</mgrwt>
</event>
<event>
 4    1  0.1132373E+000  0.2081695E+03  0.7546771E-02  0.1143024E+00
         21   -1    0    0  501  502  0.00000000000E+00  0.00000000000E+00  0.46205870909E+03  0.46205870909E+03  0.00000000000E+00 0.  1.
         21   -1    0    0  502  503 -0.00000000000E+00 -0.00000000000E+00 -0.13306377368E+03  0.13306377368E+03  0.00000000000E+00 0.  1.
          6    1    1    2  501    0 -0.22417077735E+02  0.11509998650E+03  0.32616437929E+03  0.38693375994E+03  0.17200000000E+03 0.  1.
         -6    1    1    2    0  503  0.22417077735E+02 -0.11509998650E+03  0.28305561290E+01  0.20818872283E+03  0.17200000000E+03 0.  1.
<mgrwt>
<rscale>  2 0.20816948E+03</rscale>
<asrwt>0</asrwt>
<pdfrwt beam="1">  1       21 0.11551467E+00 0.20816948E+03</pdfrwt>
<pdfrwt beam="2">  1       21 0.33265944E-01 0.20816948E+03</pdfrwt>
<totfact> 0.49844402E+03</totfact>
</mgrwt>
</event>
<event>
 4    1  0.1132373E+000  0.2023184E+03  0.7546771E-02  0.1147798E+00
         21   -1    0    0  503  502  0.00000000000E+00  0.00000000000E+00  0.17066376513E+04  0.17066376513E+04  0.00000000000E+00 0.  1.
         21   -1    0    0  501  503 -0.00000000000E+00 -0.00000000000E+00 -0.47067152897E+02  0.47067152897E+02  0.00000000000E+00 0.  1.
          6    1    1    2  501    0  0.11388199163E+02 -0.10591999154E+03  0.21572494065E+03  0.29575325139E+03  0.17200000000E+03 0.  1.
         -6    1    1    2    0  502 -0.11388199163E+02  0.10591999154E+03  0.14438455577E+04  0.14579515528E+04  0.17200000000E+03 0.  1.
<mgrwt>
<rscale>  2 0.20231840E+03</rscale>
<asrwt>0</asrwt>
<pdfrwt beam="1">  1       21 0.42665921E+00 0.20231840E+03</pdfrwt>
<pdfrwt beam="2">  1       21 0.11766794E-01 0.20231840E+03</pdfrwt>
<totfact> 0.35346803E+02</totfact>
</mgrwt>
</event>
<event>
 4    1  0.1132373E+000  0.1815971E+03  0.7546771E-02  0.1166266E+00
         21   -1    0    0  503  502  0.00000000000E+00  0.00000000000E+00  0.35533273235E+03  0.35533273235E+03  0.00000000000E+00 0.  1.
         21   -1    0    0  501  503 -0.00000000000E+00 -0.00000000000E+00 -0.43421281493E+03  0.43421281493E+03  0.00000000000E+00 0. -1.
          6    1    1    2  501    0 -0.39859527842E+02 -0.42481973423E+02 -0.38949085352E+03  0.42974483709E+03  0.17200000000E+03 0. -1.
         -6    1    1    2    0  502  0.39859527842E+02  0.42481973423E+02  0.31061077094E+03  0.35980071019E+03  0.17200000000E+03 0.  1.
<mgrwt>
<rscale>  2 0.18159708E+03</rscale>
<asrwt>0</asrwt>
<pdfrwt beam="1">  1       21 0.88833183E-01 0.18159708E+03</pdfrwt>
<pdfrwt beam="2">  1       21 0.10855320E+00 0.18159708E+03</pdfrwt>
<totfact> 0.73896228E+02</totfact>
</mgrwt>
</event>
<event>
 4    1  0.1132373E+000  0.2290164E+03  0.7546771E-02  0.1127334E+00
         21   -1    0    0  501  502  0.00000000000E+00  0.00000000000E+00  0.22076668294E+03  0.22076668294E+03  0.00000000000E+00 0. -1.
         21   -1    0    0  502  503 -0.00000000000E+00 -0.00000000000E+00 -0.41000216960E+03  0.41000216960E+03  0.00000000000E+00 0. -1.
          6    1    1    2  501    0  0.11136607327E+03  0.10228435891E+03  0.10990936832E+03  0.25402472635E+03  0.17200000000E+03 0. -1.
         -6    1    1    2    0  503 -0.11136607327E+03 -0.10228435891E+03 -0.29914485498E+03  0.37674412619E+03  0.17200000000E+03 0. -1.
<mgrwt>
<rscale>  2 0.22901636E+03</rscale>
<asrwt>0</asrwt>
<pdfrwt beam="1">  1       21 0.55191672E-01 0.22901636E+03</pdfrwt>
<pdfrwt beam="2">  1       21 0.10250054E+00 0.22901636E+03</pdfrwt>
<totfact> 0.23243781E+03</totfact>
</mgrwt>
</event>
<event>
 4    1  0.1132373E+000  0.2431225E+03  0.7546771E-02  0.1117730E+00
         21   -1    0    0  501  502  0.00000000000E+00  0.00000000000E+00  0.19285659275E+03  0.19285659275E+03  0.00000000000E+00 0. -1.
         21   -1    0    0  502  503 -0.00000000000E+00 -0.00000000000E+00 -0.47072280280E+03  0.47072280280E+03  0.00000000000E+00 0.  1.
          6    1    1    2  501    0  0.12952874615E+03 -0.11290191647E+03  0.57046450090E+02  0.24972552190E+03  0.17200000000E+03 0. -1.
         -6    1    1    2    0  503 -0.12952874615E+03  0.11290191647E+03 -0.33491266013E+03  0.41385387365E+03  0.17200000000E+03 0.  1.
<mgrwt>
<rscale>  2 0.24312248E+03</rscale>
<asrwt>0</asrwt>
<pdfrwt beam="1">  1       21 0.48214148E-01 0.24312248E+03</pdfrwt>
<pdfrwt beam="2">  1       21 0.11768070E+00 0.24312248E+03</pdfrwt>
<totfact> 0.21841103E+03</totfact>
</mgrwt>
</event>
<event>
 4    1  0.1132373E+000  0.2064010E+03  0.7546771E-02  0.1144448E+00
         21   -1    0    0  501  502  0.00000000000E+00  0.00000000000E+00  0.32883567218E+03  0.32883567218E+03  0.00000000000E+00 0. -1.
         21   -1    0    0  502  503 -0.00000000000E+00 -0.00000000000E+00 -0.19133498063E+03  0.19133498063E+03  0.00000000000E+00 0. -1.
          6    1    1    2  501    0  0.10596942371E+03 -0.42283045538E+02  0.21654287967E+03  0.29915245852E+03  0.17200000000E+03 0. -1.
         -6    1    1    2    0  503 -0.10596942371E+03  0.42283045538E+02 -0.79042188121E+02  0.22101819428E+03  0.17200000000E+03 0. -1.
<mgrwt>
<rscale>  2 0.20640100E+03</rscale>
<asrwt>0</asrwt>
<pdfrwt beam="1">  1       21 0.82208917E-01 0.20640100E+03</pdfrwt>
<pdfrwt beam="2">  1       21 0.47833746E-01 0.20640100E+03</pdfrwt>
<totfact> 0.53453237E+03</totfact>
</mgrwt>
</event>
<event>
 4    1  0.1132373E+000  0.1839305E+03  0.7546771E-02  0.1164052E+00
         21   -1    0    0  501  502  0.00000000000E+00  0.00000000000E+00  0.20374674768E+03  0.20374674768E+03  0.00000000000E+00 0.  1.
         21   -1    0    0  502  503 -0.00000000000E+00 -0.00000000000E+00 -0.23683757271E+03  0.23683757271E+03  0.00000000000E+00 0.  1.
          6    1    1    2  501    0  0.53122022132E+01  0.64947667786E+02  0.10389667454E+03  0.21124615505E+03  0.17200000000E+03 0.  1.
         -6    1    1    2    0  503 -0.53122022132E+01 -0.64947667786E+02 -0.13698749956E+03  0.22933816534E+03  0.17200000000E+03 0.  1.
<mgrwt>
<rscale>  2 0.18393047E+03</rscale>
<asrwt>0</asrwt>
<pdfrwt beam="1">  1       21 0.50936687E-01 0.18393047E+03</pdfrwt>
<pdfrwt beam="2">  1       21 0.59209393E-01 0.18393047E+03</pdfrwt>
<totfact> 0.98314363E+03</totfact>
</mgrwt>
</event>
<event>
 4    1  0.1132373E+000  0.2142990E+03  0.7546771E-02  0.1138206E+00
         21   -1    0    0  503  502  0.00000000000E+00  0.00000000000E+00  0.55557463013E+03  0.55557463013E+03  0.00000000000E+00 0.  1.
         21   -1    0    0  501  503 -0.00000000000E+00 -0.00000000000E+00 -0.11040073966E+03  0.11040073966E+03  0.00000000000E+00 0. -1.
          6    1    1    2  501    0  0.69067295747E+02 -0.10756290482E+03  0.55671170781E+02  0.22141217015E+03  0.17200000000E+03 0. -1.
         -6    1    1    2    0  502 -0.69067295747E+02  0.10756290482E+03  0.38950271968E+03  0.44456319964E+03  0.17200000000E+03 0.  1.
<mgrwt>
<rscale>  2 0.21429902E+03</rscale>
<asrwt>0</asrwt>
<pdfrwt beam="1">  1       21 0.13889365E+00 0.21429902E+03</pdfrwt>
<pdfrwt beam="2">  1       21 0.27600186E-01 0.21429902E+03</pdfrwt>
<totfact> 0.44948425E+03</totfact>
</mgrwt>
</event>
<event>
 4    1  0.1132373E+000  0.1873440E+03  0.7546771E-02  0.1160879E+00
         21   -1    0    0  503  502  0.00000000000E+00  0.00000000000E+00  0.11548593652E+03  0.11548593652E+03  0.00000000000E+00 0.  1.
         21   -1    0    0  501  503 -0.00000000000E+00 -0.00000000000E+00 -0.36652152684E+03  0.36652152684E+03  0.00000000000E+00 0.  1.
          6    1    1    2  501    0  0.62165928054E+02 -0.40609850456E+02 -0.22512441654E+03  0.29288012136E+03  0.17200000000E+03 0.  1.
         -6    1    1    2    0  502 -0.62165928054E+02  0.40609850456E+02 -0.25911173781E+02  0.18912734200E+03  0.17200000000E+03 0.  1.
<mgrwt>
<rscale>  2 0.18734397E+03</rscale>
<asrwt>0</asrwt>
<pdfrwt beam="1">  1       21 0.28871484E-01 0.18734397E+03</pdfrwt>
<pdfrwt beam="2">  1       21 0.91630381E-01 0.18734397E+03</pdfrwt>
<totfact> 0.11611924E+04</totfact>
</mgrwt>
</event>
<event>
 4    1  0.1132373E+000  0.2255600E+03  0.7546771E-02  0.1129804E+00
         21   -1    0    0  501  502  0.00000000000E+00  0.00000000000E+00  0.61661960456E+02  0.61661960456E+02  0.00000000000E+00 0. -1.
         21   -1    0    0  502  503 -0.00000000000E+00 -0.00000000000E+00 -0.92880636080E+03  0.92880636080E+03  0.00000000000E+00 0. -1.
          6    1    1    2  501    0  0.13220554771E+03 -0.61765624279E+02 -0.26809042516E+03  0.35035664008E+03  0.17200000000E+03 0. -1.
         -6    1    1    2    0  503 -0.13220554771E+03  0.61765624279E+02 -0.59905397519E+03  0.64011168117E+03  0.17200000000E+03 0. -1.
<mgrwt>
<rscale>  2 0.22555997E+03</rscale>
<asrwt>0</asrwt>
<pdfrwt beam="1">  1       21 0.15415490E-01 0.22555997E+03</pdfrwt>
<pdfrwt beam="2">  1       21 0.23220159E+00 0.22555997E+03</pdfrwt>
<totfact> 0.30639222E+03</totfact>
</mgrwt>
</event>
<event>
 4    1  0.1132373E+000  0.2116428E+03  0.7546771E-02  0.1140272E+00
         21   -1    0    0  501  502  0.00000000000E+00  0.00000000000E+00  0.23316913046E+03  0.23316913046E+03  0.00000000000E+00 0.  1.
         21   -1    0    0  502  503 -0.00000000000E+00 -0.00000000000E+00 -0.75600609576E+03  0.75600609576E+03  0.00000000000E+00 0.  1.
          6    1    1    2  501    0 -0.96598232116E+02 -0.76664598480E+02  0.16573358496E+03  0.26881276066E+03  0.17200000000E+03 0.  1.
         -6    1    1    2    0  503  0.96598232116E+02  0.76664598480E+02 -0.68857055026E+03  0.72036246557E+03  0.17200000000E+03 0.  1.
<mgrwt>
<rscale>  2 0.21164281E+03</rscale>
<asrwt>0</asrwt>
<pdfrwt beam="1">  1       21 0.58292283E-01 0.21164281E+03</pdfrwt>
<pdfrwt beam="2">  1       21 0.18900152E+00 0.21164281E+03</pdfrwt>
<totfact> 0.42685092E+02</totfact>
</mgrwt>
</event>
<event>
 4    1  0.1132373E+000  0.2456707E+03  0.7546771E-02  0.1116072E+00
         21   -1    0    0  503  502  0.00000000000E+00  0.00000000000E+00  0.16316353290E+03  0.16316353290E+03  0.00000000000E+00 0.  1.
         21   -1    0    0  501  503 -0.00000000000E+00 -0.00000000000E+00 -0.44754850990E+03  0.44754850990E+03  0.00000000000E+00 0.  1.
          6    1    1    2  501    0  0.99738339693E+02 -0.14429954919E+03 -0.15002006371E+02  0.24612833339E+03  0.17200000000E+03 0.  1.
         -6    1    1    2    0  502 -0.99738339693E+02  0.14429954919E+03 -0.26938297063E+03  0.36458370941E+03  0.17200000000E+03 0.  1.
<mgrwt>
<rscale>  2 0.24567071E+03</rscale>
<asrwt>0</asrwt>
<pdfrwt beam="1">  1       21 0.40790884E-01 0.24567071E+03</pdfrwt>
<pdfrwt beam="2">  1       21 0.11188713E+00 0.24567071E+03</pdfrwt>
<totfact> 0.34836531E+03</totfact>
</mgrwt>
</event>
<event>
 4    1  0.1132373E+000  0.1951179E+03  0.7546771E-02  0.1153925E+00
         21   -1    0    0  503  502  0.00000000000E+00  0.00000000000E+00  0.39417030750E+02  0.39417030750E+02  0.00000000000E+00 0.  1.
         21   -1    0    0  501  503 -0.00000000000E+00 -0.00000000000E+00 -0.99260685910E+03  0.99260685910E+03  0.00000000000E+00 0.  1.
          6    1    1    2  501    0  0.91626183789E+02 -0.95726447607E+01 -0.56131328201E+03  0.59425886081E+03  0.17200000000E+03 0.  1.
         -6    1    1    2    0  502 -0.91626183789E+02  0.95726447607E+01 -0.39187654634E+03  0.43776502904E+03  0.17200000000E+03 0.  1.
<mgrwt>
<rscale>  2 0.19511790E+03</rscale>
<asrwt>0</asrwt>
<pdfrwt beam="1">  1       21 0.98542578E-02 0.19511790E+03</pdfrwt>
<pdfrwt beam="2">  1       21 0.24815171E+00 0.19511790E+03</pdfrwt>
<totfact> 0.56636469E+03</totfact>
</mgrwt>
</event>
<event>
 4    1  0.1132373E+000  0.1922273E+03  0.7546771E-02  0.1156468E+00
         21   -1    0    0  503  502  0.00000000000E+00  0.00000000000E+00  0.27382878272E+03  0.27382878272E+03  0.00000000000E+00 0. -1.
         21   -1    0    0  501  503 -0.00000000000E+00 -0.00000000000E+00 -0.15264565578E+03  0.15264565578E+03  0.00000000000E+00 0. -1.
          6    1    1    2  501    0 -0.96985015441E+00 -0.85827600870E+02 -0.12025418478E+02  0.19260303313E+03  0.17200000000E+03 0. -1.
         -6    1    1    2    0  502  0.96985015441E+00  0.85827600870E+02  0.13320854542E+03  0.23387140538E+03  0.17200000000E+03 0. -1.
<mgrwt>
<rscale>  2 0.19222726E+03</rscale>
<asrwt>0</asrwt>
<pdfrwt beam="1">  1       21 0.68457195E-01 0.19222726E+03</pdfrwt>
<pdfrwt beam="2">  1       21 0.38161414E-01 0.19222726E+03</pdfrwt>
<totfact> 0.12891120E+04</totfact>
</mgrwt>
</event>
<event>
 4    1  0.1132373E+000  0.2646895E+03  0.7546771E-02  0.1104358E+00
         21   -1    0    0  503  502  0.00000000000E+00  0.00000000000E+00  0.76826253384E+02  0.76826253384E+02  0.00000000000E+00 0.  1.
         21   -1    0    0  501  503 -0.00000000000E+00 -0.00000000000E+00 -0.15069991543E+04  0.15069991543E+04  0.00000000000E+00 0. -1.
          6    1    1    2  501    0  0.19816328369E+03  0.34754263013E+02 -0.12127120543E+04  0.12412618871E+04  0.17200000000E+03 0. -1.
         -6    1    1    2    0  502 -0.19816328369E+03 -0.34754263013E+02 -0.21746084661E+03  0.34256352055E+03  0.17200000000E+03 0.  1.
<mgrwt>
<rscale>  2 0.26468953E+03</rscale>
<asrwt>0</asrwt>
<pdfrwt beam="1">  1       21 0.19206563E-01 0.26468953E+03</pdfrwt>
<pdfrwt beam="2">  1       21 0.37674980E+00 0.26468953E+03</pdfrwt>
<totfact> 0.27217693E+02</totfact>
</mgrwt>
</event>
<event>
 4    1  0.1132373E+000  0.1744799E+03  0.7546771E-02  0.1173255E+00
         21   -1    0    0  503  502  0.00000000000E+00  0.00000000000E+00  0.50092338140E+02  0.50092338140E+02  0.00000000000E+00 0.  1.
         21   -1    0    0  501  503 -0.00000000000E+00 -0.00000000000E+00 -0.12569209995E+04  0.12569209995E+04  0.00000000000E+00 0.  1.
          6    1    1    2  501    0  0.21042625675E+02  0.20406639297E+02 -0.10730685504E+04  0.10871611366E+04  0.17200000000E+03 0.  1.
         -6    1    1    2    0  502 -0.21042625675E+02 -0.20406639297E+02 -0.13376011092E+03  0.21985220103E+03  0.17200000000E+03 0.  1.
<mgrwt>
<rscale>  2 0.17447986E+03</rscale>
<asrwt>0</asrwt>
<pdfrwt beam="1">  1       21 0.12523085E-01 0.17447986E+03</pdfrwt>
<pdfrwt beam="2">  1       21 0.31423023E+00 0.17447986E+03</pdfrwt>
<totfact> 0.15759245E+03</totfact>
</mgrwt>
</event>
<event>
 4    1  0.1132373E+000  0.2123918E+03  0.7546771E-02  0.1139686E+00
         21   -1    0    0  503  502  0.00000000000E+00  0.00000000000E+00  0.38570254862E+03  0.38570254862E+03  0.00000000000E+00 0. -1.
         21   -1    0    0  501  503 -0.00000000000E+00 -0.00000000000E+00 -0.45761151845E+03  0.45761151845E+03  0.00000000000E+00 0.  1.
          6    1    1    2  501    0 -0.54840338569E+02 -0.11188758437E+03 -0.39975933028E+03  0.45267849122E+03  0.17200000000E+03 0.  1.
         -6    1    1    2    0  502  0.54840338569E+02  0.11188758437E+03  0.32785036045E+03  0.39063557585E+03  0.17200000000E+03 0. -1.
<mgrwt>
<rscale>  2 0.21239184E+03</rscale>
<asrwt>0</asrwt>
<pdfrwt beam="1">  1       21 0.96425637E-01 0.21239184E+03</pdfrwt>
<pdfrwt beam="2">  1       21 0.11440288E+00 0.21239184E+03</pdfrwt>
<totfact> 0.51998215E+02</totfact>
</mgrwt>
</event>
<event>
 4    1  0.1132373E+000  0.1777312E+03  0.7546771E-02  0.1170017E+00
         21   -1    0    0  503  502  0.00000000000E+00  0.00000000000E+00  0.93057447584E+03  0.93057447584E+03  0.00000000000E+00 0.  1.
         21   -1    0    0  501  503 -0.00000000000E+00 -0.00000000000E+00 -0.12131170779E+03  0.12131170779E+03  0.00000000000E+00 0.  1.
          6    1    1    2  501    0 -0.24709304118E+02  0.37334036936E+02 -0.41702957671E+02  0.18255825564E+03  0.17200000000E+03 0.  1.
         -6    1    1    2    0  502  0.24709304118E+02 -0.37334036936E+02  0.85096572572E+03  0.86932792798E+03  0.17200000000E+03 0.  1.
<mgrwt>
<rscale>  2 0.17773120E+03</rscale>
<asrwt>0</asrwt>
<pdfrwt beam="1">  1       21 0.23264360E+00 0.17773120E+03</pdfrwt>
<pdfrwt beam="2">  1       21 0.30327930E-01 0.17773120E+03</pdfrwt>
<totfact> 0.89620863E+02</totfact>
</mgrwt>
</event>
<event>
 4    1  0.1132373E+000  0.1789026E+03  0.7546771E-02  0.1168869E+00
         21   -1    0    0  501  502  0.00000000000E+00  0.00000000000E+00  0.41123807953E+03  0.41123807953E+03  0.00000000000E+00 0. -1.
         21   -1    0    0  502  503 -0.00000000000E+00 -0.00000000000E+00 -0.10966775927E+03  0.10966775927E+03  0.00000000000E+00 0.  1.
          6    1    1    2  501    0 -0.33849407597E+02 -0.35726349067E+02  0.29112125028E+03  0.34169831252E+03  0.17200000000E+03 0. -1.
         -6    1    1    2    0  503  0.33849407597E+02  0.35726349067E+02  0.10449069988E+02  0.17920752628E+03  0.17200000000E+03 0.  1.
<mgrwt>
<rscale>  2 0.17890264E+03</rscale>
<asrwt>0</asrwt>
<pdfrwt beam="1">  1       21 0.10280952E+00 0.17890264E+03</pdfrwt>
<pdfrwt beam="2">  1       21 0.27416941E-01 0.17890264E+03</pdfrwt>
<totfact> 0.98478444E+03</totfact>
</mgrwt>
</event>
<event>
 4    1  0.1132373E+000  0.1747603E+03  0.7546771E-02  0.1172973E+00
         21   -1    0    0  501  502  0.00000000000E+00  0.00000000000E+00  0.42256751502E+03  0.42256751502E+03  0.00000000000E+00 0. -1.
         21   -1    0    0  502  503 -0.00000000000E+00 -0.00000000000E+00 -0.13243146187E+03  0.13243146187E+03  0.00000000000E+00 0. -1.
          6    1    1    2  501    0 -0.17422082581E+02 -0.25566486148E+02  0.33209611222E+03  0.37527190399E+03  0.17200000000E+03 0. -1.
         -6    1    1    2    0  503  0.17422082581E+02  0.25566486148E+02 -0.41960059071E+02  0.17972707290E+03  0.17200000000E+03 0. -1.
<mgrwt>
<rscale>  2 0.17476033E+03</rscale>
<asrwt>0</asrwt>
<pdfrwt beam="1">  1       21 0.10564188E+00 0.17476033E+03</pdfrwt>
<pdfrwt beam="2">  1       21 0.33107866E-01 0.17476033E+03</pdfrwt>
<totfact> 0.64139395E+03</totfact>
</mgrwt>
</event>
<event>
 4    1  0.1132373E+000  0.1874602E+03  0.7546771E-02  0.1160772E+00
         21   -1    0    0  501  502  0.00000000000E+00  0.00000000000E+00  0.64711420396E+03  0.64711420396E+03  0.00000000000E+00 0. -1.
         21   -1    0    0  502  503 -0.00000000000E+00 -0.00000000000E+00 -0.74471663037E+02  0.74471663037E+02  0.00000000000E+00 0. -1.
          6    1    1    2  501    0 -0.74536752962E+02 -0.12585453877E+01  0.47407270656E+03  0.50979039083E+03  0.17200000000E+03 0.  1.
         -6    1    1    2    0  503  0.74536752962E+02  0.12585453877E+01  0.98569834365E+02  0.21179547617E+03  0.17200000000E+03 0.  1.
<mgrwt>
<rscale>  2 0.18746016E+03</rscale>
<asrwt>0</asrwt>
<pdfrwt beam="1">  1       21 0.16177853E+00 0.18746016E+03</pdfrwt>
<pdfrwt beam="2">  1       21 0.18617918E-01 0.18746016E+03</pdfrwt>
<totfact> 0.64709910E+03</totfact>
</mgrwt>
</event>
<event>
 4    1  0.1132373E+000  0.1788711E+03  0.7546771E-02  0.1168900E+00
         21   -1    0    0  501  502  0.00000000000E+00  0.00000000000E+00  0.27740909655E+02  0.27740909655E+02  0.00000000000E+00 0. -1.
         21   -1    0    0  502  503 -0.00000000000E+00 -0.00000000000E+00 -0.11551052010E+04  0.11551052010E+04  0.00000000000E+00 0. -1.
          6    1    1    2  501    0 -0.23115230560E+02 -0.43319440884E+02 -0.54060653048E+03  0.56942981011E+03  0.17200000000E+03 0. -1.
         -6    1    1    2    0  503  0.23115230560E+02  0.43319440884E+02 -0.58675776087E+03  0.61341630055E+03  0.17200000000E+03 0. -1.
<mgrwt>
<rscale>  2 0.17887115E+03</rscale>
<asrwt>0</asrwt>
<pdfrwt beam="1">  1       21 0.69352275E-02 0.17887115E+03</pdfrwt>
<pdfrwt beam="2">  1       21 0.28877630E+00 0.17887115E+03</pdfrwt>
<totfact> 0.61854933E+03</totfact>
</mgrwt>
</event>
<event>
 4    1  0.1132373E+000  0.1974660E+03  0.7546771E-02  0.1151895E+00
         21   -1    0    0  501  502  0.00000000000E+00  0.00000000000E+00  0.13866992979E+04  0.13866992979E+04  0.00000000000E+00 0. -1.
         21   -1    0    0  502  503 -0.00000000000E+00 -0.00000000000E+00 -0.28301713342E+02  0.28301713342E+02  0.00000000000E+00 0.  1.
          6    1    1    2  501    0  0.72617477279E+02  0.64308099245E+02  0.62237809877E+03  0.65295277583E+03  0.17200000000E+03 0. -1.
         -6    1    1    2    0  503 -0.72617477279E+02 -0.64308099245E+02  0.73601948577E+03  0.76204823539E+03  0.17200000000E+03 0. -1.
<mgrwt>
<rscale>  2 0.19746602E+03</rscale>
<asrwt>0</asrwt>
<pdfrwt beam="1">  1       21 0.34667460E+00 0.19746602E+03</pdfrwt>
<pdfrwt beam="2">  1       21 0.70754330E-02 0.19746602E+03</pdfrwt>
<totfact> 0.26992368E+03</totfact>
</mgrwt>
</event>
<event>
 4    1  0.1132373E+000  0.1797407E+03  0.7546771E-02  0.1168054E+00
         21   -1    0    0  503  502  0.00000000000E+00  0.00000000000E+00  0.25877731841E+03  0.25877731841E+03  0.00000000000E+00 0.  1.
         21   -1    0    0  501  503 -0.00000000000E+00 -0.00000000000E+00 -0.15775669592E+03  0.15775669592E+03  0.00000000000E+00 0.  1.
          6    1    1    2  501    0  0.41087623876E+02  0.32164145710E+02 -0.44618068499E+02  0.18519583457E+03  0.17200000000E+03 0.  1.
         -6    1    1    2    0  502 -0.41087623876E+02 -0.32164145710E+02  0.14563869098E+03  0.23133817976E+03  0.17200000000E+03 0.  1.
<mgrwt>
<rscale>  2 0.17974072E+03</rscale>
<asrwt>0</asrwt>
<pdfrwt beam="1">  1       21 0.64694329E-01 0.17974072E+03</pdfrwt>
<pdfrwt beam="2">  1       21 0.39439174E-01 0.17974072E+03</pdfrwt>
<totfact> 0.13762171E+04</totfact>
</mgrwt>
</event>
<event>
 4    1  0.1132373E+000  0.2365276E+03  0.7546771E-02  0.1122128E+00
         21   -1    0    0  501  502  0.00000000000E+00  0.00000000000E+00  0.41077430015E+03  0.41077430015E+03  0.00000000000E+00 0. -1.
         21   -1    0    0  502  503 -0.00000000000E+00 -0.00000000000E+00 -0.14378180296E+03  0.14378180296E+03  0.00000000000E+00 0. -1.
          6    1    1    2  501    0 -0.14277184544E+03  0.77314383223E+02  0.69802127209E+02  0.24661234897E+03  0.17200000000E+03 0. -1.
         -6    1    1    2    0  503  0.14277184544E+03 -0.77314383223E+02  0.19719036998E+03  0.30794375414E+03  0.17200000000E+03 0. -1.
<mgrwt>
<rscale>  2 0.23652762E+03</rscale>
<asrwt>0</asrwt>
<pdfrwt beam="1">  1       21 0.10269357E+00 0.23652762E+03</pdfrwt>
<pdfrwt beam="2">  1       21 0.35945452E-01 0.23652762E+03</pdfrwt>
<totfact> 0.55704617E+03</totfact>
</mgrwt>
</event>
<event>
 4    1  0.1132373E+000  0.1891102E+03  0.7546771E-02  0.1159266E+00
         21   -1    0    0  501  502  0.00000000000E+00  0.00000000000E+00  0.13051564531E+04  0.13051564531E+04  0.00000000000E+00 0.  1.
         21   -1    0    0  502  503 -0.00000000000E+00 -0.00000000000E+00 -0.50987329874E+02  0.50987329874E+02  0.00000000000E+00 0.  1.
          6    1    1    2  501    0  0.31838125572E+01  0.78540052047E+02  0.10882685229E+04  0.11045773193E+04  0.17200000000E+03 0.  1.
         -6    1    1    2    0  503 -0.31838125572E+01 -0.78540052047E+02  0.16590060030E+03  0.25156646362E+03  0.17200000000E+03 0.  1.
<mgrwt>
<rscale>  2 0.18911022E+03</rscale>
<asrwt>0</asrwt>
<pdfrwt beam="1">  1       21 0.32628900E+00 0.18911022E+03</pdfrwt>
<pdfrwt beam="2">  1       21 0.12746837E-01 0.18911022E+03</pdfrwt>
<totfact> 0.12736491E+03</totfact>
</mgrwt>
</event>
<event>
 4    1  0.1132373E+000  0.2680227E+03  0.7546771E-02  0.1102417E+00
         21   -1    0    0  501  502  0.00000000000E+00  0.00000000000E+00  0.28310350967E+03  0.28310350967E+03  0.00000000000E+00 0. -1.
         21   -1    0    0  502  503 -0.00000000000E+00 -0.00000000000E+00 -0.36291570189E+03  0.36291570189E+03  0.00000000000E+00 0. -1.
          6    1    1    2  501    0 -0.17157251133E+03  0.11320346770E+03  0.13725373047E+03  0.30112246391E+03  0.17200000000E+03 0. -1.
         -6    1    1    2    0  503  0.17157251133E+03 -0.11320346770E+03 -0.21706592269E+03  0.34489674765E+03  0.17200000000E+03 0. -1.
<mgrwt>
<rscale>  2 0.26802267E+03</rscale>
<asrwt>0</asrwt>
<pdfrwt beam="1">  1       21 0.70775878E-01 0.26802267E+03</pdfrwt>
<pdfrwt beam="2">  1       21 0.90728925E-01 0.26802267E+03</pdfrwt>
<totfact> 0.17561029E+03</totfact>
</mgrwt>
</event>
<event>
 4    1  0.1132373E+000  0.1992719E+03  0.7546771E-02  0.1150355E+00
         21   -1    0    0  501  502  0.00000000000E+00  0.00000000000E+00  0.10400130454E+03  0.10400130454E+03  0.00000000000E+00 0.  1.
         21   -1    0    0  502  503 -0.00000000000E+00 -0.00000000000E+00 -0.54097166103E+03  0.54097166103E+03  0.00000000000E+00 0.  1.
          6    1    1    2  501    0 -0.97961348657E+02 -0.22997004630E+02 -0.43566464644E+02  0.20397873638E+03  0.17200000000E+03 0.  1.
         -6    1    1    2    0  503  0.97961348657E+02  0.22997004630E+02 -0.39340389185E+03  0.44099422918E+03  0.17200000000E+03 0.  1.
<mgrwt>
<rscale>  2 0.19927189E+03</rscale>
<asrwt>0</asrwt>
<pdfrwt beam="1">  1       21 0.26000326E-01 0.19927189E+03</pdfrwt>
<pdfrwt beam="2">  1       21 0.13524291E+00 0.19927189E+03</pdfrwt>
<totfact> 0.54652874E+03</totfact>
</mgrwt>
</event>
<event>
 4    1  0.1132373E+000  0.1943696E+03  0.7546771E-02  0.1154578E+00
         21   -1    0    0  501  502  0.00000000000E+00  0.00000000000E+00  0.29863735352E+03  0.29863735352E+03  0.00000000000E+00 0.  1.
         21   -1    0    0  502  503 -0.00000000000E+00 -0.00000000000E+00 -0.14233193721E+03  0.14233193721E+03  0.00000000000E+00 0.  1.
          6    1    1    2  501    0 -0.16259462817E+02  0.89057157502E+02  0.15167277592E+03  0.24654447548E+03  0.17200000000E+03 0.  1.
         -6    1    1    2    0  503  0.16259462817E+02 -0.89057157502E+02  0.46326403938E+01  0.19442481526E+03  0.17200000000E+03 0.  1.
<mgrwt>
<rscale>  2 0.19436962E+03</rscale>
<asrwt>0</asrwt>
<pdfrwt beam="1">  1       21 0.74659337E-01 0.19436962E+03</pdfrwt>
<pdfrwt beam="2">  1       21 0.35582985E-01 0.19436962E+03</pdfrwt>
<totfact> 0.12217922E+04</totfact>
</mgrwt>
</event>
<event>
 4    1  0.1132373E+000  0.1884967E+03  0.7546771E-02  0.1159824E+00
         21   -1    0    0  503  502  0.00000000000E+00  0.00000000000E+00  0.48870460311E+02  0.48870460311E+02  0.00000000000E+00 0. -1.
         21   -1    0    0  501  503 -0.00000000000E+00 -0.00000000000E+00 -0.77760767766E+03  0.77760767766E+03  0.00000000000E+00 0.  1.
          6    1    1    2  501    0  0.53069585648E+02 -0.55952082085E+02 -0.46974341460E+03  0.50615204432E+03  0.17200000000E+03 0. -1.
         -6    1    1    2    0  502 -0.53069585648E+02  0.55952082085E+02 -0.25899380274E+03  0.32032609365E+03  0.17200000000E+03 0. -1.
<mgrwt>
<rscale>  2 0.18849673E+03</rscale>
<asrwt>0</asrwt>
<pdfrwt beam="1">  1       21 0.12217615E-01 0.18849673E+03</pdfrwt>
<pdfrwt beam="2">  1       21 0.19440192E+00 0.18849673E+03</pdfrwt>
<totfact> 0.83228723E+03</totfact>
</mgrwt>
</event>
<event>
 4    1  0.1132373E+000  0.2411127E+03  0.7546771E-02  0.1119054E+00
         21   -1    0    0  503  502  0.00000000000E+00  0.00000000000E+00  0.50347795540E+03  0.50347795540E+03  0.00000000000E+00 0.  1.
         21   -1    0    0  501  503 -0.00000000000E+00 -0.00000000000E+00 -0.14588248745E+03  0.14588248745E+03  0.00000000000E+00 0. -1.
          6    1    1    2  501    0  0.10382042084E+03 -0.13331420444E+03  0.32704880734E+03  0.40632041454E+03  0.17200000000E+03 0.  1.
         -6    1    1    2    0  502 -0.10382042084E+03  0.13331420444E+03  0.30546660610E+02  0.24304002832E+03  0.17200000000E+03 0. -1.
<mgrwt>
<rscale>  2 0.24111275E+03</rscale>
<asrwt>0</asrwt>
<pdfrwt beam="1">  1       21 0.12586948E+00 0.24111275E+03</pdfrwt>
<pdfrwt beam="2">  1       21 0.36470623E-01 0.24111275E+03</pdfrwt>
<totfact> 0.32707392E+03</totfact>
</mgrwt>
</event>
<event>
 4    1  0.1132373E+000  0.1955354E+03  0.7546771E-02  0.1153561E+00
         21   -1    0    0  503  502  0.00000000000E+00  0.00000000000E+00  0.16529525072E+03  0.16529525072E+03  0.00000000000E+00 0.  1.
         21   -1    0    0  501  503 -0.00000000000E+00 -0.00000000000E+00 -0.23339657789E+03  0.23339657789E+03  0.00000000000E+00 0. -1.
          6    1    1    2  501    0 -0.87684434600E+02  0.31008531516E+02 -0.52908896972E+02  0.20256712585E+03  0.17200000000E+03 0. -1.
         -6    1    1    2    0  502  0.87684434600E+02 -0.31008531516E+02 -0.15192430201E+02  0.19612470276E+03  0.17200000000E+03 0.  1.
<mgrwt>
<rscale>  2 0.19553539E+03</rscale>
<asrwt>0</asrwt>
<pdfrwt beam="1">  1       21 0.41323813E-01 0.19553539E+03</pdfrwt>
<pdfrwt beam="2">  1       21 0.58349144E-01 0.19553539E+03</pdfrwt>
<totfact> 0.15484343E+04</totfact>
</mgrwt>
</event>
<event>
 4    1  0.1132373E+000  0.1865114E+03  0.7546771E-02  0.1161646E+00
         21   -1    0    0  501  502  0.00000000000E+00  0.00000000000E+00  0.12575677359E+03  0.12575677359E+03  0.00000000000E+00 0.  1.
         21   -1    0    0  502  503 -0.00000000000E+00 -0.00000000000E+00 -0.30771060471E+03  0.30771060471E+03  0.00000000000E+00 0.  1.
          6    1    1    2  501    0 -0.63882020681E+02  0.33490340890E+02 -0.22081912124E+02  0.18781407387E+03  0.17200000000E+03 0.  1.
         -6    1    1    2    0  503  0.63882020681E+02 -0.33490340890E+02 -0.15987191899E+03  0.24565330444E+03  0.17200000000E+03 0.  1.
<mgrwt>
<rscale>  2 0.18651144E+03</rscale>
<asrwt>0</asrwt>
<pdfrwt beam="1">  1       21 0.31439194E-01 0.18651144E+03</pdfrwt>
<pdfrwt beam="2">  1       21 0.76927651E-01 0.18651144E+03</pdfrwt>
<totfact> 0.14663968E+04</totfact>
</mgrwt>
</event>
<event>
 4    1  0.1132373E+000  0.2106461E+03  0.7546771E-02  0.1141055E+00
         21   -1    0    0  501  502  0.00000000000E+00  0.00000000000E+00  0.13780714406E+03  0.13780714406E+03  0.00000000000E+00 0.  1.
         21   -1    0    0  502  503 -0.00000000000E+00 -0.00000000000E+00 -0.46524190397E+03  0.46524190397E+03  0.00000000000E+00 0.  1.
          6    1    1    2  501    0  0.10264022695E+03  0.65213188949E+02  0.36002240050E+01  0.21067685638E+03  0.17200000000E+03 0.  1.
         -6    1    1    2    0  503 -0.10264022695E+03 -0.65213188949E+02 -0.33103498392E+03  0.39237219165E+03  0.17200000000E+03 0.  1.
<mgrwt>
<rscale>  2 0.21064609E+03</rscale>
<asrwt>0</asrwt>
<pdfrwt beam="1">  1       21 0.34451786E-01 0.21064609E+03</pdfrwt>
<pdfrwt beam="2">  1       21 0.11631048E+00 0.21064609E+03</pdfrwt>
<totfact> 0.45640830E+03</totfact>
</mgrwt>
</event>
<event>
 4    1  0.1132373E+000  0.2588364E+03  0.7546771E-02  0.1107844E+00
         21   -1    0    0  501  502  0.00000000000E+00  0.00000000000E+00  0.55391741310E+03  0.55391741310E+03  0.00000000000E+00 0.  1.
         21   -1    0    0  502  503 -0.00000000000E+00 -0.00000000000E+00 -0.12229759884E+03  0.12229759884E+03  0.00000000000E+00 0. -1.
          6    1    1    2  501    0 -0.17883280994E+03 -0.73696098355E+02  0.25130208473E+03  0.36076173108E+03  0.17200000000E+03 0.  1.
         -6    1    1    2    0  503  0.17883280994E+03  0.73696098355E+02  0.18031772954E+03  0.31545328086E+03  0.17200000000E+03 0. -1.
<mgrwt>
<rscale>  2 0.25883641E+03</rscale>
<asrwt>0</asrwt>
<pdfrwt beam="1">  1       21 0.13847935E+00 0.25883641E+03</pdfrwt>
<pdfrwt beam="2">  1       21 0.30574401E-01 0.25883641E+03</pdfrwt>
<totfact> 0.35931071E+03</totfact>
</mgrwt>
</event>
<event>
 4    1  0.1132373E+000  0.3295312E+03  0.7546771E-02  0.1071344E+00
         21   -1    0    0  501  502  0.00000000000E+00  0.00000000000E+00  0.66532316551E+03  0.66532316551E+03  0.00000000000E+00 0.  1.
         21   -1    0    0  502  503 -0.00000000000E+00 -0.00000000000E+00 -0.18712172615E+03  0.18712172615E+03  0.00000000000E+00 0. -1.
          6    1    1    2  501    0  0.42883949996E+02 -0.27779090067E+03  0.39144737912E+03  0.51168532154E+03  0.17200000000E+03 0.  1.
         -6    1    1    2    0  503 -0.42883949996E+02  0.27779090067E+03  0.86754060238E+02  0.34075957012E+03  0.17200000000E+03 0. -1.
<mgrwt>
<rscale>  2 0.32953121E+03</rscale>
<asrwt>0</asrwt>
<pdfrwt beam="1">  1       21 0.16633079E+00 0.32953121E+03</pdfrwt>
<pdfrwt beam="2">  1       21 0.46780433E-01 0.32953121E+03</pdfrwt>
<totfact> 0.88553207E+02</totfact>
</mgrwt>
</event>
<event>
 4    1  0.1132373E+000  0.2493257E+03  0.7546771E-02  0.1113732E+00
         21   -1    0    0  503  502  0.00000000000E+00  0.00000000000E+00  0.22867355145E+03  0.22867355145E+03  0.00000000000E+00 0. -1.
         21   -1    0    0  501  503 -0.00000000000E+00 -0.00000000000E+00 -0.48557072980E+03  0.48557072980E+03  0.00000000000E+00 0.  1.
          6    1    1    2  501    0 -0.16502523287E+03 -0.73116029845E+02 -0.36537914031E+03  0.44234058990E+03  0.17200000000E+03 0.  1.
         -6    1    1    2    0  502  0.16502523287E+03  0.73116029845E+02  0.10848196195E+03  0.27190369135E+03  0.17200000000E+03 0. -1.
<mgrwt>
<rscale>  2 0.24932565E+03</rscale>
<asrwt>0</asrwt>
<pdfrwt beam="1">  1       21 0.57168388E-01 0.24932565E+03</pdfrwt>
<pdfrwt beam="2">  1       21 0.12139268E+00 0.24932565E+03</pdfrwt>
<totfact> 0.14036406E+03</totfact>
</mgrwt>
</event>
<event>
 4    1  0.1132373E+000  0.2098321E+03  0.7546771E-02  0.1141699E+00
         21   -1    0    0  503  502  0.00000000000E+00  0.00000000000E+00  0.99960065900E+02  0.99960065900E+02  0.00000000000E+00 0.  1.
         21   -1    0    0  501  503 -0.00000000000E+00 -0.00000000000E+00 -0.87124749976E+03  0.87124749976E+03  0.00000000000E+00 0.  1.
          6    1    1    2  501    0 -0.86916946719E+02 -0.83011774938E+02 -0.72710171460E+03  0.75677368729E+03  0.17200000000E+03 0.  1.
         -6    1    1    2    0  502  0.86916946719E+02  0.83011774938E+02 -0.44185719261E+02  0.21443387837E+03  0.17200000000E+03 0.  1.
<mgrwt>
<rscale>  2 0.20983210E+03</rscale>
<asrwt>0</asrwt>
<pdfrwt beam="1">  1       21 0.24990017E-01 0.20983210E+03</pdfrwt>
<pdfrwt beam="2">  1       21 0.21781187E+00 0.20983210E+03</pdfrwt>
<totfact> 0.15440484E+03</totfact>
</mgrwt>
</event>
<event>
 4    1  0.1132373E+000  0.1884910E+03  0.7546771E-02  0.1159829E+00
         21   -1    0    0  501  502  0.00000000000E+00  0.00000000000E+00  0.69034331538E+02  0.69034331538E+02  0.00000000000E+00 0.  1.
         21   -1    0    0  502  503 -0.00000000000E+00 -0.00000000000E+00 -0.70606837097E+03  0.70606837097E+03  0.00000000000E+00 0.  1.
          6    1    1    2  501    0  0.10696779714E+02 -0.76357330643E+02 -0.11673055725E+03  0.22170901207E+03  0.17200000000E+03 0.  1.
         -6    1    1    2    0  503 -0.10696779714E+02  0.76357330643E+02 -0.52030348218E+03  0.55339369043E+03  0.17200000000E+03 0.  1.
<mgrwt>
<rscale>  2 0.18849102E+03</rscale>
<asrwt>0</asrwt>
<pdfrwt beam="1">  1       21 0.17258583E-01 0.18849102E+03</pdfrwt>
<pdfrwt beam="2">  1       21 0.17651709E+00 0.18849102E+03</pdfrwt>
<totfact> 0.58538272E+03</totfact>
</mgrwt>
</event>
<event>
 4    1  0.1132373E+000  0.3210973E+03  0.7546771E-02  0.1075145E+00
         21   -1    0    0  501  502  0.00000000000E+00  0.00000000000E+00  0.80368366686E+03  0.80368366686E+03  0.00000000000E+00 0. -1.
         21   -1    0    0  502  503 -0.00000000000E+00 -0.00000000000E+00 -0.17261965286E+03  0.17261965286E+03  0.00000000000E+00 0. -1.
          6    1    1    2  501    0  0.23618969325E+03  0.13316868486E+03  0.68152586371E+02  0.32825027777E+03  0.17200000000E+03 0. -1.
         -6    1    1    2    0  503 -0.23618969325E+03 -0.13316868486E+03  0.56291142763E+03  0.64805304195E+03  0.17200000000E+03 0. -1.
<mgrwt>
<rscale>  2 0.32109729E+03</rscale>
<asrwt>0</asrwt>
<pdfrwt beam="1">  1       21 0.20092091E+00 0.32109729E+03</pdfrwt>
<pdfrwt beam="2">  1       21 0.43154915E-01 0.32109729E+03</pdfrwt>
<totfact> 0.60819122E+02</totfact>
</mgrwt>
</event>
<event>
 4    1  0.1132373E+000  0.1970761E+03  0.7546771E-02  0.1152230E+00
         21   -1    0    0  503  502  0.00000000000E+00  0.00000000000E+00  0.33286871009E+02  0.33286871009E+02  0.00000000000E+00 0. -1.
         21   -1    0    0  501  503 -0.00000000000E+00 -0.00000000000E+00 -0.13786426927E+04  0.13786426927E+04  0.00000000000E+00 0.  1.
          6    1    1    2  501    0 -0.95591203995E+02 -0.10830398314E+02 -0.94941565244E+03  0.96965409137E+03  0.17200000000E+03 0.  1.
         -6    1    1    2    0  502  0.95591203995E+02  0.10830398314E+02 -0.39594016925E+03  0.44227547234E+03  0.17200000000E+03 0. -1.
<mgrwt>
<rscale>  2 0.19707607E+03</rscale>
<asrwt>0</asrwt>
<pdfrwt beam="1">  1       21 0.83217181E-02 0.19707607E+03</pdfrwt>
<pdfrwt beam="2">  1       21 0.34466066E+00 0.19707607E+03</pdfrwt>
<totfact> 0.20936504E+03</totfact>
</mgrwt>
</event>
<event>
 4    1  0.1132373E+000  0.2195899E+03  0.7546771E-02  0.1134189E+00
         21   -1    0    0  501  502  0.00000000000E+00  0.00000000000E+00  0.15159892685E+03  0.15159892685E+03  0.00000000000E+00 0. -1.
         21   -1    0    0  502  503 -0.00000000000E+00 -0.00000000000E+00 -0.38717037924E+03  0.38717037924E+03  0.00000000000E+00 0.  1.
          6    1    1    2  501    0  0.79301728575E+02 -0.11111691666E+03 -0.39841526974E+01  0.21962606129E+03  0.17200000000E+03 0. -1.
         -6    1    1    2    0  503 -0.79301728575E+02  0.11111691666E+03 -0.23158729969E+03  0.31914324480E+03  0.17200000000E+03 0.  1.
<mgrwt>
<rscale>  2 0.21958992E+03</rscale>
<asrwt>0</asrwt>
<pdfrwt beam="1">  1       21 0.37899732E-01 0.21958992E+03</pdfrwt>
<pdfrwt beam="2">  1       21 0.96792594E-01 0.21958992E+03</pdfrwt>
<totfact> 0.58345562E+03</totfact>
</mgrwt>
</event>
<event>
 4    1  0.1132373E+000  0.2124625E+03  0.7546771E-02  0.1139631E+00
         21   -1    0    0  503  502  0.00000000000E+00  0.00000000000E+00  0.82642816222E+03  0.82642816222E+03  0.00000000000E+00 0. -1.
         21   -1    0    0  501  503 -0.00000000000E+00 -0.00000000000E+00 -0.55770793360E+02  0.55770793360E+02  0.00000000000E+00 0.  1.
          6    1    1    2  501    0  0.47659292491E+02 -0.11526007394E+03  0.44866490372E+03  0.49642772750E+03  0.17200000000E+03 0.  1.
         -6    1    1    2    0  502 -0.47659292491E+02  0.11526007394E+03  0.32199246515E+03  0.38577122808E+03  0.17200000000E+03 0. -1.
<mgrwt>
<rscale>  2 0.21246245E+03</rscale>
<asrwt>0</asrwt>
<pdfrwt beam="1">  1       21 0.20660700E+00 0.21246245E+03</pdfrwt>
<pdfrwt beam="2">  1       21 0.13942701E-01 0.21246245E+03</pdfrwt>
<totfact> 0.53626889E+03</totfact>
</mgrwt>
</event>
<event>
 4    1  0.1132373E+000  0.2001758E+03  0.7546771E-02  0.1149591E+00
         21   -1    0    0  501  502  0.00000000000E+00  0.00000000000E+00  0.18716085502E+03  0.18716085502E+03  0.00000000000E+00 0.  1.
         21   -1    0    0  502  503 -0.00000000000E+00 -0.00000000000E+00 -0.37040451319E+03  0.37040451319E+03  0.00000000000E+00 0.  1.
          6    1    1    2  501    0  0.47526391155E+02  0.90705986817E+02  0.89478565194E+02  0.21926410452E+03  0.17200000000E+03 0.  1.
         -6    1    1    2    0  503 -0.47526391155E+02 -0.90705986817E+02 -0.27272222336E+03  0.33830126369E+03  0.17200000000E+03 0.  1.
<mgrwt>
<rscale>  2 0.20017576E+03</rscale>
<asrwt>0</asrwt>
<pdfrwt beam="1">  1       21 0.46790214E-01 0.20017576E+03</pdfrwt>
<pdfrwt beam="2">  1       21 0.92601128E-01 0.20017576E+03</pdfrwt>
<totfact> 0.42739729E+03</totfact>
</mgrwt>
</event>
<event>
 4    1  0.1132373E+000  0.1794748E+03  0.7546771E-02  0.1168312E+00
         21   -1    0    0  501  502  0.00000000000E+00  0.00000000000E+00  0.75255604790E+02  0.75255604790E+02  0.00000000000E+00 0.  1.
         21   -1    0    0  502  503 -0.00000000000E+00 -0.00000000000E+00 -0.70288385423E+03  0.70288385423E+03  0.00000000000E+00 0.  1.
          6    1    1    2  501    0  0.39278644674E+02 -0.32930263101E+02 -0.55711362617E+03  0.58530915474E+03  0.17200000000E+03 0.  1.
         -6    1    1    2    0  503 -0.39278644674E+02  0.32930263101E+02 -0.70514623272E+02  0.19283030428E+03  0.17200000000E+03 0.  1.
<mgrwt>
<rscale>  2 0.17947483E+03</rscale>
<asrwt>0</asrwt>
<pdfrwt beam="1">  1       21 0.18813901E-01 0.17947483E+03</pdfrwt>
<pdfrwt beam="2">  1       21 0.17572096E+00 0.17947483E+03</pdfrwt>
<totfact> 0.50958406E+03</totfact>
</mgrwt>
</event>
<event>
 4    1  0.1132373E+000  0.2040233E+03  0.7546771E-02  0.1146388E+00
         21   -1    0    0  503  502  0.00000000000E+00  0.00000000000E+00  0.28647309389E+03  0.28647309389E+03  0.00000000000E+00 0.  1.
         21   -1    0    0  501  503 -0.00000000000E+00 -0.00000000000E+00 -0.17141906419E+03  0.17141906419E+03  0.00000000000E+00 0.  1.
          6    1    1    2  501    0  0.85456417215E+02  0.68838154236E+02 -0.31835396571E+02  0.20649208991E+03  0.17200000000E+03 0.  1.
         -6    1    1    2    0  502 -0.85456417215E+02 -0.68838154236E+02  0.14688942627E+03  0.25140006816E+03  0.17200000000E+03 0.  1.
<mgrwt>
<rscale>  2 0.20402326E+03</rscale>
<asrwt>0</asrwt>
<pdfrwt beam="1">  1       21 0.71618273E-01 0.20402326E+03</pdfrwt>
<pdfrwt beam="2">  1       21 0.42854766E-01 0.20402326E+03</pdfrwt>
<totfact> 0.91523733E+03</totfact>
</mgrwt>
</event>
<event>
 4    1  0.1132373E+000  0.2297736E+03  0.7546771E-02  0.1126799E+00
         21   -1    0    0  503  502  0.00000000000E+00  0.00000000000E+00  0.34716810302E+03  0.34716810302E+03  0.00000000000E+00 0. -1.
         21   -1    0    0  501  503 -0.00000000000E+00 -0.00000000000E+00 -0.26258431813E+03  0.26258431813E+03  0.00000000000E+00 0.  1.
          6    1    1    2  501    0  0.14137667592E+03  0.56785180301E+02 -0.15549008547E+03  0.27744024199E+03  0.17200000000E+03 0.  1.
         -6    1    1    2    0  502 -0.14137667592E+03 -0.56785180301E+02  0.24007387035E+03  0.33231217916E+03  0.17200000000E+03 0. -1.
<mgrwt>
<rscale>  2 0.22977363E+03</rscale>
<asrwt>0</asrwt>
<pdfrwt beam="1">  1       21 0.86792025E-01 0.22977363E+03</pdfrwt>
<pdfrwt beam="2">  1       21 0.65646080E-01 0.22977363E+03</pdfrwt>
<totfact> 0.23624903E+03</totfact>
</mgrwt>
</event>
<event>
 4    1  0.1132373E+000  0.1825453E+03  0.7546771E-02  0.1165362E+00
         21   -1    0    0  503  502  0.00000000000E+00  0.00000000000E+00  0.72000435564E+02  0.72000435564E+02  0.00000000000E+00 0. -1.
         21   -1    0    0  501  503 -0.00000000000E+00 -0.00000000000E+00 -0.49291136071E+03  0.49291136071E+03  0.00000000000E+00 0. -1.
          6    1    1    2  501    0 -0.52363329640E+02  0.31573248859E+02 -0.28025178978E+03  0.33446054178E+03  0.17200000000E+03 0. -1.
         -6    1    1    2    0  502  0.52363329640E+02 -0.31573248859E+02 -0.14065913536E+03  0.23045125449E+03  0.17200000000E+03 0. -1.
<mgrwt>
<rscale>  2 0.18254530E+03</rscale>
<asrwt>0</asrwt>
<pdfrwt beam="1">  1       21 0.18000109E-01 0.18254530E+03</pdfrwt>
<pdfrwt beam="2">  1       21 0.12322784E+00 0.18254530E+03</pdfrwt>
<totfact> 0.13975632E+04</totfact>
</mgrwt>
</event>
<event>
 4    1  0.1132373E+000  0.2135705E+03  0.7546771E-02  0.1138769E+00
         21   -1    0    0  503  502  0.00000000000E+00  0.00000000000E+00  0.75310307194E+02  0.75310307194E+02  0.00000000000E+00 0. -1.
         21   -1    0    0  501  503 -0.00000000000E+00 -0.00000000000E+00 -0.75315117554E+03  0.75315117554E+03  0.00000000000E+00 0. -1.
          6    1    1    2  501    0  0.10882777558E+03 -0.64690512388E+02 -0.52223040734E+03  0.56421356372E+03  0.17200000000E+03 0. -1.
         -6    1    1    2    0  502 -0.10882777558E+03  0.64690512388E+02 -0.15561046100E+03  0.26424791901E+03  0.17200000000E+03 0. -1.
<mgrwt>
<rscale>  2 0.21357047E+03</rscale>
<asrwt>0</asrwt>
<pdfrwt beam="1">  1       21 0.18827577E-01 0.21357047E+03</pdfrwt>
<pdfrwt beam="2">  1       21 0.18828779E+00 0.21357047E+03</pdfrwt>
<totfact> 0.40580149E+03</totfact>
</mgrwt>
</event>
<event>
 4    1  0.1132373E+000  0.2476087E+03  0.7546771E-02  0.1114825E+00
         21   -1    0    0  503  502  0.00000000000E+00  0.00000000000E+00  0.13165214820E+03  0.13165214820E+03  0.00000000000E+00 0. -1.
         21   -1    0    0  501  503 -0.00000000000E+00 -0.00000000000E+00 -0.11737354770E+04  0.11737354770E+04  0.00000000000E+00 0.  1.
          6    1    1    2  501    0  0.10752917703E+03  0.14199847917E+03 -0.10279770642E+04  0.10573773861E+04  0.17200000000E+03 0.  1.
         -6    1    1    2    0  502 -0.10752917703E+03 -0.14199847917E+03 -0.14106264553E+02  0.24801023910E+03  0.17200000000E+03 0. -1.
<mgrwt>
<rscale>  2 0.24760875E+03</rscale>
<asrwt>0</asrwt>
<pdfrwt beam="1">  1       21 0.32913037E-01 0.24760875E+03</pdfrwt>
<pdfrwt beam="2">  1       21 0.29343387E+00 0.24760875E+03</pdfrwt>
<totfact> 0.30795291E+02</totfact>
</mgrwt>
</event>
<event>
 4    1  0.1132373E+000  0.2191258E+03  0.7546771E-02  0.1134537E+00
         21   -1    0    0  503  502  0.00000000000E+00  0.00000000000E+00  0.57003380839E+02  0.57003380839E+02  0.00000000000E+00 0.  1.
         21   -1    0    0  501  503 -0.00000000000E+00 -0.00000000000E+00 -0.10566660975E+04  0.10566660975E+04  0.00000000000E+00 0.  1.
          6    1    1    2  501    0 -0.45481847870E+02 -0.12791990348E+03 -0.75061386066E+03  0.78194454279E+03  0.17200000000E+03 0.  1.
         -6    1    1    2    0  502  0.45481847870E+02  0.12791990348E+03 -0.24904885604E+03  0.33172493558E+03  0.17200000000E+03 0.  1.
<mgrwt>
<rscale>  2 0.21912576E+03</rscale>
<asrwt>0</asrwt>
<pdfrwt beam="1">  1       21 0.14250846E-01 0.21912576E+03</pdfrwt>
<pdfrwt beam="2">  1       21 0.26416651E+00 0.21912576E+03</pdfrwt>
<totfact> 0.22978074E+03</totfact>
</mgrwt>
</event>
<event>
 4    1  0.1132373E+000  0.1808618E+03  0.7546771E-02  0.1166972E+00
         21   -1    0    0  503  502  0.00000000000E+00  0.00000000000E+00  0.21019830915E+03  0.21019830915E+03  0.00000000000E+00 0.  1.
         21   -1    0    0  501  503 -0.00000000000E+00 -0.00000000000E+00 -0.15697819089E+03  0.15697819089E+03  0.00000000000E+00 0.  1.
          6    1    1    2  501    0  0.38854589614E+02  0.40215726415E+02  0.43689130488E+02  0.18606376302E+03  0.17200000000E+03 0.  1.
         -6    1    1    2    0  502 -0.38854589614E+02 -0.40215726415E+02  0.95309877672E+01  0.18111273703E+03  0.17200000000E+03 0.  1.
<mgrwt>
<rscale>  2 0.18086178E+03</rscale>
<asrwt>0</asrwt>
<pdfrwt beam="1">  1       21 0.52549577E-01 0.18086178E+03</pdfrwt>
<pdfrwt beam="2">  1       21 0.39244548E-01 0.18086178E+03</pdfrwt>
<totfact> 0.21643103E+04</totfact>
</mgrwt>
</event>
<event>
 4    1  0.1132373E+000  0.1896628E+03  0.7546771E-02  0.1158766E+00
         21   -1    0    0  501  502  0.00000000000E+00  0.00000000000E+00  0.15734629553E+03  0.15734629553E+03  0.00000000000E+00 0.  1.
         21   -1    0    0  502  503 -0.00000000000E+00 -0.00000000000E+00 -0.24629287032E+03  0.24629287032E+03  0.00000000000E+00 0. -1.
          6    1    1    2  501    0 -0.33073725647E+02  0.72760593224E+02 -0.98540339350E+02  0.21373388532E+03  0.17200000000E+03 0.  1.
         -6    1    1    2    0  503  0.33073725647E+02 -0.72760593224E+02  0.95937645614E+01  0.18990528053E+03  0.17200000000E+03 0. -1.
<mgrwt>
<rscale>  2 0.18966279E+03</rscale>
<asrwt>0</asrwt>
<pdfrwt beam="1">  1       21 0.39336574E-01 0.18966279E+03</pdfrwt>
<pdfrwt beam="2">  1       21 0.61573217E-01 0.18966279E+03</pdfrwt>
<totfact> 0.15298448E+04</totfact>
</mgrwt>
</event>
<event>
 4    1  0.1132373E+000  0.1986659E+03  0.7546771E-02  0.1150869E+00
         21   -1    0    0  501  502  0.00000000000E+00  0.00000000000E+00  0.76249131418E+03  0.76249131418E+03  0.00000000000E+00 0. -1.
         21   -1    0    0  502  503 -0.00000000000E+00 -0.00000000000E+00 -0.51799863099E+02  0.51799863099E+02  0.00000000000E+00 0. -1.
          6    1    1    2  501    0 -0.90447984481E+02 -0.41271134417E+02  0.36634018016E+03  0.41674125309E+03  0.17200000000E+03 0. -1.
         -6    1    1    2    0  503  0.90447984481E+02  0.41271134417E+02  0.34435127092E+03  0.39754992418E+03  0.17200000000E+03 0. -1.
<mgrwt>
<rscale>  2 0.19866591E+03</rscale>
<asrwt>0</asrwt>
<pdfrwt beam="1">  1       21 0.19062279E+00 0.19866591E+03</pdfrwt>
<pdfrwt beam="2">  1       21 0.12949968E-01 0.19866591E+03</pdfrwt>
<totfact> 0.78679343E+03</totfact>
</mgrwt>
</event>
<event>
 4    1  0.1132373E+000  0.1967123E+03  0.7546771E-02  0.1152543E+00
         21   -1    0    0  501  502  0.00000000000E+00  0.00000000000E+00  0.59412849110E+02  0.59412849110E+02  0.00000000000E+00 0.  1.
         21   -1    0    0  502  503 -0.00000000000E+00 -0.00000000000E+00 -0.81393765278E+03  0.81393765278E+03  0.00000000000E+00 0.  1.
          6    1    1    2  501    0  0.86633909484E+02  0.40078527716E+02 -0.18206656728E+03  0.26803723170E+03  0.17200000000E+03 0.  1.
         -6    1    1    2    0  503 -0.86633909484E+02 -0.40078527716E+02 -0.57245823639E+03  0.60531327019E+03  0.17200000000E+03 0.  1.
<mgrwt>
<rscale>  2 0.19671228E+03</rscale>
<asrwt>0</asrwt>
<pdfrwt beam="1">  1       21 0.14853212E-01 0.19671228E+03</pdfrwt>
<pdfrwt beam="2">  1       21 0.20348442E+00 0.19671228E+03</pdfrwt>
<totfact> 0.50751375E+03</totfact>
</mgrwt>
</event>
<event>
 4    1  0.1132373E+000  0.1729826E+03  0.7546771E-02  0.1174773E+00
         21   -1    0    0  503  502  0.00000000000E+00  0.00000000000E+00  0.11893306214E+04  0.11893306214E+04  0.00000000000E+00 0.  1.
         21   -1    0    0  501  503 -0.00000000000E+00 -0.00000000000E+00 -0.89440692914E+02  0.89440692914E+02  0.00000000000E+00 0.  1.
          6    1    1    2  501    0 -0.96524190452E+01  0.15677948280E+02  0.78975634622E+01  0.17316275224E+03  0.17200000000E+03 0.  1.
         -6    1    1    2    0  502  0.96524190452E+01 -0.15677948280E+02  0.10919923650E+04  0.11056085620E+04  0.17200000000E+03 0.  1.
<mgrwt>
<rscale>  2 0.17298256E+03</rscale>
<asrwt>0</asrwt>
<pdfrwt beam="1">  1       21 0.29733261E+00 0.17298256E+03</pdfrwt>
<pdfrwt beam="2">  1       21 0.22360177E-01 0.17298256E+03</pdfrwt>
<totfact> 0.68150494E+02</totfact>
</mgrwt>
</event>
<event>
 4    1  0.1132373E+000  0.2203607E+03  0.7546771E-02  0.1133614E+00
         21   -1    0    0  501  502  0.00000000000E+00  0.00000000000E+00  0.41081641007E+03  0.41081641007E+03  0.00000000000E+00 0.  1.
         21   -1    0    0  502  503 -0.00000000000E+00 -0.00000000000E+00 -0.51651733972E+03  0.51651733972E+03  0.00000000000E+00 0.  1.
          6    1    1    2  501    0  0.90636021211E+02  0.10373018589E+03  0.35432141076E+03  0.41725591899E+03  0.17200000000E+03 0.  1.
         -6    1    1    2    0  503 -0.90636021211E+02 -0.10373018589E+03 -0.46002234041E+03  0.51007783080E+03  0.17200000000E+03 0.  1.
<mgrwt>
<rscale>  2 0.22036070E+03</rscale>
<asrwt>0</asrwt>
<pdfrwt beam="1">  1       21 0.10270410E+00 0.22036070E+03</pdfrwt>
<pdfrwt beam="2">  1       21 0.12912933E+00 0.22036070E+03</pdfrwt>
<totfact> 0.32825701E+02</totfact>
</mgrwt>
</event>
<event>
 4    1  0.1132373E+000  0.2067481E+03  0.7546771E-02  0.1144167E+00
         21   -1    0    0  503  502  0.00000000000E+00  0.00000000000E+00  0.11520684205E+03  0.11520684205E+03  0.00000000000E+00 0.  1.
         21   -1    0    0  501  503 -0.00000000000E+00 -0.00000000000E+00 -0.95745485705E+03  0.95745485705E+03  0.00000000000E+00 0.  1.
          6    1    1    2  501    0  0.82006337521E+02  0.80223133234E+02 -0.84086473317E+03  0.86590893862E+03  0.17200000000E+03 0.  1.
         -6    1    1    2    0  502 -0.82006337521E+02 -0.80223133234E+02 -0.13832818373E+01  0.20675276048E+03  0.17200000000E+03 0.  1.
<mgrwt>
<rscale>  2 0.20674813E+03</rscale>
<asrwt>0</asrwt>
<pdfrwt beam="1">  1       21 0.28801711E-01 0.20674813E+03</pdfrwt>
<pdfrwt beam="2">  1       21 0.23936371E+00 0.20674813E+03</pdfrwt>
<totfact> 0.87171256E+02</totfact>
</mgrwt>
</event>
<event>
 4    1  0.1132373E+000  0.2071817E+03  0.7546771E-02  0.1143817E+00
         21   -1    0    0  501  502  0.00000000000E+00  0.00000000000E+00  0.88075423127E+02  0.88075423127E+02  0.00000000000E+00 0. -1.
         21   -1    0    0  502  503 -0.00000000000E+00 -0.00000000000E+00 -0.56229822625E+03  0.56229822625E+03  0.00000000000E+00 0.  1.
          6    1    1    2  501    0 -0.10624427983E+03 -0.45303410454E+02 -0.11839585039E+03  0.23862485911E+03  0.17200000000E+03 0. -1.
         -6    1    1    2    0  503  0.10624427983E+03  0.45303410454E+02 -0.35582695273E+03  0.41174879027E+03  0.17200000000E+03 0.  1.
<mgrwt>
<rscale>  2 0.20718167E+03</rscale>
<asrwt>0</asrwt>
<pdfrwt beam="1">  1       21 0.22018856E-01 0.20718167E+03</pdfrwt>
<pdfrwt beam="2">  1       21 0.14057455E+00 0.20718167E+03</pdfrwt>
<totfact> 0.67461151E+03</totfact>
</mgrwt>
</event>
<event>
 4    1  0.1132373E+000  0.2764685E+03  0.7546771E-02  0.1097634E+00
         21   -1    0    0  501  502  0.00000000000E+00  0.00000000000E+00  0.92707143853E+03  0.92707143853E+03  0.00000000000E+00 0. -1.
         21   -1    0    0  502  503 -0.00000000000E+00 -0.00000000000E+00 -0.85712135054E+02  0.85712135054E+02  0.00000000000E+00 0. -1.
          6    1    1    2  501    0  0.10452592368E+03  0.18953929601E+03  0.51950680494E+03  0.58849140506E+03  0.17200000000E+03 0. -1.
         -6    1    1    2    0  503 -0.10452592368E+03 -0.18953929601E+03  0.32185249853E+03  0.42429216852E+03  0.17200000000E+03 0. -1.
<mgrwt>
<rscale>  2 0.27646847E+03</rscale>
<asrwt>0</asrwt>
<pdfrwt beam="1">  1       21 0.23176783E+00 0.27646847E+03</pdfrwt>
<pdfrwt beam="2">  1       21 0.21428037E-01 0.27646847E+03</pdfrwt>
<totfact> 0.15983565E+03</totfact>
</mgrwt>
</event>
<event>
 4    1  0.1132373E+000  0.2117608E+03  0.7546771E-02  0.1140179E+00
         21   -1    0    0  503  502  0.00000000000E+00  0.00000000000E+00  0.88997020584E+03  0.88997020584E+03  0.00000000000E+00 0. -1.
         21   -1    0    0  501  503 -0.00000000000E+00 -0.00000000000E+00 -0.51343446297E+02  0.51343446297E+02  0.00000000000E+00 0. -1.
          6    1    1    2  501    0  0.10039528598E+03  0.71968179776E+02  0.48356258387E+03  0.52789715369E+03  0.17200000000E+03 0. -1.
         -6    1    1    2    0  502 -0.10039528598E+03 -0.71968179776E+02  0.35506417566E+03  0.41341649845E+03  0.17200000000E+03 0. -1.
<mgrwt>
<rscale>  2 0.21176079E+03</rscale>
<asrwt>0</asrwt>
<pdfrwt beam="1">  1       21 0.22249250E+00 0.21176079E+03</pdfrwt>
<pdfrwt beam="2">  1       21 0.12835864E-01 0.21176079E+03</pdfrwt>
<totfact> 0.49605980E+03</totfact>
</mgrwt>
</event>
<event>
 4    1  0.1132373E+000  0.3047743E+03  0.7546771E-02  0.1082878E+00
         21   -1    0    0  503  502  0.00000000000E+00  0.00000000000E+00  0.18007145184E+03  0.18007145184E+03  0.00000000000E+00 0.  1.
         21   -1    0    0  501  503 -0.00000000000E+00 -0.00000000000E+00 -0.57218754594E+03  0.57218754594E+03  0.00000000000E+00 0.  1.
          6    1    1    2  501    0 -0.86994096380E+01 -0.25145118514E+03 -0.31409561133E+03  0.43765675054E+03  0.17200000000E+03 0.  1.
         -6    1    1    2    0  502  0.86994096380E+01  0.25145118514E+03 -0.78020482778E+02  0.31460224724E+03  0.17200000000E+03 0.  1.
<mgrwt>
<rscale>  2 0.30477431E+03</rscale>
<asrwt>0</asrwt>
<pdfrwt beam="1">  1       21 0.45017863E-01 0.30477431E+03</pdfrwt>
<pdfrwt beam="2">  1       21 0.14304688E+00 0.30477431E+03</pdfrwt>
<totfact> 0.14669050E+03</totfact>
</mgrwt>
</event>
<event>
 4    1  0.1132373E+000  0.2107459E+03  0.7546771E-02  0.1140977E+00
         21   -1    0    0  503  502  0.00000000000E+00  0.00000000000E+00  0.14352954600E+03  0.14352954600E+03  0.00000000000E+00 0. -1.
         21   -1    0    0  501  503 -0.00000000000E+00 -0.00000000000E+00 -0.30961017658E+03  0.30961017658E+03  0.00000000000E+00 0. -1.
          6    1    1    2  501    0  0.79417149523E+02 -0.92318633662E+02 -0.88348771583E+02  0.22851546818E+03  0.17200000000E+03 0. -1.
         -6    1    1    2    0  502 -0.79417149523E+02  0.92318633662E+02 -0.77731859002E+02  0.22462425440E+03  0.17200000000E+03 0. -1.
<mgrwt>
<rscale>  2 0.21074585E+03</rscale>
<asrwt>0</asrwt>
<pdfrwt beam="1">  1       21 0.35882387E-01 0.21074585E+03</pdfrwt>
<pdfrwt beam="2">  1       21 0.77402544E-01 0.21074585E+03</pdfrwt>
<totfact> 0.10961559E+04</totfact>
</mgrwt>
</event>
<event>
 4    1  0.1132373E+000  0.1855636E+03  0.7546771E-02  0.1162525E+00
         21   -1    0    0  503  502  0.00000000000E+00  0.00000000000E+00  0.11649938564E+03  0.11649938564E+03  0.00000000000E+00 0. -1.
         21   -1    0    0  501  503 -0.00000000000E+00 -0.00000000000E+00 -0.41240955994E+03  0.41240955994E+03  0.00000000000E+00 0. -1.
          6    1    1    2  501    0  0.63913030357E+02  0.27658481138E+02 -0.28871507478E+03  0.34320585868E+03  0.17200000000E+03 0. -1.
         -6    1    1    2    0  502 -0.63913030357E+02 -0.27658481138E+02 -0.71950995298E+01  0.18570308690E+03  0.17200000000E+03 0. -1.
<mgrwt>
<rscale>  2 0.18556365E+03</rscale>
<asrwt>0</asrwt>
<pdfrwt beam="1">  1       21 0.29124847E-01 0.18556365E+03</pdfrwt>
<pdfrwt beam="2">  1       21 0.10310239E+00 0.18556365E+03</pdfrwt>
<totfact> 0.86602555E+03</totfact>
</mgrwt>
</event>
<event>
 4    1  0.1132373E+000  0.2118385E+03  0.7546771E-02  0.1140118E+00
         21   -1    0    0  503  502  0.00000000000E+00  0.00000000000E+00  0.15862249880E+03  0.15862249880E+03  0.00000000000E+00 0.  1.
         21   -1    0    0  501  503 -0.00000000000E+00 -0.00000000000E+00 -0.29771883013E+03  0.29771883013E+03  0.00000000000E+00 0.  1.
          6    1    1    2  501    0  0.10288403555E+03  0.68603314947E+02 -0.18656164828E+02  0.21265839292E+03  0.17200000000E+03 0.  1.
         -6    1    1    2    0  502 -0.10288403555E+03 -0.68603314947E+02 -0.12044016651E+03  0.24368293601E+03  0.17200000000E+03 0.  1.
<mgrwt>
<rscale>  2 0.21183848E+03</rscale>
<asrwt>0</asrwt>
<pdfrwt beam="1">  1       21 0.39655625E-01 0.21183848E+03</pdfrwt>
<pdfrwt beam="2">  1       21 0.74429707E-01 0.21183848E+03</pdfrwt>
<totfact> 0.97838668E+03</totfact>
</mgrwt>
</event>
<event>
 4    1  0.1132373E+000  0.2140488E+03  0.7546771E-02  0.1138399E+00
         21   -1    0    0  501  502  0.00000000000E+00  0.00000000000E+00  0.13779755638E+03  0.13779755638E+03  0.00000000000E+00 0.  1.
         21   -1    0    0  502  503 -0.00000000000E+00 -0.00000000000E+00 -0.84709855433E+03  0.84709855433E+03  0.00000000000E+00 0.  1.
          6    1    1    2  501    0 -0.84607876092E+02 -0.95259673765E+02  0.29171757768E+02  0.21602752045E+03  0.17200000000E+03 0.  1.
         -6    1    1    2    0  503  0.84607876092E+02  0.95259673765E+02 -0.73847275572E+03  0.76886859025E+03  0.17200000000E+03 0.  1.
<mgrwt>
<rscale>  2 0.21404882E+03</rscale>
<asrwt>0</asrwt>
<pdfrwt beam="1">  1       21 0.34449390E-01 0.21404882E+03</pdfrwt>
<pdfrwt beam="2">  1       21 0.21177464E+00 0.21404882E+03</pdfrwt>
<totfact> 0.89678822E+02</totfact>
</mgrwt>
</event>
<event>
 4    1  0.1132373E+000  0.1737309E+03  0.7546771E-02  0.1174012E+00
         21   -1    0    0  503  502  0.00000000000E+00  0.00000000000E+00  0.69317052213E+02  0.69317052213E+02  0.00000000000E+00 0.  1.
         21   -1    0    0  501  503 -0.00000000000E+00 -0.00000000000E+00 -0.44269601508E+03  0.44269601508E+03  0.00000000000E+00 0.  1.
          6    1    1    2  501    0  0.19136145298E+02 -0.15239590770E+02 -0.15388221600E+03  0.23208225608E+03  0.17200000000E+03 0.  1.
         -6    1    1    2    0  502 -0.19136145298E+02  0.15239590770E+02 -0.21949674687E+03  0.27993081122E+03  0.17200000000E+03 0.  1.
<mgrwt>
<rscale>  2 0.17373093E+03</rscale>
<asrwt>0</asrwt>
<pdfrwt beam="1">  1       21 0.17329263E-01 0.17373093E+03</pdfrwt>
<pdfrwt beam="2">  1       21 0.11067400E+00 0.17373093E+03</pdfrwt>
<totfact> 0.19615274E+04</totfact>
</mgrwt>
</event>
<event>
 4    1  0.1132373E+000  0.1821875E+03  0.7546771E-02  0.1165703E+00
         21   -1    0    0  501  502  0.00000000000E+00  0.00000000000E+00  0.19817843963E+03  0.19817843963E+03  0.00000000000E+00 0. -1.
         21   -1    0    0  502  503 -0.00000000000E+00 -0.00000000000E+00 -0.29478014647E+03  0.29478014647E+03  0.00000000000E+00 0. -1.
          6    1    1    2  501    0 -0.60005057398E+02 -0.27685908273E+01  0.11366899745E+03  0.21473917432E+03  0.17200000000E+03 0. -1.
         -6    1    1    2    0  503  0.60005057398E+02  0.27685908273E+01 -0.21027070429E+03  0.27821941178E+03  0.17200000000E+03 0. -1.
<mgrwt>
<rscale>  2 0.18218746E+03</rscale>
<asrwt>0</asrwt>
<pdfrwt beam="1">  1       21 0.49544610E-01 0.18218746E+03</pdfrwt>
<pdfrwt beam="2">  1       21 0.73695036E-01 0.18218746E+03</pdfrwt>
<totfact> 0.64721491E+03</totfact>
</mgrwt>
</event>
<event>
 4    1  0.1132373E+000  0.2361782E+03  0.7546771E-02  0.1122365E+00
         21   -1    0    0  501  502  0.00000000000E+00  0.00000000000E+00  0.37175059230E+03  0.37175059230E+03  0.00000000000E+00 0. -1.
         21   -1    0    0  502  503 -0.00000000000E+00 -0.00000000000E+00 -0.16310402621E+03  0.16310402621E+03  0.00000000000E+00 0.  1.
          6    1    1    2  501    0  0.10138349598E+03  0.12616475431E+03  0.28658952126E+02  0.23791068497E+03  0.17200000000E+03 0. -1.
         -6    1    1    2    0  503 -0.10138349598E+03 -0.12616475431E+03  0.17998761396E+03  0.29694393354E+03  0.17200000000E+03 0. -1.
<mgrwt>
<rscale>  2 0.23617823E+03</rscale>
<asrwt>0</asrwt>
<pdfrwt beam="1">  1       21 0.92937647E-01 0.23617823E+03</pdfrwt>
<pdfrwt beam="2">  1       21 0.40776007E-01 0.23617823E+03</pdfrwt>
<totfact> 0.54744196E+03</totfact>
</mgrwt>
</event>
<event>
 4    1  0.1132373E+000  0.2069091E+03  0.7546771E-02  0.1144037E+00
         21   -1    0    0  503  502  0.00000000000E+00  0.00000000000E+00  0.49840853097E+03  0.49840853097E+03  0.00000000000E+00 0.  1.
         21   -1    0    0  501  503 -0.00000000000E+00 -0.00000000000E+00 -0.11869148550E+03  0.11869148550E+03  0.00000000000E+00 0.  1.
          6    1    1    2  501    0  0.11443048207E+03 -0.11534149928E+02  0.27669354499E+02  0.20875096412E+03  0.17200000000E+03 0.  1.
         -6    1    1    2    0  502 -0.11443048207E+03  0.11534149928E+02  0.35204769097E+03  0.40834905235E+03  0.17200000000E+03 0.  1.
<mgrwt>
<rscale>  2 0.20690909E+03</rscale>
<asrwt>0</asrwt>
<pdfrwt beam="1">  1       21 0.12460213E+00 0.20690909E+03</pdfrwt>
<pdfrwt beam="2">  1       21 0.29672873E-01 0.20690909E+03</pdfrwt>
<totfact> 0.51752505E+03</totfact>
</mgrwt>
</event>
<event>
 4    1  0.1132373E+000  0.1823149E+03  0.7546771E-02  0.1165581E+00
         21   -1    0    0  503  502  0.00000000000E+00  0.00000000000E+00  0.64203506447E+03  0.64203506447E+03  0.00000000000E+00 0.  1.
         21   -1    0    0  501  503 -0.00000000000E+00 -0.00000000000E+00 -0.52853709535E+02  0.52853709535E+02  0.00000000000E+00 0.  1.
          6    1    1    2  501    0 -0.19562440785E+02  0.57201551081E+02  0.24485913813E+03  0.30527807661E+03  0.17200000000E+03 0.  1.
         -6    1    1    2    0  502  0.19562440785E+02 -0.57201551081E+02  0.34432221681E+03  0.38961069739E+03  0.17200000000E+03 0.  1.
<mgrwt>
<rscale>  2 0.18231486E+03</rscale>
<asrwt>0</asrwt>
<pdfrwt beam="1">  1       21 0.16050874E+00 0.18231486E+03</pdfrwt>
<pdfrwt beam="2">  1       21 0.13213429E-01 0.18231486E+03</pdfrwt>
<totfact> 0.12414265E+04</totfact>
</mgrwt>
</event>
<event>
 4    1  0.1132373E+000  0.1942799E+03  0.7546771E-02  0.1154657E+00
         21   -1    0    0  503  502  0.00000000000E+00  0.00000000000E+00  0.10996509683E+03  0.10996509683E+03  0.00000000000E+00 0. -1.
         21   -1    0    0  501  503 -0.00000000000E+00 -0.00000000000E+00 -0.53361540378E+03  0.53361540378E+03  0.00000000000E+00 0.  1.
          6    1    1    2  501    0  0.84692946760E+02  0.31429064564E+02 -0.40402870533E+03  0.44831225286E+03  0.17200000000E+03 0.  1.
         -6    1    1    2    0  502 -0.84692946760E+02 -0.31429064564E+02 -0.19621601609E+02  0.19526824775E+03  0.17200000000E+03 0. -1.
<mgrwt>
<rscale>  2 0.19427990E+03</rscale>
<asrwt>0</asrwt>
<pdfrwt beam="1">  1       21 0.27491275E-01 0.19427990E+03</pdfrwt>
<pdfrwt beam="2">  1       21 0.13340385E+00 0.19427990E+03</pdfrwt>
<totfact> 0.51042323E+03</totfact>
</mgrwt>
</event>
<event>
 4    1  0.1132373E+000  0.2081709E+03  0.7546771E-02  0.1143023E+00
         21   -1    0    0  501  502  0.00000000000E+00  0.00000000000E+00  0.57494893964E+03  0.57494893964E+03  0.00000000000E+00 0.  1.
         21   -1    0    0  502  503 -0.00000000000E+00 -0.00000000000E+00 -0.83507395524E+02  0.83507395524E+02  0.00000000000E+00 0.  1.
          6    1    1    2  501    0 -0.11726303368E+03  0.71622197238E+00  0.14296171478E+03  0.25253353031E+03  0.17200000000E+03 0.  1.
         -6    1    1    2    0  503  0.11726303368E+03 -0.71622197238E+00  0.34847982933E+03  0.40592280485E+03  0.17200000000E+03 0.  1.
<mgrwt>
<rscale>  2 0.20817092E+03</rscale>
<asrwt>0</asrwt>
<pdfrwt beam="1">  1       21 0.14373722E+00 0.20817092E+03</pdfrwt>
<pdfrwt beam="2">  1       21 0.20876851E-01 0.20817092E+03</pdfrwt>
<totfact> 0.70331427E+03</totfact>
</mgrwt>
</event>
<event>
 4    1  0.1132373E+000  0.1870361E+03  0.7546771E-02  0.1161162E+00
         21   -1    0    0  501  502  0.00000000000E+00  0.00000000000E+00  0.13316335796E+03  0.13316335796E+03  0.00000000000E+00 0.  1.
         21   -1    0    0  502  503 -0.00000000000E+00 -0.00000000000E+00 -0.55078298127E+03  0.55078298127E+03  0.00000000000E+00 0.  1.
          6    1    1    2  501    0 -0.73387055407E+02 -0.35829533624E+01  0.38509394040E+02  0.19095934354E+03  0.17200000000E+03 0.  1.
         -6    1    1    2    0  503  0.73387055407E+02  0.35829533624E+01 -0.45612901735E+03  0.49298699570E+03  0.17200000000E+03 0.  1.
<mgrwt>
<rscale>  2 0.18703609E+03</rscale>
<asrwt>0</asrwt>
<pdfrwt beam="1">  1       21 0.33290840E-01 0.18703609E+03</pdfrwt>
<pdfrwt beam="2">  1       21 0.13769574E+00 0.18703609E+03</pdfrwt>
<totfact> 0.32613827E+03</totfact>
</mgrwt>
</event>
<event>
 4    1  0.1132373E+000  0.1987047E+03  0.7546771E-02  0.1150836E+00
         21   -1    0    0  501  502  0.00000000000E+00  0.00000000000E+00  0.86366931297E+03  0.86366931297E+03  0.00000000000E+00 0.  1.
         21   -1    0    0  502  503 -0.00000000000E+00 -0.00000000000E+00 -0.47333658417E+02  0.47333658417E+02  0.00000000000E+00 0. -1.
          6    1    1    2  501    0 -0.91669987622E+02 -0.38680405788E+02  0.32396246238E+03  0.38004636224E+03  0.17200000000E+03 0. -1.
         -6    1    1    2    0  503  0.91669987622E+02  0.38680405788E+02  0.49237319217E+03  0.53095660914E+03  0.17200000000E+03 0.  1.
<mgrwt>
<rscale>  2 0.19870471E+03</rscale>
<asrwt>0</asrwt>
<pdfrwt beam="1">  1       21 0.21591728E+00 0.19870471E+03</pdfrwt>
<pdfrwt beam="2">  1       21 0.11833417E-01 0.19870471E+03</pdfrwt>
<totfact> 0.63778794E+03</totfact>
</mgrwt>
</event>
<event>
 4    1  0.1132373E+000  0.1997835E+03  0.7546771E-02  0.1149922E+00
         21   -1    0    0  503  502  0.00000000000E+00  0.00000000000E+00  0.63552879682E+02  0.63552879682E+02  0.00000000000E+00 0.  1.
         21   -1    0    0  501  503 -0.00000000000E+00 -0.00000000000E+00 -0.65298028999E+03  0.65298028999E+03  0.00000000000E+00 0.  1.
          6    1    1    2  501    0 -0.24642912330E+01  0.10160408319E+03 -0.22468977481E+03  0.30066419367E+03  0.17200000000E+03 0.  1.
         -6    1    1    2    0  502  0.24642912330E+01 -0.10160408319E+03 -0.36473763549E+03  0.41586897600E+03  0.17200000000E+03 0.  1.
<mgrwt>
<rscale>  2 0.19978354E+03</rscale>
<asrwt>0</asrwt>
<pdfrwt beam="1">  1       21 0.15888220E-01 0.19978354E+03</pdfrwt>
<pdfrwt beam="2">  1       21 0.16324507E+00 0.19978354E+03</pdfrwt>
<totfact> 0.83715565E+03</totfact>
</mgrwt>
</event>
<event>
 4    1  0.1132373E+000  0.1754690E+03  0.7546771E-02  0.1172262E+00
         21   -1    0    0  501  502  0.00000000000E+00  0.00000000000E+00  0.28175475930E+03  0.28175475930E+03  0.00000000000E+00 0. -1.
         21   -1    0    0  502  503 -0.00000000000E+00 -0.00000000000E+00 -0.11202812574E+03  0.11202812574E+03  0.00000000000E+00 0. -1.
          6    1    1    2  501    0  0.33835324434E+02 -0.77798828517E+01  0.11571700317E+03  0.21018986793E+03  0.17200000000E+03 0. -1.
         -6    1    1    2    0  503 -0.33835324434E+02  0.77798828517E+01  0.54009630393E+02  0.18359301711E+03  0.17200000000E+03 0. -1.
<mgrwt>
<rscale>  2 0.17546896E+03</rscale>
<asrwt>0</asrwt>
<pdfrwt beam="1">  1       21 0.70438688E-01 0.17546896E+03</pdfrwt>
<pdfrwt beam="2">  1       21 0.28007032E-01 0.17546896E+03</pdfrwt>
<totfact> 0.22482429E+04</totfact>
</mgrwt>
</event>
<event>
 4    1  0.1132373E+000  0.2566411E+03  0.7546771E-02  0.1109178E+00
         21   -1    0    0  503  502  0.00000000000E+00  0.00000000000E+00  0.82410868949E+02  0.82410868949E+02  0.00000000000E+00 0. -1.
         21   -1    0    0  501  503 -0.00000000000E+00 -0.00000000000E+00 -0.79924487227E+03  0.79924487227E+03  0.00000000000E+00 0. -1.
          6    1    1    2  501    0 -0.10191554538E+01  0.19047211458E+03 -0.35611295865E+03  0.43895455850E+03  0.17200000000E+03 0. -1.
         -6    1    1    2    0  502  0.10191554538E+01 -0.19047211458E+03 -0.36072104467E+03  0.44270118272E+03  0.17200000000E+03 0. -1.
<mgrwt>
<rscale>  2 0.25664112E+03</rscale>
<asrwt>0</asrwt>
<pdfrwt beam="1">  1       21 0.20602717E-01 0.25664112E+03</pdfrwt>
<pdfrwt beam="2">  1       21 0.19981122E+00 0.25664112E+03</pdfrwt>
<totfact> 0.27796485E+03</totfact>
</mgrwt>
</event>
<event>
 4    1  0.1132373E+000  0.1739432E+03  0.7546771E-02  0.1173797E+00
         21   -1    0    0  503  502  0.00000000000E+00  0.00000000000E+00  0.82102694402E+02  0.82102694402E+02  0.00000000000E+00 0.  1.
         21   -1    0    0  501  503 -0.00000000000E+00 -0.00000000000E+00 -0.38895297171E+03  0.38895297171E+03  0.00000000000E+00 0.  1.
          6    1    1    2  501    0  0.25448594125E+02 -0.49597139659E+01 -0.99437728879E+02  0.20035990525E+03  0.17200000000E+03 0. -1.
         -6    1    1    2    0  502 -0.25448594125E+02  0.49597139659E+01 -0.20741254843E+03  0.27069576087E+03  0.17200000000E+03 0. -1.
<mgrwt>
<rscale>  2 0.17394318E+03</rscale>
<asrwt>0</asrwt>
<pdfrwt beam="1">  1       21 0.20525674E-01 0.17394318E+03</pdfrwt>
<pdfrwt beam="2">  1       21 0.97238241E-01 0.17394318E+03</pdfrwt>
<totfact> 0.19514986E+04</totfact>
</mgrwt>
</event>
<event>
 4    1  0.1132373E+000  0.1723912E+03  0.7546771E-02  0.1175377E+00
         21   -1    0    0  503  502  0.00000000000E+00  0.00000000000E+00  0.35404843407E+03  0.35404843407E+03  0.00000000000E+00 0.  1.
         21   -1    0    0  501  503 -0.00000000000E+00 -0.00000000000E+00 -0.88249080769E+02  0.88249080769E+02  0.00000000000E+00 0.  1.
          6    1    1    2  501    0 -0.79246082921E+01 -0.84810682186E+01  0.18176892058E+03  0.25051680268E+03  0.17200000000E+03 0.  1.
         -6    1    1    2    0  502  0.79246082921E+01  0.84810682186E+01  0.84030432725E+02  0.19178071217E+03  0.17200000000E+03 0.  1.
<mgrwt>
<rscale>  2 0.17239121E+03</rscale>
<asrwt>0</asrwt>
<pdfrwt beam="1">  1       21 0.88512105E-01 0.17239121E+03</pdfrwt>
<pdfrwt beam="2">  1       21 0.22062271E-01 0.17239121E+03</pdfrwt>
<totfact> 0.21226072E+04</totfact>
</mgrwt>
</event>
<event>
 4    1  0.1132373E+000  0.1840242E+03  0.7546771E-02  0.1163964E+00
         21   -1    0    0  503  502  0.00000000000E+00  0.00000000000E+00  0.14494883797E+03  0.14494883797E+03  0.00000000000E+00 0.  1.
         21   -1    0    0  501  503 -0.00000000000E+00 -0.00000000000E+00 -0.36552171750E+03  0.36552171750E+03  0.00000000000E+00 0.  1.
          6    1    1    2  501    0 -0.57100068753E+02  0.31945320415E+02 -0.26360223999E+03  0.32148260027E+03  0.17200000000E+03 0.  1.
         -6    1    1    2    0  502  0.57100068753E+02 -0.31945320415E+02  0.43029360463E+02  0.18898795520E+03  0.17200000000E+03 0.  1.
<mgrwt>
<rscale>  2 0.18402424E+03</rscale>
<asrwt>0</asrwt>
<pdfrwt beam="1">  1       21 0.36237210E-01 0.18402424E+03</pdfrwt>
<pdfrwt beam="2">  1       21 0.91380429E-01 0.18402424E+03</pdfrwt>
<totfact> 0.74956412E+03</totfact>
</mgrwt>
</event>
<event>
 4    1  0.1132373E+000  0.2248670E+03  0.7546771E-02  0.1130306E+00
         21   -1    0    0  501  502  0.00000000000E+00  0.00000000000E+00  0.48110579965E+03  0.48110579965E+03  0.00000000000E+00 0.  1.
         21   -1    0    0  502  503 -0.00000000000E+00 -0.00000000000E+00 -0.11783614337E+03  0.11783614337E+03  0.00000000000E+00 0. -1.
          6    1    1    2  501    0  0.81973306337E+02  0.11942162285E+03  0.28008162097E+03  0.35918081987E+03  0.17200000000E+03 0. -1.
         -6    1    1    2    0  503 -0.81973306337E+02 -0.11942162285E+03  0.83188035317E+02  0.23976112315E+03  0.17200000000E+03 0. -1.
<mgrwt>
<rscale>  2 0.22486695E+03</rscale>
<asrwt>0</asrwt>
<pdfrwt beam="1">  1       21 0.12027644E+00 0.22486695E+03</pdfrwt>
<pdfrwt beam="2">  1       21 0.29459037E-01 0.22486695E+03</pdfrwt>
<totfact> 0.56577162E+03</totfact>
</mgrwt>
</event>
<event>
 4    1  0.1132373E+000  0.1948774E+03  0.7546771E-02  0.1154134E+00
         21   -1    0    0  501  502  0.00000000000E+00  0.00000000000E+00  0.49793733628E+03  0.49793733628E+03  0.00000000000E+00 0.  1.
         21   -1    0    0  502  503 -0.00000000000E+00 -0.00000000000E+00 -0.77357346174E+02  0.77357346174E+02  0.00000000000E+00 0. -1.
          6    1    1    2  501    0  0.90717025130E+02 -0.12791251186E+02  0.24440836548E+03  0.31259021717E+03  0.17200000000E+03 0. -1.
         -6    1    1    2    0  503 -0.90717025130E+02  0.12791251186E+02  0.17617162462E+03  0.26270446528E+03  0.17200000000E+03 0. -1.
<mgrwt>
<rscale>  2 0.19487738E+03</rscale>
<asrwt>0</asrwt>
<pdfrwt beam="1">  1       21 0.12448432E+00 0.19487738E+03</pdfrwt>
<pdfrwt beam="2">  1       21 0.19339338E-01 0.19487738E+03</pdfrwt>
<totfact> 0.11826693E+04</totfact>
</mgrwt>
</event>
<event>
 4    1  0.1132373E+000  0.2018381E+03  0.7546771E-02  0.1148197E+00
         21   -1    0    0  501  502  0.00000000000E+00  0.00000000000E+00  0.96819091433E+03  0.96819091433E+03  0.00000000000E+00 0.  1.
         21   -1    0    0  502  503 -0.00000000000E+00 -0.00000000000E+00 -0.42132705795E+02  0.42132705795E+02  0.00000000000E+00 0.  1.
          6    1    1    2  501    0 -0.76428810390E+02 -0.72892157096E+02  0.44467102604E+03  0.48833487591E+03  0.17200000000E+03 0.  1.
         -6    1    1    2    0  503  0.76428810390E+02  0.72892157096E+02  0.48138718249E+03  0.52198874422E+03  0.17200000000E+03 0.  1.
<mgrwt>
<rscale>  2 0.20183813E+03</rscale>
<asrwt>0</asrwt>
<pdfrwt beam="1">  1       21 0.24204766E+00 0.20183813E+03</pdfrwt>
<pdfrwt beam="2">  1       21 0.10533180E-01 0.20183813E+03</pdfrwt>
<totfact> 0.54336756E+03</totfact>
</mgrwt>
</event>
<event>
 4    1  0.1132373E+000  0.1807992E+03  0.7546771E-02  0.1167032E+00
         21   -1    0    0  501  502  0.00000000000E+00  0.00000000000E+00  0.48691526642E+03  0.48691526642E+03  0.00000000000E+00 0. -1.
         21   -1    0    0  502  503 -0.00000000000E+00 -0.00000000000E+00 -0.24124151577E+03  0.24124151577E+03  0.00000000000E+00 0. -1.
          6    1    1    2  501    0 -0.19928964830E+02 -0.52030689837E+02  0.43213563931E+03  0.46843309777E+03  0.17200000000E+03 0. -1.
         -6    1    1    2    0  503  0.19928964830E+02  0.52030689837E+02 -0.18646188866E+03  0.25972368442E+03  0.17200000000E+03 0. -1.
<mgrwt>
<rscale>  2 0.18079922E+03</rscale>
<asrwt>0</asrwt>
<pdfrwt beam="1">  1       21 0.12172881E+00 0.18079922E+03</pdfrwt>
<pdfrwt beam="2">  1       21 0.60310380E-01 0.18079922E+03</pdfrwt>
<totfact> 0.13217713E+03</totfact>
</mgrwt>
</event>
<event>
 4    1  0.1132373E+000  0.2222858E+03  0.7546771E-02  0.1132190E+00
         21   -1    0    0  503  502  0.00000000000E+00  0.00000000000E+00  0.21332707711E+03  0.21332707711E+03  0.00000000000E+00 0. -1.
         21   -1    0    0  501  503 -0.00000000000E+00 -0.00000000000E+00 -0.40782583459E+03  0.40782583459E+03  0.00000000000E+00 0. -1.
          6    1    1    2  501    0  0.32664754261E+02 -0.13696707436E+03 -0.30139517910E+03  0.37449969241E+03  0.17200000000E+03 0. -1.
         -6    1    1    2    0  502 -0.32664754261E+02  0.13696707436E+03  0.10689642162E+03  0.24665321929E+03  0.17200000000E+03 0. -1.
<mgrwt>
<rscale>  2 0.22228577E+03</rscale>
<asrwt>0</asrwt>
<pdfrwt beam="1">  1       21 0.53331770E-01 0.22228577E+03</pdfrwt>
<pdfrwt beam="2">  1       21 0.10195646E+00 0.22228577E+03</pdfrwt>
<totfact> 0.25451264E+03</totfact>
</mgrwt>
</event>
<event>
 4    1  0.1132373E+000  0.1767740E+03  0.7546771E-02  0.1170962E+00
         21   -1    0    0  503  502  0.00000000000E+00  0.00000000000E+00  0.18504028261E+03  0.18504028261E+03  0.00000000000E+00 0.  1.
         21   -1    0    0  501  503 -0.00000000000E+00 -0.00000000000E+00 -0.31679438436E+03  0.31679438436E+03  0.00000000000E+00 0.  1.
          6    1    1    2  501    0 -0.90471540718E+01  0.39789332127E+02 -0.23733261444E+03  0.29593210679E+03  0.17200000000E+03 0.  1.
         -6    1    1    2    0  502  0.90471540718E+01 -0.39789332127E+02  0.10557851269E+03  0.20590256018E+03  0.17200000000E+03 0.  1.
<mgrwt>
<rscale>  2 0.17677399E+03</rscale>
<asrwt>0</asrwt>
<pdfrwt beam="1">  1       21 0.46260071E-01 0.17677399E+03</pdfrwt>
<pdfrwt beam="2">  1       21 0.79198596E-01 0.17677399E+03</pdfrwt>
<totfact> 0.63760441E+03</totfact>
</mgrwt>
</event>
<event>
 4    1  0.1132373E+000  0.2006112E+03  0.7546771E-02  0.1149224E+00
         21   -1    0    0  503  502  0.00000000000E+00  0.00000000000E+00  0.14683672775E+03  0.14683672775E+03  0.00000000000E+00 0.  1.
         21   -1    0    0  501  503 -0.00000000000E+00 -0.00000000000E+00 -0.28005265383E+03  0.28005265383E+03  0.00000000000E+00 0.  1.
          6    1    1    2  501    0 -0.13941495898E+02  0.10230583789E+03 -0.97781704939E+02  0.22317282898E+03  0.17200000000E+03 0.  1.
         -6    1    1    2    0  502  0.13941495898E+02 -0.10230583789E+03 -0.35434221146E+02  0.20371655260E+03  0.17200000000E+03 0.  1.
<mgrwt>
<rscale>  2 0.20061119E+03</rscale>
<asrwt>0</asrwt>
<pdfrwt beam="1">  1       21 0.36709182E-01 0.20061119E+03</pdfrwt>
<pdfrwt beam="2">  1       21 0.70013163E-01 0.20061119E+03</pdfrwt>
<totfact> 0.13186215E+04</totfact>
</mgrwt>
</event>
<event>
 4    1  0.1132373E+000  0.2095169E+03  0.7546771E-02  0.1141949E+00
         21   -1    0    0  501  502  0.00000000000E+00  0.00000000000E+00  0.13536561406E+03  0.13536561406E+03  0.00000000000E+00 0. -1.
         21   -1    0    0  502  503 -0.00000000000E+00 -0.00000000000E+00 -0.36807508742E+03  0.36807508742E+03  0.00000000000E+00 0.  1.
          6    1    1    2  501    0  0.97814283408E+02 -0.68889067287E+02 -0.20317619002E+03  0.29185253438E+03  0.17200000000E+03 0.  1.
         -6    1    1    2    0  503 -0.97814283408E+02  0.68889067287E+02 -0.29533283341E+02  0.21158816710E+03  0.17200000000E+03 0. -1.
<mgrwt>
<rscale>  2 0.20951691E+03</rscale>
<asrwt>0</asrwt>
<pdfrwt beam="1">  1       21 0.33841404E-01 0.20951691E+03</pdfrwt>
<pdfrwt beam="2">  1       21 0.92018771E-01 0.20951691E+03</pdfrwt>
<totfact> 0.82936697E+03</totfact>
</mgrwt>
</event>
<event>
 4    1  0.1132373E+000  0.1908547E+03  0.7546771E-02  0.1157693E+00
         21   -1    0    0  503  502  0.00000000000E+00  0.00000000000E+00  0.15145506162E+03  0.15145506162E+03  0.00000000000E+00 0.  1.
         21   -1    0    0  501  503 -0.00000000000E+00 -0.00000000000E+00 -0.10430335120E+04  0.10430335120E+04  0.00000000000E+00 0.  1.
          6    1    1    2  501    0  0.77783055850E+02  0.28129997920E+02 -0.96967120958E+03  0.98827514147E+03  0.17200000000E+03 0.  1.
         -6    1    1    2    0  502 -0.77783055850E+02 -0.28129997920E+02  0.78092759205E+02  0.20621343215E+03  0.17200000000E+03 0.  1.
<mgrwt>
<rscale>  2 0.19085466E+03</rscale>
<asrwt>0</asrwt>
<pdfrwt beam="1">  1       21 0.37863766E-01 0.19085466E+03</pdfrwt>
<pdfrwt beam="2">  1       21 0.26075837E+00 0.19085466E+03</pdfrwt>
<totfact> 0.38791006E+02</totfact>
</mgrwt>
</event>
<event>
 4    1  0.1132373E+000  0.2156599E+03  0.7546771E-02  0.1137161E+00
         21   -1    0    0  503  502  0.00000000000E+00  0.00000000000E+00  0.56189140570E+03  0.56189140570E+03  0.00000000000E+00 0.  1.
         21   -1    0    0  501  503 -0.00000000000E+00 -0.00000000000E+00 -0.10449379952E+03  0.10449379952E+03  0.00000000000E+00 0.  1.
          6    1    1    2  501    0  0.89164488711E+02  0.94735907831E+02  0.76786745190E+02  0.22892226304E+03  0.17200000000E+03 0.  1.
         -6    1    1    2    0  502 -0.89164488711E+02 -0.94735907831E+02  0.38061086099E+03  0.43746294218E+03  0.17200000000E+03 0.  1.
<mgrwt>
<rscale>  2 0.21565991E+03</rscale>
<asrwt>0</asrwt>
<pdfrwt beam="1">  1       21 0.14047284E+00 0.21565991E+03</pdfrwt>
<pdfrwt beam="2">  1       21 0.26123451E-01 0.21565991E+03</pdfrwt>
<totfact> 0.48482955E+03</totfact>
</mgrwt>
</event>
<event>
 4    1  0.1132373E+000  0.2189156E+03  0.7546771E-02  0.1134694E+00
         21   -1    0    0  503  502  0.00000000000E+00  0.00000000000E+00  0.43171026417E+02  0.43171026417E+02  0.00000000000E+00 0.  1.
         21   -1    0    0  501  503 -0.00000000000E+00 -0.00000000000E+00 -0.14120579783E+04  0.14120579783E+04  0.00000000000E+00 0.  1.
          6    1    1    2  501    0  0.37332379830E+02 -0.13017813571E+03 -0.10209163435E+04  0.10441236680E+04  0.17200000000E+03 0.  1.
         -6    1    1    2    0  502 -0.37332379830E+02  0.13017813571E+03 -0.34797060838E+03  0.41110533674E+03  0.17200000000E+03 0.  1.
<mgrwt>
<rscale>  2 0.21891563E+03</rscale>
<asrwt>0</asrwt>
<pdfrwt beam="1">  1       21 0.10792757E-01 0.21891563E+03</pdfrwt>
<pdfrwt beam="2">  1       21 0.35301449E+00 0.21891563E+03</pdfrwt>
<totfact> 0.11478599E+03</totfact>
</mgrwt>
</event>
<event>
 4    1  0.1132373E+000  0.2555089E+03  0.7546771E-02  0.1109872E+00
         21   -1    0    0  501  502  0.00000000000E+00  0.00000000000E+00  0.12345122122E+03  0.12345122122E+03  0.00000000000E+00 0.  1.
         21   -1    0    0  502  503 -0.00000000000E+00 -0.00000000000E+00 -0.57952390407E+03  0.57952390407E+03  0.00000000000E+00 0. -1.
          6    1    1    2  501    0  0.16135773970E+03  0.98308029053E+02 -0.12408038014E+03  0.28404353447E+03  0.17200000000E+03 0.  1.
         -6    1    1    2    0  503 -0.16135773970E+03 -0.98308029053E+02 -0.33199230271E+03  0.41893159083E+03  0.17200000000E+03 0. -1.
<mgrwt>
<rscale>  2 0.25550888E+03</rscale>
<asrwt>0</asrwt>
<pdfrwt beam="1">  1       21 0.30862806E-01 0.25550888E+03</pdfrwt>
<pdfrwt beam="2">  1       21 0.14488097E+00 0.25550888E+03</pdfrwt>
<totfact> 0.31404733E+03</totfact>
</mgrwt>
</event>
<event>
 4    1  0.1132373E+000  0.1813423E+03  0.7546771E-02  0.1166510E+00
         21   -1    0    0  501  502  0.00000000000E+00  0.00000000000E+00  0.17684994446E+03  0.17684994446E+03  0.00000000000E+00 0. -1.
         21   -1    0    0  502  503 -0.00000000000E+00 -0.00000000000E+00 -0.19411684981E+03  0.19411684981E+03  0.00000000000E+00 0.  1.
          6    1    1    2  501    0  0.46413188078E+02  0.33865056433E+02 -0.46681637920E+02  0.18725437617E+03  0.17200000000E+03 0.  1.
         -6    1    1    2    0  503 -0.46413188078E+02 -0.33865056433E+02  0.29414732570E+02  0.18371241811E+03  0.17200000000E+03 0. -1.
<mgrwt>
<rscale>  2 0.18134229E+03</rscale>
<asrwt>0</asrwt>
<pdfrwt beam="1">  1       21 0.44212486E-01 0.18134229E+03</pdfrwt>
<pdfrwt beam="2">  1       21 0.48529212E-01 0.18134229E+03</pdfrwt>
<totfact> 0.20056330E+04</totfact>
</mgrwt>
</event>
<event>
 4    1  0.1132373E+000  0.1805798E+03  0.7546771E-02  0.1167243E+00
         21   -1    0    0  503  502  0.00000000000E+00  0.00000000000E+00  0.17560264293E+03  0.17560264293E+03  0.00000000000E+00 0. -1.
         21   -1    0    0  501  503 -0.00000000000E+00 -0.00000000000E+00 -0.22578709779E+03  0.22578709779E+03  0.00000000000E+00 0. -1.
          6    1    1    2  501    0  0.23828616137E+02  0.49570753266E+02 -0.10965900115E+03  0.21126797926E+03  0.17200000000E+03 0. -1.
         -6    1    1    2    0  502 -0.23828616137E+02 -0.49570753266E+02  0.59474546283E+02  0.19012176146E+03  0.17200000000E+03 0. -1.
<mgrwt>
<rscale>  2 0.18057980E+03</rscale>
<asrwt>0</asrwt>
<pdfrwt beam="1">  1       21 0.43900661E-01 0.18057980E+03</pdfrwt>
<pdfrwt beam="2">  1       21 0.56446774E-01 0.18057980E+03</pdfrwt>
<totfact> 0.14830404E+04</totfact>
</mgrwt>
</event>
<event>
 4    1  0.1132373E+000  0.1834710E+03  0.7546771E-02  0.1164485E+00
         21   -1    0    0  503  502  0.00000000000E+00  0.00000000000E+00  0.52517689287E+03  0.52517689287E+03  0.00000000000E+00 0. -1.
         21   -1    0    0  501  503 -0.00000000000E+00 -0.00000000000E+00 -0.25374130346E+03  0.25374130346E+03  0.00000000000E+00 0.  1.
          6    1    1    2  501    0 -0.60570788165E+02  0.20218084787E+02 -0.20097795697E+03  0.27212815092E+03  0.17200000000E+03 0.  1.
         -6    1    1    2    0  502  0.60570788165E+02 -0.20218084787E+02  0.47241354638E+03  0.50679004541E+03  0.17200000000E+03 0. -1.
<mgrwt>
<rscale>  2 0.18347096E+03</rscale>
<asrwt>0</asrwt>
<pdfrwt beam="1">  1       21 0.13129422E+00 0.18347096E+03</pdfrwt>
<pdfrwt beam="2">  1       21 0.63435327E-01 0.18347096E+03</pdfrwt>
<totfact> 0.97816457E+02</totfact>
</mgrwt>
</event>
<event>
 4    1  0.1132373E+000  0.2050715E+03  0.7546771E-02  0.1145529E+00
         21   -1    0    0  501  502  0.00000000000E+00  0.00000000000E+00  0.11138808188E+03  0.11138808188E+03  0.00000000000E+00 0. -1.
         21   -1    0    0  502  503 -0.00000000000E+00 -0.00000000000E+00 -0.39733739725E+03  0.39733739725E+03  0.00000000000E+00 0. -1.
          6    1    1    2  501    0 -0.10864469991E+03 -0.25819948073E+02 -0.86208337102E+02  0.22245497954E+03  0.17200000000E+03 0. -1.
         -6    1    1    2    0  503  0.10864469991E+03  0.25819948073E+02 -0.19974097827E+03  0.28627049959E+03  0.17200000000E+03 0. -1.
<mgrwt>
<rscale>  2 0.20507155E+03</rscale>
<asrwt>0</asrwt>
<pdfrwt beam="1">  1       21 0.27847021E-01 0.20507155E+03</pdfrwt>
<pdfrwt beam="2">  1       21 0.99334348E-01 0.20507155E+03</pdfrwt>
<totfact> 0.10180931E+04</totfact>
</mgrwt>
</event>
<event>
 4    1  0.1132373E+000  0.1902945E+03  0.7546771E-02  0.1158196E+00
         21   -1    0    0  503  502  0.00000000000E+00  0.00000000000E+00  0.11091770469E+04  0.11091770469E+04  0.00000000000E+00 0.  1.
         21   -1    0    0  501  503 -0.00000000000E+00 -0.00000000000E+00 -0.41339987139E+02  0.41339987139E+02  0.00000000000E+00 0.  1.
          6    1    1    2  501    0 -0.34665091142E+02  0.73663553918E+02  0.27013541795E+03  0.33043173539E+03  0.17200000000E+03 0.  1.
         -6    1    1    2    0  502  0.34665091142E+02 -0.73663553918E+02  0.79770164180E+03  0.82008529864E+03  0.17200000000E+03 0.  1.
<mgrwt>
<rscale>  2 0.19029448E+03</rscale>
<asrwt>0</asrwt>
<pdfrwt beam="1">  1       21 0.27729416E+00 0.19029448E+03</pdfrwt>
<pdfrwt beam="2">  1       21 0.10335000E-01 0.19029448E+03</pdfrwt>
<totfact> 0.35409227E+03</totfact>
</mgrwt>
</event>
<event>
 4    1  0.1132373E+000  0.2280229E+03  0.7546771E-02  0.1128039E+00
         21   -1    0    0  503  502  0.00000000000E+00  0.00000000000E+00  0.20482276410E+03  0.20482276410E+03  0.00000000000E+00 0. -1.
         21   -1    0    0  501  503 -0.00000000000E+00 -0.00000000000E+00 -0.11303802482E+04  0.11303802482E+04  0.00000000000E+00 0. -1.
          6    1    1    2  501    0  0.13371399379E+03  0.67312738332E+02 -0.10506581742E+04  0.10751172196E+04  0.17200000000E+03 0. -1.
         -6    1    1    2    0  502 -0.13371399379E+03 -0.67312738332E+02  0.12510069013E+03  0.26008579267E+03  0.17200000000E+03 0. -1.
<mgrwt>
<rscale>  2 0.22802289E+03</rscale>
<asrwt>0</asrwt>
<pdfrwt beam="1">  1       21 0.51205692E-01 0.22802289E+03</pdfrwt>
<pdfrwt beam="2">  1       21 0.28259506E+00 0.22802289E+03</pdfrwt>
<totfact> 0.14813224E+02</totfact>
</mgrwt>
</event>
<event>
 4    1  0.1132373E+000  0.4094095E+03  0.7546771E-02  0.1040569E+00
         21   -1    0    0  501  502  0.00000000000E+00  0.00000000000E+00  0.15699037751E+04  0.15699037751E+04  0.00000000000E+00 0. -1.
         21   -1    0    0  502  503 -0.00000000000E+00 -0.00000000000E+00 -0.11242331344E+03  0.11242331344E+03  0.00000000000E+00 0.  1.
          6    1    1    2  501    0 -0.36312448830E+03  0.78566832985E+02  0.54008685917E+03  0.67772410072E+03  0.17200000000E+03 0.  1.
         -6    1    1    2    0  503  0.36312448830E+03 -0.78566832985E+02  0.91739360250E+03  0.10046029878E+04  0.17200000000E+03 0.  1.
<mgrwt>
<rscale>  2 0.40940950E+03</rscale>
<asrwt>0</asrwt>
<pdfrwt beam="1">  1       21 0.39247587E+00 0.40940950E+03</pdfrwt>
<pdfrwt beam="2">  1       21 0.28105833E-01 0.40940950E+03</pdfrwt>
<totfact> 0.90924574E+01</totfact>
</mgrwt>
</event>
<event>
 4    1  0.1132373E+000  0.2503946E+03  0.7546771E-02  0.1113056E+00
         21   -1    0    0  503  502  0.00000000000E+00  0.00000000000E+00  0.14839665723E+03  0.14839665723E+03  0.00000000000E+00 0.  1.
         21   -1    0    0  501  503 -0.00000000000E+00 -0.00000000000E+00 -0.42781865222E+03  0.42781865222E+03  0.00000000000E+00 0.  1.
          6    1    1    2  501    0 -0.16904623499E+03  0.67355801907E+02 -0.17183784555E+03  0.30368681035E+03  0.17200000000E+03 0.  1.
         -6    1    1    2    0  502  0.16904623499E+03 -0.67355801907E+02 -0.10758414944E+03  0.27252849911E+03  0.17200000000E+03 0.  1.
<mgrwt>
<rscale>  2 0.25039456E+03</rscale>
<asrwt>0</asrwt>
<pdfrwt beam="1">  1       21 0.37099164E-01 0.25039456E+03</pdfrwt>
<pdfrwt beam="2">  1       21 0.10695466E+00 0.25039456E+03</pdfrwt>
<totfact> 0.46969687E+03</totfact>
</mgrwt>
</event>
<event>
 4    1  0.1132373E+000  0.1991518E+03  0.7546771E-02  0.1150457E+00
         21   -1    0    0  501  502  0.00000000000E+00  0.00000000000E+00  0.16662768547E+03  0.16662768547E+03  0.00000000000E+00 0. -1.
         21   -1    0    0  502  503 -0.00000000000E+00 -0.00000000000E+00 -0.26104722084E+03  0.26104722084E+03  0.00000000000E+00 0. -1.
          6    1    1    2  501    0  0.93338157252E+02  0.36951851288E+02  0.16294619075E+02  0.19981733039E+03  0.17200000000E+03 0. -1.
         -6    1    1    2    0  503 -0.93338157252E+02 -0.36951851288E+02 -0.11071415444E+03  0.22785757592E+03  0.17200000000E+03 0. -1.
<mgrwt>
<rscale>  2 0.19915183E+03</rscale>
<asrwt>0</asrwt>
<pdfrwt beam="1">  1       21 0.41656922E-01 0.19915183E+03</pdfrwt>
<pdfrwt beam="2">  1       21 0.65261804E-01 0.19915183E+03</pdfrwt>
<totfact> 0.11934414E+04</totfact>
</mgrwt>
</event>
<event>
 4    1  0.1132373E+000  0.2193195E+03  0.7546771E-02  0.1134391E+00
         21   -1    0    0  503  502  0.00000000000E+00  0.00000000000E+00  0.37169580057E+03  0.37169580057E+03  0.00000000000E+00 0. -1.
         21   -1    0    0  501  503 -0.00000000000E+00 -0.00000000000E+00 -0.43577790577E+03  0.43577790577E+03  0.00000000000E+00 0. -1.
          6    1    1    2  501    0 -0.97398335783E+02 -0.95029590269E+02 -0.37056360329E+03  0.43060241862E+03  0.17200000000E+03 0. -1.
         -6    1    1    2    0  502  0.97398335783E+02  0.95029590269E+02  0.30648149808E+03  0.37687128772E+03  0.17200000000E+03 0. -1.
<mgrwt>
<rscale>  2 0.21931954E+03</rscale>
<asrwt>0</asrwt>
<pdfrwt beam="1">  1       21 0.92923950E-01 0.21931954E+03</pdfrwt>
<pdfrwt beam="2">  1       21 0.10894448E+00 0.21931954E+03</pdfrwt>
<totfact> 0.63440295E+02</totfact>
</mgrwt>
</event>
<event>
 4    1  0.1132373E+000  0.1745444E+03  0.7546771E-02  0.1173190E+00
         21   -1    0    0  503  502  0.00000000000E+00  0.00000000000E+00  0.33380995960E+03  0.33380995960E+03  0.00000000000E+00 0.  1.
         21   -1    0    0  501  503 -0.00000000000E+00 -0.00000000000E+00 -0.19585945914E+03  0.19585945914E+03  0.00000000000E+00 0.  1.
          6    1    1    2  501    0  0.27121436083E+02  0.12090199811E+02 -0.12455700812E+03  0.21442992678E+03  0.17200000000E+03 0.  1.
         -6    1    1    2    0  502 -0.27121436083E+02 -0.12090199811E+02  0.26250750858E+03  0.31523949196E+03  0.17200000000E+03 0.  1.
<mgrwt>
<rscale>  2 0.17454439E+03</rscale>
<asrwt>0</asrwt>
<pdfrwt beam="1">  1       21 0.83452489E-01 0.17454439E+03</pdfrwt>
<pdfrwt beam="2">  1       21 0.48964865E-01 0.17454439E+03</pdfrwt>
<totfact> 0.50465588E+03</totfact>
</mgrwt>
</event>
<event>
 4    1  0.1132373E+000  0.3174308E+03  0.7546771E-02  0.1076838E+00
         21   -1    0    0  501  502  0.00000000000E+00  0.00000000000E+00  0.19557525169E+03  0.19557525169E+03  0.00000000000E+00 0.  1.
         21   -1    0    0  502  503 -0.00000000000E+00 -0.00000000000E+00 -0.51803526120E+03  0.51803526120E+03  0.00000000000E+00 0.  1.
          6    1    1    2  501    0  0.22727365120E+03  0.13973194278E+03 -0.13488005869E+03  0.34489847578E+03  0.17200000000E+03 0.  1.
         -6    1    1    2    0  503 -0.22727365120E+03 -0.13973194278E+03 -0.18757995082E+03  0.36871203711E+03  0.17200000000E+03 0.  1.
<mgrwt>
<rscale>  2 0.31743082E+03</rscale>
<asrwt>0</asrwt>
<pdfrwt beam="1">  1       21 0.48893813E-01 0.31743082E+03</pdfrwt>
<pdfrwt beam="2">  1       21 0.12950881E+00 0.31743082E+03</pdfrwt>
<totfact> 0.15864658E+03</totfact>
</mgrwt>
</event>
<event>
 4    1  0.1132373E+000  0.3221931E+03  0.7546771E-02  0.1074644E+00
         21   -1    0    0  501  502  0.00000000000E+00  0.00000000000E+00  0.62585165080E+02  0.62585165080E+02  0.00000000000E+00 0. -1.
         21   -1    0    0  502  503 -0.00000000000E+00 -0.00000000000E+00 -0.19703226392E+04  0.19703226392E+04  0.00000000000E+00 0.  1.
          6    1    1    2  501    0  0.22633025150E+02 -0.27149976007E+03 -0.54961711517E+03  0.63709288713E+03  0.17200000000E+03 0. -1.
         -6    1    1    2    0  503 -0.22633025150E+02  0.27149976007E+03 -0.13581203589E+04  0.13958149171E+04  0.17200000000E+03 0.  1.
<mgrwt>
<rscale>  2 0.32219307E+03</rscale>
<asrwt>0</asrwt>
<pdfrwt beam="1">  1       21 0.15646291E-01 0.32219307E+03</pdfrwt>
<pdfrwt beam="2">  1       21 0.49258067E+00 0.32219307E+03</pdfrwt>
<totfact> 0.64433060E+01</totfact>
</mgrwt>
</event>
<event>
 4    1  0.1132373E+000  0.2644314E+03  0.7546771E-02  0.1104510E+00
         21   -1    0    0  503  502  0.00000000000E+00  0.00000000000E+00  0.12062510453E+04  0.12062510453E+04  0.00000000000E+00 0. -1.
         21   -1    0    0  501  503 -0.00000000000E+00 -0.00000000000E+00 -0.58230195590E+02  0.58230195590E+02  0.00000000000E+00 0. -1.
          6    1    1    2  501    0 -0.10304503721E+03  0.17239971756E+03  0.53158428545E+03  0.59372198448E+03  0.17200000000E+03 0. -1.
         -6    1    1    2    0  502  0.10304503721E+03 -0.17239971756E+03  0.61643656421E+03  0.67075925637E+03  0.17200000000E+03 0. -1.
<mgrwt>
<rscale>  2 0.26443136E+03</rscale>
<asrwt>0</asrwt>
<pdfrwt beam="1">  1       21 0.30156268E+00 0.26443136E+03</pdfrwt>
<pdfrwt beam="2">  1       21 0.14557553E-01 0.26443136E+03</pdfrwt>
<totfact> 0.12772933E+03</totfact>
</mgrwt>
</event>
<event>
 4    1  0.1132373E+000  0.1767575E+03  0.7546771E-02  0.1170979E+00
         21   -1    0    0  503  502  0.00000000000E+00  0.00000000000E+00  0.81082492319E+03  0.81082492319E+03  0.00000000000E+00 0. -1.
         21   -1    0    0  501  503 -0.00000000000E+00 -0.00000000000E+00 -0.22533349575E+03  0.22533349575E+03  0.00000000000E+00 0. -1.
          6    1    1    2  501    0 -0.39317441278E+02  0.10647091822E+02 -0.17896172220E+03  0.25153631898E+03  0.17200000000E+03 0. -1.
         -6    1    1    2    0  502  0.39317441278E+02 -0.10647091822E+02  0.76445314964E+03  0.78462209996E+03  0.17200000000E+03 0. -1.
<mgrwt>
<rscale>  2 0.17675752E+03</rscale>
<asrwt>0</asrwt>
<pdfrwt beam="1">  1       21 0.20270622E+00 0.17675752E+03</pdfrwt>
<pdfrwt beam="2">  1       21 0.56333376E-01 0.17675752E+03</pdfrwt>
<totfact> 0.39057879E+02</totfact>
</mgrwt>
</event>
<event>
 4    1  0.1132373E+000  0.2076321E+03  0.7546771E-02  0.1143455E+00
         21   -1    0    0  503  502  0.00000000000E+00  0.00000000000E+00  0.10665657017E+03  0.10665657017E+03  0.00000000000E+00 0.  1.
         21   -1    0    0  501  503 -0.00000000000E+00 -0.00000000000E+00 -0.40423471897E+03  0.40423471897E+03  0.00000000000E+00 0.  1.
          6    1    1    2  501    0 -0.11399507797E+03 -0.23069722601E+02 -0.15098935956E+03  0.25672724164E+03  0.17200000000E+03 0.  1.
         -6    1    1    2    0  502  0.11399507797E+03  0.23069722601E+02 -0.14658878925E+03  0.25416404749E+03  0.17200000000E+03 0.  1.
<mgrwt>
<rscale>  2 0.20763210E+03</rscale>
<asrwt>0</asrwt>
<pdfrwt beam="1">  1       21 0.26664143E-01 0.20763210E+03</pdfrwt>
<pdfrwt beam="2">  1       21 0.10105868E+00 0.20763210E+03</pdfrwt>
<totfact> 0.10608070E+04</totfact>
</mgrwt>
</event>
<event>
 4    1  0.1132373E+000  0.1735338E+03  0.7546771E-02  0.1174212E+00
         21   -1    0    0  503  502  0.00000000000E+00  0.00000000000E+00  0.86377360964E+03  0.86377360964E+03  0.00000000000E+00 0. -1.
         21   -1    0    0  501  503 -0.00000000000E+00 -0.00000000000E+00 -0.41032193489E+02  0.41032193489E+02  0.00000000000E+00 0. -1.
          6    1    1    2  501    0  0.18205018033E+02  0.14091549240E+02  0.23595567269E+03  0.29289771921E+03  0.17200000000E+03 0. -1.
         -6    1    1    2    0  502 -0.18205018033E+02 -0.14091549240E+02  0.58678574346E+03  0.61190808392E+03  0.17200000000E+03 0. -1.
<mgrwt>
<rscale>  2 0.17353384E+03</rscale>
<asrwt>0</asrwt>
<pdfrwt beam="1">  1       21 0.21594334E+00 0.17353384E+03</pdfrwt>
<pdfrwt beam="2">  1       21 0.10258051E-01 0.17353384E+03</pdfrwt>
<totfact> 0.84143022E+03</totfact>
</mgrwt>
</event>
<event>
 4    1  0.1132373E+000  0.5203441E+03  0.7546771E-02  0.1008601E+00
         21   -1    0    0  501  502  0.00000000000E+00  0.00000000000E+00  0.63438691755E+03  0.63438691755E+03  0.00000000000E+00 0. -1.
         21   -1    0    0  502  503 -0.00000000000E+00 -0.00000000000E+00 -0.60559421166E+03  0.60559421166E+03  0.00000000000E+00 0.  1.
          6    1    1    2  501    0  0.35803622489E+03  0.33613099931E+03  0.35127058285E+03  0.62781287770E+03  0.17200000000E+03 0. -1.
         -6    1    1    2    0  503 -0.35803622489E+03 -0.33613099931E+03 -0.32247787695E+03  0.61216825151E+03  0.17200000000E+03 0.  1.
<mgrwt>
<rscale>  2 0.52034410E+03</rscale>
<asrwt>0</asrwt>
<pdfrwt beam="1">  1       21 0.15859673E+00 0.52034410E+03</pdfrwt>
<pdfrwt beam="2">  1       21 0.15139855E+00 0.52034410E+03</pdfrwt>
<totfact> 0.57095867E+01</totfact>
</mgrwt>
</event>
<event>
 4    1  0.1132373E+000  0.1854429E+03  0.7546771E-02  0.1162637E+00
         21   -1    0    0  503  502  0.00000000000E+00  0.00000000000E+00  0.10602022457E+03  0.10602022457E+03  0.00000000000E+00 0. -1.
         21   -1    0    0  501  503 -0.00000000000E+00 -0.00000000000E+00 -0.39030459518E+03  0.39030459518E+03  0.00000000000E+00 0. -1.
          6    1    1    2  501    0  0.23641536340E+02  0.65162376667E+02 -0.24414526526E+03  0.30658761900E+03  0.17200000000E+03 0. -1.
         -6    1    1    2    0  502 -0.23641536340E+02 -0.65162376667E+02 -0.40139105345E+02  0.18973720076E+03  0.17200000000E+03 0. -1.
<mgrwt>
<rscale>  2 0.18544287E+03</rscale>
<asrwt>0</asrwt>
<pdfrwt beam="1">  1       21 0.26505056E-01 0.18544287E+03</pdfrwt>
<pdfrwt beam="2">  1       21 0.97576148E-01 0.18544287E+03</pdfrwt>
<totfact> 0.11839272E+04</totfact>
</mgrwt>
</event>
<event>
 4    1  0.1132373E+000  0.1871178E+03  0.7546771E-02  0.1161087E+00
         21   -1    0    0  503  502  0.00000000000E+00  0.00000000000E+00  0.27086444562E+03  0.27086444562E+03  0.00000000000E+00 0.  1.
         21   -1    0    0  501  503 -0.00000000000E+00 -0.00000000000E+00 -0.13171564071E+03  0.13171564071E+03  0.00000000000E+00 0.  1.
          6    1    1    2  501    0  0.22146766795E+02  0.70275027155E+02  0.42113176315E+02  0.19179827512E+03  0.17200000000E+03 0.  1.
         -6    1    1    2    0  502 -0.22146766795E+02 -0.70275027155E+02  0.97035628593E+02  0.21078181121E+03  0.17200000000E+03 0.  1.
<mgrwt>
<rscale>  2 0.18711777E+03</rscale>
<asrwt>0</asrwt>
<pdfrwt beam="1">  1       21 0.67716111E-01 0.18711777E+03</pdfrwt>
<pdfrwt beam="2">  1       21 0.32928911E-01 0.18711777E+03</pdfrwt>
<totfact> 0.17755020E+04</totfact>
</mgrwt>
</event>
<event>
 4    1  0.1132373E+000  0.2000586E+03  0.7546771E-02  0.1149690E+00
         21   -1    0    0  503  502  0.00000000000E+00  0.00000000000E+00  0.66112279841E+02  0.66112279841E+02  0.00000000000E+00 0. -1.
         21   -1    0    0  501  503 -0.00000000000E+00 -0.00000000000E+00 -0.80977629222E+03  0.80977629222E+03  0.00000000000E+00 0. -1.
          6    1    1    2  501    0  0.87001414984E+02  0.53574294970E+02 -0.59185416685E+03  0.62475179560E+03  0.17200000000E+03 0. -1.
         -6    1    1    2    0  502 -0.87001414984E+02 -0.53574294970E+02 -0.15180984553E+03  0.25113677646E+03  0.17200000000E+03 0. -1.
<mgrwt>
<rscale>  2 0.20005862E+03</rscale>
<asrwt>0</asrwt>
<pdfrwt beam="1">  1       21 0.16528070E-01 0.20005862E+03</pdfrwt>
<pdfrwt beam="2">  1       21 0.20244407E+00 0.20005862E+03</pdfrwt>
<totfact> 0.42254670E+03</totfact>
</mgrwt>
</event>
<event>
 4    1  0.1132373E+000  0.2666931E+03  0.7546771E-02  0.1103187E+00
         21   -1    0    0  501  502  0.00000000000E+00  0.00000000000E+00  0.16954061589E+04  0.16954061589E+04  0.00000000000E+00 0.  1.
         21   -1    0    0  502  503 -0.00000000000E+00 -0.00000000000E+00 -0.41953711721E+02  0.41953711721E+02  0.00000000000E+00 0. -1.
          6    1    1    2  501    0 -0.11710710627E+03  0.16681462305E+03  0.82073055491E+03  0.86297383307E+03  0.17200000000E+03 0.  1.
         -6    1    1    2    0  503  0.11710710627E+03 -0.16681462305E+03  0.83272189227E+03  0.87438603755E+03  0.17200000000E+03 0.  1.
<mgrwt>
<rscale>  2 0.26669307E+03</rscale>
<asrwt>0</asrwt>
<pdfrwt beam="1">  1       21 0.42385131E+00 0.26669307E+03</pdfrwt>
<pdfrwt beam="2">  1       21 0.10488434E-01 0.26669307E+03</pdfrwt>
<totfact> 0.41389656E+02</totfact>
</mgrwt>
</event>
<event>
 4    1  0.1132373E+000  0.1910933E+03  0.7546771E-02  0.1157479E+00
         21   -1    0    0  503  502  0.00000000000E+00  0.00000000000E+00  0.12615849424E+04  0.12615849424E+04  0.00000000000E+00 0.  1.
         21   -1    0    0  501  503 -0.00000000000E+00 -0.00000000000E+00 -0.68347696480E+02  0.68347696480E+02  0.00000000000E+00 0.  1.
          6    1    1    2  501    0 -0.65395485436E+02 -0.51537339013E+02  0.91724537356E+02  0.21196711439E+03  0.17200000000E+03 0.  1.
         -6    1    1    2    0  502  0.65395485436E+02  0.51537339013E+02  0.11015127085E+04  0.11179655245E+04  0.17200000000E+03 0.  1.
<mgrwt>
<rscale>  2 0.19109335E+03</rscale>
<asrwt>0</asrwt>
<pdfrwt beam="1">  1       21 0.31539616E+00 0.19109335E+03</pdfrwt>
<pdfrwt beam="2">  1       21 0.17086928E-01 0.19109335E+03</pdfrwt>
<totfact> 0.86189177E+02</totfact>
</mgrwt>
</event>
<event>
 4    1  0.1132373E+000  0.2600683E+03  0.7546771E-02  0.1107102E+00
         21   -1    0    0  503  502  0.00000000000E+00  0.00000000000E+00  0.34882296142E+03  0.34882296142E+03  0.00000000000E+00 0. -1.
         21   -1    0    0  501  503 -0.00000000000E+00 -0.00000000000E+00 -0.29325535269E+03  0.29325535269E+03  0.00000000000E+00 0.  1.
          6    1    1    2  501    0  0.10872014851E+03 -0.16196122364E+03 -0.15908576463E+03  0.30486683841E+03  0.17200000000E+03 0.  1.
         -6    1    1    2    0  502 -0.10872014851E+03  0.16196122364E+03  0.21465337336E+03  0.33721147570E+03  0.17200000000E+03 0. -1.
<mgrwt>
<rscale>  2 0.26006828E+03</rscale>
<asrwt>0</asrwt>
<pdfrwt beam="1">  1       21 0.87205740E-01 0.26006828E+03</pdfrwt>
<pdfrwt beam="2">  1       21 0.73313838E-01 0.26006828E+03</pdfrwt>
<totfact> 0.17897715E+03</totfact>
</mgrwt>
</event>
<event>
 4    1  0.1132373E+000  0.3049921E+03  0.7546771E-02  0.1082771E+00
         21   -1    0    0  503  502  0.00000000000E+00  0.00000000000E+00  0.23829145575E+03  0.23829145575E+03  0.00000000000E+00 0.  1.
         21   -1    0    0  501  503 -0.00000000000E+00 -0.00000000000E+00 -0.40983293228E+03  0.40983293228E+03  0.00000000000E+00 0. -1.
          6    1    1    2  501    0  0.12232618990E+02  0.25156818637E+03 -0.15640349238E+03  0.34275682603E+03  0.17200000000E+03 0. -1.
         -6    1    1    2    0  502 -0.12232618990E+02 -0.25156818637E+03 -0.15137984156E+02  0.30536756200E+03  0.17200000000E+03 0.  1.
<mgrwt>
<rscale>  2 0.30499211E+03</rscale>
<asrwt>0</asrwt>
<pdfrwt beam="1">  1       21 0.59572864E-01 0.30499211E+03</pdfrwt>
<pdfrwt beam="2">  1       21 0.10245823E+00 0.30499211E+03</pdfrwt>
<totfact> 0.18770467E+03</totfact>
</mgrwt>
</event>
<event>
 4    1  0.1132373E+000  0.1837035E+03  0.7546771E-02  0.1164266E+00
         21   -1    0    0  501  502  0.00000000000E+00  0.00000000000E+00  0.63394501291E+03  0.63394501291E+03  0.00000000000E+00 0.  1.
         21   -1    0    0  502  503 -0.00000000000E+00 -0.00000000000E+00 -0.66422053238E+02  0.66422053238E+02  0.00000000000E+00 0.  1.
          6    1    1    2  501    0 -0.61687881684E+02  0.18909858450E+02  0.43980352712E+03  0.47662786318E+03  0.17200000000E+03 0.  1.
         -6    1    1    2    0  503  0.61687881684E+02 -0.18909858450E+02  0.12771943255E+03  0.22373920297E+03  0.17200000000E+03 0.  1.
<mgrwt>
<rscale>  2 0.18370350E+03</rscale>
<asrwt>0</asrwt>
<pdfrwt beam="1">  1       21 0.15848623E+00 0.18370350E+03</pdfrwt>
<pdfrwt beam="2">  1       21 0.16605515E-01 0.18370350E+03</pdfrwt>
<totfact> 0.84712186E+03</totfact>
</mgrwt>
</event>
<event>
 4    1  0.1132373E+000  0.2343369E+03  0.7546771E-02  0.1123624E+00
         21   -1    0    0  503  502  0.00000000000E+00  0.00000000000E+00  0.72807022817E+03  0.72807022817E+03  0.00000000000E+00 0. -1.
         21   -1    0    0  501  503 -0.00000000000E+00 -0.00000000000E+00 -0.54553783864E+03  0.54553783864E+03  0.00000000000E+00 0.  1.
          6    1    1    2  501    0  0.10780791811E+03 -0.11707799339E+03 -0.49988012295E+03  0.55208146235E+03  0.17200000000E+03 0.  1.
         -6    1    1    2    0  502 -0.10780791811E+03  0.11707799339E+03  0.68241251249E+03  0.72152660446E+03  0.17200000000E+03 0. -1.
<mgrwt>
<rscale>  2 0.23433694E+03</rscale>
<asrwt>0</asrwt>
<pdfrwt beam="1">  1       21 0.18201756E+00 0.23433694E+03</pdfrwt>
<pdfrwt beam="2">  1       21 0.13638446E+00 0.23433694E+03</pdfrwt>
<totfact> 0.63725599E+01</totfact>
</mgrwt>
</event>
<event>
 4    1  0.1132373E+000  0.2166598E+03  0.7546771E-02  0.1136398E+00
         21   -1    0    0  503  502  0.00000000000E+00  0.00000000000E+00  0.65507128654E+03  0.65507128654E+03  0.00000000000E+00 0.  1.
         21   -1    0    0  501  503 -0.00000000000E+00 -0.00000000000E+00 -0.76002520804E+02  0.76002520804E+02  0.00000000000E+00 0.  1.
          6    1    1    2  501    0  0.12841455586E+03 -0.29448091537E+02  0.20214505244E+03  0.29631758381E+03  0.17200000000E+03 0.  1.
         -6    1    1    2    0  502 -0.12841455586E+03  0.29448091537E+02  0.37692371330E+03  0.43475622353E+03  0.17200000000E+03 0.  1.
<mgrwt>
<rscale>  2 0.21665984E+03</rscale>
<asrwt>0</asrwt>
<pdfrwt beam="1">  1       21 0.16376780E+00 0.21665984E+03</pdfrwt>
<pdfrwt beam="2">  1       21 0.19000632E-01 0.21665984E+03</pdfrwt>
<totfact> 0.58854404E+03</totfact>
</mgrwt>
</event>
<event>
 4    1  0.1132373E+000  0.3287619E+03  0.7546771E-02  0.1071686E+00
         21   -1    0    0  503  502  0.00000000000E+00  0.00000000000E+00  0.10877722597E+03  0.10877722597E+03  0.00000000000E+00 0. -1.
         21   -1    0    0  501  503 -0.00000000000E+00 -0.00000000000E+00 -0.11758057578E+04  0.11758057578E+04  0.00000000000E+00 0.  1.
          6    1    1    2  501    0 -0.27659185122E+03 -0.44691527690E+02 -0.78633279819E+03  0.85229317393E+03  0.17200000000E+03 0. -1.
         -6    1    1    2    0  502  0.27659185122E+03  0.44691527690E+02 -0.28069573365E+03  0.43228980984E+03  0.17200000000E+03 0. -1.
<mgrwt>
<rscale>  2 0.32876190E+03</rscale>
<asrwt>0</asrwt>
<pdfrwt beam="1">  1       21 0.27194306E-01 0.32876190E+03</pdfrwt>
<pdfrwt beam="2">  1       21 0.29395144E+00 0.32876190E+03</pdfrwt>
<totfact> 0.41152100E+02</totfact>
</mgrwt>
</event>
<event>
 4    1  0.1132373E+000  0.1858138E+03  0.7546771E-02  0.1162292E+00
         21   -1    0    0  503  502  0.00000000000E+00  0.00000000000E+00  0.75478713880E+03  0.75478713880E+03  0.00000000000E+00 0. -1.
         21   -1    0    0  501  503 -0.00000000000E+00 -0.00000000000E+00 -0.45786907271E+02  0.45786907271E+02  0.00000000000E+00 0. -1.
          6    1    1    2  501    0 -0.64952539952E+02  0.26905899663E+02  0.34220432808E+03  0.38939769136E+03  0.17200000000E+03 0. -1.
         -6    1    1    2    0  502  0.64952539952E+02 -0.26905899663E+02  0.36679590346E+03  0.41117635472E+03  0.17200000000E+03 0. -1.
<mgrwt>
<rscale>  2 0.18581378E+03</rscale>
<asrwt>0</asrwt>
<pdfrwt beam="1">  1       21 0.18869674E+00 0.18581378E+03</pdfrwt>
<pdfrwt beam="2">  1       21 0.11446729E-01 0.18581378E+03</pdfrwt>
<totfact> 0.10214347E+04</totfact>
</mgrwt>
</event>
<event>
 4    1  0.1132373E+000  0.2410135E+03  0.7546771E-02  0.1119119E+00
         21   -1    0    0  501  502  0.00000000000E+00  0.00000000000E+00  0.39337101579E+03  0.39337101579E+03  0.00000000000E+00 0. -1.
         21   -1    0    0  502  503 -0.00000000000E+00 -0.00000000000E+00 -0.27645807190E+03  0.27645807190E+03  0.00000000000E+00 0.  1.
          6    1    1    2  501    0 -0.25096669223E+02 -0.16695408323E+03  0.28705003778E+03  0.37481359754E+03  0.17200000000E+03 0. -1.
         -6    1    1    2    0  503  0.25096669223E+02  0.16695408323E+03 -0.17013709389E+03  0.29501549015E+03  0.17200000000E+03 0.  1.
<mgrwt>
<rscale>  2 0.24101350E+03</rscale>
<asrwt>0</asrwt>
<pdfrwt beam="1">  1       21 0.98342754E-01 0.24101350E+03</pdfrwt>
<pdfrwt beam="2">  1       21 0.69114518E-01 0.24101350E+03</pdfrwt>
<totfact> 0.15609661E+03</totfact>
</mgrwt>
</event>
<event>
 4    1  0.1132373E+000  0.1791098E+03  0.7546771E-02  0.1168667E+00
         21   -1    0    0  501  502  0.00000000000E+00  0.00000000000E+00  0.25527178615E+03  0.25527178615E+03  0.00000000000E+00 0.  1.
         21   -1    0    0  502  503 -0.00000000000E+00 -0.00000000000E+00 -0.18991603404E+03  0.18991603404E+03  0.00000000000E+00 0.  1.
          6    1    1    2  501    0  0.49872346401E+02  0.30096207079E+01  0.16214264687E+03  0.24159997245E+03  0.17200000000E+03 0.  1.
         -6    1    1    2    0  503 -0.49872346401E+02 -0.30096207079E+01 -0.96786894763E+02  0.20358784775E+03  0.17200000000E+03 0.  1.
<mgrwt>
<rscale>  2 0.17910977E+03</rscale>
<asrwt>0</asrwt>
<pdfrwt beam="1">  1       21 0.63817946E-01 0.17910977E+03</pdfrwt>
<pdfrwt beam="2">  1       21 0.47479009E-01 0.17910977E+03</pdfrwt>
<totfact> 0.97148354E+03</totfact>
</mgrwt>
</event>
<event>
 4    1  0.1132373E+000  0.2401106E+03  0.7546771E-02  0.1119719E+00
         21   -1    0    0  503  502  0.00000000000E+00  0.00000000000E+00  0.10516482795E+04  0.10516482795E+04  0.00000000000E+00 0.  1.
         21   -1    0    0  501  503 -0.00000000000E+00 -0.00000000000E+00 -0.65052881355E+02  0.65052881355E+02  0.00000000000E+00 0. -1.
          6    1    1    2  501    0 -0.14545503269E+03 -0.83138096140E+02  0.27186725051E+03  0.36271877738E+03  0.17200000000E+03 0. -1.
         -6    1    1    2    0  502  0.14545503269E+03  0.83138096140E+02  0.71472814760E+03  0.75398238344E+03  0.17200000000E+03 0.  1.
<mgrwt>
<rscale>  2 0.24011062E+03</rscale>
<asrwt>0</asrwt>
<pdfrwt beam="1">  1       21 0.26291202E+00 0.24011062E+03</pdfrwt>
<pdfrwt beam="2">  1       21 0.16263224E-01 0.24011062E+03</pdfrwt>
<totfact> 0.17967196E+03</totfact>
</mgrwt>
</event>
<event>
 4    1  0.1132373E+000  0.1763778E+03  0.7546771E-02  0.1171355E+00
         21   -1    0    0  503  502  0.00000000000E+00  0.00000000000E+00  0.23389436138E+03  0.23389436138E+03  0.00000000000E+00 0.  1.
         21   -1    0    0  501  503 -0.00000000000E+00 -0.00000000000E+00 -0.14644048314E+03  0.14644048314E+03  0.00000000000E+00 0.  1.
          6    1    1    2  501    0 -0.37494120103E+02 -0.10923236127E+02  0.10132816571E+03  0.20341220046E+03  0.17200000000E+03 0.  1.
         -6    1    1    2    0  502  0.37494120103E+02  0.10923236127E+02 -0.13874287476E+02  0.17692264406E+03  0.17200000000E+03 0.  1.
<mgrwt>
<rscale>  2 0.17637779E+03</rscale>
<asrwt>0</asrwt>
<pdfrwt beam="1">  1       21 0.58473590E-01 0.17637779E+03</pdfrwt>
<pdfrwt beam="2">  1       21 0.36610121E-01 0.17637779E+03</pdfrwt>
<totfact> 0.19897776E+04</totfact>
</mgrwt>
</event>
<event>
 4    1  0.1132373E+000  0.2614094E+03  0.7546771E-02  0.1106299E+00
         21   -1    0    0  503  502  0.00000000000E+00  0.00000000000E+00  0.20731878559E+03  0.20731878559E+03  0.00000000000E+00 0. -1.
         21   -1    0    0  501  503 -0.00000000000E+00 -0.00000000000E+00 -0.33159159762E+03  0.33159159762E+03  0.00000000000E+00 0.  1.
          6    1    1    2  501    0  0.17071722317E+03  0.98012871728E+02 -0.41320156879E+02  0.26465496156E+03  0.17200000000E+03 0.  1.
         -6    1    1    2    0  502 -0.17071722317E+03 -0.98012871728E+02 -0.82952655152E+02  0.27425542166E+03  0.17200000000E+03 0.  1.
<mgrwt>
<rscale>  2 0.26140944E+03</rscale>
<asrwt>0</asrwt>
<pdfrwt beam="1">  1       21 0.51829697E-01 0.26140944E+03</pdfrwt>
<pdfrwt beam="2">  1       21 0.82897899E-01 0.26140944E+03</pdfrwt>
<totfact> 0.42722041E+03</totfact>
</mgrwt>
</event>
<event>
 4    1  0.1132373E+000  0.2030587E+03  0.7546771E-02  0.1147184E+00
         21   -1    0    0  501  502  0.00000000000E+00  0.00000000000E+00  0.19336531749E+03  0.19336531749E+03  0.00000000000E+00 0. -1.
         21   -1    0    0  502  503 -0.00000000000E+00 -0.00000000000E+00 -0.51958134962E+03  0.51958134962E+03  0.00000000000E+00 0. -1.
          6    1    1    2  501    0  0.64929672982E+02  0.86214651008E+02  0.11061071477E+03  0.23123053151E+03  0.17200000000E+03 0. -1.
         -6    1    1    2    0  503 -0.64929672982E+02 -0.86214651008E+02 -0.43682674691E+03  0.48171613560E+03  0.17200000000E+03 0. -1.
<mgrwt>
<rscale>  2 0.20305868E+03</rscale>
<asrwt>0</asrwt>
<pdfrwt beam="1">  1       21 0.48341330E-01 0.20305868E+03</pdfrwt>
<pdfrwt beam="2">  1       21 0.12989534E+00 0.20305868E+03</pdfrwt>
<totfact> 0.17530854E+03</totfact>
</mgrwt>
</event>
<event>
 4    1  0.1132373E+000  0.2247477E+03  0.7546771E-02  0.1130392E+00
         21   -1    0    0  501  502  0.00000000000E+00  0.00000000000E+00  0.80150798186E+03  0.80150798186E+03  0.00000000000E+00 0.  1.
         21   -1    0    0  502  503 -0.00000000000E+00 -0.00000000000E+00 -0.66444969309E+02  0.66444969309E+02  0.00000000000E+00 0.  1.
          6    1    1    2  501    0 -0.13545939472E+03 -0.50776904599E+02  0.46605124231E+03  0.51741212019E+03  0.17200000000E+03 0.  1.
         -6    1    1    2    0  503  0.13545939472E+03  0.50776904599E+02  0.26901177025E+03  0.35054083099E+03  0.17200000000E+03 0.  1.
<mgrwt>
<rscale>  2 0.22474773E+03</rscale>
<asrwt>0</asrwt>
<pdfrwt beam="1">  1       21 0.20037697E+00 0.22474773E+03</pdfrwt>
<pdfrwt beam="2">  1       21 0.16611245E-01 0.22474773E+03</pdfrwt>
<totfact> 0.42228888E+03</totfact>
</mgrwt>
</event>
<event>
 4    1  0.1132373E+000  0.2579309E+03  0.7546771E-02  0.1108393E+00
         21   -1    0    0  503  502  0.00000000000E+00  0.00000000000E+00  0.16388277031E+03  0.16388277031E+03  0.00000000000E+00 0.  1.
         21   -1    0    0  501  503 -0.00000000000E+00 -0.00000000000E+00 -0.48184602457E+03  0.48184602457E+03  0.00000000000E+00 0.  1.
          6    1    1    2  501    0  0.13027286257E+03  0.14132701915E+03 -0.30845030668E+02  0.25976866820E+03  0.17200000000E+03 0.  1.
         -6    1    1    2    0  502 -0.13027286257E+03 -0.14132701915E+03 -0.28711822360E+03  0.38596012667E+03  0.17200000000E+03 0.  1.
<mgrwt>
<rscale>  2 0.25793089E+03</rscale>
<asrwt>0</asrwt>
<pdfrwt beam="1">  1       21 0.40970693E-01 0.25793089E+03</pdfrwt>
<pdfrwt beam="2">  1       21 0.12046150E+00 0.25793089E+03</pdfrwt>
<totfact> 0.28535588E+03</totfact>
</mgrwt>
</event>
<event>
 4    1  0.1132373E+000  0.1809900E+03  0.7546771E-02  0.1166848E+00
         21   -1    0    0  501  502  0.00000000000E+00  0.00000000000E+00  0.14796050009E+03  0.14796050009E+03  0.00000000000E+00 0. -1.
         21   -1    0    0  502  503 -0.00000000000E+00 -0.00000000000E+00 -0.22165781301E+03  0.22165781301E+03  0.00000000000E+00 0. -1.
          6    1    1    2  501    0 -0.42855417441E+01  0.56169582774E+02 -0.43238995577E+02  0.18608331101E+03  0.17200000000E+03 0. -1.
         -6    1    1    2    0  503  0.42855417441E+01 -0.56169582774E+02 -0.30458317346E+02  0.18353500209E+03  0.17200000000E+03 0. -1.
<mgrwt>
<rscale>  2 0.18099002E+03</rscale>
<asrwt>0</asrwt>
<pdfrwt beam="1">  1       21 0.36990125E-01 0.18099002E+03</pdfrwt>
<pdfrwt beam="2">  1       21 0.55414453E-01 0.18099002E+03</pdfrwt>
<totfact> 0.21787200E+04</totfact>
</mgrwt>
</event>
<event>
 4    1  0.1132373E+000  0.2045289E+03  0.7546771E-02  0.1145973E+00
         21   -1    0    0  501  502  0.00000000000E+00  0.00000000000E+00  0.19526306076E+03  0.19526306076E+03  0.00000000000E+00 0.  1.
         21   -1    0    0  502  503 -0.00000000000E+00 -0.00000000000E+00 -0.21713885525E+03  0.21713885525E+03  0.00000000000E+00 0.  1.
          6    1    1    2  501    0 -0.71000507257E+02  0.84894096015E+02 -0.34785709532E+02  0.20746596144E+03  0.17200000000E+03 0.  1.
         -6    1    1    2    0  503  0.71000507257E+02 -0.84894096015E+02  0.12909915044E+02  0.20493595457E+03  0.17200000000E+03 0.  1.
<mgrwt>
<rscale>  2 0.20452892E+03</rscale>
<asrwt>0</asrwt>
<pdfrwt beam="1">  1       21 0.48815765E-01 0.20452892E+03</pdfrwt>
<pdfrwt beam="2">  1       21 0.54284714E-01 0.20452892E+03</pdfrwt>
<totfact> 0.12744160E+04</totfact>
</mgrwt>
</event>
<event>
 4    1  0.1132373E+000  0.2343891E+03  0.7546771E-02  0.1123588E+00
         21   -1    0    0  501  502  0.00000000000E+00  0.00000000000E+00  0.43974023674E+03  0.43974023674E+03  0.00000000000E+00 0.  1.
         21   -1    0    0  502  503 -0.00000000000E+00 -0.00000000000E+00 -0.23200237997E+03  0.23200237997E+03  0.00000000000E+00 0.  1.
          6    1    1    2  501    0 -0.14414210985E+03  0.67655874885E+02 -0.12430100496E+03  0.26530926308E+03  0.17200000000E+03 0.  1.
         -6    1    1    2    0  503  0.14414210985E+03 -0.67655874885E+02  0.33203886174E+03  0.40643335363E+03  0.17200000000E+03 0.  1.
<mgrwt>
<rscale>  2 0.23438913E+03</rscale>
<asrwt>0</asrwt>
<pdfrwt beam="1">  1       21 0.10993506E+00 0.23438913E+03</pdfrwt>
<pdfrwt beam="2">  1       21 0.58000596E-01 0.23438913E+03</pdfrwt>
<totfact> 0.17573957E+03</totfact>
</mgrwt>
</event>
<event>
 4    1  0.1132373E+000  0.1818861E+03  0.7546771E-02  0.1165990E+00
         21   -1    0    0  501  502  0.00000000000E+00  0.00000000000E+00  0.49991150091E+02  0.49991150091E+02  0.00000000000E+00 0. -1.
         21   -1    0    0  502  503 -0.00000000000E+00 -0.00000000000E+00 -0.69195870328E+03  0.69195870328E+03  0.00000000000E+00 0.  1.
          6    1    1    2  501    0 -0.83071650112E+01  0.58562246257E+02 -0.39847290194E+03  0.43802191642E+03  0.17200000000E+03 0.  1.
         -6    1    1    2    0  503  0.83071650112E+01 -0.58562246257E+02 -0.24349465124E+03  0.30392793695E+03  0.17200000000E+03 0. -1.
<mgrwt>
<rscale>  2 0.18188608E+03</rscale>
<asrwt>0</asrwt>
<pdfrwt beam="1">  1       21 0.12497788E-01 0.18188608E+03</pdfrwt>
<pdfrwt beam="2">  1       21 0.17298968E+00 0.18188608E+03</pdfrwt>
<totfact> 0.11189845E+04</totfact>
</mgrwt>
</event>
<event>
 4    1  0.1132373E+000  0.2004753E+03  0.7546771E-02  0.1149339E+00
         21   -1    0    0  503  502  0.00000000000E+00  0.00000000000E+00  0.24654757711E+03  0.24654757711E+03  0.00000000000E+00 0. -1.
         21   -1    0    0  501  503 -0.00000000000E+00 -0.00000000000E+00 -0.16342917594E+03  0.16342917594E+03  0.00000000000E+00 0. -1.
          6    1    1    2  501    0  0.62145008825E+02  0.82123947555E+02  0.31209046747E+02  0.20288999355E+03  0.17200000000E+03 0. -1.
         -6    1    1    2    0  502 -0.62145008825E+02 -0.82123947555E+02  0.51909354429E+02  0.20708675950E+03  0.17200000000E+03 0. -1.
<mgrwt>
<rscale>  2 0.20047530E+03</rscale>
<asrwt>0</asrwt>
<pdfrwt beam="1">  1       21 0.61636894E-01 0.20047530E+03</pdfrwt>
<pdfrwt beam="2">  1       21 0.40857294E-01 0.20047530E+03</pdfrwt>
<totfact> 0.14039712E+04</totfact>
</mgrwt>
</event>
<event>
 4    1  0.1132373E+000  0.2007076E+03  0.7546771E-02  0.1149143E+00
         21   -1    0    0  501  502  0.00000000000E+00  0.00000000000E+00  0.11456088880E+04  0.11456088880E+04  0.00000000000E+00 0.  1.
         21   -1    0    0  502  503 -0.00000000000E+00 -0.00000000000E+00 -0.38118758543E+02  0.38118758543E+02  0.00000000000E+00 0. -1.
          6    1    1    2  501    0 -0.53511920052E+02 -0.88521240830E+02  0.38894573112E+03  0.43767832642E+03  0.17200000000E+03 0. -1.
         -6    1    1    2    0  503  0.53511920052E+02  0.88521240830E+02  0.71854439833E+03  0.74604932011E+03  0.17200000000E+03 0.  1.
<mgrwt>
<rscale>  2 0.20070759E+03</rscale>
<asrwt>0</asrwt>
<pdfrwt beam="1">  1       21 0.28640211E+00 0.20070759E+03</pdfrwt>
<pdfrwt beam="2">  1       21 0.95296934E-02 0.20070759E+03</pdfrwt>
<totfact> 0.35779310E+03</totfact>
</mgrwt>
</event>
<event>
 4    1  0.1132373E+000  0.2225934E+03  0.7546771E-02  0.1131964E+00
         21   -1    0    0  503  502  0.00000000000E+00  0.00000000000E+00  0.52628237937E+03  0.52628237937E+03  0.00000000000E+00 0. -1.
         21   -1    0    0  501  503 -0.00000000000E+00 -0.00000000000E+00 -0.94388905304E+02  0.94388905304E+02  0.00000000000E+00 0.  1.
          6    1    1    2  501    0 -0.12746384227E+03  0.60965624935E+02  0.20023186115E+03  0.29940046214E+03  0.17200000000E+03 0.  1.
         -6    1    1    2    0  502  0.12746384227E+03 -0.60965624935E+02  0.23166161291E+03  0.32127082253E+03  0.17200000000E+03 0. -1.
<mgrwt>
<rscale>  2 0.22259344E+03</rscale>
<asrwt>0</asrwt>
<pdfrwt beam="1">  1       21 0.13157059E+00 0.22259344E+03</pdfrwt>
<pdfrwt beam="2">  1       21 0.23597228E-01 0.22259344E+03</pdfrwt>
<totfact> 0.69326485E+03</totfact>
</mgrwt>
</event>
<event>
 4    1  0.1132373E+000  0.2617610E+03  0.7546771E-02  0.1106090E+00
         21   -1    0    0  503  502  0.00000000000E+00  0.00000000000E+00  0.26772295670E+03  0.26772295670E+03  0.00000000000E+00 0. -1.
         21   -1    0    0  501  503 -0.00000000000E+00 -0.00000000000E+00 -0.33004858229E+03  0.33004858229E+03  0.00000000000E+00 0.  1.
          6    1    1    2  501    0  0.17189563782E+03  0.96884963654E+02 -0.17279915706E+03  0.31365324032E+03  0.17200000000E+03 0.  1.
         -6    1    1    2    0  502 -0.17189563782E+03 -0.96884963654E+02  0.11047353147E+03  0.28411829867E+03  0.17200000000E+03 0. -1.
<mgrwt>
<rscale>  2 0.26176097E+03</rscale>
<asrwt>0</asrwt>
<pdfrwt beam="1">  1       21 0.66930739E-01 0.26176097E+03</pdfrwt>
<pdfrwt beam="2">  1       21 0.82512145E-01 0.26176097E+03</pdfrwt>
<totfact> 0.24867918E+03</totfact>
</mgrwt>
</event>
<event>
 4    1  0.1132373E+000  0.2088318E+03  0.7546771E-02  0.1142494E+00
         21   -1    0    0  503  502  0.00000000000E+00  0.00000000000E+00  0.11337554241E+04  0.11337554241E+04  0.00000000000E+00 0.  1.
         21   -1    0    0  501  503 -0.00000000000E+00 -0.00000000000E+00 -0.48682872094E+02  0.48682872094E+02  0.00000000000E+00 0.  1.
          6    1    1    2  501    0  0.44950186144E+02  0.10957285577E+03  0.27168860005E+03  0.34267393445E+03  0.17200000000E+03 0.  1.
         -6    1    1    2    0  502 -0.44950186144E+02 -0.10957285577E+03  0.81338395198E+03  0.83976436177E+03  0.17200000000E+03 0.  1.
<mgrwt>
<rscale>  2 0.20883182E+03</rscale>
<asrwt>0</asrwt>
<pdfrwt beam="1">  1       21 0.28343877E+00 0.20883182E+03</pdfrwt>
<pdfrwt beam="2">  1       21 0.12170722E-01 0.20883182E+03</pdfrwt>
<totfact> 0.23871553E+03</totfact>
</mgrwt>
</event>
<event>
 4    1  0.1132373E+000  0.1730207E+03  0.7546771E-02  0.1174734E+00
         21   -1    0    0  501  502  0.00000000000E+00  0.00000000000E+00  0.60957082653E+03  0.60957082653E+03  0.00000000000E+00 0. -1.
         21   -1    0    0  502  503 -0.00000000000E+00 -0.00000000000E+00 -0.63860193215E+02  0.63860193215E+02  0.00000000000E+00 0. -1.
          6    1    1    2  501    0  0.11446754550E+02  0.14870871488E+02  0.43467945171E+03  0.46784869002E+03  0.17200000000E+03 0. -1.
         -6    1    1    2    0  503 -0.11446754550E+02 -0.14870871488E+02  0.11103118160E+03  0.20558232973E+03  0.17200000000E+03 0. -1.
<mgrwt>
<rscale>  2 0.17302072E+03</rscale>
<asrwt>0</asrwt>
<pdfrwt beam="1">  1       21 0.15239269E+00 0.17302072E+03</pdfrwt>
<pdfrwt beam="2">  1       21 0.15965050E-01 0.17302072E+03</pdfrwt>
<totfact> 0.10191310E+04</totfact>
</mgrwt>
</event>
<event>
 4    1  0.1132373E+000  0.2183638E+03  0.7546771E-02  0.1135109E+00
         21   -1    0    0  503  502  0.00000000000E+00  0.00000000000E+00  0.30859878552E+03  0.30859878552E+03  0.00000000000E+00 0.  1.
         21   -1    0    0  501  503 -0.00000000000E+00 -0.00000000000E+00 -0.20832022744E+03  0.20832022744E+03  0.00000000000E+00 0.  1.
          6    1    1    2  501    0  0.51299073192E+01 -0.13443374318E+03 -0.81214986287E+02  0.23297772695E+03  0.17200000000E+03 0.  1.
         -6    1    1    2    0  502 -0.51299073192E+01  0.13443374318E+03  0.18149354437E+03  0.28394128601E+03  0.17200000000E+03 0.  1.
<mgrwt>
<rscale>  2 0.21836380E+03</rscale>
<asrwt>0</asrwt>
<pdfrwt beam="1">  1       21 0.77149696E-01 0.21836380E+03</pdfrwt>
<pdfrwt beam="2">  1       21 0.52080057E-01 0.21836380E+03</pdfrwt>
<totfact> 0.51220158E+03</totfact>
</mgrwt>
</event>
<event>
 4    1  0.1132373E+000  0.1725148E+03  0.7546771E-02  0.1175250E+00
         21   -1    0    0  503  502  0.00000000000E+00  0.00000000000E+00  0.12659604506E+03  0.12659604506E+03  0.00000000000E+00 0.  1.
         21   -1    0    0  501  503 -0.00000000000E+00 -0.00000000000E+00 -0.33339834970E+03  0.33339834970E+03  0.00000000000E+00 0.  1.
          6    1    1    2  501    0 -0.12279598025E+02 -0.51554134353E+01 -0.22829404475E+03  0.28614600763E+03  0.17200000000E+03 0.  1.
         -6    1    1    2    0  502  0.12279598025E+02  0.51554134353E+01  0.21491740103E+02  0.17384838713E+03  0.17200000000E+03 0.  1.
<mgrwt>
<rscale>  2 0.17251483E+03</rscale>
<asrwt>0</asrwt>
<pdfrwt beam="1">  1       21 0.31649012E-01 0.17251483E+03</pdfrwt>
<pdfrwt beam="2">  1       21 0.83349587E-01 0.17251483E+03</pdfrwt>
<totfact> 0.12194430E+04</totfact>
</mgrwt>
</event>
<event>
 4    1  0.1132373E+000  0.2311013E+03  0.7546771E-02  0.1125867E+00
         21   -1    0    0  503  502  0.00000000000E+00  0.00000000000E+00  0.10074838050E+03  0.10074838050E+03  0.00000000000E+00 0. -1.
         21   -1    0    0  501  503 -0.00000000000E+00 -0.00000000000E+00 -0.87802057591E+03  0.87802057591E+03  0.00000000000E+00 0. -1.
          6    1    1    2  501    0  0.15421992382E+03 -0.63260984152E+01 -0.69669315398E+03  0.73402258496E+03  0.17200000000E+03 0. -1.
         -6    1    1    2    0  502 -0.15421992382E+03  0.63260984152E+01 -0.80579041426E+02  0.24474637146E+03  0.17200000000E+03 0. -1.
<mgrwt>
<rscale>  2 0.23110129E+03</rscale>
<asrwt>0</asrwt>
<pdfrwt beam="1">  1       21 0.25187095E-01 0.23110129E+03</pdfrwt>
<pdfrwt beam="2">  1       21 0.21950515E+00 0.23110129E+03</pdfrwt>
<totfact> 0.14533161E+03</totfact>
</mgrwt>
</event>
<event>
 4    1  0.1132373E+000  0.1902442E+03  0.7546771E-02  0.1158241E+00
         21   -1    0    0  503  502  0.00000000000E+00  0.00000000000E+00  0.14837684694E+03  0.14837684694E+03  0.00000000000E+00 0. -1.
         21   -1    0    0  501  503 -0.00000000000E+00 -0.00000000000E+00 -0.24967605787E+03  0.24967605787E+03  0.00000000000E+00 0. -1.
          6    1    1    2  501    0 -0.51407021895E+02 -0.62977583898E+02 -0.80855184551E+02  0.20671337364E+03  0.17200000000E+03 0.  1.
         -6    1    1    2    0  502  0.51407021895E+02  0.62977583898E+02 -0.20444026382E+02  0.19133953117E+03  0.17200000000E+03 0.  1.
<mgrwt>
<rscale>  2 0.19024421E+03</rscale>
<asrwt>0</asrwt>
<pdfrwt beam="1">  1       21 0.37094212E-01 0.19024421E+03</pdfrwt>
<pdfrwt beam="2">  1       21 0.62419014E-01 0.19024421E+03</pdfrwt>
<totfact> 0.16704878E+04</totfact>
</mgrwt>
</event>
<event>
 4    1  0.1132373E+000  0.1919649E+03  0.7546771E-02  0.1156701E+00
         21   -1    0    0  501  502  0.00000000000E+00  0.00000000000E+00  0.12593632039E+03  0.12593632039E+03  0.00000000000E+00 0. -1.
         21   -1    0    0  502  503 -0.00000000000E+00 -0.00000000000E+00 -0.36995406716E+03  0.36995406716E+03  0.00000000000E+00 0. -1.
          6    1    1    2  501    0  0.83166922959E+02  0.18702360502E+02 -0.86412978708E+01  0.19215927610E+03  0.17200000000E+03 0. -1.
         -6    1    1    2    0  503 -0.83166922959E+02 -0.18702360502E+02 -0.23537644890E+03  0.30373111144E+03  0.17200000000E+03 0. -1.
<mgrwt>
<rscale>  2 0.19196488E+03</rscale>
<asrwt>0</asrwt>
<pdfrwt beam="1">  1       21 0.31484080E-01 0.19196488E+03</pdfrwt>
<pdfrwt beam="2">  1       21 0.92488516E-01 0.19196488E+03</pdfrwt>
<totfact> 0.95672586E+03</totfact>
</mgrwt>
</event>
<event>
 4    1  0.1132373E+000  0.1908528E+03  0.7546771E-02  0.1157694E+00
         21   -1    0    0  501  502  0.00000000000E+00  0.00000000000E+00  0.74072955851E+03  0.74072955851E+03  0.00000000000E+00 0. -1.
         21   -1    0    0  502  503 -0.00000000000E+00 -0.00000000000E+00 -0.63791268012E+02  0.63791268012E+02  0.00000000000E+00 0. -1.
          6    1    1    2  501    0  0.63437232125E+01 -0.82465420945E+02  0.53102499249E+03  0.56428036571E+03  0.17200000000E+03 0. -1.
         -6    1    1    2    0  503 -0.63437232125E+01  0.82465420945E+02  0.14591329801E+03  0.24024046081E+03  0.17200000000E+03 0. -1.
<mgrwt>
<rscale>  2 0.19085279E+03</rscale>
<asrwt>0</asrwt>
<pdfrwt beam="1">  1       21 0.18518236E+00 0.19085279E+03</pdfrwt>
<pdfrwt beam="2">  1       21 0.15947819E-01 0.19085279E+03</pdfrwt>
<totfact> 0.58984715E+03</totfact>
</mgrwt>
</event>
<event>
 4    1  0.1132373E+000  0.1921774E+03  0.7546771E-02  0.1156512E+00
         21   -1    0    0  501  502  0.00000000000E+00  0.00000000000E+00  0.46658810514E+03  0.46658810514E+03  0.00000000000E+00 0.  1.
         21   -1    0    0  502  503 -0.00000000000E+00 -0.00000000000E+00 -0.18100498232E+03  0.18100498232E+03  0.00000000000E+00 0.  1.
          6    1    1    2  501    0  0.29647456803E+02  0.80431323163E+02  0.38568188840E+03  0.43090914179E+03  0.17200000000E+03 0.  1.
         -6    1    1    2    0  503 -0.29647456803E+02 -0.80431323163E+02 -0.10009876558E+03  0.21668394567E+03  0.17200000000E+03 0.  1.
<mgrwt>
<rscale>  2 0.19217744E+03</rscale>
<asrwt>0</asrwt>
<pdfrwt beam="1">  1       21 0.11664702E+00 0.19217744E+03</pdfrwt>
<pdfrwt beam="2">  1       21 0.45251246E-01 0.19217744E+03</pdfrwt>
<totfact> 0.26540366E+03</totfact>
</mgrwt>
</event>
<event>
 4    1  0.1132373E+000  0.1866363E+03  0.7546771E-02  0.1161531E+00
         21   -1    0    0  503  502  0.00000000000E+00  0.00000000000E+00  0.60857396314E+03  0.60857396314E+03  0.00000000000E+00 0. -1.
         21   -1    0    0  501  503 -0.00000000000E+00 -0.00000000000E+00 -0.11728085973E+03  0.11728085973E+03  0.00000000000E+00 0. -1.
          6    1    1    2  501    0 -0.67001960581E+02 -0.27565543391E+02 -0.14034025414E+02  0.18716323296E+03  0.17200000000E+03 0. -1.
         -6    1    1    2    0  502  0.67001960581E+02  0.27565543391E+02  0.50532712883E+03  0.53869158991E+03  0.17200000000E+03 0. -1.
<mgrwt>
<rscale>  2 0.18663634E+03</rscale>
<asrwt>0</asrwt>
<pdfrwt beam="1">  1       21 0.15214348E+00 0.18663634E+03</pdfrwt>
<pdfrwt beam="2">  1       21 0.29320217E-01 0.18663634E+03</pdfrwt>
<totfact> 0.32257844E+03</totfact>
</mgrwt>
</event>
<event>
 4    1  0.1132373E+000  0.1721892E+03  0.7546771E-02  0.1175584E+00
         21   -1    0    0  503  502  0.00000000000E+00  0.00000000000E+00  0.97311357833E+02  0.97311357833E+02  0.00000000000E+00 0.  1.
         21   -1    0    0  501  503 -0.00000000000E+00 -0.00000000000E+00 -0.32516837969E+03  0.32516837969E+03  0.00000000000E+00 0.  1.
          6    1    1    2  501    0 -0.34155186718E+01 -0.73122337652E+01 -0.16694876125E+03  0.23983540900E+03  0.17200000000E+03 0.  1.
         -6    1    1    2    0  502  0.34155186718E+01  0.73122337652E+01 -0.60908260615E+02  0.18264432852E+03  0.17200000000E+03 0.  1.
<mgrwt>
<rscale>  2 0.17218924E+03</rscale>
<asrwt>0</asrwt>
<pdfrwt beam="1">  1       21 0.24327840E-01 0.17218924E+03</pdfrwt>
<pdfrwt beam="2">  1       21 0.81292094E-01 0.17218924E+03</pdfrwt>
<totfact> 0.21426484E+04</totfact>
</mgrwt>
</event>
<event>
 4    1  0.1132373E+000  0.1787045E+03  0.7546771E-02  0.1169063E+00
         21   -1    0    0  503  502  0.00000000000E+00  0.00000000000E+00  0.62404456909E+02  0.62404456909E+02  0.00000000000E+00 0.  1.
         21   -1    0    0  501  503 -0.00000000000E+00 -0.00000000000E+00 -0.63511551572E+03  0.63511551572E+03  0.00000000000E+00 0.  1.
          6    1    1    2  501    0 -0.18152414520E+02  0.44964356989E+02 -0.44006554975E+03  0.47496630579E+03  0.17200000000E+03 0.  1.
         -6    1    1    2    0  502  0.18152414520E+02 -0.44964356989E+02 -0.13264550906E+03  0.22255366685E+03  0.17200000000E+03 0.  1.
<mgrwt>
<rscale>  2 0.17870451E+03</rscale>
<asrwt>0</asrwt>
<pdfrwt beam="1">  1       21 0.15601114E-01 0.17870451E+03</pdfrwt>
<pdfrwt beam="2">  1       21 0.15877888E+00 0.17870451E+03</pdfrwt>
<totfact> 0.94865394E+03</totfact>
</mgrwt>
</event>
<event>
 4    1  0.1132373E+000  0.1975645E+03  0.7546771E-02  0.1151810E+00
         21   -1    0    0  503  502  0.00000000000E+00  0.00000000000E+00  0.15315845731E+03  0.15315845731E+03  0.00000000000E+00 0.  1.
         21   -1    0    0  501  503 -0.00000000000E+00 -0.00000000000E+00 -0.66149510031E+03  0.66149510031E+03  0.00000000000E+00 0.  1.
          6    1    1    2  501    0  0.68420107577E+02  0.69039307580E+02 -0.57353517869E+03  0.60660888413E+03  0.17200000000E+03 0.  1.
         -6    1    1    2    0  502 -0.68420107577E+02 -0.69039307580E+02  0.65198535682E+02  0.20804467349E+03  0.17200000000E+03 0.  1.
<mgrwt>
<rscale>  2 0.19756451E+03</rscale>
<asrwt>0</asrwt>
<pdfrwt beam="1">  1       21 0.38289615E-01 0.19756451E+03</pdfrwt>
<pdfrwt beam="2">  1       21 0.16537377E+00 0.19756451E+03</pdfrwt>
<totfact> 0.15061965E+03</totfact>
</mgrwt>
</event>
<event>
 4    1  0.1132373E+000  0.2793503E+03  0.7546771E-02  0.1096044E+00
         21   -1    0    0  503  502  0.00000000000E+00  0.00000000000E+00  0.26362015055E+03  0.26362015055E+03  0.00000000000E+00 0.  1.
         21   -1    0    0  501  503 -0.00000000000E+00 -0.00000000000E+00 -0.29629355902E+03  0.29629355902E+03  0.00000000000E+00 0.  1.
          6    1    1    2  501    0  0.10687492844E+03  0.19243273733E+03 -0.78166630131E+01  0.27945967320E+03  0.17200000000E+03 0.  1.
         -6    1    1    2    0  502 -0.10687492844E+03 -0.19243273733E+03 -0.24856745453E+02  0.28045403638E+03  0.17200000000E+03 0.  1.
<mgrwt>
<rscale>  2 0.27935033E+03</rscale>
<asrwt>0</asrwt>
<pdfrwt beam="1">  1       21 0.65905038E-01 0.27935033E+03</pdfrwt>
<pdfrwt beam="2">  1       21 0.74073389E-01 0.27935033E+03</pdfrwt>
<totfact> 0.32512684E+03</totfact>
</mgrwt>
</event>
<event>
 4    1  0.1132373E+000  0.2024315E+03  0.7546771E-02  0.1147704E+00
         21   -1    0    0  501  502  0.00000000000E+00  0.00000000000E+00  0.12885160746E+03  0.12885160746E+03  0.00000000000E+00 0.  1.
         21   -1    0    0  502  503 -0.00000000000E+00 -0.00000000000E+00 -0.33020251729E+03  0.33020251729E+03  0.00000000000E+00 0. -1.
          6    1    1    2  501    0  0.17428445675E+02 -0.10531263661E+03 -0.14474697966E+03  0.24885777117E+03  0.17200000000E+03 0. -1.
         -6    1    1    2    0  503 -0.17428445675E+02  0.10531263661E+03 -0.56603930171E+02  0.21019635358E+03  0.17200000000E+03 0.  1.
<mgrwt>
<rscale>  2 0.20243148E+03</rscale>
<asrwt>0</asrwt>
<pdfrwt beam="1">  1       21 0.32212902E-01 0.20243148E+03</pdfrwt>
<pdfrwt beam="2">  1       21 0.82550629E-01 0.20243148E+03</pdfrwt>
<totfact> 0.11796691E+04</totfact>
</mgrwt>
</event>
<event>
 4    1  0.1132373E+000  0.1958929E+03  0.7546771E-02  0.1153251E+00
         21   -1    0    0  503  502  0.00000000000E+00  0.00000000000E+00  0.40347486714E+03  0.40347486714E+03  0.00000000000E+00 0. -1.
         21   -1    0    0  501  503 -0.00000000000E+00 -0.00000000000E+00 -0.12102891675E+03  0.12102891675E+03  0.00000000000E+00 0.  1.
          6    1    1    2  501    0 -0.85691526095E+02 -0.38039219649E+02  0.19858288882E+02  0.19689685501E+03  0.17200000000E+03 0.  1.
         -6    1    1    2    0  502  0.85691526095E+02  0.38039219649E+02  0.26258766150E+03  0.32760692888E+03  0.17200000000E+03 0.  1.
<mgrwt>
<rscale>  2 0.19589288E+03</rscale>
<asrwt>0</asrwt>
<pdfrwt beam="1">  1       21 0.10086871E+00 0.19589288E+03</pdfrwt>
<pdfrwt beam="2">  1       21 0.30257230E-01 0.19589288E+03</pdfrwt>
<totfact> 0.84089535E+03</totfact>
</mgrwt>
</event>
<event>
 4    1  0.1132373E+000  0.1752820E+03  0.7546771E-02  0.1172449E+00
         21   -1    0    0  501  502  0.00000000000E+00  0.00000000000E+00  0.42262899620E+03  0.42262899620E+03  0.00000000000E+00 0.  1.
         21   -1    0    0  502  503 -0.00000000000E+00 -0.00000000000E+00 -0.18587740864E+03  0.18587740864E+03  0.00000000000E+00 0.  1.
          6    1    1    2  501    0  0.30561249399E+02 -0.14345457657E+02  0.35579061995E+03  0.39662418908E+03  0.17200000000E+03 0.  1.
         -6    1    1    2    0  503 -0.30561249399E+02  0.14345457657E+02 -0.11903903240E+03  0.21188221576E+03  0.17200000000E+03 0.  1.
<mgrwt>
<rscale>  2 0.17528201E+03</rscale>
<asrwt>0</asrwt>
<pdfrwt beam="1">  1       21 0.10565725E+00 0.17528201E+03</pdfrwt>
<pdfrwt beam="2">  1       21 0.46469353E-01 0.17528201E+03</pdfrwt>
<totfact> 0.32415237E+03</totfact>
</mgrwt>
</event>
<event>
 4    1  0.1132373E+000  0.2104812E+03  0.7546771E-02  0.1141186E+00
         21   -1    0    0  503  502  0.00000000000E+00  0.00000000000E+00  0.78576890142E+03  0.78576890142E+03  0.00000000000E+00 0. -1.
         21   -1    0    0  501  503 -0.00000000000E+00 -0.00000000000E+00 -0.93538399409E+02  0.93538399409E+02  0.00000000000E+00 0. -1.
          6    1    1    2  501    0 -0.11599252855E+03  0.35553534184E+02  0.69013522946E+02  0.22150662930E+03  0.17200000000E+03 0. -1.
         -6    1    1    2    0  502  0.11599252855E+03 -0.35553534184E+02  0.62321697906E+03  0.65780067153E+03  0.17200000000E+03 0. -1.
<mgrwt>
<rscale>  2 0.21048116E+03</rscale>
<asrwt>0</asrwt>
<pdfrwt beam="1">  1       21 0.19644221E+00 0.21048116E+03</pdfrwt>
<pdfrwt beam="2">  1       21 0.23384602E-01 0.21048116E+03</pdfrwt>
<totfact> 0.23923177E+03</totfact>
</mgrwt>
</event>
<event>
 4    1  0.1132373E+000  0.2004628E+03  0.7546771E-02  0.1149349E+00
         21   -1    0    0  503  502  0.00000000000E+00  0.00000000000E+00  0.34757839218E+03  0.34757839218E+03  0.00000000000E+00 0.  1.
         21   -1    0    0  501  503 -0.00000000000E+00 -0.00000000000E+00 -0.17246180627E+03  0.17246180627E+03  0.00000000000E+00 0. -1.
          6    1    1    2  501    0 -0.92008029291E+02 -0.46215176807E+02 -0.61725617872E+02  0.20975073760E+03  0.17200000000E+03 0. -1.
         -6    1    1    2    0  502  0.92008029291E+02  0.46215176807E+02  0.23684220378E+03  0.31028946085E+03  0.17200000000E+03 0.  1.
<mgrwt>
<rscale>  2 0.20046276E+03</rscale>
<asrwt>0</asrwt>
<pdfrwt beam="1">  1       21 0.86894597E-01 0.20046276E+03</pdfrwt>
<pdfrwt beam="2">  1       21 0.43115452E-01 0.20046276E+03</pdfrwt>
<totfact> 0.58573269E+03</totfact>
</mgrwt>
</event>
<event>
 4    1  0.1132373E+000  0.2889527E+03  0.7546771E-02  0.1090897E+00
         21   -1    0    0  501  502  0.00000000000E+00  0.00000000000E+00  0.92732693553E+03  0.92732693553E+03  0.00000000000E+00 0. -1.
         21   -1    0    0  502  503 -0.00000000000E+00 -0.00000000000E+00 -0.10494749093E+03  0.10494749093E+03  0.00000000000E+00 0. -1.
          6    1    1    2  501    0 -0.15511807611E+03  0.17276588796E+03  0.60573744260E+03  0.67112705127E+03  0.17200000000E+03 0. -1.
         -6    1    1    2    0  503  0.15511807611E+03 -0.17276588796E+03  0.21664200200E+03  0.36114737520E+03  0.17200000000E+03 0. -1.
<mgrwt>
<rscale>  2 0.28895271E+03</rscale>
<asrwt>0</asrwt>
<pdfrwt beam="1">  1       21 0.23183171E+00 0.28895271E+03</pdfrwt>
<pdfrwt beam="2">  1       21 0.26236876E-01 0.28895271E+03</pdfrwt>
<totfact> 0.10728777E+03</totfact>
</mgrwt>
</event>
<event>
 4    1  0.1132373E+000  0.2355941E+03  0.7546771E-02  0.1122763E+00
         21   -1    0    0  503  502  0.00000000000E+00  0.00000000000E+00  0.21787807752E+03  0.21787807752E+03  0.00000000000E+00 0.  1.
         21   -1    0    0  501  503 -0.00000000000E+00 -0.00000000000E+00 -0.30278245441E+03  0.30278245441E+03  0.00000000000E+00 0.  1.
          6    1    1    2  501    0  0.15844284188E+03 -0.28573242452E+02 -0.14613914438E+03  0.27723855044E+03  0.17200000000E+03 0.  1.
         -6    1    1    2    0  502 -0.15844284188E+03  0.28573242452E+02  0.61234767487E+02  0.24342198150E+03  0.17200000000E+03 0.  1.
<mgrwt>
<rscale>  2 0.23559407E+03</rscale>
<asrwt>0</asrwt>
<pdfrwt beam="1">  1       21 0.54469520E-01 0.23559407E+03</pdfrwt>
<pdfrwt beam="2">  1       21 0.75695613E-01 0.23559407E+03</pdfrwt>
<totfact> 0.48049824E+03</totfact>
</mgrwt>
</event>
<event>
 4    1  0.1132373E+000  0.2063234E+03  0.7546771E-02  0.1144511E+00
         21   -1    0    0  503  502  0.00000000000E+00  0.00000000000E+00  0.15484925161E+03  0.15484925161E+03  0.00000000000E+00 0. -1.
         21   -1    0    0  501  503 -0.00000000000E+00 -0.00000000000E+00 -0.32333191209E+03  0.32333191209E+03  0.00000000000E+00 0.  1.
          6    1    1    2  501    0  0.73711189347E+02 -0.86902241495E+02 -0.17676800060E+03  0.27169148873E+03  0.17200000000E+03 0. -1.
         -6    1    1    2    0  502 -0.73711189347E+02  0.86902241495E+02  0.82853401163E+01  0.20648967498E+03  0.17200000000E+03 0. -1.
<mgrwt>
<rscale>  2 0.20632338E+03</rscale>
<asrwt>0</asrwt>
<pdfrwt beam="1">  1       21 0.38712313E-01 0.20632338E+03</pdfrwt>
<pdfrwt beam="2">  1       21 0.80832977E-01 0.20632338E+03</pdfrwt>
<totfact> 0.85608188E+03</totfact>
</mgrwt>
</event>
<event>
 4    1  0.1132373E+000  0.1998174E+03  0.7546771E-02  0.1149893E+00
         21   -1    0    0  501  502  0.00000000000E+00  0.00000000000E+00  0.76700274758E+03  0.76700274758E+03  0.00000000000E+00 0.  1.
         21   -1    0    0  502  503 -0.00000000000E+00 -0.00000000000E+00 -0.68050573313E+02  0.68050573313E+02  0.00000000000E+00 0.  1.
          6    1    1    2  501    0  0.24560255138E+02  0.98690421497E+02  0.55189739803E+03  0.58695633856E+03  0.17200000000E+03 0.  1.
         -6    1    1    2    0  503 -0.24560255138E+02 -0.98690421497E+02  0.14705477624E+03  0.24809698233E+03  0.17200000000E+03 0.  1.
<mgrwt>
<rscale>  2 0.19981743E+03</rscale>
<asrwt>0</asrwt>
<pdfrwt beam="1">  1       21 0.19175066E+00 0.19981743E+03</pdfrwt>
<pdfrwt beam="2">  1       21 0.17012646E-01 0.19981743E+03</pdfrwt>
<totfact> 0.47012466E+03</totfact>
</mgrwt>
</event>
<event>
 4    1  0.1132373E+000  0.2081988E+03  0.7546771E-02  0.1143000E+00
         21   -1    0    0  503  502  0.00000000000E+00  0.00000000000E+00  0.11476759928E+04  0.11476759928E+04  0.00000000000E+00 0.  1.
         21   -1    0    0  501  503 -0.00000000000E+00 -0.00000000000E+00 -0.48439101550E+02  0.48439101550E+02  0.00000000000E+00 0.  1.
          6    1    1    2  501    0  0.88685588338E+02  0.76795894881E+02  0.26892890837E+03  0.34010219171E+03  0.17200000000E+03 0.  1.
         -6    1    1    2    0  502 -0.88685588338E+02 -0.76795894881E+02  0.83030798284E+03  0.85601290260E+03  0.17200000000E+03 0.  1.
<mgrwt>
<rscale>  2 0.20819881E+03</rscale>
<asrwt>0</asrwt>
<pdfrwt beam="1">  1       21 0.28691891E+00 0.20819881E+03</pdfrwt>
<pdfrwt beam="2">  1       21 0.12109779E-01 0.20819881E+03</pdfrwt>
<totfact> 0.23012355E+03</totfact>
</mgrwt>
</event>
<event>
 4    1  0.1132373E+000  0.1739257E+03  0.7546771E-02  0.1173815E+00
         21   -1    0    0  501  502  0.00000000000E+00  0.00000000000E+00  0.61534115198E+03  0.61534115198E+03  0.00000000000E+00 0. -1.
         21   -1    0    0  502  503 -0.00000000000E+00 -0.00000000000E+00 -0.58389862279E+02  0.58389862279E+02  0.00000000000E+00 0. -1.
          6    1    1    2  501    0 -0.13993964763E+02  0.21686506989E+02  0.41240839375E+03  0.44758330942E+03  0.17200000000E+03 0. -1.
         -6    1    1    2    0  503  0.13993964763E+02 -0.21686506989E+02  0.14454289595E+03  0.22614770484E+03  0.17200000000E+03 0. -1.
<mgrwt>
<rscale>  2 0.17392566E+03</rscale>
<asrwt>0</asrwt>
<pdfrwt beam="1">  1       21 0.15383527E+00 0.17392566E+03</pdfrwt>
<pdfrwt beam="2">  1       21 0.14597467E-01 0.17392566E+03</pdfrwt>
<totfact> 0.11691399E+04</totfact>
</mgrwt>
</event>
<event>
 4    1  0.1132373E+000  0.2431170E+03  0.7546771E-02  0.1117734E+00
         21   -1    0    0  503  502  0.00000000000E+00  0.00000000000E+00  0.11806385217E+03  0.11806385217E+03  0.00000000000E+00 0. -1.
         21   -1    0    0  501  503 -0.00000000000E+00 -0.00000000000E+00 -0.94608242908E+03  0.94608242908E+03  0.00000000000E+00 0. -1.
          6    1    1    2  501    0 -0.62040593596E+02  0.16022751659E+03 -0.77910709413E+03  0.81615792372E+03  0.17200000000E+03 0. -1.
         -6    1    1    2    0  502  0.62040593596E+02 -0.16022751659E+03 -0.48911482780E+02  0.24798835754E+03  0.17200000000E+03 0. -1.
<mgrwt>
<rscale>  2 0.24311703E+03</rscale>
<asrwt>0</asrwt>
<pdfrwt beam="1">  1       21 0.29515964E-01 0.24311703E+03</pdfrwt>
<pdfrwt beam="2">  1       21 0.23652060E+00 0.24311703E+03</pdfrwt>
<totfact> 0.83138321E+02</totfact>
</mgrwt>
</event>
<event>
 4    1  0.1132373E+000  0.1794984E+03  0.7546771E-02  0.1168289E+00
         21   -1    0    0  503  502  0.00000000000E+00  0.00000000000E+00  0.12735152969E+04  0.12735152969E+04  0.00000000000E+00 0.  1.
         21   -1    0    0  501  503 -0.00000000000E+00 -0.00000000000E+00 -0.43633176348E+02  0.43633176348E+02  0.00000000000E+00 0.  1.
          6    1    1    2  501    0 -0.29952242147E+02  0.41695579674E+02  0.18804929849E+03  0.25996576089E+03  0.17200000000E+03 0.  1.
         -6    1    1    2    0  502  0.29952242147E+02 -0.41695579674E+02  0.10418328220E+04  0.10571827123E+04  0.17200000000E+03 0.  1.
<mgrwt>
<rscale>  2 0.17949835E+03</rscale>
<asrwt>0</asrwt>
<pdfrwt beam="1">  1       21 0.31837870E+00 0.17949835E+03</pdfrwt>
<pdfrwt beam="2">  1       21 0.10908298E-01 0.17949835E+03</pdfrwt>
<totfact> 0.18941634E+03</totfact>
</mgrwt>
</event>
<event>
 4    1  0.1132373E+000  0.1848129E+03  0.7546771E-02  0.1163225E+00
         21   -1    0    0  503  502  0.00000000000E+00  0.00000000000E+00  0.93479476910E+03  0.93479476910E+03  0.00000000000E+00 0.  1.
         21   -1    0    0  501  503 -0.00000000000E+00 -0.00000000000E+00 -0.44496068140E+02  0.44496068140E+02  0.00000000000E+00 0.  1.
          6    1    1    2  501    0 -0.16095982808E+01  0.67596014633E+02  0.23807967195E+03  0.30139300290E+03  0.17200000000E+03 0.  1.
         -6    1    1    2    0  502  0.16095982808E+01 -0.67596014633E+02  0.65221902900E+03  0.67789783433E+03  0.17200000000E+03 0.  1.
<mgrwt>
<rscale>  2 0.18481291E+03</rscale>
<asrwt>0</asrwt>
<pdfrwt beam="1">  1       21 0.23369863E+00 0.18481291E+03</pdfrwt>
<pdfrwt beam="2">  1       21 0.11124020E-01 0.18481291E+03</pdfrwt>
<totfact> 0.56256577E+03</totfact>
</mgrwt>
</event>
<event>
 4    1  0.1132373E+000  0.1908696E+03  0.7546771E-02  0.1157679E+00
         21   -1    0    0  503  502  0.00000000000E+00  0.00000000000E+00  0.80967912523E+03  0.80967912523E+03  0.00000000000E+00 0. -1.
         21   -1    0    0  501  503 -0.00000000000E+00 -0.00000000000E+00 -0.79997410552E+02  0.79997410552E+02  0.00000000000E+00 0. -1.
          6    1    1    2  501    0  0.67347146434E+02 -0.48078694134E+02  0.70591479098E+02  0.20350517410E+03  0.17200000000E+03 0. -1.
         -6    1    1    2    0  502 -0.67347146434E+02  0.48078694134E+02  0.65909023558E+03  0.68617136169E+03  0.17200000000E+03 0. -1.
<mgrwt>
<rscale>  2 0.19086959E+03</rscale>
<asrwt>0</asrwt>
<pdfrwt beam="1">  1       21 0.20241976E+00 0.19086959E+03</pdfrwt>
<pdfrwt beam="2">  1       21 0.19999355E-01 0.19086959E+03</pdfrwt>
<totfact> 0.29963805E+03</totfact>
</mgrwt>
</event>
<event>
 4    1  0.1132373E+000  0.2560772E+03  0.7546771E-02  0.1109523E+00
         21   -1    0    0  503  502  0.00000000000E+00  0.00000000000E+00  0.46908621563E+03  0.46908621563E+03  0.00000000000E+00 0. -1.
         21   -1    0    0  501  503 -0.00000000000E+00 -0.00000000000E+00 -0.16021404330E+03  0.16021404330E+03  0.00000000000E+00 0.  1.
          6    1    1    2  501    0  0.17908116249E+03 -0.62621478405E+02  0.42103882520E+02  0.25951541234E+03  0.17200000000E+03 0.  1.
         -6    1    1    2    0  502 -0.17908116249E+03  0.62621478405E+02  0.26676828982E+03  0.36978484659E+03  0.17200000000E+03 0.  1.
<mgrwt>
<rscale>  2 0.25607716E+03</rscale>
<asrwt>0</asrwt>
<pdfrwt beam="1">  1       21 0.11727155E+00 0.25607716E+03</pdfrwt>
<pdfrwt beam="2">  1       21 0.40053512E-01 0.25607716E+03</pdfrwt>
<totfact> 0.31988786E+03</totfact>
</mgrwt>
</event>
<event>
 4    1  0.1132373E+000  0.4021870E+03  0.7546771E-02  0.1043025E+00
         21   -1    0    0  503  502  0.00000000000E+00  0.00000000000E+00  0.49749967445E+03  0.49749967445E+03  0.00000000000E+00 0. -1.
         21   -1    0    0  501  503 -0.00000000000E+00 -0.00000000000E+00 -0.53941094185E+03  0.53941094185E+03  0.00000000000E+00 0.  1.
          6    1    1    2  501    0  0.11856144430E+03 -0.34367651909E+03 -0.34772289968E+03  0.53166303315E+03  0.17200000000E+03 0.  1.
         -6    1    1    2    0  502 -0.11856144430E+03  0.34367651909E+03  0.30581163227E+03  0.50524758315E+03  0.17200000000E+03 0. -1.
<mgrwt>
<rscale>  2 0.40218698E+03</rscale>
<asrwt>0</asrwt>
<pdfrwt beam="1">  1       21 0.12437492E+00 0.40218698E+03</pdfrwt>
<pdfrwt beam="2">  1       21 0.13485274E+00 0.40218698E+03</pdfrwt>
<totfact> 0.15867934E+02</totfact>
</mgrwt>
</event>
<event>
 4    1  0.1132373E+000  0.1869338E+03  0.7546771E-02  0.1161256E+00
         21   -1    0    0  501  502  0.00000000000E+00  0.00000000000E+00  0.44938734596E+03  0.44938734596E+03  0.00000000000E+00 0.  1.
         21   -1    0    0  502  503 -0.00000000000E+00 -0.00000000000E+00 -0.81213175717E+02  0.81213175717E+02  0.00000000000E+00 0. -1.
          6    1    1    2  501    0 -0.17677311958E+02  0.71047596956E+02  0.23879490263E+03  0.30326103263E+03  0.17200000000E+03 0.  1.
         -6    1    1    2    0  503  0.17677311958E+02 -0.71047596956E+02  0.12937926761E+03  0.22733948905E+03  0.17200000000E+03 0. -1.
<mgrwt>
<rscale>  2 0.18693381E+03</rscale>
<asrwt>0</asrwt>
<pdfrwt beam="1">  1       21 0.11234683E+00 0.18693381E+03</pdfrwt>
<pdfrwt beam="2">  1       21 0.20303295E-01 0.18693381E+03</pdfrwt>
<totfact> 0.13979757E+04</totfact>
</mgrwt>
</event>
<event>
 4    1  0.1132373E+000  0.2303069E+03  0.7546771E-02  0.1126424E+00
         21   -1    0    0  501  502  0.00000000000E+00  0.00000000000E+00  0.11464347697E+03  0.11464347697E+03  0.00000000000E+00 0. -1.
         21   -1    0    0  502  503 -0.00000000000E+00 -0.00000000000E+00 -0.46335197356E+03  0.46335197356E+03  0.00000000000E+00 0. -1.
          6    1    1    2  501    0 -0.38837644367E+02 -0.14815160486E+03 -0.16320784914E+03  0.28227302858E+03  0.17200000000E+03 0. -1.
         -6    1    1    2    0  503  0.38837644367E+02  0.14815160486E+03 -0.18550064745E+03  0.29572242195E+03  0.17200000000E+03 0. -1.
<mgrwt>
<rscale>  2 0.23030688E+03</rscale>
<asrwt>0</asrwt>
<pdfrwt beam="1">  1       21 0.28660870E-01 0.23030688E+03</pdfrwt>
<pdfrwt beam="2">  1       21 0.11583799E+00 0.23030688E+03</pdfrwt>
<totfact> 0.65259725E+03</totfact>
</mgrwt>
</event>
<event>
 4    1  0.1132373E+000  0.1890320E+03  0.7546771E-02  0.1159337E+00
         21   -1    0    0  501  502  0.00000000000E+00  0.00000000000E+00  0.28171154471E+03  0.28171154471E+03  0.00000000000E+00 0. -1.
         21   -1    0    0  502  503 -0.00000000000E+00 -0.00000000000E+00 -0.12763396394E+03  0.12763396394E+03  0.00000000000E+00 0. -1.
          6    1    1    2  501    0  0.31732032502E+02  0.71709068525E+02  0.93151911731E+02  0.21073773050E+03  0.17200000000E+03 0. -1.
         -6    1    1    2    0  503 -0.31732032502E+02 -0.71709068525E+02  0.60925669041E+02  0.19860777815E+03  0.17200000000E+03 0. -1.
<mgrwt>
<rscale>  2 0.18903204E+03</rscale>
<asrwt>0</asrwt>
<pdfrwt beam="1">  1       21 0.70427885E-01 0.18903204E+03</pdfrwt>
<pdfrwt beam="2">  1       21 0.31908491E-01 0.18903204E+03</pdfrwt>
<totfact> 0.17306205E+04</totfact>
</mgrwt>
</event>
<event>
 4    1  0.1132373E+000  0.2575695E+03  0.7546771E-02  0.1108612E+00
         21   -1    0    0  501  502  0.00000000000E+00  0.00000000000E+00  0.52329537722E+03  0.52329537722E+03  0.00000000000E+00 0. -1.
         21   -1    0    0  502  503 -0.00000000000E+00 -0.00000000000E+00 -0.66743789491E+03  0.66743789491E+03  0.00000000000E+00 0.  1.
          6    1    1    2  501    0  0.97026048798E+02  0.16536012670E+03  0.46377645620E+03  0.53050035530E+03  0.17200000000E+03 0. -1.
         -6    1    1    2    0  503 -0.97026048798E+02 -0.16536012670E+03 -0.60791897389E+03  0.66023291683E+03  0.17200000000E+03 0.  1.
<mgrwt>
<rscale>  2 0.25756946E+03</rscale>
<asrwt>0</asrwt>
<pdfrwt beam="1">  1       21 0.13082385E+00 0.25756946E+03</pdfrwt>
<pdfrwt beam="2">  1       21 0.16685947E+00 0.25756946E+03</pdfrwt>
<totfact> 0.88164653E+01</totfact>
</mgrwt>
</event>
<event>
 4    1  0.1132373E+000  0.2315771E+03  0.7546771E-02  0.1125535E+00
         21   -1    0    0  501  502  0.00000000000E+00  0.00000000000E+00  0.13480234946E+03  0.13480234946E+03  0.00000000000E+00 0. -1.
         21   -1    0    0  502  503 -0.00000000000E+00 -0.00000000000E+00 -0.53182638456E+03  0.53182638456E+03  0.00000000000E+00 0. -1.
          6    1    1    2  501    0 -0.46803059844E+02 -0.14782899190E+03 -0.31202201496E+02  0.23366966991E+03  0.17200000000E+03 0. -1.
         -6    1    1    2    0  503  0.46803059844E+02  0.14782899190E+03 -0.36582183360E+03  0.43295906411E+03  0.17200000000E+03 0. -1.
<mgrwt>
<rscale>  2 0.23157707E+03</rscale>
<asrwt>0</asrwt>
<pdfrwt beam="1">  1       21 0.33700588E-01 0.23157707E+03</pdfrwt>
<pdfrwt beam="2">  1       21 0.13295659E+00 0.23157707E+03</pdfrwt>
<totfact> 0.33549867E+03</totfact>
</mgrwt>
</event>
<event>
 4    1  0.1132373E+000  0.1839119E+03  0.7546771E-02  0.1164070E+00
         21   -1    0    0  501  502  0.00000000000E+00  0.00000000000E+00  0.33087988045E+03  0.33087988045E+03  0.00000000000E+00 0. -1.
         21   -1    0    0  502  503 -0.00000000000E+00 -0.00000000000E+00 -0.14832844535E+03  0.14832844535E+03  0.00000000000E+00 0. -1.
          6    1    1    2  501    0 -0.64848869563E+02 -0.58484426337E+01  0.22486068552E+03  0.29049252668E+03  0.17200000000E+03 0. -1.
         -6    1    1    2    0  503  0.64848869563E+02  0.58484426337E+01 -0.42309250421E+02  0.18871579912E+03  0.17200000000E+03 0. -1.
<mgrwt>
<rscale>  2 0.18391188E+03</rscale>
<asrwt>0</asrwt>
<pdfrwt beam="1">  1       21 0.82719969E-01 0.18391188E+03</pdfrwt>
<pdfrwt beam="2">  1       21 0.37082112E-01 0.18391188E+03</pdfrwt>
<totfact> 0.89977391E+03</totfact>
</mgrwt>
</event>
<event>
 4    1  0.1132373E+000  0.1734653E+03  0.7546771E-02  0.1174281E+00
         21   -1    0    0  503  502  0.00000000000E+00  0.00000000000E+00  0.13154341488E+03  0.13154341488E+03  0.00000000000E+00 0. -1.
         21   -1    0    0  501  503 -0.00000000000E+00 -0.00000000000E+00 -0.26618011194E+03  0.26618011194E+03  0.00000000000E+00 0. -1.
          6    1    1    2  501    0 -0.10509205329E+02  0.19894248173E+02 -0.14189256061E+03  0.22410649982E+03  0.17200000000E+03 0.  1.
         -6    1    1    2    0  502  0.10509205329E+02 -0.19894248173E+02  0.72558635433E+01  0.17361702700E+03  0.17200000000E+03 0.  1.
<mgrwt>
<rscale>  2 0.17346534E+03</rscale>
<asrwt>0</asrwt>
<pdfrwt beam="1">  1       21 0.32885854E-01 0.17346534E+03</pdfrwt>
<pdfrwt beam="2">  1       21 0.66545027E-01 0.17346534E+03</pdfrwt>
<totfact> 0.18651201E+04</totfact>
</mgrwt>
</event>
<event>
 4    1  0.1132373E+000  0.2047509E+03  0.7546771E-02  0.1145791E+00
         21   -1    0    0  503  502  0.00000000000E+00  0.00000000000E+00  0.85354734571E+03  0.85354734571E+03  0.00000000000E+00 0. -1.
         21   -1    0    0  501  503 -0.00000000000E+00 -0.00000000000E+00 -0.55383537088E+02  0.55383537088E+02  0.00000000000E+00 0. -1.
          6    1    1    2  501    0 -0.10689292556E+03  0.30213153868E+02  0.55196338689E+03  0.58871598642E+03  0.17200000000E+03 0. -1.
         -6    1    1    2    0  502  0.10689292556E+03 -0.30213153868E+02  0.24620042173E+03  0.32021489637E+03  0.17200000000E+03 0. -1.
<mgrwt>
<rscale>  2 0.20475090E+03</rscale>
<asrwt>0</asrwt>
<pdfrwt beam="1">  1       21 0.21338679E+00 0.20475090E+03</pdfrwt>
<pdfrwt beam="2">  1       21 0.13845887E-01 0.20475090E+03</pdfrwt>
<totfact> 0.49570503E+03</totfact>
</mgrwt>
</event>
<event>
 4    1  0.1132373E+000  0.1960383E+03  0.7546771E-02  0.1153125E+00
         21   -1    0    0  501  502  0.00000000000E+00  0.00000000000E+00  0.12157792034E+03  0.12157792034E+03  0.00000000000E+00 0. -1.
         21   -1    0    0  502  503 -0.00000000000E+00 -0.00000000000E+00 -0.34322476337E+03  0.34322476337E+03  0.00000000000E+00 0. -1.
          6    1    1    2  501    0 -0.24849890786E+02  0.90716530859E+02 -0.45492699277E+02  0.20124758814E+03  0.17200000000E+03 0. -1.
         -6    1    1    2    0  503  0.24849890786E+02 -0.90716530859E+02 -0.17615414375E+03  0.26355509558E+03  0.17200000000E+03 0. -1.
<mgrwt>
<rscale>  2 0.19603828E+03</rscale>
<asrwt>0</asrwt>
<pdfrwt beam="1">  1       21 0.30394480E-01 0.19603828E+03</pdfrwt>
<pdfrwt beam="2">  1       21 0.85806190E-01 0.19603828E+03</pdfrwt>
<totfact> 0.12153913E+04</totfact>
</mgrwt>
</event>
<event>
 4    1  0.1132373E+000  0.2494881E+03  0.7546771E-02  0.1113629E+00
         21   -1    0    0  503  502  0.00000000000E+00  0.00000000000E+00  0.12000906010E+04  0.12000906010E+04  0.00000000000E+00 0.  1.
         21   -1    0    0  501  503 -0.00000000000E+00 -0.00000000000E+00 -0.12062935407E+03  0.12062935407E+03  0.00000000000E+00 0.  1.
          6    1    1    2  501    0  0.16127843777E+03  0.81544799397E+02  0.41154193463E+02  0.25285955873E+03  0.17200000000E+03 0.  1.
         -6    1    1    2    0  502 -0.16127843777E+03 -0.81544799397E+02  0.10383070534E+04  0.10678603963E+04  0.17200000000E+03 0.  1.
<mgrwt>
<rscale>  2 0.24948805E+03</rscale>
<asrwt>0</asrwt>
<pdfrwt beam="1">  1       21 0.30002261E+00 0.24948805E+03</pdfrwt>
<pdfrwt beam="2">  1       21 0.30157342E-01 0.24948805E+03</pdfrwt>
<totfact> 0.33419254E+02</totfact>
</mgrwt>
</event>
<event>
 4    1  0.1132373E+000  0.1819230E+03  0.7546771E-02  0.1165955E+00
         21   -1    0    0  501  502  0.00000000000E+00  0.00000000000E+00  0.56311664355E+03  0.56311664355E+03  0.00000000000E+00 0.  1.
         21   -1    0    0  502  503 -0.00000000000E+00 -0.00000000000E+00 -0.80897094242E+02  0.80897094242E+02  0.00000000000E+00 0.  1.
          6    1    1    2  501    0 -0.49163557654E+02 -0.33089448508E+02  0.40950623152E+03  0.44809744550E+03  0.17200000000E+03 0.  1.
         -6    1    1    2    0  503  0.49163557654E+02  0.33089448508E+02  0.72713317786E+02  0.19591629230E+03  0.17200000000E+03 0.  1.
<mgrwt>
<rscale>  2 0.18192297E+03</rscale>
<asrwt>0</asrwt>
<pdfrwt beam="1">  1       21 0.14077915E+00 0.18192297E+03</pdfrwt>
<pdfrwt beam="2">  1       21 0.20224275E-01 0.18192297E+03</pdfrwt>
<totfact> 0.80412226E+03</totfact>
</mgrwt>
</event>
<event>
 4    1  0.1132373E+000  0.2261436E+03  0.7546771E-02  0.1129384E+00
         21   -1    0    0  503  502  0.00000000000E+00  0.00000000000E+00  0.36640150515E+03  0.36640150515E+03  0.00000000000E+00 0.  1.
         21   -1    0    0  501  503 -0.00000000000E+00 -0.00000000000E+00 -0.15617294599E+03  0.15617294599E+03  0.00000000000E+00 0.  1.
          6    1    1    2  501    0 -0.13868686556E+03  0.48196408198E+02  0.19936489479E+02  0.22702071283E+03  0.17200000000E+03 0.  1.
         -6    1    1    2    0  502  0.13868686556E+03 -0.48196408198E+02  0.19029206968E+03  0.29555373830E+03  0.17200000000E+03 0.  1.
<mgrwt>
<rscale>  2 0.22614363E+03</rscale>
<asrwt>0</asrwt>
<pdfrwt beam="1">  1       21 0.91600375E-01 0.22614363E+03</pdfrwt>
<pdfrwt beam="2">  1       21 0.39043237E-01 0.22614363E+03</pdfrwt>
<totfact> 0.62260343E+03</totfact>
</mgrwt>
</event>
<event>
 4    1  0.1132373E+000  0.2458094E+03  0.7546771E-02  0.1115982E+00
         21   -1    0    0  501  502  0.00000000000E+00  0.00000000000E+00  0.11209128803E+03  0.11209128803E+03  0.00000000000E+00 0.  1.
         21   -1    0    0  502  503 -0.00000000000E+00 -0.00000000000E+00 -0.69083218428E+03  0.69083218428E+03  0.00000000000E+00 0.  1.
          6    1    1    2  501    0  0.10478719866E+03 -0.14091813066E+03 -0.10118975241E+03  0.26582257719E+03  0.17200000000E+03 0.  1.
         -6    1    1    2    0  503 -0.10478719866E+03  0.14091813066E+03 -0.47755114383E+03  0.53710089511E+03  0.17200000000E+03 0.  1.
<mgrwt>
<rscale>  2 0.24580943E+03</rscale>
<asrwt>0</asrwt>
<pdfrwt beam="1">  1       21 0.28022822E-01 0.24580943E+03</pdfrwt>
<pdfrwt beam="2">  1       21 0.17270804E+00 0.24580943E+03</pdfrwt>
<totfact> 0.23719780E+03</totfact>
</mgrwt>
</event>
<event>
 4    1  0.1132373E+000  0.1984056E+03  0.7546771E-02  0.1151091E+00
         21   -1    0    0  503  502  0.00000000000E+00  0.00000000000E+00  0.10565741467E+04  0.10565741467E+04  0.00000000000E+00 0. -1.
         21   -1    0    0  501  503 -0.00000000000E+00 -0.00000000000E+00 -0.84412025609E+02  0.84412025609E+02  0.00000000000E+00 0.  1.
          6    1    1    2  501    0  0.94692560441E+02  0.28532581365E+02  0.59685975588E+02  0.20718881457E+03  0.17200000000E+03 0.  1.
         -6    1    1    2    0  502 -0.94692560441E+02 -0.28532581365E+02  0.91247614547E+03  0.93379735770E+03  0.17200000000E+03 0. -1.
<mgrwt>
<rscale>  2 0.19840562E+03</rscale>
<asrwt>0</asrwt>
<pdfrwt beam="1">  1       21 0.26414350E+00 0.19840562E+03</pdfrwt>
<pdfrwt beam="2">  1       21 0.21103010E-01 0.19840562E+03</pdfrwt>
<totfact> 0.11394051E+03</totfact>
</mgrwt>
</event>
<event>
 4    1  0.1132373E+000  0.2126878E+03  0.7546771E-02  0.1139455E+00
         21   -1    0    0  501  502  0.00000000000E+00  0.00000000000E+00  0.80434986420E+02  0.80434986420E+02  0.00000000000E+00 0. -1.
         21   -1    0    0  502  503 -0.00000000000E+00 -0.00000000000E+00 -0.75402536404E+03  0.75402536404E+03  0.00000000000E+00 0. -1.
          6    1    1    2  501    0  0.31249232962E+02  0.12114288514E+03 -0.12645774109E+03  0.24744226289E+03  0.17200000000E+03 0. -1.
         -6    1    1    2    0  503 -0.31249232962E+02 -0.12114288514E+03 -0.54713263653E+03  0.58701808757E+03  0.17200000000E+03 0. -1.
<mgrwt>
<rscale>  2 0.21268783E+03</rscale>
<asrwt>0</asrwt>
<pdfrwt beam="1">  1       21 0.20108746E-01 0.21268783E+03</pdfrwt>
<pdfrwt beam="2">  1       21 0.18850634E+00 0.21268783E+03</pdfrwt>
<totfact> 0.35793093E+03</totfact>
</mgrwt>
</event>
<event>
 4    1  0.1132373E+000  0.2522418E+03  0.7546771E-02  0.1111896E+00
         21   -1    0    0  501  502  0.00000000000E+00  0.00000000000E+00  0.32284676110E+03  0.32284676110E+03  0.00000000000E+00 0.  1.
         21   -1    0    0  502  503 -0.00000000000E+00 -0.00000000000E+00 -0.20384695577E+03  0.20384695577E+03  0.00000000000E+00 0. -1.
          6    1    1    2  501    0  0.16351194241E+03  0.85473826525E+02  0.10748906725E+03  0.27418940518E+03  0.17200000000E+03 0. -1.
         -6    1    1    2    0  503 -0.16351194241E+03 -0.85473826525E+02  0.11510738073E+02  0.25250431169E+03  0.17200000000E+03 0. -1.
<mgrwt>
<rscale>  2 0.25224181E+03</rscale>
<asrwt>0</asrwt>
<pdfrwt beam="1">  1       21 0.80711690E-01 0.25224181E+03</pdfrwt>
<pdfrwt beam="2">  1       21 0.50961739E-01 0.25224181E+03</pdfrwt>
<totfact> 0.47326890E+03</totfact>
</mgrwt>
</event>
<event>
 4    1  0.1132373E+000  0.2086652E+03  0.7546771E-02  0.1142627E+00
         21   -1    0    0  503  502  0.00000000000E+00  0.00000000000E+00  0.39986171446E+02  0.39986171446E+02  0.00000000000E+00 0.  1.
         21   -1    0    0  501  503 -0.00000000000E+00 -0.00000000000E+00 -0.12008400081E+04  0.12008400081E+04  0.00000000000E+00 0.  1.
          6    1    1    2  501    0  0.11609138611E+03 -0.21907887463E+02 -0.76984446530E+03  0.79762250860E+03  0.17200000000E+03 0.  1.
         -6    1    1    2    0  502 -0.11609138611E+03  0.21907887463E+02 -0.39100937138E+03  0.44320367098E+03  0.17200000000E+03 0.  1.
<mgrwt>
<rscale>  2 0.20866520E+03</rscale>
<asrwt>0</asrwt>
<pdfrwt beam="1">  1       21 0.99965433E-02 0.20866520E+03</pdfrwt>
<pdfrwt beam="2">  1       21 0.30020999E+00 0.20866520E+03</pdfrwt>
<totfact> 0.27118048E+03</totfact>
</mgrwt>
</event>
<event>
 4    1  0.1132373E+000  0.3763070E+03  0.7546771E-02  0.1052307E+00
         21   -1    0    0  503  502  0.00000000000E+00  0.00000000000E+00  0.37468452174E+03  0.37468452174E+03  0.00000000000E+00 0. -1.
         21   -1    0    0  501  503 -0.00000000000E+00 -0.00000000000E+00 -0.50253181107E+03  0.50253181107E+03  0.00000000000E+00 0.  1.
          6    1    1    2  501    0  0.15464035853E+03  0.29683213312E+03 -0.28232020208E+03  0.47043772409E+03  0.17200000000E+03 0.  1.
         -6    1    1    2    0  502 -0.15464035853E+03 -0.29683213312E+03  0.15447291276E+03  0.40677860873E+03  0.17200000000E+03 0. -1.
<mgrwt>
<rscale>  2 0.37630700E+03</rscale>
<asrwt>0</asrwt>
<pdfrwt beam="1">  1       21 0.93671131E-01 0.37630700E+03</pdfrwt>
<pdfrwt beam="2">  1       21 0.12563295E+00 0.37630700E+03</pdfrwt>
<totfact> 0.38903886E+02</totfact>
</mgrwt>
</event>
<event>
 4    1  0.1132373E+000  0.2166444E+03  0.7546771E-02  0.1136410E+00
         21   -1    0    0  501  502  0.00000000000E+00  0.00000000000E+00  0.26999141614E+03  0.26999141614E+03  0.00000000000E+00 0.  1.
         21   -1    0    0  502  503 -0.00000000000E+00 -0.00000000000E+00 -0.21213956787E+03  0.21213956787E+03  0.00000000000E+00 0. -1.
          6    1    1    2  501    0 -0.71663613912E+02 -0.11052203310E+03  0.13135704991E+03  0.25335640493E+03  0.17200000000E+03 0.  1.
         -6    1    1    2    0  503  0.71663613912E+02  0.11052203310E+03 -0.73505201640E+02  0.22877457907E+03  0.17200000000E+03 0. -1.
<mgrwt>
<rscale>  2 0.21664439E+03</rscale>
<asrwt>0</asrwt>
<pdfrwt beam="1">  1       21 0.67497854E-01 0.21664439E+03</pdfrwt>
<pdfrwt beam="2">  1       21 0.53034892E-01 0.21664439E+03</pdfrwt>
<totfact> 0.66442649E+03</totfact>
</mgrwt>
</event>
<event>
 4    1  0.1132373E+000  0.2134621E+03  0.7546771E-02  0.1138853E+00
         21   -1    0    0  503  502  0.00000000000E+00  0.00000000000E+00  0.25580270100E+03  0.25580270100E+03  0.00000000000E+00 0. -1.
         21   -1    0    0  501  503 -0.00000000000E+00 -0.00000000000E+00 -0.17942696730E+03  0.17942696730E+03  0.00000000000E+00 0. -1.
          6    1    1    2  501    0 -0.10892988003E+03  0.64158746318E+02  0.19684275275E+02  0.21436775454E+03  0.17200000000E+03 0. -1.
         -6    1    1    2    0  502  0.10892988003E+03 -0.64158746318E+02  0.56691458421E+02  0.22086191376E+03  0.17200000000E+03 0. -1.
<mgrwt>
<rscale>  2 0.21346209E+03</rscale>
<asrwt>0</asrwt>
<pdfrwt beam="1">  1       21 0.63950675E-01 0.21346209E+03</pdfrwt>
<pdfrwt beam="2">  1       21 0.44856742E-01 0.21346209E+03</pdfrwt>
<totfact> 0.10621127E+04</totfact>
</mgrwt>
</event>
<event>
 4    1  0.1132373E+000  0.3453818E+03  0.7546771E-02  0.1064527E+00
         21   -1    0    0  503  502  0.00000000000E+00  0.00000000000E+00  0.60996987932E+03  0.60996987932E+03  0.00000000000E+00 0. -1.
         21   -1    0    0  501  503 -0.00000000000E+00 -0.00000000000E+00 -0.23891991760E+03  0.23891991760E+03  0.00000000000E+00 0. -1.
          6    1    1    2  501    0  0.16816358694E+03  0.24784189737E+03  0.47178112908E+01  0.34541403534E+03  0.17200000000E+03 0. -1.
         -6    1    1    2    0  502 -0.16816358694E+03 -0.24784189737E+03  0.36633215042E+03  0.50347576158E+03  0.17200000000E+03 0. -1.
<mgrwt>
<rscale>  2 0.34538181E+03</rscale>
<asrwt>0</asrwt>
<pdfrwt beam="1">  1       21 0.15249247E+00 0.34538181E+03</pdfrwt>
<pdfrwt beam="2">  1       21 0.59729980E-01 0.34538181E+03</pdfrwt>
<totfact> 0.66134154E+02</totfact>
</mgrwt>
</event>
<event>
 4    1  0.1132373E+000  0.1851065E+03  0.7546771E-02  0.1162951E+00
         21   -1    0    0  503  502  0.00000000000E+00  0.00000000000E+00  0.91400307086E+02  0.91400307086E+02  0.00000000000E+00 0.  1.
         21   -1    0    0  501  503 -0.00000000000E+00 -0.00000000000E+00 -0.37707966117E+03  0.37707966117E+03  0.00000000000E+00 0.  1.
          6    1    1    2  501    0 -0.26268741869E+02  0.63169278594E+02 -0.16071871484E+03  0.24514263166E+03  0.17200000000E+03 0.  1.
         -6    1    1    2    0  502  0.26268741869E+02 -0.63169278594E+02 -0.12496063924E+03  0.22333733659E+03  0.17200000000E+03 0.  1.
<mgrwt>
<rscale>  2 0.18510647E+03</rscale>
<asrwt>0</asrwt>
<pdfrwt beam="1">  1       21 0.22850077E-01 0.18510647E+03</pdfrwt>
<pdfrwt beam="2">  1       21 0.94269915E-01 0.18510647E+03</pdfrwt>
<totfact> 0.17030024E+04</totfact>
</mgrwt>
</event>
<event>
 4    1  0.1132373E+000  0.2165860E+03  0.7546771E-02  0.1136454E+00
         21   -1    0    0  501  502  0.00000000000E+00  0.00000000000E+00  0.42492675252E+03  0.42492675252E+03  0.00000000000E+00 0. -1.
         21   -1    0    0  502  503 -0.00000000000E+00 -0.00000000000E+00 -0.12189007933E+03  0.12189007933E+03  0.00000000000E+00 0. -1.
          6    1    1    2  501    0 -0.96269016617E+02  0.89764975745E+02  0.67553458401E+02  0.22687649542E+03  0.17200000000E+03 0. -1.
         -6    1    1    2    0  503  0.96269016617E+02 -0.89764975745E+02  0.23548321479E+03  0.31994033644E+03  0.17200000000E+03 0. -1.
<mgrwt>
<rscale>  2 0.21658595E+03</rscale>
<asrwt>0</asrwt>
<pdfrwt beam="1">  1       21 0.10623168E+00 0.21658595E+03</pdfrwt>
<pdfrwt beam="2">  1       21 0.30472521E-01 0.21658595E+03</pdfrwt>
<totfact> 0.72158412E+03</totfact>
</mgrwt>
</event>
<event>
 4    1  0.1132373E+000  0.2314588E+03  0.7546771E-02  0.1125617E+00
         21   -1    0    0  503  502  0.00000000000E+00  0.00000000000E+00  0.11670102036E+04  0.11670102036E+04  0.00000000000E+00 0.  1.
         21   -1    0    0  501  503 -0.00000000000E+00 -0.00000000000E+00 -0.62569184207E+02  0.62569184207E+02  0.00000000000E+00 0.  1.
          6    1    1    2  501    0 -0.13971016009E+03  0.66859851501E+02  0.23495644521E+03  0.32981464449E+03  0.17200000000E+03 0.  1.
         -6    1    1    2    0  502  0.13971016009E+03 -0.66859851501E+02  0.86948457415E+03  0.89976474329E+03  0.17200000000E+03 0.  1.
<mgrwt>
<rscale>  2 0.23145878E+03</rscale>
<asrwt>0</asrwt>
<pdfrwt beam="1">  1       21 0.29175248E+00 0.23145878E+03</pdfrwt>
<pdfrwt beam="2">  1       21 0.15642300E-01 0.23145878E+03</pdfrwt>
<totfact> 0.13207735E+03</totfact>
</mgrwt>
</event>
<event>
 4    1  0.1132373E+000  0.3117435E+03  0.7546771E-02  0.1079513E+00
         21   -1    0    0  501  502  0.00000000000E+00  0.00000000000E+00  0.14520246455E+04  0.14520246455E+04  0.00000000000E+00 0. -1.
         21   -1    0    0  502  503 -0.00000000000E+00 -0.00000000000E+00 -0.67863749748E+02  0.67863749748E+02  0.00000000000E+00 0. -1.
          6    1    1    2  501    0 -0.20918785432E+03  0.15440351890E+03  0.60293919297E+03  0.67876334275E+03  0.17200000000E+03 0. -1.
         -6    1    1    2    0  503  0.20918785432E+03 -0.15440351890E+03  0.78122170279E+03  0.84112505250E+03  0.17200000000E+03 0. -1.
<mgrwt>
<rscale>  2 0.31174349E+03</rscale>
<asrwt>0</asrwt>
<pdfrwt beam="1">  1       21 0.36300606E+00 0.31174349E+03</pdfrwt>
<pdfrwt beam="2">  1       21 0.16965942E-01 0.31174349E+03</pdfrwt>
<totfact> 0.39622403E+02</totfact>
</mgrwt>
</event>
<event>
 4    1  0.1132373E+000  0.1956939E+03  0.7546771E-02  0.1153424E+00
         21   -1    0    0  501  502  0.00000000000E+00  0.00000000000E+00  0.40518129260E+03  0.40518129260E+03  0.00000000000E+00 0.  1.
         21   -1    0    0  502  503 -0.00000000000E+00 -0.00000000000E+00 -0.94804331766E+02  0.94804331766E+02  0.00000000000E+00 0. -1.
          6    1    1    2  501    0  0.33431032828E+02  0.87146153661E+02  0.14140009009E+03  0.24143336872E+03  0.17200000000E+03 0. -1.
         -6    1    1    2    0  503 -0.33431032828E+02 -0.87146153661E+02  0.16897687074E+03  0.25855225565E+03  0.17200000000E+03 0.  1.
<mgrwt>
<rscale>  2 0.19569386E+03</rscale>
<asrwt>0</asrwt>
<pdfrwt beam="1">  1       21 0.10129532E+00 0.19569386E+03</pdfrwt>
<pdfrwt beam="2">  1       21 0.23701084E-01 0.19569386E+03</pdfrwt>
<totfact> 0.13322216E+04</totfact>
</mgrwt>
</event>
<event>
 4    1  0.1132373E+000  0.1828528E+03  0.7546771E-02  0.1165070E+00
         21   -1    0    0  503  502  0.00000000000E+00  0.00000000000E+00  0.21685532882E+03  0.21685532882E+03  0.00000000000E+00 0.  1.
         21   -1    0    0  501  503 -0.00000000000E+00 -0.00000000000E+00 -0.17507579553E+03  0.17507579553E+03  0.00000000000E+00 0.  1.
          6    1    1    2  501    0  0.46626794912E+02 -0.40952484100E+02 -0.46808342809E+02  0.18874899977E+03  0.17200000000E+03 0.  1.
         -6    1    1    2    0  502 -0.46626794912E+02  0.40952484100E+02  0.88587876098E+02  0.20318212458E+03  0.17200000000E+03 0.  1.
<mgrwt>
<rscale>  2 0.18285285E+03</rscale>
<asrwt>0</asrwt>
<pdfrwt beam="1">  1       21 0.54213832E-01 0.18285285E+03</pdfrwt>
<pdfrwt beam="2">  1       21 0.43768949E-01 0.18285285E+03</pdfrwt>
<totfact> 0.16227341E+04</totfact>
</mgrwt>
</event>
<event>
 4    1  0.1132373E+000  0.3645234E+03  0.7546771E-02  0.1056807E+00
         21   -1    0    0  501  502  0.00000000000E+00  0.00000000000E+00  0.34354425744E+03  0.34354425744E+03  0.00000000000E+00 0.  1.
         21   -1    0    0  502  503 -0.00000000000E+00 -0.00000000000E+00 -0.49129460617E+03  0.49129460617E+03  0.00000000000E+00 0. -1.
          6    1    1    2  501    0 -0.81091109510E+02 -0.31099442377E+03  0.11864781133E+03  0.38334658312E+03  0.17200000000E+03 0.  1.
         -6    1    1    2    0  503  0.81091109510E+02  0.31099442377E+03 -0.26639816006E+03  0.45149228049E+03  0.17200000000E+03 0. -1.
<mgrwt>
<rscale>  2 0.36452339E+03</rscale>
<asrwt>0</asrwt>
<pdfrwt beam="1">  1       21 0.85886065E-01 0.36452339E+03</pdfrwt>
<pdfrwt beam="2">  1       21 0.12282365E+00 0.36452339E+03</pdfrwt>
<totfact> 0.50902313E+02</totfact>
</mgrwt>
</event>
<event>
 4    1  0.1132373E+000  0.1965160E+03  0.7546771E-02  0.1152712E+00
         21   -1    0    0  501  502  0.00000000000E+00  0.00000000000E+00  0.37250892288E+03  0.37250892288E+03  0.00000000000E+00 0. -1.
         21   -1    0    0  502  503 -0.00000000000E+00 -0.00000000000E+00 -0.12657000983E+03  0.12657000983E+03  0.00000000000E+00 0. -1.
          6    1    1    2  501    0 -0.25887940744E+02 -0.91456889909E+02  0.22910912223E+03  0.30184356557E+03  0.17200000000E+03 0. -1.
         -6    1    1    2    0  503  0.25887940744E+02  0.91456889909E+02  0.16829790819E+02  0.19723536713E+03  0.17200000000E+03 0. -1.
<mgrwt>
<rscale>  2 0.19651603E+03</rscale>
<asrwt>0</asrwt>
<pdfrwt beam="1">  1       21 0.93127228E-01 0.19651603E+03</pdfrwt>
<pdfrwt beam="2">  1       21 0.31642503E-01 0.19651603E+03</pdfrwt>
<totfact> 0.92924929E+03</totfact>
</mgrwt>
</event>
<event>
 4    1  0.1132373E+000  0.1764454E+03  0.7546771E-02  0.1171288E+00
         21   -1    0    0  501  502  0.00000000000E+00  0.00000000000E+00  0.11653415758E+04  0.11653415758E+04  0.00000000000E+00 0. -1.
         21   -1    0    0  502  503 -0.00000000000E+00 -0.00000000000E+00 -0.13111503096E+03  0.13111503096E+03  0.00000000000E+00 0. -1.
          6    1    1    2  501    0 -0.60376933377E+01 -0.38891048671E+02  0.10955428798E+04  0.11096608350E+04  0.17200000000E+03 0. -1.
         -6    1    1    2    0  503  0.60376933377E+01  0.38891048671E+02 -0.61316334918E+02  0.18679577173E+03  0.17200000000E+03 0. -1.
<mgrwt>
<rscale>  2 0.17644537E+03</rscale>
<asrwt>0</asrwt>
<pdfrwt beam="1">  1       21 0.29133536E+00 0.17644537E+03</pdfrwt>
<pdfrwt beam="2">  1       21 0.32778761E-01 0.17644537E+03</pdfrwt>
<totfact> 0.35166012E+02</totfact>
</mgrwt>
</event>
<event>
 4    1  0.1132373E+000  0.2046801E+03  0.7546771E-02  0.1145849E+00
         21   -1    0    0  503  502  0.00000000000E+00  0.00000000000E+00  0.43453701413E+03  0.43453701413E+03  0.00000000000E+00 0.  1.
         21   -1    0    0  501  503 -0.00000000000E+00 -0.00000000000E+00 -0.97049522818E+02  0.97049522818E+02  0.00000000000E+00 0.  1.
          6    1    1    2  501    0 -0.47813944347E+02 -0.10011879990E+03  0.14717660835E+03  0.25210097463E+03  0.17200000000E+03 0.  1.
         -6    1    1    2    0  502  0.47813944347E+02  0.10011879990E+03  0.19031088296E+03  0.27948556231E+03  0.17200000000E+03 0.  1.
<mgrwt>
<rscale>  2 0.20468011E+03</rscale>
<asrwt>0</asrwt>
<pdfrwt beam="1">  1       21 0.10863425E+00 0.20468011E+03</pdfrwt>
<pdfrwt beam="2">  1       21 0.24262382E-01 0.20468011E+03</pdfrwt>
<totfact> 0.10704059E+04</totfact>
</mgrwt>
</event>
<event>
 4    1  0.1132373E+000  0.1772828E+03  0.7546771E-02  0.1170459E+00
         21   -1    0    0  503  502  0.00000000000E+00  0.00000000000E+00  0.60232197424E+03  0.60232197424E+03  0.00000000000E+00 0. -1.
         21   -1    0    0  501  503 -0.00000000000E+00 -0.00000000000E+00 -0.52228276838E+02  0.52228276838E+02  0.00000000000E+00 0.  1.
          6    1    1    2  501    0 -0.42454107768E+02 -0.65452564722E+01  0.26510201123E+03  0.31891733726E+03  0.17200000000E+03 0. -1.
         -6    1    1    2    0  502  0.42454107768E+02  0.65452564722E+01  0.28499168617E+03  0.33563291382E+03  0.17200000000E+03 0.  1.
<mgrwt>
<rscale>  2 0.17728280E+03</rscale>
<asrwt>0</asrwt>
<pdfrwt beam="1">  1       21 0.15058047E+00 0.17728280E+03</pdfrwt>
<pdfrwt beam="2">  1       21 0.13057071E-01 0.17728280E+03</pdfrwt>
<totfact> 0.15087440E+04</totfact>
</mgrwt>
</event>
<event>
 4    1  0.1132373E+000  0.2463932E+03  0.7546771E-02  0.1115606E+00
         21   -1    0    0  503  502  0.00000000000E+00  0.00000000000E+00  0.20536906748E+03  0.20536906748E+03  0.00000000000E+00 0.  1.
         21   -1    0    0  501  503 -0.00000000000E+00 -0.00000000000E+00 -0.80680322542E+03  0.80680322542E+03  0.00000000000E+00 0.  1.
          6    1    1    2  501    0 -0.30786579976E+02  0.17371759444E+03 -0.70355673555E+03  0.74545402022E+03  0.17200000000E+03 0.  1.
         -6    1    1    2    0  502  0.30786579976E+02 -0.17371759444E+03  0.10212257761E+03  0.26671827268E+03  0.17200000000E+03 0.  1.
<mgrwt>
<rscale>  2 0.24639321E+03</rscale>
<asrwt>0</asrwt>
<pdfrwt beam="1">  1       21 0.51342267E-01 0.24639321E+03</pdfrwt>
<pdfrwt beam="2">  1       21 0.20170081E+00 0.24639321E+03</pdfrwt>
<totfact> 0.44492355E+02</totfact>
</mgrwt>
</event>
<event>
 4    1  0.1132373E+000  0.1763602E+03  0.7546771E-02  0.1171373E+00
         21   -1    0    0  503  502  0.00000000000E+00  0.00000000000E+00  0.15302787737E+03  0.15302787737E+03  0.00000000000E+00 0. -1.
         21   -1    0    0  501  503 -0.00000000000E+00 -0.00000000000E+00 -0.46609301166E+03  0.46609301166E+03  0.00000000000E+00 0. -1.
          6    1    1    2  501    0  0.12375485609E+02 -0.36956336876E+02 -0.38899744331E+03  0.42710880860E+03  0.17200000000E+03 0. -1.
         -6    1    1    2    0  502 -0.12375485609E+02  0.36956336876E+02  0.75932309019E+02  0.19201208043E+03  0.17200000000E+03 0. -1.
<mgrwt>
<rscale>  2 0.17636021E+03</rscale>
<asrwt>0</asrwt>
<pdfrwt beam="1">  1       21 0.38256970E-01 0.17636021E+03</pdfrwt>
<pdfrwt beam="2">  1       21 0.11652325E+00 0.17636021E+03</pdfrwt>
<totfact> 0.37937637E+03</totfact>
</mgrwt>
</event>
<event>
 4    1  0.1132373E+000  0.2356541E+03  0.7546771E-02  0.1122722E+00
         21   -1    0    0  503  502  0.00000000000E+00  0.00000000000E+00  0.94216145221E+03  0.94216145221E+03  0.00000000000E+00 0. -1.
         21   -1    0    0  501  503 -0.00000000000E+00 -0.00000000000E+00 -0.64782846400E+02  0.64782846400E+02  0.00000000000E+00 0.  1.
          6    1    1    2  501    0  0.11415773244E+03 -0.11365241412E+03  0.28751284408E+03  0.37174789121E+03  0.17200000000E+03 0.  1.
         -6    1    1    2    0  502 -0.11415773244E+03  0.11365241412E+03  0.58986576174E+03  0.63519640741E+03  0.17200000000E+03 0. -1.
<mgrwt>
<rscale>  2 0.23565411E+03</rscale>
<asrwt>0</asrwt>
<pdfrwt beam="1">  1       21 0.23554032E+00 0.23565411E+03</pdfrwt>
<pdfrwt beam="2">  1       21 0.16195715E-01 0.23565411E+03</pdfrwt>
<totfact> 0.26464125E+03</totfact>
</mgrwt>
</event>
<event>
 4    1  0.1132373E+000  0.2506408E+03  0.7546771E-02  0.1112901E+00
         21   -1    0    0  503  502  0.00000000000E+00  0.00000000000E+00  0.10765356818E+04  0.10765356818E+04  0.00000000000E+00 0. -1.
         21   -1    0    0  501  503 -0.00000000000E+00 -0.00000000000E+00 -0.25698805403E+03  0.25698805403E+03  0.00000000000E+00 0.  1.
          6    1    1    2  501    0 -0.63478142952E+02 -0.17090153521E+03 -0.17641899130E+03  0.30650362129E+03  0.17200000000E+03 0.  1.
         -6    1    1    2    0  502  0.63478142952E+02  0.17090153521E+03  0.99596661903E+03  0.10270201145E+04  0.17200000000E+03 0. -1.
<mgrwt>
<rscale>  2 0.25064080E+03</rscale>
<asrwt>0</asrwt>
<pdfrwt beam="1">  1       21 0.26913391E+00 0.25064080E+03</pdfrwt>
<pdfrwt beam="2">  1       21 0.64247016E-01 0.25064080E+03</pdfrwt>
<totfact> 0.10615998E+02</totfact>
</mgrwt>
</event>
<event>
 4    1  0.1132373E+000  0.3011055E+03  0.7546771E-02  0.1084689E+00
         21   -1    0    0  503  502  0.00000000000E+00  0.00000000000E+00  0.10265202729E+03  0.10265202729E+03  0.00000000000E+00 0. -1.
         21   -1    0    0  501  503 -0.00000000000E+00 -0.00000000000E+00 -0.10398375725E+04  0.10398375725E+04  0.00000000000E+00 0. -1.
          6    1    1    2  501    0  0.19517559645E+03  0.15161474444E+03 -0.69028821798E+03  0.75310183113E+03  0.17200000000E+03 0. -1.
         -6    1    1    2    0  502 -0.19517559645E+03 -0.15161474444E+03 -0.24689732724E+03  0.38938776866E+03  0.17200000000E+03 0. -1.
<mgrwt>
<rscale>  2 0.30110554E+03</rscale>
<asrwt>0</asrwt>
<pdfrwt beam="1">  1       21 0.25663007E-01 0.30110554E+03</pdfrwt>
<pdfrwt beam="2">  1       21 0.25995939E+00 0.30110554E+03</pdfrwt>
<totfact> 0.74968655E+02</totfact>
</mgrwt>
</event>
<event>
 4    1  0.1132373E+000  0.2054321E+03  0.7546771E-02  0.1145235E+00
         21   -1    0    0  503  502  0.00000000000E+00  0.00000000000E+00  0.61813489610E+03  0.61813489610E+03  0.00000000000E+00 0.  1.
         21   -1    0    0  501  503 -0.00000000000E+00 -0.00000000000E+00 -0.68720913455E+02  0.68720913455E+02  0.00000000000E+00 0.  1.
          6    1    1    2  501    0  0.10650202024E+03  0.35716230162E+02  0.30241273368E+03  0.36558964824E+03  0.17200000000E+03 0.  1.
         -6    1    1    2    0  502 -0.10650202024E+03 -0.35716230162E+02  0.24700124896E+03  0.32126616131E+03  0.17200000000E+03 0.  1.
<mgrwt>
<rscale>  2 0.20543206E+03</rscale>
<asrwt>0</asrwt>
<pdfrwt beam="1">  1       21 0.15453371E+00 0.20543206E+03</pdfrwt>
<pdfrwt beam="2">  1       21 0.17180230E-01 0.20543206E+03</pdfrwt>
<totfact> 0.83695985E+03</totfact>
</mgrwt>
</event>
<event>
 4    1  0.1132373E+000  0.2018456E+03  0.7546771E-02  0.1148191E+00
         21   -1    0    0  503  502  0.00000000000E+00  0.00000000000E+00  0.82565646046E+03  0.82565646046E+03  0.00000000000E+00 0. -1.
         21   -1    0    0  501  503 -0.00000000000E+00 -0.00000000000E+00 -0.10326702493E+03  0.10326702493E+03  0.00000000000E+00 0. -1.
          6    1    1    2  501    0 -0.29752362965E+02 -0.10135305232E+03  0.25569925771E+02  0.20345875607E+03  0.17200000000E+03 0. -1.
         -6    1    1    2    0  502  0.29752362965E+02  0.10135305232E+03  0.69681950976E+03  0.72546472933E+03  0.17200000000E+03 0. -1.
<mgrwt>
<rscale>  2 0.20184560E+03</rscale>
<asrwt>0</asrwt>
<pdfrwt beam="1">  1       21 0.20641410E+00 0.20184560E+03</pdfrwt>
<pdfrwt beam="2">  1       21 0.25816759E-01 0.20184560E+03</pdfrwt>
<totfact> 0.17240231E+03</totfact>
</mgrwt>
</event>
<event>
 4    1  0.1132373E+000  0.1948306E+03  0.7546771E-02  0.1154175E+00
         21   -1    0    0  501  502  0.00000000000E+00  0.00000000000E+00  0.11989133579E+03  0.11989133579E+03  0.00000000000E+00 0. -1.
         21   -1    0    0  502  503 -0.00000000000E+00 -0.00000000000E+00 -0.33722928769E+03  0.33722928769E+03  0.00000000000E+00 0. -1.
          6    1    1    2  501    0 -0.46563218288E+02  0.78783444234E+02 -0.52154435634E+02  0.20169047954E+03  0.17200000000E+03 0. -1.
         -6    1    1    2    0  503  0.46563218288E+02 -0.78783444234E+02 -0.16518351627E+03  0.25543014393E+03  0.17200000000E+03 0. -1.
<mgrwt>
<rscale>  2 0.19483060E+03</rscale>
<asrwt>0</asrwt>
<pdfrwt beam="1">  1       21 0.29972834E-01 0.19483060E+03</pdfrwt>
<pdfrwt beam="2">  1       21 0.84307321E-01 0.19483060E+03</pdfrwt>
<totfact> 0.13014554E+04</totfact>
</mgrwt>
</event>
<event>
 4    1  0.1132373E+000  0.2055186E+03  0.7546771E-02  0.1145165E+00
         21   -1    0    0  503  502  0.00000000000E+00  0.00000000000E+00  0.27932840984E+03  0.27932840984E+03  0.00000000000E+00 0. -1.
         21   -1    0    0  501  503 -0.00000000000E+00 -0.00000000000E+00 -0.17038437733E+03  0.17038437733E+03  0.00000000000E+00 0. -1.
          6    1    1    2  501    0  0.20541751407E+02 -0.11059801716E+03 -0.20954699663E+02  0.20658408552E+03  0.17200000000E+03 0. -1.
         -6    1    1    2    0  502 -0.20541751407E+02  0.11059801716E+03  0.12989873217E+03  0.24312870166E+03  0.17200000000E+03 0. -1.
<mgrwt>
<rscale>  2 0.20551858E+03</rscale>
<asrwt>0</asrwt>
<pdfrwt beam="1">  1       21 0.69832102E-01 0.20551858E+03</pdfrwt>
<pdfrwt beam="2">  1       21 0.42596095E-01 0.20551858E+03</pdfrwt>
<totfact> 0.97887363E+03</totfact>
</mgrwt>
</event>
<event>
 4    1  0.1132373E+000  0.1840339E+03  0.7546771E-02  0.1163955E+00
         21   -1    0    0  503  502  0.00000000000E+00  0.00000000000E+00  0.18869433210E+03  0.18869433210E+03  0.00000000000E+00 0.  1.
         21   -1    0    0  501  503 -0.00000000000E+00 -0.00000000000E+00 -0.33531694694E+03  0.33531694694E+03  0.00000000000E+00 0.  1.
          6    1    1    2  501    0  0.64936633703E+02  0.82277455988E+01  0.10529889477E+03  0.21202905328E+03  0.17200000000E+03 0.  1.
         -6    1    1    2    0  502 -0.64936633703E+02 -0.82277455988E+01 -0.25192150960E+03  0.31198222577E+03  0.17200000000E+03 0.  1.
<mgrwt>
<rscale>  2 0.18403386E+03</rscale>
<asrwt>0</asrwt>
<pdfrwt beam="1">  1       21 0.47173583E-01 0.18403386E+03</pdfrwt>
<pdfrwt beam="2">  1       21 0.83829236E-01 0.18403386E+03</pdfrwt>
<totfact> 0.53539799E+03</totfact>
</mgrwt>
</event>
<event>
 4    1  0.1132373E+000  0.1962630E+03  0.7546771E-02  0.1152931E+00
         21   -1    0    0  503  502  0.00000000000E+00  0.00000000000E+00  0.11261694396E+03  0.11261694396E+03  0.00000000000E+00 0. -1.
         21   -1    0    0  501  503 -0.00000000000E+00 -0.00000000000E+00 -0.58839695901E+03  0.58839695901E+03  0.00000000000E+00 0.  1.
          6    1    1    2  501    0  0.66947695716E+02  0.66732187888E+02 -0.46469173223E+03  0.50443789000E+03  0.17200000000E+03 0.  1.
         -6    1    1    2    0  502 -0.66947695716E+02 -0.66732187888E+02 -0.11088282814E+02  0.19657601298E+03  0.17200000000E+03 0. -1.
<mgrwt>
<rscale>  2 0.19626303E+03</rscale>
<asrwt>0</asrwt>
<pdfrwt beam="1">  1       21 0.28154236E-01 0.19626303E+03</pdfrwt>
<pdfrwt beam="2">  1       21 0.14709924E+00 0.19626303E+03</pdfrwt>
<totfact> 0.37808124E+03</totfact>
</mgrwt>
</event>
<event>
 4    1  0.1132373E+000  0.1883757E+03  0.7546771E-02  0.1159935E+00
         21   -1    0    0  501  502  0.00000000000E+00  0.00000000000E+00  0.43205671745E+03  0.43205671745E+03  0.00000000000E+00 0. -1.
         21   -1    0    0  502  503 -0.00000000000E+00 -0.00000000000E+00 -0.16540414601E+03  0.16540414601E+03  0.00000000000E+00 0. -1.
          6    1    1    2  501    0  0.64051638884E+02  0.42412331768E+02  0.34528815587E+03  0.39333106782E+03  0.17200000000E+03 0. -1.
         -6    1    1    2    0  503 -0.64051638884E+02 -0.42412331768E+02 -0.78635584426E+02  0.20412979564E+03  0.17200000000E+03 0. -1.
<mgrwt>
<rscale>  2 0.18837574E+03</rscale>
<asrwt>0</asrwt>
<pdfrwt beam="1">  1       21 0.10801418E+00 0.18837574E+03</pdfrwt>
<pdfrwt beam="2">  1       21 0.41351037E-01 0.18837574E+03</pdfrwt>
<totfact> 0.38574020E+03</totfact>
</mgrwt>
</event>
<event>
 4    1  0.1132373E+000  0.1907035E+03  0.7546771E-02  0.1157828E+00
         21   -1    0    0  503  502  0.00000000000E+00  0.00000000000E+00  0.56439819189E+03  0.56439819189E+03  0.00000000000E+00 0. -1.
         21   -1    0    0  501  503 -0.00000000000E+00 -0.00000000000E+00 -0.67535829179E+02  0.67535829179E+02  0.00000000000E+00 0.  1.
          6    1    1    2  501    0 -0.62650860240E+02 -0.53466616687E+02  0.31611935301E+03  0.36918728951E+03  0.17200000000E+03 0. -1.
         -6    1    1    2    0  502  0.62650860240E+02  0.53466616687E+02  0.18074300970E+03  0.26274673155E+03  0.17200000000E+03 0.  1.
<mgrwt>
<rscale>  2 0.19070346E+03</rscale>
<asrwt>0</asrwt>
<pdfrwt beam="1">  1       21 0.14109953E+00 0.19070346E+03</pdfrwt>
<pdfrwt beam="2">  1       21 0.16883959E-01 0.19070346E+03</pdfrwt>
<totfact> 0.11094310E+04</totfact>
</mgrwt>
</event>
<event>
 4    1  0.1132373E+000  0.2324866E+03  0.7546771E-02  0.1124902E+00
         21   -1    0    0  501  502  0.00000000000E+00  0.00000000000E+00  0.12915745149E+04  0.12915745149E+04  0.00000000000E+00 0.  1.
         21   -1    0    0  502  503 -0.00000000000E+00 -0.00000000000E+00 -0.60357035387E+02  0.60357035387E+02  0.00000000000E+00 0.  1.
          6    1    1    2  501    0 -0.14504888428E+03  0.58539363498E+02  0.98993526359E+03  0.10168686552E+04  0.17200000000E+03 0.  1.
         -6    1    1    2    0  503  0.14504888428E+03 -0.58539363498E+02  0.24128221589E+03  0.33506289501E+03  0.17200000000E+03 0.  1.
<mgrwt>
<rscale>  2 0.23248664E+03</rscale>
<asrwt>0</asrwt>
<pdfrwt beam="1">  1       21 0.32289354E+00 0.23248664E+03</pdfrwt>
<pdfrwt beam="2">  1       21 0.15089263E-01 0.23248664E+03</pdfrwt>
<totfact> 0.92790381E+02</totfact>
</mgrwt>
</event>
<event>
 4    1  0.1132373E+000  0.1992966E+03  0.7546771E-02  0.1150334E+00
         21   -1    0    0  503  502  0.00000000000E+00  0.00000000000E+00  0.97422750717E+03  0.97422750717E+03  0.00000000000E+00 0.  1.
         21   -1    0    0  501  503 -0.00000000000E+00 -0.00000000000E+00 -0.43328569101E+02  0.43328569101E+02  0.00000000000E+00 0. -1.
          6    1    1    2  501    0  0.10060100685E+03 -0.38199565478E+01  0.34181244553E+03  0.39567019419E+03  0.17200000000E+03 0. -1.
         -6    1    1    2    0  502 -0.10060100685E+03  0.38199565478E+01  0.58908649254E+03  0.62188588209E+03  0.17200000000E+03 0.  1.
<mgrwt>
<rscale>  2 0.19929665E+03</rscale>
<asrwt>0</asrwt>
<pdfrwt beam="1">  1       21 0.24355681E+00 0.19929665E+03</pdfrwt>
<pdfrwt beam="2">  1       21 0.10832145E-01 0.19929665E+03</pdfrwt>
<totfact> 0.50773684E+03</totfact>
</mgrwt>
</event>
<event>
 4    1  0.1132373E+000  0.2042056E+03  0.7546771E-02  0.1146238E+00
         21   -1    0    0  501  502  0.00000000000E+00  0.00000000000E+00  0.13604145456E+03  0.13604145456E+03  0.00000000000E+00 0.  1.
         21   -1    0    0  502  503 -0.00000000000E+00 -0.00000000000E+00 -0.35922054143E+03  0.35922054143E+03  0.00000000000E+00 0.  1.
          6    1    1    2  501    0 -0.48461808179E+02  0.98830075506E+02 -0.20643503650E+03  0.29037106428E+03  0.17200000000E+03 0.  1.
         -6    1    1    2    0  503  0.48461808179E+02 -0.98830075506E+02 -0.16744050366E+02  0.20489093172E+03  0.17200000000E+03 0.  1.
<mgrwt>
<rscale>  2 0.20420561E+03</rscale>
<asrwt>0</asrwt>
<pdfrwt beam="1">  1       21 0.34010364E-01 0.20420561E+03</pdfrwt>
<pdfrwt beam="2">  1       21 0.89805135E-01 0.20420561E+03</pdfrwt>
<totfact> 0.87226554E+03</totfact>
</mgrwt>
</event>
<event>
 4    1  0.1132373E+000  0.2234889E+03  0.7546771E-02  0.1131308E+00
         21   -1    0    0  503  502  0.00000000000E+00  0.00000000000E+00  0.12185236403E+03  0.12185236403E+03  0.00000000000E+00 0.  1.
         21   -1    0    0  501  503 -0.00000000000E+00 -0.00000000000E+00 -0.41537630692E+03  0.41537630692E+03  0.00000000000E+00 0.  1.
          6    1    1    2  501    0 -0.13986044013E+03  0.28326034360E+02 -0.17760412949E+03  0.28546546857E+03  0.17200000000E+03 0.  1.
         -6    1    1    2    0  502  0.13986044013E+03 -0.28326034360E+02 -0.11591981339E+03  0.25176320238E+03  0.17200000000E+03 0.  1.
<mgrwt>
<rscale>  2 0.22348894E+03</rscale>
<asrwt>0</asrwt>
<pdfrwt beam="1">  1       21 0.30463091E-01 0.22348894E+03</pdfrwt>
<pdfrwt beam="2">  1       21 0.10384408E+00 0.22348894E+03</pdfrwt>
<totfact> 0.75911371E+03</totfact>
</mgrwt>
</event>
<event>
 4    1  0.1132373E+000  0.1835633E+03  0.7546771E-02  0.1164398E+00
         21   -1    0    0  501  502  0.00000000000E+00  0.00000000000E+00  0.14698447136E+03  0.14698447136E+03  0.00000000000E+00 0. -1.
         21   -1    0    0  502  503 -0.00000000000E+00 -0.00000000000E+00 -0.28038334335E+03  0.28038334335E+03  0.00000000000E+00 0. -1.
          6    1    1    2  501    0 -0.58158383690E+02 -0.27001414535E+02  0.24558048726E+02  0.18519873579E+03  0.17200000000E+03 0. -1.
         -6    1    1    2    0  503  0.58158383690E+02  0.27001414535E+02 -0.15795692072E+03  0.24216907892E+03  0.17200000000E+03 0. -1.
<mgrwt>
<rscale>  2 0.18356327E+03</rscale>
<asrwt>0</asrwt>
<pdfrwt beam="1">  1       21 0.36746118E-01 0.18356327E+03</pdfrwt>
<pdfrwt beam="2">  1       21 0.70095835E-01 0.18356327E+03</pdfrwt>
<totfact> 0.13272953E+04</totfact>
</mgrwt>
</event>
<event>
 4    1  0.1132373E+000  0.2974602E+03  0.7546771E-02  0.1086517E+00
         21   -1    0    0  501  502  0.00000000000E+00  0.00000000000E+00  0.70262564327E+03  0.70262564327E+03  0.00000000000E+00 0. -1.
         21   -1    0    0  502  503 -0.00000000000E+00 -0.00000000000E+00 -0.12687359406E+03  0.12687359406E+03  0.00000000000E+00 0.  1.
          6    1    1    2  501    0 -0.49677005532E+02  0.23755162213E+03  0.32361876931E+03  0.43955851249E+03  0.17200000000E+03 0.  1.
         -6    1    1    2    0  503  0.49677005532E+02 -0.23755162213E+03  0.25213327990E+03  0.38994072484E+03  0.17200000000E+03 0. -1.
<mgrwt>
<rscale>  2 0.29746021E+03</rscale>
<asrwt>0</asrwt>
<pdfrwt beam="1">  1       21 0.17565640E+00 0.29746021E+03</pdfrwt>
<pdfrwt beam="2">  1       21 0.31718400E-01 0.29746021E+03</pdfrwt>
<totfact> 0.17090204E+03</totfact>
</mgrwt>
</event>
<event>
 4    1  0.1132373E+000  0.2985606E+03  0.7546771E-02  0.1085962E+00
         21   -1    0    0  503  502  0.00000000000E+00  0.00000000000E+00  0.39777796448E+03  0.39777796448E+03  0.00000000000E+00 0. -1.
         21   -1    0    0  501  503 -0.00000000000E+00 -0.00000000000E+00 -0.24035162338E+03  0.24035162338E+03  0.00000000000E+00 0.  1.
          6    1    1    2  501    0 -0.64972339939E+02  0.23522978141E+03  0.16170286788E+03  0.33953832258E+03  0.17200000000E+03 0. -1.
         -6    1    1    2    0  502  0.64972339939E+02 -0.23522978141E+03 -0.42765267760E+01  0.29859126528E+03  0.17200000000E+03 0.  1.
<mgrwt>
<rscale>  2 0.29856064E+03</rscale>
<asrwt>0</asrwt>
<pdfrwt beam="1">  1       21 0.99444490E-01 0.29856064E+03</pdfrwt>
<pdfrwt beam="2">  1       21 0.60087906E-01 0.29856064E+03</pdfrwt>
<totfact> 0.19873544E+03</totfact>
</mgrwt>
</event>
<event>
 4    1  0.1132373E+000  0.2155901E+03  0.7546771E-02  0.1137214E+00
         21   -1    0    0  503  502  0.00000000000E+00  0.00000000000E+00  0.56931438755E+03  0.56931438755E+03  0.00000000000E+00 0. -1.
         21   -1    0    0  501  503 -0.00000000000E+00 -0.00000000000E+00 -0.13203689554E+03  0.13203689554E+03  0.00000000000E+00 0. -1.
          6    1    1    2  501    0  0.11899975780E+03  0.52289249482E+02  0.43528825580E+03  0.48575196716E+03  0.17200000000E+03 0. -1.
         -6    1    1    2    0  502 -0.11899975780E+03 -0.52289249482E+02  0.19892362085E+01  0.21559931593E+03  0.17200000000E+03 0. -1.
<mgrwt>
<rscale>  2 0.21559014E+03</rscale>
<asrwt>0</asrwt>
<pdfrwt beam="1">  1       21 0.14232859E+00 0.21559014E+03</pdfrwt>
<pdfrwt beam="2">  1       21 0.33009225E-01 0.21559014E+03</pdfrwt>
<totfact> 0.29695901E+03</totfact>
</mgrwt>
</event>
<event>
 4    1  0.1132373E+000  0.1826359E+03  0.7546771E-02  0.1165276E+00
         21   -1    0    0  501  502  0.00000000000E+00  0.00000000000E+00  0.27901176929E+03  0.27901176929E+03  0.00000000000E+00 0.  1.
         21   -1    0    0  502  503 -0.00000000000E+00 -0.00000000000E+00 -0.13819514468E+03  0.13819514468E+03  0.00000000000E+00 0.  1.
          6    1    1    2  501    0  0.25106399677E+02  0.56049532312E+02 -0.62143029140E+01  0.18274161797E+03  0.17200000000E+03 0.  1.
         -6    1    1    2    0  503 -0.25106399677E+02 -0.56049532312E+02  0.14703092752E+03  0.23446529599E+03  0.17200000000E+03 0.  1.
<mgrwt>
<rscale>  2 0.18263593E+03</rscale>
<asrwt>0</asrwt>
<pdfrwt beam="1">  1       21 0.69752941E-01 0.18263593E+03</pdfrwt>
<pdfrwt beam="2">  1       21 0.34548787E-01 0.18263593E+03</pdfrwt>
<totfact> 0.15174699E+04</totfact>
</mgrwt>
</event>
<event>
 4    1  0.1132373E+000  0.2283317E+03  0.7546771E-02  0.1127820E+00
         21   -1    0    0  503  502  0.00000000000E+00  0.00000000000E+00  0.12080081888E+03  0.12080081888E+03  0.00000000000E+00 0.  1.
         21   -1    0    0  501  503 -0.00000000000E+00 -0.00000000000E+00 -0.76454391920E+03  0.76454391920E+03  0.00000000000E+00 0.  1.
          6    1    1    2  501    0 -0.14554735584E+03  0.36977441739E+02 -0.61400345576E+03  0.65508442790E+03  0.17200000000E+03 0.  1.
         -6    1    1    2    0  502  0.14554735584E+03 -0.36977441739E+02 -0.29739644557E+02  0.23026031019E+03  0.17200000000E+03 0.  1.
<mgrwt>
<rscale>  2 0.22833170E+03</rscale>
<asrwt>0</asrwt>
<pdfrwt beam="1">  1       21 0.30200205E-01 0.22833170E+03</pdfrwt>
<pdfrwt beam="2">  1       21 0.19113598E+00 0.22833170E+03</pdfrwt>
<totfact> 0.15567113E+03</totfact>
</mgrwt>
</event>
<event>
 4    1  0.1132373E+000  0.1829933E+03  0.7546771E-02  0.1164937E+00
         21   -1    0    0  501  502  0.00000000000E+00  0.00000000000E+00  0.33493447730E+03  0.33493447730E+03  0.00000000000E+00 0. -1.
         21   -1    0    0  502  503 -0.00000000000E+00 -0.00000000000E+00 -0.10472909540E+03  0.10472909540E+03  0.00000000000E+00 0. -1.
          6    1    1    2  501    0 -0.49022897306E+02  0.38721016278E+02  0.68287386510E+02  0.19531955539E+03  0.17200000000E+03 0. -1.
         -6    1    1    2    0  503  0.49022897306E+02 -0.38721016278E+02  0.16191799539E+03  0.24434401731E+03  0.17200000000E+03 0. -1.
<mgrwt>
<rscale>  2 0.18299334E+03</rscale>
<asrwt>0</asrwt>
<pdfrwt beam="1">  1       21 0.83733617E-01 0.18299334E+03</pdfrwt>
<pdfrwt beam="2">  1       21 0.26182275E-01 0.18299334E+03</pdfrwt>
<totfact> 0.17297072E+04</totfact>
</mgrwt>
</event>
<event>
 4    1  0.1132373E+000  0.3239271E+03  0.7546771E-02  0.1073856E+00
         21   -1    0    0  501  502  0.00000000000E+00  0.00000000000E+00  0.43860552075E+03  0.43860552075E+03  0.00000000000E+00 0. -1.
         21   -1    0    0  502  503 -0.00000000000E+00 -0.00000000000E+00 -0.24003257678E+03  0.24003257678E+03  0.00000000000E+00 0. -1.
          6    1    1    2  501    0  0.92446040515E+02  0.25845410142E+03  0.11887394961E+03  0.34505044391E+03  0.17200000000E+03 0. -1.
         -6    1    1    2    0  503 -0.92446040515E+02 -0.25845410142E+03  0.79698994358E+02  0.33358765362E+03  0.17200000000E+03 0. -1.
<mgrwt>
<rscale>  2 0.32392714E+03</rscale>
<asrwt>0</asrwt>
<pdfrwt beam="1">  1       21 0.10965138E+00 0.32392714E+03</pdfrwt>
<pdfrwt beam="2">  1       21 0.60008145E-01 0.32392714E+03</pdfrwt>
<totfact> 0.15487313E+03</totfact>
</mgrwt>
</event>
<event>
 4    1  0.1132373E+000  0.1787213E+03  0.7546771E-02  0.1169046E+00
         21   -1    0    0  503  502  0.00000000000E+00  0.00000000000E+00  0.10307728150E+04  0.10307728150E+04  0.00000000000E+00 0.  1.
         21   -1    0    0  501  503 -0.00000000000E+00 -0.00000000000E+00 -0.31025479926E+02  0.31025479926E+02  0.00000000000E+00 0.  1.
          6    1    1    2  501    0  0.24631992502E+02  0.41839666456E+02  0.48135092300E+03  0.51345886283E+03  0.17200000000E+03 0.  1.
         -6    1    1    2    0  502 -0.24631992502E+02 -0.41839666456E+02  0.51839641210E+03  0.54833943212E+03  0.17200000000E+03 0.  1.
<mgrwt>
<rscale>  2 0.17872127E+03</rscale>
<asrwt>0</asrwt>
<pdfrwt beam="1">  1       21 0.25769309E+00 0.17872127E+03</pdfrwt>
<pdfrwt beam="2">  1       21 0.77563734E-02 0.17872127E+03</pdfrwt>
<totfact> 0.77004195E+03</totfact>
</mgrwt>
</event>
<event>
 4    1  0.1132373E+000  0.2022651E+03  0.7546771E-02  0.1147842E+00
         21   -1    0    0  503  502  0.00000000000E+00  0.00000000000E+00  0.63814694339E+03  0.63814694339E+03  0.00000000000E+00 0.  1.
         21   -1    0    0  501  503 -0.00000000000E+00 -0.00000000000E+00 -0.73566024743E+02  0.73566024743E+02  0.00000000000E+00 0.  1.
          6    1    1    2  501    0 -0.48402742503E+02 -0.94785775828E+02  0.15470356225E+03  0.25464555946E+03  0.17200000000E+03 0.  1.
         -6    1    1    2    0  502  0.48402742503E+02  0.94785775828E+02  0.40987735639E+03  0.45706740867E+03  0.17200000000E+03 0.  1.
<mgrwt>
<rscale>  2 0.20226510E+03</rscale>
<asrwt>0</asrwt>
<pdfrwt beam="1">  1       21 0.15953672E+00 0.20226510E+03</pdfrwt>
<pdfrwt beam="2">  1       21 0.18391508E-01 0.20226510E+03</pdfrwt>
<totfact> 0.67905184E+03</totfact>
</mgrwt>
</event>
<event>
 4    1  0.1132373E+000  0.2068783E+03  0.7546771E-02  0.1144062E+00
         21   -1    0    0  501  502  0.00000000000E+00  0.00000000000E+00  0.40148443321E+03  0.40148443321E+03  0.00000000000E+00 0.  1.
         21   -1    0    0  502  503 -0.00000000000E+00 -0.00000000000E+00 -0.12835244707E+03  0.12835244707E+03  0.00000000000E+00 0.  1.
          6    1    1    2  501    0 -0.10967969753E+03 -0.34423534392E+02  0.24562331882E+03  0.32113771270E+03  0.17200000000E+03 0.  1.
         -6    1    1    2    0  503  0.10967969753E+03  0.34423534392E+02  0.27508667310E+02  0.20869916758E+03  0.17200000000E+03 0.  1.
<mgrwt>
<rscale>  2 0.20687826E+03</rscale>
<asrwt>0</asrwt>
<pdfrwt beam="1">  1       21 0.10037111E+00 0.20687826E+03</pdfrwt>
<pdfrwt beam="2">  1       21 0.32088113E-01 0.20687826E+03</pdfrwt>
<totfact> 0.75228878E+03</totfact>
</mgrwt>
</event>
<event>
 4    1  0.1132373E+000  0.1873170E+03  0.7546771E-02  0.1160904E+00
         21   -1    0    0  503  502  0.00000000000E+00  0.00000000000E+00  0.35727747139E+03  0.35727747139E+03  0.00000000000E+00 0. -1.
         21   -1    0    0  501  503 -0.00000000000E+00 -0.00000000000E+00 -0.98384747484E+02  0.98384747484E+02  0.00000000000E+00 0. -1.
          6    1    1    2  501    0 -0.70506602583E+02  0.23075381703E+02  0.11980107696E+03  0.22235096647E+03  0.17200000000E+03 0. -1.
         -6    1    1    2    0  502  0.70506602583E+02 -0.23075381703E+02  0.13909164694E+03  0.23331125240E+03  0.17200000000E+03 0. -1.
<mgrwt>
<rscale>  2 0.18731699E+03</rscale>
<asrwt>0</asrwt>
<pdfrwt beam="1">  1       21 0.89319365E-01 0.18731699E+03</pdfrwt>
<pdfrwt beam="2">  1       21 0.24596188E-01 0.18731699E+03</pdfrwt>
<totfact> 0.16761945E+04</totfact>
</mgrwt>
</event>
<event>
 4    1  0.1132373E+000  0.1893193E+03  0.7546771E-02  0.1159077E+00
         21   -1    0    0  503  502  0.00000000000E+00  0.00000000000E+00  0.19061611158E+03  0.19061611158E+03  0.00000000000E+00 0.  1.
         21   -1    0    0  501  503 -0.00000000000E+00 -0.00000000000E+00 -0.20246097070E+03  0.20246097070E+03  0.00000000000E+00 0.  1.
          6    1    1    2  501    0  0.12305189524E+02  0.78143217982E+02  0.46547015305E+02  0.19495744366E+03  0.17200000000E+03 0.  1.
         -6    1    1    2    0  502 -0.12305189524E+02 -0.78143217982E+02 -0.58391874428E+02  0.19811963862E+03  0.17200000000E+03 0.  1.
<mgrwt>
<rscale>  2 0.18931925E+03</rscale>
<asrwt>0</asrwt>
<pdfrwt beam="1">  1       21 0.47654028E-01 0.18931925E+03</pdfrwt>
<pdfrwt beam="2">  1       21 0.50615243E-01 0.18931925E+03</pdfrwt>
<totfact> 0.15672439E+04</totfact>
</mgrwt>
</event>
<event>
 4    1  0.1132373E+000  0.2102638E+03  0.7546771E-02  0.1141357E+00
         21   -1    0    0  503  502  0.00000000000E+00  0.00000000000E+00  0.29735390855E+03  0.29735390855E+03  0.00000000000E+00 0.  1.
         21   -1    0    0  501  503 -0.00000000000E+00 -0.00000000000E+00 -0.14983623641E+03  0.14983623641E+03  0.00000000000E+00 0.  1.
          6    1    1    2  501    0 -0.83658438051E+02 -0.87339217900E+02  0.54125627479E+02  0.21711853166E+03  0.17200000000E+03 0.  1.
         -6    1    1    2    0  502  0.83658438051E+02  0.87339217900E+02  0.93392044660E+02  0.23007161330E+03  0.17200000000E+03 0.  1.
<mgrwt>
<rscale>  2 0.21026382E+03</rscale>
<asrwt>0</asrwt>
<pdfrwt beam="1">  1       21 0.74338476E-01 0.21026382E+03</pdfrwt>
<pdfrwt beam="2">  1       21 0.37459060E-01 0.21026382E+03</pdfrwt>
<totfact> 0.11015040E+04</totfact>
</mgrwt>
</event>
<event>
 4    1  0.1132373E+000  0.2198038E+03  0.7546771E-02  0.1134029E+00
         21   -1    0    0  503  502  0.00000000000E+00  0.00000000000E+00  0.48123566093E+02  0.48123566093E+02  0.00000000000E+00 0. -1.
         21   -1    0    0  501  503 -0.00000000000E+00 -0.00000000000E+00 -0.13354112875E+04  0.13354112875E+04  0.00000000000E+00 0. -1.
          6    1    1    2  501    0  0.12735896176E+03  0.50094023300E+02 -0.98828581778E+03  0.10124339850E+04  0.17200000000E+03 0.  1.
         -6    1    1    2    0  502 -0.12735896176E+03 -0.50094023300E+02 -0.29900190360E+03  0.37110086859E+03  0.17200000000E+03 0.  1.
<mgrwt>
<rscale>  2 0.21980381E+03</rscale>
<asrwt>0</asrwt>
<pdfrwt beam="1">  1       21 0.12030892E-01 0.21980381E+03</pdfrwt>
<pdfrwt beam="2">  1       21 0.33385282E+00 0.21980381E+03</pdfrwt>
<totfact> 0.12255500E+03</totfact>
</mgrwt>
</event>
<event>
 4    1  0.1132373E+000  0.1872584E+03  0.7546771E-02  0.1160958E+00
         21   -1    0    0  501  502  0.00000000000E+00  0.00000000000E+00  0.61101171092E+03  0.61101171092E+03  0.00000000000E+00 0. -1.
         21   -1    0    0  502  503 -0.00000000000E+00 -0.00000000000E+00 -0.65976695878E+02  0.65976695878E+02  0.00000000000E+00 0. -1.
          6    1    1    2  501    0  0.60973826094E+02 -0.41998987200E+02  0.39463529183E+03  0.43680972511E+03  0.17200000000E+03 0. -1.
         -6    1    1    2    0  503 -0.60973826094E+02  0.41998987200E+02  0.15039972321E+03  0.24017868169E+03  0.17200000000E+03 0. -1.
<mgrwt>
<rscale>  2 0.18725844E+03</rscale>
<asrwt>0</asrwt>
<pdfrwt beam="1">  1       21 0.15275291E+00 0.18725844E+03</pdfrwt>
<pdfrwt beam="2">  1       21 0.16494176E-01 0.18725844E+03</pdfrwt>
<totfact> 0.94343137E+03</totfact>
</mgrwt>
</event>
<event>
 4    1  0.1132373E+000  0.2523419E+03  0.7546771E-02  0.1111834E+00
         21   -1    0    0  503  502  0.00000000000E+00  0.00000000000E+00  0.55434325569E+02  0.55434325569E+02  0.00000000000E+00 0.  1.
         21   -1    0    0  501  503 -0.00000000000E+00 -0.00000000000E+00 -0.11594729236E+04  0.11594729236E+04  0.00000000000E+00 0. -1.
          6    1    1    2  501    0  0.14555346269E+02  0.18406681160E+03 -0.49341916627E+03  0.55420115742E+03  0.17200000000E+03 0. -1.
         -6    1    1    2    0  502 -0.14555346269E+02 -0.18406681160E+03 -0.61061943181E+03  0.66070609180E+03  0.17200000000E+03 0.  1.
<mgrwt>
<rscale>  2 0.25234193E+03</rscale>
<asrwt>0</asrwt>
<pdfrwt beam="1">  1       21 0.13858582E-01 0.25234193E+03</pdfrwt>
<pdfrwt beam="2">  1       21 0.28986823E+00 0.25234193E+03</pdfrwt>
<totfact> 0.16548391E+03</totfact>
</mgrwt>
</event>
<event>
 4    1  0.1132373E+000  0.2158863E+03  0.7546771E-02  0.1136988E+00
         21   -1    0    0  501  502  0.00000000000E+00  0.00000000000E+00  0.25662505196E+03  0.25662505196E+03  0.00000000000E+00 0.  1.
         21   -1    0    0  502  503 -0.00000000000E+00 -0.00000000000E+00 -0.22336135257E+03  0.22336135257E+03  0.00000000000E+00 0. -1.
          6    1    1    2  501    0  0.33340440928E+02 -0.12614005137E+03  0.12038598971E+03  0.24718350284E+03  0.17200000000E+03 0.  1.
         -6    1    1    2    0  503 -0.33340440928E+02  0.12614005137E+03 -0.87122290318E+02  0.23280290168E+03  0.17200000000E+03 0. -1.
<mgrwt>
<rscale>  2 0.21588631E+03</rscale>
<asrwt>0</asrwt>
<pdfrwt beam="1">  1       21 0.64156263E-01 0.21588631E+03</pdfrwt>
<pdfrwt beam="2">  1       21 0.55840338E-01 0.21588631E+03</pdfrwt>
<totfact> 0.66602791E+03</totfact>
</mgrwt>
</event>
<event>
 4    1  0.1132373E+000  0.1898212E+03  0.7546771E-02  0.1158623E+00
         21   -1    0    0  503  502  0.00000000000E+00  0.00000000000E+00  0.25139057936E+03  0.25139057936E+03  0.00000000000E+00 0. -1.
         21   -1    0    0  501  503 -0.00000000000E+00 -0.00000000000E+00 -0.23506563644E+03  0.23506563644E+03  0.00000000000E+00 0. -1.
          6    1    1    2  501    0  0.78228157595E+02  0.18122922069E+02 -0.14378226327E+03  0.23812900742E+03  0.17200000000E+03 0. -1.
         -6    1    1    2    0  502 -0.78228157595E+02 -0.18122922069E+02  0.16010720619E+03  0.24832720838E+03  0.17200000000E+03 0. -1.
<mgrwt>
<rscale>  2 0.18982119E+03</rscale>
<asrwt>0</asrwt>
<pdfrwt beam="1">  1       21 0.62847645E-01 0.18982119E+03</pdfrwt>
<pdfrwt beam="2">  1       21 0.58766409E-01 0.18982119E+03</pdfrwt>
<totfact> 0.63659523E+03</totfact>
</mgrwt>
</event>
<event>
 4    1  0.1132373E+000  0.2161018E+03  0.7546771E-02  0.1136823E+00
         21   -1    0    0  503  502  0.00000000000E+00  0.00000000000E+00  0.76369910818E+03  0.76369910818E+03  0.00000000000E+00 0. -1.
         21   -1    0    0  501  503 -0.00000000000E+00 -0.00000000000E+00 -0.62631724642E+02  0.62631724642E+02  0.00000000000E+00 0. -1.
          6    1    1    2  501    0  0.63156043779E+02 -0.11457445899E+03  0.28697858846E+03  0.35924462801E+03  0.17200000000E+03 0. -1.
         -6    1    1    2    0  502 -0.63156043779E+02  0.11457445899E+03  0.41408879508E+03  0.46708620481E+03  0.17200000000E+03 0. -1.
<mgrwt>
<rscale>  2 0.21610181E+03</rscale>
<asrwt>0</asrwt>
<pdfrwt beam="1">  1       21 0.19092475E+00 0.21610181E+03</pdfrwt>
<pdfrwt beam="2">  1       21 0.15657934E-01 0.21610181E+03</pdfrwt>
<totfact> 0.54665258E+03</totfact>
</mgrwt>
</event>
<event>
 4    1  0.1132373E+000  0.2005572E+03  0.7546771E-02  0.1149270E+00
         21   -1    0    0  501  502  0.00000000000E+00  0.00000000000E+00  0.29786750989E+03  0.29786750989E+03  0.00000000000E+00 0.  1.
         21   -1    0    0  502  503 -0.00000000000E+00 -0.00000000000E+00 -0.20188577688E+03  0.20188577688E+03  0.00000000000E+00 0.  1.
          6    1    1    2  501    0  0.45366508283E+02  0.92634108982E+02 -0.95795875800E+02  0.22226121578E+03  0.17200000000E+03 0.  1.
         -6    1    1    2    0  503 -0.45366508283E+02 -0.92634108982E+02  0.19177760880E+03  0.27749207098E+03  0.17200000000E+03 0.  1.
<mgrwt>
<rscale>  2 0.20055722E+03</rscale>
<asrwt>0</asrwt>
<pdfrwt beam="1">  1       21 0.74466877E-01 0.20055722E+03</pdfrwt>
<pdfrwt beam="2">  1       21 0.50471445E-01 0.20055722E+03</pdfrwt>
<totfact> 0.60000733E+03</totfact>
</mgrwt>
</event>
<event>
 4    1  0.1132373E+000  0.2062394E+03  0.7546771E-02  0.1144579E+00
         21   -1    0    0  503  502  0.00000000000E+00  0.00000000000E+00  0.75632748108E+03  0.75632748108E+03  0.00000000000E+00 0.  1.
         21   -1    0    0  501  503 -0.00000000000E+00 -0.00000000000E+00 -0.30051457970E+03  0.30051457970E+03  0.00000000000E+00 0. -1.
          6    1    1    2  501    0  0.16570174570E+01  0.11378896589E+03 -0.24851120523E+03  0.32294348358E+03  0.17200000000E+03 0. -1.
         -6    1    1    2    0  502 -0.16570174570E+01 -0.11378896589E+03  0.70432410660E+03  0.73389857719E+03  0.17200000000E+03 0.  1.
<mgrwt>
<rscale>  2 0.20623936E+03</rscale>
<asrwt>0</asrwt>
<pdfrwt beam="1">  1       21 0.18908187E+00 0.20623936E+03</pdfrwt>
<pdfrwt beam="2">  1       21 0.75128646E-01 0.20623936E+03</pdfrwt>
<totfact> 0.24623959E+02</totfact>
</mgrwt>
</event>
<event>
 4    1  0.1132373E+000  0.1861603E+03  0.7546771E-02  0.1161971E+00
         21   -1    0    0  503  502  0.00000000000E+00  0.00000000000E+00  0.53194459500E+03  0.53194459500E+03  0.00000000000E+00 0. -1.
         21   -1    0    0  501  503 -0.00000000000E+00 -0.00000000000E+00 -0.66639987858E+02  0.66639987858E+02  0.00000000000E+00 0. -1.
          6    1    1    2  501    0  0.70594809010E+02 -0.93823672082E+01  0.27742011124E+03  0.33409216392E+03  0.17200000000E+03 0. -1.
         -6    1    1    2    0  502 -0.70594809010E+02  0.93823672082E+01  0.18788449590E+03  0.26449241893E+03  0.17200000000E+03 0. -1.
<mgrwt>
<rscale>  2 0.18616030E+03</rscale>
<asrwt>0</asrwt>
<pdfrwt beam="1">  1       21 0.13298614E+00 0.18616030E+03</pdfrwt>
<pdfrwt beam="2">  1       21 0.16659999E-01 0.18616030E+03</pdfrwt>
<totfact> 0.13274148E+04</totfact>
</mgrwt>
</event>
<event>
 4    1  0.1132373E+000  0.1910119E+03  0.7546771E-02  0.1157552E+00
         21   -1    0    0  501  502  0.00000000000E+00  0.00000000000E+00  0.31585380163E+03  0.31585380163E+03  0.00000000000E+00 0. -1.
         21   -1    0    0  502  503 -0.00000000000E+00 -0.00000000000E+00 -0.14183153219E+03  0.14183153219E+03  0.00000000000E+00 0. -1.
          6    1    1    2  501    0  0.67057315418E+02 -0.49039590707E+02  0.18558741534E+03  0.26632358840E+03  0.17200000000E+03 0. -1.
         -6    1    1    2    0  503 -0.67057315418E+02  0.49039590707E+02 -0.11565145905E+02  0.19136174541E+03  0.17200000000E+03 0. -1.
<mgrwt>
<rscale>  2 0.19101195E+03</rscale>
<asrwt>0</asrwt>
<pdfrwt beam="1">  1       21 0.78963449E-01 0.19101195E+03</pdfrwt>
<pdfrwt beam="2">  1       21 0.35457884E-01 0.19101195E+03</pdfrwt>
<totfact> 0.10874967E+04</totfact>
</mgrwt>
</event>
<event>
 4    1  0.1132373E+000  0.1766805E+03  0.7546771E-02  0.1171055E+00
         21   -1    0    0  501  502  0.00000000000E+00  0.00000000000E+00  0.31237073096E+03  0.31237073096E+03  0.00000000000E+00 0.  1.
         21   -1    0    0  502  503 -0.00000000000E+00 -0.00000000000E+00 -0.10159495885E+03  0.10159495885E+03  0.00000000000E+00 0.  1.
          6    1    1    2  501    0  0.23086864303E+02 -0.33151045871E+02  0.13186500742E+03  0.22046400007E+03  0.17200000000E+03 0. -1.
         -6    1    1    2    0  503 -0.23086864303E+02  0.33151045871E+02  0.78910764692E+02  0.19350168973E+03  0.17200000000E+03 0. -1.
<mgrwt>
<rscale>  2 0.17668049E+03</rscale>
<asrwt>0</asrwt>
<pdfrwt beam="1">  1       21 0.78092681E-01 0.17668049E+03</pdfrwt>
<pdfrwt beam="2">  1       21 0.25398740E-01 0.17668049E+03</pdfrwt>
<totfact> 0.21547091E+04</totfact>
</mgrwt>
</event>
<event>
 4    1  0.1132373E+000  0.1845389E+03  0.7546771E-02  0.1163481E+00
         21   -1    0    0  501  502  0.00000000000E+00  0.00000000000E+00  0.68978809242E+03  0.68978809242E+03  0.00000000000E+00 0. -1.
         21   -1    0    0  502  503 -0.00000000000E+00 -0.00000000000E+00 -0.43283113939E+03  0.43283113939E+03  0.00000000000E+00 0.  1.
          6    1    1    2  501    0 -0.25406428787E+02  0.61847688979E+02  0.65680703750E+03  0.68223904004E+03  0.17200000000E+03 0. -1.
         -6    1    1    2    0  503  0.25406428787E+02 -0.61847688979E+02 -0.39985008446E+03  0.44038019176E+03  0.17200000000E+03 0.  1.
<mgrwt>
<rscale>  2 0.18453895E+03</rscale>
<asrwt>0</asrwt>
<pdfrwt beam="1">  1       21 0.17244702E+00 0.18453895E+03</pdfrwt>
<pdfrwt beam="2">  1       21 0.10820779E+00 0.18453895E+03</pdfrwt>
<totfact> 0.14098615E+02</totfact>
</mgrwt>
</event>
<event>
 4    1  0.1132373E+000  0.1963634E+03  0.7546771E-02  0.1152844E+00
         21   -1    0    0  503  502  0.00000000000E+00  0.00000000000E+00  0.24612488965E+02  0.24612488965E+02  0.00000000000E+00 0.  1.
         21   -1    0    0  501  503 -0.00000000000E+00 -0.00000000000E+00 -0.17761165174E+04  0.17761165174E+04  0.00000000000E+00 0. -1.
          6    1    1    2  501    0 -0.94670535470E+02  0.34765957316E+01 -0.11849690985E+04  0.12011287863E+04  0.17200000000E+03 0.  1.
         -6    1    1    2    0  502  0.94670535470E+02 -0.34765957316E+01 -0.56653492995E+03  0.59960022003E+03  0.17200000000E+03 0.  1.
<mgrwt>
<rscale>  2 0.19636343E+03</rscale>
<asrwt>0</asrwt>
<pdfrwt beam="1">  1       21 0.61531232E-02 0.19636343E+03</pdfrwt>
<pdfrwt beam="2">  1       21 0.44402906E+00 0.19636343E+03</pdfrwt>
<totfact> 0.85528252E+02</totfact>
</mgrwt>
</event>
<event>
 4    1  0.1132373E+000  0.1875335E+03  0.7546771E-02  0.1160705E+00
         21   -1    0    0  501  502  0.00000000000E+00  0.00000000000E+00  0.42223688695E+03  0.42223688695E+03  0.00000000000E+00 0.  1.
         21   -1    0    0  502  503 -0.00000000000E+00 -0.00000000000E+00 -0.88346503697E+02  0.88346503697E+02  0.00000000000E+00 0.  1.
          6    1    1    2  501    0 -0.34125292625E+02  0.66485123177E+02  0.22801074248E+03  0.29522483955E+03  0.17200000000E+03 0.  1.
         -6    1    1    2    0  503  0.34125292625E+02 -0.66485123177E+02  0.10587964077E+03  0.21535855110E+03  0.17200000000E+03 0.  1.
<mgrwt>
<rscale>  2 0.18753348E+03</rscale>
<asrwt>0</asrwt>
<pdfrwt beam="1">  1       21 0.10555922E+00 0.18753348E+03</pdfrwt>
<pdfrwt beam="2">  1       21 0.22086627E-01 0.18753348E+03</pdfrwt>
<totfact> 0.13868773E+04</totfact>
</mgrwt>
</event>
<event>
 4    1  0.1132373E+000  0.2465023E+03  0.7546771E-02  0.1115535E+00
         21   -1    0    0  503  502  0.00000000000E+00  0.00000000000E+00  0.19389846190E+03  0.19389846190E+03  0.00000000000E+00 0.  1.
         21   -1    0    0  501  503 -0.00000000000E+00 -0.00000000000E+00 -0.80806220839E+03  0.80806220839E+03  0.00000000000E+00 0.  1.
          6    1    1    2  501    0 -0.39762820979E+02 -0.17204160050E+03 -0.69906066631E+03  0.74124841276E+03  0.17200000000E+03 0.  1.
         -6    1    1    2    0  502  0.39762820979E+02  0.17204160050E+03  0.84896919814E+02  0.26071225753E+03  0.17200000000E+03 0.  1.
<mgrwt>
<rscale>  2 0.24650232E+03</rscale>
<asrwt>0</asrwt>
<pdfrwt beam="1">  1       21 0.48474616E-01 0.24650232E+03</pdfrwt>
<pdfrwt beam="2">  1       21 0.20201555E+00 0.24650232E+03</pdfrwt>
<totfact> 0.49952116E+02</totfact>
</mgrwt>
</event>
<event>
 4    1  0.1132373E+000  0.1870074E+03  0.7546771E-02  0.1161188E+00
         21   -1    0    0  501  502  0.00000000000E+00  0.00000000000E+00  0.27597244715E+03  0.27597244715E+03  0.00000000000E+00 0.  1.
         21   -1    0    0  502  503 -0.00000000000E+00 -0.00000000000E+00 -0.12687567065E+03  0.12687567065E+03  0.00000000000E+00 0.  1.
          6    1    1    2  501    0  0.18741785189E+02 -0.70968451332E+02  0.67537993503E+02  0.19882946503E+03  0.17200000000E+03 0.  1.
         -6    1    1    2    0  503 -0.18741785189E+02  0.70968451332E+02  0.81558782997E+02  0.20401865278E+03  0.17200000000E+03 0.  1.
<mgrwt>
<rscale>  2 0.18700742E+03</rscale>
<asrwt>0</asrwt>
<pdfrwt beam="1">  1       21 0.68993111E-01 0.18700742E+03</pdfrwt>
<pdfrwt beam="2">  1       21 0.31718918E-01 0.18700742E+03</pdfrwt>
<totfact> 0.18343848E+04</totfact>
</mgrwt>
</event>
<event>
 4    1  0.1132373E+000  0.1950213E+03  0.7546771E-02  0.1154009E+00
         21   -1    0    0  501  502  0.00000000000E+00  0.00000000000E+00  0.87419039379E+02  0.87419039379E+02  0.00000000000E+00 0. -1.
         21   -1    0    0  502  503 -0.00000000000E+00 -0.00000000000E+00 -0.50661178917E+03  0.50661178917E+03  0.00000000000E+00 0. -1.
          6    1    1    2  501    0 -0.50415295412E+02  0.76861064087E+02 -0.97981034097E+02  0.21825125023E+03  0.17200000000E+03 0. -1.
         -6    1    1    2    0  503  0.50415295412E+02 -0.76861064087E+02 -0.32121171570E+03  0.37577957832E+03  0.17200000000E+03 0. -1.
<mgrwt>
<rscale>  2 0.19502135E+03</rscale>
<asrwt>0</asrwt>
<pdfrwt beam="1">  1       21 0.21854760E-01 0.19502135E+03</pdfrwt>
<pdfrwt beam="2">  1       21 0.12665294E+00 0.19502135E+03</pdfrwt>
<totfact> 0.90061545E+03</totfact>
</mgrwt>
</event>
<event>
 4    1  0.1132373E+000  0.1753914E+03  0.7546771E-02  0.1172339E+00
         21   -1    0    0  501  502  0.00000000000E+00  0.00000000000E+00  0.58691967657E+02  0.58691967657E+02  0.00000000000E+00 0. -1.
         21   -1    0    0  502  503 -0.00000000000E+00 -0.00000000000E+00 -0.73632338366E+03  0.73632338366E+03  0.00000000000E+00 0. -1.
          6    1    1    2  501    0  0.29291391566E+02 -0.17893232395E+02 -0.12542361611E+03  0.21562290431E+03  0.17200000000E+03 0. -1.
         -6    1    1    2    0  503 -0.29291391566E+02  0.17893232395E+02 -0.55220779989E+03  0.57939244701E+03  0.17200000000E+03 0. -1.
<mgrwt>
<rscale>  2 0.17539143E+03</rscale>
<asrwt>0</asrwt>
<pdfrwt beam="1">  1       21 0.14672992E-01 0.17539143E+03</pdfrwt>
<pdfrwt beam="2">  1       21 0.18408084E+00 0.17539143E+03</pdfrwt>
<totfact> 0.70797449E+03</totfact>
</mgrwt>
</event>
<event>
 4    1  0.1132373E+000  0.1948495E+03  0.7546771E-02  0.1154159E+00
         21   -1    0    0  501  502  0.00000000000E+00  0.00000000000E+00  0.15077437808E+03  0.15077437808E+03  0.00000000000E+00 0.  1.
         21   -1    0    0  502  503 -0.00000000000E+00 -0.00000000000E+00 -0.26938768340E+03  0.26938768340E+03  0.00000000000E+00 0.  1.
          6    1    1    2  501    0 -0.91537820562E+02 -0.17774490603E+01 -0.11297179011E+03  0.22523089770E+03  0.17200000000E+03 0.  1.
         -6    1    1    2    0  503  0.91537820562E+02  0.17774490603E+01 -0.56415152169E+01  0.19493116378E+03  0.17200000000E+03 0.  1.
<mgrwt>
<rscale>  2 0.19484951E+03</rscale>
<asrwt>0</asrwt>
<pdfrwt beam="1">  1       21 0.37693595E-01 0.19484951E+03</pdfrwt>
<pdfrwt beam="2">  1       21 0.67346920E-01 0.19484951E+03</pdfrwt>
<totfact> 0.13672709E+04</totfact>
</mgrwt>
</event>
<event>
 4    1  0.1132373E+000  0.1720012E+03  0.7546771E-02  0.1175777E+00
         21   -1    0    0  503  502  0.00000000000E+00  0.00000000000E+00  0.84482272932E+02  0.84482272932E+02  0.00000000000E+00 0.  1.
         21   -1    0    0  501  503 -0.00000000000E+00 -0.00000000000E+00 -0.35826196113E+03  0.35826196113E+03  0.00000000000E+00 0.  1.
          6    1    1    2  501    0  0.59250679304E+00  0.24599849069E+00 -0.17012905885E+03  0.24192624546E+03  0.17200000000E+03 0.  1.
         -6    1    1    2    0  502 -0.59250679304E+00 -0.24599849069E+00 -0.10365062935E+03  0.20081798860E+03  0.17200000000E+03 0.  1.
<mgrwt>
<rscale>  2 0.17200120E+03</rscale>
<asrwt>0</asrwt>
<pdfrwt beam="1">  1       21 0.21120568E-01 0.17200120E+03</pdfrwt>
<pdfrwt beam="2">  1       21 0.89565489E-01 0.17200120E+03</pdfrwt>
<totfact> 0.22423126E+04</totfact>
</mgrwt>
</event>
<event>
 4    1  0.1132373E+000  0.1742475E+03  0.7546771E-02  0.1173489E+00
         21   -1    0    0  501  502  0.00000000000E+00  0.00000000000E+00  0.92914245148E+03  0.92914245148E+03  0.00000000000E+00 0. -1.
         21   -1    0    0  502  503 -0.00000000000E+00 -0.00000000000E+00 -0.15623465303E+03  0.15623465303E+03  0.00000000000E+00 0. -1.
          6    1    1    2  501    0 -0.20175075609E+02  0.19265675600E+02  0.86906315220E+03  0.88635938673E+03  0.17200000000E+03 0. -1.
         -6    1    1    2    0  503  0.20175075609E+02 -0.19265675600E+02 -0.96155353753E+02  0.19901771777E+03  0.17200000000E+03 0. -1.
<mgrwt>
<rscale>  2 0.17424752E+03</rscale>
<asrwt>0</asrwt>
<pdfrwt beam="1">  1       21 0.23228560E+00 0.17424752E+03</pdfrwt>
<pdfrwt beam="2">  1       21 0.39058666E-01 0.17424752E+03</pdfrwt>
<totfact> 0.54878217E+02</totfact>
</mgrwt>
</event>
<event>
 4    1  0.1132373E+000  0.1959840E+03  0.7546771E-02  0.1153172E+00
         21   -1    0    0  503  502  0.00000000000E+00  0.00000000000E+00  0.12009045589E+03  0.12009045589E+03  0.00000000000E+00 0. -1.
         21   -1    0    0  501  503 -0.00000000000E+00 -0.00000000000E+00 -0.33740154734E+03  0.33740154734E+03  0.00000000000E+00 0. -1.
          6    1    1    2  501    0 -0.86072032077E+02 -0.37647722815E+02 -0.16084225236E+03  0.25353495988E+03  0.17200000000E+03 0. -1.
         -6    1    1    2    0  502  0.86072032077E+02  0.37647722815E+02 -0.56468839093E+02  0.20395704334E+03  0.17200000000E+03 0. -1.
<mgrwt>
<rscale>  2 0.19598404E+03</rscale>
<asrwt>0</asrwt>
<pdfrwt beam="1">  1       21 0.30022614E-01 0.19598404E+03</pdfrwt>
<pdfrwt beam="2">  1       21 0.84350386E-01 0.19598404E+03</pdfrwt>
<totfact> 0.12947226E+04</totfact>
</mgrwt>
</event>
<event>
 4    1  0.1132373E+000  0.2101801E+03  0.7546771E-02  0.1141423E+00
         21   -1    0    0  503  502  0.00000000000E+00  0.00000000000E+00  0.40235097982E+03  0.40235097982E+03  0.00000000000E+00 0. -1.
         21   -1    0    0  501  503 -0.00000000000E+00 -0.00000000000E+00 -0.15562718743E+03  0.15562718743E+03  0.00000000000E+00 0.  1.
          6    1    1    2  501    0  0.12053843906E+03  0.78838698899E+01 -0.28041329488E+02  0.21204241759E+03  0.17200000000E+03 0.  1.
         -6    1    1    2    0  502 -0.12053843906E+03 -0.78838698899E+01  0.27476512187E+03  0.34593574966E+03  0.17200000000E+03 0. -1.
<mgrwt>
<rscale>  2 0.21018009E+03</rscale>
<asrwt>0</asrwt>
<pdfrwt beam="1">  1       21 0.10058774E+00 0.21018009E+03</pdfrwt>
<pdfrwt beam="2">  1       21 0.38906798E-01 0.21018009E+03</pdfrwt>
<totfact> 0.50870373E+03</totfact>
</mgrwt>
</event>
<event>
 4    1  0.1132373E+000  0.2188785E+03  0.7546771E-02  0.1134722E+00
         21   -1    0    0  501  502  0.00000000000E+00  0.00000000000E+00  0.43975117392E+03  0.43975117392E+03  0.00000000000E+00 0.  1.
         21   -1    0    0  502  503 -0.00000000000E+00 -0.00000000000E+00 -0.13224459513E+03  0.13224459513E+03  0.00000000000E+00 0. -1.
          6    1    1    2  501    0  0.20015562194E+02 -0.13387747021E+03  0.27380461045E+03  0.35053782173E+03  0.17200000000E+03 0.  1.
         -6    1    1    2    0  503 -0.20015562194E+02  0.13387747021E+03  0.33701968342E+02  0.22145794732E+03  0.17200000000E+03 0. -1.
<mgrwt>
<rscale>  2 0.21887850E+03</rscale>
<asrwt>0</asrwt>
<pdfrwt beam="1">  1       21 0.10993779E+00 0.21887850E+03</pdfrwt>
<pdfrwt beam="2">  1       21 0.33061150E-01 0.21887850E+03</pdfrwt>
<totfact> 0.56472671E+03</totfact>
</mgrwt>
</event>
<event>
 4    1  0.1132373E+000  0.1986339E+03  0.7546771E-02  0.1150897E+00
         21   -1    0    0  503  502  0.00000000000E+00  0.00000000000E+00  0.45652566121E+03  0.45652566121E+03  0.00000000000E+00 0. -1.
         21   -1    0    0  501  503 -0.00000000000E+00 -0.00000000000E+00 -0.85011711344E+03  0.85011711344E+03  0.00000000000E+00 0.  1.
          6    1    1    2  501    0 -0.96709050833E+02 -0.22776772290E+02 -0.81601794273E+03  0.83984564340E+03  0.17200000000E+03 0.  1.
         -6    1    1    2    0  502  0.96709050833E+02  0.22776772290E+02  0.42242649050E+03  0.46679713126E+03  0.17200000000E+03 0. -1.
<mgrwt>
<rscale>  2 0.19863389E+03</rscale>
<asrwt>0</asrwt>
<pdfrwt beam="1">  1       21 0.11413142E+00 0.19863389E+03</pdfrwt>
<pdfrwt beam="2">  1       21 0.21252928E+00 0.19863389E+03</pdfrwt>
<totfact> 0.66219506E+01</totfact>
</mgrwt>
</event>
<event>
 4    1  0.1132373E+000  0.2222124E+03  0.7546771E-02  0.1132244E+00
         21   -1    0    0  503  502  0.00000000000E+00  0.00000000000E+00  0.23591832653E+03  0.23591832653E+03  0.00000000000E+00 0.  1.
         21   -1    0    0  501  503 -0.00000000000E+00 -0.00000000000E+00 -0.37766322005E+03  0.37766322005E+03  0.00000000000E+00 0. -1.
          6    1    1    2  501    0  0.10939468440E+03 -0.88471268494E+02  0.13396529078E+03  0.25947073334E+03  0.17200000000E+03 0.  1.
         -6    1    1    2    0  502 -0.10939468440E+03  0.88471268494E+02 -0.27571018430E+03  0.35411081324E+03  0.17200000000E+03 0. -1.
<mgrwt>
<rscale>  2 0.22221243E+03</rscale>
<asrwt>0</asrwt>
<pdfrwt beam="1">  1       21 0.58979582E-01 0.22221243E+03</pdfrwt>
<pdfrwt beam="2">  1       21 0.94415805E-01 0.22221243E+03</pdfrwt>
<totfact> 0.24643414E+03</totfact>
</mgrwt>
</event>
<event>
 4    1  0.1132373E+000  0.3254029E+03  0.7546771E-02  0.1073189E+00
         21   -1    0    0  503  502  0.00000000000E+00  0.00000000000E+00  0.58704542411E+03  0.58704542411E+03  0.00000000000E+00 0. -1.
         21   -1    0    0  501  503 -0.00000000000E+00 -0.00000000000E+00 -0.25352602358E+03  0.25352602358E+03  0.00000000000E+00 0.  1.
          6    1    1    2  501    0 -0.26284724934E+03 -0.84937483587E+02 -0.59001845520E+02  0.33070873949E+03  0.17200000000E+03 0.  1.
         -6    1    1    2    0  502  0.26284724934E+03  0.84937483587E+02  0.39252124605E+03  0.50986270819E+03  0.17200000000E+03 0. -1.
<mgrwt>
<rscale>  2 0.32540291E+03</rscale>
<asrwt>0</asrwt>
<pdfrwt beam="1">  1       21 0.14676135E+00 0.32540291E+03</pdfrwt>
<pdfrwt beam="2">  1       21 0.63381507E-01 0.32540291E+03</pdfrwt>
<totfact> 0.65190393E+02</totfact>
</mgrwt>
</event>
<event>
 4    1  0.1132373E+000  0.1891344E+03  0.7546771E-02  0.1159244E+00
         21   -1    0    0  501  502  0.00000000000E+00  0.00000000000E+00  0.10625047182E+03  0.10625047182E+03  0.00000000000E+00 0. -1.
         21   -1    0    0  502  503 -0.00000000000E+00 -0.00000000000E+00 -0.59782984945E+03  0.59782984945E+03  0.00000000000E+00 0. -1.
          6    1    1    2  501    0 -0.76290616633E+02  0.19172189230E+02 -0.13113026883E+02  0.18958845561E+03  0.17200000000E+03 0. -1.
         -6    1    1    2    0  503  0.76290616633E+02 -0.19172189230E+02 -0.47846635075E+03  0.51449186566E+03  0.17200000000E+03 0. -1.
<mgrwt>
<rscale>  2 0.18913443E+03</rscale>
<asrwt>0</asrwt>
<pdfrwt beam="1">  1       21 0.26562618E-01 0.18913443E+03</pdfrwt>
<pdfrwt beam="2">  1       21 0.14945746E+00 0.18913443E+03</pdfrwt>
<totfact> 0.40822453E+03</totfact>
</mgrwt>
</event>
<event>
 4    1  0.1132373E+000  0.1860254E+03  0.7546771E-02  0.1162096E+00
         21   -1    0    0  503  502  0.00000000000E+00  0.00000000000E+00  0.22927524864E+03  0.22927524864E+03  0.00000000000E+00 0. -1.
         21   -1    0    0  501  503 -0.00000000000E+00 -0.00000000000E+00 -0.16522555025E+03  0.16522555025E+03  0.00000000000E+00 0. -1.
          6    1    1    2  501    0  0.64591172189E+02  0.29144989115E+02 -0.25987127456E+02  0.18783178833E+03  0.17200000000E+03 0.  1.
         -6    1    1    2    0  502 -0.64591172189E+02 -0.29144989115E+02  0.90036825852E+02  0.20666901056E+03  0.17200000000E+03 0.  1.
<mgrwt>
<rscale>  2 0.18602540E+03</rscale>
<asrwt>0</asrwt>
<pdfrwt beam="1">  1       21 0.57318812E-01 0.18602540E+03</pdfrwt>
<pdfrwt beam="2">  1       21 0.41306388E-01 0.18602540E+03</pdfrwt>
<totfact> 0.16193717E+04</totfact>
</mgrwt>
</event>
<event>
 4    1  0.1132373E+000  0.1729077E+03  0.7546771E-02  0.1174849E+00
         21   -1    0    0  501  502  0.00000000000E+00  0.00000000000E+00  0.22625899881E+02  0.22625899881E+02  0.00000000000E+00 0. -1.
         21   -1    0    0  502  503 -0.00000000000E+00 -0.00000000000E+00 -0.13221936045E+04  0.13221936045E+04  0.00000000000E+00 0. -1.
          6    1    1    2  501    0  0.13767359872E+02 -0.11115096814E+02 -0.63295691366E+03  0.65614902280E+03  0.17200000000E+03 0.  1.
         -6    1    1    2    0  503 -0.13767359872E+02  0.11115096814E+02 -0.66661079099E+03  0.68867048161E+03  0.17200000000E+03 0.  1.
<mgrwt>
<rscale>  2 0.17290774E+03</rscale>
<asrwt>0</asrwt>
<pdfrwt beam="1">  1       21 0.56564750E-02 0.17290774E+03</pdfrwt>
<pdfrwt beam="2">  1       21 0.33054840E+00 0.17290774E+03</pdfrwt>
<totfact> 0.50857987E+03</totfact>
</mgrwt>
</event>
<event>
 4    1  0.1132373E+000  0.2148360E+03  0.7546771E-02  0.1137793E+00
         21   -1    0    0  501  502  0.00000000000E+00  0.00000000000E+00  0.11322500464E+03  0.11322500464E+03  0.00000000000E+00 0. -1.
         21   -1    0    0  502  503 -0.00000000000E+00 -0.00000000000E+00 -0.45779410312E+03  0.45779410312E+03  0.00000000000E+00 0. -1.
          6    1    1    2  501    0 -0.76741704641E+02 -0.10335000071E+03 -0.77778630056E+02  0.22848200623E+03  0.17200000000E+03 0. -1.
         -6    1    1    2    0  503  0.76741704641E+02  0.10335000071E+03 -0.26679046843E+03  0.34253710152E+03  0.17200000000E+03 0. -1.
<mgrwt>
<rscale>  2 0.21483601E+03</rscale>
<asrwt>0</asrwt>
<pdfrwt beam="1">  1       21 0.28306251E-01 0.21483601E+03</pdfrwt>
<pdfrwt beam="2">  1       21 0.11444852E+00 0.21483601E+03</pdfrwt>
<totfact> 0.69606433E+03</totfact>
</mgrwt>
</event>
<event>
 4    1  0.1132373E+000  0.2489165E+03  0.7546771E-02  0.1113991E+00
         21   -1    0    0  501  502  0.00000000000E+00  0.00000000000E+00  0.43696782586E+03  0.43696782586E+03  0.00000000000E+00 0. -1.
         21   -1    0    0  502  503 -0.00000000000E+00 -0.00000000000E+00 -0.20692855487E+03  0.20692855487E+03  0.00000000000E+00 0. -1.
          6    1    1    2  501    0  0.16686061335E+03  0.67327250121E+02  0.29564612743E+03  0.38647904932E+03  0.17200000000E+03 0. -1.
         -6    1    1    2    0  503 -0.16686061335E+03 -0.67327250121E+02 -0.65606856449E+02  0.25741733141E+03  0.17200000000E+03 0. -1.
<mgrwt>
<rscale>  2 0.24891650E+03</rscale>
<asrwt>0</asrwt>
<pdfrwt beam="1">  1       21 0.10924195E+00 0.24891650E+03</pdfrwt>
<pdfrwt beam="2">  1       21 0.51732139E-01 0.24891650E+03</pdfrwt>
<totfact> 0.22517328E+03</totfact>
</mgrwt>
</event>
<event>
 4    1  0.1132373E+000  0.2038187E+03  0.7546771E-02  0.1146557E+00
         21   -1    0    0  501  502  0.00000000000E+00  0.00000000000E+00  0.17901069062E+03  0.17901069062E+03  0.00000000000E+00 0.  1.
         21   -1    0    0  502  503 -0.00000000000E+00 -0.00000000000E+00 -0.25676085565E+03  0.25676085565E+03  0.00000000000E+00 0. -1.
          6    1    1    2  501    0 -0.64787493221E+02 -0.88094525333E+02  0.28698823417E+02  0.20582926696E+03  0.17200000000E+03 0.  1.
         -6    1    1    2    0  503  0.64787493221E+02  0.88094525333E+02 -0.10644898844E+03  0.22994227931E+03  0.17200000000E+03 0. -1.
<mgrwt>
<rscale>  2 0.20381871E+03</rscale>
<asrwt>0</asrwt>
<pdfrwt beam="1">  1       21 0.44752673E-01 0.20381871E+03</pdfrwt>
<pdfrwt beam="2">  1       21 0.64190214E-01 0.20381871E+03</pdfrwt>
<totfact> 0.10652710E+04</totfact>
</mgrwt>
</event>
<event>
 4    1  0.1132373E+000  0.2125134E+03  0.7546771E-02  0.1139591E+00
         21   -1    0    0  501  502  0.00000000000E+00  0.00000000000E+00  0.67781344481E+03  0.67781344481E+03  0.00000000000E+00 0.  1.
         21   -1    0    0  502  503 -0.00000000000E+00 -0.00000000000E+00 -0.99297681646E+02  0.99297681646E+02  0.00000000000E+00 0.  1.
          6    1    1    2  501    0  0.12305499956E+03  0.20866700569E+02  0.51212713844E+03  0.55446925797E+03  0.17200000000E+03 0. -1.
         -6    1    1    2    0  503 -0.12305499956E+03 -0.20866700569E+02  0.66388624723E+02  0.22264186848E+03  0.17200000000E+03 0. -1.
<mgrwt>
<rscale>  2 0.21251342E+03</rscale>
<asrwt>0</asrwt>
<pdfrwt beam="1">  1       21 0.16945335E+00 0.21251342E+03</pdfrwt>
<pdfrwt beam="2">  1       21 0.24824422E-01 0.21251342E+03</pdfrwt>
<totfact> 0.32463280E+03</totfact>
</mgrwt>
</event>
<event>
 4    1  0.1132373E+000  0.2642753E+03  0.7546771E-02  0.1104601E+00
         21   -1    0    0  501  502  0.00000000000E+00  0.00000000000E+00  0.21889474060E+03  0.21889474060E+03  0.00000000000E+00 0. -1.
         21   -1    0    0  502  503 -0.00000000000E+00 -0.00000000000E+00 -0.36978605100E+03  0.36978605100E+03  0.00000000000E+00 0. -1.
          6    1    1    2  501    0 -0.12750003581E+03  0.15492314164E+03  0.33565982691E+02  0.26639841243E+03  0.17200000000E+03 0. -1.
         -6    1    1    2    0  503  0.12750003581E+03 -0.15492314164E+03 -0.18445729310E+03  0.32228237918E+03  0.17200000000E+03 0. -1.
<mgrwt>
<rscale>  2 0.26427531E+03</rscale>
<asrwt>0</asrwt>
<pdfrwt beam="1">  1       21 0.54723686E-01 0.26427531E+03</pdfrwt>
<pdfrwt beam="2">  1       21 0.92446512E-01 0.26427531E+03</pdfrwt>
<totfact> 0.29505031E+03</totfact>
</mgrwt>
</event>
<event>
 4    1  0.1132373E+000  0.1780675E+03  0.7546771E-02  0.1169687E+00
         21   -1    0    0  501  502  0.00000000000E+00  0.00000000000E+00  0.47160710133E+03  0.47160710133E+03  0.00000000000E+00 0.  1.
         21   -1    0    0  502  503 -0.00000000000E+00 -0.00000000000E+00 -0.67245850026E+02  0.67245850026E+02  0.00000000000E+00 0.  1.
          6    1    1    2  501    0  0.26911615751E+02  0.37413816840E+02  0.19860306081E+03  0.26674183121E+03  0.17200000000E+03 0.  1.
         -6    1    1    2    0  503 -0.26911615751E+02 -0.37413816840E+02  0.20575819049E+03  0.27211112014E+03  0.17200000000E+03 0.  1.
<mgrwt>
<rscale>  2 0.17806748E+03</rscale>
<asrwt>0</asrwt>
<pdfrwt beam="1">  1       21 0.11790177E+00 0.17806748E+03</pdfrwt>
<pdfrwt beam="2">  1       21 0.16811464E-01 0.17806748E+03</pdfrwt>
<totfact> 0.17734035E+04</totfact>
</mgrwt>
</event>
<event>
 4    1  0.1132373E+000  0.1785858E+03  0.7546771E-02  0.1169179E+00
         21   -1    0    0  503  502  0.00000000000E+00  0.00000000000E+00  0.11909967258E+03  0.11909967258E+03  0.00000000000E+00 0.  1.
         21   -1    0    0  501  503 -0.00000000000E+00 -0.00000000000E+00 -0.33389438123E+03  0.33389438123E+03  0.00000000000E+00 0.  1.
          6    1    1    2  501    0  0.37815963566E+02  0.29645147951E+02 -0.20818230136E+03  0.27428589555E+03  0.17200000000E+03 0.  1.
         -6    1    1    2    0  502 -0.37815963566E+02 -0.29645147951E+02 -0.66124072918E+01  0.17870815826E+03  0.17200000000E+03 0.  1.
<mgrwt>
<rscale>  2 0.17858578E+03</rscale>
<asrwt>0</asrwt>
<pdfrwt beam="1">  1       21 0.29774918E-01 0.17858578E+03</pdfrwt>
<pdfrwt beam="2">  1       21 0.83473594E-01 0.17858578E+03</pdfrwt>
<totfact> 0.13631147E+04</totfact>
</mgrwt>
</event>
<event>
 4    1  0.1132373E+000  0.1946688E+03  0.7546771E-02  0.1154316E+00
         21   -1    0    0  501  502  0.00000000000E+00  0.00000000000E+00  0.67956781508E+02  0.67956781508E+02  0.00000000000E+00 0. -1.
         21   -1    0    0  502  503 -0.00000000000E+00 -0.00000000000E+00 -0.68591643494E+03  0.68591643494E+03  0.00000000000E+00 0. -1.
          6    1    1    2  501    0  0.72334032608E+02  0.55495469238E+02 -0.47198174270E+03  0.51055139293E+03  0.17200000000E+03 0. -1.
         -6    1    1    2    0  503 -0.72334032608E+02 -0.55495469238E+02 -0.14597791073E+03  0.24332182352E+03  0.17200000000E+03 0. -1.
<mgrwt>
<rscale>  2 0.19466885E+03</rscale>
<asrwt>0</asrwt>
<pdfrwt beam="1">  1       21 0.16989196E-01 0.19466885E+03</pdfrwt>
<pdfrwt beam="2">  1       21 0.17147911E+00 0.19466885E+03</pdfrwt>
<totfact> 0.64965002E+03</totfact>
</mgrwt>
</event>
<event>
 4    1  0.1132373E+000  0.2850431E+03  0.7546771E-02  0.1092966E+00
         21   -1    0    0  503  502  0.00000000000E+00  0.00000000000E+00  0.13599010633E+03  0.13599010633E+03  0.00000000000E+00 0.  1.
         21   -1    0    0  501  503 -0.00000000000E+00 -0.00000000000E+00 -0.60658886684E+03  0.60658886684E+03  0.00000000000E+00 0. -1.
          6    1    1    2  501    0 -0.21705562852E+03  0.67471517890E+02 -0.18976746466E+03  0.34243428894E+03  0.17200000000E+03 0.  1.
         -6    1    1    2    0  502  0.21705562852E+03 -0.67471517890E+02 -0.28083129585E+03  0.40014468424E+03  0.17200000000E+03 0. -1.
<mgrwt>
<rscale>  2 0.28504307E+03</rscale>
<asrwt>0</asrwt>
<pdfrwt beam="1">  1       21 0.33997527E-01 0.28504307E+03</pdfrwt>
<pdfrwt beam="2">  1       21 0.15164722E+00 0.28504307E+03</pdfrwt>
<totfact> 0.22514642E+03</totfact>
</mgrwt>
</event>
<event>
 4    1  0.1132373E+000  0.2037083E+03  0.7546771E-02  0.1146648E+00
         21   -1    0    0  501  502  0.00000000000E+00  0.00000000000E+00  0.61313315763E+03  0.61313315763E+03  0.00000000000E+00 0.  1.
         21   -1    0    0  502  503 -0.00000000000E+00 -0.00000000000E+00 -0.12494585066E+03  0.12494585066E+03  0.00000000000E+00 0.  1.
          6    1    1    2  501    0 -0.94635518557E+02 -0.54379951749E+02  0.49393166130E+03  0.53428975899E+03  0.17200000000E+03 0.  1.
         -6    1    1    2    0  503  0.94635518557E+02  0.54379951749E+02 -0.57443543275E+01  0.20378924930E+03  0.17200000000E+03 0.  1.
<mgrwt>
<rscale>  2 0.20370827E+03</rscale>
<asrwt>0</asrwt>
<pdfrwt beam="1">  1       21 0.15328328E+00 0.20370827E+03</pdfrwt>
<pdfrwt beam="2">  1       21 0.31236464E-01 0.20370827E+03</pdfrwt>
<totfact> 0.27520259E+03</totfact>
</mgrwt>
</event>
<event>
 4    1  0.1132373E+000  0.2006388E+03  0.7546771E-02  0.1149201E+00
         21   -1    0    0  501  502  0.00000000000E+00  0.00000000000E+00  0.11457835806E+03  0.11457835806E+03  0.00000000000E+00 0. -1.
         21   -1    0    0  502  503 -0.00000000000E+00 -0.00000000000E+00 -0.86892320692E+03  0.86892320692E+03  0.00000000000E+00 0.  1.
          6    1    1    2  501    0 -0.23396122629E+02  0.10062088086E+03  0.23561888456E+01  0.20065266469E+03  0.17200000000E+03 0. -1.
         -6    1    1    2    0  503  0.23396122629E+02 -0.10062088086E+03 -0.75670103770E+03  0.78284890029E+03  0.17200000000E+03 0.  1.
<mgrwt>
<rscale>  2 0.20063883E+03</rscale>
<asrwt>0</asrwt>
<pdfrwt beam="1">  1       21 0.28644590E-01 0.20063883E+03</pdfrwt>
<pdfrwt beam="2">  1       21 0.21723080E+00 0.20063883E+03</pdfrwt>
<totfact> 0.12088159E+03</totfact>
</mgrwt>
</event>
<event>
 4    1  0.1132373E+000  0.1850937E+03  0.7546771E-02  0.1162962E+00
         21   -1    0    0  503  502  0.00000000000E+00  0.00000000000E+00  0.13716417491E+04  0.13716417491E+04  0.00000000000E+00 0.  1.
         21   -1    0    0  501  503 -0.00000000000E+00 -0.00000000000E+00 -0.26757837836E+02  0.26757837836E+02  0.00000000000E+00 0.  1.
          6    1    1    2  501    0  0.67321571256E+02  0.11979098238E+02  0.85281451824E+03  0.87266963696E+03  0.17200000000E+03 0.  1.
         -6    1    1    2    0  502 -0.67321571256E+02 -0.11979098238E+02  0.49206939303E+03  0.52572994998E+03  0.17200000000E+03 0.  1.
<mgrwt>
<rscale>  2 0.18509374E+03</rscale>
<asrwt>0</asrwt>
<pdfrwt beam="1">  1       21 0.34291020E+00 0.18509374E+03</pdfrwt>
<pdfrwt beam="2">  1       21 0.66894641E-02 0.18509374E+03</pdfrwt>
<totfact> 0.31811651E+03</totfact>
</mgrwt>
</event>
<event>
 4    1  0.1132373E+000  0.2285547E+03  0.7546771E-02  0.1127661E+00
         21   -1    0    0  503  502  0.00000000000E+00  0.00000000000E+00  0.29490095860E+03  0.29490095860E+03  0.00000000000E+00 0.  1.
         21   -1    0    0  501  503 -0.00000000000E+00 -0.00000000000E+00 -0.21849023701E+03  0.21849023701E+03  0.00000000000E+00 0.  1.
          6    1    1    2  501    0  0.28770107332E+02  0.14773467381E+03  0.14988349903E+03  0.27331724462E+03  0.17200000000E+03 0.  1.
         -6    1    1    2    0  502 -0.28770107332E+02 -0.14773467381E+03 -0.73472777445E+02  0.24007395100E+03  0.17200000000E+03 0.  1.
<mgrwt>
<rscale>  2 0.22855470E+03</rscale>
<asrwt>0</asrwt>
<pdfrwt beam="1">  1       21 0.73725239E-01 0.22855470E+03</pdfrwt>
<pdfrwt beam="2">  1       21 0.54622559E-01 0.22855470E+03</pdfrwt>
<totfact> 0.50914684E+03</totfact>
</mgrwt>
</event>
<event>
 4    1  0.1132373E+000  0.1809025E+03  0.7546771E-02  0.1166932E+00
         21   -1    0    0  503  502  0.00000000000E+00  0.00000000000E+00  0.75904291459E+03  0.75904291459E+03  0.00000000000E+00 0.  1.
         21   -1    0    0  501  503 -0.00000000000E+00 -0.00000000000E+00 -0.88034564970E+02  0.88034564970E+02  0.00000000000E+00 0.  1.
          6    1    1    2  501    0  0.40907167524E+02 -0.38318476500E+02  0.32961209680E+02  0.18388078567E+03  0.17200000000E+03 0.  1.
         -6    1    1    2    0  502 -0.40907167524E+02  0.38318476500E+02  0.63804713994E+03  0.66319669389E+03  0.17200000000E+03 0.  1.
<mgrwt>
<rscale>  2 0.18090247E+03</rscale>
<asrwt>0</asrwt>
<pdfrwt beam="1">  1       21 0.18976071E+00 0.18090247E+03</pdfrwt>
<pdfrwt beam="2">  1       21 0.22008644E-01 0.18090247E+03</pdfrwt>
<totfact> 0.30548250E+03</totfact>
</mgrwt>
</event>
<event>
 4    1  0.1132373E+000  0.2534864E+03  0.7546771E-02  0.1111121E+00
         21   -1    0    0  501  502  0.00000000000E+00  0.00000000000E+00  0.56396772989E+03  0.56396772989E+03  0.00000000000E+00 0.  1.
         21   -1    0    0  502  503 -0.00000000000E+00 -0.00000000000E+00 -0.20977791763E+03  0.20977791763E+03  0.00000000000E+00 0. -1.
          6    1    1    2  501    0 -0.18391172842E+03 -0.29117774632E+02  0.43859360666E+03  0.50657647049E+03  0.17200000000E+03 0.  1.
         -6    1    1    2    0  503  0.18391172842E+03  0.29117774632E+02 -0.84403794401E+02  0.26716917704E+03  0.17200000000E+03 0. -1.
<mgrwt>
<rscale>  2 0.25348643E+03</rscale>
<asrwt>0</asrwt>
<pdfrwt beam="1">  1       21 0.14099193E+00 0.25348643E+03</pdfrwt>
<pdfrwt beam="2">  1       21 0.52444481E-01 0.25348643E+03</pdfrwt>
<totfact> 0.11469168E+03</totfact>
</mgrwt>
</event>
<event>
 4    1  0.1132373E+000  0.1986781E+03  0.7546771E-02  0.1150859E+00
         21   -1    0    0  501  502  0.00000000000E+00  0.00000000000E+00  0.31729481217E+03  0.31729481217E+03  0.00000000000E+00 0. -1.
         21   -1    0    0  502  503 -0.00000000000E+00 -0.00000000000E+00 -0.14490957119E+03  0.14490957119E+03  0.00000000000E+00 0. -1.
          6    1    1    2  501    0 -0.15251078064E+02 -0.98266889409E+02  0.17312542360E+03  0.26352493095E+03  0.17200000000E+03 0. -1.
         -6    1    1    2    0  503  0.15251078064E+02  0.98266889409E+02 -0.74018262490E+00  0.19867945240E+03  0.17200000000E+03 0. -1.
<mgrwt>
<rscale>  2 0.19867807E+03</rscale>
<asrwt>0</asrwt>
<pdfrwt beam="1">  1       21 0.79323702E-01 0.19867807E+03</pdfrwt>
<pdfrwt beam="2">  1       21 0.36227393E-01 0.19867807E+03</pdfrwt>
<totfact> 0.10258793E+04</totfact>
</mgrwt>
</event>
<event>
 4    1  0.1132373E+000  0.2073076E+03  0.7546771E-02  0.1143716E+00
         21   -1    0    0  501  502  0.00000000000E+00  0.00000000000E+00  0.28410694815E+03  0.28410694815E+03  0.00000000000E+00 0.  1.
         21   -1    0    0  502  503 -0.00000000000E+00 -0.00000000000E+00 -0.19523093808E+03  0.19523093808E+03  0.00000000000E+00 0.  1.
          6    1    1    2  501    0  0.63975978002E+02  0.96433954487E+02 -0.69292848842E+02  0.21858163747E+03  0.17200000000E+03 0.  1.
         -6    1    1    2    0  503 -0.63975978002E+02 -0.96433954487E+02  0.15816885891E+03  0.26075624876E+03  0.17200000000E+03 0.  1.
<mgrwt>
<rscale>  2 0.20730758E+03</rscale>
<asrwt>0</asrwt>
<pdfrwt beam="1">  1       21 0.71026737E-01 0.20730758E+03</pdfrwt>
<pdfrwt beam="2">  1       21 0.48807735E-01 0.20730758E+03</pdfrwt>
<totfact> 0.71129233E+03</totfact>
</mgrwt>
</event>
<event>
 4    1  0.1132373E+000  0.2100357E+03  0.7546771E-02  0.1141538E+00
         21   -1    0    0  503  502  0.00000000000E+00  0.00000000000E+00  0.18869277713E+03  0.18869277713E+03  0.00000000000E+00 0.  1.
         21   -1    0    0  501  503 -0.00000000000E+00 -0.00000000000E+00 -0.29471912942E+03  0.29471912942E+03  0.00000000000E+00 0.  1.
          6    1    1    2  501    0  0.43737284506E+02 -0.11232998023E+03 -0.16291032188E+03  0.26580960759E+03  0.17200000000E+03 0.  1.
         -6    1    1    2    0  502 -0.43737284506E+02  0.11232998023E+03  0.56883969583E+02  0.21760229895E+03  0.17200000000E+03 0.  1.
<mgrwt>
<rscale>  2 0.21003565E+03</rscale>
<asrwt>0</asrwt>
<pdfrwt beam="1">  1       21 0.47173195E-01 0.21003565E+03</pdfrwt>
<pdfrwt beam="2">  1       21 0.73679782E-01 0.21003565E+03</pdfrwt>
<totfact> 0.70231772E+03</totfact>
</mgrwt>
</event>
<event>
 4    1  0.1132373E+000  0.2144433E+03  0.7546771E-02  0.1138095E+00
         21   -1    0    0  501  502  0.00000000000E+00  0.00000000000E+00  0.13509648225E+03  0.13509648225E+03  0.00000000000E+00 0.  1.
         21   -1    0    0  502  503 -0.00000000000E+00 -0.00000000000E+00 -0.34073593476E+03  0.34073593476E+03  0.00000000000E+00 0. -1.
          6    1    1    2  501    0  0.12782652903E+03  0.78927959310E+01 -0.95273618780E+02  0.23465502378E+03  0.17200000000E+03 0. -1.
         -6    1    1    2    0  503 -0.12782652903E+03 -0.78927959310E+01 -0.11036583373E+03  0.24117739323E+03  0.17200000000E+03 0.  1.
<mgrwt>
<rscale>  2 0.21444327E+03</rscale>
<asrwt>0</asrwt>
<pdfrwt beam="1">  1       21 0.33774121E-01 0.21444327E+03</pdfrwt>
<pdfrwt beam="2">  1       21 0.85183983E-01 0.21444327E+03</pdfrwt>
<totfact> 0.99208343E+03</totfact>
</mgrwt>
</event>
<event>
 4    1  0.1132373E+000  0.1761531E+03  0.7546771E-02  0.1171579E+00
         21   -1    0    0  501  502  0.00000000000E+00  0.00000000000E+00  0.11705179217E+03  0.11705179217E+03  0.00000000000E+00 0.  1.
         21   -1    0    0  502  503 -0.00000000000E+00 -0.00000000000E+00 -0.32472977493E+03  0.32472977493E+03  0.00000000000E+00 0.  1.
          6    1    1    2  501    0  0.32838174294E+02  0.19172345428E+02 -0.91795681990E+01  0.17639214550E+03  0.17200000000E+03 0.  1.
         -6    1    1    2    0  503 -0.32838174294E+02 -0.19172345428E+02 -0.19849841455E+03  0.26538942161E+03  0.17200000000E+03 0.  1.
<mgrwt>
<rscale>  2 0.17615313E+03</rscale>
<asrwt>0</asrwt>
<pdfrwt beam="1">  1       21 0.29262948E-01 0.17615313E+03</pdfrwt>
<pdfrwt beam="2">  1       21 0.81182443E-01 0.17615313E+03</pdfrwt>
<totfact> 0.15041043E+04</totfact>
</mgrwt>
</event>
<event>
 4    1  0.1132373E+000  0.1853062E+03  0.7546771E-02  0.1162764E+00
         21   -1    0    0  501  502  0.00000000000E+00  0.00000000000E+00  0.72068561639E+02  0.72068561639E+02  0.00000000000E+00 0. -1.
         21   -1    0    0  502  503 -0.00000000000E+00 -0.00000000000E+00 -0.64159677703E+03  0.64159677703E+03  0.00000000000E+00 0. -1.
          6    1    1    2  501    0  0.68909942313E+02  0.24063569540E+01 -0.10373651701E+03  0.21236674802E+03  0.17200000000E+03 0. -1.
         -6    1    1    2    0  503 -0.68909942313E+02 -0.24063569540E+01 -0.46579169838E+03  0.50129859065E+03  0.17200000000E+03 0. -1.
<mgrwt>
<rscale>  2 0.18530615E+03</rscale>
<asrwt>0</asrwt>
<pdfrwt beam="1">  1       21 0.18017141E-01 0.18530615E+03</pdfrwt>
<pdfrwt beam="2">  1       21 0.16039919E+00 0.18530615E+03</pdfrwt>
<totfact> 0.70492745E+03</totfact>
</mgrwt>
</event>
<event>
 4    1  0.1132373E+000  0.1875861E+03  0.7546771E-02  0.1160657E+00
         21   -1    0    0  503  502  0.00000000000E+00  0.00000000000E+00  0.26519203272E+03  0.26519203272E+03  0.00000000000E+00 0. -1.
         21   -1    0    0  501  503 -0.00000000000E+00 -0.00000000000E+00 -0.22468617024E+03  0.22468617024E+03  0.00000000000E+00 0. -1.
          6    1    1    2  501    0  0.57070971473E+02  0.48450384296E+02 -0.13647738201E+03  0.23197976490E+03  0.17200000000E+03 0. -1.
         -6    1    1    2    0  502 -0.57070971473E+02 -0.48450384296E+02  0.17698324449E+03  0.25789843806E+03  0.17200000000E+03 0. -1.
<mgrwt>
<rscale>  2 0.18758607E+03</rscale>
<asrwt>0</asrwt>
<pdfrwt beam="1">  1       21 0.66298008E-01 0.18758607E+03</pdfrwt>
<pdfrwt beam="2">  1       21 0.56171543E-01 0.18758607E+03</pdfrwt>
<totfact> 0.62507863E+03</totfact>
</mgrwt>
</event>
<event>
 4    1  0.1132373E+000  0.2157671E+03  0.7546771E-02  0.1137079E+00
         21   -1    0    0  503  502  0.00000000000E+00  0.00000000000E+00  0.40736430485E+03  0.40736430485E+03  0.00000000000E+00 0. -1.
         21   -1    0    0  501  503 -0.00000000000E+00 -0.00000000000E+00 -0.13251387084E+03  0.13251387084E+03  0.00000000000E+00 0.  1.
          6    1    1    2  501    0 -0.94831381655E+02  0.89322199829E+02  0.23754510345E+03  0.32090983547E+03  0.17200000000E+03 0.  1.
         -6    1    1    2    0  502  0.94831381655E+02 -0.89322199829E+02  0.37305330561E+02  0.21896834022E+03  0.17200000000E+03 0.  1.
<mgrwt>
<rscale>  2 0.21576711E+03</rscale>
<asrwt>0</asrwt>
<pdfrwt beam="1">  1       21 0.10184107E+00 0.21576711E+03</pdfrwt>
<pdfrwt beam="2">  1       21 0.33128469E-01 0.21576711E+03</pdfrwt>
<totfact> 0.67798489E+03</totfact>
</mgrwt>
</event>
<event>
 4    1  0.1132373E+000  0.4018897E+03  0.7546771E-02  0.1043127E+00
         21   -1    0    0  501  502  0.00000000000E+00  0.00000000000E+00  0.17731626804E+03  0.17731626804E+03  0.00000000000E+00 0. -1.
         21   -1    0    0  502  503 -0.00000000000E+00 -0.00000000000E+00 -0.10914301063E+04  0.10914301063E+04  0.00000000000E+00 0.  1.
          6    1    1    2  501    0  0.19765879758E+03 -0.30473315796E+03 -0.71506651284E+03  0.82026545435E+03  0.17200000000E+03 0. -1.
         -6    1    1    2    0  503 -0.19765879758E+03  0.30473315796E+03 -0.19904732538E+03  0.44848091995E+03  0.17200000000E+03 0.  1.
<mgrwt>
<rscale>  2 0.40188966E+03</rscale>
<asrwt>0</asrwt>
<pdfrwt beam="1">  1       21 0.44329067E-01 0.40188966E+03</pdfrwt>
<pdfrwt beam="2">  1       21 0.27285752E+00 0.40188966E+03</pdfrwt>
<totfact> 0.19459655E+02</totfact>
</mgrwt>
</event>
<event>
 4    1  0.1132373E+000  0.1828069E+03  0.7546771E-02  0.1165114E+00
         21   -1    0    0  503  502  0.00000000000E+00  0.00000000000E+00  0.18491584532E+03  0.18491584532E+03  0.00000000000E+00 0.  1.
         21   -1    0    0  501  503 -0.00000000000E+00 -0.00000000000E+00 -0.20283439110E+03  0.20283439110E+03  0.00000000000E+00 0.  1.
          6    1    1    2  501    0  0.36357886990E+02 -0.50124405269E+02 -0.72972487123E+02  0.19683326911E+03  0.17200000000E+03 0.  1.
         -6    1    1    2    0  502 -0.36357886990E+02  0.50124405269E+02  0.55053941353E+02  0.19091696731E+03  0.17200000000E+03 0.  1.
<mgrwt>
<rscale>  2 0.18280687E+03</rscale>
<asrwt>0</asrwt>
<pdfrwt beam="1">  1       21 0.46228961E-01 0.18280687E+03</pdfrwt>
<pdfrwt beam="2">  1       21 0.50708598E-01 0.18280687E+03</pdfrwt>
<totfact> 0.16689295E+04</totfact>
</mgrwt>
</event>
<event>
 4    1  0.1132373E+000  0.3025037E+03  0.7546771E-02  0.1083996E+00
         21   -1    0    0  503  502  0.00000000000E+00  0.00000000000E+00  0.24069721035E+03  0.24069721035E+03  0.00000000000E+00 0.  1.
         21   -1    0    0  501  503 -0.00000000000E+00 -0.00000000000E+00 -0.38242278588E+03  0.38242278588E+03  0.00000000000E+00 0. -1.
          6    1    1    2  501    0 -0.17771493323E+03 -0.17418919780E+03 -0.94717806191E+02  0.31698570462E+03  0.17200000000E+03 0.  1.
         -6    1    1    2    0  502  0.17771493323E+03  0.17418919780E+03 -0.47007769334E+02  0.30613429161E+03  0.17200000000E+03 0.  1.
<mgrwt>
<rscale>  2 0.30250368E+03</rscale>
<asrwt>0</asrwt>
<pdfrwt beam="1">  1       21 0.60174303E-01 0.30250368E+03</pdfrwt>
<pdfrwt beam="2">  1       21 0.95605696E-01 0.30250368E+03</pdfrwt>
<totfact> 0.21712133E+03</totfact>
</mgrwt>
</event>
<event>
 4    1  0.1132373E+000  0.2278500E+03  0.7546771E-02  0.1128162E+00
         21   -1    0    0  503  502  0.00000000000E+00  0.00000000000E+00  0.79896436686E+03  0.79896436686E+03  0.00000000000E+00 0.  1.
         21   -1    0    0  501  503 -0.00000000000E+00 -0.00000000000E+00 -0.65431394552E+02  0.65431394552E+02  0.00000000000E+00 0.  1.
          6    1    1    2  501    0  0.12906348938E+01  0.14943211865E+03  0.40271802146E+03  0.46270663344E+03  0.17200000000E+03 0.  1.
         -6    1    1    2    0  502 -0.12906348938E+01 -0.14943211865E+03  0.33081495085E+03  0.40168912797E+03  0.17200000000E+03 0.  1.
<mgrwt>
<rscale>  2 0.22785000E+03</rscale>
<asrwt>0</asrwt>
<pdfrwt beam="1">  1       21 0.19974106E+00 0.22785000E+03</pdfrwt>
<pdfrwt beam="2">  1       21 0.16357851E-01 0.22785000E+03</pdfrwt>
<totfact> 0.43741277E+03</totfact>
</mgrwt>
</event>
<event>
 4    1  0.1132373E+000  0.1859249E+03  0.7546771E-02  0.1162189E+00
         21   -1    0    0  503  502  0.00000000000E+00  0.00000000000E+00  0.20000054286E+03  0.20000054286E+03  0.00000000000E+00 0. -1.
         21   -1    0    0  501  503 -0.00000000000E+00 -0.00000000000E+00 -0.17364854734E+03  0.17364854734E+03  0.00000000000E+00 0. -1.
          6    1    1    2  501    0  0.70518864725E+02  0.33411020657E+01  0.42692148990E+00  0.18592540307E+03  0.17200000000E+03 0. -1.
         -6    1    1    2    0  502 -0.70518864725E+02 -0.33411020657E+01  0.25925074038E+02  0.18772368713E+03  0.17200000000E+03 0. -1.
<mgrwt>
<rscale>  2 0.18592491E+03</rscale>
<asrwt>0</asrwt>
<pdfrwt beam="1">  1       21 0.50000136E-01 0.18592491E+03</pdfrwt>
<pdfrwt beam="2">  1       21 0.43412137E-01 0.18592491E+03</pdfrwt>
<totfact> 0.19512915E+04</totfact>
</mgrwt>
</event>
<event>
 4    1  0.1132373E+000  0.2288274E+03  0.7546771E-02  0.1127468E+00
         21   -1    0    0  503  502  0.00000000000E+00  0.00000000000E+00  0.43039604206E+03  0.43039604206E+03  0.00000000000E+00 0. -1.
         21   -1    0    0  501  503 -0.00000000000E+00 -0.00000000000E+00 -0.14731139747E+03  0.14731139747E+03  0.00000000000E+00 0. -1.
          6    1    1    2  501    0  0.14982004454E+03  0.18218467679E+02  0.21006598442E+02  0.22978954608E+03  0.17200000000E+03 0. -1.
         -6    1    1    2    0  502 -0.14982004454E+03 -0.18218467679E+02  0.26207804615E+03  0.34791789345E+03  0.17200000000E+03 0. -1.
<mgrwt>
<rscale>  2 0.22882735E+03</rscale>
<asrwt>0</asrwt>
<pdfrwt beam="1">  1       21 0.10759901E+00 0.22882735E+03</pdfrwt>
<pdfrwt beam="2">  1       21 0.36827850E-01 0.22882735E+03</pdfrwt>
<totfact> 0.47654864E+03</totfact>
</mgrwt>
</event>
<event>
 4    1  0.1132373E+000  0.2447394E+03  0.7546771E-02  0.1116675E+00
         21   -1    0    0  501  502  0.00000000000E+00  0.00000000000E+00  0.22331026146E+03  0.22331026146E+03  0.00000000000E+00 0.  1.
         21   -1    0    0  502  503 -0.00000000000E+00 -0.00000000000E+00 -0.31280076259E+03  0.31280076259E+03  0.00000000000E+00 0. -1.
          6    1    1    2  501    0 -0.16522686672E+03 -0.54895114586E+02 -0.14593588386E+03  0.28494679028E+03  0.17200000000E+03 0. -1.
         -6    1    1    2    0  503  0.16522686672E+03  0.54895114586E+02  0.56445382732E+02  0.25116423377E+03  0.17200000000E+03 0. -1.
<mgrwt>
<rscale>  2 0.24473944E+03</rscale>
<asrwt>0</asrwt>
<pdfrwt beam="1">  1       21 0.55827566E-01 0.24473944E+03</pdfrwt>
<pdfrwt beam="2">  1       21 0.78200190E-01 0.24473944E+03</pdfrwt>
<totfact> 0.42115557E+03</totfact>
</mgrwt>
</event>
<event>
 4    1  0.1132373E+000  0.1972308E+03  0.7546771E-02  0.1152097E+00
         21   -1    0    0  503  502  0.00000000000E+00  0.00000000000E+00  0.22010334671E+03  0.22010334671E+03  0.00000000000E+00 0. -1.
         21   -1    0    0  501  503 -0.00000000000E+00 -0.00000000000E+00 -0.28275324556E+03  0.28275324556E+03  0.00000000000E+00 0. -1.
          6    1    1    2  501    0 -0.92863287712E+02 -0.26313445473E+02 -0.18528230710E+03  0.27060953594E+03  0.17200000000E+03 0. -1.
         -6    1    1    2    0  502  0.92863287712E+02  0.26313445473E+02  0.12263240826E+03  0.23224705633E+03  0.17200000000E+03 0. -1.
<mgrwt>
<rscale>  2 0.19723080E+03</rscale>
<asrwt>0</asrwt>
<pdfrwt beam="1">  1       21 0.55025837E-01 0.19723080E+03</pdfrwt>
<pdfrwt beam="2">  1       21 0.70688311E-01 0.19723080E+03</pdfrwt>
<totfact> 0.56307608E+03</totfact>
</mgrwt>
</event>
<event>
 4    1  0.1132373E+000  0.2011266E+03  0.7546771E-02  0.1148792E+00
         21   -1    0    0  501  502  0.00000000000E+00  0.00000000000E+00  0.17006826126E+03  0.17006826126E+03  0.00000000000E+00 0.  1.
         21   -1    0    0  502  503 -0.00000000000E+00 -0.00000000000E+00 -0.32552725210E+03  0.32552725210E+03  0.00000000000E+00 0. -1.
          6    1    1    2  501    0 -0.95184416033E+02  0.42518609235E+02  0.50867295539E+02  0.20745936215E+03  0.17200000000E+03 0.  1.
         -6    1    1    2    0  503  0.95184416033E+02 -0.42518609235E+02 -0.20632628637E+03  0.28813615121E+03  0.17200000000E+03 0. -1.
<mgrwt>
<rscale>  2 0.20112659E+03</rscale>
<asrwt>0</asrwt>
<pdfrwt beam="1">  1       21 0.42517066E-01 0.20112659E+03</pdfrwt>
<pdfrwt beam="2">  1       21 0.81381812E-01 0.20112659E+03</pdfrwt>
<totfact> 0.69972650E+03</totfact>
</mgrwt>
</event>
<event>
 4    1  0.1132373E+000  0.2034814E+03  0.7546771E-02  0.1146835E+00
         21   -1    0    0  501  502  0.00000000000E+00  0.00000000000E+00  0.44161179063E+02  0.44161179063E+02  0.00000000000E+00 0. -1.
         21   -1    0    0  502  503 -0.00000000000E+00 -0.00000000000E+00 -0.12257469912E+04  0.12257469912E+04  0.00000000000E+00 0. -1.
          6    1    1    2  501    0  0.89162985799E+02  0.62214526078E+02 -0.28292585108E+03  0.34849924319E+03  0.17200000000E+03 0. -1.
         -6    1    1    2    0  503 -0.89162985799E+02 -0.62214526078E+02 -0.89865996108E+03  0.92140892710E+03  0.17200000000E+03 0. -1.
<mgrwt>
<rscale>  2 0.20348141E+03</rscale>
<asrwt>0</asrwt>
<pdfrwt beam="1">  1       21 0.11040295E-01 0.20348141E+03</pdfrwt>
<pdfrwt beam="2">  1       21 0.30643676E+00 0.20348141E+03</pdfrwt>
<totfact> 0.21055351E+03</totfact>
</mgrwt>
</event>
<event>
 4    1  0.1132373E+000  0.2321706E+03  0.7546771E-02  0.1125121E+00
         21   -1    0    0  501  502  0.00000000000E+00  0.00000000000E+00  0.37167341318E+03  0.37167341318E+03  0.00000000000E+00 0.  1.
         21   -1    0    0  502  503 -0.00000000000E+00 -0.00000000000E+00 -0.15329700279E+03  0.15329700279E+03  0.00000000000E+00 0.  1.
          6    1    1    2  501    0  0.69037150827E+02  0.13983230883E+03  0.48226949903E+02  0.23712663596E+03  0.17200000000E+03 0.  1.
         -6    1    1    2    0  503 -0.69037150827E+02 -0.13983230883E+03  0.17014946049E+03  0.28784378001E+03  0.17200000000E+03 0.  1.
<mgrwt>
<rscale>  2 0.23217063E+03</rscale>
<asrwt>0</asrwt>
<pdfrwt beam="1">  1       21 0.92918351E-01 0.23217063E+03</pdfrwt>
<pdfrwt beam="2">  1       21 0.38324251E-01 0.23217063E+03</pdfrwt>
<totfact> 0.62266214E+03</totfact>
</mgrwt>
</event>
<event>
 4    1  0.1132373E+000  0.1877845E+03  0.7546771E-02  0.1160475E+00
         21   -1    0    0  501  502  0.00000000000E+00  0.00000000000E+00  0.18379883266E+03  0.18379883266E+03  0.00000000000E+00 0.  1.
         21   -1    0    0  502  503 -0.00000000000E+00 -0.00000000000E+00 -0.20712913478E+03  0.20712913478E+03  0.00000000000E+00 0. -1.
          6    1    1    2  501    0  0.56253178843E+02  0.50145875877E+02  0.41411186485E+02  0.19229642577E+03  0.17200000000E+03 0.  1.
         -6    1    1    2    0  503 -0.56253178843E+02 -0.50145875877E+02 -0.64741488607E+02  0.19863154167E+03  0.17200000000E+03 0. -1.
<mgrwt>
<rscale>  2 0.18778453E+03</rscale>
<asrwt>0</asrwt>
<pdfrwt beam="1">  1       21 0.45949708E-01 0.18778453E+03</pdfrwt>
<pdfrwt beam="2">  1       21 0.51782284E-01 0.18778453E+03</pdfrwt>
<totfact> 0.16124550E+04</totfact>
</mgrwt>
</event>
<event>
 4    1  0.1132373E+000  0.2006964E+03  0.7546771E-02  0.1149153E+00
         21   -1    0    0  503  502  0.00000000000E+00  0.00000000000E+00  0.90978210469E+02  0.90978210469E+02  0.00000000000E+00 0.  1.
         21   -1    0    0  501  503 -0.00000000000E+00 -0.00000000000E+00 -0.13904560408E+04  0.13904560408E+04  0.00000000000E+00 0.  1.
          6    1    1    2  501    0  0.25703072371E+02 -0.10017189484E+03 -0.12612642763E+04  0.12771321902E+04  0.17200000000E+03 0.  1.
         -6    1    1    2    0  502 -0.25703072371E+02  0.10017189484E+03 -0.38213553966E+02  0.20430206106E+03  0.17200000000E+03 0.  1.
<mgrwt>
<rscale>  2 0.20069643E+03</rscale>
<asrwt>0</asrwt>
<pdfrwt beam="1">  1       21 0.22744552E-01 0.20069643E+03</pdfrwt>
<pdfrwt beam="2">  1       21 0.34761402E+00 0.20069643E+03</pdfrwt>
<totfact> 0.32334245E+02</totfact>
</mgrwt>
</event>
<event>
 4    1  0.1132373E+000  0.2075713E+03  0.7546771E-02  0.1143504E+00
         21   -1    0    0  501  502  0.00000000000E+00  0.00000000000E+00  0.26835536653E+03  0.26835536653E+03  0.00000000000E+00 0.  1.
         21   -1    0    0  502  503 -0.00000000000E+00 -0.00000000000E+00 -0.17275106201E+03  0.17275106201E+03  0.00000000000E+00 0. -1.
          6    1    1    2  501    0  0.44370816655E+01 -0.11611272702E+03  0.10640369448E+03  0.23325436602E+03  0.17200000000E+03 0.  1.
         -6    1    1    2    0  503 -0.44370816655E+01  0.11611272702E+03 -0.10799389968E+02  0.20785206252E+03  0.17200000000E+03 0. -1.
<mgrwt>
<rscale>  2 0.20757132E+03</rscale>
<asrwt>0</asrwt>
<pdfrwt beam="1">  1       21 0.67088841E-01 0.20757132E+03</pdfrwt>
<pdfrwt beam="2">  1       21 0.43187766E-01 0.20757132E+03</pdfrwt>
<totfact> 0.10379584E+04</totfact>
</mgrwt>
</event>
<event>
 4    1  0.1132373E+000  0.1753447E+03  0.7546771E-02  0.1172386E+00
         21   -1    0    0  503  502  0.00000000000E+00  0.00000000000E+00  0.53477012503E+02  0.53477012503E+02  0.00000000000E+00 0. -1.
         21   -1    0    0  501  503 -0.00000000000E+00 -0.00000000000E+00 -0.85513375522E+03  0.85513375522E+03  0.00000000000E+00 0. -1.
          6    1    1    2  501    0  0.33941572712E+02 -0.31195586812E+01 -0.66088300692E+03  0.68374857283E+03  0.17200000000E+03 0. -1.
         -6    1    1    2    0  502 -0.33941572712E+02  0.31195586812E+01 -0.14077373580E+03  0.22486219490E+03  0.17200000000E+03 0. -1.
<mgrwt>
<rscale>  2 0.17534469E+03</rscale>
<asrwt>0</asrwt>
<pdfrwt beam="1">  1       21 0.13369253E-01 0.17534469E+03</pdfrwt>
<pdfrwt beam="2">  1       21 0.21378344E+00 0.17534469E+03</pdfrwt>
<totfact> 0.54020364E+03</totfact>
</mgrwt>
</event>
<event>
 4    1  0.1132373E+000  0.1789583E+03  0.7546771E-02  0.1168815E+00
         21   -1    0    0  503  502  0.00000000000E+00  0.00000000000E+00  0.63141809628E+02  0.63141809628E+02  0.00000000000E+00 0.  1.
         21   -1    0    0  501  503 -0.00000000000E+00 -0.00000000000E+00 -0.59369100552E+03  0.59369100552E+03  0.00000000000E+00 0. -1.
          6    1    1    2  501    0 -0.33332186424E+02  0.36483391913E+02 -0.39061998218E+03  0.42966270843E+03  0.17200000000E+03 0. -1.
         -6    1    1    2    0  502  0.33332186424E+02 -0.36483391913E+02 -0.13992921372E+03  0.22717010673E+03  0.17200000000E+03 0. -1.
<mgrwt>
<rscale>  2 0.17895830E+03</rscale>
<asrwt>0</asrwt>
<pdfrwt beam="1">  1       21 0.15785453E-01 0.17895830E+03</pdfrwt>
<pdfrwt beam="2">  1       21 0.14842275E+00 0.17895830E+03</pdfrwt>
<totfact> 0.11097678E+04</totfact>
</mgrwt>
</event>
<event>
 4    1  0.1132373E+000  0.1913988E+03  0.7546771E-02  0.1157206E+00
         21   -1    0    0  503  502  0.00000000000E+00  0.00000000000E+00  0.17372407349E+03  0.17372407349E+03  0.00000000000E+00 0.  1.
         21   -1    0    0  501  503 -0.00000000000E+00 -0.00000000000E+00 -0.21191798843E+03  0.21191798843E+03  0.00000000000E+00 0.  1.
          6    1    1    2  501    0 -0.67826249861E+02 -0.49488336179E+02 -0.55484838511E+01  0.19147919276E+03  0.17200000000E+03 0.  1.
         -6    1    1    2    0  502  0.67826249861E+02  0.49488336179E+02 -0.32645431097E+02  0.19416286916E+03  0.17200000000E+03 0.  1.
<mgrwt>
<rscale>  2 0.19139879E+03</rscale>
<asrwt>0</asrwt>
<pdfrwt beam="1">  1       21 0.43431019E-01 0.19139879E+03</pdfrwt>
<pdfrwt beam="2">  1       21 0.52979497E-01 0.19139879E+03</pdfrwt>
<totfact> 0.17215080E+04</totfact>
</mgrwt>
</event>
<event>
 4    1  0.1132373E+000  0.1821449E+03  0.7546771E-02  0.1165743E+00
         21   -1    0    0  501  502  0.00000000000E+00  0.00000000000E+00  0.11304291066E+03  0.11304291066E+03  0.00000000000E+00 0. -1.
         21   -1    0    0  502  503 -0.00000000000E+00 -0.00000000000E+00 -0.30223457237E+03  0.30223457237E+03  0.00000000000E+00 0. -1.
          6    1    1    2  501    0 -0.38793852934E+02 -0.45692593317E+02 -0.12991795743E+03  0.22373075732E+03  0.17200000000E+03 0. -1.
         -6    1    1    2    0  503  0.38793852934E+02  0.45692593317E+02 -0.59273704289E+02  0.19154672571E+03  0.17200000000E+03 0. -1.
<mgrwt>
<rscale>  2 0.18214493E+03</rscale>
<asrwt>0</asrwt>
<pdfrwt beam="1">  1       21 0.28260728E-01 0.18214493E+03</pdfrwt>
<pdfrwt beam="2">  1       21 0.75558642E-01 0.18214493E+03</pdfrwt>
<totfact> 0.18833830E+04</totfact>
</mgrwt>
</event>
<event>
 4    1  0.1132373E+000  0.2102404E+03  0.7546771E-02  0.1141376E+00
         21   -1    0    0  501  502  0.00000000000E+00  0.00000000000E+00  0.82274541035E+02  0.82274541035E+02  0.00000000000E+00 0.  1.
         21   -1    0    0  502  503 -0.00000000000E+00 -0.00000000000E+00 -0.54113685395E+03  0.54113685395E+03  0.00000000000E+00 0. -1.
          6    1    1    2  501    0  0.11814752222E+03 -0.25655539758E+02 -0.20297439071E+03  0.29223217997E+03  0.17200000000E+03 0.  1.
         -6    1    1    2    0  503 -0.11814752222E+03  0.25655539758E+02 -0.25588792220E+03  0.33117921501E+03  0.17200000000E+03 0. -1.
<mgrwt>
<rscale>  2 0.21024044E+03</rscale>
<asrwt>0</asrwt>
<pdfrwt beam="1">  1       21 0.20568636E-01 0.21024044E+03</pdfrwt>
<pdfrwt beam="2">  1       21 0.13528421E+00 0.21024044E+03</pdfrwt>
<totfact> 0.84469838E+03</totfact>
</mgrwt>
</event>
<event>
 4    1  0.1132373E+000  0.1913518E+03  0.7546771E-02  0.1157248E+00
         21   -1    0    0  501  502  0.00000000000E+00  0.00000000000E+00  0.62149463489E+03  0.62149463489E+03  0.00000000000E+00 0.  1.
         21   -1    0    0  502  503 -0.00000000000E+00 -0.00000000000E+00 -0.74992651310E+02  0.74992651310E+02  0.00000000000E+00 0.  1.
          6    1    1    2  501    0 -0.38948813121E+02  0.74259668873E+02  0.43449435270E+03  0.47476399505E+03  0.17200000000E+03 0. -1.
         -6    1    1    2    0  503  0.38948813121E+02 -0.74259668873E+02  0.11200763088E+03  0.22172329115E+03  0.17200000000E+03 0. -1.
<mgrwt>
<rscale>  2 0.19135179E+03</rscale>
<asrwt>0</asrwt>
<pdfrwt beam="1">  1       21 0.15537364E+00 0.19135179E+03</pdfrwt>
<pdfrwt beam="2">  1       21 0.18748165E-01 0.19135179E+03</pdfrwt>
<totfact> 0.70978024E+03</totfact>
</mgrwt>
</event>
<event>
 4    1  0.1132373E+000  0.1872571E+03  0.7546771E-02  0.1160959E+00
         21   -1    0    0  501  502  0.00000000000E+00  0.00000000000E+00  0.92944156371E+03  0.92944156371E+03  0.00000000000E+00 0.  1.
         21   -1    0    0  502  503 -0.00000000000E+00 -0.00000000000E+00 -0.64843328676E+02  0.64843328676E+02  0.00000000000E+00 0.  1.
          6    1    1    2  501    0 -0.17954310641E+02 -0.71825106018E+02  0.75378525425E+03  0.77669647395E+03  0.17200000000E+03 0. -1.
         -6    1    1    2    0  503  0.17954310641E+02  0.71825106018E+02  0.11081298078E+03  0.21758841843E+03  0.17200000000E+03 0. -1.
<mgrwt>
<rscale>  2 0.18725705E+03</rscale>
<asrwt>0</asrwt>
<pdfrwt beam="1">  1       21 0.23236035E+00 0.18725705E+03</pdfrwt>
<pdfrwt beam="2">  1       21 0.16210835E-01 0.18725705E+03</pdfrwt>
<totfact> 0.28980467E+03</totfact>
</mgrwt>
</event>
<event>
 4    1  0.1132373E+000  0.2144251E+03  0.7546771E-02  0.1138109E+00
         21   -1    0    0  503  502  0.00000000000E+00  0.00000000000E+00  0.18104865063E+03  0.18104865063E+03  0.00000000000E+00 0.  1.
         21   -1    0    0  501  503 -0.00000000000E+00 -0.00000000000E+00 -0.26826470741E+03  0.26826470741E+03  0.00000000000E+00 0.  1.
          6    1    1    2  501    0 -0.11903405677E+03 -0.47170003791E+02 -0.95495299601E+02  0.23472849886E+03  0.17200000000E+03 0.  1.
         -6    1    1    2    0  502  0.11903405677E+03  0.47170003791E+02  0.82792428188E+01  0.21458485918E+03  0.17200000000E+03 0.  1.
<mgrwt>
<rscale>  2 0.21442508E+03</rscale>
<asrwt>0</asrwt>
<pdfrwt beam="1">  1       21 0.45262163E-01 0.21442508E+03</pdfrwt>
<pdfrwt beam="2">  1       21 0.67066177E-01 0.21442508E+03</pdfrwt>
<totfact> 0.93909575E+03</totfact>
</mgrwt>
</event>
<event>
 4    1  0.1132373E+000  0.1959159E+03  0.7546771E-02  0.1153231E+00
         21   -1    0    0  501  502  0.00000000000E+00  0.00000000000E+00  0.28543171488E+02  0.28543171488E+02  0.00000000000E+00 0. -1.
         21   -1    0    0  502  503 -0.00000000000E+00 -0.00000000000E+00 -0.13807381760E+04  0.13807381760E+04  0.00000000000E+00 0. -1.
          6    1    1    2  501    0 -0.38839752797E+02  0.85384447196E+02 -0.78988025193E+03  0.81381437847E+03  0.17200000000E+03 0. -1.
         -6    1    1    2    0  503  0.38839752797E+02 -0.85384447196E+02 -0.56231475263E+03  0.59546696906E+03  0.17200000000E+03 0. -1.
<mgrwt>
<rscale>  2 0.19591588E+03</rscale>
<asrwt>0</asrwt>
<pdfrwt beam="1">  1       21 0.71357934E-02 0.19591588E+03</pdfrwt>
<pdfrwt beam="2">  1       21 0.34518452E+00 0.19591588E+03</pdfrwt>
<totfact> 0.27196283E+03</totfact>
</mgrwt>
</event>
<event>
 4    1  0.1132373E+000  0.2251422E+03  0.7546771E-02  0.1130106E+00
         21   -1    0    0  501  502  0.00000000000E+00  0.00000000000E+00  0.15559533603E+03  0.15559533603E+03  0.00000000000E+00 0.  1.
         21   -1    0    0  502  503 -0.00000000000E+00 -0.00000000000E+00 -0.34155000303E+03  0.34155000303E+03  0.00000000000E+00 0. -1.
          6    1    1    2  501    0  0.13854439655E+03  0.43708693265E+02 -0.39555691994E+02  0.22859057822E+03  0.17200000000E+03 0.  1.
         -6    1    1    2    0  503 -0.13854439655E+03 -0.43708693265E+02 -0.14639897500E+03  0.26855476083E+03  0.17200000000E+03 0. -1.
<mgrwt>
<rscale>  2 0.22514218E+03</rscale>
<asrwt>0</asrwt>
<pdfrwt beam="1">  1       21 0.38898834E-01 0.22514218E+03</pdfrwt>
<pdfrwt beam="2">  1       21 0.85387500E-01 0.22514218E+03</pdfrwt>
<totfact> 0.73861086E+03</totfact>
</mgrwt>
</event>
<event>
 4    1  0.1132373E+000  0.2548740E+03  0.7546771E-02  0.1110263E+00
         21   -1    0    0  501  502  0.00000000000E+00  0.00000000000E+00  0.20222043303E+03  0.20222043303E+03  0.00000000000E+00 0. -1.
         21   -1    0    0  502  503 -0.00000000000E+00 -0.00000000000E+00 -0.68795642727E+03  0.68795642727E+03  0.00000000000E+00 0. -1.
          6    1    1    2  501    0 -0.17812983691E+03 -0.60386399670E+02  0.82094011461E+02  0.26776889808E+03  0.17200000000E+03 0. -1.
         -6    1    1    2    0  503  0.17812983691E+03  0.60386399670E+02 -0.56783000569E+03  0.62240796222E+03  0.17200000000E+03 0. -1.
<mgrwt>
<rscale>  2 0.25487400E+03</rscale>
<asrwt>0</asrwt>
<pdfrwt beam="1">  1       21 0.50555109E-01 0.25487400E+03</pdfrwt>
<pdfrwt beam="2">  1       21 0.17198911E+00 0.25487400E+03</pdfrwt>
<totfact> 0.72374405E+02</totfact>
</mgrwt>
</event>
<event>
 4    1  0.1132373E+000  0.1832342E+03  0.7546771E-02  0.1164709E+00
         21   -1    0    0  501  502  0.00000000000E+00  0.00000000000E+00  0.63086693227E+02  0.63086693227E+02  0.00000000000E+00 0. -1.
         21   -1    0    0  502  503 -0.00000000000E+00 -0.00000000000E+00 -0.60050463818E+03  0.60050463818E+03  0.00000000000E+00 0. -1.
          6    1    1    2  501    0  0.92543252139E+01 -0.62491062753E+02 -0.38061042971E+03  0.42242049508E+03  0.17200000000E+03 0. -1.
         -6    1    1    2    0  503 -0.92543252139E+01  0.62491062753E+02 -0.15680751525E+03  0.24117083633E+03  0.17200000000E+03 0. -1.
<mgrwt>
<rscale>  2 0.18323421E+03</rscale>
<asrwt>0</asrwt>
<pdfrwt beam="1">  1       21 0.15771673E-01 0.18323421E+03</pdfrwt>
<pdfrwt beam="2">  1       21 0.15012616E+00 0.18323421E+03</pdfrwt>
<totfact> 0.10752262E+04</totfact>
</mgrwt>
</event>
<event>
 4    1  0.1132373E+000  0.1869024E+03  0.7546771E-02  0.1161285E+00
         21   -1    0    0  503  502  0.00000000000E+00  0.00000000000E+00  0.72507659949E+02  0.72507659949E+02  0.00000000000E+00 0. -1.
         21   -1    0    0  501  503 -0.00000000000E+00 -0.00000000000E+00 -0.67691405433E+03  0.67691405433E+03  0.00000000000E+00 0. -1.
          6    1    1    2  501    0  0.68523300744E+02  0.25554839223E+02 -0.50339016686E+03  0.53696755270E+03  0.17200000000E+03 0. -1.
         -6    1    1    2    0  502 -0.68523300744E+02 -0.25554839223E+02 -0.10101622752E+03  0.21245416158E+03  0.17200000000E+03 0. -1.
<mgrwt>
<rscale>  2 0.18690236E+03</rscale>
<asrwt>0</asrwt>
<pdfrwt beam="1">  1       21 0.18126915E-01 0.18690236E+03</pdfrwt>
<pdfrwt beam="2">  1       21 0.16922851E+00 0.18690236E+03</pdfrwt>
<totfact> 0.60174185E+03</totfact>
</mgrwt>
</event>
<event>
 4    1  0.1132373E+000  0.1759909E+03  0.7546771E-02  0.1171740E+00
         21   -1    0    0  503  502  0.00000000000E+00  0.00000000000E+00  0.14915838700E+03  0.14915838700E+03  0.00000000000E+00 0. -1.
         21   -1    0    0  501  503 -0.00000000000E+00 -0.00000000000E+00 -0.23655402110E+03  0.23655402110E+03  0.00000000000E+00 0. -1.
          6    1    1    2  501    0  0.36076498369E+02  0.93420751790E+01 -0.11111104293E+03  0.20813085299E+03  0.17200000000E+03 0.  1.
         -6    1    1    2    0  502 -0.36076498369E+02 -0.93420751790E+01  0.23715408831E+02  0.17758155512E+03  0.17200000000E+03 0.  1.
<mgrwt>
<rscale>  2 0.17599088E+03</rscale>
<asrwt>0</asrwt>
<pdfrwt beam="1">  1       21 0.37289597E-01 0.17599088E+03</pdfrwt>
<pdfrwt beam="2">  1       21 0.59138505E-01 0.17599088E+03</pdfrwt>
<totfact> 0.18728476E+04</totfact>
</mgrwt>
</event>
<event>
 4    1  0.1132373E+000  0.1749786E+03  0.7546771E-02  0.1172753E+00
         21   -1    0    0  501  502  0.00000000000E+00  0.00000000000E+00  0.13804020574E+03  0.13804020574E+03  0.00000000000E+00 0.  1.
         21   -1    0    0  502  503 -0.00000000000E+00 -0.00000000000E+00 -0.29562278775E+03  0.29562278775E+03  0.00000000000E+00 0.  1.
          6    1    1    2  501    0 -0.27098901818E+01  0.32034048843E+02  0.29562532577E+02  0.17745835321E+03  0.17200000000E+03 0.  1.
         -6    1    1    2    0  503  0.27098901818E+01 -0.32034048843E+02 -0.18714511458E+03  0.25620464028E+03  0.17200000000E+03 0.  1.
<mgrwt>
<rscale>  2 0.17497864E+03</rscale>
<asrwt>0</asrwt>
<pdfrwt beam="1">  1       21 0.34510052E-01 0.17497864E+03</pdfrwt>
<pdfrwt beam="2">  1       21 0.73905696E-01 0.17497864E+03</pdfrwt>
<totfact> 0.13452038E+04</totfact>
</mgrwt>
</event>
<event>
 4    1  0.1132373E+000  0.1735481E+03  0.7546771E-02  0.1174197E+00
         21   -1    0    0  503  502  0.00000000000E+00  0.00000000000E+00  0.51410115731E+02  0.51410115731E+02  0.00000000000E+00 0. -1.
         21   -1    0    0  501  503 -0.00000000000E+00 -0.00000000000E+00 -0.64590920736E+03  0.64590920736E+03  0.00000000000E+00 0. -1.
          6    1    1    2  501    0 -0.11861560868E+02 -0.19855404364E+02 -0.40356182795E+03  0.43929612187E+03  0.17200000000E+03 0. -1.
         -6    1    1    2    0  502  0.11861560868E+02  0.19855404364E+02 -0.19093726368E+03  0.25802320123E+03  0.17200000000E+03 0. -1.
<mgrwt>
<rscale>  2 0.17354807E+03</rscale>
<asrwt>0</asrwt>
<pdfrwt beam="1">  1       21 0.12852529E-01 0.17354807E+03</pdfrwt>
<pdfrwt beam="2">  1       21 0.16147730E+00 0.17354807E+03</pdfrwt>
<totfact> 0.12926329E+04</totfact>
</mgrwt>
</event>
<event>
 4    1  0.1132373E+000  0.1738706E+03  0.7546771E-02  0.1173870E+00
         21   -1    0    0  501  502  0.00000000000E+00  0.00000000000E+00  0.16273208278E+03  0.16273208278E+03  0.00000000000E+00 0.  1.
         21   -1    0    0  502  503 -0.00000000000E+00 -0.00000000000E+00 -0.18623430686E+03  0.18623430686E+03  0.00000000000E+00 0.  1.
          6    1    1    2  501    0  0.22262716284E+02  0.12302848842E+02 -0.20448879008E+02  0.17506897292E+03  0.17200000000E+03 0.  1.
         -6    1    1    2    0  503 -0.22262716284E+02 -0.12302848842E+02 -0.30533450773E+01  0.17389741672E+03  0.17200000000E+03 0.  1.
<mgrwt>
<rscale>  2 0.17387061E+03</rscale>
<asrwt>0</asrwt>
<pdfrwt beam="1">  1       21 0.40683021E-01 0.17387061E+03</pdfrwt>
<pdfrwt beam="2">  1       21 0.46558576E-01 0.17387061E+03</pdfrwt>
<totfact> 0.25990778E+04</totfact>
</mgrwt>
</event>
<event>
 4    1  0.1132373E+000  0.1838615E+03  0.7546771E-02  0.1164117E+00
         21   -1    0    0  503  502  0.00000000000E+00  0.00000000000E+00  0.14221012885E+03  0.14221012885E+03  0.00000000000E+00 0. -1.
         21   -1    0    0  501  503 -0.00000000000E+00 -0.00000000000E+00 -0.88882205418E+03  0.88882205418E+03  0.00000000000E+00 0. -1.
          6    1    1    2  501    0  0.52277844592E+02  0.38575711414E+02 -0.81453288659E+03  0.83502627617E+03  0.17200000000E+03 0. -1.
         -6    1    1    2    0  502 -0.52277844592E+02 -0.38575711414E+02  0.67920961260E+02  0.19600590686E+03  0.17200000000E+03 0. -1.
<mgrwt>
<rscale>  2 0.18386152E+03</rscale>
<asrwt>0</asrwt>
<pdfrwt beam="1">  1       21 0.35552533E-01 0.18386152E+03</pdfrwt>
<pdfrwt beam="2">  1       21 0.22220551E+00 0.18386152E+03</pdfrwt>
<totfact> 0.75204780E+02</totfact>
</mgrwt>
</event>
<event>
 4    1  0.1132373E+000  0.1826183E+03  0.7546771E-02  0.1165293E+00
         21   -1    0    0  501  502  0.00000000000E+00  0.00000000000E+00  0.18961391128E+03  0.18961391128E+03  0.00000000000E+00 0. -1.
         21   -1    0    0  502  503 -0.00000000000E+00 -0.00000000000E+00 -0.68795655185E+03  0.68795655185E+03  0.00000000000E+00 0. -1.
          6    1    1    2  501    0 -0.24353822708E+02 -0.56323487515E+02  0.12939206579E+03  0.22381186433E+03  0.17200000000E+03 0. -1.
         -6    1    1    2    0  503  0.24353822708E+02  0.56323487515E+02 -0.62773470636E+03  0.65375859879E+03  0.17200000000E+03 0. -1.
<mgrwt>
<rscale>  2 0.18261830E+03</rscale>
<asrwt>0</asrwt>
<pdfrwt beam="1">  1       21 0.47403478E-01 0.18261830E+03</pdfrwt>
<pdfrwt beam="2">  1       21 0.17198914E+00 0.18261830E+03</pdfrwt>
<totfact> 0.88960182E+02</totfact>
</mgrwt>
</event>
<event>
 4    1  0.1132373E+000  0.1746026E+03  0.7546771E-02  0.1173131E+00
         21   -1    0    0  501  502  0.00000000000E+00  0.00000000000E+00  0.18892118407E+03  0.18892118407E+03  0.00000000000E+00 0.  1.
         21   -1    0    0  502  503 -0.00000000000E+00 -0.00000000000E+00 -0.19710863049E+03  0.19710863049E+03  0.00000000000E+00 0.  1.
          6    1    1    2  501    0 -0.29502750470E+02  0.56247992001E+01  0.78094985587E+02  0.19127173713E+03  0.17200000000E+03 0.  1.
         -6    1    1    2    0  503  0.29502750470E+02 -0.56247992001E+01 -0.86282432000E+02  0.19475807743E+03  0.17200000000E+03 0.  1.
<mgrwt>
<rscale>  2 0.17460255E+03</rscale>
<asrwt>0</asrwt>
<pdfrwt beam="1">  1       21 0.47230296E-01 0.17460255E+03</pdfrwt>
<pdfrwt beam="2">  1       21 0.49277158E-01 0.17460255E+03</pdfrwt>
<totfact> 0.17037978E+04</totfact>
</mgrwt>
</event>
<event>
 4    1  0.1132373E+000  0.2334456E+03  0.7546771E-02  0.1124238E+00
         21   -1    0    0  503  502  0.00000000000E+00  0.00000000000E+00  0.17118815335E+03  0.17118815335E+03  0.00000000000E+00 0.  1.
         21   -1    0    0  501  503 -0.00000000000E+00 -0.00000000000E+00 -0.35205871797E+03  0.35205871797E+03  0.00000000000E+00 0. -1.
          6    1    1    2  501    0  0.15771552818E+03  0.62189287641E+01 -0.17139584872E+03  0.28960904658E+03  0.17200000000E+03 0. -1.
         -6    1    1    2    0  502 -0.15771552818E+03 -0.62189287641E+01 -0.94747159054E+01  0.23363782473E+03  0.17200000000E+03 0.  1.
<mgrwt>
<rscale>  2 0.23344563E+03</rscale>
<asrwt>0</asrwt>
<pdfrwt beam="1">  1       21 0.42797039E-01 0.23344563E+03</pdfrwt>
<pdfrwt beam="2">  1       21 0.88014679E-01 0.23344563E+03</pdfrwt>
<totfact> 0.56398908E+03</totfact>
</mgrwt>
</event>
<event>
 4    1  0.1132373E+000  0.1979673E+03  0.7546771E-02  0.1151465E+00
         21   -1    0    0  503  502  0.00000000000E+00  0.00000000000E+00  0.18409646522E+03  0.18409646522E+03  0.00000000000E+00 0. -1.
         21   -1    0    0  501  503 -0.00000000000E+00 -0.00000000000E+00 -0.69788986596E+03  0.69788986596E+03  0.00000000000E+00 0. -1.
          6    1    1    2  501    0  0.38987426779E+02 -0.89927942096E+02 -0.62452780012E+03  0.65515343801E+03  0.17200000000E+03 0. -1.
         -6    1    1    2    0  502 -0.38987426779E+02  0.89927942096E+02  0.11073439938E+03  0.22683289317E+03  0.17200000000E+03 0. -1.
<mgrwt>
<rscale>  2 0.19796731E+03</rscale>
<asrwt>0</asrwt>
<pdfrwt beam="1">  1       21 0.46024117E-01 0.19796731E+03</pdfrwt>
<pdfrwt beam="2">  1       21 0.17447246E+00 0.19796731E+03</pdfrwt>
<totfact> 0.89328314E+02</totfact>
</mgrwt>
</event>
<event>
 4    1  0.1132373E+000  0.1740408E+03  0.7546771E-02  0.1173698E+00
         21   -1    0    0  503  502  0.00000000000E+00  0.00000000000E+00  0.18126759129E+03  0.18126759129E+03  0.00000000000E+00 0.  1.
         21   -1    0    0  501  503 -0.00000000000E+00 -0.00000000000E+00 -0.18021271606E+03  0.18021271606E+03  0.00000000000E+00 0.  1.
          6    1    1    2  501    0  0.12547164493E+02 -0.23425589587E+02 -0.48222491773E+02  0.18059789118E+03  0.17200000000E+03 0.  1.
         -6    1    1    2    0  502 -0.12547164493E+02  0.23425589587E+02  0.49277367006E+02  0.18088241618E+03  0.17200000000E+03 0.  1.
<mgrwt>
<rscale>  2 0.17404077E+03</rscale>
<asrwt>0</asrwt>
<pdfrwt beam="1">  1       21 0.45316898E-01 0.17404077E+03</pdfrwt>
<pdfrwt beam="2">  1       21 0.45053179E-01 0.17404077E+03</pdfrwt>
<totfact> 0.22323030E+04</totfact>
</mgrwt>
</event>
<event>
 4    1  0.1132373E+000  0.1797738E+03  0.7546771E-02  0.1168022E+00
         21   -1    0    0  501  502  0.00000000000E+00  0.00000000000E+00  0.37336015221E+03  0.37336015221E+03  0.00000000000E+00 0. -1.
         21   -1    0    0  502  503 -0.00000000000E+00 -0.00000000000E+00 -0.10380526561E+03  0.10380526561E+03  0.00000000000E+00 0. -1.
          6    1    1    2  501    0  0.21582974473E+02  0.47631707348E+02  0.23201760723E+03  0.29351452161E+03  0.17200000000E+03 0.  1.
         -6    1    1    2    0  503 -0.21582974473E+02 -0.47631707348E+02  0.37537279366E+02  0.18365089620E+03  0.17200000000E+03 0.  1.
<mgrwt>
<rscale>  2 0.17977376E+03</rscale>
<asrwt>0</asrwt>
<pdfrwt beam="1">  1       21 0.93340035E-01 0.17977376E+03</pdfrwt>
<pdfrwt beam="2">  1       21 0.25951317E-01 0.17977376E+03</pdfrwt>
<totfact> 0.13730142E+04</totfact>
</mgrwt>
</event>
<event>
 4    1  0.1132373E+000  0.1935983E+03  0.7546771E-02  0.1155255E+00
         21   -1    0    0  503  502  0.00000000000E+00  0.00000000000E+00  0.23364415960E+03  0.23364415960E+03  0.00000000000E+00 0. -1.
         21   -1    0    0  501  503 -0.00000000000E+00 -0.00000000000E+00 -0.22867553217E+03  0.22867553217E+03  0.00000000000E+00 0. -1.
          6    1    1    2  501    0  0.20438086348E+02 -0.86478819382E+02 -0.12380995867E+03  0.22980254011E+03  0.17200000000E+03 0. -1.
         -6    1    1    2    0  502 -0.20438086348E+02  0.86478819382E+02  0.12877858610E+03  0.23251715166E+03  0.17200000000E+03 0. -1.
<mgrwt>
<rscale>  2 0.19359830E+03</rscale>
<asrwt>0</asrwt>
<pdfrwt beam="1">  1       21 0.58411040E-01 0.19359830E+03</pdfrwt>
<pdfrwt beam="2">  1       21 0.57168883E-01 0.19359830E+03</pdfrwt>
<totfact> 0.78813757E+03</totfact>
</mgrwt>
</event>
<event>
 4    1  0.1132373E+000  0.2475979E+03  0.7546771E-02  0.1114832E+00
         21   -1    0    0  501  502  0.00000000000E+00  0.00000000000E+00  0.17886530701E+03  0.17886530701E+03  0.00000000000E+00 0. -1.
         21   -1    0    0  502  503 -0.00000000000E+00 -0.00000000000E+00 -0.34342471927E+03  0.34342471927E+03  0.00000000000E+00 0. -1.
          6    1    1    2  501    0 -0.41581989049E+02  0.17318103728E+03 -0.93919464634E+02  0.26481238514E+03  0.17200000000E+03 0. -1.
         -6    1    1    2    0  503  0.41581989049E+02 -0.17318103728E+03 -0.70639947627E+02  0.25747764114E+03  0.17200000000E+03 0. -1.
<mgrwt>
<rscale>  2 0.24759793E+03</rscale>
<asrwt>0</asrwt>
<pdfrwt beam="1">  1       21 0.44716327E-01 0.24759793E+03</pdfrwt>
<pdfrwt beam="2">  1       21 0.85856179E-01 0.24759793E+03</pdfrwt>
<totfact> 0.54092238E+03</totfact>
</mgrwt>
</event>
<event>
 4    1  0.1132373E+000  0.1779865E+03  0.7546771E-02  0.1169766E+00
         21   -1    0    0  503  502  0.00000000000E+00  0.00000000000E+00  0.47087923879E+03  0.47087923879E+03  0.00000000000E+00 0. -1.
         21   -1    0    0  501  503 -0.00000000000E+00 -0.00000000000E+00 -0.87698522080E+02  0.87698522080E+02  0.00000000000E+00 0.  1.
          6    1    1    2  501    0  0.42449394536E+02 -0.17124583085E+02  0.32636392627E+03  0.37174267284E+03  0.17200000000E+03 0. -1.
         -6    1    1    2    0  502 -0.42449394536E+02  0.17124583085E+02  0.56816790442E+02  0.18683508803E+03  0.17200000000E+03 0.  1.
<mgrwt>
<rscale>  2 0.17798652E+03</rscale>
<asrwt>0</asrwt>
<pdfrwt beam="1">  1       21 0.11771980E+00 0.17798652E+03</pdfrwt>
<pdfrwt beam="2">  1       21 0.21924632E-01 0.17798652E+03</pdfrwt>
<totfact> 0.10871881E+04</totfact>
</mgrwt>
</event>
<event>
 4    1  0.1132373E+000  0.1874202E+03  0.7546771E-02  0.1160809E+00
         21   -1    0    0  501  502  0.00000000000E+00  0.00000000000E+00  0.57948143729E+03  0.57948143729E+03  0.00000000000E+00 0.  1.
         21   -1    0    0  502  503 -0.00000000000E+00 -0.00000000000E+00 -0.70160628607E+02  0.70160628607E+02  0.00000000000E+00 0. -1.
          6    1    1    2  501    0  0.63637821640E+02 -0.38633764895E+02  0.37446060768E+03  0.41874465589E+03  0.17200000000E+03 0.  1.
         -6    1    1    2    0  503 -0.63637821640E+02  0.38633764895E+02  0.13486020100E+03  0.23089741001E+03  0.17200000000E+03 0. -1.
<mgrwt>
<rscale>  2 0.18742022E+03</rscale>
<asrwt>0</asrwt>
<pdfrwt beam="1">  1       21 0.14487035E+00 0.18742022E+03</pdfrwt>
<pdfrwt beam="2">  1       21 0.17540159E-01 0.18742022E+03</pdfrwt>
<totfact> 0.96811000E+03</totfact>
</mgrwt>
</event>
<event>
 4    1  0.1132373E+000  0.2085786E+03  0.7546771E-02  0.1142697E+00
         21   -1    0    0  503  502  0.00000000000E+00  0.00000000000E+00  0.26292567022E+03  0.26292567022E+03  0.00000000000E+00 0. -1.
         21   -1    0    0  501  503 -0.00000000000E+00 -0.00000000000E+00 -0.24792802610E+03  0.24792802610E+03  0.00000000000E+00 0. -1.
          6    1    1    2  501    0 -0.11614858792E+03 -0.20749118676E+02 -0.13981148094E+03  0.25110211191E+03  0.17200000000E+03 0. -1.
         -6    1    1    2    0  502  0.11614858792E+03  0.20749118676E+02  0.15480912507E+03  0.25975158441E+03  0.17200000000E+03 0. -1.
<mgrwt>
<rscale>  2 0.20857857E+03</rscale>
<asrwt>0</asrwt>
<pdfrwt beam="1">  1       21 0.65731418E-01 0.20857857E+03</pdfrwt>
<pdfrwt beam="2">  1       21 0.61982007E-01 0.20857857E+03</pdfrwt>
<totfact> 0.50765544E+03</totfact>
</mgrwt>
</event>
<event>
 4    1  0.1132373E+000  0.2725284E+03  0.7546771E-02  0.1099841E+00
         21   -1    0    0  503  502  0.00000000000E+00  0.00000000000E+00  0.46024736547E+03  0.46024736547E+03  0.00000000000E+00 0. -1.
         21   -1    0    0  501  503 -0.00000000000E+00 -0.00000000000E+00 -0.31756934886E+03  0.31756934886E+03  0.00000000000E+00 0.  1.
          6    1    1    2  501    0  0.14055443205E+03  0.15789930229E+03 -0.20140969882E+03  0.33887697593E+03  0.17200000000E+03 0.  1.
         -6    1    1    2    0  502 -0.14055443205E+03 -0.15789930229E+03  0.34408771544E+03  0.43893973840E+03  0.17200000000E+03 0. -1.
<mgrwt>
<rscale>  2 0.27252842E+03</rscale>
<asrwt>0</asrwt>
<pdfrwt beam="1">  1       21 0.11506184E+00 0.27252842E+03</pdfrwt>
<pdfrwt beam="2">  1       21 0.79392338E-01 0.27252842E+03</pdfrwt>
<totfact> 0.76289135E+02</totfact>
</mgrwt>
</event>
<event>
 4    1  0.1132373E+000  0.2410131E+03  0.7546771E-02  0.1119120E+00
         21   -1    0    0  503  502  0.00000000000E+00  0.00000000000E+00  0.48687431625E+03  0.48687431625E+03  0.00000000000E+00 0. -1.
         21   -1    0    0  501  503 -0.00000000000E+00 -0.00000000000E+00 -0.13858041994E+03  0.13858041994E+03  0.00000000000E+00 0.  1.
          6    1    1    2  501    0 -0.92211108901E+02 -0.14142283119E+03  0.29077396435E+03  0.37767287979E+03  0.17200000000E+03 0. -1.
         -6    1    1    2    0  502  0.92211108901E+02  0.14142283119E+03  0.57519931960E+02  0.24778185640E+03  0.17200000000E+03 0.  1.
<mgrwt>
<rscale>  2 0.24101308E+03</rscale>
<asrwt>0</asrwt>
<pdfrwt beam="1">  1       21 0.12171858E+00 0.24101308E+03</pdfrwt>
<pdfrwt beam="2">  1       21 0.34645106E-01 0.24101308E+03</pdfrwt>
<totfact> 0.39437859E+03</totfact>
</mgrwt>
</event>
<event>
 4    1  0.1132373E+000  0.1758699E+03  0.7546771E-02  0.1171861E+00
         21   -1    0    0  503  502  0.00000000000E+00  0.00000000000E+00  0.58986739611E+02  0.58986739611E+02  0.00000000000E+00 0.  1.
         21   -1    0    0  501  503 -0.00000000000E+00 -0.00000000000E+00 -0.63872274242E+03  0.63872274242E+03  0.00000000000E+00 0.  1.
          6    1    1    2  501    0 -0.49626396568E+01 -0.36353677887E+02 -0.14225216751E+03  0.22619879940E+03  0.17200000000E+03 0.  1.
         -6    1    1    2    0  502  0.49626396568E+01  0.36353677887E+02 -0.43748383530E+03  0.47151068263E+03  0.17200000000E+03 0.  1.
<mgrwt>
<rscale>  2 0.17586989E+03</rscale>
<asrwt>0</asrwt>
<pdfrwt beam="1">  1       21 0.14746685E-01 0.17586989E+03</pdfrwt>
<pdfrwt beam="2">  1       21 0.15968069E+00 0.17586989E+03</pdfrwt>
<totfact> 0.10375293E+04</totfact>
</mgrwt>
</event>
<event>
 4    1  0.1132373E+000  0.2177666E+03  0.7546771E-02  0.1135559E+00
         21   -1    0    0  503  502  0.00000000000E+00  0.00000000000E+00  0.56677609025E+03  0.56677609025E+03  0.00000000000E+00 0.  1.
         21   -1    0    0  501  503 -0.00000000000E+00 -0.00000000000E+00 -0.90646927876E+02  0.90646927876E+02  0.00000000000E+00 0. -1.
          6    1    1    2  501    0  0.10508795467E+03 -0.82430651618E+02  0.14687125332E+03  0.26266605337E+03  0.17200000000E+03 0. -1.
         -6    1    1    2    0  502 -0.10508795467E+03  0.82430651618E+02  0.32925790905E+03  0.39475696475E+03  0.17200000000E+03 0.  1.
<mgrwt>
<rscale>  2 0.21776660E+03</rscale>
<asrwt>0</asrwt>
<pdfrwt beam="1">  1       21 0.14169401E+00 0.21776660E+03</pdfrwt>
<pdfrwt beam="2">  1       21 0.22661734E-01 0.21776660E+03</pdfrwt>
<totfact> 0.62085804E+03</totfact>
</mgrwt>
</event>
<event>
 4    1  0.1132373E+000  0.2846450E+03  0.7546771E-02  0.1093179E+00
         21   -1    0    0  501  502  0.00000000000E+00  0.00000000000E+00  0.12751775470E+03  0.12751775470E+03  0.00000000000E+00 0.  1.
         21   -1    0    0  502  503 -0.00000000000E+00 -0.00000000000E+00 -0.78095667980E+03  0.78095667980E+03  0.00000000000E+00 0.  1.
          6    1    1    2  501    0 -0.20274035082E+03  0.10166193806E+03 -0.13060550789E+03  0.31317822113E+03  0.17200000000E+03 0.  1.
         -6    1    1    2    0  503  0.20274035082E+03 -0.10166193806E+03 -0.52283341721E+03  0.59529621337E+03  0.17200000000E+03 0.  1.
<mgrwt>
<rscale>  2 0.28464504E+03</rscale>
<asrwt>0</asrwt>
<pdfrwt beam="1">  1       21 0.31879439E-01 0.28464504E+03</pdfrwt>
<pdfrwt beam="2">  1       21 0.19523917E+00 0.28464504E+03</pdfrwt>
<totfact> 0.12553357E+03</totfact>
</mgrwt>
</event>
<event>
 4    1  0.1132373E+000  0.3233571E+03  0.7546771E-02  0.1074115E+00
         21   -1    0    0  503  502  0.00000000000E+00  0.00000000000E+00  0.11186742348E+04  0.11186742348E+04  0.00000000000E+00 0. -1.
         21   -1    0    0  501  503 -0.00000000000E+00 -0.00000000000E+00 -0.18668297684E+03  0.18668297684E+03  0.00000000000E+00 0.  1.
          6    1    1    2  501    0  0.16084684297E+02 -0.27334428364E+03  0.92719718047E+03  0.98196457469E+03  0.17200000000E+03 0. -1.
         -6    1    1    2    0  502 -0.16084684297E+02  0.27334428364E+03  0.47940775071E+01  0.32339263697E+03  0.17200000000E+03 0.  1.
<mgrwt>
<rscale>  2 0.32335710E+03</rscale>
<asrwt>0</asrwt>
<pdfrwt beam="1">  1       21 0.27966854E+00 0.32335710E+03</pdfrwt>
<pdfrwt beam="2">  1       21 0.46670747E-01 0.32335710E+03</pdfrwt>
<totfact> 0.16904634E+02</totfact>
</mgrwt>
</event>
<event>
 4    1  0.1132373E+000  0.2289963E+03  0.7546771E-02  0.1127348E+00
         21   -1    0    0  501  502  0.00000000000E+00  0.00000000000E+00  0.20163594925E+03  0.20163594925E+03  0.00000000000E+00 0. -1.
         21   -1    0    0  502  503 -0.00000000000E+00 -0.00000000000E+00 -0.28894269470E+03  0.28894269470E+03  0.00000000000E+00 0. -1.
          6    1    1    2  501    0  0.15117841282E+03  0.61583206168E+00  0.33886086432E+02  0.23148986717E+03  0.17200000000E+03 0. -1.
         -6    1    1    2    0  503 -0.15117841282E+03 -0.61583206168E+00 -0.12119283188E+03  0.25908877677E+03  0.17200000000E+03 0. -1.
<mgrwt>
<rscale>  2 0.22899627E+03</rscale>
<asrwt>0</asrwt>
<pdfrwt beam="1">  1       21 0.50408988E-01 0.22899627E+03</pdfrwt>
<pdfrwt beam="2">  1       21 0.72235673E-01 0.22899627E+03</pdfrwt>
<totfact> 0.63101706E+03</totfact>
</mgrwt>
</event>
<event>
 4    1  0.1132373E+000  0.2530948E+03  0.7546771E-02  0.1111364E+00
         21   -1    0    0  503  502  0.00000000000E+00  0.00000000000E+00  0.75177612648E+02  0.75177612648E+02  0.00000000000E+00 0. -1.
         21   -1    0    0  501  503 -0.00000000000E+00 -0.00000000000E+00 -0.86328330883E+03  0.86328330883E+03  0.00000000000E+00 0.  1.
          6    1    1    2  501    0 -0.12420850999E+03 -0.13800434317E+03 -0.34058624888E+03  0.42432999613E+03  0.17200000000E+03 0.  1.
         -6    1    1    2    0  502  0.12420850999E+03  0.13800434317E+03 -0.44751944730E+03  0.51413092535E+03  0.17200000000E+03 0.  1.
<mgrwt>
<rscale>  2 0.25309475E+03</rscale>
<asrwt>0</asrwt>
<pdfrwt beam="1">  1       21 0.18794403E-01 0.25309475E+03</pdfrwt>
<pdfrwt beam="2">  1       21 0.21582082E+00 0.25309475E+03</pdfrwt>
<totfact> 0.26172711E+03</totfact>
</mgrwt>
</event>
<event>
 4    1  0.1132373E+000  0.1994958E+03  0.7546771E-02  0.1150165E+00
         21   -1    0    0  501  502  0.00000000000E+00  0.00000000000E+00  0.19525990955E+03  0.19525990955E+03  0.00000000000E+00 0. -1.
         21   -1    0    0  502  503 -0.00000000000E+00 -0.00000000000E+00 -0.41217783829E+03  0.41217783829E+03  0.00000000000E+00 0. -1.
          6    1    1    2  501    0 -0.81636180874E+02  0.59582881542E+02  0.10747978847E+03  0.22660646666E+03  0.17200000000E+03 0. -1.
         -6    1    1    2    0  503  0.81636180874E+02 -0.59582881542E+02 -0.32439771721E+03  0.38083128119E+03  0.17200000000E+03 0. -1.
<mgrwt>
<rscale>  2 0.19949583E+03</rscale>
<asrwt>0</asrwt>
<pdfrwt beam="1">  1       21 0.48814978E-01 0.19949583E+03</pdfrwt>
<pdfrwt beam="2">  1       21 0.10304446E+00 0.19949583E+03</pdfrwt>
<totfact> 0.30434397E+03</totfact>
</mgrwt>
</event>
<event>
 4    1  0.1132373E+000  0.3006195E+03  0.7546771E-02  0.1084931E+00
         21   -1    0    0  501  502  0.00000000000E+00  0.00000000000E+00  0.16020369026E+03  0.16020369026E+03  0.00000000000E+00 0. -1.
         21   -1    0    0  502  503 -0.00000000000E+00 -0.00000000000E+00 -0.56410784681E+03  0.56410784681E+03  0.00000000000E+00 0.  1.
          6    1    1    2  501    0 -0.24217722615E+03  0.46241294332E+02 -0.20231866695E+03  0.36236019258E+03  0.17200000000E+03 0. -1.
         -6    1    1    2    0  503  0.24217722615E+03 -0.46241294332E+02 -0.20158548960E+03  0.36195134450E+03  0.17200000000E+03 0. -1.
<mgrwt>
<rscale>  2 0.30061947E+03</rscale>
<asrwt>0</asrwt>
<pdfrwt beam="1">  1       21 0.40050923E-01 0.30061947E+03</pdfrwt>
<pdfrwt beam="2">  1       21 0.14102696E+00 0.30061947E+03</pdfrwt>
<totfact> 0.19425264E+03</totfact>
</mgrwt>
</event>
<event>
 4    1  0.1132373E+000  0.1918500E+03  0.7546771E-02  0.1156803E+00
         21   -1    0    0  501  502  0.00000000000E+00  0.00000000000E+00  0.84275569700E+03  0.84275569700E+03  0.00000000000E+00 0. -1.
         21   -1    0    0  502  503 -0.00000000000E+00 -0.00000000000E+00 -0.14282726753E+03  0.14282726753E+03  0.00000000000E+00 0. -1.
          6    1    1    2  501    0  0.20363611929E+02  0.82509051699E+02  0.76055706551E+03  0.78438094712E+03  0.17200000000E+03 0. -1.
         -6    1    1    2    0  503 -0.20363611929E+02 -0.82509051699E+02 -0.60628636038E+02  0.20120201741E+03  0.17200000000E+03 0. -1.
<mgrwt>
<rscale>  2 0.19184999E+03</rscale>
<asrwt>0</asrwt>
<pdfrwt beam="1">  1       21 0.21068891E+00 0.19184999E+03</pdfrwt>
<pdfrwt beam="2">  1       21 0.35706819E-01 0.19184999E+03</pdfrwt>
<totfact> 0.86976900E+02</totfact>
</mgrwt>
</event>
<event>
 4    1  0.1132373E+000  0.1921291E+03  0.7546771E-02  0.1156555E+00
         21   -1    0    0  501  502  0.00000000000E+00  0.00000000000E+00  0.38923220225E+03  0.38923220225E+03  0.00000000000E+00 0.  1.
         21   -1    0    0  502  503 -0.00000000000E+00 -0.00000000000E+00 -0.11302265679E+03  0.11302265679E+03  0.00000000000E+00 0.  1.
          6    1    1    2  501    0 -0.72710219325E+02 -0.45197580811E+02  0.23883885031E+03  0.30652502952E+03  0.17200000000E+03 0.  1.
         -6    1    1    2    0  503  0.72710219325E+02  0.45197580811E+02  0.37370695153E+02  0.19572982951E+03  0.17200000000E+03 0.  1.
<mgrwt>
<rscale>  2 0.19212912E+03</rscale>
<asrwt>0</asrwt>
<pdfrwt beam="1">  1       21 0.97308047E-01 0.19212912E+03</pdfrwt>
<pdfrwt beam="2">  1       21 0.28255665E-01 0.19212912E+03</pdfrwt>
<totfact> 0.10486221E+04</totfact>
</mgrwt>
</event>
<event>
 4    1  0.1132373E+000  0.1856193E+03  0.7546771E-02  0.1162473E+00
         21   -1    0    0  503  502  0.00000000000E+00  0.00000000000E+00  0.11140431805E+03  0.11140431805E+03  0.00000000000E+00 0. -1.
         21   -1    0    0  501  503 -0.00000000000E+00 -0.00000000000E+00 -0.38592674773E+03  0.38592674773E+03  0.00000000000E+00 0. -1.
          6    1    1    2  501    0 -0.65945071806E+02  0.22842299457E+02 -0.24808306261E+03  0.30983823052E+03  0.17200000000E+03 0. -1.
         -6    1    1    2    0  502  0.65945071806E+02 -0.22842299457E+02 -0.26439367075E+02  0.18749283525E+03  0.17200000000E+03 0. -1.
<mgrwt>
<rscale>  2 0.18561930E+03</rscale>
<asrwt>0</asrwt>
<pdfrwt beam="1">  1       21 0.27851080E-01 0.18561930E+03</pdfrwt>
<pdfrwt beam="2">  1       21 0.96481686E-01 0.18561930E+03</pdfrwt>
<totfact> 0.11050163E+04</totfact>
</mgrwt>
</event>
<event>
 4    1  0.1132373E+000  0.1736205E+03  0.7546771E-02  0.1174124E+00
         21   -1    0    0  501  502  0.00000000000E+00  0.00000000000E+00  0.15329503117E+03  0.15329503117E+03  0.00000000000E+00 0.  1.
         21   -1    0    0  502  503 -0.00000000000E+00 -0.00000000000E+00 -0.19722416583E+03  0.19722416583E+03  0.00000000000E+00 0.  1.
          6    1    1    2  501    0  0.15375783945E+02 -0.17990401978E+02 -0.31495683457E+02  0.17645409423E+03  0.17200000000E+03 0. -1.
         -6    1    1    2    0  503 -0.15375783945E+02  0.17990401978E+02 -0.12433451202E+02  0.17406510277E+03  0.17200000000E+03 0. -1.
<mgrwt>
<rscale>  2 0.17362047E+03</rscale>
<asrwt>0</asrwt>
<pdfrwt beam="1">  1       21 0.38323758E-01 0.17362047E+03</pdfrwt>
<pdfrwt beam="2">  1       21 0.49306041E-01 0.17362047E+03</pdfrwt>
<totfact> 0.26037737E+04</totfact>
</mgrwt>
</event>
<event>
 4    1  0.1132373E+000  0.1917603E+03  0.7546771E-02  0.1156883E+00
         21   -1    0    0  501  502  0.00000000000E+00  0.00000000000E+00  0.13788471221E+03  0.13788471221E+03  0.00000000000E+00 0. -1.
         21   -1    0    0  502  503 -0.00000000000E+00 -0.00000000000E+00 -0.38839930565E+03  0.38839930565E+03  0.00000000000E+00 0. -1.
          6    1    1    2  501    0 -0.61541715262E+02 -0.58314958283E+02  0.22048136895E+02  0.19302367061E+03  0.17200000000E+03 0. -1.
         -6    1    1    2    0  503  0.61541715262E+02  0.58314958283E+02 -0.27256273034E+03  0.33326034725E+03  0.17200000000E+03 0. -1.
<mgrwt>
<rscale>  2 0.19176031E+03</rscale>
<asrwt>0</asrwt>
<pdfrwt beam="1">  1       21 0.34471178E-01 0.19176031E+03</pdfrwt>
<pdfrwt beam="2">  1       21 0.97099826E-01 0.19176031E+03</pdfrwt>
<totfact> 0.71425616E+03</totfact>
</mgrwt>
</event>
<event>
 4    1  0.1132373E+000  0.2162768E+03  0.7546771E-02  0.1136690E+00
         21   -1    0    0  503  502  0.00000000000E+00  0.00000000000E+00  0.43844836635E+03  0.43844836635E+03  0.00000000000E+00 0.  1.
         21   -1    0    0  501  503 -0.00000000000E+00 -0.00000000000E+00 -0.11100014207E+03  0.11100014207E+03  0.00000000000E+00 0.  1.
          6    1    1    2  501    0 -0.13097987626E+03 -0.59954545508E+01  0.21789358993E+03  0.30700698688E+03  0.17200000000E+03 0.  1.
         -6    1    1    2    0  502  0.13097987626E+03  0.59954545508E+01  0.10955463435E+03  0.24244152154E+03  0.17200000000E+03 0.  1.
<mgrwt>
<rscale>  2 0.21627684E+03</rscale>
<asrwt>0</asrwt>
<pdfrwt beam="1">  1       21 0.10961209E+00 0.21627684E+03</pdfrwt>
<pdfrwt beam="2">  1       21 0.27750037E-01 0.21627684E+03</pdfrwt>
<totfact> 0.80279144E+03</totfact>
</mgrwt>
</event>
<event>
 4    1  0.1132373E+000  0.2002626E+03  0.7546771E-02  0.1149518E+00
         21   -1    0    0  501  502  0.00000000000E+00  0.00000000000E+00  0.15922052761E+03  0.15922052761E+03  0.00000000000E+00 0.  1.
         21   -1    0    0  502  503 -0.00000000000E+00 -0.00000000000E+00 -0.25773570962E+03  0.25773570962E+03  0.00000000000E+00 0. -1.
          6    1    1    2  501    0  0.42511441893E+02  0.93348198774E+02 -0.17844311637E+02  0.20105603290E+03  0.17200000000E+03 0.  1.
         -6    1    1    2    0  503 -0.42511441893E+02 -0.93348198774E+02 -0.80670870367E+02  0.21590020434E+03  0.17200000000E+03 0. -1.
<mgrwt>
<rscale>  2 0.20026260E+03</rscale>
<asrwt>0</asrwt>
<pdfrwt beam="1">  1       21 0.39805132E-01 0.20026260E+03</pdfrwt>
<pdfrwt beam="2">  1       21 0.64433927E-01 0.20026260E+03</pdfrwt>
<totfact> 0.13445932E+04</totfact>
</mgrwt>
</event>
<event>
 4    1  0.1132373E+000  0.2491725E+03  0.7546771E-02  0.1113829E+00
         21   -1    0    0  503  502  0.00000000000E+00  0.00000000000E+00  0.37707986320E+03  0.37707986320E+03  0.00000000000E+00 0.  1.
         21   -1    0    0  501  503 -0.00000000000E+00 -0.00000000000E+00 -0.32157900833E+03  0.32157900833E+03  0.00000000000E+00 0.  1.
          6    1    1    2  501    0  0.18028049230E+03  0.13688939052E+01 -0.21627791606E+03  0.32994403578E+03  0.17200000000E+03 0.  1.
         -6    1    1    2    0  502 -0.18028049230E+03 -0.13688939052E+01  0.27177877093E+03  0.36871483575E+03  0.17200000000E+03 0.  1.
<mgrwt>
<rscale>  2 0.24917249E+03</rscale>
<asrwt>0</asrwt>
<pdfrwt beam="1">  1       21 0.94269966E-01 0.24917249E+03</pdfrwt>
<pdfrwt beam="2">  1       21 0.80394752E-01 0.24917249E+03</pdfrwt>
<totfact> 0.12210526E+03</totfact>
</mgrwt>
</event>
<event>
 4    1  0.1132373E+000  0.1996557E+03  0.7546771E-02  0.1150030E+00
         21   -1    0    0  501  502  0.00000000000E+00  0.00000000000E+00  0.56755311864E+02  0.56755311864E+02  0.00000000000E+00 0. -1.
         21   -1    0    0  502  503 -0.00000000000E+00 -0.00000000000E+00 -0.11508571181E+04  0.11508571181E+04  0.00000000000E+00 0. -1.
          6    1    1    2  501    0 -0.96812419338E+02  0.30095538589E+02 -0.17011366165E+03  0.26229953081E+03  0.17200000000E+03 0. -1.
         -6    1    1    2    0  503  0.96812419338E+02 -0.30095538589E+02 -0.92398814459E+03  0.94531289916E+03  0.17200000000E+03 0. -1.
<mgrwt>
<rscale>  2 0.19965567E+03</rscale>
<asrwt>0</asrwt>
<pdfrwt beam="1">  1       21 0.14188828E-01 0.19965567E+03</pdfrwt>
<pdfrwt beam="2">  1       21 0.28771427E+00 0.19965567E+03</pdfrwt>
<totfact> 0.17283206E+03</totfact>
</mgrwt>
</event>
<event>
 4    1  0.1132373E+000  0.2395398E+03  0.7546771E-02  0.1120100E+00
         21   -1    0    0  501  502  0.00000000000E+00  0.00000000000E+00  0.24678559344E+03  0.24678559344E+03  0.00000000000E+00 0.  1.
         21   -1    0    0  502  503 -0.00000000000E+00 -0.00000000000E+00 -0.24387593089E+03  0.24387593089E+03  0.00000000000E+00 0. -1.
          6    1    1    2  501    0 -0.15940741376E+03 -0.48832381059E+02  0.54425011545E+02  0.24564487962E+03  0.17200000000E+03 0.  1.
         -6    1    1    2    0  503  0.15940741376E+03  0.48832381059E+02 -0.51515349000E+02  0.24501664471E+03  0.17200000000E+03 0. -1.
<mgrwt>
<rscale>  2 0.23953982E+03</rscale>
<asrwt>0</asrwt>
<pdfrwt beam="1">  1       21 0.61696398E-01 0.23953982E+03</pdfrwt>
<pdfrwt beam="2">  1       21 0.60968983E-01 0.23953982E+03</pdfrwt>
<totfact> 0.59120742E+03</totfact>
</mgrwt>
</event>
<event>
 4    1  0.1132373E+000  0.1819346E+03  0.7546771E-02  0.1165944E+00
         21   -1    0    0  503  502  0.00000000000E+00  0.00000000000E+00  0.15979884051E+03  0.15979884051E+03  0.00000000000E+00 0. -1.
         21   -1    0    0  501  503 -0.00000000000E+00 -0.00000000000E+00 -0.21719612442E+03  0.21719612442E+03  0.00000000000E+00 0. -1.
          6    1    1    2  501    0  0.49068605533E+02 -0.33293913791E+02 -0.69264901874E+02  0.19467367407E+03  0.17200000000E+03 0. -1.
         -6    1    1    2    0  502 -0.49068605533E+02  0.33293913791E+02  0.11867617967E+02  0.18232129086E+03  0.17200000000E+03 0. -1.
<mgrwt>
<rscale>  2 0.18193464E+03</rscale>
<asrwt>0</asrwt>
<pdfrwt beam="1">  1       21 0.39949710E-01 0.18193464E+03</pdfrwt>
<pdfrwt beam="2">  1       21 0.54299031E-01 0.18193464E+03</pdfrwt>
<totfact> 0.19478353E+04</totfact>
</mgrwt>
</event>
<event>
 4    1  0.1132373E+000  0.2154415E+03  0.7546771E-02  0.1137328E+00
         21   -1    0    0  503  502  0.00000000000E+00  0.00000000000E+00  0.11904312691E+04  0.11904312691E+04  0.00000000000E+00 0. -1.
         21   -1    0    0  501  503 -0.00000000000E+00 -0.00000000000E+00 -0.75052898510E+02  0.75052898510E+02  0.00000000000E+00 0.  1.
          6    1    1    2  501    0  0.10859237417E+03  0.70983936440E+02  0.11908501616E+03  0.24616308423E+03  0.17200000000E+03 0.  1.
         -6    1    1    2    0  502 -0.10859237417E+03 -0.70983936440E+02  0.99629335442E+03  0.10193210834E+04  0.17200000000E+03 0. -1.
<mgrwt>
<rscale>  2 0.21544146E+03</rscale>
<asrwt>0</asrwt>
<pdfrwt beam="1">  1       21 0.29760776E+00 0.21544146E+03</pdfrwt>
<pdfrwt beam="2">  1       21 0.18763228E-01 0.21544146E+03</pdfrwt>
<totfact> 0.88936804E+02</totfact>
</mgrwt>
</event>
<event>
 4    1  0.1132373E+000  0.2890591E+03  0.7546771E-02  0.1090841E+00
         21   -1    0    0  503  502  0.00000000000E+00  0.00000000000E+00  0.32942240611E+03  0.32942240611E+03  0.00000000000E+00 0. -1.
         21   -1    0    0  501  503 -0.00000000000E+00 -0.00000000000E+00 -0.40329918079E+03  0.40329918079E+03  0.00000000000E+00 0.  1.
          6    1    1    2  501    0 -0.16307704609E+03  0.16546012390E+03 -0.26011305883E+03  0.38886241646E+03  0.17200000000E+03 0.  1.
         -6    1    1    2    0  502  0.16307704609E+03 -0.16546012390E+03  0.18623628415E+03  0.34385917044E+03  0.17200000000E+03 0. -1.
<mgrwt>
<rscale>  2 0.28905912E+03</rscale>
<asrwt>0</asrwt>
<pdfrwt beam="1">  1       21 0.82355602E-01 0.28905912E+03</pdfrwt>
<pdfrwt beam="2">  1       21 0.10082480E+00 0.28905912E+03</pdfrwt>
<totfact> 0.95688677E+02</totfact>
</mgrwt>
</event>
<event>
 4    1  0.1132373E+000  0.1998527E+03  0.7546771E-02  0.1149863E+00
         21   -1    0    0  501  502  0.00000000000E+00  0.00000000000E+00  0.14753856377E+03  0.14753856377E+03  0.00000000000E+00 0. -1.
         21   -1    0    0  502  503 -0.00000000000E+00 -0.00000000000E+00 -0.27092576993E+03  0.27092576993E+03  0.00000000000E+00 0. -1.
          6    1    1    2  501    0  0.76531980047E+02  0.67081612464E+02 -0.67512170298E+02  0.21094781307E+03  0.17200000000E+03 0. -1.
         -6    1    1    2    0  503 -0.76531980047E+02 -0.67081612464E+02 -0.55875035863E+02  0.20751652063E+03  0.17200000000E+03 0. -1.
<mgrwt>
<rscale>  2 0.19985266E+03</rscale>
<asrwt>0</asrwt>
<pdfrwt beam="1">  1       21 0.36884641E-01 0.19985266E+03</pdfrwt>
<pdfrwt beam="2">  1       21 0.67731442E-01 0.19985266E+03</pdfrwt>
<totfact> 0.14055998E+04</totfact>
</mgrwt>
</event>
<event>
 4    1  0.1132373E+000  0.1908788E+03  0.7546771E-02  0.1157671E+00
         21   -1    0    0  503  502  0.00000000000E+00  0.00000000000E+00  0.20174852206E+03  0.20174852206E+03  0.00000000000E+00 0. -1.
         21   -1    0    0  501  503 -0.00000000000E+00 -0.00000000000E+00 -0.18451590800E+03  0.18451590800E+03  0.00000000000E+00 0. -1.
          6    1    1    2  501    0 -0.76029390414E+02  0.32714770584E+02 -0.19538000068E+02  0.19187615242E+03  0.17200000000E+03 0. -1.
         -6    1    1    2    0  502  0.76029390414E+02 -0.32714770584E+02  0.36770614130E+02  0.19438827764E+03  0.17200000000E+03 0. -1.
<mgrwt>
<rscale>  2 0.19087882E+03</rscale>
<asrwt>0</asrwt>
<pdfrwt beam="1">  1       21 0.50437131E-01 0.19087882E+03</pdfrwt>
<pdfrwt beam="2">  1       21 0.46128977E-01 0.19087882E+03</pdfrwt>
<totfact> 0.16869039E+04</totfact>
</mgrwt>
</event>
<event>
 4    1  0.1132373E+000  0.2320903E+03  0.7546771E-02  0.1125177E+00
         21   -1    0    0  503  502  0.00000000000E+00  0.00000000000E+00  0.54557663413E+03  0.54557663413E+03  0.00000000000E+00 0.  1.
         21   -1    0    0  501  503 -0.00000000000E+00 -0.00000000000E+00 -0.10788635615E+03  0.10788635615E+03  0.00000000000E+00 0. -1.
          6    1    1    2  501    0 -0.15511872549E+03 -0.14835032448E+02  0.12367064962E+03  0.26298351044E+03  0.17200000000E+03 0. -1.
         -6    1    1    2    0  502  0.15511872549E+03  0.14835032448E+02  0.31401962836E+03  0.39047947985E+03  0.17200000000E+03 0.  1.
<mgrwt>
<rscale>  2 0.23209028E+03</rscale>
<asrwt>0</asrwt>
<pdfrwt beam="1">  1       21 0.13639415E+00 0.23209028E+03</pdfrwt>
<pdfrwt beam="2">  1       21 0.26971590E-01 0.23209028E+03</pdfrwt>
<totfact> 0.48601652E+03</totfact>
</mgrwt>
</event>
<event>
 4    1  0.1132373E+000  0.1915719E+03  0.7546771E-02  0.1157051E+00
         21   -1    0    0  503  502  0.00000000000E+00  0.00000000000E+00  0.26015071311E+03  0.26015071311E+03  0.00000000000E+00 0.  1.
         21   -1    0    0  501  503 -0.00000000000E+00 -0.00000000000E+00 -0.21748587496E+03  0.21748587496E+03  0.00000000000E+00 0.  1.
          6    1    1    2  501    0  0.67485939532E+02 -0.50610810541E+02 -0.12022742947E+03  0.22617347540E+03  0.17200000000E+03 0.  1.
         -6    1    1    2    0  502 -0.67485939532E+02  0.50610810541E+02  0.16289226762E+03  0.25146311266E+03  0.17200000000E+03 0.  1.
<mgrwt>
<rscale>  2 0.19157193E+03</rscale>
<asrwt>0</asrwt>
<pdfrwt beam="1">  1       21 0.65037678E-01 0.19157193E+03</pdfrwt>
<pdfrwt beam="2">  1       21 0.54371469E-01 0.19157193E+03</pdfrwt>
<totfact> 0.69624822E+03</totfact>
</mgrwt>
</event>
<event>
 4    1  0.1132373E+000  0.2294217E+03  0.7546771E-02  0.1127047E+00
         21   -1    0    0  501  502  0.00000000000E+00  0.00000000000E+00  0.35729308793E+03  0.35729308793E+03  0.00000000000E+00 0. -1.
         21   -1    0    0  502  503 -0.00000000000E+00 -0.00000000000E+00 -0.23105539471E+03  0.23105539471E+03  0.00000000000E+00 0. -1.
          6    1    1    2  501    0 -0.69417500926E+02 -0.13502413612E+03  0.24021798258E+03  0.33217312643E+03  0.17200000000E+03 0. -1.
         -6    1    1    2    0  503  0.69417500926E+02  0.13502413612E+03 -0.11398028935E+03  0.25617535621E+03  0.17200000000E+03 0. -1.
<mgrwt>
<rscale>  2 0.22942168E+03</rscale>
<asrwt>0</asrwt>
<pdfrwt beam="1">  1       21 0.89323271E-01 0.22942168E+03</pdfrwt>
<pdfrwt beam="2">  1       21 0.57763849E-01 0.22942168E+03</pdfrwt>
<totfact> 0.29169603E+03</totfact>
</mgrwt>
</event>
<event>
 4    1  0.1132373E+000  0.1940735E+03  0.7546771E-02  0.1154838E+00
         21   -1    0    0  503  502  0.00000000000E+00  0.00000000000E+00  0.50908749807E+03  0.50908749807E+03  0.00000000000E+00 0.  1.
         21   -1    0    0  501  503 -0.00000000000E+00 -0.00000000000E+00 -0.75287308375E+02  0.75287308375E+02  0.00000000000E+00 0.  1.
          6    1    1    2  501    0  0.25692779543E+01  0.89854914900E+02  0.17846162342E+03  0.26365329119E+03  0.17200000000E+03 0.  1.
         -6    1    1    2    0  502 -0.25692779543E+01 -0.89854914900E+02  0.25533856627E+03  0.32072151525E+03  0.17200000000E+03 0.  1.
<mgrwt>
<rscale>  2 0.19407346E+03</rscale>
<asrwt>0</asrwt>
<pdfrwt beam="1">  1       21 0.12727186E+00 0.19407346E+03</pdfrwt>
<pdfrwt beam="2">  1       21 0.18821829E-01 0.19407346E+03</pdfrwt>
<totfact> 0.11773795E+04</totfact>
</mgrwt>
</event>
<event>
 4    1  0.1132373E+000  0.2413641E+03  0.7546771E-02  0.1118887E+00
         21   -1    0    0  503  502  0.00000000000E+00  0.00000000000E+00  0.69057945868E+02  0.69057945868E+02  0.00000000000E+00 0.  1.
         21   -1    0    0  501  503 -0.00000000000E+00 -0.00000000000E+00 -0.85592419797E+03  0.85592419797E+03  0.00000000000E+00 0. -1.
          6    1    1    2  501    0 -0.16931338689E+03 -0.23724068296E+01 -0.44895015079E+03  0.50971844109E+03  0.17200000000E+03 0.  1.
         -6    1    1    2    0  502  0.16931338689E+03  0.23724068296E+01 -0.33791610131E+03  0.41526370275E+03  0.17200000000E+03 0.  1.
<mgrwt>
<rscale>  2 0.24136415E+03</rscale>
<asrwt>0</asrwt>
<pdfrwt beam="1">  1       21 0.17264487E-01 0.24136415E+03</pdfrwt>
<pdfrwt beam="2">  1       21 0.21398105E+00 0.24136415E+03</pdfrwt>
<totfact> 0.31774630E+03</totfact>
</mgrwt>
</event>
<event>
 4    1  0.1132373E+000  0.2848102E+03  0.7546771E-02  0.1093090E+00
         21   -1    0    0  501  502  0.00000000000E+00  0.00000000000E+00  0.57512902676E+03  0.57512902676E+03  0.00000000000E+00 0.  1.
         21   -1    0    0  502  503 -0.00000000000E+00 -0.00000000000E+00 -0.17273495469E+03  0.17273495469E+03  0.00000000000E+00 0.  1.
          6    1    1    2  501    0 -0.14497198073E+02 -0.22654509719E+03  0.36137021992E+03  0.46011442670E+03  0.17200000000E+03 0.  1.
         -6    1    1    2    0  503  0.14497198073E+02  0.22654509719E+03  0.41023852148E+02  0.28774955475E+03  0.17200000000E+03 0.  1.
<mgrwt>
<rscale>  2 0.28481020E+03</rscale>
<asrwt>0</asrwt>
<pdfrwt beam="1">  1       21 0.14378225E+00 0.28481020E+03</pdfrwt>
<pdfrwt beam="2">  1       21 0.43183740E-01 0.28481020E+03</pdfrwt>
<totfact> 0.15974596E+03</totfact>
</mgrwt>
</event>
