<event>
 4    1  0.4732450E-002  0.4999048E+03  0.7818608E-02  0.1013804E+00
         21   -1    0    0  501  502  0.00000000000E+00  0.00000000000E+00  0.20823686434E+03  0.20823686434E+03  0.00000000000E+00 0. -1.
         21   -1    0    0  502  503 -0.00000000000E+00 -0.00000000000E+00 -0.12064826784E+04  0.12064826784E+04  0.00000000000E+00 0. -1.
    9000007    1    1    2  501    0  0.15703206841E+03 -0.25543251687E+03 -0.55057667513E+03  0.74366626680E+03  0.40000000000E+03 0. -1.
   -9000007    1    1    2    0  503 -0.15703206841E+03  0.25543251687E+03 -0.44766913893E+03  0.67105327593E+03  0.40000000000E+03 0. -1.
<mgrwt>
<rscale>  2 0.49990483E+03</rscale>
<asrwt>0</asrwt>
<pdfrwt beam="1">  1       21 0.32036441E-01 0.49990483E+03</pdfrwt>
<pdfrwt beam="2">  1       21 0.18561272E+00 0.49990483E+03</pdfrwt>
<totfact> 0.12892904E+03</totfact>
</mgrwt>
</event>
<event>
 4    1  0.4732450E-002  0.4131593E+03  0.7818608E-02  0.1039316E+00
         21   -1    0    0  501  502  0.00000000000E+00  0.00000000000E+00  0.38092344446E+03  0.38092344446E+03  0.00000000000E+00 0.  1.
         21   -1    0    0  502  503 -0.00000000000E+00 -0.00000000000E+00 -0.76116337139E+03  0.76116337139E+03  0.00000000000E+00 0.  1.
    9000007    1    1    2  501    0 -0.45814530108E+02 -0.92745172155E+02  0.17609004448E+03  0.44911951849E+03  0.40000000000E+03 0.  1.
   -9000007    1    1    2    0  503  0.45814530108E+02  0.92745172155E+02 -0.55632997140E+03  0.69296729736E+03  0.40000000000E+03 0.  1.
<mgrwt>
<rscale>  2 0.41315934E+03</rscale>
<asrwt>0</asrwt>
<pdfrwt beam="1">  1       21 0.58603607E-01 0.41315934E+03</pdfrwt>
<pdfrwt beam="2">  1       21 0.11710206E+00 0.41315934E+03</pdfrwt>
<totfact> 0.13251519E+03</totfact>
</mgrwt>
</event>
<event>
 4    1  0.4732450E-002  0.4737537E+03  0.7818608E-02  0.1020866E+00
         21   -1    0    0  503  502  0.00000000000E+00  0.00000000000E+00  0.54959000307E+03  0.54959000307E+03  0.00000000000E+00 0. -1.
         21   -1    0    0  501  503 -0.00000000000E+00 -0.00000000000E+00 -0.63412834220E+03  0.63412834220E+03  0.00000000000E+00 0. -1.
    9000007    1    1    2  501    0 -0.94440658441E+02 -0.23563425409E+03 -0.39540385791E+03  0.61707920928E+03  0.40000000000E+03 0. -1.
   -9000007    1    1    2    0  502  0.94440658441E+02  0.23563425409E+03  0.31086551879E+03  0.56663913600E+03  0.40000000000E+03 0. -1.
<mgrwt>
<rscale>  2 0.47375367E+03</rscale>
<asrwt>0</asrwt>
<pdfrwt beam="1">  1       21 0.84552308E-01 0.47375367E+03</pdfrwt>
<pdfrwt beam="2">  1       21 0.97558206E-01 0.47375367E+03</pdfrwt>
<totfact> 0.88663121E+02</totfact>
</mgrwt>
</event>
<event>
 4    1  0.4732450E-002  0.4126017E+03  0.7818608E-02  0.1039501E+00
         21   -1    0    0  503  502  0.00000000000E+00  0.00000000000E+00  0.17618068644E+04  0.17618068644E+04  0.00000000000E+00 0. -1.
         21   -1    0    0  501  503 -0.00000000000E+00 -0.00000000000E+00 -0.98466105614E+02  0.98466105614E+02  0.00000000000E+00 0.  1.
    9000007    1    1    2  501    0  0.81171629129E+02 -0.60426454150E+02  0.70459326716E+03  0.81651200962E+03  0.40000000000E+03 0.  1.
   -9000007    1    1    2    0  502 -0.81171629129E+02  0.60426454150E+02  0.95874749167E+03  0.10437609604E+04  0.40000000000E+03 0.  1.
<mgrwt>
<rscale>  2 0.41260173E+03</rscale>
<asrwt>0</asrwt>
<pdfrwt beam="1">  1       21 0.27104719E+00 0.41260173E+03</pdfrwt>
<pdfrwt beam="2">  1       21 0.15148633E-01 0.41260173E+03</pdfrwt>
<totfact> 0.16194555E+03</totfact>
</mgrwt>
</event>
<event>
 4    1  0.4732450E-002  0.5155236E+03  0.7818608E-02  0.1009805E+00
         21   -1    0    0  503  502  0.00000000000E+00  0.00000000000E+00  0.10436159128E+04  0.10436159128E+04  0.00000000000E+00 0. -1.
         21   -1    0    0  501  503 -0.00000000000E+00 -0.00000000000E+00 -0.31555576043E+03  0.31555576043E+03  0.00000000000E+00 0. -1.
    9000007    1    1    2  501    0  0.21903803966E+03 -0.24038919750E+03  0.65485852387E+02  0.51966626402E+03  0.40000000000E+03 0. -1.
   -9000007    1    1    2    0  502 -0.21903803966E+03  0.24038919750E+03  0.66257429998E+03  0.83950540921E+03  0.40000000000E+03 0. -1.
<mgrwt>
<rscale>  2 0.51552365E+03</rscale>
<asrwt>0</asrwt>
<pdfrwt beam="1">  1       21 0.16055629E+00 0.51552365E+03</pdfrwt>
<pdfrwt beam="2">  1       21 0.48547040E-01 0.51552365E+03</pdfrwt>
<totfact> 0.82608424E+02</totfact>
</mgrwt>
</event>
<event>
 4    1  0.4732450E-002  0.6587149E+03  0.7818608E-02  0.9790562E-01
         21   -1    0    0  503  502  0.00000000000E+00  0.00000000000E+00  0.65454645632E+03  0.65454645632E+03  0.00000000000E+00 0.  1.
         21   -1    0    0  501  503 -0.00000000000E+00 -0.00000000000E+00 -0.11444432164E+04  0.11444432164E+04  0.00000000000E+00 0. -1.
    9000007    1    1    2  501    0 -0.46367653220E+03 -0.24271247734E+03 -0.82841330901E+03  0.10583826736E+04  0.40000000000E+03 0. -1.
   -9000007    1    1    2    0  502  0.46367653220E+03  0.24271247734E+03  0.33851654898E+03  0.74060699909E+03  0.40000000000E+03 0.  1.
<mgrwt>
<rscale>  2 0.65871486E+03</rscale>
<asrwt>0</asrwt>
<pdfrwt beam="1">  1       21 0.10069946E+00 0.65871486E+03</pdfrwt>
<pdfrwt beam="2">  1       21 0.17606818E+00 0.65871486E+03</pdfrwt>
<totfact> 0.11455122E+02</totfact>
</mgrwt>
</event>
<event>
 4    1  0.4732450E-002  0.4004941E+03  0.7818608E-02  0.1043609E+00
         21   -1    0    0  503  502  0.00000000000E+00  0.00000000000E+00  0.11030592709E+03  0.11030592709E+03  0.00000000000E+00 0.  1.
         21   -1    0    0  501  503 -0.00000000000E+00 -0.00000000000E+00 -0.15249183682E+04  0.15249183682E+04  0.00000000000E+00 0.  1.
    9000007    1    1    2  501    0 -0.17441300318E+02 -0.95567029549E+01 -0.53110623681E+03  0.66518370719E+03  0.40000000000E+03 0. -1.
   -9000007    1    1    2    0  502  0.17441300318E+02  0.95567029549E+01 -0.88350620434E+03  0.97004058814E+03  0.40000000000E+03 0. -1.
<mgrwt>
<rscale>  2 0.40049411E+03</rscale>
<asrwt>0</asrwt>
<pdfrwt beam="1">  1       21 0.16970144E-01 0.40049411E+03</pdfrwt>
<pdfrwt beam="2">  1       21 0.23460280E+00 0.40049411E+03</pdfrwt>
<totfact> 0.22023214E+03</totfact>
</mgrwt>
</event>
<event>
 4    1  0.4732450E-002  0.4296663E+03  0.7818608E-02  0.1033965E+00
         21   -1    0    0  501  502  0.00000000000E+00  0.00000000000E+00  0.30151948936E+03  0.30151948936E+03  0.00000000000E+00 0. -1.
         21   -1    0    0  502  503 -0.00000000000E+00 -0.00000000000E+00 -0.82813010482E+03  0.82813010482E+03  0.00000000000E+00 0. -1.
    9000007    1    1    2  501    0  0.13341860259E+03 -0.82538368288E+02  0.25061162678E+02  0.43039652372E+03  0.40000000000E+03 0. -1.
   -9000007    1    1    2    0  503 -0.13341860259E+03  0.82538368288E+02 -0.55167177814E+03  0.69925307046E+03  0.40000000000E+03 0. -1.
<mgrwt>
<rscale>  2 0.42966627E+03</rscale>
<asrwt>0</asrwt>
<pdfrwt beam="1">  1       21 0.46387614E-01 0.42966627E+03</pdfrwt>
<pdfrwt beam="2">  1       21 0.12740463E+00 0.42966627E+03</pdfrwt>
<totfact> 0.17496562E+03</totfact>
</mgrwt>
</event>
<event>
 4    1  0.4732450E-002  0.5164962E+03  0.7818608E-02  0.1009561E+00
         21   -1    0    0  503  502  0.00000000000E+00  0.00000000000E+00  0.31696211190E+03  0.31696211190E+03  0.00000000000E+00 0.  1.
         21   -1    0    0  501  503 -0.00000000000E+00 -0.00000000000E+00 -0.87710691379E+03  0.87710691379E+03  0.00000000000E+00 0.  1.
    9000007    1    1    2  501    0 -0.40814369493E+02  0.32419511395E+03 -0.40012711385E+03  0.65335288467E+03  0.40000000000E+03 0.  1.
   -9000007    1    1    2    0  502  0.40814369493E+02 -0.32419511395E+03 -0.16001768804E+03  0.54071614102E+03  0.40000000000E+03 0.  1.
<mgrwt>
<rscale>  2 0.51649616E+03</rscale>
<asrwt>0</asrwt>
<pdfrwt beam="1">  1       21 0.48763402E-01 0.51649616E+03</pdfrwt>
<pdfrwt beam="2">  1       21 0.13493952E+00 0.51649616E+03</pdfrwt>
<totfact> 0.13114838E+03</totfact>
</mgrwt>
</event>
<event>
 4    1  0.4732450E-002  0.4360264E+03  0.7818608E-02  0.1031973E+00
         21   -1    0    0  503  502  0.00000000000E+00  0.00000000000E+00  0.23095843353E+04  0.23095843353E+04  0.00000000000E+00 0.  1.
         21   -1    0    0  501  503 -0.00000000000E+00 -0.00000000000E+00 -0.82362554362E+02  0.82362554362E+02  0.00000000000E+00 0. -1.
    9000007    1    1    2  501    0 -0.36968470771E+02  0.16956513180E+03  0.11416107674E+04  0.12220450671E+04  0.40000000000E+03 0.  1.
   -9000007    1    1    2    0  502  0.36968470771E+02 -0.16956513180E+03  0.10856110135E+04  0.11699018226E+04  0.40000000000E+03 0.  1.
<mgrwt>
<rscale>  2 0.43602638E+03</rscale>
<asrwt>0</asrwt>
<pdfrwt beam="1">  1       21 0.35532062E+00 0.43602638E+03</pdfrwt>
<pdfrwt beam="2">  1       21 0.12671164E-01 0.43602638E+03</pdfrwt>
<totfact> 0.68822983E+02</totfact>
</mgrwt>
</event>
<event>
 4    1  0.4732450E-002  0.8440170E+03  0.7818608E-02  0.9498402E-01
         21   -1    0    0  501  502  0.00000000000E+00  0.00000000000E+00  0.28757290343E+03  0.28757290343E+03  0.00000000000E+00 0. -1.
         21   -1    0    0  502  503 -0.00000000000E+00 -0.00000000000E+00 -0.24772478446E+04  0.24772478446E+04  0.00000000000E+00 0.  1.
    9000007    1    1    2  501    0  0.50497116983E+03  0.54531533710E+03 -0.10867046872E+04  0.13759693951E+04  0.40000000000E+03 0.  1.
   -9000007    1    1    2    0  503 -0.50497116983E+03 -0.54531533710E+03 -0.11029702540E+04  0.13888513529E+04  0.40000000000E+03 0. -1.
<mgrwt>
<rscale>  2 0.84401700E+03</rscale>
<asrwt>0</asrwt>
<pdfrwt beam="1">  1       21 0.44241984E-01 0.84401700E+03</pdfrwt>
<pdfrwt beam="2">  1       21 0.38111506E+00 0.84401700E+03</pdfrwt>
<totfact> 0.33939216E+01</totfact>
</mgrwt>
</event>
<event>
 4    1  0.4732450E-002  0.4129742E+03  0.7818608E-02  0.1039378E+00
         21   -1    0    0  503  502  0.00000000000E+00  0.00000000000E+00  0.21631037595E+03  0.21631037595E+03  0.00000000000E+00 0.  1.
         21   -1    0    0  501  503 -0.00000000000E+00 -0.00000000000E+00 -0.90693596070E+03  0.90693596070E+03  0.00000000000E+00 0.  1.
    9000007    1    1    2  501    0  0.67807996995E+02  0.77134621925E+02 -0.54831891758E+03  0.68644104607E+03  0.40000000000E+03 0.  1.
   -9000007    1    1    2    0  502 -0.67807996995E+02 -0.77134621925E+02 -0.14230666717E+03  0.43680529058E+03  0.40000000000E+03 0.  1.
<mgrwt>
<rscale>  2 0.41297418E+03</rscale>
<asrwt>0</asrwt>
<pdfrwt beam="1">  1       21 0.33278519E-01 0.41297418E+03</pdfrwt>
<pdfrwt beam="2">  1       21 0.13952861E+00 0.41297418E+03</pdfrwt>
<totfact> 0.27480303E+03</totfact>
</mgrwt>
</event>
<event>
 4    1  0.4732450E-002  0.4494574E+03  0.7818608E-02  0.1027884E+00
         21   -1    0    0  503  502  0.00000000000E+00  0.00000000000E+00  0.81616886302E+03  0.81616886302E+03  0.00000000000E+00 0.  1.
         21   -1    0    0  501  503 -0.00000000000E+00 -0.00000000000E+00 -0.26905843961E+03  0.26905843961E+03  0.00000000000E+00 0.  1.
    9000007    1    1    2  501    0  0.97382201860E+02 -0.18035694247E+03  0.12000477323E+03  0.46520217705E+03  0.40000000000E+03 0.  1.
   -9000007    1    1    2    0  502 -0.97382201860E+02  0.18035694247E+03  0.42710565017E+03  0.62002512558E+03  0.40000000000E+03 0.  1.
<mgrwt>
<rscale>  2 0.44945736E+03</rscale>
<asrwt>0</asrwt>
<pdfrwt beam="1">  1       21 0.12556444E+00 0.44945736E+03</pdfrwt>
<pdfrwt beam="2">  1       21 0.41393607E-01 0.44945736E+03</pdfrwt>
<totfact> 0.22857705E+03</totfact>
</mgrwt>
</event>
<event>
 4    1  0.4732450E-002  0.4704859E+03  0.7818608E-02  0.1021783E+00
         21   -1    0    0  501  502  0.00000000000E+00  0.00000000000E+00  0.21221872705E+04  0.21221872705E+04  0.00000000000E+00 0. -1.
         21   -1    0    0  502  503 -0.00000000000E+00 -0.00000000000E+00 -0.11355184599E+03  0.11355184599E+03  0.00000000000E+00 0. -1.
    9000007    1    1    2  501    0 -0.22689348714E+03  0.99379569090E+02  0.13232998658E+04  0.14044498880E+04  0.40000000000E+03 0. -1.
   -9000007    1    1    2    0  503  0.22689348714E+03 -0.99379569090E+02  0.68533555876E+03  0.83128922846E+03  0.40000000000E+03 0. -1.
<mgrwt>
<rscale>  2 0.47048587E+03</rscale>
<asrwt>0</asrwt>
<pdfrwt beam="1">  1       21 0.32649032E+00 0.47048587E+03</pdfrwt>
<pdfrwt beam="2">  1       21 0.17469516E-01 0.47048587E+03</pdfrwt>
<totfact> 0.55754880E+02</totfact>
</mgrwt>
</event>
<event>
 4    1  0.4732450E-002  0.4766412E+03  0.7818608E-02  0.1020062E+00
         21   -1    0    0  501  502  0.00000000000E+00  0.00000000000E+00  0.18439884295E+04  0.18439884295E+04  0.00000000000E+00 0. -1.
         21   -1    0    0  502  503 -0.00000000000E+00 -0.00000000000E+00 -0.17479327118E+03  0.17479327118E+03  0.00000000000E+00 0.  1.
    9000007    1    1    2  501    0  0.21282779416E+03 -0.14795659211E+03  0.13829711797E+04  0.14628041930E+04  0.40000000000E+03 0. -1.
   -9000007    1    1    2    0  503 -0.21282779416E+03  0.14795659211E+03  0.28622397857E+03  0.55597750766E+03  0.40000000000E+03 0.  1.
<mgrwt>
<rscale>  2 0.47664119E+03</rscale>
<asrwt>0</asrwt>
<pdfrwt beam="1">  1       21 0.28369051E+00 0.47664119E+03</pdfrwt>
<pdfrwt beam="2">  1       21 0.26891274E-01 0.47664119E+03</pdfrwt>
<totfact> 0.43991010E+02</totfact>
</mgrwt>
</event>
<event>
 4    1  0.4732450E-002  0.4414601E+03  0.7818608E-02  0.1030300E+00
         21   -1    0    0  503  502  0.00000000000E+00  0.00000000000E+00  0.24158613274E+03  0.24158613274E+03  0.00000000000E+00 0.  1.
         21   -1    0    0  501  503 -0.00000000000E+00 -0.00000000000E+00 -0.80882563556E+03  0.80882563556E+03  0.00000000000E+00 0.  1.
    9000007    1    1    2  501    0  0.18402303878E+03  0.31977832393E+02 -0.31055657183E+03  0.53975220692E+03  0.40000000000E+03 0.  1.
   -9000007    1    1    2    0  502 -0.18402303878E+03 -0.31977832393E+02 -0.25668293099E+03  0.51065956138E+03  0.40000000000E+03 0.  1.
<mgrwt>
<rscale>  2 0.44146015E+03</rscale>
<asrwt>0</asrwt>
<pdfrwt beam="1">  1       21 0.37167097E-01 0.44146015E+03</pdfrwt>
<pdfrwt beam="2">  1       21 0.12443471E+00 0.44146015E+03</pdfrwt>
<totfact> 0.29275663E+03</totfact>
</mgrwt>
</event>
<event>
 4    1  0.4732450E-002  0.5050868E+03  0.7818608E-02  0.1012460E+00
         21   -1    0    0  503  502  0.00000000000E+00  0.00000000000E+00  0.27765657018E+03  0.27765657018E+03  0.00000000000E+00 0.  1.
         21   -1    0    0  501  503 -0.00000000000E+00 -0.00000000000E+00 -0.95320201009E+03  0.95320201009E+03  0.00000000000E+00 0.  1.
    9000007    1    1    2  501    0  0.30591260116E+03 -0.39117565441E+02 -0.22086704092E+03  0.55126668069E+03  0.40000000000E+03 0.  1.
   -9000007    1    1    2    0  502 -0.30591260116E+03  0.39117565441E+02 -0.45467839899E+03  0.67959189958E+03  0.40000000000E+03 0.  1.
<mgrwt>
<rscale>  2 0.50508683E+03</rscale>
<asrwt>0</asrwt>
<pdfrwt beam="1">  1       21 0.42716396E-01 0.50508683E+03</pdfrwt>
<pdfrwt beam="2">  1       21 0.14664646E+00 0.50508683E+03</pdfrwt>
<totfact> 0.13929339E+03</totfact>
</mgrwt>
</event>
<event>
 4    1  0.4732450E-002  0.4038075E+03  0.7818608E-02  0.1042469E+00
         21   -1    0    0  501  502  0.00000000000E+00  0.00000000000E+00  0.69169300816E+03  0.69169300816E+03  0.00000000000E+00 0.  1.
         21   -1    0    0  502  503 -0.00000000000E+00 -0.00000000000E+00 -0.45128221728E+03  0.45128221728E+03  0.00000000000E+00 0.  1.
    9000007    1    1    2  501    0 -0.14133233259E+02  0.53485797197E+02  0.51516052981E+03  0.65456157102E+03  0.40000000000E+03 0.  1.
   -9000007    1    1    2    0  503  0.14133233259E+02 -0.53485797197E+02 -0.27474973893E+03  0.48841365442E+03  0.40000000000E+03 0.  1.
<mgrwt>
<rscale>  2 0.40380748E+03</rscale>
<asrwt>0</asrwt>
<pdfrwt beam="1">  1       21 0.10641431E+00 0.40380748E+03</pdfrwt>
<pdfrwt beam="2">  1       21 0.69428034E-01 0.40380748E+03</pdfrwt>
<totfact> 0.11601787E+03</totfact>
</mgrwt>
</event>
<event>
 4    1  0.4732450E-002  0.5899496E+03  0.7818608E-02  0.9926480E-01
         21   -1    0    0  503  502  0.00000000000E+00  0.00000000000E+00  0.64936845636E+03  0.64936845636E+03  0.00000000000E+00 0.  1.
         21   -1    0    0  501  503 -0.00000000000E+00 -0.00000000000E+00 -0.57376338364E+03  0.57376338364E+03  0.00000000000E+00 0. -1.
    9000007    1    1    2  501    0 -0.26636725053E+03  0.34218265207E+03 -0.11916083004E+03  0.60186359165E+03  0.40000000000E+03 0. -1.
   -9000007    1    1    2    0  502  0.26636725053E+03 -0.34218265207E+03  0.19476590276E+03  0.62126824835E+03  0.40000000000E+03 0.  1.
<mgrwt>
<rscale>  2 0.58994956E+03</rscale>
<asrwt>0</asrwt>
<pdfrwt beam="1">  1       21 0.99902840E-01 0.58994956E+03</pdfrwt>
<pdfrwt beam="2">  1       21 0.88271289E-01 0.58994956E+03</pdfrwt>
<totfact> 0.72552687E+02</totfact>
</mgrwt>
</event>
<event>
 4    1  0.4732450E-002  0.8172360E+03  0.7818608E-02  0.9535398E-01
         21   -1    0    0  501  502  0.00000000000E+00  0.00000000000E+00  0.91940184645E+03  0.91940184645E+03  0.00000000000E+00 0.  1.
         21   -1    0    0  502  503 -0.00000000000E+00 -0.00000000000E+00 -0.80581593691E+03  0.80581593691E+03  0.00000000000E+00 0.  1.
    9000007    1    1    2  501    0 -0.27591256584E+03 -0.65707458894E+03  0.32755426389E+03  0.88043543501E+03  0.40000000000E+03 0.  1.
   -9000007    1    1    2    0  503  0.27591256584E+03  0.65707458894E+03 -0.21396835434E+03  0.84478234835E+03  0.40000000000E+03 0.  1.
<mgrwt>
<rscale>  2 0.81723605E+03</rscale>
<asrwt>0</asrwt>
<pdfrwt beam="1">  1       21 0.14144644E+00 0.81723605E+03</pdfrwt>
<pdfrwt beam="2">  1       21 0.12397168E+00 0.81723605E+03</pdfrwt>
<totfact> 0.11932659E+02</totfact>
</mgrwt>
</event>
<event>
 4    1  0.4732450E-002  0.5494634E+03  0.7818608E-02  0.1001618E+00
         21   -1    0    0  503  502  0.00000000000E+00  0.00000000000E+00  0.62863683513E+03  0.62863683513E+03  0.00000000000E+00 0. -1.
         21   -1    0    0  501  503 -0.00000000000E+00 -0.00000000000E+00 -0.55842948473E+03  0.55842948473E+03  0.00000000000E+00 0. -1.
    9000007    1    1    2  501    0 -0.35129180250E+03  0.13602986687E+03 -0.18695888248E+03  0.58039958556E+03  0.40000000000E+03 0. -1.
   -9000007    1    1    2    0  502  0.35129180250E+03 -0.13602986687E+03  0.25716623288E+03  0.60666673430E+03  0.40000000000E+03 0. -1.
<mgrwt>
<rscale>  2 0.54946342E+03</rscale>
<asrwt>0</asrwt>
<pdfrwt beam="1">  1       21 0.96713359E-01 0.54946342E+03</pdfrwt>
<pdfrwt beam="2">  1       21 0.85912228E-01 0.54946342E+03</pdfrwt>
<totfact> 0.84833729E+02</totfact>
</mgrwt>
</event>
<event>
 4    1  0.4732450E-002  0.4120596E+03  0.7818608E-02  0.1039682E+00
         21   -1    0    0  503  502  0.00000000000E+00  0.00000000000E+00  0.70153583757E+03  0.70153583757E+03  0.00000000000E+00 0.  1.
         21   -1    0    0  501  503 -0.00000000000E+00 -0.00000000000E+00 -0.25500437529E+03  0.25500437529E+03  0.00000000000E+00 0.  1.
    9000007    1    1    2  501    0 -0.13660739846E+02 -0.98012724106E+02  0.11538762410E+03  0.42791052066E+03  0.40000000000E+03 0.  1.
   -9000007    1    1    2    0  502  0.13660739846E+02  0.98012724106E+02  0.33114383818E+03  0.52862969219E+03  0.40000000000E+03 0.  1.
<mgrwt>
<rscale>  2 0.41205960E+03</rscale>
<asrwt>0</asrwt>
<pdfrwt beam="1">  1       21 0.10792859E+00 0.41205960E+03</pdfrwt>
<pdfrwt beam="2">  1       21 0.39231443E-01 0.41205960E+03</pdfrwt>
<totfact> 0.37889908E+03</totfact>
</mgrwt>
</event>
<event>
 4    1  0.4732450E-002  0.5824682E+03  0.7818608E-02  0.9942462E-01
         21   -1    0    0  501  502  0.00000000000E+00  0.00000000000E+00  0.13755334342E+04  0.13755334342E+04  0.00000000000E+00 0.  1.
         21   -1    0    0  502  503 -0.00000000000E+00 -0.00000000000E+00 -0.42157926770E+03  0.42157926770E+03  0.00000000000E+00 0. -1.
    9000007    1    1    2  501    0 -0.32628753742E+03  0.26982522923E+03  0.10557956434E+04  0.12058082982E+04  0.40000000000E+03 0.  1.
   -9000007    1    1    2    0  503  0.32628753742E+03 -0.26982522923E+03 -0.10184147690E+03  0.59130440369E+03  0.40000000000E+03 0. -1.
<mgrwt>
<rscale>  2 0.58246821E+03</rscale>
<asrwt>0</asrwt>
<pdfrwt beam="1">  1       21 0.21162053E+00 0.58246821E+03</pdfrwt>
<pdfrwt beam="2">  1       21 0.64858350E-01 0.58246821E+03</pdfrwt>
<totfact> 0.18784891E+02</totfact>
</mgrwt>
</event>
<event>
 4    1  0.4732450E-002  0.4457950E+03  0.7818608E-02  0.1028983E+00
         21   -1    0    0  503  502  0.00000000000E+00  0.00000000000E+00  0.41688936937E+03  0.41688936937E+03  0.00000000000E+00 0. -1.
         21   -1    0    0  501  503 -0.00000000000E+00 -0.00000000000E+00 -0.61779124817E+03  0.61779124817E+03  0.00000000000E+00 0. -1.
    9000007    1    1    2  501    0  0.77988937326E+02  0.18069550686E+03 -0.34767923614E+03  0.56534413571E+03  0.40000000000E+03 0.  1.
   -9000007    1    1    2    0  502 -0.77988937326E+02 -0.18069550686E+03  0.14677735733E+03  0.46933648182E+03  0.40000000000E+03 0.  1.
<mgrwt>
<rscale>  2 0.44579495E+03</rscale>
<asrwt>0</asrwt>
<pdfrwt beam="1">  1       21 0.64136826E-01 0.44579495E+03</pdfrwt>
<pdfrwt beam="2">  1       21 0.95044808E-01 0.44579495E+03</pdfrwt>
<totfact> 0.17901896E+03</totfact>
</mgrwt>
</event>
<event>
 4    1  0.4732450E-002  0.4886756E+03  0.7818608E-02  0.1016778E+00
         21   -1    0    0  503  502  0.00000000000E+00  0.00000000000E+00  0.64355371318E+03  0.64355371318E+03  0.00000000000E+00 0.  1.
         21   -1    0    0  501  503 -0.00000000000E+00 -0.00000000000E+00 -0.40884653681E+03  0.40884653681E+03  0.00000000000E+00 0. -1.
    9000007    1    1    2  501    0 -0.96247842072E+02  0.26370477573E+03 -0.42594283679E+02  0.49052841798E+03  0.40000000000E+03 0. -1.
   -9000007    1    1    2    0  502  0.96247842072E+02 -0.26370477573E+03  0.27730146005E+03  0.56187183200E+03  0.40000000000E+03 0.  1.
<mgrwt>
<rscale>  2 0.48867561E+03</rscale>
<asrwt>0</asrwt>
<pdfrwt beam="1">  1       21 0.99008263E-01 0.48867561E+03</pdfrwt>
<pdfrwt beam="2">  1       21 0.62899467E-01 0.48867561E+03</pdfrwt>
<totfact> 0.16670538E+03</totfact>
</mgrwt>
</event>
<event>
 4    1  0.4732450E-002  0.5790450E+03  0.7818608E-02  0.9949861E-01
         21   -1    0    0  503  502  0.00000000000E+00  0.00000000000E+00  0.12817786478E+04  0.12817786478E+04  0.00000000000E+00 0.  1.
         21   -1    0    0  501  503 -0.00000000000E+00 -0.00000000000E+00 -0.40517594868E+03  0.40517594868E+03  0.00000000000E+00 0. -1.
    9000007    1    1    2  501    0 -0.29107687244E+03 -0.30094410609E+03 -0.63828735247E+02  0.58255232220E+03  0.40000000000E+03 0. -1.
   -9000007    1    1    2    0  502  0.29107687244E+03  0.30094410609E+03  0.94043143435E+03  0.11044022743E+04  0.40000000000E+03 0.  1.
<mgrwt>
<rscale>  2 0.57904499E+03</rscale>
<asrwt>0</asrwt>
<pdfrwt beam="1">  1       21 0.19719671E+00 0.57904499E+03</pdfrwt>
<pdfrwt beam="2">  1       21 0.62334762E-01 0.57904499E+03</pdfrwt>
<totfact> 0.25645847E+02</totfact>
</mgrwt>
</event>
<event>
 4    1  0.4732450E-002  0.5644869E+03  0.7818608E-02  0.9981953E-01
         21   -1    0    0  503  502  0.00000000000E+00  0.00000000000E+00  0.67844053561E+03  0.67844053561E+03  0.00000000000E+00 0.  1.
         21   -1    0    0  501  503 -0.00000000000E+00 -0.00000000000E+00 -0.50283080816E+03  0.50283080816E+03  0.00000000000E+00 0.  1.
    9000007    1    1    2  501    0  0.39306697108E+03 -0.64372348338E+02 -0.63865005229E+02  0.56808818143E+03  0.40000000000E+03 0.  1.
   -9000007    1    1    2    0  502 -0.39306697108E+03  0.64372348338E+02  0.23947473268E+03  0.61318316234E+03  0.40000000000E+03 0.  1.
<mgrwt>
<rscale>  2 0.56448688E+03</rscale>
<asrwt>0</asrwt>
<pdfrwt beam="1">  1       21 0.10437547E+00 0.56448688E+03</pdfrwt>
<pdfrwt beam="2">  1       21 0.77358586E-01 0.56448688E+03</pdfrwt>
<totfact> 0.89439502E+02</totfact>
</mgrwt>
</event>
<event>
 4    1  0.4732450E-002  0.4523771E+03  0.7818608E-02  0.1027016E+00
         21   -1    0    0  503  502  0.00000000000E+00  0.00000000000E+00  0.27709640824E+03  0.27709640824E+03  0.00000000000E+00 0.  1.
         21   -1    0    0  501  503 -0.00000000000E+00 -0.00000000000E+00 -0.84138012449E+03  0.84138012449E+03  0.00000000000E+00 0.  1.
    9000007    1    1    2  501    0 -0.20638141611E+03 -0.45295891485E+02 -0.47766383324E+03  0.65788125394E+03  0.40000000000E+03 0.  1.
   -9000007    1    1    2    0  502  0.20638141611E+03  0.45295891485E+02 -0.86619883009E+02  0.46059527878E+03  0.40000000000E+03 0.  1.
<mgrwt>
<rscale>  2 0.45237706E+03</rscale>
<asrwt>0</asrwt>
<pdfrwt beam="1">  1       21 0.42630216E-01 0.45237706E+03</pdfrwt>
<pdfrwt beam="2">  1       21 0.12944310E+00 0.45237706E+03</pdfrwt>
<totfact> 0.19855985E+03</totfact>
</mgrwt>
</event>
<event>
 4    1  0.4732450E-002  0.4313850E+03  0.7818608E-02  0.1033423E+00
         21   -1    0    0  503  502  0.00000000000E+00  0.00000000000E+00  0.37732885098E+03  0.37732885098E+03  0.00000000000E+00 0.  1.
         21   -1    0    0  501  503 -0.00000000000E+00 -0.00000000000E+00 -0.80391659815E+03  0.80391659815E+03  0.00000000000E+00 0.  1.
    9000007    1    1    2  501    0 -0.65168175251E+02 -0.14780425404E+03  0.15390154559E+03  0.45801601971E+03  0.40000000000E+03 0.  1.
   -9000007    1    1    2    0  502  0.65168175251E+02  0.14780425404E+03 -0.58048929276E+03  0.72322942943E+03  0.40000000000E+03 0.  1.
<mgrwt>
<rscale>  2 0.43138497E+03</rscale>
<asrwt>0</asrwt>
<pdfrwt beam="1">  1       21 0.58050593E-01 0.43138497E+03</pdfrwt>
<pdfrwt beam="2">  1       21 0.12367948E+00 0.43138497E+03</pdfrwt>
<totfact> 0.11682630E+03</totfact>
</mgrwt>
</event>
<event>
 4    1  0.4732450E-002  0.5011696E+03  0.7818608E-02  0.1013474E+00
         21   -1    0    0  501  502  0.00000000000E+00  0.00000000000E+00  0.31689912145E+03  0.31689912145E+03  0.00000000000E+00 0. -1.
         21   -1    0    0  502  503 -0.00000000000E+00 -0.00000000000E+00 -0.11603191139E+04  0.11603191139E+04  0.00000000000E+00 0. -1.
    9000007    1    1    2  501    0  0.24799811617E+03  0.17224363002E+03 -0.59045135197E+01  0.50120434654E+03  0.40000000000E+03 0. -1.
   -9000007    1    1    2    0  503 -0.24799811617E+03 -0.17224363002E+03 -0.83751547889E+03  0.97601388878E+03  0.40000000000E+03 0. -1.
<mgrwt>
<rscale>  2 0.50116957E+03</rscale>
<asrwt>0</asrwt>
<pdfrwt beam="1">  1       21 0.48753711E-01 0.50116957E+03</pdfrwt>
<pdfrwt beam="2">  1       21 0.17851063E+00 0.50116957E+03</pdfrwt>
<totfact> 0.60804069E+02</totfact>
</mgrwt>
</event>
<event>
 4    1  0.4732450E-002  0.4115915E+03  0.7818608E-02  0.1039838E+00
         21   -1    0    0  501  502  0.00000000000E+00  0.00000000000E+00  0.58223642371E+03  0.58223642371E+03  0.00000000000E+00 0. -1.
         21   -1    0    0  502  503 -0.00000000000E+00 -0.00000000000E+00 -0.43912058687E+03  0.43912058687E+03  0.00000000000E+00 0. -1.
    9000007    1    1    2  501    0 -0.95451255859E+02  0.17223758432E+02  0.36819251195E+03  0.55224390079E+03  0.40000000000E+03 0. -1.
   -9000007    1    1    2    0  503  0.95451255859E+02 -0.17223758432E+02 -0.22507667511E+03  0.46911310979E+03  0.40000000000E+03 0. -1.
<mgrwt>
<rscale>  2 0.41159155E+03</rscale>
<asrwt>0</asrwt>
<pdfrwt beam="1">  1       21 0.89574835E-01 0.41159155E+03</pdfrwt>
<pdfrwt beam="2">  1       21 0.67557013E-01 0.41159155E+03</pdfrwt>
<totfact> 0.18614675E+03</totfact>
</mgrwt>
</event>
<event>
 4    1  0.4732450E-002  0.4052930E+03  0.7818608E-02  0.1041962E+00
         21   -1    0    0  501  502  0.00000000000E+00  0.00000000000E+00  0.23640681456E+03  0.23640681456E+03  0.00000000000E+00 0. -1.
         21   -1    0    0  502  503 -0.00000000000E+00 -0.00000000000E+00 -0.10751448423E+04  0.10751448423E+04  0.00000000000E+00 0. -1.
    9000007    1    1    2  501    0 -0.60620795876E+02 -0.24238495688E+02 -0.29342668193E+02  0.40635375936E+03  0.40000000000E+03 0. -1.
   -9000007    1    1    2    0  503  0.60620795876E+02  0.24238495688E+02 -0.80939535950E+03  0.90519789745E+03  0.40000000000E+03 0. -1.
<mgrwt>
<rscale>  2 0.40529296E+03</rscale>
<asrwt>0</asrwt>
<pdfrwt beam="1">  1       21 0.36370279E-01 0.40529296E+03</pdfrwt>
<pdfrwt beam="2">  1       21 0.16540690E+00 0.40529296E+03</pdfrwt>
<totfact> 0.14498242E+03</totfact>
</mgrwt>
</event>
<event>
 4    1  0.4732450E-002  0.4215088E+03  0.7818608E-02  0.1036576E+00
         21   -1    0    0  503  502  0.00000000000E+00  0.00000000000E+00  0.89560010909E+03  0.89560010909E+03  0.00000000000E+00 0. -1.
         21   -1    0    0  501  503 -0.00000000000E+00 -0.00000000000E+00 -0.45470554721E+03  0.45470554721E+03  0.00000000000E+00 0. -1.
    9000007    1    1    2  501    0 -0.90317293854E+02 -0.97531729401E+02 -0.28646456067E+03  0.50963869195E+03  0.40000000000E+03 0. -1.
   -9000007    1    1    2    0  502  0.90317293854E+02  0.97531729401E+02  0.72735912255E+03  0.84066696436E+03  0.40000000000E+03 0. -1.
<mgrwt>
<rscale>  2 0.42150878E+03</rscale>
<asrwt>0</asrwt>
<pdfrwt beam="1">  1       21 0.13778463E+00 0.42150878E+03</pdfrwt>
<pdfrwt beam="2">  1       21 0.69954700E-01 0.42150878E+03</pdfrwt>
<totfact> 0.58692210E+02</totfact>
</mgrwt>
</event>
<event>
 4    1  0.4732450E-002  0.4142345E+03  0.7818608E-02  0.1038959E+00
         21   -1    0    0  503  502  0.00000000000E+00  0.00000000000E+00  0.12440722014E+03  0.12440722014E+03  0.00000000000E+00 0. -1.
         21   -1    0    0  501  503 -0.00000000000E+00 -0.00000000000E+00 -0.16088706530E+04  0.16088706530E+04  0.00000000000E+00 0.  1.
    9000007    1    1    2  501    0  0.10557358602E+03 -0.21082359536E+02 -0.10696259476E+04  0.11470352722E+04  0.40000000000E+03 0.  1.
   -9000007    1    1    2    0  502 -0.10557358602E+03  0.21082359536E+02 -0.41483748528E+03  0.58624260093E+03  0.40000000000E+03 0. -1.
<mgrwt>
<rscale>  2 0.41423453E+03</rscale>
<asrwt>0</asrwt>
<pdfrwt beam="1">  1       21 0.19139572E-01 0.41423453E+03</pdfrwt>
<pdfrwt beam="2">  1       21 0.24751857E+00 0.41423453E+03</pdfrwt>
<totfact> 0.14514503E+03</totfact>
</mgrwt>
</event>
<event>
 4    1  0.4732450E-002  0.4037210E+03  0.7818608E-02  0.1042499E+00
         21   -1    0    0  503  502  0.00000000000E+00  0.00000000000E+00  0.76183102034E+03  0.76183102034E+03  0.00000000000E+00 0. -1.
         21   -1    0    0  501  503 -0.00000000000E+00 -0.00000000000E+00 -0.35271276369E+03  0.35271276369E+03  0.00000000000E+00 0. -1.
    9000007    1    1    2  501    0 -0.43776998017E+02 -0.32775548159E+02 -0.14498286387E+03  0.42896467562E+03  0.40000000000E+03 0. -1.
   -9000007    1    1    2    0  502  0.43776998017E+02  0.32775548159E+02  0.55410112053E+03  0.68557910841E+03  0.40000000000E+03 0. -1.
<mgrwt>
<rscale>  2 0.40372102E+03</rscale>
<asrwt>0</asrwt>
<pdfrwt beam="1">  1       21 0.11720477E+00 0.40372102E+03</pdfrwt>
<pdfrwt beam="2">  1       21 0.54263502E-01 0.40372102E+03</pdfrwt>
<totfact> 0.15682959E+03</totfact>
</mgrwt>
</event>
<event>
 4    1  0.4732450E-002  0.4041458E+03  0.7818608E-02  0.1042354E+00
         21   -1    0    0  503  502  0.00000000000E+00  0.00000000000E+00  0.18956816424E+03  0.18956816424E+03  0.00000000000E+00 0. -1.
         21   -1    0    0  501  503 -0.00000000000E+00 -0.00000000000E+00 -0.10530444293E+04  0.10530444293E+04  0.00000000000E+00 0. -1.
    9000007    1    1    2  501    0  0.48549665859E+02 -0.31252930743E+02 -0.16683170682E+03  0.43722606754E+03  0.40000000000E+03 0. -1.
   -9000007    1    1    2    0  502 -0.48549665859E+02  0.31252930743E+02 -0.69664455824E+03  0.80538652600E+03  0.40000000000E+03 0. -1.
<mgrwt>
<rscale>  2 0.40414579E+03</rscale>
<asrwt>0</asrwt>
<pdfrwt beam="1">  1       21 0.29164333E-01 0.40414579E+03</pdfrwt>
<pdfrwt beam="2">  1       21 0.16200683E+00 0.40414579E+03</pdfrwt>
<totfact> 0.23919979E+03</totfact>
</mgrwt>
</event>
<event>
 4    1  0.4732450E-002  0.4022781E+03  0.7818608E-02  0.1042994E+00
         21   -1    0    0  503  502  0.00000000000E+00  0.00000000000E+00  0.26718042448E+03  0.26718042448E+03  0.00000000000E+00 0.  1.
         21   -1    0    0  501  503 -0.00000000000E+00 -0.00000000000E+00 -0.12265279857E+04  0.12265279857E+04  0.00000000000E+00 0.  1.
    9000007    1    1    2  501    0 -0.18030173597E+02  0.38763480029E+02 -0.10110318856E+04  0.10881236916E+04  0.40000000000E+03 0.  1.
   -9000007    1    1    2    0  502  0.18030173597E+02 -0.38763480029E+02  0.51684324384E+02  0.40558471856E+03  0.40000000000E+03 0.  1.
<mgrwt>
<rscale>  2 0.40227813E+03</rscale>
<asrwt>0</asrwt>
<pdfrwt beam="1">  1       21 0.41104682E-01 0.40227813E+03</pdfrwt>
<pdfrwt beam="2">  1       21 0.18869661E+00 0.40227813E+03</pdfrwt>
<totfact> 0.77294416E+02</totfact>
</mgrwt>
</event>
<event>
 4    1  0.4732450E-002  0.4502010E+03  0.7818608E-02  0.1027662E+00
         21   -1    0    0  503  502  0.00000000000E+00  0.00000000000E+00  0.75179621959E+03  0.75179621959E+03  0.00000000000E+00 0. -1.
         21   -1    0    0  501  503 -0.00000000000E+00 -0.00000000000E+00 -0.27100306991E+03  0.27100306991E+03  0.00000000000E+00 0. -1.
    9000007    1    1    2  501    0 -0.20628546822E+03 -0.11280036783E+02  0.27725161011E+03  0.52872430334E+03  0.40000000000E+03 0.  1.
   -9000007    1    1    2    0  502  0.20628546822E+03  0.11280036783E+02  0.20354153957E+03  0.49407498617E+03  0.40000000000E+03 0.  1.
<mgrwt>
<rscale>  2 0.45020099E+03</rscale>
<asrwt>0</asrwt>
<pdfrwt beam="1">  1       21 0.11566096E+00 0.45020099E+03</pdfrwt>
<pdfrwt beam="2">  1       21 0.41692780E-01 0.45020099E+03</pdfrwt>
<totfact> 0.27744986E+03</totfact>
</mgrwt>
</event>
<event>
 4    1  0.4732450E-002  0.5189065E+03  0.7818608E-02  0.1008959E+00
         21   -1    0    0  501  502  0.00000000000E+00  0.00000000000E+00  0.68942156697E+03  0.68942156697E+03  0.00000000000E+00 0.  1.
         21   -1    0    0  502  503 -0.00000000000E+00 -0.00000000000E+00 -0.46778631207E+03  0.46778631207E+03  0.00000000000E+00 0. -1.
    9000007    1    1    2  501    0  0.32533787865E+03  0.58473874038E+02  0.34590334263E+03  0.62362893749E+03  0.40000000000E+03 0. -1.
   -9000007    1    1    2    0  503 -0.32533787865E+03 -0.58473874038E+02 -0.12426808773E+03  0.53357894154E+03  0.40000000000E+03 0.  1.
<mgrwt>
<rscale>  2 0.51890647E+03</rscale>
<asrwt>0</asrwt>
<pdfrwt beam="1">  1       21 0.10606486E+00 0.51890647E+03</pdfrwt>
<pdfrwt beam="2">  1       21 0.71967125E-01 0.51890647E+03</pdfrwt>
<totfact> 0.10299520E+03</totfact>
</mgrwt>
</event>
<event>
 4    1  0.4732450E-002  0.5271270E+03  0.7818608E-02  0.1006931E+00
         21   -1    0    0  501  502  0.00000000000E+00  0.00000000000E+00  0.18779791920E+03  0.18779791920E+03  0.00000000000E+00 0.  1.
         21   -1    0    0  502  503 -0.00000000000E+00 -0.00000000000E+00 -0.17518961648E+04  0.17518961648E+04  0.00000000000E+00 0. -1.
    9000007    1    1    2  501    0  0.29822793175E+03  0.17006743155E+03 -0.39968032877E+03  0.66151885518E+03  0.40000000000E+03 0.  1.
   -9000007    1    1    2    0  503 -0.29822793175E+03 -0.17006743155E+03 -0.11644179169E+04  0.12781752289E+04  0.40000000000E+03 0. -1.
<mgrwt>
<rscale>  2 0.52712696E+03</rscale>
<asrwt>0</asrwt>
<pdfrwt beam="1">  1       21 0.28891987E-01 0.52712696E+03</pdfrwt>
<pdfrwt beam="2">  1       21 0.26952249E+00 0.52712696E+03</pdfrwt>
<totfact> 0.45390947E+02</totfact>
</mgrwt>
</event>
<event>
 4    1  0.4732450E-002  0.4543216E+03  0.7818608E-02  0.1026441E+00
         21   -1    0    0  503  502  0.00000000000E+00  0.00000000000E+00  0.31540497740E+03  0.31540497740E+03  0.00000000000E+00 0. -1.
         21   -1    0    0  501  503 -0.00000000000E+00 -0.00000000000E+00 -0.73542923981E+03  0.73542923981E+03  0.00000000000E+00 0. -1.
    9000007    1    1    2  501    0 -0.14849950468E+03  0.15606413809E+03 -0.35633082383E+02  0.45571683604E+03  0.40000000000E+03 0. -1.
   -9000007    1    1    2    0  502  0.14849950468E+03 -0.15606413809E+03 -0.38439118002E+03  0.59511738117E+03  0.40000000000E+03 0. -1.
<mgrwt>
<rscale>  2 0.45432160E+03</rscale>
<asrwt>0</asrwt>
<pdfrwt beam="1">  1       21 0.48523843E-01 0.45432160E+03</pdfrwt>
<pdfrwt beam="2">  1       21 0.11314296E+00 0.45432160E+03</pdfrwt>
<totfact> 0.21298860E+03</totfact>
</mgrwt>
</event>
<event>
 4    1  0.4732450E-002  0.5026476E+03  0.7818608E-02  0.1013090E+00
         21   -1    0    0  503  502  0.00000000000E+00  0.00000000000E+00  0.16186566028E+04  0.16186566028E+04  0.00000000000E+00 0.  1.
         21   -1    0    0  501  503 -0.00000000000E+00 -0.00000000000E+00 -0.10044558799E+04  0.10044558799E+04  0.00000000000E+00 0.  1.
    9000007    1    1    2  501    0  0.68834941484E+02  0.29650684713E+03 -0.89825006970E+03  0.10293239273E+04  0.40000000000E+03 0.  1.
   -9000007    1    1    2    0  502 -0.68834941484E+02 -0.29650684713E+03  0.15124507926E+04  0.15937885555E+04  0.40000000000E+03 0.  1.
<mgrwt>
<rscale>  2 0.50264755E+03</rscale>
<asrwt>0</asrwt>
<pdfrwt beam="1">  1       21 0.24902409E+00 0.50264755E+03</pdfrwt>
<pdfrwt beam="2">  1       21 0.15453167E+00 0.50264755E+03</pdfrwt>
<totfact> 0.13423212E+01</totfact>
</mgrwt>
</event>
<event>
 4    1  0.4732450E-002  0.5857090E+03  0.7818608E-02  0.9935507E-01
         21   -1    0    0  503  502  0.00000000000E+00  0.00000000000E+00  0.44597554044E+03  0.44597554044E+03  0.00000000000E+00 0. -1.
         21   -1    0    0  501  503 -0.00000000000E+00 -0.00000000000E+00 -0.77030100512E+03  0.77030100512E+03  0.00000000000E+00 0.  1.
    9000007    1    1    2  501    0 -0.15977403501E+03 -0.39689706518E+03 -0.18490381064E+03  0.61420228085E+03  0.40000000000E+03 0.  1.
   -9000007    1    1    2    0  502  0.15977403501E+03  0.39689706518E+03 -0.13942165405E+03  0.60207426471E+03  0.40000000000E+03 0. -1.
<mgrwt>
<rscale>  2 0.58570899E+03</rscale>
<asrwt>0</asrwt>
<pdfrwt beam="1">  1       21 0.68611621E-01 0.58570899E+03</pdfrwt>
<pdfrwt beam="2">  1       21 0.11850785E+00 0.58570899E+03</pdfrwt>
<totfact> 0.84990181E+02</totfact>
</mgrwt>
</event>
<event>
 4    1  0.4732450E-002  0.4556655E+03  0.7818608E-02  0.1026046E+00
         21   -1    0    0  503  502  0.00000000000E+00  0.00000000000E+00  0.19124693756E+04  0.19124693756E+04  0.00000000000E+00 0. -1.
         21   -1    0    0  501  503 -0.00000000000E+00 -0.00000000000E+00 -0.11369270496E+03  0.11369270496E+03  0.00000000000E+00 0. -1.
    9000007    1    1    2  501    0  0.36078375967E+02  0.21524266312E+03  0.68428115889E+03  0.82211419989E+03  0.40000000000E+03 0. -1.
   -9000007    1    1    2    0  502 -0.36078375967E+02 -0.21524266312E+03  0.11144955118E+04  0.12040478807E+04  0.40000000000E+03 0. -1.
<mgrwt>
<rscale>  2 0.45566551E+03</rscale>
<asrwt>0</asrwt>
<pdfrwt beam="1">  1       21 0.29422604E+00 0.45566551E+03</pdfrwt>
<pdfrwt beam="2">  1       21 0.17491187E-01 0.45566551E+03</pdfrwt>
<totfact> 0.87786404E+02</totfact>
</mgrwt>
</event>
<event>
 4    1  0.4732450E-002  0.4927443E+03  0.7818608E-02  0.1015690E+00
         21   -1    0    0  501  502  0.00000000000E+00  0.00000000000E+00  0.97797269530E+03  0.97797269530E+03  0.00000000000E+00 0. -1.
         21   -1    0    0  502  503 -0.00000000000E+00 -0.00000000000E+00 -0.28655131600E+03  0.28655131600E+03  0.00000000000E+00 0.  1.
    9000007    1    1    2  501    0 -0.26640589465E+03 -0.10874196048E+03  0.11460287290E+03  0.50589597068E+03  0.40000000000E+03 0.  1.
   -9000007    1    1    2    0  503  0.26640589465E+03  0.10874196048E+03  0.57681850640E+03  0.75862804061E+03  0.40000000000E+03 0. -1.
<mgrwt>
<rscale>  2 0.49274427E+03</rscale>
<asrwt>0</asrwt>
<pdfrwt beam="1">  1       21 0.15045734E+00 0.49274427E+03</pdfrwt>
<pdfrwt beam="2">  1       21 0.44084818E-01 0.49274427E+03</pdfrwt>
<totfact> 0.12218818E+03</totfact>
</mgrwt>
</event>
<event>
 4    1  0.4732450E-002  0.5247712E+03  0.7818608E-02  0.1007508E+00
         21   -1    0    0  503  502  0.00000000000E+00  0.00000000000E+00  0.14471769678E+04  0.14471769678E+04  0.00000000000E+00 0.  1.
         21   -1    0    0  501  503 -0.00000000000E+00 -0.00000000000E+00 -0.19047212074E+03  0.19047212074E+03  0.00000000000E+00 0. -1.
    9000007    1    1    2  501    0  0.17830937338E+03  0.28912032261E+03  0.65360031473E+03  0.83819935875E+03  0.40000000000E+03 0.  1.
   -9000007    1    1    2    0  502 -0.17830937338E+03 -0.28912032261E+03  0.60310453236E+03  0.79944972984E+03  0.40000000000E+03 0. -1.
<mgrwt>
<rscale>  2 0.52477118E+03</rscale>
<asrwt>0</asrwt>
<pdfrwt beam="1">  1       21 0.22264260E+00 0.52477118E+03</pdfrwt>
<pdfrwt beam="2">  1       21 0.29303404E-01 0.52477118E+03</pdfrwt>
<totfact> 0.86498488E+02</totfact>
</mgrwt>
</event>
<event>
 4    1  0.4732450E-002  0.6627768E+03  0.7818608E-02  0.9783095E-01
         21   -1    0    0  501  502  0.00000000000E+00  0.00000000000E+00  0.54228243831E+03  0.54228243831E+03  0.00000000000E+00 0. -1.
         21   -1    0    0  502  503 -0.00000000000E+00 -0.00000000000E+00 -0.82722136097E+03  0.82722136097E+03  0.00000000000E+00 0.  1.
    9000007    1    1    2  501    0 -0.15748144596E+03  0.50445282446E+03 -0.24114073809E+03  0.70528144276E+03  0.40000000000E+03 0. -1.
   -9000007    1    1    2    0  503  0.15748144596E+03 -0.50445282446E+03 -0.43798184565E+02  0.66422235652E+03  0.40000000000E+03 0.  1.
<mgrwt>
<rscale>  2 0.66277678E+03</rscale>
<asrwt>0</asrwt>
<pdfrwt beam="1">  1       21 0.83428068E-01 0.66277678E+03</pdfrwt>
<pdfrwt beam="2">  1       21 0.12726482E+00 0.66277678E+03</pdfrwt>
<totfact> 0.43995607E+02</totfact>
</mgrwt>
</event>
<event>
 4    1  0.4732450E-002  0.7443823E+03  0.7818608E-02  0.9644205E-01
         21   -1    0    0  503  502  0.00000000000E+00  0.00000000000E+00  0.42912544097E+03  0.42912544097E+03  0.00000000000E+00 0.  1.
         21   -1    0    0  501  503 -0.00000000000E+00 -0.00000000000E+00 -0.16132159622E+04  0.16132159622E+04  0.00000000000E+00 0.  1.
    9000007    1    1    2  501    0 -0.47380085982E+03 -0.41184676100E+03 -0.13583807003E+03  0.75667495702E+03  0.40000000000E+03 0.  1.
   -9000007    1    1    2    0  502  0.47380085982E+03  0.41184676100E+03 -0.10482524512E+04  0.12856664462E+04  0.40000000000E+03 0.  1.
<mgrwt>
<rscale>  2 0.74438230E+03</rscale>
<asrwt>0</asrwt>
<pdfrwt beam="1">  1       21 0.66019300E-01 0.74438230E+03</pdfrwt>
<pdfrwt beam="2">  1       21 0.24818707E+00 0.74438230E+03</pdfrwt>
<totfact> 0.99001290E+01</totfact>
</mgrwt>
</event>
<event>
 4    1  0.4732450E-002  0.5328052E+03  0.7818608E-02  0.1005554E+00
         21   -1    0    0  501  502  0.00000000000E+00  0.00000000000E+00  0.35270981038E+03  0.35270981038E+03  0.00000000000E+00 0. -1.
         21   -1    0    0  502  503 -0.00000000000E+00 -0.00000000000E+00 -0.13813955573E+04  0.13813955573E+04  0.00000000000E+00 0. -1.
    9000007    1    1    2  501    0  0.32764398089E+03  0.12857225826E+03  0.45801739778E+02  0.53477023400E+03  0.40000000000E+03 0. -1.
   -9000007    1    1    2    0  503 -0.32764398089E+03 -0.12857225826E+03 -0.10744874867E+04  0.11993351337E+04  0.40000000000E+03 0. -1.
<mgrwt>
<rscale>  2 0.53280522E+03</rscale>
<asrwt>0</asrwt>
<pdfrwt beam="1">  1       21 0.54263048E-01 0.53280522E+03</pdfrwt>
<pdfrwt beam="2">  1       21 0.21252239E+00 0.53280522E+03</pdfrwt>
<totfact> 0.28013430E+02</totfact>
</mgrwt>
</event>
<event>
 4    1  0.4732450E-002  0.5156707E+03  0.7818608E-02  0.1009768E+00
         21   -1    0    0  503  502  0.00000000000E+00  0.00000000000E+00  0.21952295623E+04  0.21952295623E+04  0.00000000000E+00 0. -1.
         21   -1    0    0  501  503 -0.00000000000E+00 -0.00000000000E+00 -0.13966040194E+03  0.13966040194E+03  0.00000000000E+00 0.  1.
    9000007    1    1    2  501    0 -0.30698346683E+03 -0.10806225531E+03  0.60257922475E+03  0.79310656411E+03  0.40000000000E+03 0.  1.
   -9000007    1    1    2    0  502  0.30698346683E+03  0.10806225531E+03  0.14529899356E+04  0.15417834001E+04  0.40000000000E+03 0. -1.
<mgrwt>
<rscale>  2 0.51567073E+03</rscale>
<asrwt>0</asrwt>
<pdfrwt beam="1">  1       21 0.33772760E+00 0.51567073E+03</pdfrwt>
<pdfrwt beam="2">  1       21 0.21486217E-01 0.51567073E+03</pdfrwt>
<totfact> 0.31352579E+02</totfact>
</mgrwt>
</event>
<event>
 4    1  0.4732450E-002  0.4132885E+03  0.7818608E-02  0.1039273E+00
         21   -1    0    0  503  502  0.00000000000E+00  0.00000000000E+00  0.66694097863E+03  0.66694097863E+03  0.00000000000E+00 0.  1.
         21   -1    0    0  501  503 -0.00000000000E+00 -0.00000000000E+00 -0.25658642431E+03  0.25658642431E+03  0.00000000000E+00 0.  1.
    9000007    1    1    2  501    0 -0.97998172000E+02 -0.34695564073E+02  0.22516325802E+03  0.47064415076E+03  0.40000000000E+03 0.  1.
   -9000007    1    1    2    0  502  0.97998172000E+02  0.34695564073E+02  0.18519129629E+03  0.45288325218E+03  0.40000000000E+03 0.  1.
<mgrwt>
<rscale>  2 0.41328855E+03</rscale>
<asrwt>0</asrwt>
<pdfrwt beam="1">  1       21 0.10260630E+00 0.41328855E+03</pdfrwt>
<pdfrwt beam="2">  1       21 0.39474835E-01 0.41328855E+03</pdfrwt>
<totfact> 0.42340828E+03</totfact>
</mgrwt>
</event>
<event>
 4    1  0.4732450E-002  0.4031883E+03  0.7818608E-02  0.1042681E+00
         21   -1    0    0  503  502  0.00000000000E+00  0.00000000000E+00  0.59870008462E+03  0.59870008462E+03  0.00000000000E+00 0. -1.
         21   -1    0    0  501  503 -0.00000000000E+00 -0.00000000000E+00 -0.27294245881E+03  0.27294245881E+03  0.00000000000E+00 0. -1.
    9000007    1    1    2  501    0 -0.50180149439E+02 -0.65361600845E+01  0.19430945501E+03  0.44756779720E+03  0.40000000000E+03 0. -1.
   -9000007    1    1    2    0  502  0.50180149439E+02  0.65361600845E+01  0.13144817080E+03  0.42407474623E+03  0.40000000000E+03 0. -1.
<mgrwt>
<rscale>  2 0.40318825E+03</rscale>
<asrwt>0</asrwt>
<pdfrwt beam="1">  1       21 0.92107705E-01 0.40318825E+03</pdfrwt>
<pdfrwt beam="2">  1       21 0.41991148E-01 0.40318825E+03</pdfrwt>
<totfact> 0.48515374E+03</totfact>
</mgrwt>
</event>
<event>
 4    1  0.4732450E-002  0.5078110E+03  0.7818608E-02  0.1011760E+00
         21   -1    0    0  503  502  0.00000000000E+00  0.00000000000E+00  0.29571252759E+03  0.29571252759E+03  0.00000000000E+00 0.  1.
         21   -1    0    0  501  503 -0.00000000000E+00 -0.00000000000E+00 -0.92679234281E+03  0.92679234281E+03  0.00000000000E+00 0.  1.
    9000007    1    1    2  501    0  0.13360248449E+03 -0.28288225619E+03 -0.46411508764E+03  0.68794971423E+03  0.40000000000E+03 0.  1.
   -9000007    1    1    2    0  502 -0.13360248449E+03  0.28288225619E+03 -0.16696472757E+03  0.53455515617E+03  0.40000000000E+03 0.  1.
<mgrwt>
<rscale>  2 0.50781098E+03</rscale>
<asrwt>0</asrwt>
<pdfrwt beam="1">  1       21 0.45494235E-01 0.50781098E+03</pdfrwt>
<pdfrwt beam="2">  1       21 0.14258344E+00 0.50781098E+03</pdfrwt>
<totfact> 0.13155963E+03</totfact>
</mgrwt>
</event>
<event>
 4    1  0.4732450E-002  0.5966104E+03  0.7818608E-02  0.9912463E-01
         21   -1    0    0  501  502  0.00000000000E+00  0.00000000000E+00  0.23018406068E+03  0.23018406068E+03  0.00000000000E+00 0. -1.
         21   -1    0    0  502  503 -0.00000000000E+00 -0.00000000000E+00 -0.21102603613E+04  0.21102603613E+04  0.00000000000E+00 0.  1.
    9000007    1    1    2  501    0  0.39631100707E+03 -0.19718400504E+03 -0.33510508871E+03  0.68428018139E+03  0.40000000000E+03 0. -1.
   -9000007    1    1    2    0  503 -0.39631100707E+03  0.19718400504E+03 -0.15449712119E+04  0.16561642406E+04  0.40000000000E+03 0.  1.
<mgrwt>
<rscale>  2 0.59661038E+03</rscale>
<asrwt>0</asrwt>
<pdfrwt beam="1">  1       21 0.35412931E-01 0.59661038E+03</pdfrwt>
<pdfrwt beam="2">  1       21 0.32465545E+00 0.59661038E+03</pdfrwt>
<totfact> 0.13473330E+02</totfact>
</mgrwt>
</event>
<event>
 4    1  0.4732450E-002  0.5113696E+03  0.7818608E-02  0.1010853E+00
         21   -1    0    0  501  502  0.00000000000E+00  0.00000000000E+00  0.99483745852E+03  0.99483745852E+03  0.00000000000E+00 0. -1.
         21   -1    0    0  502  503 -0.00000000000E+00 -0.00000000000E+00 -0.33225256174E+03  0.33225256174E+03  0.00000000000E+00 0. -1.
    9000007    1    1    2  501    0  0.30357159844E+03  0.96660022963E+02  0.63454577352E+03  0.81495227720E+03  0.40000000000E+03 0. -1.
   -9000007    1    1    2    0  503 -0.30357159844E+03 -0.96660022963E+02  0.28039123255E+02  0.51213774305E+03  0.40000000000E+03 0. -1.
<mgrwt>
<rscale>  2 0.51136961E+03</rscale>
<asrwt>0</asrwt>
<pdfrwt beam="1">  1       21 0.15305191E+00 0.51136961E+03</pdfrwt>
<pdfrwt beam="2">  1       21 0.51115779E-01 0.51136961E+03</pdfrwt>
<totfact> 0.84659511E+02</totfact>
</mgrwt>
</event>
<event>
 4    1  0.4732450E-002  0.4110911E+03  0.7818608E-02  0.1040005E+00
         21   -1    0    0  503  502  0.00000000000E+00  0.00000000000E+00  0.85212714289E+03  0.85212714289E+03  0.00000000000E+00 0. -1.
         21   -1    0    0  501  503 -0.00000000000E+00 -0.00000000000E+00 -0.23509486686E+03  0.23509486686E+03  0.00000000000E+00 0. -1.
    9000007    1    1    2  501    0 -0.94119911154E+02  0.11717606662E+02  0.52351112182E+03  0.66562733917E+03  0.40000000000E+03 0. -1.
   -9000007    1    1    2    0  502  0.94119911154E+02 -0.11717606662E+02  0.93521154205E+02  0.42159467058E+03  0.40000000000E+03 0. -1.
<mgrwt>
<rscale>  2 0.41109106E+03</rscale>
<asrwt>0</asrwt>
<pdfrwt beam="1">  1       21 0.13109648E+00 0.41109106E+03</pdfrwt>
<pdfrwt beam="2">  1       21 0.36168442E-01 0.41109106E+03</pdfrwt>
<totfact> 0.27368685E+03</totfact>
</mgrwt>
</event>
<event>
 4    1  0.4732450E-002  0.4346422E+03  0.7818608E-02  0.1032403E+00
         21   -1    0    0  503  502  0.00000000000E+00  0.00000000000E+00  0.54647194868E+03  0.54647194868E+03  0.00000000000E+00 0. -1.
         21   -1    0    0  501  503 -0.00000000000E+00 -0.00000000000E+00 -0.61196834839E+03  0.61196834839E+03  0.00000000000E+00 0.  1.
    9000007    1    1    2  501    0  0.45207838398E+02 -0.16392089464E+03 -0.41481672085E+03  0.60082170421E+03  0.40000000000E+03 0.  1.
   -9000007    1    1    2    0  502 -0.45207838398E+02  0.16392089464E+03  0.34932032114E+03  0.55761859287E+03  0.40000000000E+03 0. -1.
<mgrwt>
<rscale>  2 0.43464216E+03</rscale>
<asrwt>0</asrwt>
<pdfrwt beam="1">  1       21 0.84072608E-01 0.43464216E+03</pdfrwt>
<pdfrwt beam="2">  1       21 0.94148976E-01 0.43464216E+03</pdfrwt>
<totfact> 0.99458153E+02</totfact>
</mgrwt>
</event>
<event>
 4    1  0.4732450E-002  0.4084190E+03  0.7818608E-02  0.1040903E+00
         21   -1    0    0  503  502  0.00000000000E+00  0.00000000000E+00  0.20030906632E+04  0.20030906632E+04  0.00000000000E+00 0. -1.
         21   -1    0    0  501  503 -0.00000000000E+00 -0.00000000000E+00 -0.11092507564E+03  0.11092507564E+03  0.00000000000E+00 0. -1.
    9000007    1    1    2  501    0 -0.14400799492E+02 -0.81232244814E+02  0.41834685720E+03  0.58465387500E+03  0.40000000000E+03 0.  1.
   -9000007    1    1    2    0  502  0.14400799492E+02  0.81232244814E+02  0.14738187303E+04  0.15293618638E+04  0.40000000000E+03 0.  1.
<mgrwt>
<rscale>  2 0.40841898E+03</rscale>
<asrwt>0</asrwt>
<pdfrwt beam="1">  1       21 0.30816777E+00 0.40841898E+03</pdfrwt>
<pdfrwt beam="2">  1       21 0.17065398E-01 0.40841898E+03</pdfrwt>
<totfact> 0.77887673E+02</totfact>
</mgrwt>
</event>
<event>
 4    1  0.4732450E-002  0.4175249E+03  0.7818608E-02  0.1037875E+00
         21   -1    0    0  501  502  0.00000000000E+00  0.00000000000E+00  0.25431499109E+04  0.25431499109E+04  0.00000000000E+00 0.  1.
         21   -1    0    0  502  503 -0.00000000000E+00 -0.00000000000E+00 -0.77492182223E+02  0.77492182223E+02  0.00000000000E+00 0.  1.
    9000007    1    1    2  501    0 -0.66254346602E+02  0.99686533978E+02  0.16779996900E+04  0.17291645391E+04  0.40000000000E+03 0.  1.
   -9000007    1    1    2    0  503  0.66254346602E+02 -0.99686533978E+02  0.78765803865E+03  0.89147755404E+03  0.40000000000E+03 0.  1.
<mgrwt>
<rscale>  2 0.41752490E+03</rscale>
<asrwt>0</asrwt>
<pdfrwt beam="1">  1       21 0.39125377E+00 0.41752490E+03</pdfrwt>
<pdfrwt beam="2">  1       21 0.11921876E-01 0.41752490E+03</pdfrwt>
<totfact> 0.46428576E+02</totfact>
</mgrwt>
</event>
<event>
 4    1  0.4732450E-002  0.4678085E+03  0.7818608E-02  0.1022541E+00
         21   -1    0    0  501  502  0.00000000000E+00  0.00000000000E+00  0.36232018406E+03  0.36232018406E+03  0.00000000000E+00 0. -1.
         21   -1    0    0  502  503 -0.00000000000E+00 -0.00000000000E+00 -0.61032744743E+03  0.61032744743E+03  0.00000000000E+00 0. -1.
    9000007    1    1    2  501    0  0.12683609051E+03  0.20677860099E+03 -0.74522822942E+02  0.47370711925E+03  0.40000000000E+03 0. -1.
   -9000007    1    1    2    0  503 -0.12683609051E+03 -0.20677860099E+03 -0.17348444043E+03  0.49894051224E+03  0.40000000000E+03 0. -1.
<mgrwt>
<rscale>  2 0.46780849E+03</rscale>
<asrwt>0</asrwt>
<pdfrwt beam="1">  1       21 0.55741567E-01 0.46780849E+03</pdfrwt>
<pdfrwt beam="2">  1       21 0.93896529E-01 0.46780849E+03</pdfrwt>
<totfact> 0.24860750E+03</totfact>
</mgrwt>
</event>
<event>
 4    1  0.4732450E-002  0.4650790E+03  0.7818608E-02  0.1023318E+00
         21   -1    0    0  501  502  0.00000000000E+00  0.00000000000E+00  0.49310427418E+03  0.49310427418E+03  0.00000000000E+00 0. -1.
         21   -1    0    0  502  503 -0.00000000000E+00 -0.00000000000E+00 -0.44739244458E+03  0.44739244458E+03  0.00000000000E+00 0.  1.
    9000007    1    1    2  501    0  0.17687258624E+03  0.15815980138E+03  0.88604711719E+02  0.47344400881E+03  0.40000000000E+03 0. -1.
   -9000007    1    1    2    0  503 -0.17687258624E+03 -0.15815980138E+03 -0.42892882124E+02  0.46705270995E+03  0.40000000000E+03 0.  1.
<mgrwt>
<rscale>  2 0.46507896E+03</rscale>
<asrwt>0</asrwt>
<pdfrwt beam="1">  1       21 0.75862196E-01 0.46507896E+03</pdfrwt>
<pdfrwt beam="2">  1       21 0.68829607E-01 0.46507896E+03</pdfrwt>
<totfact> 0.25735770E+03</totfact>
</mgrwt>
</event>
<event>
 4    1  0.4732450E-002  0.4952274E+03  0.7818608E-02  0.1015032E+00
         21   -1    0    0  501  502  0.00000000000E+00  0.00000000000E+00  0.20417327943E+03  0.20417327943E+03  0.00000000000E+00 0.  1.
         21   -1    0    0  502  503 -0.00000000000E+00 -0.00000000000E+00 -0.13168599936E+04  0.13168599936E+04  0.00000000000E+00 0.  1.
    9000007    1    1    2  501    0  0.26742889594E+03  0.11718333975E+03 -0.78174453804E+03  0.92540513952E+03  0.40000000000E+03 0.  1.
   -9000007    1    1    2    0  503 -0.26742889594E+03 -0.11718333975E+03 -0.33094217616E+03  0.59562813353E+03  0.40000000000E+03 0.  1.
<mgrwt>
<rscale>  2 0.49522737E+03</rscale>
<asrwt>0</asrwt>
<pdfrwt beam="1">  1       21 0.31411273E-01 0.49522737E+03</pdfrwt>
<pdfrwt beam="2">  1       21 0.20259385E+00 0.49522737E+03</pdfrwt>
<totfact> 0.10299930E+03</totfact>
</mgrwt>
</event>
<event>
 4    1  0.4732450E-002  0.4863622E+03  0.7818608E-02  0.1017401E+00
         21   -1    0    0  503  502  0.00000000000E+00  0.00000000000E+00  0.25729182646E+04  0.25729182646E+04  0.00000000000E+00 0.  1.
         21   -1    0    0  501  503 -0.00000000000E+00 -0.00000000000E+00 -0.95952460078E+02  0.95952460078E+02  0.00000000000E+00 0.  1.
    9000007    1    1    2  501    0  0.27405544753E+03 -0.37970796432E+02  0.96552249432E+03  0.10811021491E+04  0.40000000000E+03 0.  1.
   -9000007    1    1    2    0  502 -0.27405544753E+03  0.37970796432E+02  0.15114433102E+04  0.15877685756E+04  0.40000000000E+03 0.  1.
<mgrwt>
<rscale>  2 0.48636218E+03</rscale>
<asrwt>0</asrwt>
<pdfrwt beam="1">  1       21 0.39583353E+00 0.48636218E+03</pdfrwt>
<pdfrwt beam="2">  1       21 0.14761919E-01 0.48636218E+03</pdfrwt>
<totfact> 0.28049636E+02</totfact>
</mgrwt>
</event>
<event>
 4    1  0.4732450E-002  0.4505876E+03  0.7818608E-02  0.1027547E+00
         21   -1    0    0  501  502  0.00000000000E+00  0.00000000000E+00  0.12470232682E+04  0.12470232682E+04  0.00000000000E+00 0. -1.
         21   -1    0    0  502  503 -0.00000000000E+00 -0.00000000000E+00 -0.16325151111E+03  0.16325151111E+03  0.00000000000E+00 0.  1.
    9000007    1    1    2  501    0  0.19725229936E+02  0.20649468687E+03  0.57851358285E+03  0.73328514641E+03  0.40000000000E+03 0. -1.
   -9000007    1    1    2    0  503 -0.19725229936E+02 -0.20649468687E+03  0.50525817419E+03  0.67698963285E+03  0.40000000000E+03 0.  1.
<mgrwt>
<rscale>  2 0.45058755E+03</rscale>
<asrwt>0</asrwt>
<pdfrwt beam="1">  1       21 0.19184973E+00 0.45058755E+03</pdfrwt>
<pdfrwt beam="2">  1       21 0.25115618E-01 0.45058755E+03</pdfrwt>
<totfact> 0.19280750E+03</totfact>
</mgrwt>
</event>
<event>
 4    1  0.4732450E-002  0.4526478E+03  0.7818608E-02  0.1026935E+00
         21   -1    0    0  501  502  0.00000000000E+00  0.00000000000E+00  0.62446109186E+03  0.62446109186E+03  0.00000000000E+00 0. -1.
         21   -1    0    0  502  503 -0.00000000000E+00 -0.00000000000E+00 -0.34572973748E+03  0.34572973748E+03  0.00000000000E+00 0.  1.
    9000007    1    1    2  501    0 -0.51124794527E+02  0.20561198447E+03  0.24888630761E+03  0.51656018709E+03  0.40000000000E+03 0. -1.
   -9000007    1    1    2    0  503  0.51124794527E+02 -0.20561198447E+03  0.29845046760E+02  0.45363064225E+03  0.40000000000E+03 0.  1.
<mgrwt>
<rscale>  2 0.45264780E+03</rscale>
<asrwt>0</asrwt>
<pdfrwt beam="1">  1       21 0.96070937E-01 0.45264780E+03</pdfrwt>
<pdfrwt beam="2">  1       21 0.53189191E-01 0.45264780E+03</pdfrwt>
<totfact> 0.26176784E+03</totfact>
</mgrwt>
</event>
<event>
 4    1  0.4732450E-002  0.4531953E+03  0.7818608E-02  0.1026773E+00
         21   -1    0    0  503  502  0.00000000000E+00  0.00000000000E+00  0.10282453856E+04  0.10282453856E+04  0.00000000000E+00 0.  1.
         21   -1    0    0  501  503 -0.00000000000E+00 -0.00000000000E+00 -0.30717895449E+03  0.30717895449E+03  0.00000000000E+00 0.  1.
    9000007    1    1    2  501    0 -0.12494860127E+03  0.17255089757E+03 -0.34347687653E+02  0.45449502622E+03  0.40000000000E+03 0.  1.
   -9000007    1    1    2    0  502  0.12494860127E+03 -0.17255089757E+03  0.75541411878E+03  0.88092931388E+03  0.40000000000E+03 0.  1.
<mgrwt>
<rscale>  2 0.45319528E+03</rscale>
<asrwt>0</asrwt>
<pdfrwt beam="1">  1       21 0.15819160E+00 0.45319528E+03</pdfrwt>
<pdfrwt beam="2">  1       21 0.47258301E-01 0.45319528E+03</pdfrwt>
<totfact> 0.93494815E+02</totfact>
</mgrwt>
</event>
<event>
 4    1  0.4732450E-002  0.5209728E+03  0.7818608E-02  0.1008445E+00
         21   -1    0    0  501  502  0.00000000000E+00  0.00000000000E+00  0.17601899141E+04  0.17601899141E+04  0.00000000000E+00 0. -1.
         21   -1    0    0  502  503 -0.00000000000E+00 -0.00000000000E+00 -0.15713121466E+03  0.15713121466E+03  0.00000000000E+00 0. -1.
    9000007    1    1    2  501    0  0.28929822064E+03  0.16649084569E+03  0.67048447624E+03  0.84909486810E+03  0.40000000000E+03 0. -1.
   -9000007    1    1    2    0  503 -0.28929822064E+03 -0.16649084569E+03  0.93257422323E+03  0.10682262607E+04  0.40000000000E+03 0. -1.
<mgrwt>
<rscale>  2 0.52097280E+03</rscale>
<asrwt>0</asrwt>
<pdfrwt beam="1">  1       21 0.27079843E+00 0.52097280E+03</pdfrwt>
<pdfrwt beam="2">  1       21 0.24174034E-01 0.52097280E+03</pdfrwt>
<totfact> 0.63458343E+02</totfact>
</mgrwt>
</event>
<event>
 4    1  0.4732450E-002  0.5098797E+03  0.7818608E-02  0.1011232E+00
         21   -1    0    0  501  502  0.00000000000E+00  0.00000000000E+00  0.18545744263E+03  0.18545744263E+03  0.00000000000E+00 0.  1.
         21   -1    0    0  502  503 -0.00000000000E+00 -0.00000000000E+00 -0.21126715151E+04  0.21126715151E+04  0.00000000000E+00 0.  1.
    9000007    1    1    2  501    0 -0.37380959598E+02  0.31397450770E+03 -0.29707828684E+03  0.59011256226E+03  0.40000000000E+03 0.  1.
   -9000007    1    1    2    0  503  0.37380959598E+02 -0.31397450770E+03 -0.16301357856E+04  0.17080163955E+04  0.40000000000E+03 0.  1.
<mgrwt>
<rscale>  2 0.50987972E+03</rscale>
<asrwt>0</asrwt>
<pdfrwt beam="1">  1       21 0.28531915E-01 0.50987972E+03</pdfrwt>
<pdfrwt beam="2">  1       21 0.32502638E+00 0.50987972E+03</pdfrwt>
<totfact> 0.21623012E+02</totfact>
</mgrwt>
</event>
<event>
 4    1  0.4732450E-002  0.4882895E+03  0.7818608E-02  0.1016882E+00
         21   -1    0    0  501  502  0.00000000000E+00  0.00000000000E+00  0.53397811311E+03  0.53397811311E+03  0.00000000000E+00 0. -1.
         21   -1    0    0  502  503 -0.00000000000E+00 -0.00000000000E+00 -0.45388637692E+03  0.45388637692E+03  0.00000000000E+00 0. -1.
    9000007    1    1    2  501    0  0.15537782794E+03 -0.23299004433E+03  0.10301270657E+03  0.49903732113E+03  0.40000000000E+03 0. -1.
   -9000007    1    1    2    0  503 -0.15537782794E+03  0.23299004433E+03 -0.22920970372E+02  0.48882716890E+03  0.40000000000E+03 0. -1.
<mgrwt>
<rscale>  2 0.48828949E+03</rscale>
<asrwt>0</asrwt>
<pdfrwt beam="1">  1       21 0.82150478E-01 0.48828949E+03</pdfrwt>
<pdfrwt beam="2">  1       21 0.69828674E-01 0.48828949E+03</pdfrwt>
<totfact> 0.20565508E+03</totfact>
</mgrwt>
</event>
<event>
 4    1  0.4732450E-002  0.9522671E+03  0.7818608E-02  0.9362505E-01
         21   -1    0    0  503  502  0.00000000000E+00  0.00000000000E+00  0.19290701016E+04  0.19290701016E+04  0.00000000000E+00 0. -1.
         21   -1    0    0  501  503 -0.00000000000E+00 -0.00000000000E+00 -0.49862549401E+03  0.49862549401E+03  0.00000000000E+00 0.  1.
    9000007    1    1    2  501    0  0.51111089702E+03  0.69683444724E+03  0.42477709224E+03  0.10427119324E+04  0.40000000000E+03 0. -1.
   -9000007    1    1    2    0  502 -0.51111089702E+03 -0.69683444724E+03  0.10056675154E+04  0.13849836632E+04  0.40000000000E+03 0.  1.
<mgrwt>
<rscale>  2 0.95226708E+03</rscale>
<asrwt>0</asrwt>
<pdfrwt beam="1">  1       21 0.29678001E+00 0.95226708E+03</pdfrwt>
<pdfrwt beam="2">  1       21 0.76711615E-01 0.95226708E+03</pdfrwt>
<totfact> 0.32713999E+01</totfact>
</mgrwt>
</event>
<event>
 4    1  0.4732450E-002  0.4144638E+03  0.7818608E-02  0.1038883E+00
         21   -1    0    0  503  502  0.00000000000E+00  0.00000000000E+00  0.61176813315E+03  0.61176813315E+03  0.00000000000E+00 0. -1.
         21   -1    0    0  501  503 -0.00000000000E+00 -0.00000000000E+00 -0.28350688455E+03  0.28350688455E+03  0.00000000000E+00 0. -1.
    9000007    1    1    2  501    0 -0.12296795266E+02 -0.10783810692E+03  0.12033480816E+03  0.43157934906E+03  0.40000000000E+03 0.  1.
   -9000007    1    1    2    0  502  0.12296795266E+02  0.10783810692E+03  0.20792644045E+03  0.46369566864E+03  0.40000000000E+03 0.  1.
<mgrwt>
<rscale>  2 0.41446383E+03</rscale>
<asrwt>0</asrwt>
<pdfrwt beam="1">  1       21 0.94118174E-01 0.41446383E+03</pdfrwt>
<pdfrwt beam="2">  1       21 0.43616444E-01 0.41446383E+03</pdfrwt>
<totfact> 0.42412616E+03</totfact>
</mgrwt>
</event>
<event>
 4    1  0.4732450E-002  0.5669385E+03  0.7818608E-02  0.9976476E-01
         21   -1    0    0  503  502  0.00000000000E+00  0.00000000000E+00  0.19327866042E+04  0.19327866042E+04  0.00000000000E+00 0.  1.
         21   -1    0    0  501  503 -0.00000000000E+00 -0.00000000000E+00 -0.17616957155E+03  0.17616957155E+03  0.00000000000E+00 0. -1.
    9000007    1    1    2  501    0 -0.26196449090E+03  0.30462079605E+03  0.11279159712E+04  0.12623841183E+04  0.40000000000E+03 0. -1.
   -9000007    1    1    2    0  502  0.26196449090E+03 -0.30462079605E+03  0.62870106141E+03  0.84657205747E+03  0.40000000000E+03 0.  1.
<mgrwt>
<rscale>  2 0.56693847E+03</rscale>
<asrwt>0</asrwt>
<pdfrwt beam="1">  1       21 0.29735177E+00 0.56693847E+03</pdfrwt>
<pdfrwt beam="2">  1       21 0.27103012E-01 0.56693847E+03</pdfrwt>
<totfact> 0.34261230E+02</totfact>
</mgrwt>
</event>
<event>
 4    1  0.4732450E-002  0.5310980E+03  0.7818608E-02  0.1005966E+00
         21   -1    0    0  503  502  0.00000000000E+00  0.00000000000E+00  0.16522696249E+04  0.16522696249E+04  0.00000000000E+00 0. -1.
         21   -1    0    0  501  503 -0.00000000000E+00 -0.00000000000E+00 -0.17083189783E+03  0.17083189783E+03  0.00000000000E+00 0. -1.
    9000007    1    1    2  501    0  0.29296326834E+03 -0.19036176266E+03  0.71674251237E+03  0.89206777003E+03  0.40000000000E+03 0. -1.
   -9000007    1    1    2    0  502 -0.29296326834E+03  0.19036176266E+03  0.76469521467E+03  0.93103375268E+03  0.40000000000E+03 0. -1.
<mgrwt>
<rscale>  2 0.53109799E+03</rscale>
<asrwt>0</asrwt>
<pdfrwt beam="1">  1       21 0.25419532E+00 0.53109799E+03</pdfrwt>
<pdfrwt beam="2">  1       21 0.26281832E-01 0.53109799E+03</pdfrwt>
<totfact> 0.67813245E+02</totfact>
</mgrwt>
</event>
<event>
 4    1  0.4732450E-002  0.4683910E+03  0.7818608E-02  0.1022375E+00
         21   -1    0    0  503  502  0.00000000000E+00  0.00000000000E+00  0.11523352199E+04  0.11523352199E+04  0.00000000000E+00 0. -1.
         21   -1    0    0  501  503 -0.00000000000E+00 -0.00000000000E+00 -0.20316753608E+03  0.20316753608E+03  0.00000000000E+00 0. -1.
    9000007    1    1    2  501    0 -0.96902298866E+02 -0.22360700573E+03  0.30459893147E+03  0.55872234391E+03  0.40000000000E+03 0. -1.
   -9000007    1    1    2    0  502  0.96902298866E+02  0.22360700573E+03  0.64456875236E+03  0.79678041207E+03  0.40000000000E+03 0. -1.
<mgrwt>
<rscale>  2 0.46839102E+03</rscale>
<asrwt>0</asrwt>
<pdfrwt beam="1">  1       21 0.17728234E+00 0.46839102E+03</pdfrwt>
<pdfrwt beam="2">  1       21 0.31256545E-01 0.46839102E+03</pdfrwt>
<totfact> 0.15700360E+03</totfact>
</mgrwt>
</event>
<event>
 4    1  0.4732450E-002  0.7060014E+03  0.7818608E-02  0.9707024E-01
         21   -1    0    0  503  502  0.00000000000E+00  0.00000000000E+00  0.85938655648E+03  0.85938655648E+03  0.00000000000E+00 0. -1.
         21   -1    0    0  501  503 -0.00000000000E+00 -0.00000000000E+00 -0.76442824970E+03  0.76442824970E+03  0.00000000000E+00 0.  1.
    9000007    1    1    2  501    0 -0.25458169612E+03  0.52309285403E+03 -0.35132566173E+03  0.78858588278E+03  0.40000000000E+03 0.  1.
   -9000007    1    1    2    0  502  0.25458169612E+03 -0.52309285403E+03  0.44628396851E+03  0.83522892340E+03  0.40000000000E+03 0.  1.
<mgrwt>
<rscale>  2 0.70600140E+03</rscale>
<asrwt>0</asrwt>
<pdfrwt beam="1">  1       21 0.13221332E+00 0.70600140E+03</pdfrwt>
<pdfrwt beam="2">  1       21 0.11760435E+00 0.70600140E+03</pdfrwt>
<totfact> 0.16936631E+02</totfact>
</mgrwt>
</event>
<event>
 4    1  0.4732450E-002  0.4690319E+03  0.7818608E-02  0.1022194E+00
         21   -1    0    0  501  502  0.00000000000E+00  0.00000000000E+00  0.60132644950E+03  0.60132644950E+03  0.00000000000E+00 0.  1.
         21   -1    0    0  502  503 -0.00000000000E+00 -0.00000000000E+00 -0.77843494782E+03  0.77843494782E+03  0.00000000000E+00 0.  1.
    9000007    1    1    2  501    0  0.17918056446E+03 -0.16698877973E+03  0.41369966825E+03  0.62541053936E+03  0.40000000000E+03 0.  1.
   -9000007    1    1    2    0  503 -0.17918056446E+03  0.16698877973E+03 -0.59080816656E+03  0.75435085797E+03  0.40000000000E+03 0.  1.
<mgrwt>
<rscale>  2 0.46903190E+03</rscale>
<asrwt>0</asrwt>
<pdfrwt beam="1">  1       21 0.92511761E-01 0.46903190E+03</pdfrwt>
<pdfrwt beam="2">  1       21 0.11975922E+00 0.46903190E+03</pdfrwt>
<totfact> 0.43230953E+02</totfact>
</mgrwt>
</event>
<event>
 4    1  0.4732450E-002  0.4309608E+03  0.7818608E-02  0.1033557E+00
         21   -1    0    0  503  502  0.00000000000E+00  0.00000000000E+00  0.51050363807E+03  0.51050363807E+03  0.00000000000E+00 0.  1.
         21   -1    0    0  501  503 -0.00000000000E+00 -0.00000000000E+00 -0.48206803710E+03  0.48206803710E+03  0.00000000000E+00 0.  1.
    9000007    1    1    2  501    0 -0.15933491232E+03  0.18429278200E+02 -0.23158663928E+03  0.48924393105E+03  0.40000000000E+03 0. -1.
   -9000007    1    1    2    0  502  0.15933491232E+03 -0.18429278200E+02  0.26002224025E+03  0.50332774412E+03  0.40000000000E+03 0. -1.
<mgrwt>
<rscale>  2 0.43096085E+03</rscale>
<asrwt>0</asrwt>
<pdfrwt beam="1">  1       21 0.78539021E-01 0.43096085E+03</pdfrwt>
<pdfrwt beam="2">  1       21 0.74164314E-01 0.43096085E+03</pdfrwt>
<totfact> 0.20332671E+03</totfact>
</mgrwt>
</event>
<event>
 4    1  0.4732450E-002  0.4739050E+03  0.7818608E-02  0.1020824E+00
         21   -1    0    0  501  502  0.00000000000E+00  0.00000000000E+00  0.15019835196E+04  0.15019835196E+04  0.00000000000E+00 0.  1.
         21   -1    0    0  502  503 -0.00000000000E+00 -0.00000000000E+00 -0.20741433347E+03  0.20741433347E+03  0.00000000000E+00 0. -1.
    9000007    1    1    2  501    0 -0.25413117087E+03  0.18268025670E+01  0.10988163463E+04  0.11966550681E+04  0.40000000000E+03 0.  1.
   -9000007    1    1    2    0  503  0.25413117087E+03 -0.18268025670E+01  0.19575283988E+03  0.51274278497E+03  0.40000000000E+03 0. -1.
<mgrwt>
<rscale>  2 0.47390504E+03</rscale>
<asrwt>0</asrwt>
<pdfrwt beam="1">  1       21 0.23107438E+00 0.47390504E+03</pdfrwt>
<pdfrwt beam="2">  1       21 0.31909898E-01 0.47390504E+03</pdfrwt>
<totfact> 0.65965310E+02</totfact>
</mgrwt>
</event>
<event>
 4    1  0.4732450E-002  0.7272129E+03  0.7818608E-02  0.9671794E-01
         21   -1    0    0  501  502  0.00000000000E+00  0.00000000000E+00  0.51623709799E+03  0.51623709799E+03  0.00000000000E+00 0. -1.
         21   -1    0    0  502  503 -0.00000000000E+00 -0.00000000000E+00 -0.12124878973E+04  0.12124878973E+04  0.00000000000E+00 0.  1.
    9000007    1    1    2  501    0  0.57962383004E+03 -0.18131411104E+03 -0.76970148705E+01  0.72725362512E+03  0.40000000000E+03 0. -1.
   -9000007    1    1    2    0  503 -0.57962383004E+03  0.18131411104E+03 -0.68855378446E+03  0.10014713702E+04  0.40000000000E+03 0.  1.
<mgrwt>
<rscale>  2 0.72721289E+03</rscale>
<asrwt>0</asrwt>
<pdfrwt beam="1">  1       21 0.79421093E-01 0.72721289E+03</pdfrwt>
<pdfrwt beam="2">  1       21 0.18653660E+00 0.72721289E+03</pdfrwt>
<totfact> 0.16621049E+02</totfact>
</mgrwt>
</event>
<event>
 4    1  0.4732450E-002  0.4941227E+03  0.7818608E-02  0.1015324E+00
         21   -1    0    0  501  502  0.00000000000E+00  0.00000000000E+00  0.53679010820E+03  0.53679010820E+03  0.00000000000E+00 0. -1.
         21   -1    0    0  502  503 -0.00000000000E+00 -0.00000000000E+00 -0.45771435693E+03  0.45771435693E+03  0.00000000000E+00 0. -1.
    9000007    1    1    2  501    0 -0.98214909854E+01 -0.28993242314E+03  0.17976221690E+00  0.49412276206E+03  0.40000000000E+03 0. -1.
   -9000007    1    1    2    0  503  0.98214909854E+01  0.28993242314E+03  0.78895989057E+02  0.50038170307E+03  0.40000000000E+03 0. -1.
<mgrwt>
<rscale>  2 0.49412273E+03</rscale>
<asrwt>0</asrwt>
<pdfrwt beam="1">  1       21 0.82583094E-01 0.49412273E+03</pdfrwt>
<pdfrwt beam="2">  1       21 0.70417593E-01 0.49412273E+03</pdfrwt>
<totfact> 0.19893921E+03</totfact>
</mgrwt>
</event>
<event>
 4    1  0.4732450E-002  0.4125966E+03  0.7818608E-02  0.1039503E+00
         21   -1    0    0  503  502  0.00000000000E+00  0.00000000000E+00  0.23002487562E+03  0.23002487562E+03  0.00000000000E+00 0. -1.
         21   -1    0    0  501  503 -0.00000000000E+00 -0.00000000000E+00 -0.77206336708E+03  0.77206336708E+03  0.00000000000E+00 0. -1.
    9000007    1    1    2  501    0 -0.93747875381E+02  0.38043543270E+02 -0.37300422744E+03  0.55620870994E+03  0.40000000000E+03 0. -1.
   -9000007    1    1    2    0  502  0.93747875381E+02 -0.38043543270E+02 -0.16903426402E+03  0.44587953276E+03  0.40000000000E+03 0. -1.
<mgrwt>
<rscale>  2 0.41259663E+03</rscale>
<asrwt>0</asrwt>
<pdfrwt beam="1">  1       21 0.35388443E-01 0.41259663E+03</pdfrwt>
<pdfrwt beam="2">  1       21 0.11877898E+00 0.41259663E+03</pdfrwt>
<totfact> 0.36816116E+03</totfact>
</mgrwt>
</event>
<event>
 4    1  0.4732450E-002  0.4153487E+03  0.7818608E-02  0.1038591E+00
         21   -1    0    0  501  502  0.00000000000E+00  0.00000000000E+00  0.51117106856E+03  0.51117106856E+03  0.00000000000E+00 0.  1.
         21   -1    0    0  502  503 -0.00000000000E+00 -0.00000000000E+00 -0.37826962483E+03  0.37826962483E+03  0.00000000000E+00 0.  1.
    9000007    1    1    2  501    0 -0.93884827376E+02  0.60829450870E+02 -0.79569671499E+02  0.42290178000E+03  0.40000000000E+03 0.  1.
   -9000007    1    1    2    0  503  0.93884827376E+02 -0.60829450870E+02  0.21247111522E+03  0.46653891339E+03  0.40000000000E+03 0.  1.
<mgrwt>
<rscale>  2 0.41534875E+03</rscale>
<asrwt>0</asrwt>
<pdfrwt beam="1">  1       21 0.78641703E-01 0.41534875E+03</pdfrwt>
<pdfrwt beam="2">  1       21 0.58195327E-01 0.41534875E+03</pdfrwt>
<totfact> 0.34968474E+03</totfact>
</mgrwt>
</event>
<event>
 4    1  0.4732450E-002  0.4215811E+03  0.7818608E-02  0.1036553E+00
         21   -1    0    0  501  502  0.00000000000E+00  0.00000000000E+00  0.25982756543E+03  0.25982756543E+03  0.00000000000E+00 0. -1.
         21   -1    0    0  502  503 -0.00000000000E+00 -0.00000000000E+00 -0.68569351713E+03  0.68569351713E+03  0.00000000000E+00 0. -1.
    9000007    1    1    2  501    0 -0.93160175676E+02 -0.95140848176E+02 -0.23619850033E+03  0.48323941362E+03  0.40000000000E+03 0. -1.
   -9000007    1    1    2    0  503  0.93160175676E+02  0.95140848176E+02 -0.18966745137E+03  0.46228166893E+03  0.40000000000E+03 0. -1.
<mgrwt>
<rscale>  2 0.42158107E+03</rscale>
<asrwt>0</asrwt>
<pdfrwt beam="1">  1       21 0.39973473E-01 0.42158107E+03</pdfrwt>
<pdfrwt beam="2">  1       21 0.10549131E+00 0.42158107E+03</pdfrwt>
<totfact> 0.38432164E+03</totfact>
</mgrwt>
</event>
<event>
 4    1  0.4732450E-002  0.4807852E+03  0.7818608E-02  0.1018920E+00
         21   -1    0    0  501  502  0.00000000000E+00  0.00000000000E+00  0.23987549274E+03  0.23987549274E+03  0.00000000000E+00 0.  1.
         21   -1    0    0  502  503 -0.00000000000E+00 -0.00000000000E+00 -0.98129306053E+03  0.98129306053E+03  0.00000000000E+00 0.  1.
    9000007    1    1    2  501    0 -0.26444962540E+03 -0.34939523560E+02 -0.28882129654E+03  0.56086728913E+03  0.40000000000E+03 0.  1.
   -9000007    1    1    2    0  503  0.26444962540E+03  0.34939523560E+02 -0.45259627125E+03  0.66030126414E+03  0.40000000000E+03 0.  1.
<mgrwt>
<rscale>  2 0.48078516E+03</rscale>
<asrwt>0</asrwt>
<pdfrwt beam="1">  1       21 0.36903922E-01 0.48078516E+03</pdfrwt>
<pdfrwt beam="2">  1       21 0.15096816E+00 0.48078516E+03</pdfrwt>
<totfact> 0.17561007E+03</totfact>
</mgrwt>
</event>
<event>
 4    1  0.4732450E-002  0.4128047E+03  0.7818608E-02  0.1039434E+00
         21   -1    0    0  501  502  0.00000000000E+00  0.00000000000E+00  0.22522196662E+03  0.22522196662E+03  0.00000000000E+00 0. -1.
         21   -1    0    0  502  503 -0.00000000000E+00 -0.00000000000E+00 -0.14446312265E+04  0.14446312265E+04  0.00000000000E+00 0.  1.
    9000007    1    1    2  501    0 -0.63739480336E+02  0.79655266563E+02 -0.33512628945E+02  0.41416274476E+03  0.40000000000E+03 0. -1.
   -9000007    1    1    2    0  503  0.63739480336E+02 -0.79655266563E+02 -0.11858966309E+04  0.12556904483E+04  0.40000000000E+03 0.  1.
<mgrwt>
<rscale>  2 0.41280465E+03</rscale>
<asrwt>0</asrwt>
<pdfrwt beam="1">  1       21 0.34649532E-01 0.41280465E+03</pdfrwt>
<pdfrwt beam="2">  1       21 0.22225096E+00 0.41280465E+03</pdfrwt>
<totfact> 0.65551240E+02</totfact>
</mgrwt>
</event>
<event>
 4    1  0.4732450E-002  0.6278321E+03  0.7818608E-02  0.9849288E-01
         21   -1    0    0  501  502  0.00000000000E+00  0.00000000000E+00  0.66420926937E+03  0.66420926937E+03  0.00000000000E+00 0. -1.
         21   -1    0    0  502  503 -0.00000000000E+00 -0.00000000000E+00 -0.71516749886E+03  0.71516749886E+03  0.00000000000E+00 0.  1.
    9000007    1    1    2  501    0 -0.39501817135E+03 -0.27952419673E+03  0.25905250017E+03  0.67917695050E+03  0.40000000000E+03 0. -1.
   -9000007    1    1    2    0  503  0.39501817135E+03  0.27952419673E+03 -0.31001072965E+03  0.70019981773E+03  0.40000000000E+03 0.  1.
<mgrwt>
<rscale>  2 0.62783209E+03</rscale>
<asrwt>0</asrwt>
<pdfrwt beam="1">  1       21 0.10218604E+00 0.62783209E+03</pdfrwt>
<pdfrwt beam="2">  1       21 0.11002577E+00 0.62783209E+03</pdfrwt>
<totfact> 0.39607684E+02</totfact>
</mgrwt>
</event>
<event>
 4    1  0.4732450E-002  0.4547533E+03  0.7818608E-02  0.1026314E+00
         21   -1    0    0  501  502  0.00000000000E+00  0.00000000000E+00  0.14326776786E+04  0.14326776786E+04  0.00000000000E+00 0. -1.
         21   -1    0    0  502  503 -0.00000000000E+00 -0.00000000000E+00 -0.14484542282E+03  0.14484542282E+03  0.00000000000E+00 0. -1.
    9000007    1    1    2  501    0  0.18664906116E+03 -0.10937406691E+03  0.69025549248E+03  0.82659131585E+03  0.40000000000E+03 0. -1.
   -9000007    1    1    2    0  503 -0.18664906116E+03  0.10937406691E+03  0.59757676328E+03  0.75093178556E+03  0.40000000000E+03 0. -1.
<mgrwt>
<rscale>  2 0.45475329E+03</rscale>
<asrwt>0</asrwt>
<pdfrwt beam="1">  1       21 0.22041194E+00 0.45475329E+03</pdfrwt>
<pdfrwt beam="2">  1       21 0.22283912E-01 0.45475329E+03</pdfrwt>
<totfact> 0.15730649E+03</totfact>
</mgrwt>
</event>
<event>
 4    1  0.4732450E-002  0.5613480E+03  0.7818608E-02  0.9989009E-01
         21   -1    0    0  503  502  0.00000000000E+00  0.00000000000E+00  0.72567651206E+03  0.72567651206E+03  0.00000000000E+00 0. -1.
         21   -1    0    0  501  503 -0.00000000000E+00 -0.00000000000E+00 -0.47766341877E+03  0.47766341877E+03  0.00000000000E+00 0.  1.
    9000007    1    1    2  501    0  0.21041875941E+03 -0.33291964385E+03 -0.57420587580E+02  0.56427711938E+03  0.40000000000E+03 0.  1.
   -9000007    1    1    2    0  502 -0.21041875941E+03  0.33291964385E+03  0.30543368086E+03  0.63906281145E+03  0.40000000000E+03 0. -1.
<mgrwt>
<rscale>  2 0.56134797E+03</rscale>
<asrwt>0</asrwt>
<pdfrwt beam="1">  1       21 0.11164254E+00 0.56134797E+03</pdfrwt>
<pdfrwt beam="2">  1       21 0.73486680E-01 0.56134797E+03</pdfrwt>
<totfact> 0.85198954E+02</totfact>
</mgrwt>
</event>
<event>
 4    1  0.4732450E-002  0.5172243E+03  0.7818608E-02  0.1009378E+00
         21   -1    0    0  503  502  0.00000000000E+00  0.00000000000E+00  0.19854016360E+04  0.19854016360E+04  0.00000000000E+00 0.  1.
         21   -1    0    0  501  503 -0.00000000000E+00 -0.00000000000E+00 -0.18975299011E+03  0.18975299011E+03  0.00000000000E+00 0. -1.
    9000007    1    1    2  501    0 -0.31090149111E+03  0.10421738036E+03  0.31224925300E+03  0.60416934343E+03  0.40000000000E+03 0. -1.
   -9000007    1    1    2    0  502  0.31090149111E+03 -0.10421738036E+03  0.14833993929E+04  0.15709852827E+04  0.40000000000E+03 0.  1.
<mgrwt>
<rscale>  2 0.51722432E+03</rscale>
<asrwt>0</asrwt>
<pdfrwt beam="1">  1       21 0.30544639E+00 0.51722432E+03</pdfrwt>
<pdfrwt beam="2">  1       21 0.29192769E-01 0.51722432E+03</pdfrwt>
<totfact> 0.27056275E+02</totfact>
</mgrwt>
</event>
<event>
 4    1  0.4732450E-002  0.4479116E+03  0.7818608E-02  0.1028347E+00
         21   -1    0    0  503  502  0.00000000000E+00  0.00000000000E+00  0.30399049751E+03  0.30399049751E+03  0.00000000000E+00 0.  1.
         21   -1    0    0  501  503 -0.00000000000E+00 -0.00000000000E+00 -0.87215928762E+03  0.87215928762E+03  0.00000000000E+00 0. -1.
    9000007    1    1    2  501    0 -0.13667443919E+02 -0.20109212694E+03 -0.57414962484E+03  0.72819821082E+03  0.40000000000E+03 0. -1.
   -9000007    1    1    2    0  502  0.13667443919E+02  0.20109212694E+03  0.59808347314E+01  0.44795157431E+03  0.40000000000E+03 0.  1.
<mgrwt>
<rscale>  2 0.44791165E+03</rscale>
<asrwt>0</asrwt>
<pdfrwt beam="1">  1       21 0.46767769E-01 0.44791165E+03</pdfrwt>
<pdfrwt beam="2">  1       21 0.13417835E+00 0.44791165E+03</pdfrwt>
<totfact> 0.14923335E+03</totfact>
</mgrwt>
</event>
<event>
 4    1  0.4732450E-002  0.4782764E+03  0.7818608E-02  0.1019610E+00
         21   -1    0    0  503  502  0.00000000000E+00  0.00000000000E+00  0.15109825597E+03  0.15109825597E+03  0.00000000000E+00 0. -1.
         21   -1    0    0  501  503 -0.00000000000E+00 -0.00000000000E+00 -0.15389354863E+04  0.15389354863E+04  0.00000000000E+00 0. -1.
    9000007    1    1    2  501    0  0.12647689035E+03 -0.22967786903E+03 -0.80168772317E+03  0.93351568428E+03  0.40000000000E+03 0. -1.
   -9000007    1    1    2    0  502 -0.12647689035E+03  0.22967786903E+03 -0.58614950716E+03  0.75651805799E+03  0.40000000000E+03 0. -1.
<mgrwt>
<rscale>  2 0.47827641E+03</rscale>
<asrwt>0</asrwt>
<pdfrwt beam="1">  1       21 0.23245887E-01 0.47827641E+03</pdfrwt>
<pdfrwt beam="2">  1       21 0.23675929E+00 0.47827641E+03</pdfrwt>
<totfact> 0.11309197E+03</totfact>
</mgrwt>
</event>
<event>
 4    1  0.4732450E-002  0.5140813E+03  0.7818608E-02  0.1010167E+00
         21   -1    0    0  501  502  0.00000000000E+00  0.00000000000E+00  0.26559477063E+03  0.26559477063E+03  0.00000000000E+00 0.  1.
         21   -1    0    0  502  503 -0.00000000000E+00 -0.00000000000E+00 -0.10136800509E+04  0.10136800509E+04  0.00000000000E+00 0.  1.
    9000007    1    1    2  501    0  0.25757376307E+03 -0.19477003234E+03 -0.28732430176E+03  0.58892687432E+03  0.40000000000E+03 0.  1.
   -9000007    1    1    2    0  503 -0.25757376307E+03  0.19477003234E+03 -0.46076097855E+03  0.69034794725E+03  0.40000000000E+03 0.  1.
<mgrwt>
<rscale>  2 0.51408133E+03</rscale>
<asrwt>0</asrwt>
<pdfrwt beam="1">  1       21 0.40860734E-01 0.51408133E+03</pdfrwt>
<pdfrwt beam="2">  1       21 0.15595078E+00 0.51408133E+03</pdfrwt>
<totfact> 0.12869478E+03</totfact>
</mgrwt>
</event>
<event>
 4    1  0.4732450E-002  0.4276745E+03  0.7818608E-02  0.1034597E+00
         21   -1    0    0  501  502  0.00000000000E+00  0.00000000000E+00  0.26763944800E+04  0.26763944800E+04  0.00000000000E+00 0. -1.
         21   -1    0    0  502  503 -0.00000000000E+00 -0.00000000000E+00 -0.96018435180E+02  0.96018435180E+02  0.00000000000E+00 0. -1.
    9000007    1    1    2  501    0 -0.13465106280E+02 -0.15074543028E+03  0.20344388648E+04  0.20789052379E+04  0.40000000000E+03 0. -1.
   -9000007    1    1    2    0  503  0.13465106280E+02  0.15074543028E+03  0.54593718006E+03  0.69350767726E+03  0.40000000000E+03 0. -1.
<mgrwt>
<rscale>  2 0.42767452E+03</rscale>
<asrwt>0</asrwt>
<pdfrwt beam="1">  1       21 0.41175294E+00 0.42767452E+03</pdfrwt>
<pdfrwt beam="2">  1       21 0.14772069E-01 0.42767452E+03</pdfrwt>
<totfact> 0.22989244E+02</totfact>
</mgrwt>
</event>
<event>
 4    1  0.4732450E-002  0.4947075E+03  0.7818608E-02  0.1015170E+00
         21   -1    0    0  503  502  0.00000000000E+00  0.00000000000E+00  0.56264185127E+03  0.56264185127E+03  0.00000000000E+00 0. -1.
         21   -1    0    0  501  503 -0.00000000000E+00 -0.00000000000E+00 -0.75618695668E+03  0.75618695668E+03  0.00000000000E+00 0. -1.
    9000007    1    1    2  501    0 -0.26393220703E+03 -0.12278133050E+03 -0.52654572146E+03  0.72248589039E+03  0.40000000000E+03 0. -1.
   -9000007    1    1    2    0  502  0.26393220703E+03  0.12278133050E+03  0.33300061605E+03  0.59634291755E+03  0.40000000000E+03 0. -1.
<mgrwt>
<rscale>  2 0.49470745E+03</rscale>
<asrwt>0</asrwt>
<pdfrwt beam="1">  1       21 0.86560285E-01 0.49470745E+03</pdfrwt>
<pdfrwt beam="2">  1       21 0.11633645E+00 0.49470745E+03</pdfrwt>
<totfact> 0.53864140E+02</totfact>
</mgrwt>
</event>
<event>
 4    1  0.4732450E-002  0.6487179E+03  0.7818608E-02  0.9809188E-01
         21   -1    0    0  503  502  0.00000000000E+00  0.00000000000E+00  0.17783728516E+03  0.17783728516E+03  0.00000000000E+00 0. -1.
         21   -1    0    0  501  503 -0.00000000000E+00 -0.00000000000E+00 -0.24481835497E+04  0.24481835497E+04  0.00000000000E+00 0.  1.
    9000007    1    1    2  501    0 -0.49813761739E+03  0.11266663788E+03 -0.13751495843E+04  0.15204838823E+04  0.40000000000E+03 0.  1.
   -9000007    1    1    2    0  502  0.49813761739E+03 -0.11266663788E+03 -0.89519668028E+03  0.11055369526E+04  0.40000000000E+03 0. -1.
<mgrwt>
<rscale>  2 0.64871786E+03</rscale>
<asrwt>0</asrwt>
<pdfrwt beam="1">  1       21 0.27359582E-01 0.64871786E+03</pdfrwt>
<pdfrwt beam="2">  1       21 0.37664362E+00 0.64871786E+03</pdfrwt>
<totfact> 0.10488970E+02</totfact>
</mgrwt>
</event>
<event>
 4    1  0.4732450E-002  0.4201341E+03  0.7818608E-02  0.1037023E+00
         21   -1    0    0  503  502  0.00000000000E+00  0.00000000000E+00  0.54312081888E+03  0.54312081888E+03  0.00000000000E+00 0.  1.
         21   -1    0    0  501  503 -0.00000000000E+00 -0.00000000000E+00 -0.34670152839E+03  0.34670152839E+03  0.00000000000E+00 0.  1.
    9000007    1    1    2  501    0  0.12675649356E+03 -0.21106212258E+02  0.20952877425E+03  0.46948374636E+03  0.40000000000E+03 0.  1.
   -9000007    1    1    2    0  502 -0.12675649356E+03  0.21106212258E+02 -0.13109483753E+02  0.42033860092E+03  0.40000000000E+03 0.  1.
<mgrwt>
<rscale>  2 0.42013412E+03</rscale>
<asrwt>0</asrwt>
<pdfrwt beam="1">  1       21 0.83557050E-01 0.42013412E+03</pdfrwt>
<pdfrwt beam="2">  1       21 0.53338696E-01 0.42013412E+03</pdfrwt>
<totfact> 0.36624531E+03</totfact>
</mgrwt>
</event>
<event>
 4    1  0.4732450E-002  0.5484252E+03  0.7818608E-02  0.1001859E+00
         21   -1    0    0  503  502  0.00000000000E+00  0.00000000000E+00  0.12463471246E+04  0.12463471246E+04  0.00000000000E+00 0.  1.
         21   -1    0    0  501  503 -0.00000000000E+00 -0.00000000000E+00 -0.35322830542E+03  0.35322830542E+03  0.00000000000E+00 0.  1.
    9000007    1    1    2  501    0 -0.31486143045E+03  0.20404041085E+03 -0.36094604809E+01  0.54843708651E+03  0.40000000000E+03 0.  1.
   -9000007    1    1    2    0  502  0.31486143045E+03 -0.20404041085E+03  0.89672827966E+03  0.10511383435E+04  0.40000000000E+03 0.  1.
<mgrwt>
<rscale>  2 0.54842521E+03</rscale>
<asrwt>0</asrwt>
<pdfrwt beam="1">  1       21 0.19174571E+00 0.54842521E+03</pdfrwt>
<pdfrwt beam="2">  1       21 0.54342817E-01 0.54842521E+03</pdfrwt>
<totfact> 0.38208225E+02</totfact>
</mgrwt>
</event>
<event>
 4    1  0.4732450E-002  0.4414853E+03  0.7818608E-02  0.1030292E+00
         21   -1    0    0  501  502  0.00000000000E+00  0.00000000000E+00  0.24846845288E+03  0.24846845288E+03  0.00000000000E+00 0.  1.
         21   -1    0    0  502  503 -0.00000000000E+00 -0.00000000000E+00 -0.84420163482E+03  0.84420163482E+03  0.00000000000E+00 0.  1.
    9000007    1    1    2  501    0  0.18586770711E+03 -0.19038266394E+02 -0.15250909090E+03  0.46708487766E+03  0.40000000000E+03 0.  1.
   -9000007    1    1    2    0  503 -0.18586770711E+03  0.19038266394E+02 -0.44322409104E+03  0.62558521004E+03  0.40000000000E+03 0.  1.
<mgrwt>
<rscale>  2 0.44148529E+03</rscale>
<asrwt>0</asrwt>
<pdfrwt beam="1">  1       21 0.38225915E-01 0.44148529E+03</pdfrwt>
<pdfrwt beam="2">  1       21 0.12987718E+00 0.44148529E+03</pdfrwt>
<totfact> 0.24752937E+03</totfact>
</mgrwt>
</event>
<event>
 4    1  0.4732450E-002  0.5451299E+03  0.7818608E-02  0.1002627E+00
         21   -1    0    0  501  502  0.00000000000E+00  0.00000000000E+00  0.96242707824E+03  0.96242707824E+03  0.00000000000E+00 0.  1.
         21   -1    0    0  502  503 -0.00000000000E+00 -0.00000000000E+00 -0.40330433398E+03  0.40330433398E+03  0.00000000000E+00 0. -1.
    9000007    1    1    2  501    0  0.33809510853E+03  0.15118948777E+03  0.61017330464E+03  0.81821636828E+03  0.40000000000E+03 0. -1.
   -9000007    1    1    2    0  503 -0.33809510853E+03 -0.15118948777E+03 -0.51050560378E+02  0.54751504394E+03  0.40000000000E+03 0.  1.
<mgrwt>
<rscale>  2 0.54512986E+03</rscale>
<asrwt>0</asrwt>
<pdfrwt beam="1">  1       21 0.14806570E+00 0.54512986E+03</pdfrwt>
<pdfrwt beam="2">  1       21 0.62046821E-01 0.54512986E+03</pdfrwt>
<totfact> 0.60031786E+02</totfact>
</mgrwt>
</event>
<event>
 4    1  0.4732450E-002  0.4052131E+03  0.7818608E-02  0.1041989E+00
         21   -1    0    0  503  502  0.00000000000E+00  0.00000000000E+00  0.40109002314E+03  0.40109002314E+03  0.00000000000E+00 0.  1.
         21   -1    0    0  501  503 -0.00000000000E+00 -0.00000000000E+00 -0.42223127257E+03  0.42223127257E+03  0.00000000000E+00 0.  1.
    9000007    1    1    2  501    0  0.58565056040E+02  0.27709465218E+02  0.61251878173E+02  0.40981638917E+03  0.40000000000E+03 0.  1.
   -9000007    1    1    2    0  502 -0.58565056040E+02 -0.27709465218E+02 -0.82393127604E+02  0.41350490653E+03  0.40000000000E+03 0.  1.
<mgrwt>
<rscale>  2 0.40521313E+03</rscale>
<asrwt>0</asrwt>
<pdfrwt beam="1">  1       21 0.61706157E-01 0.40521313E+03</pdfrwt>
<pdfrwt beam="2">  1       21 0.64958658E-01 0.40521313E+03</pdfrwt>
<totfact> 0.47532245E+03</totfact>
</mgrwt>
</event>
<event>
 4    1  0.4732450E-002  0.4627851E+03  0.7818608E-02  0.1023977E+00
         21   -1    0    0  501  502  0.00000000000E+00  0.00000000000E+00  0.33105626087E+03  0.33105626087E+03  0.00000000000E+00 0.  1.
         21   -1    0    0  502  503 -0.00000000000E+00 -0.00000000000E+00 -0.88770383855E+03  0.88770383855E+03  0.00000000000E+00 0.  1.
    9000007    1    1    2  501    0  0.92607041334E+02 -0.21352753865E+03  0.39041370684E+02  0.46442900694E+03  0.40000000000E+03 0.  1.
   -9000007    1    1    2    0  503 -0.92607041334E+02  0.21352753865E+03 -0.59568894837E+03  0.75433109248E+03  0.40000000000E+03 0.  1.
<mgrwt>
<rscale>  2 0.46278513E+03</rscale>
<asrwt>0</asrwt>
<pdfrwt beam="1">  1       21 0.50931733E-01 0.46278513E+03</pdfrwt>
<pdfrwt beam="2">  1       21 0.13656982E+00 0.46278513E+03</pdfrwt>
<totfact> 0.11819784E+03</totfact>
</mgrwt>
</event>
<event>
 4    1  0.4732450E-002  0.4283434E+03  0.7818608E-02  0.1034385E+00
         21   -1    0    0  501  502  0.00000000000E+00  0.00000000000E+00  0.69191238489E+03  0.69191238489E+03  0.00000000000E+00 0.  1.
         21   -1    0    0  502  503 -0.00000000000E+00 -0.00000000000E+00 -0.38686045238E+03  0.38686045238E+03  0.00000000000E+00 0.  1.
    9000007    1    1    2  501    0  0.14192727304E+03  0.57747214367E+02  0.45503725776E+03  0.62492959407E+03  0.40000000000E+03 0.  1.
   -9000007    1    1    2    0  503 -0.14192727304E+03 -0.57747214367E+02 -0.14998532525E+03  0.45384324319E+03  0.40000000000E+03 0.  1.
<mgrwt>
<rscale>  2 0.42834343E+03</rscale>
<asrwt>0</asrwt>
<pdfrwt beam="1">  1       21 0.10644806E+00 0.42834343E+03</pdfrwt>
<pdfrwt beam="2">  1       21 0.59516993E-01 0.42834343E+03</pdfrwt>
<totfact> 0.16132453E+03</totfact>
</mgrwt>
</event>
<event>
 4    1  0.4732450E-002  0.4133702E+03  0.7818608E-02  0.1039246E+00
         21   -1    0    0  501  502  0.00000000000E+00  0.00000000000E+00  0.22601046523E+03  0.22601046523E+03  0.00000000000E+00 0.  1.
         21   -1    0    0  502  503 -0.00000000000E+00 -0.00000000000E+00 -0.11230310789E+04  0.11230310789E+04  0.00000000000E+00 0.  1.
    9000007    1    1    2  501    0 -0.10436565950E+02 -0.10375944058E+03 -0.62923663837E+02  0.41813195392E+03  0.40000000000E+03 0.  1.
   -9000007    1    1    2    0  503  0.10436565950E+02  0.10375944058E+03 -0.83409694982E+03  0.93090959019E+03  0.40000000000E+03 0.  1.
<mgrwt>
<rscale>  2 0.41337023E+03</rscale>
<asrwt>0</asrwt>
<pdfrwt beam="1">  1       21 0.34770840E-01 0.41337023E+03</pdfrwt>
<pdfrwt beam="2">  1       21 0.17277401E+00 0.41337023E+03</pdfrwt>
<totfact> 0.13983452E+03</totfact>
</mgrwt>
</event>
<event>
 4    1  0.4732450E-002  0.4871901E+03  0.7818608E-02  0.1017178E+00
         21   -1    0    0  503  502  0.00000000000E+00  0.00000000000E+00  0.12263366163E+04  0.12263366163E+04  0.00000000000E+00 0.  1.
         21   -1    0    0  501  503 -0.00000000000E+00 -0.00000000000E+00 -0.46533438857E+03  0.46533438857E+03  0.00000000000E+00 0.  1.
    9000007    1    1    2  501    0  0.27795903332E+03  0.96416365971E+01 -0.26592325118E+03  0.55503996332E+03  0.40000000000E+03 0.  1.
   -9000007    1    1    2    0  502 -0.27795903332E+03 -0.96416365971E+01  0.10269254789E+04  0.11366310415E+04  0.40000000000E+03 0.  1.
<mgrwt>
<rscale>  2 0.48719009E+03</rscale>
<asrwt>0</asrwt>
<pdfrwt beam="1">  1       21 0.18866717E+00 0.48719009E+03</pdfrwt>
<pdfrwt beam="2">  1       21 0.71589907E-01 0.48719009E+03</pdfrwt>
<totfact> 0.22383813E+02</totfact>
</mgrwt>
</event>
<event>
 4    1  0.4732450E-002  0.4643534E+03  0.7818608E-02  0.1023526E+00
         21   -1    0    0  503  502  0.00000000000E+00  0.00000000000E+00  0.44045124423E+03  0.44045124423E+03  0.00000000000E+00 0. -1.
         21   -1    0    0  501  503 -0.00000000000E+00 -0.00000000000E+00 -0.48974251504E+03  0.48974251504E+03  0.00000000000E+00 0. -1.
    9000007    1    1    2  501    0 -0.15308888100E+03 -0.17940988929E+03 -0.33801049522E+02  0.46558202801E+03  0.40000000000E+03 0. -1.
   -9000007    1    1    2    0  502  0.15308888100E+03  0.17940988929E+03 -0.15490221287E+02  0.46461173125E+03  0.40000000000E+03 0. -1.
<mgrwt>
<rscale>  2 0.46435344E+03</rscale>
<asrwt>0</asrwt>
<pdfrwt beam="1">  1       21 0.67761730E-01 0.46435344E+03</pdfrwt>
<pdfrwt beam="2">  1       21 0.75345002E-01 0.46435344E+03</pdfrwt>
<totfact> 0.27081677E+03</totfact>
</mgrwt>
</event>
<event>
 4    1  0.4732450E-002  0.5766730E+03  0.7818608E-02  0.9955020E-01
         21   -1    0    0  503  502  0.00000000000E+00  0.00000000000E+00  0.17685466221E+03  0.17685466221E+03  0.00000000000E+00 0.  1.
         21   -1    0    0  501  503 -0.00000000000E+00 -0.00000000000E+00 -0.25439357030E+04  0.25439357030E+04  0.00000000000E+00 0. -1.
    9000007    1    1    2  501    0 -0.21381035187E+03  0.35614163752E+03 -0.48874845075E+03  0.75592776153E+03  0.40000000000E+03 0.  1.
   -9000007    1    1    2    0  502  0.21381035187E+03 -0.35614163752E+03 -0.18783325900E+04  0.19648626037E+04  0.40000000000E+03 0. -1.
<mgrwt>
<rscale>  2 0.57667299E+03</rscale>
<asrwt>0</asrwt>
<pdfrwt beam="1">  1       21 0.27208410E-01 0.57667299E+03</pdfrwt>
<pdfrwt beam="2">  1       21 0.39137471E+00 0.57667299E+03</pdfrwt>
<totfact> 0.88480432E+01</totfact>
</mgrwt>
</event>
<event>
 4    1  0.4732450E-002  0.4342604E+03  0.7818608E-02  0.1032523E+00
         21   -1    0    0  503  502  0.00000000000E+00  0.00000000000E+00  0.17939620061E+03  0.17939620061E+03  0.00000000000E+00 0. -1.
         21   -1    0    0  501  503 -0.00000000000E+00 -0.00000000000E+00 -0.10545091027E+04  0.10545091027E+04  0.00000000000E+00 0. -1.
    9000007    1    1    2  501    0  0.12639418863E+03 -0.11227903748E+03 -0.47209417280E+03  0.64144756697E+03  0.40000000000E+03 0. -1.
   -9000007    1    1    2    0  502 -0.12639418863E+03  0.11227903748E+03 -0.40301872927E+03  0.59245773632E+03  0.40000000000E+03 0. -1.
<mgrwt>
<rscale>  2 0.43426037E+03</rscale>
<asrwt>0</asrwt>
<pdfrwt beam="1">  1       21 0.27599416E-01 0.43426037E+03</pdfrwt>
<pdfrwt beam="2">  1       21 0.16223217E+00 0.43426037E+03</pdfrwt>
<totfact> 0.26229067E+03</totfact>
</mgrwt>
</event>
<event>
 4    1  0.4732450E-002  0.5221626E+03  0.7818608E-02  0.1008151E+00
         21   -1    0    0  503  502  0.00000000000E+00  0.00000000000E+00  0.47267447032E+03  0.47267447032E+03  0.00000000000E+00 0.  1.
         21   -1    0    0  501  503 -0.00000000000E+00 -0.00000000000E+00 -0.61029921091E+03  0.61029921091E+03  0.00000000000E+00 0. -1.
    9000007    1    1    2  501    0 -0.77851550965E+01  0.33554902857E+03  0.57989679602E+02  0.52537278399E+03  0.40000000000E+03 0.  1.
   -9000007    1    1    2    0  502  0.77851550965E+01 -0.33554902857E+03 -0.19561442019E+03  0.55760089724E+03  0.40000000000E+03 0.  1.
<mgrwt>
<rscale>  2 0.52216258E+03</rscale>
<asrwt>0</asrwt>
<pdfrwt beam="1">  1       21 0.72719150E-01 0.52216258E+03</pdfrwt>
<pdfrwt beam="2">  1       21 0.93892186E-01 0.52216258E+03</pdfrwt>
<totfact> 0.13525616E+03</totfact>
</mgrwt>
</event>
<event>
 4    1  0.4732450E-002  0.4045590E+03  0.7818608E-02  0.1042212E+00
         21   -1    0    0  503  502  0.00000000000E+00  0.00000000000E+00  0.83322742303E+03  0.83322742303E+03  0.00000000000E+00 0.  1.
         21   -1    0    0  501  503 -0.00000000000E+00 -0.00000000000E+00 -0.38868200282E+03  0.38868200282E+03  0.00000000000E+00 0.  1.
    9000007    1    1    2  501    0  0.28684833382E+01 -0.60495720978E+02 -0.20741326038E+03  0.45462976259E+03  0.40000000000E+03 0.  1.
   -9000007    1    1    2    0  502 -0.28684833382E+01  0.60495720978E+02  0.65195868059E+03  0.76727966326E+03  0.40000000000E+03 0.  1.
<mgrwt>
<rscale>  2 0.40455897E+03</rscale>
<asrwt>0</asrwt>
<pdfrwt beam="1">  1       21 0.12818883E+00 0.40455897E+03</pdfrwt>
<pdfrwt beam="2">  1       21 0.59797231E-01 0.40455897E+03</pdfrwt>
<totfact> 0.10108724E+03</totfact>
</mgrwt>
</event>
<event>
 4    1  0.4732450E-002  0.5683765E+03  0.7818608E-02  0.9973278E-01
         21   -1    0    0  501  502  0.00000000000E+00  0.00000000000E+00  0.10158734828E+04  0.10158734828E+04  0.00000000000E+00 0. -1.
         21   -1    0    0  502  503 -0.00000000000E+00 -0.00000000000E+00 -0.37645026414E+03  0.37645026414E+03  0.00000000000E+00 0. -1.
    9000007    1    1    2  501    0 -0.34724475052E+03 -0.20608961984E+03  0.59401725563E+03  0.82213645349E+03  0.40000000000E+03 0. -1.
   -9000007    1    1    2    0  503  0.34724475052E+03  0.20608961984E+03  0.45405963052E+02  0.57018729348E+03  0.40000000000E+03 0. -1.
<mgrwt>
<rscale>  2 0.56837650E+03</rscale>
<asrwt>0</asrwt>
<pdfrwt beam="1">  1       21 0.15628823E+00 0.56837650E+03</pdfrwt>
<pdfrwt beam="2">  1       21 0.57915426E-01 0.56837650E+03</pdfrwt>
<totfact> 0.59717891E+02</totfact>
</mgrwt>
</event>
<event>
 4    1  0.4732450E-002  0.4271098E+03  0.7818608E-02  0.1034777E+00
         21   -1    0    0  503  502  0.00000000000E+00  0.00000000000E+00  0.60254203394E+03  0.60254203394E+03  0.00000000000E+00 0.  1.
         21   -1    0    0  501  503 -0.00000000000E+00 -0.00000000000E+00 -0.30779123647E+03  0.30779123647E+03  0.00000000000E+00 0.  1.
    9000007    1    1    2  501    0  0.58258675812E+02  0.13794443009E+03  0.89153500260E+02  0.43631535122E+03  0.40000000000E+03 0.  1.
   -9000007    1    1    2    0  502 -0.58258675812E+02 -0.13794443009E+03  0.20559729721E+03  0.47401791920E+03  0.40000000000E+03 0.  1.
<mgrwt>
<rscale>  2 0.42710975E+03</rscale>
<asrwt>0</asrwt>
<pdfrwt beam="1">  1       21 0.92698774E-01 0.42710975E+03</pdfrwt>
<pdfrwt beam="2">  1       21 0.47352498E-01 0.42710975E+03</pdfrwt>
<totfact> 0.36851293E+03</totfact>
</mgrwt>
</event>
<event>
 4    1  0.4732450E-002  0.4405646E+03  0.7818608E-02  0.1030574E+00
         21   -1    0    0  503  502  0.00000000000E+00  0.00000000000E+00  0.36260581541E+03  0.36260581541E+03  0.00000000000E+00 0. -1.
         21   -1    0    0  501  503 -0.00000000000E+00 -0.00000000000E+00 -0.53720209336E+03  0.53720209336E+03  0.00000000000E+00 0. -1.
    9000007    1    1    2  501    0 -0.15052220370E+03 -0.10695921394E+03 -0.60416878698E+02  0.44468798779E+03  0.40000000000E+03 0.  1.
   -9000007    1    1    2    0  502  0.15052220370E+03  0.10695921394E+03 -0.11417939926E+03  0.45511992097E+03  0.40000000000E+03 0.  1.
<mgrwt>
<rscale>  2 0.44056465E+03</rscale>
<asrwt>0</asrwt>
<pdfrwt beam="1">  1       21 0.55785510E-01 0.44056465E+03</pdfrwt>
<pdfrwt beam="2">  1       21 0.82646476E-01 0.44056465E+03</pdfrwt>
<totfact> 0.33859447E+03</totfact>
</mgrwt>
</event>
<event>
 4    1  0.4732450E-002  0.4397525E+03  0.7818608E-02  0.1030823E+00
         21   -1    0    0  503  502  0.00000000000E+00  0.00000000000E+00  0.18479621866E+03  0.18479621866E+03  0.00000000000E+00 0. -1.
         21   -1    0    0  501  503 -0.00000000000E+00 -0.00000000000E+00 -0.14887988820E+04  0.14887988820E+04  0.00000000000E+00 0.  1.
    9000007    1    1    2  501    0 -0.11030410171E+01 -0.18270489954E+03 -0.11081209542E+04  0.11921888887E+04  0.40000000000E+03 0.  1.
   -9000007    1    1    2    0  502  0.11030410171E+01  0.18270489954E+03 -0.19588170914E+03  0.48140621204E+03  0.40000000000E+03 0. -1.
<mgrwt>
<rscale>  2 0.43975254E+03</rscale>
<asrwt>0</asrwt>
<pdfrwt beam="1">  1       21 0.28430188E-01 0.43975254E+03</pdfrwt>
<pdfrwt beam="2">  1       21 0.22904598E+00 0.43975254E+03</pdfrwt>
<totfact> 0.86909006E+02</totfact>
</mgrwt>
</event>
<event>
 4    1  0.4732450E-002  0.4374485E+03  0.7818608E-02  0.1031533E+00
         21   -1    0    0  501  502  0.00000000000E+00  0.00000000000E+00  0.11675941759E+03  0.11675941759E+03  0.00000000000E+00 0.  1.
         21   -1    0    0  502  503 -0.00000000000E+00 -0.00000000000E+00 -0.22647612004E+04  0.22647612004E+04  0.00000000000E+00 0.  1.
    9000007    1    1    2  501    0 -0.67915880111E+02 -0.16355003427E+03 -0.44805072139E+03  0.62618737565E+03  0.40000000000E+03 0.  1.
   -9000007    1    1    2    0  503  0.67915880111E+02  0.16355003427E+03 -0.16999510614E+04  0.17553332424E+04  0.40000000000E+03 0.  1.
<mgrwt>
<rscale>  2 0.43744849E+03</rscale>
<asrwt>0</asrwt>
<pdfrwt beam="1">  1       21 0.17962987E-01 0.43744849E+03</pdfrwt>
<pdfrwt beam="2">  1       21 0.34842481E+00 0.43744849E+03</pdfrwt>
<totfact> 0.39672912E+02</totfact>
</mgrwt>
</event>
<event>
 4    1  0.4732450E-002  0.4021213E+03  0.7818608E-02  0.1043048E+00
         21   -1    0    0  503  502  0.00000000000E+00  0.00000000000E+00  0.65105887742E+03  0.65105887742E+03  0.00000000000E+00 0.  1.
         21   -1    0    0  501  503 -0.00000000000E+00 -0.00000000000E+00 -0.25044968342E+03  0.25044968342E+03  0.00000000000E+00 0.  1.
    9000007    1    1    2  501    0  0.37674500678E+02 -0.16798011744E+02  0.24140925954E+03  0.46902022536E+03  0.40000000000E+03 0.  1.
   -9000007    1    1    2    0  502 -0.37674500678E+02  0.16798011744E+02  0.15919993446E+03  0.43248833549E+03  0.40000000000E+03 0.  1.
<mgrwt>
<rscale>  2 0.40212130E+03</rscale>
<asrwt>0</asrwt>
<pdfrwt beam="1">  1       21 0.10016290E+00 0.40212130E+03</pdfrwt>
<pdfrwt beam="2">  1       21 0.38530721E-01 0.40212130E+03</pdfrwt>
<totfact> 0.47384376E+03</totfact>
</mgrwt>
</event>
<event>
 4    1  0.4732450E-002  0.4566361E+03  0.7818608E-02  0.1025761E+00
         21   -1    0    0  503  502  0.00000000000E+00  0.00000000000E+00  0.47956045690E+03  0.47956045690E+03  0.00000000000E+00 0.  1.
         21   -1    0    0  501  503 -0.00000000000E+00 -0.00000000000E+00 -0.51968858407E+03  0.51968858407E+03  0.00000000000E+00 0. -1.
    9000007    1    1    2  501    0 -0.67709538550E+02 -0.20959957722E+03 -0.22198306167E+03  0.50773324103E+03  0.40000000000E+03 0. -1.
   -9000007    1    1    2    0  502  0.67709538550E+02  0.20959957722E+03  0.18185493450E+03  0.49151579993E+03  0.40000000000E+03 0. -1.
<mgrwt>
<rscale>  2 0.45663614E+03</rscale>
<asrwt>0</asrwt>
<pdfrwt beam="1">  1       21 0.73778531E-01 0.45663614E+03</pdfrwt>
<pdfrwt beam="2">  1       21 0.79952090E-01 0.45663614E+03</pdfrwt>
<totfact> 0.19554976E+03</totfact>
</mgrwt>
</event>
<event>
 4    1  0.4732450E-002  0.5315240E+03  0.7818608E-02  0.1005863E+00
         21   -1    0    0  501  502  0.00000000000E+00  0.00000000000E+00  0.16770531718E+03  0.16770531718E+03  0.00000000000E+00 0.  1.
         21   -1    0    0  502  503 -0.00000000000E+00 -0.00000000000E+00 -0.18792545476E+04  0.18792545476E+04  0.00000000000E+00 0.  1.
    9000007    1    1    2  501    0 -0.28595426758E+03  0.20186101916E+03 -0.52638499381E+03  0.74806341704E+03  0.40000000000E+03 0.  1.
   -9000007    1    1    2    0  503  0.28595426758E+03 -0.20186101916E+03 -0.11851642366E+04  0.12988964477E+04  0.40000000000E+03 0.  1.
<mgrwt>
<rscale>  2 0.53152395E+03</rscale>
<asrwt>0</asrwt>
<pdfrwt beam="1">  1       21 0.25800818E-01 0.53152395E+03</pdfrwt>
<pdfrwt beam="2">  1       21 0.28911608E+00 0.53152395E+03</pdfrwt>
<totfact> 0.43045553E+02</totfact>
</mgrwt>
</event>
<event>
 4    1  0.4732450E-002  0.4640810E+03  0.7818608E-02  0.1023604E+00
         21   -1    0    0  501  502  0.00000000000E+00  0.00000000000E+00  0.27010054296E+03  0.27010054296E+03  0.00000000000E+00 0. -1.
         21   -1    0    0  502  503 -0.00000000000E+00 -0.00000000000E+00 -0.13049302322E+04  0.13049302322E+04  0.00000000000E+00 0.  1.
    9000007    1    1    2  501    0  0.23531072190E+03 -0.75009316077E-01 -0.10085573242E+04  0.11102067454E+04  0.40000000000E+03 0.  1.
   -9000007    1    1    2    0  503 -0.23531072190E+03  0.75009316077E-01 -0.26272365089E+02  0.46482402975E+03  0.40000000000E+03 0. -1.
<mgrwt>
<rscale>  2 0.46408096E+03</rscale>
<asrwt>0</asrwt>
<pdfrwt beam="1">  1       21 0.41553930E-01 0.46408096E+03</pdfrwt>
<pdfrwt beam="2">  1       21 0.20075849E+00 0.46408096E+03</pdfrwt>
<totfact> 0.60774830E+02</totfact>
</mgrwt>
</event>
<event>
 4    1  0.4732450E-002  0.4182224E+03  0.7818608E-02  0.1037646E+00
         21   -1    0    0  501  502  0.00000000000E+00  0.00000000000E+00  0.90997740520E+03  0.90997740520E+03  0.00000000000E+00 0. -1.
         21   -1    0    0  502  503 -0.00000000000E+00 -0.00000000000E+00 -0.29966085525E+03  0.29966085525E+03  0.00000000000E+00 0. -1.
    9000007    1    1    2  501    0  0.10796623175E+03  0.57037458494E+02  0.66732479080E+03  0.78754831933E+03  0.40000000000E+03 0. -1.
   -9000007    1    1    2    0  503 -0.10796623175E+03 -0.57037458494E+02 -0.57008240850E+02  0.42208994112E+03  0.40000000000E+03 0. -1.
<mgrwt>
<rscale>  2 0.41822240E+03</rscale>
<asrwt>0</asrwt>
<pdfrwt beam="1">  1       21 0.13999652E+00 0.41822240E+03</pdfrwt>
<pdfrwt beam="2">  1       21 0.46101670E-01 0.41822240E+03</pdfrwt>
<totfact> 0.13925524E+03</totfact>
</mgrwt>
</event>
<event>
 4    1  0.4732450E-002  0.4500421E+03  0.7818608E-02  0.1027710E+00
         21   -1    0    0  501  502  0.00000000000E+00  0.00000000000E+00  0.39325502061E+03  0.39325502061E+03  0.00000000000E+00 0.  1.
         21   -1    0    0  502  503 -0.00000000000E+00 -0.00000000000E+00 -0.51903671601E+03  0.51903671601E+03  0.00000000000E+00 0. -1.
    9000007    1    1    2  501    0  0.16715734364E+03  0.12081505984E+03 -0.10297171986E+03  0.46167199537E+03  0.40000000000E+03 0. -1.
   -9000007    1    1    2    0  503 -0.16715734364E+03 -0.12081505984E+03 -0.22809975545E+02  0.45061974125E+03  0.40000000000E+03 0.  1.
<mgrwt>
<rscale>  2 0.45004206E+03</rscale>
<asrwt>0</asrwt>
<pdfrwt beam="1">  1       21 0.60500772E-01 0.45004206E+03</pdfrwt>
<pdfrwt beam="2">  1       21 0.79851803E-01 0.45004206E+03</pdfrwt>
<totfact> 0.30622977E+03</totfact>
</mgrwt>
</event>
<event>
 4    1  0.4732450E-002  0.5673836E+03  0.7818608E-02  0.9975485E-01
         21   -1    0    0  503  502  0.00000000000E+00  0.00000000000E+00  0.50799598272E+03  0.50799598272E+03  0.00000000000E+00 0.  1.
         21   -1    0    0  501  503 -0.00000000000E+00 -0.00000000000E+00 -0.97270389598E+03  0.97270389598E+03  0.00000000000E+00 0.  1.
    9000007    1    1    2  501    0  0.28203759281E+03 -0.28701724861E+03 -0.66941306134E+03  0.87751806332E+03  0.40000000000E+03 0.  1.
   -9000007    1    1    2    0  502 -0.28203759281E+03  0.28701724861E+03  0.20470514808E+03  0.60318181538E+03  0.40000000000E+03 0.  1.
<mgrwt>
<rscale>  2 0.56738356E+03</rscale>
<asrwt>0</asrwt>
<pdfrwt beam="1">  1       21 0.78153229E-01 0.56738356E+03</pdfrwt>
<pdfrwt beam="2">  1       21 0.14964675E+00 0.56738356E+03</pdfrwt>
<totfact> 0.34319171E+02</totfact>
</mgrwt>
</event>
<event>
 4    1  0.4732450E-002  0.4027793E+03  0.7818608E-02  0.1042822E+00
         21   -1    0    0  501  502  0.00000000000E+00  0.00000000000E+00  0.26253081484E+03  0.26253081484E+03  0.00000000000E+00 0. -1.
         21   -1    0    0  502  503 -0.00000000000E+00 -0.00000000000E+00 -0.78829255861E+03  0.78829255861E+03  0.00000000000E+00 0. -1.
    9000007    1    1    2  501    0  0.46646321705E+02  0.74330544040E+01 -0.18640998636E+02  0.40321038734E+03  0.40000000000E+03 0.  1.
   -9000007    1    1    2    0  503 -0.46646321705E+02 -0.74330544040E+01 -0.50712074514E+03  0.64761298611E+03  0.40000000000E+03 0.  1.
<mgrwt>
<rscale>  2 0.40277926E+03</rscale>
<asrwt>0</asrwt>
<pdfrwt beam="1">  1       21 0.40389357E-01 0.40277926E+03</pdfrwt>
<pdfrwt beam="2">  1       21 0.12127578E+00 0.40277926E+03</pdfrwt>
<totfact> 0.26774457E+03</totfact>
</mgrwt>
</event>
<event>
 4    1  0.4732450E-002  0.4597954E+03  0.7818608E-02  0.1024841E+00
         21   -1    0    0  503  502  0.00000000000E+00  0.00000000000E+00  0.37067505790E+03  0.37067505790E+03  0.00000000000E+00 0. -1.
         21   -1    0    0  501  503 -0.00000000000E+00 -0.00000000000E+00 -0.68859830353E+03  0.68859830353E+03  0.00000000000E+00 0.  1.
    9000007    1    1    2  501    0  0.22111192526E+03 -0.50213136782E+02 -0.37844710563E+03  0.59551159044E+03  0.40000000000E+03 0.  1.
   -9000007    1    1    2    0  502 -0.22111192526E+03  0.50213136782E+02  0.60523860001E+02  0.46376177099E+03  0.40000000000E+03 0. -1.
<mgrwt>
<rscale>  2 0.45979544E+03</rscale>
<asrwt>0</asrwt>
<pdfrwt beam="1">  1       21 0.57026932E-01 0.45979544E+03</pdfrwt>
<pdfrwt beam="2">  1       21 0.10593820E+00 0.45979544E+03</pdfrwt>
<totfact> 0.17698812E+03</totfact>
</mgrwt>
</event>
<event>
 4    1  0.4732450E-002  0.4351544E+03  0.7818608E-02  0.1032244E+00
         21   -1    0    0  503  502  0.00000000000E+00  0.00000000000E+00  0.40121234866E+03  0.40121234866E+03  0.00000000000E+00 0. -1.
         21   -1    0    0  501  503 -0.00000000000E+00 -0.00000000000E+00 -0.47536632325E+03  0.47536632325E+03  0.00000000000E+00 0. -1.
    9000007    1    1    2  501    0 -0.73444112804E+02  0.15480724876E+03 -0.74135658117E+02  0.44142430583E+03  0.40000000000E+03 0. -1.
   -9000007    1    1    2    0  502  0.73444112804E+02 -0.15480724876E+03 -0.18316471018E-01  0.43515436607E+03  0.40000000000E+03 0. -1.
<mgrwt>
<rscale>  2 0.43515437E+03</rscale>
<asrwt>0</asrwt>
<pdfrwt beam="1">  1       21 0.61724977E-01 0.43515437E+03</pdfrwt>
<pdfrwt beam="2">  1       21 0.73133280E-01 0.43515437E+03</pdfrwt>
<totfact> 0.36022494E+03</totfact>
</mgrwt>
</event>
<event>
 4    1  0.4732450E-002  0.5723584E+03  0.7818608E-02  0.9964473E-01
         21   -1    0    0  503  502  0.00000000000E+00  0.00000000000E+00  0.79923974984E+03  0.79923974984E+03  0.00000000000E+00 0.  1.
         21   -1    0    0  501  503 -0.00000000000E+00 -0.00000000000E+00 -0.55177805448E+03  0.55177805448E+03  0.00000000000E+00 0. -1.
    9000007    1    1    2  501    0 -0.28267514523E+03 -0.29612309749E+03 -0.21882687108E+03  0.61276367884E+03  0.40000000000E+03 0. -1.
   -9000007    1    1    2    0  502  0.28267514523E+03  0.29612309749E+03  0.46628856643E+03  0.73825412548E+03  0.40000000000E+03 0.  1.
<mgrwt>
<rscale>  2 0.57235839E+03</rscale>
<asrwt>0</asrwt>
<pdfrwt beam="1">  1       21 0.12295996E+00 0.57235839E+03</pdfrwt>
<pdfrwt beam="2">  1       21 0.84888931E-01 0.57235839E+03</pdfrwt>
<totfact> 0.47559114E+02</totfact>
</mgrwt>
</event>
<event>
 4    1  0.4732450E-002  0.4089771E+03  0.7818608E-02  0.1040715E+00
         21   -1    0    0  503  502  0.00000000000E+00  0.00000000000E+00  0.18701399517E+04  0.18701399517E+04  0.00000000000E+00 0.  1.
         21   -1    0    0  501  503 -0.00000000000E+00 -0.00000000000E+00 -0.89453777110E+02  0.89453777110E+02  0.00000000000E+00 0.  1.
    9000007    1    1    2  501    0  0.47098721913E+02  0.71020953885E+02  0.90320256599E+03  0.99148229470E+03  0.40000000000E+03 0.  1.
   -9000007    1    1    2    0  502 -0.47098721913E+02 -0.71020953885E+02  0.87748360865E+03  0.96811143416E+03  0.40000000000E+03 0.  1.
<mgrwt>
<rscale>  2 0.40897710E+03</rscale>
<asrwt>0</asrwt>
<pdfrwt beam="1">  1       21 0.28771381E+00 0.40897710E+03</pdfrwt>
<pdfrwt beam="2">  1       21 0.13762121E-01 0.40897710E+03</pdfrwt>
<totfact> 0.15385113E+03</totfact>
</mgrwt>
</event>
<event>
 4    1  0.4732450E-002  0.4514557E+03  0.7818608E-02  0.1027289E+00
         21   -1    0    0  501  502  0.00000000000E+00  0.00000000000E+00  0.30661320290E+03  0.30661320290E+03  0.00000000000E+00 0. -1.
         21   -1    0    0  502  503 -0.00000000000E+00 -0.00000000000E+00 -0.70457774986E+03  0.70457774986E+03  0.00000000000E+00 0. -1.
    9000007    1    1    2  501    0 -0.20736140233E+03  0.28522143182E+02 -0.31923339708E+03  0.55292153661E+03  0.40000000000E+03 0. -1.
   -9000007    1    1    2    0  503  0.20736140233E+03 -0.28522143182E+02 -0.78731149873E+02  0.45826941616E+03  0.40000000000E+03 0. -1.
<mgrwt>
<rscale>  2 0.45145572E+03</rscale>
<asrwt>0</asrwt>
<pdfrwt beam="1">  1       21 0.47171262E-01 0.45145572E+03</pdfrwt>
<pdfrwt beam="2">  1       21 0.10839658E+00 0.45145572E+03</pdfrwt>
<totfact> 0.25177729E+03</totfact>
</mgrwt>
</event>
<event>
 4    1  0.4732450E-002  0.4218299E+03  0.7818608E-02  0.1036472E+00
         21   -1    0    0  501  502  0.00000000000E+00  0.00000000000E+00  0.26191533198E+04  0.26191533198E+04  0.00000000000E+00 0. -1.
         21   -1    0    0  502  503 -0.00000000000E+00 -0.00000000000E+00 -0.67945398954E+02  0.67945398954E+02  0.00000000000E+00 0. -1.
    9000007    1    1    2  501    0 -0.11259034102E+03 -0.72552659938E+02  0.12617419048E+04  0.13303883297E+04  0.40000000000E+03 0. -1.
   -9000007    1    1    2    0  503  0.11259034102E+03  0.72552659938E+02  0.12894660161E+04  0.13567103891E+04  0.40000000000E+03 0. -1.
<mgrwt>
<rscale>  2 0.42182991E+03</rscale>
<asrwt>0</asrwt>
<pdfrwt beam="1">  1       21 0.40294659E+00 0.42182991E+03</pdfrwt>
<pdfrwt beam="2">  1       21 0.10453140E-01 0.42182991E+03</pdfrwt>
<totfact> 0.49462277E+02</totfact>
</mgrwt>
</event>
<event>
 4    1  0.4732450E-002  0.4066643E+03  0.7818608E-02  0.1041496E+00
         21   -1    0    0  503  502  0.00000000000E+00  0.00000000000E+00  0.45577907612E+03  0.45577907612E+03  0.00000000000E+00 0. -1.
         21   -1    0    0  501  503 -0.00000000000E+00 -0.00000000000E+00 -0.36309756838E+03  0.36309756838E+03  0.00000000000E+00 0. -1.
    9000007    1    1    2  501    0 -0.22360044542E+02  0.69827284177E+02  0.35479622689E+02  0.40820904551E+03  0.40000000000E+03 0. -1.
   -9000007    1    1    2    0  502  0.22360044542E+02 -0.69827284177E+02  0.57201885048E+02  0.41066759899E+03  0.40000000000E+03 0. -1.
<mgrwt>
<rscale>  2 0.40666426E+03</rscale>
<asrwt>0</asrwt>
<pdfrwt beam="1">  1       21 0.70119858E-01 0.40666426E+03</pdfrwt>
<pdfrwt beam="2">  1       21 0.55861164E-01 0.40666426E+03</pdfrwt>
<totfact> 0.49750360E+03</totfact>
</mgrwt>
</event>
<event>
 4    1  0.4732450E-002  0.4419114E+03  0.7818608E-02  0.1030162E+00
         21   -1    0    0  503  502  0.00000000000E+00  0.00000000000E+00  0.49499072174E+03  0.49499072174E+03  0.00000000000E+00 0.  1.
         21   -1    0    0  501  503 -0.00000000000E+00 -0.00000000000E+00 -0.43035859144E+03  0.43035859144E+03  0.00000000000E+00 0.  1.
    9000007    1    1    2  501    0  0.29263501293E+02  0.18555144421E+03 -0.10119339836E+03  0.45334952832E+03  0.40000000000E+03 0.  1.
   -9000007    1    1    2    0  502 -0.29263501293E+02 -0.18555144421E+03  0.16582552866E+03  0.47199978487E+03  0.40000000000E+03 0.  1.
<mgrwt>
<rscale>  2 0.44191141E+03</rscale>
<asrwt>0</asrwt>
<pdfrwt beam="1">  1       21 0.76152419E-01 0.44191141E+03</pdfrwt>
<pdfrwt beam="2">  1       21 0.66209014E-01 0.44191141E+03</pdfrwt>
<totfact> 0.28058038E+03</totfact>
</mgrwt>
</event>
<event>
 4    1  0.4732450E-002  0.4928302E+03  0.7818608E-02  0.1015667E+00
         21   -1    0    0  501  502  0.00000000000E+00  0.00000000000E+00  0.14113773170E+04  0.14113773170E+04  0.00000000000E+00 0. -1.
         21   -1    0    0  502  503 -0.00000000000E+00 -0.00000000000E+00 -0.21573454420E+03  0.21573454420E+03  0.00000000000E+00 0.  1.
    9000007    1    1    2  501    0  0.16540886630E+03  0.23562998681E+03  0.96375372831E+03  0.10824522311E+04  0.40000000000E+03 0. -1.
   -9000007    1    1    2    0  503 -0.16540886630E+03 -0.23562998681E+03  0.23188904449E+03  0.54465963013E+03  0.40000000000E+03 0. -1.
<mgrwt>
<rscale>  2 0.49283018E+03</rscale>
<asrwt>0</asrwt>
<pdfrwt beam="1">  1       21 0.21713497E+00 0.49283018E+03</pdfrwt>
<pdfrwt beam="2">  1       21 0.33189931E-01 0.49283018E+03</pdfrwt>
<totfact> 0.74130034E+02</totfact>
</mgrwt>
</event>
<event>
 4    1  0.4732450E-002  0.5195787E+03  0.7818608E-02  0.1008791E+00
         21   -1    0    0  501  502  0.00000000000E+00  0.00000000000E+00  0.66859599850E+03  0.66859599850E+03  0.00000000000E+00 0.  1.
         21   -1    0    0  502  503 -0.00000000000E+00 -0.00000000000E+00 -0.49702464223E+03  0.49702464223E+03  0.00000000000E+00 0.  1.
    9000007    1    1    2  501    0 -0.76065252166E+02  0.32276329485E+03  0.33822839350E+03  0.61996815503E+03  0.40000000000E+03 0.  1.
   -9000007    1    1    2    0  503  0.76065252166E+02 -0.32276329485E+03 -0.16665703722E+03  0.54565248569E+03  0.40000000000E+03 0.  1.
<mgrwt>
<rscale>  2 0.51957874E+03</rscale>
<asrwt>0</asrwt>
<pdfrwt beam="1">  1       21 0.10286092E+00 0.51957874E+03</pdfrwt>
<pdfrwt beam="2">  1       21 0.76465330E-01 0.51957874E+03</pdfrwt>
<totfact> 0.96705521E+02</totfact>
</mgrwt>
</event>
<event>
 4    1  0.4732450E-002  0.5206664E+03  0.7818608E-02  0.1008521E+00
         21   -1    0    0  501  502  0.00000000000E+00  0.00000000000E+00  0.56639892265E+03  0.56639892265E+03  0.00000000000E+00 0. -1.
         21   -1    0    0  502  503 -0.00000000000E+00 -0.00000000000E+00 -0.11133905643E+04  0.11133905643E+04  0.00000000000E+00 0.  1.
    9000007    1    1    2  501    0 -0.60445746933E+02  0.32778009987E+03  0.36067651391E+03  0.63338852995E+03  0.40000000000E+03 0. -1.
   -9000007    1    1    2    0  503  0.60445746933E+02 -0.32778009987E+03 -0.90766815555E+03  0.10464009570E+04  0.40000000000E+03 0.  1.
<mgrwt>
<rscale>  2 0.52066638E+03</rscale>
<asrwt>0</asrwt>
<pdfrwt beam="1">  1       21 0.87138297E-01 0.52066638E+03</pdfrwt>
<pdfrwt beam="2">  1       21 0.17129085E+00 0.52066638E+03</pdfrwt>
<totfact> 0.18578317E+02</totfact>
</mgrwt>
</event>
<event>
 4    1  0.4732450E-002  0.5783627E+03  0.7818608E-02  0.9951342E-01
         21   -1    0    0  503  502  0.00000000000E+00  0.00000000000E+00  0.75096079401E+03  0.75096079401E+03  0.00000000000E+00 0. -1.
         21   -1    0    0  501  503 -0.00000000000E+00 -0.00000000000E+00 -0.49105926962E+03  0.49105926962E+03  0.00000000000E+00 0. -1.
    9000007    1    1    2  501    0  0.52226934602E+02  0.41445834281E+03 -0.59342437717E+02  0.58139908457E+03  0.40000000000E+03 0. -1.
   -9000007    1    1    2    0  502 -0.52226934602E+02 -0.41445834281E+03  0.31924396211E+03  0.66062097906E+03  0.40000000000E+03 0. -1.
<mgrwt>
<rscale>  2 0.57836266E+03</rscale>
<asrwt>0</asrwt>
<pdfrwt beam="1">  1       21 0.11553243E+00 0.57836266E+03</pdfrwt>
<pdfrwt beam="2">  1       21 0.75547580E-01 0.57836266E+03</pdfrwt>
<totfact> 0.72961997E+02</totfact>
</mgrwt>
</event>
<event>
 4    1  0.4732450E-002  0.4937422E+03  0.7818608E-02  0.1015425E+00
         21   -1    0    0  501  502  0.00000000000E+00  0.00000000000E+00  0.27000721003E+03  0.27000721003E+03  0.00000000000E+00 0.  1.
         21   -1    0    0  502  503 -0.00000000000E+00 -0.00000000000E+00 -0.95747784263E+03  0.95747784263E+03  0.00000000000E+00 0.  1.
    9000007    1    1    2  501    0 -0.28929515573E+03 -0.94678011775E+01 -0.19716346025E+03  0.53165285332E+03  0.40000000000E+03 0.  1.
   -9000007    1    1    2    0  503  0.28929515573E+03  0.94678011775E+01 -0.49030717235E+03  0.69583219935E+03  0.40000000000E+03 0.  1.
<mgrwt>
<rscale>  2 0.49374217E+03</rscale>
<asrwt>0</asrwt>
<pdfrwt beam="1">  1       21 0.41539571E-01 0.49374217E+03</pdfrwt>
<pdfrwt beam="2">  1       21 0.14730428E+00 0.49374217E+03</pdfrwt>
<totfact> 0.14644950E+03</totfact>
</mgrwt>
</event>
<event>
 4    1  0.4732450E-002  0.5567781E+03  0.7818608E-02  0.9999371E-01
         21   -1    0    0  501  502  0.00000000000E+00  0.00000000000E+00  0.50089777206E+03  0.50089777206E+03  0.00000000000E+00 0. -1.
         21   -1    0    0  502  503 -0.00000000000E+00 -0.00000000000E+00 -0.79615289019E+03  0.79615289019E+03  0.00000000000E+00 0. -1.
    9000007    1    1    2  501    0  0.29893005216E+03  0.24625725397E+03 -0.45363691943E+03  0.71818400559E+03  0.40000000000E+03 0. -1.
   -9000007    1    1    2    0  503 -0.29893005216E+03 -0.24625725397E+03  0.15838180130E+03  0.57886665667E+03  0.40000000000E+03 0. -1.
<mgrwt>
<rscale>  2 0.55677806E+03</rscale>
<asrwt>0</asrwt>
<pdfrwt beam="1">  1       21 0.77061196E-01 0.55677806E+03</pdfrwt>
<pdfrwt beam="2">  1       21 0.12248506E+00 0.55677806E+03</pdfrwt>
<totfact> 0.60503695E+02</totfact>
</mgrwt>
</event>
<event>
 4    1  0.4732450E-002  0.4055896E+03  0.7818608E-02  0.1041861E+00
         21   -1    0    0  501  502  0.00000000000E+00  0.00000000000E+00  0.16436689087E+03  0.16436689087E+03  0.00000000000E+00 0.  1.
         21   -1    0    0  502  503 -0.00000000000E+00 -0.00000000000E+00 -0.17476827057E+04  0.17476827057E+04  0.00000000000E+00 0.  1.
    9000007    1    1    2  501    0 -0.36081775496E+02 -0.56577843370E+02 -0.16669247819E+03  0.43850807196E+03  0.40000000000E+03 0.  1.
   -9000007    1    1    2    0  503  0.36081775496E+02  0.56577843370E+02 -0.14166233367E+04  0.14735415246E+04  0.40000000000E+03 0.  1.
<mgrwt>
<rscale>  2 0.40558963E+03</rscale>
<asrwt>0</asrwt>
<pdfrwt beam="1">  1       21 0.25287213E-01 0.40558963E+03</pdfrwt>
<pdfrwt beam="2">  1       21 0.26887428E+00 0.40558963E+03</pdfrwt>
<totfact> 0.63414368E+02</totfact>
</mgrwt>
</event>
<event>
 4    1  0.4732450E-002  0.5319703E+03  0.7818608E-02  0.1005755E+00
         21   -1    0    0  503  502  0.00000000000E+00  0.00000000000E+00  0.35557771381E+03  0.35557771381E+03  0.00000000000E+00 0.  1.
         21   -1    0    0  501  503 -0.00000000000E+00 -0.00000000000E+00 -0.15981248250E+04  0.15981248250E+04  0.00000000000E+00 0. -1.
    9000007    1    1    2  501    0 -0.24513357450E+03  0.25080253531E+03 -0.13133916761E+04  0.14170356650E+04  0.40000000000E+03 0. -1.
   -9000007    1    1    2    0  502  0.24513357450E+03 -0.25080253531E+03  0.70844564902E+02  0.53666687380E+03  0.40000000000E+03 0.  1.
<mgrwt>
<rscale>  2 0.53197028E+03</rscale>
<asrwt>0</asrwt>
<pdfrwt beam="1">  1       21 0.54704264E-01 0.53197028E+03</pdfrwt>
<pdfrwt beam="2">  1       21 0.24586536E+00 0.53197028E+03</pdfrwt>
<totfact> 0.16904435E+02</totfact>
</mgrwt>
</event>
<event>
 4    1  0.4732450E-002  0.4000560E+03  0.7818608E-02  0.1043760E+00
         21   -1    0    0  503  502  0.00000000000E+00  0.00000000000E+00  0.39110852433E+03  0.39110852433E+03  0.00000000000E+00 0.  1.
         21   -1    0    0  501  503 -0.00000000000E+00 -0.00000000000E+00 -0.42777491807E+03  0.42777491807E+03  0.00000000000E+00 0.  1.
    9000007    1    1    2  501    0  0.54371401867E+01  0.39024003785E+01 -0.10363392250E+03  0.41326115365E+03  0.40000000000E+03 0. -1.
   -9000007    1    1    2    0  502 -0.54371401867E+01 -0.39024003785E+01  0.66967528755E+02  0.40562228875E+03  0.40000000000E+03 0. -1.
<mgrwt>
<rscale>  2 0.40005599E+03</rscale>
<asrwt>0</asrwt>
<pdfrwt beam="1">  1       21 0.60170542E-01 0.40005599E+03</pdfrwt>
<pdfrwt beam="2">  1       21 0.65811526E-01 0.40005599E+03</pdfrwt>
<totfact> 0.48893377E+03</totfact>
</mgrwt>
</event>
<event>
 4    1  0.4732450E-002  0.4135749E+03  0.7818608E-02  0.1039178E+00
         21   -1    0    0  501  502  0.00000000000E+00  0.00000000000E+00  0.23465944158E+03  0.23465944158E+03  0.00000000000E+00 0. -1.
         21   -1    0    0  502  503 -0.00000000000E+00 -0.00000000000E+00 -0.11393413894E+04  0.11393413894E+04  0.00000000000E+00 0. -1.
    9000007    1    1    2  501    0  0.31948297822E+02  0.10011763602E+03 -0.40002883797E+02  0.41550507276E+03  0.40000000000E+03 0. -1.
   -9000007    1    1    2    0  503 -0.31948297822E+02 -0.10011763602E+03 -0.86467906400E+03  0.95849575820E+03  0.40000000000E+03 0. -1.
<mgrwt>
<rscale>  2 0.41357494E+03</rscale>
<asrwt>0</asrwt>
<pdfrwt beam="1">  1       21 0.36101452E-01 0.41357494E+03</pdfrwt>
<pdfrwt beam="2">  1       21 0.17528329E+00 0.41357494E+03</pdfrwt>
<totfact> 0.12433671E+03</totfact>
</mgrwt>
</event>
<event>
 4    1  0.4732450E-002  0.4556158E+03  0.7818608E-02  0.1026060E+00
         21   -1    0    0  501  502  0.00000000000E+00  0.00000000000E+00  0.26741200055E+03  0.26741200055E+03  0.00000000000E+00 0. -1.
         21   -1    0    0  502  503 -0.00000000000E+00 -0.00000000000E+00 -0.88134575451E+03  0.88134575451E+03  0.00000000000E+00 0.  1.
    9000007    1    1    2  501    0  0.10859984082E+03 -0.18918723788E+03 -0.10864872171E+03  0.46839116253E+03  0.40000000000E+03 0. -1.
   -9000007    1    1    2    0  503 -0.10859984082E+03  0.18918723788E+03 -0.50528503226E+03  0.68036659253E+03  0.40000000000E+03 0.  1.
<mgrwt>
<rscale>  2 0.45561578E+03</rscale>
<asrwt>0</asrwt>
<pdfrwt beam="1">  1       21 0.41140308E-01 0.45561578E+03</pdfrwt>
<pdfrwt beam="2">  1       21 0.13559166E+00 0.45561578E+03</pdfrwt>
<totfact> 0.18917357E+03</totfact>
</mgrwt>
</event>
<event>
 4    1  0.4732450E-002  0.5102207E+03  0.7818608E-02  0.1011145E+00
         21   -1    0    0  503  502  0.00000000000E+00  0.00000000000E+00  0.61633358462E+03  0.61633358462E+03  0.00000000000E+00 0. -1.
         21   -1    0    0  501  503 -0.00000000000E+00 -0.00000000000E+00 -0.45028760139E+03  0.45028760139E+03  0.00000000000E+00 0. -1.
    9000007    1    1    2  501    0  0.37645984052E+02  0.31449629889E+03 -0.49753034258E+02  0.51264071878E+03  0.40000000000E+03 0. -1.
   -9000007    1    1    2    0  502 -0.37645984052E+02 -0.31449629889E+03  0.21579901749E+03  0.55398046724E+03  0.40000000000E+03 0. -1.
<mgrwt>
<rscale>  2 0.51022068E+03</rscale>
<asrwt>0</asrwt>
<pdfrwt beam="1">  1       21 0.94820552E-01 0.51022068E+03</pdfrwt>
<pdfrwt beam="2">  1       21 0.69275015E-01 0.51022068E+03</pdfrwt>
<totfact> 0.14803604E+03</totfact>
</mgrwt>
</event>
<event>
 4    1  0.4732450E-002  0.4414355E+03  0.7818608E-02  0.1030307E+00
         21   -1    0    0  503  502  0.00000000000E+00  0.00000000000E+00  0.56921306389E+03  0.56921306389E+03  0.00000000000E+00 0. -1.
         21   -1    0    0  501  503 -0.00000000000E+00 -0.00000000000E+00 -0.38081260707E+03  0.38081260707E+03  0.00000000000E+00 0.  1.
    9000007    1    1    2  501    0  0.14276985515E+03 -0.12034131957E+03 -0.56778903123E+02  0.44507202628E+03  0.40000000000E+03 0.  1.
   -9000007    1    1    2    0  502 -0.14276985515E+03  0.12034131957E+03  0.24517935994E+03  0.50495364468E+03  0.40000000000E+03 0. -1.
<mgrwt>
<rscale>  2 0.44143546E+03</rscale>
<asrwt>0</asrwt>
<pdfrwt beam="1">  1       21 0.87571240E-01 0.44143546E+03</pdfrwt>
<pdfrwt beam="2">  1       21 0.58586555E-01 0.44143546E+03</pdfrwt>
<totfact> 0.26578147E+03</totfact>
</mgrwt>
</event>
<event>
 4    1  0.4732450E-002  0.4248090E+03  0.7818608E-02  0.1035512E+00
         21   -1    0    0  501  502  0.00000000000E+00  0.00000000000E+00  0.68169491612E+03  0.68169491612E+03  0.00000000000E+00 0.  1.
         21   -1    0    0  502  503 -0.00000000000E+00 -0.00000000000E+00 -0.79240414104E+03  0.79240414104E+03  0.00000000000E+00 0.  1.
    9000007    1    1    2  501    0 -0.12867389023E+03  0.62495691489E+02  0.54610665826E+03  0.69187799768E+03  0.40000000000E+03 0.  1.
   -9000007    1    1    2    0  503  0.12867389023E+03 -0.62495691489E+02 -0.65681588318E+03  0.78222105947E+03  0.40000000000E+03 0.  1.
<mgrwt>
<rscale>  2 0.42480899E+03</rscale>
<asrwt>0</asrwt>
<pdfrwt beam="1">  1       21 0.10487614E+00 0.42480899E+03</pdfrwt>
<pdfrwt beam="2">  1       21 0.12190833E+00 0.42480899E+03</pdfrwt>
<totfact> 0.31143067E+02</totfact>
</mgrwt>
</event>
<event>
 4    1  0.4732450E-002  0.6701901E+03  0.7818608E-02  0.9769614E-01
         21   -1    0    0  501  502  0.00000000000E+00  0.00000000000E+00  0.11995126636E+04  0.11995126636E+04  0.00000000000E+00 0.  1.
         21   -1    0    0  502  503 -0.00000000000E+00 -0.00000000000E+00 -0.64741749870E+03  0.64741749870E+03  0.00000000000E+00 0.  1.
    9000007    1    1    2  501    0 -0.31761361326E+02  0.53679230693E+03  0.87568062517E+03  0.11027108969E+04  0.40000000000E+03 0.  1.
   -9000007    1    1    2    0  503  0.31761361326E+02 -0.53679230693E+03 -0.32358546029E+03  0.74421926538E+03  0.40000000000E+03 0.  1.
<mgrwt>
<rscale>  2 0.67019010E+03</rscale>
<asrwt>0</asrwt>
<pdfrwt beam="1">  1       21 0.18454041E+00 0.67019010E+03</pdfrwt>
<pdfrwt beam="2">  1       21 0.99602692E-01 0.67019010E+03</pdfrwt>
<totfact> 0.10193076E+02</totfact>
</mgrwt>
</event>
<event>
 4    1  0.4732450E-002  0.4649015E+03  0.7818608E-02  0.1023369E+00
         21   -1    0    0  501  502  0.00000000000E+00  0.00000000000E+00  0.10503912774E+04  0.10503912774E+04  0.00000000000E+00 0.  1.
         21   -1    0    0  502  503 -0.00000000000E+00 -0.00000000000E+00 -0.12273902393E+04  0.12273902393E+04  0.00000000000E+00 0. -1.
    9000007    1    1    2  501    0  0.56574537992E+02  0.23007104579E+03  0.95055094156E+03  0.10581495438E+04  0.40000000000E+03 0.  1.
   -9000007    1    1    2    0  503 -0.56574537992E+02 -0.23007104579E+03 -0.11275499035E+04  0.12196319729E+04  0.40000000000E+03 0. -1.
<mgrwt>
<rscale>  2 0.46490146E+03</rscale>
<asrwt>0</asrwt>
<pdfrwt beam="1">  1       21 0.16159866E+00 0.46490146E+03</pdfrwt>
<pdfrwt beam="2">  1       21 0.18882927E+00 0.46490146E+03</pdfrwt>
<totfact> 0.29738871E+01</totfact>
</mgrwt>
</event>
<event>
 4    1  0.4732450E-002  0.4372572E+03  0.7818608E-02  0.1031592E+00
         21   -1    0    0  501  502  0.00000000000E+00  0.00000000000E+00  0.46056783640E+03  0.46056783640E+03  0.00000000000E+00 0.  1.
         21   -1    0    0  502  503 -0.00000000000E+00 -0.00000000000E+00 -0.50098854527E+03  0.50098854527E+03  0.00000000000E+00 0.  1.
    9000007    1    1    2  501    0  0.11940293180E+03  0.13014135159E+03 -0.21924648868E+03  0.48914502381E+03  0.40000000000E+03 0.  1.
   -9000007    1    1    2    0  503 -0.11940293180E+03 -0.13014135159E+03  0.17882577980E+03  0.47241135786E+03  0.40000000000E+03 0.  1.
<mgrwt>
<rscale>  2 0.43725717E+03</rscale>
<asrwt>0</asrwt>
<pdfrwt beam="1">  1       21 0.70856590E-01 0.43725717E+03</pdfrwt>
<pdfrwt beam="2">  1       21 0.77075161E-01 0.43725717E+03</pdfrwt>
<totfact> 0.23484300E+03</totfact>
</mgrwt>
</event>
<event>
 4    1  0.4732450E-002  0.4102674E+03  0.7818608E-02  0.1040281E+00
         21   -1    0    0  503  502  0.00000000000E+00  0.00000000000E+00  0.10189310062E+04  0.10189310062E+04  0.00000000000E+00 0.  1.
         21   -1    0    0  501  503 -0.00000000000E+00 -0.00000000000E+00 -0.82047289033E+03  0.82047289033E+03  0.00000000000E+00 0.  1.
    9000007    1    1    2  501    0  0.76447752766E+02 -0.49750177073E+02 -0.72268935794E+03  0.83102301238E+03  0.40000000000E+03 0.  1.
   -9000007    1    1    2    0  502 -0.76447752766E+02  0.49750177073E+02  0.92114747380E+03  0.10083808841E+04  0.40000000000E+03 0.  1.
<mgrwt>
<rscale>  2 0.41026740E+03</rscale>
<asrwt>0</asrwt>
<pdfrwt beam="1">  1       21 0.15675862E+00 0.41026740E+03</pdfrwt>
<pdfrwt beam="2">  1       21 0.12622660E+00 0.41026740E+03</pdfrwt>
<totfact> 0.10152704E+02</totfact>
</mgrwt>
</event>
<event>
 4    1  0.4732450E-002  0.4870413E+03  0.7818608E-02  0.1017218E+00
         21   -1    0    0  501  502  0.00000000000E+00  0.00000000000E+00  0.39647217646E+03  0.39647217646E+03  0.00000000000E+00 0.  1.
         21   -1    0    0  502  503 -0.00000000000E+00 -0.00000000000E+00 -0.84667379802E+03  0.84667379802E+03  0.00000000000E+00 0. -1.
    9000007    1    1    2  501    0  0.27206772710E+03  0.56465503663E+02  0.11155583058E+03  0.49965378470E+03  0.40000000000E+03 0.  1.
   -9000007    1    1    2    0  503 -0.27206772710E+03 -0.56465503663E+02 -0.56175745214E+03  0.74349218978E+03  0.40000000000E+03 0. -1.
<mgrwt>
<rscale>  2 0.48704127E+03</rscale>
<asrwt>0</asrwt>
<pdfrwt beam="1">  1       21 0.60995720E-01 0.48704127E+03</pdfrwt>
<pdfrwt beam="2">  1       21 0.13025751E+00 0.48704127E+03</pdfrwt>
<totfact> 0.89622852E+02</totfact>
</mgrwt>
</event>
<event>
 4    1  0.4732450E-002  0.5378064E+03  0.7818608E-02  0.1004356E+00
         21   -1    0    0  503  502  0.00000000000E+00  0.00000000000E+00  0.22084042036E+03  0.22084042036E+03  0.00000000000E+00 0.  1.
         21   -1    0    0  501  503 -0.00000000000E+00 -0.00000000000E+00 -0.13107665540E+04  0.13107665540E+04  0.00000000000E+00 0.  1.
    9000007    1    1    2  501    0 -0.39456620466E+02  0.35732183558E+03 -0.52316574245E+03  0.75029201858E+03  0.40000000000E+03 0.  1.
   -9000007    1    1    2    0  502  0.39456620466E+02 -0.35732183558E+03 -0.56676039115E+03  0.78131495573E+03  0.40000000000E+03 0.  1.
<mgrwt>
<rscale>  2 0.53780640E+03</rscale>
<asrwt>0</asrwt>
<pdfrwt beam="1">  1       21 0.33975450E-01 0.53780640E+03</pdfrwt>
<pdfrwt beam="2">  1       21 0.20165639E+00 0.53780640E+03</pdfrwt>
<totfact> 0.87740922E+02</totfact>
</mgrwt>
</event>
<event>
 4    1  0.4732450E-002  0.4814931E+03  0.7818608E-02  0.1018726E+00
         21   -1    0    0  503  502  0.00000000000E+00  0.00000000000E+00  0.20387706774E+03  0.20387706774E+03  0.00000000000E+00 0. -1.
         21   -1    0    0  501  503 -0.00000000000E+00 -0.00000000000E+00 -0.13221200350E+04  0.13221200350E+04  0.00000000000E+00 0.  1.
    9000007    1    1    2  501    0 -0.23329653749E+03  0.13194064184E+03 -0.27371923787E+03  0.55385722759E+03  0.40000000000E+03 0.  1.
   -9000007    1    1    2    0  502  0.23329653749E+03 -0.13194064184E+03 -0.84452372944E+03  0.97213987520E+03  0.40000000000E+03 0.  1.
<mgrwt>
<rscale>  2 0.48149310E+03</rscale>
<asrwt>0</asrwt>
<pdfrwt beam="1">  1       21 0.31365704E-01 0.48149310E+03</pdfrwt>
<pdfrwt beam="2">  1       21 0.20340307E+00 0.48149310E+03</pdfrwt>
<totfact> 0.10262866E+03</totfact>
</mgrwt>
</event>
<event>
 4    1  0.4732450E-002  0.4927904E+03  0.7818608E-02  0.1015678E+00
         21   -1    0    0  501  502  0.00000000000E+00  0.00000000000E+00  0.66009837011E+03  0.66009837011E+03  0.00000000000E+00 0.  1.
         21   -1    0    0  502  503 -0.00000000000E+00 -0.00000000000E+00 -0.38463002704E+03  0.38463002704E+03  0.00000000000E+00 0. -1.
    9000007    1    1    2  501    0  0.19123744074E+03  0.21510595875E+03  0.24671612594E+03  0.55109997190E+03  0.40000000000E+03 0.  1.
   -9000007    1    1    2    0  503 -0.19123744074E+03 -0.21510595875E+03  0.28752217129E+02  0.49362842525E+03  0.40000000000E+03 0. -1.
<mgrwt>
<rscale>  2 0.49279035E+03</rscale>
<asrwt>0</asrwt>
<pdfrwt beam="1">  1       21 0.10155360E+00 0.49279035E+03</pdfrwt>
<pdfrwt beam="2">  1       21 0.59173850E-01 0.49279035E+03</pdfrwt>
<totfact> 0.17898892E+03</totfact>
</mgrwt>
</event>
<event>
 4    1  0.4732450E-002  0.4371588E+03  0.7818608E-02  0.1031622E+00
         21   -1    0    0  503  502  0.00000000000E+00  0.00000000000E+00  0.10202055983E+03  0.10202055983E+03  0.00000000000E+00 0.  1.
         21   -1    0    0  501  503 -0.00000000000E+00 -0.00000000000E+00 -0.19561092258E+04  0.19561092258E+04  0.00000000000E+00 0.  1.
    9000007    1    1    2  501    0 -0.38748038314E+02 -0.17206520359E+03 -0.11388669627E+04  0.12198876192E+04  0.40000000000E+03 0.  1.
   -9000007    1    1    2    0  502  0.38748038314E+02  0.17206520359E+03 -0.71522170327E+03  0.83824216644E+03  0.40000000000E+03 0.  1.
<mgrwt>
<rscale>  2 0.43715883E+03</rscale>
<asrwt>0</asrwt>
<pdfrwt beam="1">  1       21 0.15695471E-01 0.43715883E+03</pdfrwt>
<pdfrwt beam="2">  1       21 0.30093987E+00 0.43715883E+03</pdfrwt>
<totfact> 0.98954495E+02</totfact>
</mgrwt>
</event>
<event>
 4    1  0.4732450E-002  0.4184565E+03  0.7818608E-02  0.1037570E+00
         21   -1    0    0  503  502  0.00000000000E+00  0.00000000000E+00  0.40504488180E+03  0.40504488180E+03  0.00000000000E+00 0.  1.
         21   -1    0    0  501  503 -0.00000000000E+00 -0.00000000000E+00 -0.49655264129E+03  0.49655264129E+03  0.00000000000E+00 0.  1.
    9000007    1    1    2  501    0  0.95116151382E+02  0.77838283462E+02 -0.20789905027E+03  0.46725570701E+03  0.40000000000E+03 0. -1.
   -9000007    1    1    2    0  502 -0.95116151382E+02 -0.77838283462E+02  0.11639129078E+03  0.43434181608E+03  0.40000000000E+03 0. -1.
<mgrwt>
<rscale>  2 0.41845655E+03</rscale>
<asrwt>0</asrwt>
<pdfrwt beam="1">  1       21 0.62314597E-01 0.41845655E+03</pdfrwt>
<pdfrwt beam="2">  1       21 0.76392714E-01 0.41845655E+03</pdfrwt>
<totfact> 0.32137788E+03</totfact>
</mgrwt>
</event>
<event>
 4    1  0.4732450E-002  0.5924597E+03  0.7818608E-02  0.9921174E-01
         21   -1    0    0  503  502  0.00000000000E+00  0.00000000000E+00  0.54306238297E+03  0.54306238297E+03  0.00000000000E+00 0. -1.
         21   -1    0    0  501  503 -0.00000000000E+00 -0.00000000000E+00 -0.79247998490E+03  0.79247998490E+03  0.00000000000E+00 0. -1.
    9000007    1    1    2  501    0  0.39259917772E+03  0.19202716461E+03 -0.41145833028E+03  0.72132274596E+03  0.40000000000E+03 0. -1.
   -9000007    1    1    2    0  502 -0.39259917772E+03 -0.19202716461E+03  0.16204072835E+03  0.61421962190E+03  0.40000000000E+03 0. -1.
<mgrwt>
<rscale>  2 0.59245974E+03</rscale>
<asrwt>0</asrwt>
<pdfrwt beam="1">  1       21 0.83548059E-01 0.59245974E+03</pdfrwt>
<pdfrwt beam="2">  1       21 0.12192000E+00 0.59245974E+03</pdfrwt>
<totfact> 0.50114365E+02</totfact>
</mgrwt>
</event>
<event>
 4    1  0.4732450E-002  0.4336301E+03  0.7818608E-02  0.1032719E+00
         21   -1    0    0  503  502  0.00000000000E+00  0.00000000000E+00  0.72483957881E+03  0.72483957881E+03  0.00000000000E+00 0. -1.
         21   -1    0    0  501  503 -0.00000000000E+00 -0.00000000000E+00 -0.64195061361E+03  0.64195061361E+03  0.00000000000E+00 0. -1.
    9000007    1    1    2  501    0 -0.13085628526E+03 -0.10445900020E+03 -0.48609669751E+03  0.65140237138E+03  0.40000000000E+03 0. -1.
   -9000007    1    1    2    0  502  0.13085628526E+03  0.10445900020E+03  0.56898566271E+03  0.71538782103E+03  0.40000000000E+03 0. -1.
<mgrwt>
<rscale>  2 0.43363008E+03</rscale>
<asrwt>0</asrwt>
<pdfrwt beam="1">  1       21 0.11151378E+00 0.43363008E+03</pdfrwt>
<pdfrwt beam="2">  1       21 0.98761633E-01 0.43363008E+03</pdfrwt>
<totfact> 0.44916240E+02</totfact>
</mgrwt>
</event>
<event>
 4    1  0.4732450E-002  0.6357207E+03  0.7818608E-02  0.9833948E-01
         21   -1    0    0  503  502  0.00000000000E+00  0.00000000000E+00  0.14283344292E+04  0.14283344292E+04  0.00000000000E+00 0.  1.
         21   -1    0    0  501  503 -0.00000000000E+00 -0.00000000000E+00 -0.29579414648E+03  0.29579414648E+03  0.00000000000E+00 0. -1.
    9000007    1    1    2  501    0  0.48671920853E+03  0.85118934558E+02  0.74593920286E+03  0.98008474906E+03  0.40000000000E+03 0. -1.
   -9000007    1    1    2    0  502 -0.48671920853E+03 -0.85118934558E+02  0.38660107984E+03  0.74404382660E+03  0.40000000000E+03 0. -1.
<mgrwt>
<rscale>  2 0.63572071E+03</rscale>
<asrwt>0</asrwt>
<pdfrwt beam="1">  1       21 0.21974375E+00 0.63572071E+03</pdfrwt>
<pdfrwt beam="2">  1       21 0.45506793E-01 0.63572071E+03</pdfrwt>
<totfact> 0.35153406E+02</totfact>
</mgrwt>
</event>
<event>
 4    1  0.4732450E-002  0.8522184E+03  0.7818608E-02  0.9487364E-01
         21   -1    0    0  503  502  0.00000000000E+00  0.00000000000E+00  0.12169600902E+04  0.12169600902E+04  0.00000000000E+00 0.  1.
         21   -1    0    0  501  503 -0.00000000000E+00 -0.00000000000E+00 -0.13130593631E+04  0.13130593631E+04  0.00000000000E+00 0.  1.
    9000007    1    1    2  501    0 -0.47167682232E+03  0.58634223551E+03 -0.98235366315E+03  0.13004979667E+04  0.40000000000E+03 0.  1.
   -9000007    1    1    2    0  502  0.47167682232E+03 -0.58634223551E+03  0.88625439027E+03  0.12295214866E+04  0.40000000000E+03 0.  1.
<mgrwt>
<rscale>  2 0.85221842E+03</rscale>
<asrwt>0</asrwt>
<pdfrwt beam="1">  1       21 0.18722463E+00 0.85221842E+03</pdfrwt>
<pdfrwt beam="2">  1       21 0.20200913E+00 0.85221842E+03</pdfrwt>
<totfact> 0.13146822E+01</totfact>
</mgrwt>
</event>
<event>
 4    1  0.4732450E-002  0.4900504E+03  0.7818608E-02  0.1016409E+00
         21   -1    0    0  501  502  0.00000000000E+00  0.00000000000E+00  0.39118482777E+03  0.39118482777E+03  0.00000000000E+00 0.  1.
         21   -1    0    0  502  503 -0.00000000000E+00 -0.00000000000E+00 -0.67199287501E+03  0.67199287501E+03  0.00000000000E+00 0.  1.
    9000007    1    1    2  501    0 -0.22659224635E+03  0.16972149247E+03  0.15890868501E+02  0.49030801627E+03  0.40000000000E+03 0.  1.
   -9000007    1    1    2    0  503  0.22659224635E+03 -0.16972149247E+03 -0.29669891574E+03  0.57286968651E+03  0.40000000000E+03 0.  1.
<mgrwt>
<rscale>  2 0.49005044E+03</rscale>
<asrwt>0</asrwt>
<pdfrwt beam="1">  1       21 0.60182282E-01 0.49005044E+03</pdfrwt>
<pdfrwt beam="2">  1       21 0.10338352E+00 0.49005044E+03</pdfrwt>
<totfact> 0.16523547E+03</totfact>
</mgrwt>
</event>
<event>
 4    1  0.4732450E-002  0.4480412E+03  0.7818608E-02  0.1028308E+00
         21   -1    0    0  501  502  0.00000000000E+00  0.00000000000E+00  0.15393932811E+04  0.15393932811E+04  0.00000000000E+00 0. -1.
         21   -1    0    0  502  503 -0.00000000000E+00 -0.00000000000E+00 -0.14260892775E+03  0.14260892775E+03  0.00000000000E+00 0.  1.
    9000007    1    1    2  501    0  0.18140951034E+03 -0.88495721837E+02  0.45234662003E+03  0.63667760121E+03  0.40000000000E+03 0.  1.
   -9000007    1    1    2    0  503 -0.18140951034E+03  0.88495721837E+02  0.94443773336E+03  0.10453246077E+04  0.40000000000E+03 0. -1.
<mgrwt>
<rscale>  2 0.44804118E+03</rscale>
<asrwt>0</asrwt>
<pdfrwt beam="1">  1       21 0.23682972E+00 0.44804118E+03</pdfrwt>
<pdfrwt beam="2">  1       21 0.21939836E-01 0.44804118E+03</pdfrwt>
<totfact> 0.12809288E+03</totfact>
</mgrwt>
</event>
<event>
 4    1  0.4732450E-002  0.5743957E+03  0.7818608E-02  0.9959998E-01
         21   -1    0    0  501  502  0.00000000000E+00  0.00000000000E+00  0.81304287720E+03  0.81304287720E+03  0.00000000000E+00 0. -1.
         21   -1    0    0  502  503 -0.00000000000E+00 -0.00000000000E+00 -0.49259601905E+03  0.49259601905E+03  0.00000000000E+00 0. -1.
    9000007    1    1    2  501    0  0.22762750020E+03 -0.34368035990E+03  0.43425759359E+03  0.72007647248E+03  0.40000000000E+03 0. -1.
   -9000007    1    1    2    0  503 -0.22762750020E+03  0.34368035990E+03 -0.11381073544E+03  0.58556242377E+03  0.40000000000E+03 0. -1.
<mgrwt>
<rscale>  2 0.57439574E+03</rscale>
<asrwt>0</asrwt>
<pdfrwt beam="1">  1       21 0.12508352E+00 0.57439574E+03</pdfrwt>
<pdfrwt beam="2">  1       21 0.75784003E-01 0.57439574E+03</pdfrwt>
<totfact> 0.59192207E+02</totfact>
</mgrwt>
</event>
<event>
 4    1  0.4732450E-002  0.4106470E+03  0.7818608E-02  0.1040154E+00
         21   -1    0    0  503  502  0.00000000000E+00  0.00000000000E+00  0.29686776651E+03  0.29686776651E+03  0.00000000000E+00 0. -1.
         21   -1    0    0  501  503 -0.00000000000E+00 -0.00000000000E+00 -0.72994490219E+03  0.72994490219E+03  0.00000000000E+00 0. -1.
    9000007    1    1    2  501    0  0.91828245951E+02  0.14091579383E+02 -0.45833738034E+03  0.61538943246E+03  0.40000000000E+03 0. -1.
   -9000007    1    1    2    0  502 -0.91828245951E+02 -0.14091579383E+02  0.25260244661E+02  0.41142323625E+03  0.40000000000E+03 0. -1.
<mgrwt>
<rscale>  2 0.41064705E+03</rscale>
<asrwt>0</asrwt>
<pdfrwt beam="1">  1       21 0.45671964E-01 0.41064705E+03</pdfrwt>
<pdfrwt beam="2">  1       21 0.11229921E+00 0.41064705E+03</pdfrwt>
<totfact> 0.25074624E+03</totfact>
</mgrwt>
</event>
<event>
 4    1  0.4732450E-002  0.5721028E+03  0.7818608E-02  0.9965036E-01
         21   -1    0    0  501  502  0.00000000000E+00  0.00000000000E+00  0.68613033817E+03  0.68613033817E+03  0.00000000000E+00 0.  1.
         21   -1    0    0  502  503 -0.00000000000E+00 -0.00000000000E+00 -0.50788460412E+03  0.50788460412E+03  0.00000000000E+00 0.  1.
    9000007    1    1    2  501    0 -0.35988975263E+03  0.19437337425E+03  0.23628265555E+03  0.61897587673E+03  0.40000000000E+03 0.  1.
   -9000007    1    1    2    0  503  0.35988975263E+03 -0.19437337425E+03 -0.58036921495E+02  0.57503906556E+03  0.40000000000E+03 0.  1.
<mgrwt>
<rscale>  2 0.57210283E+03</rscale>
<asrwt>0</asrwt>
<pdfrwt beam="1">  1       21 0.10555851E+00 0.57210283E+03</pdfrwt>
<pdfrwt beam="2">  1       21 0.78136094E-01 0.57210283E+03</pdfrwt>
<totfact> 0.84779037E+02</totfact>
</mgrwt>
</event>
<event>
 4    1  0.4732450E-002  0.4100785E+03  0.7818608E-02  0.1040345E+00
         21   -1    0    0  501  502  0.00000000000E+00  0.00000000000E+00  0.36691308740E+03  0.36691308740E+03  0.00000000000E+00 0. -1.
         21   -1    0    0  502  503 -0.00000000000E+00 -0.00000000000E+00 -0.60693146533E+03  0.60693146533E+03  0.00000000000E+00 0. -1.
    9000007    1    1    2  501    0 -0.89557937137E+02 -0.11990996176E+02  0.12093296130E+03  0.42753852367E+03  0.40000000000E+03 0.  1.
   -9000007    1    1    2    0  503  0.89557937137E+02  0.11990996176E+02 -0.36095133923E+03  0.54630602906E+03  0.40000000000E+03 0.  1.
<mgrwt>
<rscale>  2 0.41007854E+03</rscale>
<asrwt>0</asrwt>
<pdfrwt beam="1">  1       21 0.56448168E-01 0.41007854E+03</pdfrwt>
<pdfrwt beam="2">  1       21 0.93374070E-01 0.41007854E+03</pdfrwt>
<totfact> 0.25052589E+03</totfact>
</mgrwt>
</event>
<event>
 4    1  0.4732450E-002  0.4073866E+03  0.7818608E-02  0.1041252E+00
         21   -1    0    0  501  502  0.00000000000E+00  0.00000000000E+00  0.38967314682E+03  0.38967314682E+03  0.00000000000E+00 0. -1.
         21   -1    0    0  502  503 -0.00000000000E+00 -0.00000000000E+00 -0.42994476405E+03  0.42994476405E+03  0.00000000000E+00 0. -1.
    9000007    1    1    2  501    0 -0.19723243056E+02 -0.74664709704E+02  0.19587149373E+02  0.40785718286E+03  0.40000000000E+03 0. -1.
   -9000007    1    1    2    0  503  0.19723243056E+02  0.74664709704E+02 -0.59858766605E+02  0.41176072801E+03  0.40000000000E+03 0. -1.
<mgrwt>
<rscale>  2 0.40738658E+03</rscale>
<asrwt>0</asrwt>
<pdfrwt beam="1">  1       21 0.59949715E-01 0.40738658E+03</pdfrwt>
<pdfrwt beam="2">  1       21 0.66145348E-01 0.40738658E+03</pdfrwt>
<totfact> 0.48603675E+03</totfact>
</mgrwt>
</event>
<event>
 4    1  0.4732450E-002  0.4153065E+03  0.7818608E-02  0.1038605E+00
         21   -1    0    0  501  502  0.00000000000E+00  0.00000000000E+00  0.75729777199E+03  0.75729777199E+03  0.00000000000E+00 0. -1.
         21   -1    0    0  502  503 -0.00000000000E+00 -0.00000000000E+00 -0.57984831696E+03  0.57984831696E+03  0.00000000000E+00 0. -1.
    9000007    1    1    2  501    0  0.40796333510E-01 -0.11171169622E+03  0.60970300571E+03  0.73771082404E+03  0.40000000000E+03 0. -1.
   -9000007    1    1    2    0  503 -0.40796333510E-01  0.11171169622E+03 -0.43225355068E+03  0.59943526491E+03  0.40000000000E+03 0. -1.
<mgrwt>
<rscale>  2 0.41530652E+03</rscale>
<asrwt>0</asrwt>
<pdfrwt beam="1">  1       21 0.11650735E+00 0.41530652E+03</pdfrwt>
<pdfrwt beam="2">  1       21 0.89207434E-01 0.41530652E+03</pdfrwt>
<totfact> 0.51794160E+02</totfact>
</mgrwt>
</event>
<event>
 4    1  0.4732450E-002  0.4590019E+03  0.7818608E-02  0.1025071E+00
         21   -1    0    0  501  502  0.00000000000E+00  0.00000000000E+00  0.13668874826E+04  0.13668874826E+04  0.00000000000E+00 0.  1.
         21   -1    0    0  502  503 -0.00000000000E+00 -0.00000000000E+00 -0.15498920580E+03  0.15498920580E+03  0.00000000000E+00 0. -1.
    9000007    1    1    2  501    0 -0.20866455585E+03 -0.84509556776E+02  0.66249923180E+03  0.80597021917E+03  0.40000000000E+03 0.  1.
   -9000007    1    1    2    0  503  0.20866455585E+03  0.84509556776E+02  0.54939904503E+03  0.71590646926E+03  0.40000000000E+03 0. -1.
<mgrwt>
<rscale>  2 0.45900192E+03</rscale>
<asrwt>0</asrwt>
<pdfrwt beam="1">  1       21 0.21029037E+00 0.45900192E+03</pdfrwt>
<pdfrwt beam="2">  1       21 0.23844494E-01 0.45900192E+03</pdfrwt>
<totfact> 0.16016126E+03</totfact>
</mgrwt>
</event>
<event>
 4    1  0.4732450E-002  0.7855490E+03  0.7818608E-02  0.9581173E-01
         21   -1    0    0  503  502  0.00000000000E+00  0.00000000000E+00  0.32545717055E+04  0.32545717055E+04  0.00000000000E+00 0.  1.
         21   -1    0    0  501  503 -0.00000000000E+00 -0.00000000000E+00 -0.31574498656E+03  0.31574498656E+03  0.00000000000E+00 0. -1.
    9000007    1    1    2  501    0  0.64940493631E+03 -0.18804373984E+03  0.34109226540E+03  0.85640595100E+03  0.40000000000E+03 0. -1.
   -9000007    1    1    2    0  502 -0.64940493631E+03  0.18804373984E+03  0.25977344536E+04  0.27139107411E+04  0.40000000000E+03 0.  1.
<mgrwt>
<rscale>  2 0.78554899E+03</rscale>
<asrwt>0</asrwt>
<pdfrwt beam="1">  1       21 0.50070332E+00 0.78554899E+03</pdfrwt>
<pdfrwt beam="2">  1       21 0.48576154E-01 0.78554899E+03</pdfrwt>
<totfact> 0.43911081E+00</totfact>
</mgrwt>
</event>
<event>
 4    1  0.4732450E-002  0.4247272E+03  0.7818608E-02  0.1035539E+00
         21   -1    0    0  501  502  0.00000000000E+00  0.00000000000E+00  0.41800625965E+03  0.41800625965E+03  0.00000000000E+00 0.  1.
         21   -1    0    0  502  503 -0.00000000000E+00 -0.00000000000E+00 -0.43788963683E+03  0.43788963683E+03  0.00000000000E+00 0.  1.
    9000007    1    1    2  501    0 -0.13082983791E+03  0.57242893356E+02  0.41525227326E+02  0.42675231673E+03  0.40000000000E+03 0.  1.
   -9000007    1    1    2    0  503  0.13082983791E+03 -0.57242893356E+02 -0.61408604507E+02  0.42914357974E+03  0.40000000000E+03 0.  1.
<mgrwt>
<rscale>  2 0.42472720E+03</rscale>
<asrwt>0</asrwt>
<pdfrwt beam="1">  1       21 0.64308656E-01 0.42472720E+03</pdfrwt>
<pdfrwt beam="2">  1       21 0.67367636E-01 0.42472720E+03</pdfrwt>
<totfact> 0.39732081E+03</totfact>
</mgrwt>
</event>
<event>
 4    1  0.4732450E-002  0.4407084E+03  0.7818608E-02  0.1030530E+00
         21   -1    0    0  503  502  0.00000000000E+00  0.00000000000E+00  0.41091399888E+03  0.41091399888E+03  0.00000000000E+00 0.  1.
         21   -1    0    0  501  503 -0.00000000000E+00 -0.00000000000E+00 -0.51082308276E+03  0.51082308276E+03  0.00000000000E+00 0. -1.
    9000007    1    1    2  501    0 -0.14826690827E+03  0.11063840527E+03  0.76009104302E+02  0.44721506766E+03  0.40000000000E+03 0. -1.
   -9000007    1    1    2    0  502  0.14826690827E+03 -0.11063840527E+03 -0.17591818818E+03  0.47452201397E+03  0.40000000000E+03 0. -1.
<mgrwt>
<rscale>  2 0.44070844E+03</rscale>
<asrwt>0</asrwt>
<pdfrwt beam="1">  1       21 0.63217538E-01 0.44070844E+03</pdfrwt>
<pdfrwt beam="2">  1       21 0.78588167E-01 0.44070844E+03</pdfrwt>
<totfact> 0.28936619E+03</totfact>
</mgrwt>
</event>
<event>
 4    1  0.4732450E-002  0.5144178E+03  0.7818608E-02  0.1010083E+00
         21   -1    0    0  501  502  0.00000000000E+00  0.00000000000E+00  0.99909643143E+03  0.99909643143E+03  0.00000000000E+00 0.  1.
         21   -1    0    0  502  503 -0.00000000000E+00 -0.00000000000E+00 -0.92224354633E+03  0.92224354633E+03  0.00000000000E+00 0.  1.
    9000007    1    1    2  501    0  0.31901917803E+03 -0.53408610052E+02  0.84949798082E+03  0.99311254900E+03  0.40000000000E+03 0.  1.
   -9000007    1    1    2    0  503 -0.31901917803E+03  0.53408610052E+02 -0.77264509571E+03  0.92822742876E+03  0.40000000000E+03 0.  1.
<mgrwt>
<rscale>  2 0.51441784E+03</rscale>
<asrwt>0</asrwt>
<pdfrwt beam="1">  1       21 0.15370714E+00 0.51441784E+03</pdfrwt>
<pdfrwt beam="2">  1       21 0.14188362E+00 0.51441784E+03</pdfrwt>
<totfact> 0.74469903E+01</totfact>
</mgrwt>
</event>
<event>
 4    1  0.4732450E-002  0.4122869E+03  0.7818608E-02  0.1039606E+00
         21   -1    0    0  501  502  0.00000000000E+00  0.00000000000E+00  0.76599697921E+03  0.76599697921E+03  0.00000000000E+00 0.  1.
         21   -1    0    0  502  503 -0.00000000000E+00 -0.00000000000E+00 -0.33442992602E+03  0.33442992602E+03  0.00000000000E+00 0.  1.
    9000007    1    1    2  501    0 -0.58833047802E+02 -0.80741309918E+02  0.53493595376E+03  0.67537912410E+03  0.40000000000E+03 0.  1.
   -9000007    1    1    2    0  503  0.58833047802E+02  0.80741309918E+02 -0.10336890057E+03  0.42504778113E+03  0.40000000000E+03 0.  1.
<mgrwt>
<rscale>  2 0.41228690E+03</rscale>
<asrwt>0</asrwt>
<pdfrwt beam="1">  1       21 0.11784569E+00 0.41228690E+03</pdfrwt>
<pdfrwt beam="2">  1       21 0.51450758E-01 0.41228690E+03</pdfrwt>
<totfact> 0.17272191E+03</totfact>
</mgrwt>
</event>
<event>
 4    1  0.4732450E-002  0.4611037E+03  0.7818608E-02  0.1024462E+00
         21   -1    0    0  501  502  0.00000000000E+00  0.00000000000E+00  0.23503962067E+03  0.23503962067E+03  0.00000000000E+00 0.  1.
         21   -1    0    0  502  503 -0.00000000000E+00 -0.00000000000E+00 -0.90711618220E+03  0.90711618220E+03  0.00000000000E+00 0.  1.
    9000007    1    1    2  501    0 -0.82701766154E+02 -0.21395570248E+03 -0.30595575662E+03  0.55337649910E+03  0.40000000000E+03 0.  1.
   -9000007    1    1    2    0  503  0.82701766154E+02  0.21395570248E+03 -0.36612080491E+03  0.58877930376E+03  0.40000000000E+03 0.  1.
<mgrwt>
<rscale>  2 0.46110370E+03</rscale>
<asrwt>0</asrwt>
<pdfrwt beam="1">  1       21 0.36159942E-01 0.46110370E+03</pdfrwt>
<pdfrwt beam="2">  1       21 0.13955634E+00 0.46110370E+03</pdfrwt>
<totfact> 0.22790251E+03</totfact>
</mgrwt>
</event>
<event>
 4    1  0.4732450E-002  0.4036261E+03  0.7818608E-02  0.1042531E+00
         21   -1    0    0  501  502  0.00000000000E+00  0.00000000000E+00  0.13749867826E+04  0.13749867826E+04  0.00000000000E+00 0. -1.
         21   -1    0    0  502  503 -0.00000000000E+00 -0.00000000000E+00 -0.12054813982E+03  0.12054813982E+03  0.00000000000E+00 0. -1.
    9000007    1    1    2  501    0 -0.53415125749E+02  0.78019825964E+01  0.72506626031E+03  0.82984042348E+03  0.40000000000E+03 0.  1.
   -9000007    1    1    2    0  503  0.53415125749E+02 -0.78019825964E+01  0.52937238244E+03  0.66569449891E+03  0.40000000000E+03 0.  1.
<mgrwt>
<rscale>  2 0.40362612E+03</rscale>
<asrwt>0</asrwt>
<pdfrwt beam="1">  1       21 0.21153642E+00 0.40362612E+03</pdfrwt>
<pdfrwt beam="2">  1       21 0.18545869E-01 0.40362612E+03</pdfrwt>
<totfact> 0.26057910E+03</totfact>
</mgrwt>
</event>
<event>
 4    1  0.4732450E-002  0.4368750E+03  0.7818608E-02  0.1031710E+00
         21   -1    0    0  503  502  0.00000000000E+00  0.00000000000E+00  0.20161134539E+03  0.20161134539E+03  0.00000000000E+00 0.  1.
         21   -1    0    0  501  503 -0.00000000000E+00 -0.00000000000E+00 -0.11278196414E+04  0.11278196414E+04  0.00000000000E+00 0.  1.
    9000007    1    1    2  501    0 -0.13129958546E+02 -0.17517818077E+03 -0.72950307028E+03  0.85031436562E+03  0.40000000000E+03 0.  1.
   -9000007    1    1    2    0  502  0.13129958546E+02  0.17517818077E+03 -0.19670522569E+03  0.47911662113E+03  0.40000000000E+03 0.  1.
<mgrwt>
<rscale>  2 0.43687503E+03</rscale>
<asrwt>0</asrwt>
<pdfrwt beam="1">  1       21 0.31017131E-01 0.43687503E+03</pdfrwt>
<pdfrwt beam="2">  1       21 0.17351071E+00 0.43687503E+03</pdfrwt>
<totfact> 0.17191418E+03</totfact>
</mgrwt>
</event>
<event>
 4    1  0.4732450E-002  0.4168398E+03  0.7818608E-02  0.1038100E+00
         21   -1    0    0  501  502  0.00000000000E+00  0.00000000000E+00  0.36369527289E+03  0.36369527289E+03  0.00000000000E+00 0. -1.
         21   -1    0    0  502  503 -0.00000000000E+00 -0.00000000000E+00 -0.48815833492E+03  0.48815833492E+03  0.00000000000E+00 0. -1.
    9000007    1    1    2  501    0 -0.10916972017E+03  0.42865006888E+02 -0.12442490232E+03  0.43501378476E+03  0.40000000000E+03 0. -1.
   -9000007    1    1    2    0  503  0.10916972017E+03 -0.42865006888E+02 -0.38159713548E-01  0.41683982304E+03  0.40000000000E+03 0. -1.
<mgrwt>
<rscale>  2 0.41683982E+03</rscale>
<asrwt>0</asrwt>
<pdfrwt beam="1">  1       21 0.55953119E-01 0.41683982E+03</pdfrwt>
<pdfrwt beam="2">  1       21 0.75101282E-01 0.41683982E+03</pdfrwt>
<totfact> 0.42287428E+03</totfact>
</mgrwt>
</event>
<event>
 4    1  0.4732450E-002  0.4710649E+03  0.7818608E-02  0.1021620E+00
         21   -1    0    0  503  502  0.00000000000E+00  0.00000000000E+00  0.37550243288E+03  0.37550243288E+03  0.00000000000E+00 0. -1.
         21   -1    0    0  501  503 -0.00000000000E+00 -0.00000000000E+00 -0.65643926618E+03  0.65643926618E+03  0.00000000000E+00 0. -1.
    9000007    1    1    2  501    0 -0.24244299155E+03 -0.55888713530E+02 -0.30344374822E+03  0.56033941570E+03  0.40000000000E+03 0. -1.
   -9000007    1    1    2    0  502  0.24244299155E+03  0.55888713530E+02  0.22506914919E+02  0.47160228336E+03  0.40000000000E+03 0. -1.
<mgrwt>
<rscale>  2 0.47106491E+03</rscale>
<asrwt>0</asrwt>
<pdfrwt beam="1">  1       21 0.57769606E-01 0.47106491E+03</pdfrwt>
<pdfrwt beam="2">  1       21 0.10099065E+00 0.47106491E+03</pdfrwt>
<totfact> 0.19271421E+03</totfact>
</mgrwt>
</event>
<event>
 4    1  0.4732450E-002  0.6950575E+03  0.7818608E-02  0.9725722E-01
         21   -1    0    0  503  502  0.00000000000E+00  0.00000000000E+00  0.70658250070E+03  0.70658250070E+03  0.00000000000E+00 0. -1.
         21   -1    0    0  501  503 -0.00000000000E+00 -0.00000000000E+00 -0.79701970214E+03  0.79701970214E+03  0.00000000000E+00 0.  1.
    9000007    1    1    2  501    0 -0.25528402280E+02 -0.56784961906E+03 -0.32867221203E+03  0.76884999327E+03  0.40000000000E+03 0.  1.
   -9000007    1    1    2    0  502  0.25528402280E+02  0.56784961906E+03  0.23823501060E+03  0.73475220957E+03  0.40000000000E+03 0. -1.
<mgrwt>
<rscale>  2 0.69505747E+03</rscale>
<asrwt>0</asrwt>
<pdfrwt beam="1">  1       21 0.10870500E+00 0.69505747E+03</pdfrwt>
<pdfrwt beam="2">  1       21 0.12261842E+00 0.69505747E+03</pdfrwt>
<totfact> 0.25244163E+02</totfact>
</mgrwt>
</event>
<event>
 4    1  0.4732450E-002  0.4741466E+03  0.7818608E-02  0.1020756E+00
         21   -1    0    0  501  502  0.00000000000E+00  0.00000000000E+00  0.45113147467E+03  0.45113147467E+03  0.00000000000E+00 0. -1.
         21   -1    0    0  502  503 -0.00000000000E+00 -0.00000000000E+00 -0.84278956430E+03  0.84278956430E+03  0.00000000000E+00 0. -1.
    9000007    1    1    2  501    0  0.25028998973E+03 -0.46582041547E+02 -0.60943203516E+03  0.77215436995E+03  0.40000000000E+03 0. -1.
   -9000007    1    1    2    0  503 -0.25028998973E+03  0.46582041547E+02  0.21777394552E+03  0.52176666902E+03  0.40000000000E+03 0. -1.
<mgrwt>
<rscale>  2 0.47414657E+03</rscale>
<asrwt>0</asrwt>
<pdfrwt beam="1">  1       21 0.69404842E-01 0.47414657E+03</pdfrwt>
<pdfrwt beam="2">  1       21 0.12965993E+00 0.47414657E+03</pdfrwt>
<totfact> 0.68395609E+02</totfact>
</mgrwt>
</event>
<event>
 4    1  0.4732450E-002  0.5178468E+03  0.7818608E-02  0.1009223E+00
         21   -1    0    0  503  502  0.00000000000E+00  0.00000000000E+00  0.40533164094E+03  0.40533164094E+03  0.00000000000E+00 0. -1.
         21   -1    0    0  501  503 -0.00000000000E+00 -0.00000000000E+00 -0.15844227860E+04  0.15844227860E+04  0.00000000000E+00 0. -1.
    9000007    1    1    2  501    0 -0.30493954885E+03  0.12319580954E+03 -0.13488121888E+04  0.14448043662E+04  0.40000000000E+03 0. -1.
   -9000007    1    1    2    0  502  0.30493954885E+03 -0.12319580954E+03  0.16972104379E+03  0.54495006069E+03  0.40000000000E+03 0. -1.
<mgrwt>
<rscale>  2 0.51784683E+03</rscale>
<asrwt>0</asrwt>
<pdfrwt beam="1">  1       21 0.62358714E-01 0.51784683E+03</pdfrwt>
<pdfrwt beam="2">  1       21 0.24375735E+00 0.51784683E+03</pdfrwt>
<totfact> 0.13170307E+02</totfact>
</mgrwt>
</event>
<event>
 4    1  0.4732450E-002  0.4015711E+03  0.7818608E-02  0.1043237E+00
         21   -1    0    0  503  502  0.00000000000E+00  0.00000000000E+00  0.16106962512E+03  0.16106962512E+03  0.00000000000E+00 0.  1.
         21   -1    0    0  501  503 -0.00000000000E+00 -0.00000000000E+00 -0.10360122733E+04  0.10360122733E+04  0.00000000000E+00 0.  1.
    9000007    1    1    2  501    0  0.32546492326E+02  0.14143857801E+02 -0.54722433178E+03  0.67875900891E+03  0.40000000000E+03 0. -1.
   -9000007    1    1    2    0  502 -0.32546492326E+02 -0.14143857801E+02 -0.32771831636E+03  0.51832288947E+03  0.40000000000E+03 0. -1.
<mgrwt>
<rscale>  2 0.40157107E+03</rscale>
<asrwt>0</asrwt>
<pdfrwt beam="1">  1       21 0.24779943E-01 0.40157107E+03</pdfrwt>
<pdfrwt beam="2">  1       21 0.15938650E+00 0.40157107E+03</pdfrwt>
<totfact> 0.34468315E+03</totfact>
</mgrwt>
</event>
<event>
 4    1  0.4732450E-002  0.6830466E+03  0.7818608E-02  0.9746672E-01
         21   -1    0    0  503  502  0.00000000000E+00  0.00000000000E+00  0.86355755013E+03  0.86355755013E+03  0.00000000000E+00 0.  1.
         21   -1    0    0  501  503 -0.00000000000E+00 -0.00000000000E+00 -0.56342758611E+03  0.56342758611E+03  0.00000000000E+00 0. -1.
    9000007    1    1    2  501    0 -0.14938673381E+03  0.53313807075E+03  0.29472044486E+03  0.74391715893E+03  0.40000000000E+03 0.  1.
   -9000007    1    1    2    0  502  0.14938673381E+03 -0.53313807075E+03  0.54095191557E+01  0.68306797731E+03  0.40000000000E+03 0. -1.
<mgrwt>
<rscale>  2 0.68304656E+03</rscale>
<asrwt>0</asrwt>
<pdfrwt beam="1">  1       21 0.13285501E+00 0.68304656E+03</pdfrwt>
<pdfrwt beam="2">  1       21 0.86681167E-01 0.68304656E+03</pdfrwt>
<totfact> 0.35683139E+02</totfact>
</mgrwt>
</event>
<event>
 4    1  0.4732450E-002  0.4193215E+03  0.7818608E-02  0.1037287E+00
         21   -1    0    0  503  502  0.00000000000E+00  0.00000000000E+00  0.16194183159E+03  0.16194183159E+03  0.00000000000E+00 0. -1.
         21   -1    0    0  501  503 -0.00000000000E+00 -0.00000000000E+00 -0.12558557268E+04  0.12558557268E+04  0.00000000000E+00 0. -1.
    9000007    1    1    2  501    0  0.41335336580E+02  0.11883578593E+03 -0.28606757045E+03  0.50760733735E+03  0.40000000000E+03 0. -1.
   -9000007    1    1    2    0  502 -0.41335336580E+02 -0.11883578593E+03 -0.80784632475E+03  0.91019022104E+03  0.40000000000E+03 0. -1.
<mgrwt>
<rscale>  2 0.41932154E+03</rscale>
<asrwt>0</asrwt>
<pdfrwt beam="1">  1       21 0.24914128E-01 0.41932154E+03</pdfrwt>
<pdfrwt beam="2">  1       21 0.19320858E+00 0.41932154E+03</pdfrwt>
<totfact> 0.19436824E+03</totfact>
</mgrwt>
</event>
<event>
 4    1  0.4732450E-002  0.5075098E+03  0.7818608E-02  0.1011837E+00
         21   -1    0    0  503  502  0.00000000000E+00  0.00000000000E+00  0.20437950980E+03  0.20437950980E+03  0.00000000000E+00 0. -1.
         21   -1    0    0  501  503 -0.00000000000E+00 -0.00000000000E+00 -0.15226942492E+04  0.15226942492E+04  0.00000000000E+00 0. -1.
    9000007    1    1    2  501    0 -0.13325915775E+03  0.28250336608E+03 -0.30064371091E+03  0.58987523755E+03  0.40000000000E+03 0. -1.
   -9000007    1    1    2    0  502  0.13325915775E+03 -0.28250336608E+03 -0.10176710285E+04  0.11371985215E+04  0.40000000000E+03 0. -1.
<mgrwt>
<rscale>  2 0.50750976E+03</rscale>
<asrwt>0</asrwt>
<pdfrwt beam="1">  1       21 0.31443002E-01 0.50750976E+03</pdfrwt>
<pdfrwt beam="2">  1       21 0.23426065E+00 0.50750976E+03</pdfrwt>
<totfact> 0.63879318E+02</totfact>
</mgrwt>
</event>
<event>
 4    1  0.4732450E-002  0.4435714E+03  0.7818608E-02  0.1029657E+00
         21   -1    0    0  501  502  0.00000000000E+00  0.00000000000E+00  0.10842242438E+04  0.10842242438E+04  0.00000000000E+00 0.  1.
         21   -1    0    0  502  503 -0.00000000000E+00 -0.00000000000E+00 -0.18646833365E+03  0.18646833365E+03  0.00000000000E+00 0.  1.
    9000007    1    1    2  501    0  0.45491441477E+02 -0.18624203645E+03  0.55288546907E+03  0.70882854718E+03  0.40000000000E+03 0.  1.
   -9000007    1    1    2    0  503 -0.45491441477E+02  0.18624203645E+03  0.34487044112E+03  0.56186403030E+03  0.40000000000E+03 0.  1.
<mgrwt>
<rscale>  2 0.44357138E+03</rscale>
<asrwt>0</asrwt>
<pdfrwt beam="1">  1       21 0.16680373E+00 0.44357138E+03</pdfrwt>
<pdfrwt beam="2">  1       21 0.28687437E-01 0.44357138E+03</pdfrwt>
<totfact> 0.22393169E+03</totfact>
</mgrwt>
</event>
<event>
 4    1  0.4732450E-002  0.4495811E+03  0.7818608E-02  0.1027847E+00
         21   -1    0    0  501  502  0.00000000000E+00  0.00000000000E+00  0.48303614938E+03  0.48303614938E+03  0.00000000000E+00 0. -1.
         21   -1    0    0  502  503 -0.00000000000E+00 -0.00000000000E+00 -0.84375808624E+03  0.84375808624E+03  0.00000000000E+00 0. -1.
    9000007    1    1    2  501    0  0.20386988792E+03 -0.23668548262E+02  0.29063800685E+03  0.53534435871E+03  0.40000000000E+03 0. -1.
   -9000007    1    1    2    0  503 -0.20386988792E+03  0.23668548262E+02 -0.65135994372E+03  0.79144987691E+03  0.40000000000E+03 0. -1.
<mgrwt>
<rscale>  2 0.44958106E+03</rscale>
<asrwt>0</asrwt>
<pdfrwt beam="1">  1       21 0.74313254E-01 0.44958106E+03</pdfrwt>
<pdfrwt beam="2">  1       21 0.12980894E+00 0.44958106E+03</pdfrwt>
<totfact> 0.59043465E+02</totfact>
</mgrwt>
</event>
<event>
 4    1  0.4732450E-002  0.4117299E+03  0.7818608E-02  0.1039792E+00
         21   -1    0    0  503  502  0.00000000000E+00  0.00000000000E+00  0.11259700685E+03  0.11259700685E+03  0.00000000000E+00 0.  1.
         21   -1    0    0  501  503 -0.00000000000E+00 -0.00000000000E+00 -0.16061157902E+04  0.16061157902E+04  0.00000000000E+00 0.  1.
    9000007    1    1    2  501    0 -0.93065767764E+02 -0.29330056278E+02 -0.96178470398E+03  0.10462080606E+04  0.40000000000E+03 0.  1.
   -9000007    1    1    2    0  502  0.93065767764E+02  0.29330056278E+02 -0.53173407939E+03  0.67250473643E+03  0.40000000000E+03 0.  1.
<mgrwt>
<rscale>  2 0.41172987E+03</rscale>
<asrwt>0</asrwt>
<pdfrwt beam="1">  1       21 0.17322617E-01 0.41172987E+03</pdfrwt>
<pdfrwt beam="2">  1       21 0.24709473E+00 0.41172987E+03</pdfrwt>
<totfact> 0.17640871E+03</totfact>
</mgrwt>
</event>
<event>
 4    1  0.4732450E-002  0.4065524E+03  0.7818608E-02  0.1041534E+00
         21   -1    0    0  501  502  0.00000000000E+00  0.00000000000E+00  0.11974941155E+03  0.11974941155E+03  0.00000000000E+00 0.  1.
         21   -1    0    0  502  503 -0.00000000000E+00 -0.00000000000E+00 -0.13835093146E+04  0.13835093146E+04  0.00000000000E+00 0.  1.
    9000007    1    1    2  501    0 -0.69596454760E+02 -0.21005416700E+02 -0.59543413271E+03  0.72099008345E+03  0.40000000000E+03 0. -1.
   -9000007    1    1    2    0  503  0.69596454760E+02  0.21005416700E+02 -0.66832577031E+03  0.78226864267E+03  0.40000000000E+03 0. -1.
<mgrwt>
<rscale>  2 0.40655245E+03</rscale>
<asrwt>0</asrwt>
<pdfrwt beam="1">  1       21 0.18422987E-01 0.40655245E+03</pdfrwt>
<pdfrwt beam="2">  1       21 0.21284759E+00 0.40655245E+03</pdfrwt>
<totfact> 0.25839453E+03</totfact>
</mgrwt>
</event>
<event>
 4    1  0.4732450E-002  0.4631343E+03  0.7818608E-02  0.1023876E+00
         21   -1    0    0  501  502  0.00000000000E+00  0.00000000000E+00  0.74896660081E+03  0.74896660081E+03  0.00000000000E+00 0. -1.
         21   -1    0    0  502  503 -0.00000000000E+00 -0.00000000000E+00 -0.51396586738E+03  0.51396586738E+03  0.00000000000E+00 0. -1.
    9000007    1    1    2  501    0 -0.22022573476E+03  0.77420691590E+02  0.53769469176E+03  0.70965408424E+03  0.40000000000E+03 0. -1.
   -9000007    1    1    2    0  503  0.22022573476E+03 -0.77420691590E+02 -0.30269395833E+03  0.55327838395E+03  0.40000000000E+03 0. -1.
<mgrwt>
<rscale>  2 0.46313425E+03</rscale>
<asrwt>0</asrwt>
<pdfrwt beam="1">  1       21 0.11522563E+00 0.46313425E+03</pdfrwt>
<pdfrwt beam="2">  1       21 0.79071672E-01 0.46313425E+03</pdfrwt>
<totfact> 0.69031460E+02</totfact>
</mgrwt>
</event>
<event>
 4    1  0.4732450E-002  0.4499732E+03  0.7818608E-02  0.1027730E+00
         21   -1    0    0  503  502  0.00000000000E+00  0.00000000000E+00  0.66818590614E+03  0.66818590614E+03  0.00000000000E+00 0.  1.
         21   -1    0    0  501  503 -0.00000000000E+00 -0.00000000000E+00 -0.32513632774E+03  0.32513632774E+03  0.00000000000E+00 0. -1.
    9000007    1    1    2  501    0  0.20584272233E+03 -0.10228988829E+02  0.42000236194E+02  0.45192906345E+03  0.40000000000E+03 0. -1.
   -9000007    1    1    2    0  502 -0.20584272233E+03  0.10228988829E+02  0.30104934220E+03  0.54139317043E+03  0.40000000000E+03 0.  1.
<mgrwt>
<rscale>  2 0.44997318E+03</rscale>
<asrwt>0</asrwt>
<pdfrwt beam="1">  1       21 0.10279783E+00 0.44997318E+03</pdfrwt>
<pdfrwt beam="2">  1       21 0.50020974E-01 0.44997318E+03</pdfrwt>
<totfact> 0.25353054E+03</totfact>
</mgrwt>
</event>
<event>
 4    1  0.4732450E-002  0.4163588E+03  0.7818608E-02  0.1038258E+00
         21   -1    0    0  501  502  0.00000000000E+00  0.00000000000E+00  0.14269144673E+04  0.14269144673E+04  0.00000000000E+00 0.  1.
         21   -1    0    0  502  503 -0.00000000000E+00 -0.00000000000E+00 -0.12810251276E+03  0.12810251276E+03  0.00000000000E+00 0.  1.
    9000007    1    1    2  501    0 -0.11447059577E+03  0.15846301435E+02  0.82606570714E+03  0.92506171420E+03  0.40000000000E+03 0.  1.
   -9000007    1    1    2    0  503  0.11447059577E+03 -0.15846301435E+02  0.47274624743E+03  0.62995526589E+03  0.40000000000E+03 0.  1.
<mgrwt>
<rscale>  2 0.41635877E+03</rscale>
<asrwt>0</asrwt>
<pdfrwt beam="1">  1       21 0.21952529E+00 0.41635877E+03</pdfrwt>
<pdfrwt beam="2">  1       21 0.19708080E-01 0.41635877E+03</pdfrwt>
<totfact> 0.20512543E+03</totfact>
</mgrwt>
</event>
<event>
 4    1  0.4732450E-002  0.5237831E+03  0.7818608E-02  0.1007751E+00
         21   -1    0    0  501  502  0.00000000000E+00  0.00000000000E+00  0.48897191662E+03  0.48897191662E+03  0.00000000000E+00 0.  1.
         21   -1    0    0  502  503 -0.00000000000E+00 -0.00000000000E+00 -0.63425682614E+03  0.63425682614E+03  0.00000000000E+00 0. -1.
    9000007    1    1    2  501    0  0.97606370106E+02 -0.32376192577E+03  0.11812931834E+03  0.53693884560E+03  0.40000000000E+03 0.  1.
   -9000007    1    1    2    0  503 -0.97606370106E+02  0.32376192577E+03 -0.26341422785E+03  0.58628989715E+03  0.40000000000E+03 0. -1.
<mgrwt>
<rscale>  2 0.52378315E+03</rscale>
<asrwt>0</asrwt>
<pdfrwt beam="1">  1       21 0.75226449E-01 0.52378315E+03</pdfrwt>
<pdfrwt beam="2">  1       21 0.97577972E-01 0.52378315E+03</pdfrwt>
<totfact> 0.11402534E+03</totfact>
</mgrwt>
</event>
<event>
 4    1  0.4732450E-002  0.4376235E+03  0.7818608E-02  0.1031478E+00
         21   -1    0    0  503  502  0.00000000000E+00  0.00000000000E+00  0.24315662686E+04  0.24315662686E+04  0.00000000000E+00 0. -1.
         21   -1    0    0  501  503 -0.00000000000E+00 -0.00000000000E+00 -0.87871538083E+02  0.87871538083E+02  0.00000000000E+00 0. -1.
    9000007    1    1    2  501    0 -0.17171069867E+03  0.45052667156E+02  0.76624103418E+03  0.88240559229E+03  0.40000000000E+03 0. -1.
   -9000007    1    1    2    0  502  0.17171069867E+03 -0.45052667156E+02  0.15774536964E+04  0.16370322144E+04  0.40000000000E+03 0. -1.
<mgrwt>
<rscale>  2 0.43762348E+03</rscale>
<asrwt>0</asrwt>
<pdfrwt beam="1">  1       21 0.37408707E+00 0.43762348E+03</pdfrwt>
<pdfrwt beam="2">  1       21 0.13518700E-01 0.43762348E+03</pdfrwt>
<totfact> 0.46705953E+02</totfact>
</mgrwt>
</event>
<event>
 4    1  0.4732450E-002  0.4575425E+03  0.7818608E-02  0.1025496E+00
         21   -1    0    0  503  502  0.00000000000E+00  0.00000000000E+00  0.21760738081E+04  0.21760738081E+04  0.00000000000E+00 0. -1.
         21   -1    0    0  501  503 -0.00000000000E+00 -0.00000000000E+00 -0.13761862758E+03  0.13761862758E+03  0.00000000000E+00 0.  1.
    9000007    1    1    2  501    0 -0.17964898982E+03 -0.13065760902E+03  0.38460091965E+03  0.59771484650E+03  0.40000000000E+03 0.  1.
   -9000007    1    1    2    0  502  0.17964898982E+03  0.13065760902E+03  0.16538542609E+04  0.17159775892E+04  0.40000000000E+03 0. -1.
<mgrwt>
<rscale>  2 0.45754253E+03</rscale>
<asrwt>0</asrwt>
<pdfrwt beam="1">  1       21 0.33478056E+00 0.45754253E+03</pdfrwt>
<pdfrwt beam="2">  1       21 0.21172098E-01 0.45754253E+03</pdfrwt>
<totfact> 0.34739603E+02</totfact>
</mgrwt>
</event>
<event>
 4    1  0.4732450E-002  0.4493318E+03  0.7818608E-02  0.1027921E+00
         21   -1    0    0  501  502  0.00000000000E+00  0.00000000000E+00  0.21442191067E+03  0.21442191067E+03  0.00000000000E+00 0. -1.
         21   -1    0    0  502  503 -0.00000000000E+00 -0.00000000000E+00 -0.10397033581E+04  0.10397033581E+04  0.00000000000E+00 0. -1.
    9000007    1    1    2  501    0 -0.20001742524E+03 -0.43498495883E+02 -0.22001949924E+03  0.50030757499E+03  0.40000000000E+03 0. -1.
   -9000007    1    1    2    0  503  0.20001742524E+03  0.43498495883E+02 -0.60526194823E+03  0.75381769382E+03  0.40000000000E+03 0. -1.
<mgrwt>
<rscale>  2 0.44933183E+03</rscale>
<asrwt>0</asrwt>
<pdfrwt beam="1">  1       21 0.32987986E-01 0.44933183E+03</pdfrwt>
<pdfrwt beam="2">  1       21 0.15995436E+00 0.44933183E+03</pdfrwt>
<totfact> 0.19024914E+03</totfact>
</mgrwt>
</event>
<event>
 4    1  0.4732450E-002  0.6524966E+03  0.7818608E-02  0.9802106E-01
         21   -1    0    0  503  502  0.00000000000E+00  0.00000000000E+00  0.19077718541E+03  0.19077718541E+03  0.00000000000E+00 0.  1.
         21   -1    0    0  501  503 -0.00000000000E+00 -0.00000000000E+00 -0.23214721065E+04  0.23214721065E+04  0.00000000000E+00 0. -1.
    9000007    1    1    2  501    0 -0.29813994707E+03 -0.42055253981E+03 -0.81829315851E+03  0.10465923562E+04  0.40000000000E+03 0.  1.
   -9000007    1    1    2    0  502  0.29813994707E+03  0.42055253981E+03 -0.13124017626E+04  0.14656569357E+04  0.40000000000E+03 0. -1.
<mgrwt>
<rscale>  2 0.65249664E+03</rscale>
<asrwt>0</asrwt>
<pdfrwt beam="1">  1       21 0.29350335E-01 0.65249664E+03</pdfrwt>
<pdfrwt beam="2">  1       21 0.35714957E+00 0.65249664E+03</pdfrwt>
<totfact> 0.12082909E+02</totfact>
</mgrwt>
</event>
<event>
 4    1  0.4732450E-002  0.5541983E+03  0.7818608E-02  0.1000527E+00
         21   -1    0    0  501  502  0.00000000000E+00  0.00000000000E+00  0.39208005875E+03  0.39208005875E+03  0.00000000000E+00 0.  1.
         21   -1    0    0  502  503 -0.00000000000E+00 -0.00000000000E+00 -0.97271645390E+03  0.97271645390E+03  0.00000000000E+00 0. -1.
    9000007    1    1    2  501    0 -0.42231451525E+02  0.38125096351E+03  0.10772026948E+02  0.55430301212E+03  0.40000000000E+03 0.  1.
   -9000007    1    1    2    0  503  0.42231451525E+02 -0.38125096351E+03 -0.59140842210E+03  0.81049350053E+03  0.40000000000E+03 0. -1.
<mgrwt>
<rscale>  2 0.55419833E+03</rscale>
<asrwt>0</asrwt>
<pdfrwt beam="1">  1       21 0.60320010E-01 0.55419833E+03</pdfrwt>
<pdfrwt beam="2">  1       21 0.14964868E+00 0.55419833E+03</pdfrwt>
<totfact> 0.61862345E+02</totfact>
</mgrwt>
</event>
<event>
 4    1  0.4732450E-002  0.4099946E+03  0.7818608E-02  0.1040373E+00
         21   -1    0    0  501  502  0.00000000000E+00  0.00000000000E+00  0.38789915362E+03  0.38789915362E+03  0.00000000000E+00 0.  1.
         21   -1    0    0  502  503 -0.00000000000E+00 -0.00000000000E+00 -0.56572601480E+03  0.56572601480E+03  0.00000000000E+00 0. -1.
    9000007    1    1    2  501    0  0.39181893637E+02 -0.80995870260E+02  0.14173557996E+03  0.43380240481E+03  0.40000000000E+03 0.  1.
   -9000007    1    1    2    0  503 -0.39181893637E+02  0.80995870260E+02 -0.31956244114E+03  0.51982276362E+03  0.40000000000E+03 0. -1.
<mgrwt>
<rscale>  2 0.40999458E+03</rscale>
<asrwt>0</asrwt>
<pdfrwt beam="1">  1       21 0.59676793E-01 0.40999458E+03</pdfrwt>
<pdfrwt beam="2">  1       21 0.87034771E-01 0.40999458E+03</pdfrwt>
<totfact> 0.26212762E+03</totfact>
</mgrwt>
</event>
<event>
 4    1  0.4732450E-002  0.4571209E+03  0.7818608E-02  0.1025620E+00
         21   -1    0    0  501  502  0.00000000000E+00  0.00000000000E+00  0.78395096030E+03  0.78395096030E+03  0.00000000000E+00 0.  1.
         21   -1    0    0  502  503 -0.00000000000E+00 -0.00000000000E+00 -0.29308955632E+03  0.29308955632E+03  0.00000000000E+00 0.  1.
    9000007    1    1    2  501    0  0.19338908843E+03 -0.10751825689E+03  0.40749075503E+03  0.61237915585E+03  0.40000000000E+03 0.  1.
   -9000007    1    1    2    0  503 -0.19338908843E+03  0.10751825689E+03  0.83370648953E+02  0.46466136077E+03  0.40000000000E+03 0.  1.
<mgrwt>
<rscale>  2 0.45712090E+03</rscale>
<asrwt>0</asrwt>
<pdfrwt beam="1">  1       21 0.12060784E+00 0.45712090E+03</pdfrwt>
<pdfrwt beam="2">  1       21 0.45090701E-01 0.45712090E+03</pdfrwt>
<totfact> 0.21145177E+03</totfact>
</mgrwt>
</event>
<event>
 4    1  0.4732450E-002  0.5449365E+03  0.7818608E-02  0.1002673E+00
         21   -1    0    0  501  502  0.00000000000E+00  0.00000000000E+00  0.15604191431E+04  0.15604191431E+04  0.00000000000E+00 0. -1.
         21   -1    0    0  502  503 -0.00000000000E+00 -0.00000000000E+00 -0.64674142767E+03  0.64674142767E+03  0.00000000000E+00 0. -1.
    9000007    1    1    2  501    0 -0.35769686065E+03 -0.94914594569E+02  0.13839433016E+04  0.14873650818E+04  0.40000000000E+03 0. -1.
   -9000007    1    1    2    0  503  0.35769686065E+03  0.94914594569E+02 -0.47026558621E+03  0.71979548898E+03  0.40000000000E+03 0. -1.
<mgrwt>
<rscale>  2 0.54493653E+03</rscale>
<asrwt>0</asrwt>
<pdfrwt beam="1">  1       21 0.24006448E+00 0.54493653E+03</pdfrwt>
<pdfrwt beam="2">  1       21 0.99498681E-01 0.54493653E+03</pdfrwt>
<totfact> 0.46411612E+01</totfact>
</mgrwt>
</event>
<event>
 4    1  0.4732450E-002  0.4697397E+03  0.7818608E-02  0.1021994E+00
         21   -1    0    0  503  502  0.00000000000E+00  0.00000000000E+00  0.17269702331E+04  0.17269702331E+04  0.00000000000E+00 0. -1.
         21   -1    0    0  501  503 -0.00000000000E+00 -0.00000000000E+00 -0.34729910149E+03  0.34729910149E+03  0.00000000000E+00 0. -1.
    9000007    1    1    2  501    0 -0.18645055120E+03 -0.16090849613E+03 -0.13473753277E+03  0.48868144522E+03  0.40000000000E+03 0. -1.
   -9000007    1    1    2    0  502  0.18645055120E+03  0.16090849613E+03  0.15144086644E+04  0.15855878894E+04  0.40000000000E+03 0. -1.
<mgrwt>
<rscale>  2 0.46973966E+03</rscale>
<asrwt>0</asrwt>
<pdfrwt beam="1">  1       21 0.26568772E+00 0.46973966E+03</pdfrwt>
<pdfrwt beam="2">  1       21 0.53430632E-01 0.46973966E+03</pdfrwt>
<totfact> 0.13883813E+02</totfact>
</mgrwt>
</event>
<event>
 4    1  0.4732450E-002  0.4138556E+03  0.7818608E-02  0.1039085E+00
         21   -1    0    0  501  502  0.00000000000E+00  0.00000000000E+00  0.13359359734E+03  0.13359359734E+03  0.00000000000E+00 0.  1.
         21   -1    0    0  502  503 -0.00000000000E+00 -0.00000000000E+00 -0.15429458618E+04  0.15429458618E+04  0.00000000000E+00 0.  1.
    9000007    1    1    2  501    0  0.90121958328E+02 -0.56165052491E+02 -0.35998942630E+03  0.54851514796E+03  0.40000000000E+03 0.  1.
   -9000007    1    1    2    0  503 -0.90121958328E+02  0.56165052491E+02 -0.10493628382E+04  0.11280243112E+04  0.40000000000E+03 0.  1.
<mgrwt>
<rscale>  2 0.41385563E+03</rscale>
<asrwt>0</asrwt>
<pdfrwt beam="1">  1       21 0.20552860E-01 0.41385563E+03</pdfrwt>
<pdfrwt beam="2">  1       21 0.23737630E+00 0.41385563E+03</pdfrwt>
<totfact> 0.14644273E+03</totfact>
</mgrwt>
</event>
<event>
 4    1  0.4732450E-002  0.5462670E+03  0.7818608E-02  0.1002362E+00
         21   -1    0    0  503  502  0.00000000000E+00  0.00000000000E+00  0.30077781431E+03  0.30077781431E+03  0.00000000000E+00 0.  1.
         21   -1    0    0  501  503 -0.00000000000E+00 -0.00000000000E+00 -0.15212234299E+04  0.15212234299E+04  0.00000000000E+00 0. -1.
    9000007    1    1    2  501    0  0.32555147691E+03 -0.18006643606E+03 -0.11474926438E+04  0.12708843586E+04  0.40000000000E+03 0. -1.
   -9000007    1    1    2    0  502 -0.32555147691E+03  0.18006643606E+03 -0.72952971878E+02  0.55111688563E+03  0.40000000000E+03 0.  1.
<mgrwt>
<rscale>  2 0.54626705E+03</rscale>
<asrwt>0</asrwt>
<pdfrwt beam="1">  1       21 0.46273509E-01 0.54626705E+03</pdfrwt>
<pdfrwt beam="2">  1       21 0.23403438E+00 0.54626705E+03</pdfrwt>
<totfact> 0.28483848E+02</totfact>
</mgrwt>
</event>
<event>
 4    1  0.4732450E-002  0.7087770E+03  0.7818608E-02  0.9702339E-01
         21   -1    0    0  503  502  0.00000000000E+00  0.00000000000E+00  0.12970558496E+04  0.12970558496E+04  0.00000000000E+00 0.  1.
         21   -1    0    0  501  503 -0.00000000000E+00 -0.00000000000E+00 -0.41849913264E+03  0.41849913264E+03  0.00000000000E+00 0. -1.
    9000007    1    1    2  501    0  0.15221988308E+03  0.56497249961E+03  0.67344102201E+03  0.97769505893E+03  0.40000000000E+03 0.  1.
   -9000007    1    1    2    0  502 -0.15221988308E+03 -0.56497249961E+03  0.20511569493E+03  0.73785992331E+03  0.40000000000E+03 0. -1.
<mgrwt>
<rscale>  2 0.70877699E+03</rscale>
<asrwt>0</asrwt>
<pdfrwt beam="1">  1       21 0.19954705E+00 0.70877699E+03</pdfrwt>
<pdfrwt beam="2">  1       21 0.64384483E-01 0.70877699E+03</pdfrwt>
<totfact> 0.21957849E+02</totfact>
</mgrwt>
</event>
<event>
 4    1  0.4732450E-002  0.4743363E+03  0.7818608E-02  0.1020703E+00
         21   -1    0    0  503  502  0.00000000000E+00  0.00000000000E+00  0.59667975559E+03  0.59667975559E+03  0.00000000000E+00 0.  1.
         21   -1    0    0  501  503 -0.00000000000E+00 -0.00000000000E+00 -0.38893936718E+03  0.38893936718E+03  0.00000000000E+00 0.  1.
    9000007    1    1    2  501    0  0.56487697647E+02  0.24860429514E+03  0.17810252287E+02  0.47467058117E+03  0.40000000000E+03 0.  1.
   -9000007    1    1    2    0  502 -0.56487697647E+02 -0.24860429514E+03  0.18993013613E+03  0.51094854159E+03  0.40000000000E+03 0.  1.
<mgrwt>
<rscale>  2 0.47433633E+03</rscale>
<asrwt>0</asrwt>
<pdfrwt beam="1">  1       21 0.91796885E-01 0.47433633E+03</pdfrwt>
<pdfrwt beam="2">  1       21 0.59836826E-01 0.47433633E+03</pdfrwt>
<totfact> 0.22431570E+03</totfact>
</mgrwt>
</event>
<event>
 4    1  0.4732450E-002  0.5025242E+03  0.7818608E-02  0.1013122E+00
         21   -1    0    0  501  502  0.00000000000E+00  0.00000000000E+00  0.23173688577E+03  0.23173688577E+03  0.00000000000E+00 0.  1.
         21   -1    0    0  502  503 -0.00000000000E+00 -0.00000000000E+00 -0.12722799195E+04  0.12722799195E+04  0.00000000000E+00 0. -1.
    9000007    1    1    2  501    0  0.29501869553E+03 -0.74125130535E+02 -0.80512566184E+03  0.94908266081E+03  0.40000000000E+03 0.  1.
   -9000007    1    1    2    0  503 -0.29501869553E+03  0.74125130535E+02 -0.23541737186E+03  0.55493414444E+03  0.40000000000E+03 0.  1.
<mgrwt>
<rscale>  2 0.50252419E+03</rscale>
<asrwt>0</asrwt>
<pdfrwt beam="1">  1       21 0.35651828E-01 0.50252419E+03</pdfrwt>
<pdfrwt beam="2">  1       21 0.19573537E+00 0.50252419E+03</pdfrwt>
<totfact> 0.88443672E+02</totfact>
</mgrwt>
</event>
<event>
 4    1  0.4732450E-002  0.4886267E+03  0.7818608E-02  0.1016791E+00
         21   -1    0    0  501  502  0.00000000000E+00  0.00000000000E+00  0.14508355731E+04  0.14508355731E+04  0.00000000000E+00 0. -1.
         21   -1    0    0  502  503 -0.00000000000E+00 -0.00000000000E+00 -0.16694728565E+03  0.16694728565E+03  0.00000000000E+00 0. -1.
    9000007    1    1    2  501    0  0.26800409270E+03 -0.83245601852E+02  0.73858114933E+03  0.88558350147E+03  0.40000000000E+03 0. -1.
   -9000007    1    1    2    0  503 -0.26800409270E+03  0.83245601852E+02  0.54530713814E+03  0.73219935730E+03  0.40000000000E+03 0. -1.
<mgrwt>
<rscale>  2 0.48862667E+03</rscale>
<asrwt>0</asrwt>
<pdfrwt beam="1">  1       21 0.22320546E+00 0.48862667E+03</pdfrwt>
<pdfrwt beam="2">  1       21 0.25684199E-01 0.48862667E+03</pdfrwt>
<totfact> 0.11292302E+03</totfact>
</mgrwt>
</event>
<event>
 4    1  0.4732450E-002  0.4709899E+03  0.7818608E-02  0.1021641E+00
         21   -1    0    0  503  502  0.00000000000E+00  0.00000000000E+00  0.60602650247E+03  0.60602650247E+03  0.00000000000E+00 0.  1.
         21   -1    0    0  501  503 -0.00000000000E+00 -0.00000000000E+00 -0.61999214294E+03  0.61999214294E+03  0.00000000000E+00 0.  1.
    9000007    1    1    2  501    0  0.26099778242E+02 -0.24728578821E+03 -0.39930944760E+03  0.61747833518E+03  0.40000000000E+03 0. -1.
   -9000007    1    1    2    0  502 -0.26099778242E+02  0.24728578821E+03  0.38534380713E+03  0.60854031022E+03  0.40000000000E+03 0. -1.
<mgrwt>
<rscale>  2 0.47098987E+03</rscale>
<asrwt>0</asrwt>
<pdfrwt beam="1">  1       21 0.93234846E-01 0.47098987E+03</pdfrwt>
<pdfrwt beam="2">  1       21 0.95383407E-01 0.47098987E+03</pdfrwt>
<totfact> 0.74374098E+02</totfact>
</mgrwt>
</event>
<event>
 4    1  0.4732450E-002  0.5957956E+03  0.7818608E-02  0.9914167E-01
         21   -1    0    0  501  502  0.00000000000E+00  0.00000000000E+00  0.14623261358E+03  0.14623261358E+03  0.00000000000E+00 0.  1.
         21   -1    0    0  502  503 -0.00000000000E+00 -0.00000000000E+00 -0.29982308174E+04  0.29982308174E+04  0.00000000000E+00 0.  1.
    9000007    1    1    2  501    0 -0.36599065116E+03 -0.24702878273E+03 -0.74000772342E+03  0.95004410790E+03  0.40000000000E+03 0.  1.
   -9000007    1    1    2    0  503  0.36599065116E+03  0.24702878273E+03 -0.21119904804E+04  0.21944193231E+04  0.40000000000E+03 0.  1.
<mgrwt>
<rscale>  2 0.59579558E+03</rscale>
<asrwt>0</asrwt>
<pdfrwt beam="1">  1       21 0.22497327E-01 0.59579558E+03</pdfrwt>
<pdfrwt beam="2">  1       21 0.46126625E+00 0.59579558E+03</pdfrwt>
<totfact> 0.43580588E+01</totfact>
</mgrwt>
</event>
<event>
 4    1  0.4732450E-002  0.4830381E+03  0.7818608E-02  0.1018304E+00
         21   -1    0    0  501  502  0.00000000000E+00  0.00000000000E+00  0.17544492667E+03  0.17544492667E+03  0.00000000000E+00 0.  1.
         21   -1    0    0  502  503 -0.00000000000E+00 -0.00000000000E+00 -0.13902387159E+04  0.13902387159E+04  0.00000000000E+00 0.  1.
    9000007    1    1    2  501    0  0.18309065653E+03 -0.19950838319E+03 -0.44431902047E+03  0.65631179741E+03  0.40000000000E+03 0.  1.
   -9000007    1    1    2    0  503 -0.18309065653E+03  0.19950838319E+03 -0.77047476872E+03  0.90937184512E+03  0.40000000000E+03 0.  1.
<mgrwt>
<rscale>  2 0.48303808E+03</rscale>
<asrwt>0</asrwt>
<pdfrwt beam="1">  1       21 0.26991527E-01 0.48303808E+03</pdfrwt>
<pdfrwt beam="2">  1       21 0.21388288E+00 0.48303808E+03</pdfrwt>
<totfact> 0.11792062E+03</totfact>
</mgrwt>
</event>
<event>
 4    1  0.4732450E-002  0.4090104E+03  0.7818608E-02  0.1040704E+00
         21   -1    0    0  501  502  0.00000000000E+00  0.00000000000E+00  0.12304286394E+04  0.12304286394E+04  0.00000000000E+00 0. -1.
         21   -1    0    0  502  503 -0.00000000000E+00 -0.00000000000E+00 -0.13752584325E+03  0.13752584325E+03  0.00000000000E+00 0. -1.
    9000007    1    1    2  501    0 -0.71061471557E+02 -0.47326338459E+02  0.47347635677E+03  0.62567513573E+03  0.40000000000E+03 0. -1.
   -9000007    1    1    2    0  503  0.71061471557E+02  0.47326338459E+02  0.61942643938E+03  0.74227934691E+03  0.40000000000E+03 0. -1.
<mgrwt>
<rscale>  2 0.40901041E+03</rscale>
<asrwt>0</asrwt>
<pdfrwt beam="1">  1       21 0.18929671E+00 0.40901041E+03</pdfrwt>
<pdfrwt beam="2">  1       21 0.21157823E-01 0.40901041E+03</pdfrwt>
<totfact> 0.28437611E+03</totfact>
</mgrwt>
</event>
<event>
 4    1  0.4732450E-002  0.6002060E+03  0.7818608E-02  0.9904979E-01
         21   -1    0    0  503  502  0.00000000000E+00  0.00000000000E+00  0.19707024325E+04  0.19707024325E+04  0.00000000000E+00 0.  1.
         21   -1    0    0  501  503 -0.00000000000E+00 -0.00000000000E+00 -0.22999345528E+03  0.22999345528E+03  0.00000000000E+00 0. -1.
    9000007    1    1    2  501    0 -0.43140193079E+03 -0.11891022009E+03  0.37192181528E+03  0.70609709177E+03  0.40000000000E+03 0. -1.
   -9000007    1    1    2    0  502  0.43140193079E+03  0.11891022009E+03  0.13687871620E+04  0.14945987960E+04  0.40000000000E+03 0.  1.
<mgrwt>
<rscale>  2 0.60020602E+03</rscale>
<asrwt>0</asrwt>
<pdfrwt beam="1">  1       21 0.30318498E+00 0.60020602E+03</pdfrwt>
<pdfrwt beam="2">  1       21 0.35383610E-01 0.60020602E+03</pdfrwt>
<totfact> 0.18219532E+02</totfact>
</mgrwt>
</event>
<event>
 4    1  0.4732450E-002  0.4849931E+03  0.7818608E-02  0.1017772E+00
         21   -1    0    0  501  502  0.00000000000E+00  0.00000000000E+00  0.13909056667E+04  0.13909056667E+04  0.00000000000E+00 0.  1.
         21   -1    0    0  502  503 -0.00000000000E+00 -0.00000000000E+00 -0.16911272962E+03  0.16911272962E+03  0.00000000000E+00 0.  1.
    9000007    1    1    2  501    0  0.24249294059E+03  0.12812275589E+03  0.60887032804E+03  0.77842234242E+03  0.40000000000E+03 0. -1.
   -9000007    1    1    2    0  503 -0.24249294059E+03 -0.12812275589E+03  0.61292260905E+03  0.78159605392E+03  0.40000000000E+03 0. -1.
<mgrwt>
<rscale>  2 0.48499306E+03</rscale>
<asrwt>0</asrwt>
<pdfrwt beam="1">  1       21 0.21398548E+00 0.48499306E+03</pdfrwt>
<pdfrwt beam="2">  1       21 0.26017344E-01 0.48499306E+03</pdfrwt>
<totfact> 0.12643270E+03</totfact>
</mgrwt>
</event>
<event>
 4    1  0.4732450E-002  0.4701996E+03  0.7818608E-02  0.1021864E+00
         21   -1    0    0  503  502  0.00000000000E+00  0.00000000000E+00  0.70775908107E+03  0.70775908107E+03  0.00000000000E+00 0. -1.
         21   -1    0    0  501  503 -0.00000000000E+00 -0.00000000000E+00 -0.45268543967E+03  0.45268543967E+03  0.00000000000E+00 0. -1.
    9000007    1    1    2  501    0 -0.14895221853E+03 -0.19723301809E+03 -0.19548963354E+03  0.50921883670E+03  0.40000000000E+03 0. -1.
   -9000007    1    1    2    0  502  0.14895221853E+03  0.19723301809E+03  0.45056327494E+03  0.65122568404E+03  0.40000000000E+03 0. -1.
<mgrwt>
<rscale>  2 0.47019956E+03</rscale>
<asrwt>0</asrwt>
<pdfrwt beam="1">  1       21 0.10888601E+00 0.47019956E+03</pdfrwt>
<pdfrwt beam="2">  1       21 0.69643914E-01 0.47019956E+03</pdfrwt>
<totfact> 0.10584642E+03</totfact>
</mgrwt>
</event>
<event>
 4    1  0.4732450E-002  0.4303460E+03  0.7818608E-02  0.1033751E+00
         21   -1    0    0  503  502  0.00000000000E+00  0.00000000000E+00  0.22182521294E+03  0.22182521294E+03  0.00000000000E+00 0. -1.
         21   -1    0    0  501  503 -0.00000000000E+00 -0.00000000000E+00 -0.85623607575E+03  0.85623607575E+03  0.00000000000E+00 0.  1.
    9000007    1    1    2  501    0  0.14377308633E+03  0.67282974129E+02 -0.40233202707E+03  0.58912541871E+03  0.40000000000E+03 0.  1.
   -9000007    1    1    2    0  502 -0.14377308633E+03 -0.67282974129E+02 -0.23207883574E+03  0.48893586998E+03  0.40000000000E+03 0. -1.
<mgrwt>
<rscale>  2 0.43034602E+03</rscale>
<asrwt>0</asrwt>
<pdfrwt beam="1">  1       21 0.34126956E-01 0.43034602E+03</pdfrwt>
<pdfrwt beam="2">  1       21 0.13172863E+00 0.43034602E+03</pdfrwt>
<totfact> 0.30168055E+03</totfact>
</mgrwt>
</event>
<event>
 4    1  0.4732450E-002  0.5052061E+03  0.7818608E-02  0.1012429E+00
         21   -1    0    0  503  502  0.00000000000E+00  0.00000000000E+00  0.86648738590E+02  0.86648738590E+02  0.00000000000E+00 0.  1.
         21   -1    0    0  501  503 -0.00000000000E+00 -0.00000000000E+00 -0.29523520150E+04  0.29523520150E+04  0.00000000000E+00 0.  1.
    9000007    1    1    2  501    0 -0.21875969114E+03 -0.21766350238E+03 -0.15054758652E+04  0.15879832441E+04  0.40000000000E+03 0.  1.
   -9000007    1    1    2    0  502  0.21875969114E+03  0.21766350238E+03 -0.13602274112E+04  0.14510175095E+04  0.40000000000E+03 0.  1.
<mgrwt>
<rscale>  2 0.50520610E+03</rscale>
<asrwt>0</asrwt>
<pdfrwt beam="1">  1       21 0.13330578E-01 0.50520610E+03</pdfrwt>
<pdfrwt beam="2">  1       21 0.45420792E+00 0.50520610E+03</pdfrwt>
<totfact> 0.13779655E+02</totfact>
</mgrwt>
</event>
<event>
 4    1  0.4732450E-002  0.1219971E+04  0.7818608E-02  0.9095553E-01
         21   -1    0    0  501  502  0.00000000000E+00  0.00000000000E+00  0.12772048609E+04  0.12772048609E+04  0.00000000000E+00 0.  1.
         21   -1    0    0  502  503 -0.00000000000E+00 -0.00000000000E+00 -0.19433941149E+04  0.19433941149E+04  0.00000000000E+00 0. -1.
    9000007    1    1    2  501    0  0.28289729750E+03  0.11172730860E+04  0.68582887156E+03  0.13995325186E+04  0.40000000000E+03 0.  1.
   -9000007    1    1    2    0  503 -0.28289729750E+03 -0.11172730860E+04 -0.13520181255E+04  0.18210664571E+04  0.40000000000E+03 0. -1.
<mgrwt>
<rscale>  2 0.12199713E+04</rscale>
<asrwt>0</asrwt>
<pdfrwt beam="1">  1       21 0.19649306E+00 0.12199713E+04</pdfrwt>
<pdfrwt beam="2">  1       21 0.29898371E+00 0.12199713E+04</pdfrwt>
<totfact> 0.24060632E+00</totfact>
</mgrwt>
</event>
<event>
 4    1  0.4732450E-002  0.4003508E+03  0.7818608E-02  0.1043658E+00
         21   -1    0    0  503  502  0.00000000000E+00  0.00000000000E+00  0.55217905192E+03  0.55217905192E+03  0.00000000000E+00 0. -1.
         21   -1    0    0  501  503 -0.00000000000E+00 -0.00000000000E+00 -0.29379918698E+03  0.29379918698E+03  0.00000000000E+00 0. -1.
    9000007    1    1    2  501    0  0.15384884016E+02 -0.66362297949E+01  0.82826845529E+02  0.40882884015E+03  0.40000000000E+03 0. -1.
   -9000007    1    1    2    0  502 -0.15384884016E+02  0.66362297949E+01  0.17555301941E+03  0.43714939875E+03  0.40000000000E+03 0. -1.
<mgrwt>
<rscale>  2 0.40035076E+03</rscale>
<asrwt>0</asrwt>
<pdfrwt beam="1">  1       21 0.84950623E-01 0.40035076E+03</pdfrwt>
<pdfrwt beam="2">  1       21 0.45199875E-01 0.40035076E+03</pdfrwt>
<totfact> 0.50406346E+03</totfact>
</mgrwt>
</event>
<event>
 4    1  0.4732450E-002  0.7985918E+03  0.7818608E-02  0.9562058E-01
         21   -1    0    0  501  502  0.00000000000E+00  0.00000000000E+00  0.13216321435E+04  0.13216321435E+04  0.00000000000E+00 0.  1.
         21   -1    0    0  502  503 -0.00000000000E+00 -0.00000000000E+00 -0.77879329883E+03  0.77879329883E+03  0.00000000000E+00 0. -1.
    9000007    1    1    2  501    0 -0.28669005829E+03  0.62893373597E+03 -0.37630918375E+03  0.88281223119E+03  0.40000000000E+03 0. -1.
   -9000007    1    1    2    0  503  0.28669005829E+03 -0.62893373597E+03  0.91914802841E+03  0.12176132111E+04  0.40000000000E+03 0.  1.
<mgrwt>
<rscale>  2 0.79859178E+03</rscale>
<asrwt>0</asrwt>
<pdfrwt beam="1">  1       21 0.20332802E+00 0.79859178E+03</pdfrwt>
<pdfrwt beam="2">  1       21 0.11981435E+00 0.79859178E+03</pdfrwt>
<totfact> 0.45469856E+01</totfact>
</mgrwt>
</event>
<event>
 4    1  0.4732450E-002  0.4192006E+03  0.7818608E-02  0.1037327E+00
         21   -1    0    0  503  502  0.00000000000E+00  0.00000000000E+00  0.18096708378E+03  0.18096708378E+03  0.00000000000E+00 0. -1.
         21   -1    0    0  501  503 -0.00000000000E+00 -0.00000000000E+00 -0.15022477246E+04  0.15022477246E+04  0.00000000000E+00 0. -1.
    9000007    1    1    2  501    0  0.44003815163E+02  0.11744267982E+03 -0.11610947549E+04  0.12344513553E+04  0.40000000000E+03 0. -1.
   -9000007    1    1    2    0  502 -0.44003815163E+02 -0.11744267982E+03 -0.16018588599E+03  0.44876345313E+03  0.40000000000E+03 0. -1.
<mgrwt>
<rscale>  2 0.41920057E+03</rscale>
<asrwt>0</asrwt>
<pdfrwt beam="1">  1       21 0.27841090E-01 0.41920057E+03</pdfrwt>
<pdfrwt beam="2">  1       21 0.23111504E+00 0.41920057E+03</pdfrwt>
<totfact> 0.88822308E+02</totfact>
</mgrwt>
</event>
<event>
 4    1  0.4732450E-002  0.4732876E+03  0.7818608E-02  0.1020996E+00
         21   -1    0    0  503  502  0.00000000000E+00  0.00000000000E+00  0.16341952704E+04  0.16341952704E+04  0.00000000000E+00 0. -1.
         21   -1    0    0  501  503 -0.00000000000E+00 -0.00000000000E+00 -0.21760974316E+03  0.21760974316E+03  0.00000000000E+00 0.  1.
    9000007    1    1    2  501    0  0.24685421607E+03 -0.55354917736E+02  0.14500817312E+03  0.49500357694E+03  0.40000000000E+03 0.  1.
   -9000007    1    1    2    0  502 -0.24685421607E+03  0.55354917736E+02  0.12715773541E+04  0.13568014366E+04  0.40000000000E+03 0. -1.
<mgrwt>
<rscale>  2 0.47328762E+03</rscale>
<asrwt>0</asrwt>
<pdfrwt beam="1">  1       21 0.25141465E+00 0.47328762E+03</pdfrwt>
<pdfrwt beam="2">  1       21 0.33478423E-01 0.47328762E+03</pdfrwt>
<totfact> 0.44783615E+02</totfact>
</mgrwt>
</event>
<event>
 4    1  0.4732450E-002  0.4958431E+03  0.7818608E-02  0.1014870E+00
         21   -1    0    0  501  502  0.00000000000E+00  0.00000000000E+00  0.14819378603E+04  0.14819378603E+04  0.00000000000E+00 0. -1.
         21   -1    0    0  502  503 -0.00000000000E+00 -0.00000000000E+00 -0.24011077508E+03  0.24011077508E+03  0.00000000000E+00 0.  1.
    9000007    1    1    2  501    0 -0.31229965310E+01  0.29300272402E+03  0.10995761850E+04  0.12062040192E+04  0.40000000000E+03 0.  1.
   -9000007    1    1    2    0  503  0.31229965310E+01 -0.29300272402E+03  0.14225090021E+03  0.51584461614E+03  0.40000000000E+03 0. -1.
<mgrwt>
<rscale>  2 0.49584307E+03</rscale>
<asrwt>0</asrwt>
<pdfrwt beam="1">  1       21 0.22799044E+00 0.49584307E+03</pdfrwt>
<pdfrwt beam="2">  1       21 0.36940120E-01 0.49584307E+03</pdfrwt>
<totfact> 0.50784288E+02</totfact>
</mgrwt>
</event>
<event>
 4    1  0.4732450E-002  0.4612954E+03  0.7818608E-02  0.1024406E+00
         21   -1    0    0  503  502  0.00000000000E+00  0.00000000000E+00  0.43701998760E+03  0.43701998760E+03  0.00000000000E+00 0.  1.
         21   -1    0    0  501  503 -0.00000000000E+00 -0.00000000000E+00 -0.56264898682E+03  0.56264898682E+03  0.00000000000E+00 0. -1.
    9000007    1    1    2  501    0  0.11701911299E+03  0.19773715831E+03  0.12056069701E+03  0.47678961633E+03  0.40000000000E+03 0.  1.
   -9000007    1    1    2    0  502 -0.11701911299E+03 -0.19773715831E+03 -0.24618969623E+03  0.52287935809E+03  0.40000000000E+03 0. -1.
<mgrwt>
<rscale>  2 0.46129541E+03</rscale>
<asrwt>0</asrwt>
<pdfrwt beam="1">  1       21 0.67233844E-01 0.46129541E+03</pdfrwt>
<pdfrwt beam="2">  1       21 0.86561383E-01 0.46129541E+03</pdfrwt>
<totfact> 0.20004291E+03</totfact>
</mgrwt>
</event>
<event>
 4    1  0.4732450E-002  0.4179744E+03  0.7818608E-02  0.1037728E+00
         21   -1    0    0  503  502  0.00000000000E+00  0.00000000000E+00  0.14757588479E+04  0.14757588479E+04  0.00000000000E+00 0.  1.
         21   -1    0    0  501  503 -0.00000000000E+00 -0.00000000000E+00 -0.12143254799E+03  0.12143254799E+03  0.00000000000E+00 0.  1.
    9000007    1    1    2  501    0  0.72516658364E+02  0.97179902169E+02  0.55057840458E+03  0.69125912559E+03  0.40000000000E+03 0.  1.
   -9000007    1    1    2    0  502 -0.72516658364E+02 -0.97179902169E+02  0.80374789530E+03  0.90593227028E+03  0.40000000000E+03 0.  1.
<mgrwt>
<rscale>  2 0.41797440E+03</rscale>
<asrwt>0</asrwt>
<pdfrwt beam="1">  1       21 0.22703981E+00 0.41797440E+03</pdfrwt>
<pdfrwt beam="2">  1       21 0.18681932E-01 0.41797440E+03</pdfrwt>
<totfact> 0.20325695E+03</totfact>
</mgrwt>
</event>
<event>
 4    1  0.4732450E-002  0.4624027E+03  0.7818608E-02  0.1024087E+00
         21   -1    0    0  501  502  0.00000000000E+00  0.00000000000E+00  0.17160485321E+03  0.17160485321E+03  0.00000000000E+00 0. -1.
         21   -1    0    0  502  503 -0.00000000000E+00 -0.00000000000E+00 -0.12659499642E+04  0.12659499642E+04  0.00000000000E+00 0. -1.
    9000007    1    1    2  501    0  0.36880867429E+02  0.22903297369E+03 -0.45689717760E+03  0.65005486870E+03  0.40000000000E+03 0. -1.
   -9000007    1    1    2    0  503 -0.36880867429E+02 -0.22903297369E+03 -0.63744793335E+03  0.78749994866E+03  0.40000000000E+03 0. -1.
<mgrwt>
<rscale>  2 0.46240275E+03</rscale>
<asrwt>0</asrwt>
<pdfrwt beam="1">  1       21 0.26400747E-01 0.46240275E+03</pdfrwt>
<pdfrwt beam="2">  1       21 0.19476153E+00 0.46240275E+03</pdfrwt>
<totfact> 0.16628672E+03</totfact>
</mgrwt>
</event>
<event>
 4    1  0.4732450E-002  0.6925556E+03  0.7818608E-02  0.9730048E-01
         21   -1    0    0  503  502  0.00000000000E+00  0.00000000000E+00  0.89735785299E+03  0.89735785299E+03  0.00000000000E+00 0. -1.
         21   -1    0    0  501  503 -0.00000000000E+00 -0.00000000000E+00 -0.88348685468E+03  0.88348685468E+03  0.00000000000E+00 0. -1.
    9000007    1    1    2  501    0  0.30787355884E+02  0.56452230091E+03 -0.55269793292E+03  0.88606336939E+03  0.40000000000E+03 0. -1.
   -9000007    1    1    2    0  502 -0.30787355884E+02 -0.56452230091E+03  0.56656893123E+03  0.89478133829E+03  0.40000000000E+03 0. -1.
<mgrwt>
<rscale>  2 0.69255562E+03</rscale>
<asrwt>0</asrwt>
<pdfrwt beam="1">  1       21 0.13805505E+00 0.69255562E+03</pdfrwt>
<pdfrwt beam="2">  1       21 0.13592106E+00 0.69255562E+03</pdfrwt>
<totfact> 0.10393356E+02</totfact>
</mgrwt>
</event>
<event>
 4    1  0.4732450E-002  0.5290961E+03  0.7818608E-02  0.1006452E+00
         21   -1    0    0  503  502  0.00000000000E+00  0.00000000000E+00  0.73501936401E+03  0.73501936401E+03  0.00000000000E+00 0. -1.
         21   -1    0    0  501  503 -0.00000000000E+00 -0.00000000000E+00 -0.21597619603E+04  0.21597619603E+04  0.00000000000E+00 0. -1.
    9000007    1    1    2  501    0 -0.28068139883E+03  0.20288095945E+03 -0.20259566251E+04  0.20939061531E+04  0.40000000000E+03 0. -1.
   -9000007    1    1    2    0  502  0.28068139883E+03 -0.20288095945E+03  0.60121402881E+03  0.80087517117E+03  0.40000000000E+03 0. -1.
<mgrwt>
<rscale>  2 0.52909615E+03</rscale>
<asrwt>0</asrwt>
<pdfrwt beam="1">  1       21 0.11307990E+00 0.52909615E+03</pdfrwt>
<pdfrwt beam="2">  1       21 0.33227107E+00 0.52909615E+03</pdfrwt>
<totfact> 0.93327323E+00</totfact>
</mgrwt>
</event>
<event>
 4    1  0.4732450E-002  0.6024099E+03  0.7818608E-02  0.9900419E-01
         21   -1    0    0  501  502  0.00000000000E+00  0.00000000000E+00  0.16634850378E+03  0.16634850378E+03  0.00000000000E+00 0.  1.
         21   -1    0    0  502  503 -0.00000000000E+00 -0.00000000000E+00 -0.21891788479E+04  0.21891788479E+04  0.00000000000E+00 0.  1.
    9000007    1    1    2  501    0 -0.84038829306E+02 -0.44253273633E+03 -0.94189384235E+03  0.11180616073E+04  0.40000000000E+03 0.  1.
   -9000007    1    1    2    0  503  0.84038829306E+02  0.44253273633E+03 -0.10809365018E+04  0.12374657444E+04  0.40000000000E+03 0.  1.
<mgrwt>
<rscale>  2 0.60240995E+03</rscale>
<asrwt>0</asrwt>
<pdfrwt beam="1">  1       21 0.25592077E-01 0.60240995E+03</pdfrwt>
<pdfrwt beam="2">  1       21 0.33679675E+00 0.60240995E+03</pdfrwt>
<totfact> 0.21671642E+02</totfact>
</mgrwt>
</event>
<event>
 4    1  0.4732450E-002  0.4577191E+03  0.7818608E-02  0.1025445E+00
         21   -1    0    0  501  502  0.00000000000E+00  0.00000000000E+00  0.10776528371E+04  0.10776528371E+04  0.00000000000E+00 0.  1.
         21   -1    0    0  502  503 -0.00000000000E+00 -0.00000000000E+00 -0.35736080669E+03  0.35736080669E+03  0.00000000000E+00 0. -1.
    9000007    1    1    2  501    0  0.10867544598E+03 -0.19415573626E+03 -0.12436141687E+03  0.47431272857E+03  0.40000000000E+03 0. -1.
   -9000007    1    1    2    0  503 -0.10867544598E+03  0.19415573626E+03  0.84465344727E+03  0.96070091520E+03  0.40000000000E+03 0.  1.
<mgrwt>
<rscale>  2 0.45771913E+03</rscale>
<asrwt>0</asrwt>
<pdfrwt beam="1">  1       21 0.16579274E+00 0.45771913E+03</pdfrwt>
<pdfrwt beam="2">  1       21 0.54978586E-01 0.45771913E+03</pdfrwt>
<totfact> 0.59238043E+02</totfact>
</mgrwt>
</event>
<event>
 4    1  0.4732450E-002  0.4077080E+03  0.7818608E-02  0.1041143E+00
         21   -1    0    0  501  502  0.00000000000E+00  0.00000000000E+00  0.20917580294E+03  0.20917580294E+03  0.00000000000E+00 0. -1.
         21   -1    0    0  502  503 -0.00000000000E+00 -0.00000000000E+00 -0.88023839225E+03  0.88023839225E+03  0.00000000000E+00 0. -1.
    9000007    1    1    2  501    0  0.45496290440E+02 -0.64466454495E+02 -0.16569975649E+03  0.44009345087E+03  0.40000000000E+03 0. -1.
   -9000007    1    1    2    0  503 -0.45496290440E+02  0.64466454495E+02 -0.50536283283E+03  0.64932074432E+03  0.40000000000E+03 0. -1.
<mgrwt>
<rscale>  2 0.40770803E+03</rscale>
<asrwt>0</asrwt>
<pdfrwt beam="1">  1       21 0.32180893E-01 0.40770803E+03</pdfrwt>
<pdfrwt beam="2">  1       21 0.13542129E+00 0.40770803E+03</pdfrwt>
<totfact> 0.31866132E+03</totfact>
</mgrwt>
</event>
<event>
 4    1  0.4732450E-002  0.4774116E+03  0.7818608E-02  0.1019849E+00
         21   -1    0    0  501  502  0.00000000000E+00  0.00000000000E+00  0.36096716300E+03  0.36096716300E+03  0.00000000000E+00 0.  1.
         21   -1    0    0  502  503 -0.00000000000E+00 -0.00000000000E+00 -0.13515951410E+04  0.13515951410E+04  0.00000000000E+00 0.  1.
    9000007    1    1    2  501    0 -0.24840560322E+03 -0.78844758472E+02  0.12973229230E+03  0.49472447617E+03  0.40000000000E+03 0.  1.
   -9000007    1    1    2    0  503  0.24840560322E+03  0.78844758472E+02 -0.11203602703E+04  0.12178378279E+04  0.40000000000E+03 0.  1.
<mgrwt>
<rscale>  2 0.47741160E+03</rscale>
<asrwt>0</asrwt>
<pdfrwt beam="1">  1       21 0.55533409E-01 0.47741160E+03</pdfrwt>
<pdfrwt beam="2">  1       21 0.20793772E+00 0.47741160E+03</pdfrwt>
<totfact> 0.29294020E+02</totfact>
</mgrwt>
</event>
<event>
 4    1  0.4732450E-002  0.4394719E+03  0.7818608E-02  0.1030909E+00
         21   -1    0    0  501  502  0.00000000000E+00  0.00000000000E+00  0.51991315380E+03  0.51991315380E+03  0.00000000000E+00 0. -1.
         21   -1    0    0  502  503 -0.00000000000E+00 -0.00000000000E+00 -0.80467912845E+03  0.80467912845E+03  0.00000000000E+00 0. -1.
    9000007    1    1    2  501    0  0.18093933522E+03  0.19912025355E+02  0.34356119267E+03  0.55782598084E+03  0.40000000000E+03 0. -1.
   -9000007    1    1    2    0  503 -0.18093933522E+03 -0.19912025355E+02 -0.62832716733E+03  0.76676630142E+03  0.40000000000E+03 0. -1.
<mgrwt>
<rscale>  2 0.43947188E+03</rscale>
<asrwt>0</asrwt>
<pdfrwt beam="1">  1       21 0.79986639E-01 0.43947188E+03</pdfrwt>
<pdfrwt beam="2">  1       21 0.12379679E+00 0.43947188E+03</pdfrwt>
<totfact> 0.56626326E+02</totfact>
</mgrwt>
</event>
<event>
 4    1  0.4732450E-002  0.4496919E+03  0.7818608E-02  0.1027814E+00
         21   -1    0    0  501  502  0.00000000000E+00  0.00000000000E+00  0.26848725114E+03  0.26848725114E+03  0.00000000000E+00 0.  1.
         21   -1    0    0  502  503 -0.00000000000E+00 -0.00000000000E+00 -0.10722125850E+04  0.10722125850E+04  0.00000000000E+00 0.  1.
    9000007    1    1    2  501    0 -0.87863468509E+02  0.18574924910E+03 -0.76751609145E+03  0.88955254104E+03  0.40000000000E+03 0.  1.
   -9000007    1    1    2    0  503  0.87863468509E+02 -0.18574924910E+03 -0.36209242401E+02  0.45114729510E+03  0.40000000000E+03 0.  1.
<mgrwt>
<rscale>  2 0.44969186E+03</rscale>
<asrwt>0</asrwt>
<pdfrwt beam="1">  1       21 0.41305731E-01 0.44969186E+03</pdfrwt>
<pdfrwt beam="2">  1       21 0.16495578E+00 0.44969186E+03</pdfrwt>
<totfact> 0.11035080E+03</totfact>
</mgrwt>
</event>
<event>
 4    1  0.4732450E-002  0.4748840E+03  0.7818608E-02  0.1020551E+00
         21   -1    0    0  501  502  0.00000000000E+00  0.00000000000E+00  0.10222405298E+03  0.10222405298E+03  0.00000000000E+00 0. -1.
         21   -1    0    0  502  503 -0.00000000000E+00 -0.00000000000E+00 -0.22069454910E+04  0.22069454910E+04  0.00000000000E+00 0. -1.
    9000007    1    1    2  501    0  0.12498436073E+03 -0.22336901621E+03 -0.10295439759E+04  0.11337881664E+04  0.40000000000E+03 0. -1.
   -9000007    1    1    2    0  503 -0.12498436073E+03  0.22336901621E+03 -0.10751774621E+04  0.11753813776E+04  0.40000000000E+03 0. -1.
<mgrwt>
<rscale>  2 0.47488399E+03</rscale>
<asrwt>0</asrwt>
<pdfrwt beam="1">  1       21 0.15726779E-01 0.47488399E+03</pdfrwt>
<pdfrwt beam="2">  1       21 0.33953004E+00 0.47488399E+03</pdfrwt>
<totfact> 0.56405640E+02</totfact>
</mgrwt>
</event>
<event>
 4    1  0.4732450E-002  0.4495891E+03  0.7818608E-02  0.1027845E+00
         21   -1    0    0  503  502  0.00000000000E+00  0.00000000000E+00  0.77243040368E+03  0.77243040368E+03  0.00000000000E+00 0.  1.
         21   -1    0    0  501  503 -0.00000000000E+00 -0.00000000000E+00 -0.32340858510E+03  0.32340858510E+03  0.00000000000E+00 0.  1.
    9000007    1    1    2  501    0 -0.16691957591E+03 -0.11944953048E+03 -0.14865164222E+02  0.44983475662E+03  0.40000000000E+03 0.  1.
   -9000007    1    1    2    0  502  0.16691957591E+03  0.11944953048E+03  0.46388698280E+03  0.64600423216E+03  0.40000000000E+03 0.  1.
<mgrwt>
<rscale>  2 0.44958907E+03</rscale>
<asrwt>0</asrwt>
<pdfrwt beam="1">  1       21 0.11883545E+00 0.44958907E+03</pdfrwt>
<pdfrwt beam="2">  1       21 0.49755167E-01 0.44958907E+03</pdfrwt>
<totfact> 0.17889536E+03</totfact>
</mgrwt>
</event>
<event>
 4    1  0.4732450E-002  0.6291022E+03  0.7818608E-02  0.9846802E-01
         21   -1    0    0  501  502  0.00000000000E+00  0.00000000000E+00  0.24922599345E+03  0.24922599345E+03  0.00000000000E+00 0.  1.
         21   -1    0    0  502  503 -0.00000000000E+00 -0.00000000000E+00 -0.16483010696E+04  0.16483010696E+04  0.00000000000E+00 0. -1.
    9000007    1    1    2  501    0  0.60872746573E+01  0.48552299776E+03 -0.51806113792E+03  0.81495826819E+03  0.40000000000E+03 0. -1.
   -9000007    1    1    2    0  503 -0.60872746573E+01 -0.48552299776E+03 -0.88101393827E+03  0.10825687949E+04  0.40000000000E+03 0. -1.
<mgrwt>
<rscale>  2 0.62910225E+03</rscale>
<asrwt>0</asrwt>
<pdfrwt beam="1">  1       21 0.38342461E-01 0.62910225E+03</pdfrwt>
<pdfrwt beam="2">  1       21 0.25358478E+00 0.62910225E+03</pdfrwt>
<totfact> 0.30753916E+02</totfact>
</mgrwt>
</event>
<event>
 4    1  0.4732450E-002  0.4084675E+03  0.7818608E-02  0.1040887E+00
         21   -1    0    0  501  502  0.00000000000E+00  0.00000000000E+00  0.18160419831E+04  0.18160419831E+04  0.00000000000E+00 0. -1.
         21   -1    0    0  502  503 -0.00000000000E+00 -0.00000000000E+00 -0.11989348238E+03  0.11989348238E+03  0.00000000000E+00 0. -1.
    9000007    1    1    2  501    0 -0.73228038039E+02  0.38513852310E+02  0.13160237969E+04  0.13779565655E+04  0.40000000000E+03 0. -1.
   -9000007    1    1    2    0  503  0.73228038039E+02 -0.38513852310E+02  0.38012470382E+03  0.55797889999E+03  0.40000000000E+03 0. -1.
<mgrwt>
<rscale>  2 0.40846746E+03</rscale>
<asrwt>0</asrwt>
<pdfrwt beam="1">  1       21 0.27939105E+00 0.40846746E+03</pdfrwt>
<pdfrwt beam="2">  1       21 0.18445152E-01 0.40846746E+03</pdfrwt>
<totfact> 0.10009762E+03</totfact>
</mgrwt>
</event>
<event>
 4    1  0.4732450E-002  0.4034855E+03  0.7818608E-02  0.1042579E+00
         21   -1    0    0  503  502  0.00000000000E+00  0.00000000000E+00  0.23334494041E+03  0.23334494041E+03  0.00000000000E+00 0.  1.
         21   -1    0    0  501  503 -0.00000000000E+00 -0.00000000000E+00 -0.72569208756E+03  0.72569208756E+03  0.00000000000E+00 0.  1.
    9000007    1    1    2  501    0  0.23203223165E+02 -0.47562152866E+02 -0.34038139830E+03  0.52788260462E+03  0.40000000000E+03 0. -1.
   -9000007    1    1    2    0  502 -0.23203223165E+02  0.47562152866E+02 -0.15196574884E+03  0.43115442335E+03  0.40000000000E+03 0. -1.
<mgrwt>
<rscale>  2 0.40348550E+03</rscale>
<asrwt>0</asrwt>
<pdfrwt beam="1">  1       21 0.35899222E-01 0.40348550E+03</pdfrwt>
<pdfrwt beam="2">  1       21 0.11164494E+00 0.40348550E+03</pdfrwt>
<totfact> 0.41892512E+03</totfact>
</mgrwt>
</event>
<event>
 4    1  0.4732450E-002  0.4077676E+03  0.7818608E-02  0.1041123E+00
         21   -1    0    0  503  502  0.00000000000E+00  0.00000000000E+00  0.15974205664E+04  0.15974205664E+04  0.00000000000E+00 0. -1.
         21   -1    0    0  501  503 -0.00000000000E+00 -0.00000000000E+00 -0.10416976624E+03  0.10416976624E+03  0.00000000000E+00 0. -1.
    9000007    1    1    2  501    0  0.68492338475E+02 -0.39789626689E+02  0.72298163382E+03  0.83004629851E+03  0.40000000000E+03 0.  1.
   -9000007    1    1    2    0  502 -0.68492338475E+02  0.39789626689E+02  0.77026916629E+03  0.87154403409E+03  0.40000000000E+03 0.  1.
<mgrwt>
<rscale>  2 0.40776760E+03</rscale>
<asrwt>0</asrwt>
<pdfrwt beam="1">  1       21 0.24575699E+00 0.40776760E+03</pdfrwt>
<pdfrwt beam="2">  1       21 0.16026119E-01 0.40776760E+03</pdfrwt>
<totfact> 0.20831131E+03</totfact>
</mgrwt>
</event>
<event>
 4    1  0.4732450E-002  0.4232042E+03  0.7818608E-02  0.1036028E+00
         21   -1    0    0  501  502  0.00000000000E+00  0.00000000000E+00  0.11438957538E+04  0.11438957538E+04  0.00000000000E+00 0.  1.
         21   -1    0    0  502  503 -0.00000000000E+00 -0.00000000000E+00 -0.18485122169E+03  0.18485122169E+03  0.00000000000E+00 0.  1.
    9000007    1    1    2  501    0  0.63211365912E+02 -0.12290687341E+03  0.21966392171E+03  0.47681654209E+03  0.40000000000E+03 0.  1.
   -9000007    1    1    2    0  503 -0.63211365912E+02  0.12290687341E+03  0.73938061038E+03  0.85193043338E+03  0.40000000000E+03 0.  1.
<mgrwt>
<rscale>  2 0.42320418E+03</rscale>
<asrwt>0</asrwt>
<pdfrwt beam="1">  1       21 0.17598396E+00 0.42320418E+03</pdfrwt>
<pdfrwt beam="2">  1       21 0.28438650E-01 0.42320418E+03</pdfrwt>
<totfact> 0.19719426E+03</totfact>
</mgrwt>
</event>
<event>
 4    1  0.4732450E-002  0.6131293E+03  0.7818608E-02  0.9878535E-01
         21   -1    0    0  501  502  0.00000000000E+00  0.00000000000E+00  0.42186227612E+03  0.42186227612E+03  0.00000000000E+00 0. -1.
         21   -1    0    0  502  503 -0.00000000000E+00 -0.00000000000E+00 -0.91545880718E+03  0.91545880718E+03  0.00000000000E+00 0. -1.
    9000007    1    1    2  501    0  0.24869389706E+02 -0.46401403933E+03 -0.13775807311E+03  0.62841451443E+03  0.40000000000E+03 0. -1.
   -9000007    1    1    2    0  503 -0.24869389706E+02  0.46401403933E+03 -0.35583845795E+03  0.70890656887E+03  0.40000000000E+03 0. -1.
<mgrwt>
<rscale>  2 0.61312928E+03</rscale>
<asrwt>0</asrwt>
<pdfrwt beam="1">  1       21 0.64901889E-01 0.61312928E+03</pdfrwt>
<pdfrwt beam="2">  1       21 0.14083982E+00 0.61312928E+03</pdfrwt>
<totfact> 0.60752414E+02</totfact>
</mgrwt>
</event>
<event>
 4    1  0.4732450E-002  0.4552349E+03  0.7818608E-02  0.1026172E+00
         21   -1    0    0  503  502  0.00000000000E+00  0.00000000000E+00  0.17601250767E+04  0.17601250767E+04  0.00000000000E+00 0.  1.
         21   -1    0    0  501  503 -0.00000000000E+00 -0.00000000000E+00 -0.17603719641E+03  0.17603719641E+03  0.00000000000E+00 0.  1.
    9000007    1    1    2  501    0 -0.22068830577E+02 -0.21622153811E+03  0.23494817477E+03  0.51228842623E+03  0.40000000000E+03 0.  1.
   -9000007    1    1    2    0  502  0.22068830577E+02  0.21622153811E+03  0.13491397055E+04  0.14238738469E+04  0.40000000000E+03 0.  1.
<mgrwt>
<rscale>  2 0.45523487E+03</rscale>
<asrwt>0</asrwt>
<pdfrwt beam="1">  1       21 0.27078846E+00 0.45523487E+03</pdfrwt>
<pdfrwt beam="2">  1       21 0.27082647E-01 0.45523487E+03</pdfrwt>
<totfact> 0.52515998E+02</totfact>
</mgrwt>
</event>
<event>
 4    1  0.4732450E-002  0.4014858E+03  0.7818608E-02  0.1043266E+00
         21   -1    0    0  503  502  0.00000000000E+00  0.00000000000E+00  0.66315529241E+03  0.66315529241E+03  0.00000000000E+00 0.  1.
         21   -1    0    0  501  503 -0.00000000000E+00 -0.00000000000E+00 -0.34254927183E+03  0.34254927183E+03  0.00000000000E+00 0.  1.
    9000007    1    1    2  501    0  0.26719065416E+01 -0.34405229727E+02 -0.11068667709E+03  0.41646416341E+03  0.40000000000E+03 0.  1.
   -9000007    1    1    2    0  502 -0.26719065416E+01  0.34405229727E+02  0.43129269767E+03  0.58924040084E+03  0.40000000000E+03 0.  1.
<mgrwt>
<rscale>  2 0.40148581E+03</rscale>
<asrwt>0</asrwt>
<pdfrwt beam="1">  1       21 0.10202389E+00 0.40148581E+03</pdfrwt>
<pdfrwt beam="2">  1       21 0.52699888E-01 0.40148581E+03</pdfrwt>
<totfact> 0.23547716E+03</totfact>
</mgrwt>
</event>
<event>
 4    1  0.4732450E-002  0.4061025E+03  0.7818608E-02  0.1041687E+00
         21   -1    0    0  501  502  0.00000000000E+00  0.00000000000E+00  0.14181239156E+04  0.14181239156E+04  0.00000000000E+00 0.  1.
         21   -1    0    0  502  503 -0.00000000000E+00 -0.00000000000E+00 -0.28398379944E+03  0.28398379944E+03  0.00000000000E+00 0.  1.
    9000007    1    1    2  501    0 -0.64631514733E+02 -0.27239210577E+02  0.12210488604E+04  0.12868098254E+04  0.40000000000E+03 0.  1.
   -9000007    1    1    2    0  503  0.64631514733E+02  0.27239210577E+02 -0.86908744252E+02  0.41529788961E+03  0.40000000000E+03 0.  1.
<mgrwt>
<rscale>  2 0.40610246E+03</rscale>
<asrwt>0</asrwt>
<pdfrwt beam="1">  1       21 0.21817291E+00 0.40610246E+03</pdfrwt>
<pdfrwt beam="2">  1       21 0.43689816E-01 0.40610246E+03</pdfrwt>
<totfact> 0.43443644E+02</totfact>
</mgrwt>
</event>
<event>
 4    1  0.4732450E-002  0.4168783E+03  0.7818608E-02  0.1038087E+00
         21   -1    0    0  503  502  0.00000000000E+00  0.00000000000E+00  0.94065259854E+03  0.94065259854E+03  0.00000000000E+00 0.  1.
         21   -1    0    0  501  503 -0.00000000000E+00 -0.00000000000E+00 -0.18824474699E+03  0.18824474699E+03  0.00000000000E+00 0.  1.
    9000007    1    1    2  501    0 -0.10365188030E+03 -0.55170673926E+02  0.29931882637E+03  0.51320490583E+03  0.40000000000E+03 0.  1.
   -9000007    1    1    2    0  502  0.10365188030E+03  0.55170673926E+02  0.45308902518E+03  0.61569243969E+03  0.40000000000E+03 0.  1.
<mgrwt>
<rscale>  2 0.41687830E+03</rscale>
<asrwt>0</asrwt>
<pdfrwt beam="1">  1       21 0.14471578E+00 0.41687830E+03</pdfrwt>
<pdfrwt beam="2">  1       21 0.28960731E-01 0.41687830E+03</pdfrwt>
<totfact> 0.32829764E+03</totfact>
</mgrwt>
</event>
<event>
 4    1  0.4732450E-002  0.4791080E+03  0.7818608E-02  0.1019381E+00
         21   -1    0    0  503  502  0.00000000000E+00  0.00000000000E+00  0.26540998743E+04  0.26540998743E+04  0.00000000000E+00 0. -1.
         21   -1    0    0  501  503 -0.00000000000E+00 -0.00000000000E+00 -0.13992672642E+03  0.13992672642E+03  0.00000000000E+00 0. -1.
    9000007    1    1    2  501    0  0.17231806803E+03 -0.19962714049E+03  0.39374377218E+03  0.62014407191E+03  0.40000000000E+03 0. -1.
   -9000007    1    1    2    0  502 -0.17231806803E+03  0.19962714049E+03  0.21204293757E+04  0.21738825288E+04  0.40000000000E+03 0. -1.
<mgrwt>
<rscale>  2 0.47910804E+03</rscale>
<asrwt>0</asrwt>
<pdfrwt beam="1">  1       21 0.40832302E+00 0.47910804E+03</pdfrwt>
<pdfrwt beam="2">  1       21 0.21527191E-01 0.47910804E+03</pdfrwt>
<totfact> 0.11493367E+02</totfact>
</mgrwt>
</event>
<event>
 4    1  0.4732450E-002  0.4082631E+03  0.7818608E-02  0.1040955E+00
         21   -1    0    0  503  502  0.00000000000E+00  0.00000000000E+00  0.18561749069E+04  0.18561749069E+04  0.00000000000E+00 0.  1.
         21   -1    0    0  501  503 -0.00000000000E+00 -0.00000000000E+00 -0.37687930257E+03  0.37687930257E+03  0.00000000000E+00 0.  1.
    9000007    1    1    2  501    0 -0.81588662750E+02 -0.46929680536E+01 -0.23482881001E+03  0.47098121390E+03  0.40000000000E+03 0.  1.
   -9000007    1    1    2    0  502  0.81588662750E+02  0.46929680536E+01  0.17141244143E+04  0.17620729955E+04  0.40000000000E+03 0.  1.
<mgrwt>
<rscale>  2 0.40826307E+03</rscale>
<asrwt>0</asrwt>
<pdfrwt beam="1">  1       21 0.28556536E+00 0.40826307E+03</pdfrwt>
<pdfrwt beam="2">  1       21 0.57981432E-01 0.40826307E+03</pdfrwt>
<totfact> 0.91801297E+01</totfact>
</mgrwt>
</event>
<event>
 4    1  0.4732450E-002  0.4855910E+03  0.7818608E-02  0.1017610E+00
         21   -1    0    0  501  502  0.00000000000E+00  0.00000000000E+00  0.19235777723E+03  0.19235777723E+03  0.00000000000E+00 0. -1.
         21   -1    0    0  502  503 -0.00000000000E+00 -0.00000000000E+00 -0.12537534179E+04  0.12537534179E+04  0.00000000000E+00 0. -1.
    9000007    1    1    2  501    0 -0.27138217519E+03  0.46372126738E+02 -0.42279803006E+03  0.64386088045E+03  0.40000000000E+03 0. -1.
   -9000007    1    1    2    0  503  0.27138217519E+03 -0.46372126738E+02 -0.63859761064E+03  0.80225031471E+03  0.40000000000E+03 0. -1.
<mgrwt>
<rscale>  2 0.48559104E+03</rscale>
<asrwt>0</asrwt>
<pdfrwt beam="1">  1       21 0.29593504E-01 0.48559104E+03</pdfrwt>
<pdfrwt beam="2">  1       21 0.19288514E+00 0.48559104E+03</pdfrwt>
<totfact> 0.13539279E+03</totfact>
</mgrwt>
</event>
<event>
 4    1  0.4732450E-002  0.4040503E+03  0.7818608E-02  0.1042386E+00
         21   -1    0    0  503  502  0.00000000000E+00  0.00000000000E+00  0.23538953292E+03  0.23538953292E+03  0.00000000000E+00 0.  1.
         21   -1    0    0  501  503 -0.00000000000E+00 -0.00000000000E+00 -0.78771735967E+03  0.78771735967E+03  0.00000000000E+00 0.  1.
    9000007    1    1    2  501    0  0.15135702441E+02 -0.55023395937E+02 -0.45302566853E+03  0.60703288208E+03  0.40000000000E+03 0.  1.
   -9000007    1    1    2    0  502 -0.15135702441E+02  0.55023395937E+02 -0.99302158218E+02  0.41607401050E+03  0.40000000000E+03 0.  1.
<mgrwt>
<rscale>  2 0.40405032E+03</rscale>
<asrwt>0</asrwt>
<pdfrwt beam="1">  1       21 0.36213774E-01 0.40405032E+03</pdfrwt>
<pdfrwt beam="2">  1       21 0.12118729E+00 0.40405032E+03</pdfrwt>
<totfact> 0.33503704E+03</totfact>
</mgrwt>
</event>
<event>
 4    1  0.4732450E-002  0.7821100E+03  0.7818608E-02  0.9586279E-01
         21   -1    0    0  501  502  0.00000000000E+00  0.00000000000E+00  0.13220088033E+04  0.13220088033E+04  0.00000000000E+00 0.  1.
         21   -1    0    0  502  503 -0.00000000000E+00 -0.00000000000E+00 -0.47479361332E+03  0.47479361332E+03  0.00000000000E+00 0. -1.
    9000007    1    1    2  501    0  0.55906530691E+03 -0.37301743192E+03  0.28023659501E+03  0.83079995852E+03  0.40000000000E+03 0. -1.
   -9000007    1    1    2    0  503 -0.55906530691E+03  0.37301743192E+03  0.56697859498E+03  0.96600245811E+03  0.40000000000E+03 0. -1.
<mgrwt>
<rscale>  2 0.78210998E+03</rscale>
<asrwt>0</asrwt>
<pdfrwt beam="1">  1       21 0.20338597E+00 0.78210998E+03</pdfrwt>
<pdfrwt beam="2">  1       21 0.73045172E-01 0.78210998E+03</pdfrwt>
<totfact> 0.15182658E+02</totfact>
</mgrwt>
</event>
<event>
 4    1  0.4732450E-002  0.5000127E+03  0.7818608E-02  0.1013776E+00
         21   -1    0    0  503  502  0.00000000000E+00  0.00000000000E+00  0.67418469039E+03  0.67418469039E+03  0.00000000000E+00 0. -1.
         21   -1    0    0  501  503 -0.00000000000E+00 -0.00000000000E+00 -0.53103002791E+03  0.53103002791E+03  0.00000000000E+00 0.  1.
    9000007    1    1    2  501    0 -0.15740488394E+03  0.25541413276E+03 -0.25939874156E+03  0.56329422492E+03  0.40000000000E+03 0.  1.
   -9000007    1    1    2    0  502  0.15740488394E+03 -0.25541413276E+03  0.40255340405E+03  0.64192049338E+03  0.40000000000E+03 0. -1.
<mgrwt>
<rscale>  2 0.50001268E+03</rscale>
<asrwt>0</asrwt>
<pdfrwt beam="1">  1       21 0.10372072E+00 0.50001268E+03</pdfrwt>
<pdfrwt beam="2">  1       21 0.81696927E-01 0.50001268E+03</pdfrwt>
<totfact> 0.81883883E+02</totfact>
</mgrwt>
</event>
<event>
 4    1  0.4732450E-002  0.5949488E+03  0.7818608E-02  0.9915941E-01
         21   -1    0    0  501  502  0.00000000000E+00  0.00000000000E+00  0.64473173136E+03  0.64473173136E+03  0.00000000000E+00 0. -1.
         21   -1    0    0  502  503 -0.00000000000E+00 -0.00000000000E+00 -0.60476640050E+03  0.60476640050E+03  0.00000000000E+00 0. -1.
    9000007    1    1    2  501    0  0.33084946851E+03  0.29069358199E+03  0.20967919455E+03  0.63081652962E+03  0.40000000000E+03 0. -1.
   -9000007    1    1    2    0  503 -0.33084946851E+03 -0.29069358199E+03 -0.16971386369E+03  0.61868160224E+03  0.40000000000E+03 0. -1.
<mgrwt>
<rscale>  2 0.59494885E+03</rscale>
<asrwt>0</asrwt>
<pdfrwt beam="1">  1       21 0.99189497E-01 0.59494885E+03</pdfrwt>
<pdfrwt beam="2">  1       21 0.93040985E-01 0.59494885E+03</pdfrwt>
<totfact> 0.65005654E+02</totfact>
</mgrwt>
</event>
<event>
 4    1  0.4732450E-002  0.4027266E+03  0.7818608E-02  0.1042840E+00
         21   -1    0    0  501  502  0.00000000000E+00  0.00000000000E+00  0.14876686531E+03  0.14876686531E+03  0.00000000000E+00 0. -1.
         21   -1    0    0  502  503 -0.00000000000E+00 -0.00000000000E+00 -0.11022885196E+04  0.11022885196E+04  0.00000000000E+00 0. -1.
    9000007    1    1    2  501    0 -0.37397728579E+02 -0.28109655432E+02 -0.41131076531E+03  0.57564336919E+03  0.40000000000E+03 0. -1.
   -9000007    1    1    2    0  503  0.37397728579E+02  0.28109655432E+02 -0.54221088895E+03  0.67541201568E+03  0.40000000000E+03 0. -1.
<mgrwt>
<rscale>  2 0.40272664E+03</rscale>
<asrwt>0</asrwt>
<pdfrwt beam="1">  1       21 0.22887209E-01 0.40272664E+03</pdfrwt>
<pdfrwt beam="2">  1       21 0.16958286E+00 0.40272664E+03</pdfrwt>
<totfact> 0.33760435E+03</totfact>
</mgrwt>
</event>
<event>
 4    1  0.4732450E-002  0.5045606E+03  0.7818608E-02  0.1012595E+00
         21   -1    0    0  503  502  0.00000000000E+00  0.00000000000E+00  0.28374283066E+03  0.28374283066E+03  0.00000000000E+00 0.  1.
         21   -1    0    0  501  503 -0.00000000000E+00 -0.00000000000E+00 -0.91504792570E+03  0.91504792570E+03  0.00000000000E+00 0.  1.
    9000007    1    1    2  501    0 -0.25650121049E+03  0.16967193784E+03 -0.23200193871E+03  0.55534344062E+03  0.40000000000E+03 0.  1.
   -9000007    1    1    2    0  502  0.25650121049E+03 -0.16967193784E+03 -0.39930315633E+03  0.64344731574E+03  0.40000000000E+03 0.  1.
<mgrwt>
<rscale>  2 0.50456064E+03</rscale>
<asrwt>0</asrwt>
<pdfrwt beam="1">  1       21 0.43652743E-01 0.50456064E+03</pdfrwt>
<pdfrwt beam="2">  1       21 0.14077661E+00 0.50456064E+03</pdfrwt>
<totfact> 0.14863185E+03</totfact>
</mgrwt>
</event>
<event>
 4    1  0.4732450E-002  0.4008804E+03  0.7818608E-02  0.1043475E+00
         21   -1    0    0  501  502  0.00000000000E+00  0.00000000000E+00  0.26686390809E+03  0.26686390809E+03  0.00000000000E+00 0. -1.
         21   -1    0    0  502  503 -0.00000000000E+00 -0.00000000000E+00 -0.64456110120E+03  0.64456110120E+03  0.00000000000E+00 0. -1.
    9000007    1    1    2  501    0 -0.46613154649E+01 -0.26140542301E+02 -0.72019772763E+02  0.40729829791E+03  0.40000000000E+03 0. -1.
   -9000007    1    1    2    0  503  0.46613154649E+01  0.26140542301E+02 -0.30567742035E+03  0.50412671138E+03  0.40000000000E+03 0. -1.
<mgrwt>
<rscale>  2 0.40088035E+03</rscale>
<asrwt>0</asrwt>
<pdfrwt beam="1">  1       21 0.41055986E-01 0.40088035E+03</pdfrwt>
<pdfrwt beam="2">  1       21 0.99163246E-01 0.40088035E+03</pdfrwt>
<totfact> 0.42634598E+03</totfact>
</mgrwt>
</event>
<event>
 4    1  0.4732450E-002  0.4675982E+03  0.7818608E-02  0.1022600E+00
         21   -1    0    0  501  502  0.00000000000E+00  0.00000000000E+00  0.19529199180E+03  0.19529199180E+03  0.00000000000E+00 0. -1.
         21   -1    0    0  502  503 -0.00000000000E+00 -0.00000000000E+00 -0.11296914463E+04  0.11296914463E+04  0.00000000000E+00 0. -1.
    9000007    1    1    2  501    0 -0.22486453703E+03 -0.89911066954E+02 -0.52982812793E+03  0.70665826615E+03  0.40000000000E+03 0. -1.
   -9000007    1    1    2    0  503  0.22486453703E+03  0.89911066954E+02 -0.40457132654E+03  0.61832517192E+03  0.40000000000E+03 0. -1.
<mgrwt>
<rscale>  2 0.46759818E+03</rscale>
<asrwt>0</asrwt>
<pdfrwt beam="1">  1       21 0.30044923E-01 0.46759818E+03</pdfrwt>
<pdfrwt beam="2">  1       21 0.17379868E+00 0.46759818E+03</pdfrwt>
<totfact> 0.17998979E+03</totfact>
</mgrwt>
</event>
<event>
 4    1  0.4732450E-002  0.5393718E+03  0.7818608E-02  0.1003984E+00
         21   -1    0    0  501  502  0.00000000000E+00  0.00000000000E+00  0.11380012508E+04  0.11380012508E+04  0.00000000000E+00 0. -1.
         21   -1    0    0  502  503 -0.00000000000E+00 -0.00000000000E+00 -0.39493486423E+03  0.39493486423E+03  0.00000000000E+00 0.  1.
    9000007    1    1    2  501    0 -0.77746640304E+02  0.35338002925E+03  0.82672484944E+03  0.98711496891E+03  0.40000000000E+03 0. -1.
   -9000007    1    1    2    0  503  0.77746640304E+02 -0.35338002925E+03 -0.83658462875E+02  0.54582114613E+03  0.40000000000E+03 0.  1.
<mgrwt>
<rscale>  2 0.53937184E+03</rscale>
<asrwt>0</asrwt>
<pdfrwt beam="1">  1       21 0.17507711E+00 0.53937184E+03</pdfrwt>
<pdfrwt beam="2">  1       21 0.60759210E-01 0.53937184E+03</pdfrwt>
<totfact> 0.39356258E+02</totfact>
</mgrwt>
</event>
<event>
 4    1  0.4732450E-002  0.5094714E+03  0.7818608E-02  0.1011336E+00
         21   -1    0    0  503  502  0.00000000000E+00  0.00000000000E+00  0.21735058748E+03  0.21735058748E+03  0.00000000000E+00 0.  1.
         21   -1    0    0  501  503 -0.00000000000E+00 -0.00000000000E+00 -0.12890082851E+04  0.12890082851E+04  0.00000000000E+00 0. -1.
    9000007    1    1    2  501    0  0.62721028544E+02  0.30923651730E+03 -0.74008839834E+03  0.89849428958E+03  0.40000000000E+03 0.  1.
   -9000007    1    1    2    0  502 -0.62721028544E+02 -0.30923651730E+03 -0.33156929928E+03  0.60786458301E+03  0.40000000000E+03 0. -1.
<mgrwt>
<rscale>  2 0.50947144E+03</rscale>
<asrwt>0</asrwt>
<pdfrwt beam="1">  1       21 0.33438552E-01 0.50947144E+03</pdfrwt>
<pdfrwt beam="2">  1       21 0.19830897E+00 0.50947144E+03</pdfrwt>
<totfact> 0.96482563E+02</totfact>
</mgrwt>
</event>
<event>
 4    1  0.4732450E-002  0.4288045E+03  0.7818608E-02  0.1034238E+00
         21   -1    0    0  503  502  0.00000000000E+00  0.00000000000E+00  0.31559020651E+03  0.31559020651E+03  0.00000000000E+00 0.  1.
         21   -1    0    0  501  503 -0.00000000000E+00 -0.00000000000E+00 -0.58459978214E+03  0.58459978214E+03  0.00000000000E+00 0.  1.
    9000007    1    1    2  501    0  0.53705394246E+02  0.14487592582E+03 -0.10839875201E+03  0.44229355940E+03  0.40000000000E+03 0.  1.
   -9000007    1    1    2    0  502 -0.53705394246E+02 -0.14487592582E+03 -0.16061082362E+03  0.45789642925E+03  0.40000000000E+03 0.  1.
<mgrwt>
<rscale>  2 0.42880450E+03</rscale>
<asrwt>0</asrwt>
<pdfrwt beam="1">  1       21 0.48552340E-01 0.42880450E+03</pdfrwt>
<pdfrwt beam="2">  1       21 0.89938427E-01 0.42880450E+03</pdfrwt>
<totfact> 0.37531004E+03</totfact>
</mgrwt>
</event>
<event>
 4    1  0.4732450E-002  0.8264049E+03  0.7818608E-02  0.9522564E-01
         21   -1    0    0  503  502  0.00000000000E+00  0.00000000000E+00  0.14729553830E+04  0.14729553830E+04  0.00000000000E+00 0.  1.
         21   -1    0    0  501  503 -0.00000000000E+00 -0.00000000000E+00 -0.51338483048E+03  0.51338483048E+03  0.00000000000E+00 0. -1.
    9000007    1    1    2  501    0  0.17378082210E+03  0.70195819046E+03  0.17068112312E+03  0.84384662177E+03  0.40000000000E+03 0. -1.
   -9000007    1    1    2    0  502 -0.17378082210E+03 -0.70195819046E+03  0.78888942939E+03  0.11424935917E+04  0.40000000000E+03 0.  1.
<mgrwt>
<rscale>  2 0.82640491E+03</rscale>
<asrwt>0</asrwt>
<pdfrwt beam="1">  1       21 0.22660852E+00 0.82640491E+03</pdfrwt>
<pdfrwt beam="2">  1       21 0.78982282E-01 0.82640491E+03</pdfrwt>
<totfact> 0.87750019E+01</totfact>
</mgrwt>
</event>
<event>
 4    1  0.4732450E-002  0.5072703E+03  0.7818608E-02  0.1011898E+00
         21   -1    0    0  503  502  0.00000000000E+00  0.00000000000E+00  0.41070775047E+03  0.41070775047E+03  0.00000000000E+00 0.  1.
         21   -1    0    0  501  503 -0.00000000000E+00 -0.00000000000E+00 -0.65657331011E+03  0.65657331011E+03  0.00000000000E+00 0.  1.
    9000007    1    1    2  501    0 -0.20505472882E+03 -0.23510792089E+03 -0.23707280808E+03  0.55993454315E+03  0.40000000000E+03 0.  1.
   -9000007    1    1    2    0  502  0.20505472882E+03  0.23510792089E+03 -0.87927515606E+01  0.50734651744E+03  0.40000000000E+03 0.  1.
<mgrwt>
<rscale>  2 0.50727032E+03</rscale>
<asrwt>0</asrwt>
<pdfrwt beam="1">  1       21 0.63185808E-01 0.50727032E+03</pdfrwt>
<pdfrwt beam="2">  1       21 0.10101128E+00 0.50727032E+03</pdfrwt>
<totfact> 0.15616313E+03</totfact>
</mgrwt>
</event>
<event>
 4    1  0.4732450E-002  0.4678417E+03  0.7818608E-02  0.1022531E+00
         21   -1    0    0  501  502  0.00000000000E+00  0.00000000000E+00  0.19589924331E+03  0.19589924331E+03  0.00000000000E+00 0. -1.
         21   -1    0    0  502  503 -0.00000000000E+00 -0.00000000000E+00 -0.11449960200E+04  0.11449960200E+04  0.00000000000E+00 0. -1.
    9000007    1    1    2  501    0 -0.64119372863E+02 -0.23401819787E+03 -0.57884450355E+03  0.74426928608E+03  0.40000000000E+03 0. -1.
   -9000007    1    1    2    0  503  0.64119372863E+02  0.23401819787E+03 -0.37025227310E+03  0.59662597718E+03  0.40000000000E+03 0. -1.
<mgrwt>
<rscale>  2 0.46784165E+03</rscale>
<asrwt>0</asrwt>
<pdfrwt beam="1">  1       21 0.30138344E-01 0.46784165E+03</pdfrwt>
<pdfrwt beam="2">  1       21 0.17615324E+00 0.46784165E+03</pdfrwt>
<totfact> 0.17203393E+03</totfact>
</mgrwt>
</event>
<event>
 4    1  0.4732450E-002  0.4001230E+03  0.7818608E-02  0.1043737E+00
         21   -1    0    0  503  502  0.00000000000E+00  0.00000000000E+00  0.73415884285E+03  0.73415884285E+03  0.00000000000E+00 0. -1.
         21   -1    0    0  501  503 -0.00000000000E+00 -0.00000000000E+00 -0.25647688574E+03  0.25647688574E+03  0.00000000000E+00 0. -1.
    9000007    1    1    2  501    0 -0.72764649256E+01 -0.67426479809E+01  0.47167771956E+02  0.40289354544E+03  0.40000000000E+03 0. -1.
   -9000007    1    1    2    0  502  0.72764649256E+01  0.67426479809E+01  0.43051418515E+03  0.58774218315E+03  0.40000000000E+03 0. -1.
<mgrwt>
<rscale>  2 0.40012299E+03</rscale>
<asrwt>0</asrwt>
<pdfrwt beam="1">  1       21 0.11294751E+00 0.40012299E+03</pdfrwt>
<pdfrwt beam="2">  1       21 0.39457983E-01 0.40012299E+03</pdfrwt>
<totfact> 0.33618388E+03</totfact>
</mgrwt>
</event>
<event>
 4    1  0.4732450E-002  0.7254312E+03  0.7818608E-02  0.9674703E-01
         21   -1    0    0  503  502  0.00000000000E+00  0.00000000000E+00  0.41566645527E+03  0.41566645527E+03  0.00000000000E+00 0. -1.
         21   -1    0    0  501  503 -0.00000000000E+00 -0.00000000000E+00 -0.12796633262E+04  0.12796633262E+04  0.00000000000E+00 0.  1.
    9000007    1    1    2  501    0 -0.14756942020E+03  0.58691884871E+03 -0.51945928775E+03  0.89223787209E+03  0.40000000000E+03 0. -1.
   -9000007    1    1    2    0  502  0.14756942020E+03 -0.58691884871E+03 -0.34453758322E+03  0.80309190944E+03  0.40000000000E+03 0. -1.
<mgrwt>
<rscale>  2 0.72543123E+03</rscale>
<asrwt>0</asrwt>
<pdfrwt beam="1">  1       21 0.63948687E-01 0.72543123E+03</pdfrwt>
<pdfrwt beam="2">  1       21 0.19687128E+00 0.72543123E+03</pdfrwt>
<totfact> 0.23129115E+02</totfact>
</mgrwt>
</event>
<event>
 4    1  0.4732450E-002  0.4587169E+03  0.7818608E-02  0.1025154E+00
         21   -1    0    0  501  502  0.00000000000E+00  0.00000000000E+00  0.88612646524E+03  0.88612646524E+03  0.00000000000E+00 0.  1.
         21   -1    0    0  502  503 -0.00000000000E+00 -0.00000000000E+00 -0.39789646523E+03  0.39789646523E+03  0.00000000000E+00 0.  1.
    9000007    1    1    2  501    0 -0.29228785166E+02  0.22263618666E+03  0.65178320143E+03  0.79702103809E+03  0.40000000000E+03 0.  1.
   -9000007    1    1    2    0  503  0.29228785166E+02 -0.22263618666E+03 -0.16355320142E+03  0.48700189239E+03  0.40000000000E+03 0.  1.
<mgrwt>
<rscale>  2 0.45871690E+03</rscale>
<asrwt>0</asrwt>
<pdfrwt beam="1">  1       21 0.13632715E+00 0.45871690E+03</pdfrwt>
<pdfrwt beam="2">  1       21 0.61214841E-01 0.45871690E+03</pdfrwt>
<totfact> 0.79865493E+02</totfact>
</mgrwt>
</event>
<event>
 4    1  0.4732450E-002  0.4507560E+03  0.7818608E-02  0.1027497E+00
         21   -1    0    0  501  502  0.00000000000E+00  0.00000000000E+00  0.21961797981E+03  0.21961797981E+03  0.00000000000E+00 0.  1.
         21   -1    0    0  502  503 -0.00000000000E+00 -0.00000000000E+00 -0.93053628165E+03  0.93053628165E+03  0.00000000000E+00 0. -1.
    9000007    1    1    2  501    0 -0.64310694685E+01  0.20770073740E+03 -0.39918621559E+03  0.60210513176E+03  0.40000000000E+03 0.  1.
   -9000007    1    1    2    0  503  0.64310694685E+01 -0.20770073740E+03 -0.31173208625E+03  0.54804912970E+03  0.40000000000E+03 0.  1.
<mgrwt>
<rscale>  2 0.45075598E+03</rscale>
<asrwt>0</asrwt>
<pdfrwt beam="1">  1       21 0.33787382E-01 0.45075598E+03</pdfrwt>
<pdfrwt beam="2">  1       21 0.14315943E+00 0.45075598E+03</pdfrwt>
<totfact> 0.24521364E+03</totfact>
</mgrwt>
</event>
<event>
 4    1  0.4732450E-002  0.4926720E+03  0.7818608E-02  0.1015710E+00
         21   -1    0    0  503  502  0.00000000000E+00  0.00000000000E+00  0.20613550541E+03  0.20613550541E+03  0.00000000000E+00 0.  1.
         21   -1    0    0  501  503 -0.00000000000E+00 -0.00000000000E+00 -0.12979829218E+04  0.12979829218E+04  0.00000000000E+00 0.  1.
    9000007    1    1    2  501    0 -0.24295569122E+03 -0.15394220750E+03 -0.31679972197E+03  0.58573691619E+03  0.40000000000E+03 0.  1.
   -9000007    1    1    2    0  502  0.24295569122E+03  0.15394220750E+03 -0.77504769438E+03  0.91838151098E+03  0.40000000000E+03 0.  1.
<mgrwt>
<rscale>  2 0.49267197E+03</rscale>
<asrwt>0</asrwt>
<pdfrwt beam="1">  1       21 0.31713154E-01 0.49267197E+03</pdfrwt>
<pdfrwt beam="2">  1       21 0.19968968E+00 0.49267197E+03</pdfrwt>
<totfact> 0.10577181E+03</totfact>
</mgrwt>
</event>
<event>
 4    1  0.4732450E-002  0.4461645E+03  0.7818608E-02  0.1028872E+00
         21   -1    0    0  503  502  0.00000000000E+00  0.00000000000E+00  0.52516136928E+03  0.52516136928E+03  0.00000000000E+00 0.  1.
         21   -1    0    0  501  503 -0.00000000000E+00 -0.00000000000E+00 -0.50213073482E+03  0.50213073482E+03  0.00000000000E+00 0. -1.
    9000007    1    1    2  501    0  0.19724436625E+03  0.12546441043E+02  0.26581713399E+03  0.51934718823E+03  0.40000000000E+03 0.  1.
   -9000007    1    1    2    0  502 -0.19724436625E+03 -0.12546441043E+02 -0.24278649953E+03  0.50794491587E+03  0.40000000000E+03 0. -1.
<mgrwt>
<rscale>  2 0.44616449E+03</rscale>
<asrwt>0</asrwt>
<pdfrwt beam="1">  1       21 0.80794057E-01 0.44616449E+03</pdfrwt>
<pdfrwt beam="2">  1       21 0.77250882E-01 0.44616449E+03</pdfrwt>
<totfact> 0.17251728E+03</totfact>
</mgrwt>
</event>
<event>
 4    1  0.4732450E-002  0.4622478E+03  0.7818608E-02  0.1024131E+00
         21   -1    0    0  501  502  0.00000000000E+00  0.00000000000E+00  0.63027095742E+03  0.63027095742E+03  0.00000000000E+00 0.  1.
         21   -1    0    0  502  503 -0.00000000000E+00 -0.00000000000E+00 -0.38895803156E+03  0.38895803156E+03  0.00000000000E+00 0.  1.
    9000007    1    1    2  501    0 -0.13350974133E+03  0.18933614508E+03  0.30326286382E+03  0.55284843441E+03  0.40000000000E+03 0.  1.
   -9000007    1    1    2    0  503  0.13350974133E+03 -0.18933614508E+03 -0.61949937965E+02  0.46638055457E+03  0.40000000000E+03 0.  1.
<mgrwt>
<rscale>  2 0.46224780E+03</rscale>
<asrwt>0</asrwt>
<pdfrwt beam="1">  1       21 0.96964763E-01 0.46224780E+03</pdfrwt>
<pdfrwt beam="2">  1       21 0.59839697E-01 0.46224780E+03</pdfrwt>
<totfact> 0.19757049E+03</totfact>
</mgrwt>
</event>
<event>
 4    1  0.4732450E-002  0.4743598E+03  0.7818608E-02  0.1020697E+00
         21   -1    0    0  503  502  0.00000000000E+00  0.00000000000E+00  0.77640533255E+03  0.77640533255E+03  0.00000000000E+00 0.  1.
         21   -1    0    0  501  503 -0.00000000000E+00 -0.00000000000E+00 -0.55615965778E+03  0.55615965778E+03  0.00000000000E+00 0.  1.
    9000007    1    1    2  501    0 -0.13435098969E+03  0.21671870338E+03 -0.35095815550E+03  0.59007525939E+03  0.40000000000E+03 0.  1.
   -9000007    1    1    2    0  502  0.13435098969E+03 -0.21671870338E+03  0.57120383027E+03  0.74248973094E+03  0.40000000000E+03 0.  1.
<mgrwt>
<rscale>  2 0.47435976E+03</rscale>
<asrwt>0</asrwt>
<pdfrwt beam="1">  1       21 0.11944697E+00 0.47435976E+03</pdfrwt>
<pdfrwt beam="2">  1       21 0.85563024E-01 0.47435976E+03</pdfrwt>
<totfact> 0.52226466E+02</totfact>
</mgrwt>
</event>
<event>
 4    1  0.4732450E-002  0.4213796E+03  0.7818608E-02  0.1036618E+00
         21   -1    0    0  503  502  0.00000000000E+00  0.00000000000E+00  0.19442928297E+04  0.19442928297E+04  0.00000000000E+00 0.  1.
         21   -1    0    0  501  503 -0.00000000000E+00 -0.00000000000E+00 -0.13200109321E+03  0.13200109321E+03  0.00000000000E+00 0.  1.
    9000007    1    1    2  501    0 -0.12977951627E+03  0.26796580856E+02  0.32985129372E+03  0.53512863459E+03  0.40000000000E+03 0.  1.
   -9000007    1    1    2    0  502  0.12977951627E+03 -0.26796580856E+02  0.14824404428E+04  0.15411652883E+04  0.40000000000E+03 0.  1.
<mgrwt>
<rscale>  2 0.42137961E+03</rscale>
<asrwt>0</asrwt>
<pdfrwt beam="1">  1       21 0.29912195E+00 0.42137961E+03</pdfrwt>
<pdfrwt beam="2">  1       21 0.20307862E-01 0.42137961E+03</pdfrwt>
<totfact> 0.63057302E+02</totfact>
</mgrwt>
</event>
<event>
 4    1  0.4732450E-002  0.4124180E+03  0.7818608E-02  0.1039563E+00
         21   -1    0    0  501  502  0.00000000000E+00  0.00000000000E+00  0.13604740965E+04  0.13604740965E+04  0.00000000000E+00 0. -1.
         21   -1    0    0  502  503 -0.00000000000E+00 -0.00000000000E+00 -0.14893153482E+03  0.14893153482E+03  0.00000000000E+00 0. -1.
    9000007    1    1    2  501    0  0.93471534073E+02  0.36765617745E+02  0.90816439702E+03  0.99742228286E+03  0.40000000000E+03 0. -1.
   -9000007    1    1    2    0  503 -0.93471534073E+02 -0.36765617745E+02  0.30337816470E+03  0.51198334851E+03  0.40000000000E+03 0. -1.
<mgrwt>
<rscale>  2 0.41241804E+03</rscale>
<asrwt>0</asrwt>
<pdfrwt beam="1">  1       21 0.20930370E+00 0.41241804E+03</pdfrwt>
<pdfrwt beam="2">  1       21 0.22912545E-01 0.41241804E+03</pdfrwt>
<totfact> 0.17931966E+03</totfact>
</mgrwt>
</event>
<event>
 4    1  0.4732450E-002  0.5075209E+03  0.7818608E-02  0.1011834E+00
         21   -1    0    0  503  502  0.00000000000E+00  0.00000000000E+00  0.35448626662E+03  0.35448626662E+03  0.00000000000E+00 0. -1.
         21   -1    0    0  501  503 -0.00000000000E+00 -0.00000000000E+00 -0.74536961342E+03  0.74536961342E+03  0.00000000000E+00 0.  1.
    9000007    1    1    2  501    0  0.22997890052E+03 -0.21139348627E+03 -0.10822619470E+03  0.51893198971E+03  0.40000000000E+03 0.  1.
   -9000007    1    1    2    0  502 -0.22997890052E+03  0.21139348627E+03 -0.28265715211E+03  0.58092389033E+03  0.40000000000E+03 0. -1.
<mgrwt>
<rscale>  2 0.50752094E+03</rscale>
<asrwt>0</asrwt>
<pdfrwt beam="1">  1       21 0.54536349E-01 0.50752094E+03</pdfrwt>
<pdfrwt beam="2">  1       21 0.11467225E+00 0.50752094E+03</pdfrwt>
<totfact> 0.15736215E+03</totfact>
</mgrwt>
</event>
<event>
 4    1  0.4732450E-002  0.4247811E+03  0.7818608E-02  0.1035521E+00
         21   -1    0    0  501  502  0.00000000000E+00  0.00000000000E+00  0.66430362143E+03  0.66430362143E+03  0.00000000000E+00 0. -1.
         21   -1    0    0  502  503 -0.00000000000E+00 -0.00000000000E+00 -0.27173188094E+03  0.27173188094E+03  0.00000000000E+00 0. -1.
    9000007    1    1    2  501    0 -0.16225682944E+02 -0.14204121167E+03  0.20572940486E+03  0.47197835398E+03  0.40000000000E+03 0. -1.
   -9000007    1    1    2    0  503  0.16225682944E+02  0.14204121167E+03  0.18684233563E+03  0.46405714840E+03  0.40000000000E+03 0. -1.
<mgrwt>
<rscale>  2 0.42478109E+03</rscale>
<asrwt>0</asrwt>
<pdfrwt beam="1">  1       21 0.10220056E+00 0.42478109E+03</pdfrwt>
<pdfrwt beam="2">  1       21 0.41804905E-01 0.42478109E+03</pdfrwt>
<totfact> 0.37823932E+03</totfact>
</mgrwt>
</event>
<event>
 4    1  0.4732450E-002  0.4953007E+03  0.7818608E-02  0.1015013E+00
         21   -1    0    0  501  502  0.00000000000E+00  0.00000000000E+00  0.70319083308E+03  0.70319083308E+03  0.00000000000E+00 0.  1.
         21   -1    0    0  502  503 -0.00000000000E+00 -0.00000000000E+00 -0.49390289483E+03  0.49390289483E+03  0.00000000000E+00 0.  1.
    9000007    1    1    2  501    0  0.43528395149E+02  0.28883920401E+03  0.42899053894E+03  0.65525238608E+03  0.40000000000E+03 0.  1.
   -9000007    1    1    2    0  503 -0.43528395149E+02 -0.28883920401E+03 -0.21970260069E+03  0.54184134183E+03  0.40000000000E+03 0.  1.
<mgrwt>
<rscale>  2 0.49530072E+03</rscale>
<asrwt>0</asrwt>
<pdfrwt beam="1">  1       21 0.10818320E+00 0.49530072E+03</pdfrwt>
<pdfrwt beam="2">  1       21 0.75985061E-01 0.49530072E+03</pdfrwt>
<totfact> 0.87381367E+02</totfact>
</mgrwt>
</event>
<event>
 4    1  0.4732450E-002  0.4086696E+03  0.7818608E-02  0.1040818E+00
         21   -1    0    0  503  502  0.00000000000E+00  0.00000000000E+00  0.69458681939E+03  0.69458681939E+03  0.00000000000E+00 0. -1.
         21   -1    0    0  501  503 -0.00000000000E+00 -0.00000000000E+00 -0.26465394770E+03  0.26465394770E+03  0.00000000000E+00 0. -1.
    9000007    1    1    2  501    0 -0.39333473259E+02  0.73917212319E+02  0.69910952853E+02  0.41460634067E+03  0.40000000000E+03 0. -1.
   -9000007    1    1    2    0  502  0.39333473259E+02 -0.73917212319E+02  0.36002191884E+03  0.54463442642E+03  0.40000000000E+03 0. -1.
<mgrwt>
<rscale>  2 0.40866964E+03</rscale>
<asrwt>0</asrwt>
<pdfrwt beam="1">  1       21 0.10685951E+00 0.40866964E+03</pdfrwt>
<pdfrwt beam="2">  1       21 0.40715992E-01 0.40866964E+03</pdfrwt>
<totfact> 0.36022755E+03</totfact>
</mgrwt>
</event>
<event>
 4    1  0.4732450E-002  0.4136609E+03  0.7818608E-02  0.1039149E+00
         21   -1    0    0  503  502  0.00000000000E+00  0.00000000000E+00  0.47361993347E+03  0.47361993347E+03  0.00000000000E+00 0. -1.
         21   -1    0    0  501  503 -0.00000000000E+00 -0.00000000000E+00 -0.45880120097E+03  0.45880120097E+03  0.00000000000E+00 0. -1.
    9000007    1    1    2  501    0 -0.76629595689E+02 -0.72410052162E+02 -0.20751795002E+03  0.46279478192E+03  0.40000000000E+03 0. -1.
   -9000007    1    1    2    0  502  0.76629595689E+02  0.72410052162E+02  0.22233668253E+03  0.46962635253E+03  0.40000000000E+03 0. -1.
<mgrwt>
<rscale>  2 0.41366086E+03</rscale>
<asrwt>0</asrwt>
<pdfrwt beam="1">  1       21 0.72864605E-01 0.41366086E+03</pdfrwt>
<pdfrwt beam="2">  1       21 0.70584800E-01 0.41366086E+03</pdfrwt>
<totfact> 0.27166394E+03</totfact>
</mgrwt>
</event>
<event>
 4    1  0.4732450E-002  0.6161653E+03  0.7818608E-02  0.9872424E-01
         21   -1    0    0  501  502  0.00000000000E+00  0.00000000000E+00  0.27440860129E+04  0.27440860129E+04  0.00000000000E+00 0. -1.
         21   -1    0    0  502  503 -0.00000000000E+00 -0.00000000000E+00 -0.18095894714E+03  0.18095894714E+03  0.00000000000E+00 0.  1.
    9000007    1    1    2  501    0  0.58479544843E+02 -0.46501591312E+03  0.19911975065E+04  0.20843529372E+04  0.40000000000E+03 0. -1.
   -9000007    1    1    2    0  503 -0.58479544843E+02  0.46501591312E+03  0.57192955920E+03  0.84069202286E+03  0.40000000000E+03 0.  1.
<mgrwt>
<rscale>  2 0.61616528E+03</rscale>
<asrwt>0</asrwt>
<pdfrwt beam="1">  1       21 0.42216705E+00 0.61616528E+03</pdfrwt>
<pdfrwt beam="2">  1       21 0.27839840E-01 0.61616528E+03</pdfrwt>
<totfact> 0.52185470E+01</totfact>
</mgrwt>
</event>
<event>
 4    1  0.4732450E-002  0.6451982E+03  0.7818608E-02  0.9815831E-01
         21   -1    0    0  501  502  0.00000000000E+00  0.00000000000E+00  0.30154303047E+03  0.30154303047E+03  0.00000000000E+00 0.  1.
         21   -1    0    0  502  503 -0.00000000000E+00 -0.00000000000E+00 -0.13808173622E+04  0.13808173622E+04  0.00000000000E+00 0. -1.
    9000007    1    1    2  501    0 -0.36224637613E+03 -0.35363581681E+03 -0.52692290063E+03  0.83302369184E+03  0.40000000000E+03 0.  1.
   -9000007    1    1    2    0  503  0.36224637613E+03  0.35363581681E+03 -0.55235143110E+03  0.84933670084E+03  0.40000000000E+03 0. -1.
<mgrwt>
<rscale>  2 0.64519821E+03</rscale>
<asrwt>0</asrwt>
<pdfrwt beam="1">  1       21 0.46391236E-01 0.64519821E+03</pdfrwt>
<pdfrwt beam="2">  1       21 0.21243344E+00 0.64519821E+03</pdfrwt>
<totfact> 0.37554010E+02</totfact>
</mgrwt>
</event>
<event>
 4    1  0.4732450E-002  0.6270508E+03  0.7818608E-02  0.9850821E-01
         21   -1    0    0  501  502  0.00000000000E+00  0.00000000000E+00  0.21867419032E+04  0.21867419032E+04  0.00000000000E+00 0.  1.
         21   -1    0    0  502  503 -0.00000000000E+00 -0.00000000000E+00 -0.31392044327E+03  0.31392044327E+03  0.00000000000E+00 0. -1.
    9000007    1    1    2  501    0 -0.40142151607E+03  0.26842772066E+03  0.17536524841E+04  0.18623881737E+04  0.40000000000E+03 0.  1.
   -9000007    1    1    2    0  503  0.40142151607E+03 -0.26842772066E+03  0.11916897586E+03  0.63827417274E+03  0.40000000000E+03 0. -1.
<mgrwt>
<rscale>  2 0.62705078E+03</rscale>
<asrwt>0</asrwt>
<pdfrwt beam="1">  1       21 0.33642182E+00 0.62705078E+03</pdfrwt>
<pdfrwt beam="2">  1       21 0.48295454E-01 0.62705078E+03</pdfrwt>
<totfact> 0.58923852E+01</totfact>
</mgrwt>
</event>
<event>
 4    1  0.4732450E-002  0.4072584E+03  0.7818608E-02  0.1041295E+00
         21   -1    0    0  501  502  0.00000000000E+00  0.00000000000E+00  0.14578292084E+03  0.14578292084E+03  0.00000000000E+00 0.  1.
         21   -1    0    0  502  503 -0.00000000000E+00 -0.00000000000E+00 -0.11381120670E+04  0.11381120670E+04  0.00000000000E+00 0.  1.
    9000007    1    1    2  501    0  0.76435936847E+02 -0.41183265758E+01 -0.50815539926E+03  0.65121526614E+03  0.40000000000E+03 0. -1.
   -9000007    1    1    2    0  503 -0.76435936847E+02  0.41183265758E+01 -0.48417374689E+03  0.63267972169E+03  0.40000000000E+03 0. -1.
<mgrwt>
<rscale>  2 0.40725841E+03</rscale>
<asrwt>0</asrwt>
<pdfrwt beam="1">  1       21 0.22428142E-01 0.40725841E+03</pdfrwt>
<pdfrwt beam="2">  1       21 0.17509416E+00 0.40725841E+03</pdfrwt>
<totfact> 0.31976383E+03</totfact>
</mgrwt>
</event>
<event>
 4    1  0.4732450E-002  0.5032926E+03  0.7818608E-02  0.1012923E+00
         21   -1    0    0  501  502  0.00000000000E+00  0.00000000000E+00  0.97321388347E+02  0.97321388347E+02  0.00000000000E+00 0. -1.
         21   -1    0    0  502  503 -0.00000000000E+00 -0.00000000000E+00 -0.28325909266E+04  0.28325909266E+04  0.00000000000E+00 0.  1.
    9000007    1    1    2  501    0  0.27340613377E+03  0.13620777368E+03 -0.95033882320E+03  0.10753824206E+04  0.40000000000E+03 0.  1.
   -9000007    1    1    2    0  503 -0.27340613377E+03 -0.13620777368E+03 -0.17849307151E+04  0.18545298944E+04  0.40000000000E+03 0.  1.
<mgrwt>
<rscale>  2 0.50329263E+03</rscale>
<asrwt>0</asrwt>
<pdfrwt beam="1">  1       21 0.14972523E-01 0.50329263E+03</pdfrwt>
<pdfrwt beam="2">  1       21 0.43578318E+00 0.50329263E+03</pdfrwt>
<totfact> 0.14816245E+02</totfact>
</mgrwt>
</event>
<event>
 4    1  0.4732450E-002  0.4498600E+03  0.7818608E-02  0.1027764E+00
         21   -1    0    0  501  502  0.00000000000E+00  0.00000000000E+00  0.57000704587E+03  0.57000704587E+03  0.00000000000E+00 0.  1.
         21   -1    0    0  502  503 -0.00000000000E+00 -0.00000000000E+00 -0.35554275024E+03  0.35554275024E+03  0.00000000000E+00 0.  1.
    9000007    1    1    2  501    0  0.17145164357E+03  0.11392243576E+03  0.12467403637E+03  0.46681645515E+03  0.40000000000E+03 0. -1.
   -9000007    1    1    2    0  503 -0.17145164357E+03 -0.11392243576E+03  0.89790259261E+02  0.45873334096E+03  0.40000000000E+03 0. -1.
<mgrwt>
<rscale>  2 0.44985996E+03</rscale>
<asrwt>0</asrwt>
<pdfrwt beam="1">  1       21 0.87693391E-01 0.44985996E+03</pdfrwt>
<pdfrwt beam="2">  1       21 0.54698885E-01 0.44985996E+03</pdfrwt>
<totfact> 0.30651881E+03</totfact>
</mgrwt>
</event>
<event>
 4    1  0.4732450E-002  0.4906934E+03  0.7818608E-02  0.1016237E+00
         21   -1    0    0  503  502  0.00000000000E+00  0.00000000000E+00  0.81725682061E+03  0.81725682061E+03  0.00000000000E+00 0. -1.
         21   -1    0    0  501  503 -0.00000000000E+00 -0.00000000000E+00 -0.48606358642E+03  0.48606358642E+03  0.00000000000E+00 0. -1.
    9000007    1    1    2  501    0  0.27887340333E+03  0.54860021778E+02 -0.24337705867E+03  0.54773386764E+03  0.40000000000E+03 0. -1.
   -9000007    1    1    2    0  502 -0.27887340333E+03 -0.54860021778E+02  0.57457029286E+03  0.75558653939E+03  0.40000000000E+03 0. -1.
<mgrwt>
<rscale>  2 0.49069338E+03</rscale>
<asrwt>0</asrwt>
<pdfrwt beam="1">  1       21 0.12573182E+00 0.49069338E+03</pdfrwt>
<pdfrwt beam="2">  1       21 0.74779013E-01 0.49069338E+03</pdfrwt>
<totfact> 0.62114790E+02</totfact>
</mgrwt>
</event>
<event>
 4    1  0.4732450E-002  0.4772066E+03  0.7818608E-02  0.1019906E+00
         21   -1    0    0  501  502  0.00000000000E+00  0.00000000000E+00  0.12030251635E+03  0.12030251635E+03  0.00000000000E+00 0.  1.
         21   -1    0    0  502  503 -0.00000000000E+00 -0.00000000000E+00 -0.19842877865E+04  0.19842877865E+04  0.00000000000E+00 0. -1.
    9000007    1    1    2  501    0 -0.63872409984E+02 -0.25228239594E+03 -0.11577653595E+04  0.12522566509E+04  0.40000000000E+03 0. -1.
   -9000007    1    1    2    0  503  0.63872409984E+02  0.25228239594E+03 -0.70621991072E+03  0.85233365202E+03  0.40000000000E+03 0.  1.
<mgrwt>
<rscale>  2 0.47720655E+03</rscale>
<asrwt>0</asrwt>
<pdfrwt beam="1">  1       21 0.18508081E-01 0.47720655E+03</pdfrwt>
<pdfrwt beam="2">  1       21 0.30527502E+00 0.47720655E+03</pdfrwt>
<totfact> 0.66929942E+02</totfact>
</mgrwt>
</event>
<event>
 4    1  0.4732450E-002  0.4140571E+03  0.7818608E-02  0.1039018E+00
         21   -1    0    0  503  502  0.00000000000E+00  0.00000000000E+00  0.26395241903E+03  0.26395241903E+03  0.00000000000E+00 0. -1.
         21   -1    0    0  501  503 -0.00000000000E+00 -0.00000000000E+00 -0.69283585791E+03  0.69283585791E+03  0.00000000000E+00 0. -1.
    9000007    1    1    2  501    0 -0.87487320849E+02  0.61556929686E+02 -0.94829151123E+02  0.42477741795E+03  0.40000000000E+03 0. -1.
   -9000007    1    1    2    0  502  0.87487320849E+02 -0.61556929686E+02 -0.33405428776E+03  0.53201085898E+03  0.40000000000E+03 0. -1.
<mgrwt>
<rscale>  2 0.41405711E+03</rscale>
<asrwt>0</asrwt>
<pdfrwt beam="1">  1       21 0.40608065E-01 0.41405711E+03</pdfrwt>
<pdfrwt beam="2">  1       21 0.10659013E+00 0.41405711E+03</pdfrwt>
<totfact> 0.36371052E+03</totfact>
</mgrwt>
</event>
<event>
 4    1  0.4732450E-002  0.6888625E+03  0.7818608E-02  0.9736471E-01
         21   -1    0    0  503  502  0.00000000000E+00  0.00000000000E+00  0.16083542256E+04  0.16083542256E+04  0.00000000000E+00 0. -1.
         21   -1    0    0  501  503 -0.00000000000E+00 -0.00000000000E+00 -0.41568836334E+03  0.41568836334E+03  0.00000000000E+00 0.  1.
    9000007    1    1    2  501    0  0.51073796150E+03 -0.23168577300E+03  0.51123477859E+02  0.69075695633E+03  0.40000000000E+03 0. -1.
   -9000007    1    1    2    0  502 -0.51073796150E+03  0.23168577300E+03  0.11415423844E+04  0.13332856326E+04  0.40000000000E+03 0. -1.
<mgrwt>
<rscale>  2 0.68886251E+03</rscale>
<asrwt>0</asrwt>
<pdfrwt beam="1">  1       21 0.24743911E+00 0.68886251E+03</pdfrwt>
<pdfrwt beam="2">  1       21 0.63952057E-01 0.68886251E+03</pdfrwt>
<totfact> 0.10966270E+02</totfact>
</mgrwt>
</event>
<event>
 4    1  0.4732450E-002  0.7180060E+03  0.7818608E-02  0.9686926E-01
         21   -1    0    0  503  502  0.00000000000E+00  0.00000000000E+00  0.24734647922E+04  0.24734647922E+04  0.00000000000E+00 0. -1.
         21   -1    0    0  501  503 -0.00000000000E+00 -0.00000000000E+00 -0.39848391331E+03  0.39848391331E+03  0.00000000000E+00 0. -1.
    9000007    1    1    2  501    0  0.15718114604E+03 -0.57517532364E+03  0.45779510041E+02  0.71946391788E+03  0.40000000000E+03 0. -1.
   -9000007    1    1    2    0  502 -0.15718114604E+03  0.57517532364E+03  0.20292013688E+04  0.21524847876E+04  0.40000000000E+03 0. -1.
<mgrwt>
<rscale>  2 0.71800596E+03</rscale>
<asrwt>0</asrwt>
<pdfrwt beam="1">  1       21 0.38053304E+00 0.71800596E+03</pdfrwt>
<pdfrwt beam="2">  1       21 0.61305219E-01 0.71800596E+03</pdfrwt>
<totfact> 0.17770374E+01</totfact>
</mgrwt>
</event>
<event>
 4    1  0.4732450E-002  0.4315641E+03  0.7818608E-02  0.1033367E+00
         21   -1    0    0  501  502  0.00000000000E+00  0.00000000000E+00  0.20115187965E+03  0.20115187965E+03  0.00000000000E+00 0. -1.
         21   -1    0    0  502  503 -0.00000000000E+00 -0.00000000000E+00 -0.12964133976E+04  0.12964133976E+04  0.00000000000E+00 0.  1.
    9000007    1    1    2  501    0  0.26113499649E+02  0.15989250981E+03 -0.14733310631E+03  0.45602036552E+03  0.40000000000E+03 0. -1.
   -9000007    1    1    2    0  503 -0.26113499649E+02 -0.15989250981E+03 -0.94792841167E+03  0.10415449118E+04  0.40000000000E+03 0.  1.
<mgrwt>
<rscale>  2 0.43156405E+03</rscale>
<asrwt>0</asrwt>
<pdfrwt beam="1">  1       21 0.30946443E-01 0.43156405E+03</pdfrwt>
<pdfrwt beam="2">  1       21 0.19944821E+00 0.43156405E+03</pdfrwt>
<totfact> 0.11455900E+03</totfact>
</mgrwt>
</event>
<event>
 4    1  0.4732450E-002  0.5406051E+03  0.7818608E-02  0.1003692E+00
         21   -1    0    0  503  502  0.00000000000E+00  0.00000000000E+00  0.35542429761E+03  0.35542429761E+03  0.00000000000E+00 0. -1.
         21   -1    0    0  501  503 -0.00000000000E+00 -0.00000000000E+00 -0.14935002862E+04  0.14935002862E+04  0.00000000000E+00 0.  1.
    9000007    1    1    2  501    0  0.35318732938E+03 -0.86675350647E+02 -0.11887973261E+04  0.13059452471E+04  0.40000000000E+03 0.  1.
   -9000007    1    1    2    0  502 -0.35318732938E+03  0.86675350647E+02  0.50721337422E+02  0.54297933673E+03  0.40000000000E+03 0.  1.
<mgrwt>
<rscale>  2 0.54060513E+03</rscale>
<asrwt>0</asrwt>
<pdfrwt beam="1">  1       21 0.54680660E-01 0.54060513E+03</pdfrwt>
<pdfrwt beam="2">  1       21 0.22976928E+00 0.54060513E+03</pdfrwt>
<totfact> 0.21266136E+02</totfact>
</mgrwt>
</event>
<event>
 4    1  0.4732450E-002  0.4322938E+03  0.7818608E-02  0.1033138E+00
         21   -1    0    0  501  502  0.00000000000E+00  0.00000000000E+00  0.34564931164E+03  0.34564931164E+03  0.00000000000E+00 0.  1.
         21   -1    0    0  502  503 -0.00000000000E+00 -0.00000000000E+00 -0.62047869875E+03  0.62047869875E+03  0.00000000000E+00 0. -1.
    9000007    1    1    2  501    0  0.15026833750E+03 -0.65554130329E+02  0.35846048154E+02  0.43377742729E+03  0.40000000000E+03 0.  1.
   -9000007    1    1    2    0  503 -0.15026833750E+03  0.65554130329E+02 -0.31067543525E+03  0.53235058310E+03  0.40000000000E+03 0. -1.
<mgrwt>
<rscale>  2 0.43229379E+03</rscale>
<asrwt>0</asrwt>
<pdfrwt beam="1">  1       21 0.53176818E-01 0.43229379E+03</pdfrwt>
<pdfrwt beam="2">  1       21 0.95458261E-01 0.43229379E+03</pdfrwt>
<totfact> 0.26795568E+03</totfact>
</mgrwt>
</event>
<event>
 4    1  0.4732450E-002  0.4021914E+03  0.7818608E-02  0.1043024E+00
         21   -1    0    0  503  502  0.00000000000E+00  0.00000000000E+00  0.39623546366E+03  0.39623546366E+03  0.00000000000E+00 0. -1.
         21   -1    0    0  501  503 -0.00000000000E+00 -0.00000000000E+00 -0.54220781174E+03  0.54220781174E+03  0.00000000000E+00 0. -1.
    9000007    1    1    2  501    0 -0.33472006591E+02 -0.25249002438E+02 -0.30622487122E+03  0.50550129486E+03  0.40000000000E+03 0. -1.
   -9000007    1    1    2    0  502  0.33472006591E+02  0.25249002438E+02  0.16025252313E+03  0.43294198055E+03  0.40000000000E+03 0. -1.
<mgrwt>
<rscale>  2 0.40219136E+03</rscale>
<asrwt>0</asrwt>
<pdfrwt beam="1">  1       21 0.60959302E-01 0.40219136E+03</pdfrwt>
<pdfrwt beam="2">  1       21 0.83416586E-01 0.40219136E+03</pdfrwt>
<totfact> 0.27716729E+03</totfact>
</mgrwt>
</event>
<event>
 4    1  0.4732450E-002  0.4439415E+03  0.7818608E-02  0.1029544E+00
         21   -1    0    0  501  502  0.00000000000E+00  0.00000000000E+00  0.90042994767E+03  0.90042994767E+03  0.00000000000E+00 0. -1.
         21   -1    0    0  502  503 -0.00000000000E+00 -0.00000000000E+00 -0.32179889954E+03  0.32179889954E+03  0.00000000000E+00 0. -1.
    9000007    1    1    2  501    0 -0.31776579661E+02 -0.18993243656E+03  0.63492255557E+03  0.77473268489E+03  0.40000000000E+03 0. -1.
   -9000007    1    1    2    0  503  0.31776579661E+02  0.18993243656E+03 -0.56291507441E+02  0.44749616231E+03  0.40000000000E+03 0. -1.
<mgrwt>
<rscale>  2 0.44394153E+03</rscale>
<asrwt>0</asrwt>
<pdfrwt beam="1">  1       21 0.13852768E+00 0.44394153E+03</pdfrwt>
<pdfrwt beam="2">  1       21 0.49507523E-01 0.44394153E+03</pdfrwt>
<totfact> 0.12185374E+03</totfact>
</mgrwt>
</event>
<event>
 4    1  0.4732450E-002  0.5593999E+03  0.7818608E-02  0.9993413E-01
         21   -1    0    0  503  502  0.00000000000E+00  0.00000000000E+00  0.15079702772E+04  0.15079702772E+04  0.00000000000E+00 0. -1.
         21   -1    0    0  501  503 -0.00000000000E+00 -0.00000000000E+00 -0.25210433805E+03  0.25210433805E+03  0.00000000000E+00 0. -1.
    9000007    1    1    2  501    0 -0.32756828728E+03  0.21360548246E+03  0.25783174889E+03  0.61595900489E+03  0.40000000000E+03 0. -1.
   -9000007    1    1    2    0  502  0.32756828728E+03 -0.21360548246E+03  0.99803419027E+03  0.11441156104E+04  0.40000000000E+03 0. -1.
<mgrwt>
<rscale>  2 0.55939993E+03</rscale>
<asrwt>0</asrwt>
<pdfrwt beam="1">  1       21 0.23199542E+00 0.55939993E+03</pdfrwt>
<pdfrwt beam="2">  1       21 0.38785284E-01 0.55939993E+03</pdfrwt>
<totfact> 0.42169848E+02</totfact>
</mgrwt>
</event>
<event>
 4    1  0.4732450E-002  0.4271419E+03  0.7818608E-02  0.1034767E+00
         21   -1    0    0  503  502  0.00000000000E+00  0.00000000000E+00  0.17348640102E+03  0.17348640102E+03  0.00000000000E+00 0. -1.
         21   -1    0    0  501  503 -0.00000000000E+00 -0.00000000000E+00 -0.10779847441E+04  0.10779847441E+04  0.00000000000E+00 0. -1.
    9000007    1    1    2  501    0 -0.62765055455E+02  0.13605406775E+03 -0.55001734866E+03  0.69639733296E+03  0.40000000000E+03 0. -1.
   -9000007    1    1    2    0  502  0.62765055455E+02 -0.13605406775E+03 -0.35448099446E+03  0.55507381219E+03  0.40000000000E+03 0. -1.
<mgrwt>
<rscale>  2 0.42714185E+03</rscale>
<asrwt>0</asrwt>
<pdfrwt beam="1">  1       21 0.26690216E-01 0.42714185E+03</pdfrwt>
<pdfrwt beam="2">  1       21 0.16584380E+00 0.42714185E+03</pdfrwt>
<totfact> 0.26408816E+03</totfact>
</mgrwt>
</event>
<event>
 4    1  0.4732450E-002  0.4738094E+03  0.7818608E-02  0.1020851E+00
         21   -1    0    0  501  502  0.00000000000E+00  0.00000000000E+00  0.23208855552E+04  0.23208855552E+04  0.00000000000E+00 0. -1.
         21   -1    0    0  502  503 -0.00000000000E+00 -0.00000000000E+00 -0.96742497440E+02  0.96742497440E+02  0.00000000000E+00 0. -1.
    9000007    1    1    2  501    0 -0.53274827311E+02 -0.24830853255E+03  0.11267108840E+04  0.12222817804E+04  0.40000000000E+03 0. -1.
   -9000007    1    1    2    0  503  0.53274827311E+02  0.24830853255E+03  0.10974321738E+04  0.11953462723E+04  0.40000000000E+03 0. -1.
<mgrwt>
<rscale>  2 0.47380939E+03</rscale>
<asrwt>0</asrwt>
<pdfrwt beam="1">  1       21 0.35705927E+00 0.47380939E+03</pdfrwt>
<pdfrwt beam="2">  1       21 0.14883463E-01 0.47380939E+03</pdfrwt>
<totfact> 0.48801388E+02</totfact>
</mgrwt>
</event>
<event>
 4    1  0.4732450E-002  0.4332648E+03  0.7818608E-02  0.1032834E+00
         21   -1    0    0  503  502  0.00000000000E+00  0.00000000000E+00  0.47791014135E+03  0.47791014135E+03  0.00000000000E+00 0.  1.
         21   -1    0    0  501  503 -0.00000000000E+00 -0.00000000000E+00 -0.78949922765E+03  0.78949922765E+03  0.00000000000E+00 0. -1.
    9000007    1    1    2  501    0 -0.22709895362E+02 -0.16493237573E+03 -0.60500214333E+03  0.74414113000E+03  0.40000000000E+03 0. -1.
   -9000007    1    1    2    0  502  0.22709895362E+02  0.16493237573E+03  0.29341305704E+03  0.52326823901E+03  0.40000000000E+03 0.  1.
<mgrwt>
<rscale>  2 0.43326485E+03</rscale>
<asrwt>0</asrwt>
<pdfrwt beam="1">  1       21 0.73524638E-01 0.43326485E+03</pdfrwt>
<pdfrwt beam="2">  1       21 0.12146142E+00 0.43326485E+03</pdfrwt>
<totfact> 0.72303562E+02</totfact>
</mgrwt>
</event>
<event>
 4    1  0.4732450E-002  0.4330951E+03  0.7818608E-02  0.1032887E+00
         21   -1    0    0  503  502  0.00000000000E+00  0.00000000000E+00  0.45273328815E+03  0.45273328815E+03  0.00000000000E+00 0. -1.
         21   -1    0    0  501  503 -0.00000000000E+00 -0.00000000000E+00 -0.54523336711E+03  0.54523336711E+03  0.00000000000E+00 0. -1.
    9000007    1    1    2  501    0  0.16296268772E+03 -0.31851874554E+02 -0.29076498892E+03  0.52164706295E+03  0.40000000000E+03 0. -1.
   -9000007    1    1    2    0  502 -0.16296268772E+03  0.31851874554E+02  0.19826490996E+03  0.47631959231E+03  0.40000000000E+03 0. -1.
<mgrwt>
<rscale>  2 0.43309512E+03</rscale>
<asrwt>0</asrwt>
<pdfrwt beam="1">  1       21 0.69651275E-01 0.43309512E+03</pdfrwt>
<pdfrwt beam="2">  1       21 0.83882056E-01 0.43309512E+03</pdfrwt>
<totfact> 0.20105297E+03</totfact>
</mgrwt>
</event>
<event>
 4    1  0.4732450E-002  0.4594269E+03  0.7818608E-02  0.1024948E+00
         21   -1    0    0  503  502  0.00000000000E+00  0.00000000000E+00  0.88519247160E+03  0.88519247160E+03  0.00000000000E+00 0. -1.
         21   -1    0    0  501  503 -0.00000000000E+00 -0.00000000000E+00 -0.23973536647E+03  0.23973536647E+03  0.00000000000E+00 0. -1.
    9000007    1    1    2  501    0 -0.20045774464E+03 -0.10435411504E+03  0.28152415497E+03  0.53882180593E+03  0.40000000000E+03 0. -1.
   -9000007    1    1    2    0  502  0.20045774464E+03  0.10435411504E+03  0.36393295015E+03  0.58610603214E+03  0.40000000000E+03 0. -1.
<mgrwt>
<rscale>  2 0.45942691E+03</rscale>
<asrwt>0</asrwt>
<pdfrwt beam="1">  1       21 0.13618346E+00 0.45942691E+03</pdfrwt>
<pdfrwt beam="2">  1       21 0.36882364E-01 0.45942691E+03</pdfrwt>
<totfact> 0.23371503E+03</totfact>
</mgrwt>
</event>
<event>
 4    1  0.4732450E-002  0.4542985E+03  0.7818608E-02  0.1026448E+00
         21   -1    0    0  501  502  0.00000000000E+00  0.00000000000E+00  0.91054657052E+03  0.91054657052E+03  0.00000000000E+00 0.  1.
         21   -1    0    0  502  503 -0.00000000000E+00 -0.00000000000E+00 -0.37779460644E+03  0.37779460644E+03  0.00000000000E+00 0.  1.
    9000007    1    1    2  501    0 -0.12119430047E+03  0.17804244958E+03  0.67380385397E+03  0.81264925149E+03  0.40000000000E+03 0.  1.
   -9000007    1    1    2    0  503  0.12119430047E+03 -0.17804244958E+03 -0.14105188988E+03  0.47569192547E+03  0.40000000000E+03 0.  1.
<mgrwt>
<rscale>  2 0.45429855E+03</rscale>
<asrwt>0</asrwt>
<pdfrwt beam="1">  1       21 0.14008409E+00 0.45429855E+03</pdfrwt>
<pdfrwt beam="2">  1       21 0.58122247E-01 0.45429855E+03</pdfrwt>
<totfact> 0.83405062E+02</totfact>
</mgrwt>
</event>
<event>
 4    1  0.4732450E-002  0.7742892E+03  0.7818608E-02  0.9597997E-01
         21   -1    0    0  501  502  0.00000000000E+00  0.00000000000E+00  0.27850698922E+03  0.27850698922E+03  0.00000000000E+00 0.  1.
         21   -1    0    0  502  503 -0.00000000000E+00 -0.00000000000E+00 -0.23214972555E+04  0.23214972555E+04  0.00000000000E+00 0. -1.
    9000007    1    1    2  501    0 -0.60120253868E+03  0.27942657671E+03 -0.67088284167E+03  0.10245035342E+04  0.40000000000E+03 0.  1.
   -9000007    1    1    2    0  503  0.60120253868E+03 -0.27942657671E+03 -0.13721074246E+04  0.15755007106E+04  0.40000000000E+03 0. -1.
<mgrwt>
<rscale>  2 0.77428916E+03</rscale>
<asrwt>0</asrwt>
<pdfrwt beam="1">  1       21 0.42847230E-01 0.77428916E+03</pdfrwt>
<pdfrwt beam="2">  1       21 0.35715342E+00 0.77428916E+03</pdfrwt>
<totfact> 0.52948798E+01</totfact>
</mgrwt>
</event>
<event>
 4    1  0.4732450E-002  0.4572391E+03  0.7818608E-02  0.1025585E+00
         21   -1    0    0  503  502  0.00000000000E+00  0.00000000000E+00  0.52130994460E+03  0.52130994460E+03  0.00000000000E+00 0.  1.
         21   -1    0    0  501  503 -0.00000000000E+00 -0.00000000000E+00 -0.53105143011E+03  0.53105143011E+03  0.00000000000E+00 0. -1.
    9000007    1    1    2  501    0  0.16594700320E+03  0.14672815188E+03  0.25547641237E+03  0.52377070909E+03  0.40000000000E+03 0.  1.
   -9000007    1    1    2    0  502 -0.16594700320E+03 -0.14672815188E+03 -0.26521789788E+03  0.52859066562E+03  0.40000000000E+03 0. -1.
<mgrwt>
<rscale>  2 0.45723906E+03</rscale>
<asrwt>0</asrwt>
<pdfrwt beam="1">  1       21 0.80201530E-01 0.45723906E+03</pdfrwt>
<pdfrwt beam="2">  1       21 0.81700220E-01 0.45723906E+03</pdfrwt>
<totfact> 0.15355629E+03</totfact>
</mgrwt>
</event>
<event>
 4    1  0.4732450E-002  0.5455358E+03  0.7818608E-02  0.1002533E+00
         21   -1    0    0  503  502  0.00000000000E+00  0.00000000000E+00  0.20394523193E+04  0.20394523193E+04  0.00000000000E+00 0.  1.
         21   -1    0    0  501  503 -0.00000000000E+00 -0.00000000000E+00 -0.15291367222E+03  0.15291367222E+03  0.00000000000E+00 0. -1.
    9000007    1    1    2  501    0 -0.27104203963E+03  0.25326960380E+03  0.70894157403E+03  0.89454314309E+03  0.40000000000E+03 0. -1.
   -9000007    1    1    2    0  502  0.27104203963E+03 -0.25326960380E+03  0.11775970730E+04  0.12978228484E+04  0.40000000000E+03 0.  1.
<mgrwt>
<rscale>  2 0.54553577E+03</rscale>
<asrwt>0</asrwt>
<pdfrwt beam="1">  1       21 0.31376188E+00 0.54553577E+03</pdfrwt>
<pdfrwt beam="2">  1       21 0.23525182E-01 0.54553577E+03</pdfrwt>
<totfact> 0.36289788E+02</totfact>
</mgrwt>
</event>
<event>
 4    1  0.4732450E-002  0.5633534E+03  0.7818608E-02  0.9984495E-01
         21   -1    0    0  501  502  0.00000000000E+00  0.00000000000E+00  0.66297553702E+03  0.66297553702E+03  0.00000000000E+00 0.  1.
         21   -1    0    0  502  503 -0.00000000000E+00 -0.00000000000E+00 -0.56907295832E+03  0.56907295832E+03  0.00000000000E+00 0.  1.
    9000007    1    1    2  501    0  0.13281184889E+03 -0.37380215593E+03  0.29243954975E+03  0.63473453446E+03  0.40000000000E+03 0.  1.
   -9000007    1    1    2    0  503 -0.13281184889E+03  0.37380215593E+03 -0.19853697106E+03  0.59731396088E+03  0.40000000000E+03 0.  1.
<mgrwt>
<rscale>  2 0.56335339E+03</rscale>
<asrwt>0</asrwt>
<pdfrwt beam="1">  1       21 0.10199624E+00 0.56335339E+03</pdfrwt>
<pdfrwt beam="2">  1       21 0.87549686E-01 0.56335339E+03</pdfrwt>
<totfact> 0.70927237E+02</totfact>
</mgrwt>
</event>
<event>
 4    1  0.4732450E-002  0.4446080E+03  0.7818608E-02  0.1029342E+00
         21   -1    0    0  501  502  0.00000000000E+00  0.00000000000E+00  0.95401181708E+03  0.95401181708E+03  0.00000000000E+00 0. -1.
         21   -1    0    0  502  503 -0.00000000000E+00 -0.00000000000E+00 -0.22130590118E+03  0.22130590118E+03  0.00000000000E+00 0. -1.
    9000007    1    1    2  501    0 -0.13460926920E+03  0.13984497473E+03  0.51468949247E+03  0.68013347659E+03  0.40000000000E+03 0. -1.
   -9000007    1    1    2    0  503  0.13460926920E+03 -0.13984497473E+03  0.21801642343E+03  0.49518424167E+03  0.40000000000E+03 0. -1.
<mgrwt>
<rscale>  2 0.44460800E+03</rscale>
<asrwt>0</asrwt>
<pdfrwt beam="1">  1       21 0.14677105E+00 0.44460800E+03</pdfrwt>
<pdfrwt beam="2">  1       21 0.34047062E-01 0.44460800E+03</pdfrwt>
<totfact> 0.22635622E+03</totfact>
</mgrwt>
</event>
<event>
 4    1  0.4732450E-002  0.4853242E+03  0.7818608E-02  0.1017682E+00
         21   -1    0    0  501  502  0.00000000000E+00  0.00000000000E+00  0.56471990552E+03  0.56471990552E+03  0.00000000000E+00 0.  1.
         21   -1    0    0  502  503 -0.00000000000E+00 -0.00000000000E+00 -0.50579348485E+03  0.50579348485E+03  0.00000000000E+00 0. -1.
    9000007    1    1    2  501    0 -0.20638331255E+03 -0.18150901596E+03  0.25361559657E+03  0.54759516561E+03  0.40000000000E+03 0.  1.
   -9000007    1    1    2    0  503  0.20638331255E+03  0.18150901596E+03 -0.19468917590E+03  0.52291822476E+03  0.40000000000E+03 0. -1.
<mgrwt>
<rscale>  2 0.48532422E+03</rscale>
<asrwt>0</asrwt>
<pdfrwt beam="1">  1       21 0.86879985E-01 0.48532422E+03</pdfrwt>
<pdfrwt beam="2">  1       21 0.77814382E-01 0.48532422E+03</pdfrwt>
<totfact> 0.14110713E+03</totfact>
</mgrwt>
</event>
<event>
 4    1  0.4732450E-002  0.4695071E+03  0.7818608E-02  0.1022059E+00
         21   -1    0    0  503  502  0.00000000000E+00  0.00000000000E+00  0.55480895701E+03  0.55480895701E+03  0.00000000000E+00 0. -1.
         21   -1    0    0  501  503 -0.00000000000E+00 -0.00000000000E+00 -0.76763993129E+03  0.76763993129E+03  0.00000000000E+00 0.  1.
    9000007    1    1    2  501    0  0.70892825549E+02  0.23539558490E+03 -0.56567533261E+03  0.73513635200E+03  0.40000000000E+03 0.  1.
   -9000007    1    1    2    0  502 -0.70892825549E+02 -0.23539558490E+03  0.35284435833E+03  0.58731253631E+03  0.40000000000E+03 0. -1.
<mgrwt>
<rscale>  2 0.46950705E+03</rscale>
<asrwt>0</asrwt>
<pdfrwt beam="1">  1       21 0.85355224E-01 0.46950705E+03</pdfrwt>
<pdfrwt beam="2">  1       21 0.11809845E+00 0.46950705E+03</pdfrwt>
<totfact> 0.54175125E+02</totfact>
</mgrwt>
</event>
<event>
 4    1  0.4732450E-002  0.4265144E+03  0.7818608E-02  0.1034967E+00
         21   -1    0    0  503  502  0.00000000000E+00  0.00000000000E+00  0.72090707883E+03  0.72090707883E+03  0.00000000000E+00 0.  1.
         21   -1    0    0  501  503 -0.00000000000E+00 -0.00000000000E+00 -0.90189033220E+03  0.90189033220E+03  0.00000000000E+00 0.  1.
    9000007    1    1    2  501    0 -0.14293352057E+03  0.38529777985E+02 -0.77908598233E+03  0.88819451865E+03  0.40000000000E+03 0.  1.
   -9000007    1    1    2    0  502  0.14293352057E+03 -0.38529777985E+02  0.59810272897E+03  0.73460289238E+03  0.40000000000E+03 0.  1.
<mgrwt>
<rscale>  2 0.42651440E+03</rscale>
<asrwt>0</asrwt>
<pdfrwt beam="1">  1       21 0.11090878E+00 0.42651440E+03</pdfrwt>
<pdfrwt beam="2">  1       21 0.13875236E+00 0.42651440E+03</pdfrwt>
<totfact> 0.19375349E+02</totfact>
</mgrwt>
</event>
<event>
 4    1  0.4732450E-002  0.5694233E+03  0.7818608E-02  0.9970955E-01
         21   -1    0    0  501  502  0.00000000000E+00  0.00000000000E+00  0.86956119934E+03  0.86956119934E+03  0.00000000000E+00 0.  1.
         21   -1    0    0  502  503 -0.00000000000E+00 -0.00000000000E+00 -0.37970156145E+03  0.37970156145E+03  0.00000000000E+00 0. -1.
    9000007    1    1    2  501    0  0.38779274953E+03 -0.11772733174E+03  0.32864598179E+03  0.65745807667E+03  0.40000000000E+03 0.  1.
   -9000007    1    1    2    0  503 -0.38779274953E+03  0.11772733174E+03  0.16121365610E+03  0.59180468411E+03  0.40000000000E+03 0.  1.
<mgrwt>
<rscale>  2 0.56942334E+03</rscale>
<asrwt>0</asrwt>
<pdfrwt beam="1">  1       21 0.13377865E+00 0.56942334E+03</pdfrwt>
<pdfrwt beam="2">  1       21 0.58415625E-01 0.56942334E+03</pdfrwt>
<totfact> 0.89233811E+02</totfact>
</mgrwt>
</event>
<event>
 4    1  0.4732450E-002  0.4455415E+03  0.7818608E-02  0.1029060E+00
         21   -1    0    0  501  502  0.00000000000E+00  0.00000000000E+00  0.70736879051E+03  0.70736879051E+03  0.00000000000E+00 0.  1.
         21   -1    0    0  502  503 -0.00000000000E+00 -0.00000000000E+00 -0.38307644057E+03  0.38307644057E+03  0.00000000000E+00 0.  1.
    9000007    1    1    2  501    0 -0.12977102100E+03 -0.14719623060E+03  0.44410425042E+03  0.62907537977E+03  0.40000000000E+03 0.  1.
   -9000007    1    1    2    0  503  0.12977102100E+03  0.14719623060E+03 -0.11981190048E+03  0.46136985130E+03  0.40000000000E+03 0.  1.
<mgrwt>
<rscale>  2 0.44554152E+03</rscale>
<asrwt>0</asrwt>
<pdfrwt beam="1">  1       21 0.10882597E+00 0.44554152E+03</pdfrwt>
<pdfrwt beam="2">  1       21 0.58934837E-01 0.44554152E+03</pdfrwt>
<totfact> 0.15499768E+03</totfact>
</mgrwt>
</event>
<event>
 4    1  0.4732450E-002  0.4226750E+03  0.7818608E-02  0.1036199E+00
         21   -1    0    0  501  502  0.00000000000E+00  0.00000000000E+00  0.64818335536E+03  0.64818335536E+03  0.00000000000E+00 0.  1.
         21   -1    0    0  502  503 -0.00000000000E+00 -0.00000000000E+00 -0.58523008584E+03  0.58523008584E+03  0.00000000000E+00 0.  1.
    9000007    1    1    2  501    0 -0.11925118947E+03  0.66582986363E+02  0.48003701757E+03  0.63960118707E+03  0.40000000000E+03 0.  1.
   -9000007    1    1    2    0  503  0.11925118947E+03 -0.66582986363E+02 -0.41708374806E+03  0.59381225413E+03  0.40000000000E+03 0.  1.
<mgrwt>
<rscale>  2 0.42267498E+03</rscale>
<asrwt>0</asrwt>
<pdfrwt beam="1">  1       21 0.99720516E-01 0.42267498E+03</pdfrwt>
<pdfrwt beam="2">  1       21 0.90035398E-01 0.42267498E+03</pdfrwt>
<totfact> 0.74130619E+02</totfact>
</mgrwt>
</event>
<event>
 4    1  0.4732450E-002  0.4017373E+03  0.7818608E-02  0.1043180E+00
         21   -1    0    0  501  502  0.00000000000E+00  0.00000000000E+00  0.14298758732E+04  0.14298758732E+04  0.00000000000E+00 0. -1.
         21   -1    0    0  502  503 -0.00000000000E+00 -0.00000000000E+00 -0.15985534945E+03  0.15985534945E+03  0.00000000000E+00 0. -1.
    9000007    1    1    2  501    0  0.22830758396E+02  0.29522913552E+02  0.10659360091E+04  0.11391279214E+04  0.40000000000E+03 0. -1.
   -9000007    1    1    2    0  503 -0.22830758396E+02 -0.29522913552E+02  0.20408451470E+03  0.45060330125E+03  0.40000000000E+03 0. -1.
<mgrwt>
<rscale>  2 0.40173728E+03</rscale>
<asrwt>0</asrwt>
<pdfrwt beam="1">  1       21 0.21998090E+00 0.40173728E+03</pdfrwt>
<pdfrwt beam="2">  1       21 0.24593132E-01 0.40173728E+03</pdfrwt>
<totfact> 0.13424327E+03</totfact>
</mgrwt>
</event>
<event>
 4    1  0.4732450E-002  0.5273403E+03  0.7818608E-02  0.1006879E+00
         21   -1    0    0  501  502  0.00000000000E+00  0.00000000000E+00  0.39268274473E+03  0.39268274473E+03  0.00000000000E+00 0.  1.
         21   -1    0    0  502  503 -0.00000000000E+00 -0.00000000000E+00 -0.70875241803E+03  0.70875241803E+03  0.00000000000E+00 0.  1.
    9000007    1    1    2  501    0  0.29937201222E+03 -0.16871322870E+03 -0.14230372624E+03  0.54620335567E+03  0.40000000000E+03 0.  1.
   -9000007    1    1    2    0  503 -0.29937201222E+03  0.16871322870E+03 -0.17376594706E+03  0.55523180709E+03  0.40000000000E+03 0.  1.
<mgrwt>
<rscale>  2 0.52734027E+03</rscale>
<asrwt>0</asrwt>
<pdfrwt beam="1">  1       21 0.60412730E-01 0.52734027E+03</pdfrwt>
<pdfrwt beam="2">  1       21 0.10903883E+00 0.52734027E+03</pdfrwt>
<totfact> 0.14180610E+03</totfact>
</mgrwt>
</event>
<event>
 4    1  0.4732450E-002  0.4048883E+03  0.7818608E-02  0.1042100E+00
         21   -1    0    0  501  502  0.00000000000E+00  0.00000000000E+00  0.17154658867E+04  0.17154658867E+04  0.00000000000E+00 0.  1.
         21   -1    0    0  502  503 -0.00000000000E+00 -0.00000000000E+00 -0.96323175350E+02  0.96323175350E+02  0.00000000000E+00 0.  1.
    9000007    1    1    2  501    0  0.10935885753E+00  0.62725552491E+02  0.72907757941E+03  0.83395960555E+03  0.40000000000E+03 0.  1.
   -9000007    1    1    2    0  503 -0.10935885753E+00 -0.62725552491E+02  0.89006513192E+03  0.97782945648E+03  0.40000000000E+03 0.  1.
<mgrwt>
<rscale>  2 0.40488826E+03</rscale>
<asrwt>0</asrwt>
<pdfrwt beam="1">  1       21 0.26391781E+00 0.40488826E+03</pdfrwt>
<pdfrwt beam="2">  1       21 0.14818951E-01 0.40488826E+03</pdfrwt>
<totfact> 0.18703219E+03</totfact>
</mgrwt>
</event>
<event>
 4    1  0.4732450E-002  0.4178664E+03  0.7818608E-02  0.1037763E+00
         21   -1    0    0  503  502  0.00000000000E+00  0.00000000000E+00  0.97542641314E+03  0.97542641314E+03  0.00000000000E+00 0. -1.
         21   -1    0    0  501  503 -0.00000000000E+00 -0.00000000000E+00 -0.22795608777E+03  0.22795608777E+03  0.00000000000E+00 0. -1.
    9000007    1    1    2  501    0 -0.97293495066E+02 -0.71737829273E+02  0.94929642171E+02  0.42851368390E+03  0.40000000000E+03 0. -1.
   -9000007    1    1    2    0  502  0.97293495066E+02  0.71737829273E+02  0.65254068320E+03  0.77486881700E+03  0.40000000000E+03 0. -1.
<mgrwt>
<rscale>  2 0.41786641E+03</rscale>
<asrwt>0</asrwt>
<pdfrwt beam="1">  1       21 0.15006560E+00 0.41786641E+03</pdfrwt>
<pdfrwt beam="2">  1       21 0.35070168E-01 0.41786641E+03</pdfrwt>
<totfact> 0.20301162E+03</totfact>
</mgrwt>
</event>
<event>
 4    1  0.4732450E-002  0.5778370E+03  0.7818608E-02  0.9952485E-01
         21   -1    0    0  501  502  0.00000000000E+00  0.00000000000E+00  0.41621751862E+03  0.41621751862E+03  0.00000000000E+00 0.  1.
         21   -1    0    0  502  503 -0.00000000000E+00 -0.00000000000E+00 -0.11405474419E+04  0.11405474419E+04  0.00000000000E+00 0.  1.
    9000007    1    1    2  501    0  0.37500331776E+03  0.18239533827E+03  0.61779334311E+02  0.58113013508E+03  0.40000000000E+03 0.  1.
   -9000007    1    1    2    0  503 -0.37500331776E+03 -0.18239533827E+03 -0.78610925762E+03  0.97563482547E+03  0.40000000000E+03 0.  1.
<mgrwt>
<rscale>  2 0.57783696E+03</rscale>
<asrwt>0</asrwt>
<pdfrwt beam="1">  1       21 0.64033464E-01 0.57783696E+03</pdfrwt>
<pdfrwt beam="2">  1       21 0.17546884E+00 0.57783696E+03</pdfrwt>
<totfact> 0.34286689E+02</totfact>
</mgrwt>
</event>
<event>
 4    1  0.4732450E-002  0.5344822E+03  0.7818608E-02  0.1005151E+00
         21   -1    0    0  503  502  0.00000000000E+00  0.00000000000E+00  0.12873606361E+04  0.12873606361E+04  0.00000000000E+00 0. -1.
         21   -1    0    0  501  503 -0.00000000000E+00 -0.00000000000E+00 -0.25857409068E+03  0.25857409068E+03  0.00000000000E+00 0. -1.
    9000007    1    1    2  501    0  0.26453951356E+03  0.23598742721E+03  0.22330734037E+03  0.57925589190E+03  0.40000000000E+03 0. -1.
   -9000007    1    1    2    0  502 -0.26453951356E+03 -0.23598742721E+03  0.80547920506E+03  0.96667883489E+03  0.40000000000E+03 0. -1.
<mgrwt>
<rscale>  2 0.53448220E+03</rscale>
<asrwt>0</asrwt>
<pdfrwt beam="1">  1       21 0.19805548E+00 0.53448220E+03</pdfrwt>
<pdfrwt beam="2">  1       21 0.39780630E-01 0.53448220E+03</pdfrwt>
<totfact> 0.67288307E+02</totfact>
</mgrwt>
</event>
<event>
 4    1  0.4732450E-002  0.4422118E+03  0.7818608E-02  0.1030070E+00
         21   -1    0    0  503  502  0.00000000000E+00  0.00000000000E+00  0.56534348589E+03  0.56534348589E+03  0.00000000000E+00 0.  1.
         21   -1    0    0  501  503 -0.00000000000E+00 -0.00000000000E+00 -0.44053374165E+03  0.44053374165E+03  0.00000000000E+00 0.  1.
    9000007    1    1    2  501    0  0.11258934295E+03  0.15124459936E+03 -0.17070064291E+03  0.47401476609E+03  0.40000000000E+03 0.  1.
   -9000007    1    1    2    0  502 -0.11258934295E+03 -0.15124459936E+03  0.29551038715E+03  0.53186246145E+03  0.40000000000E+03 0.  1.
<mgrwt>
<rscale>  2 0.44221181E+03</rscale>
<asrwt>0</asrwt>
<pdfrwt beam="1">  1       21 0.86975920E-01 0.44221181E+03</pdfrwt>
<pdfrwt beam="2">  1       21 0.67774422E-01 0.44221181E+03</pdfrwt>
<totfact> 0.19569113E+03</totfact>
</mgrwt>
</event>
<event>
 4    1  0.4732450E-002  0.5248774E+03  0.7818608E-02  0.1007482E+00
         21   -1    0    0  501  502  0.00000000000E+00  0.00000000000E+00  0.44858737752E+03  0.44858737752E+03  0.00000000000E+00 0.  1.
         21   -1    0    0  502  503 -0.00000000000E+00 -0.00000000000E+00 -0.10164032680E+04  0.10164032680E+04  0.00000000000E+00 0.  1.
    9000007    1    1    2  501    0  0.23136879853E+03  0.24892720469E+03  0.17690644104E+03  0.55388822252E+03  0.40000000000E+03 0.  1.
   -9000007    1    1    2    0  503 -0.23136879853E+03 -0.24892720469E+03 -0.74472233156E+03  0.91110242305E+03  0.40000000000E+03 0.  1.
<mgrwt>
<rscale>  2 0.52487739E+03</rscale>
<asrwt>0</asrwt>
<pdfrwt beam="1">  1       21 0.69013444E-01 0.52487739E+03</pdfrwt>
<pdfrwt beam="2">  1       21 0.15636973E+00 0.52487739E+03</pdfrwt>
<totfact> 0.41065612E+02</totfact>
</mgrwt>
</event>
<event>
 4    1  0.4732450E-002  0.5169511E+03  0.7818608E-02  0.1009447E+00
         21   -1    0    0  503  502  0.00000000000E+00  0.00000000000E+00  0.39521656939E+03  0.39521656939E+03  0.00000000000E+00 0.  1.
         21   -1    0    0  501  503 -0.00000000000E+00 -0.00000000000E+00 -0.72908611042E+03  0.72908611042E+03  0.00000000000E+00 0.  1.
    9000007    1    1    2  501    0  0.17935584305E+03 -0.27398882068E+03 -0.31836336879E+03  0.60711912083E+03  0.40000000000E+03 0.  1.
   -9000007    1    1    2    0  502 -0.17935584305E+03  0.27398882068E+03 -0.15506172248E+02  0.51718355898E+03  0.40000000000E+03 0.  1.
<mgrwt>
<rscale>  2 0.51695105E+03</rscale>
<asrwt>0</asrwt>
<pdfrwt beam="1">  1       21 0.60802549E-01 0.51695105E+03</pdfrwt>
<pdfrwt beam="2">  1       21 0.11216709E+00 0.51695105E+03</pdfrwt>
<totfact> 0.13074644E+03</totfact>
</mgrwt>
</event>
<event>
 4    1  0.4732450E-002  0.4567130E+03  0.7818608E-02  0.1025739E+00
         21   -1    0    0  503  502  0.00000000000E+00  0.00000000000E+00  0.63761996678E+03  0.63761996678E+03  0.00000000000E+00 0. -1.
         21   -1    0    0  501  503 -0.00000000000E+00 -0.00000000000E+00 -0.34855373241E+03  0.34855373241E+03  0.00000000000E+00 0. -1.
    9000007    1    1    2  501    0 -0.11626490627E+03  0.18726786713E+03  0.22296383521E+02  0.45725694222E+03  0.40000000000E+03 0. -1.
   -9000007    1    1    2    0  502  0.11626490627E+03 -0.18726786713E+03  0.26676985085E+03  0.52891675697E+03  0.40000000000E+03 0. -1.
<mgrwt>
<rscale>  2 0.45671302E+03</rscale>
<asrwt>0</asrwt>
<pdfrwt beam="1">  1       21 0.98095379E-01 0.45671302E+03</pdfrwt>
<pdfrwt beam="2">  1       21 0.53623651E-01 0.45671302E+03</pdfrwt>
<totfact> 0.24426638E+03</totfact>
</mgrwt>
</event>
<event>
 4    1  0.4732450E-002  0.5712752E+03  0.7818608E-02  0.9966861E-01
         21   -1    0    0  501  502  0.00000000000E+00  0.00000000000E+00  0.90497495546E+03  0.90497495546E+03  0.00000000000E+00 0. -1.
         21   -1    0    0  502  503 -0.00000000000E+00 -0.00000000000E+00 -0.52050213691E+03  0.52050213691E+03  0.00000000000E+00 0.  1.
    9000007    1    1    2  501    0  0.31875705990E+03  0.25445885691E+03  0.58725178529E+03  0.81928019164E+03  0.40000000000E+03 0. -1.
   -9000007    1    1    2    0  503 -0.31875705990E+03 -0.25445885691E+03 -0.20277896673E+03  0.60619690072E+03  0.40000000000E+03 0.  1.
<mgrwt>
<rscale>  2 0.57127522E+03</rscale>
<asrwt>0</asrwt>
<pdfrwt beam="1">  1       21 0.13922692E+00 0.57127522E+03</pdfrwt>
<pdfrwt beam="2">  1       21 0.80077252E-01 0.57127522E+03</pdfrwt>
<totfact> 0.39377226E+02</totfact>
</mgrwt>
</event>
<event>
 4    1  0.4732450E-002  0.4726159E+03  0.7818608E-02  0.1021184E+00
         21   -1    0    0  503  502  0.00000000000E+00  0.00000000000E+00  0.46665240311E+03  0.46665240311E+03  0.00000000000E+00 0. -1.
         21   -1    0    0  501  503 -0.00000000000E+00 -0.00000000000E+00 -0.50129903108E+03  0.50129903108E+03  0.00000000000E+00 0. -1.
    9000007    1    1    2  501    0  0.19058951777E+03  0.16444268078E+03 -0.12018338041E+03  0.48765746634E+03  0.40000000000E+03 0. -1.
   -9000007    1    1    2    0  502 -0.19058951777E+03 -0.16444268078E+03  0.85536752438E+02  0.48029396786E+03  0.40000000000E+03 0. -1.
<mgrwt>
<rscale>  2 0.47261587E+03</rscale>
<asrwt>0</asrwt>
<pdfrwt beam="1">  1       21 0.71792678E-01 0.47261587E+03</pdfrwt>
<pdfrwt beam="2">  1       21 0.77122927E-01 0.47261587E+03</pdfrwt>
<totfact> 0.22474350E+03</totfact>
</mgrwt>
</event>
<event>
 4    1  0.4732450E-002  0.4620970E+03  0.7818608E-02  0.1024175E+00
         21   -1    0    0  501  502  0.00000000000E+00  0.00000000000E+00  0.24505117640E+03  0.24505117640E+03  0.00000000000E+00 0.  1.
         21   -1    0    0  502  503 -0.00000000000E+00 -0.00000000000E+00 -0.12262093826E+04  0.12262093826E+04  0.00000000000E+00 0.  1.
    9000007    1    1    2  501    0  0.12060258978E+03 -0.19745548041E+03 -0.94862131635E+02  0.47173347923E+03  0.40000000000E+03 0.  1.
   -9000007    1    1    2    0  503 -0.12060258978E+03  0.19745548041E+03 -0.88629607456E+03  0.99952707977E+03  0.40000000000E+03 0.  1.
<mgrwt>
<rscale>  2 0.46209702E+03</rscale>
<asrwt>0</asrwt>
<pdfrwt beam="1">  1       21 0.37700182E-01 0.46209702E+03</pdfrwt>
<pdfrwt beam="2">  1       21 0.18864759E+00 0.46209702E+03</pdfrwt>
<totfact> 0.89764161E+02</totfact>
</mgrwt>
</event>
<event>
 4    1  0.4732450E-002  0.4801433E+03  0.7818608E-02  0.1019096E+00
         21   -1    0    0  503  502  0.00000000000E+00  0.00000000000E+00  0.90530553116E+03  0.90530553116E+03  0.00000000000E+00 0. -1.
         21   -1    0    0  501  503 -0.00000000000E+00 -0.00000000000E+00 -0.26403849896E+03  0.26403849896E+03  0.00000000000E+00 0. -1.
    9000007    1    1    2  501    0  0.20796909118E+03 -0.16518608708E+03  0.43087310835E+03  0.64512729112E+03  0.40000000000E+03 0. -1.
   -9000007    1    1    2    0  502 -0.20796909118E+03  0.16518608708E+03  0.21039392386E+03  0.52421673900E+03  0.40000000000E+03 0. -1.
<mgrwt>
<rscale>  2 0.48014330E+03</rscale>
<asrwt>0</asrwt>
<pdfrwt beam="1">  1       21 0.13927777E+00 0.48014330E+03</pdfrwt>
<pdfrwt beam="2">  1       21 0.40621308E-01 0.48014330E+03</pdfrwt>
<totfact> 0.17922205E+03</totfact>
</mgrwt>
</event>
<event>
 4    1  0.4732450E-002  0.4156007E+03  0.7818608E-02  0.1038508E+00
         21   -1    0    0  503  502  0.00000000000E+00  0.00000000000E+00  0.11463282876E+04  0.11463282876E+04  0.00000000000E+00 0.  1.
         21   -1    0    0  501  503 -0.00000000000E+00 -0.00000000000E+00 -0.15154597873E+03  0.15154597873E+03  0.00000000000E+00 0.  1.
    9000007    1    1    2  501    0 -0.82955083930E+02 -0.76435451032E+02  0.54656524314E+03  0.68662762042E+03  0.40000000000E+03 0.  1.
   -9000007    1    1    2    0  502  0.82955083930E+02  0.76435451032E+02  0.44821706576E+03  0.61124664593E+03  0.40000000000E+03 0.  1.
<mgrwt>
<rscale>  2 0.41560068E+03</rscale>
<asrwt>0</asrwt>
<pdfrwt beam="1">  1       21 0.17635819E+00 0.41560068E+03</pdfrwt>
<pdfrwt beam="2">  1       21 0.23314767E-01 0.41560068E+03</pdfrwt>
<totfact> 0.28963891E+03</totfact>
</mgrwt>
</event>
<event>
 4    1  0.4732450E-002  0.5058389E+03  0.7818608E-02  0.1012266E+00
         21   -1    0    0  501  502  0.00000000000E+00  0.00000000000E+00  0.75167549416E+03  0.75167549416E+03  0.00000000000E+00 0.  1.
         21   -1    0    0  502  503 -0.00000000000E+00 -0.00000000000E+00 -0.53596971631E+03  0.53596971631E+03  0.00000000000E+00 0.  1.
    9000007    1    1    2  501    0  0.28715275538E+03  0.11582886896E+03  0.49675734501E+03  0.70897171427E+03  0.40000000000E+03 0.  1.
   -9000007    1    1    2    0  503 -0.28715275538E+03 -0.11582886896E+03 -0.28105156716E+03  0.57867349621E+03  0.40000000000E+03 0.  1.
<mgrwt>
<rscale>  2 0.50583894E+03</rscale>
<asrwt>0</asrwt>
<pdfrwt beam="1">  1       21 0.11564238E+00 0.50583894E+03</pdfrwt>
<pdfrwt beam="2">  1       21 0.82456879E-01 0.50583894E+03</pdfrwt>
<totfact> 0.61003694E+02</totfact>
</mgrwt>
</event>
<event>
 4    1  0.4732450E-002  0.4322427E+03  0.7818608E-02  0.1033154E+00
         21   -1    0    0  501  502  0.00000000000E+00  0.00000000000E+00  0.14240889450E+03  0.14240889450E+03  0.00000000000E+00 0.  1.
         21   -1    0    0  502  503 -0.00000000000E+00 -0.00000000000E+00 -0.18802706042E+04  0.18802706042E+04  0.00000000000E+00 0.  1.
    9000007    1    1    2  501    0  0.42060989551E+02  0.15831803261E+03 -0.31292087407E+03  0.53362271290E+03  0.40000000000E+03 0.  1.
   -9000007    1    1    2    0  503 -0.42060989551E+02 -0.15831803261E+03 -0.14249408357E+04  0.14890567858E+04  0.40000000000E+03 0.  1.
<mgrwt>
<rscale>  2 0.43224267E+03</rscale>
<asrwt>0</asrwt>
<pdfrwt beam="1">  1       21 0.21909060E-01 0.43224267E+03</pdfrwt>
<pdfrwt beam="2">  1       21 0.28927241E+00 0.43224267E+03</pdfrwt>
<totfact> 0.62099691E+02</totfact>
</mgrwt>
</event>
<event>
 4    1  0.4732450E-002  0.4033971E+03  0.7818608E-02  0.1042610E+00
         21   -1    0    0  501  502  0.00000000000E+00  0.00000000000E+00  0.47026152119E+03  0.47026152119E+03  0.00000000000E+00 0. -1.
         21   -1    0    0  502  503 -0.00000000000E+00 -0.00000000000E+00 -0.34711489007E+03  0.34711489007E+03  0.00000000000E+00 0. -1.
    9000007    1    1    2  501    0 -0.29768310769E+02  0.42930900154E+02  0.84317629969E+02  0.41211488354E+03  0.40000000000E+03 0.  1.
   -9000007    1    1    2    0  503  0.29768310769E+02 -0.42930900154E+02  0.38829001151E+02  0.40526152771E+03  0.40000000000E+03 0.  1.
<mgrwt>
<rscale>  2 0.40339709E+03</rscale>
<asrwt>0</asrwt>
<pdfrwt beam="1">  1       21 0.72347926E-01 0.40339709E+03</pdfrwt>
<pdfrwt beam="2">  1       21 0.53402291E-01 0.40339709E+03</pdfrwt>
<totfact> 0.51140561E+03</totfact>
</mgrwt>
</event>
<event>
 4    1  0.4732450E-002  0.4174883E+03  0.7818608E-02  0.1037887E+00
         21   -1    0    0  503  502  0.00000000000E+00  0.00000000000E+00  0.38662228108E+03  0.38662228108E+03  0.00000000000E+00 0. -1.
         21   -1    0    0  501  503 -0.00000000000E+00 -0.00000000000E+00 -0.60761202455E+03  0.60761202455E+03  0.00000000000E+00 0. -1.
    9000007    1    1    2  501    0  0.39988068450E+02  0.11268271880E+03 -0.36302299969E+03  0.55324690603E+03  0.40000000000E+03 0. -1.
   -9000007    1    1    2    0  502 -0.39988068450E+02 -0.11268271880E+03  0.14203325621E+03  0.44098739960E+03  0.40000000000E+03 0. -1.
<mgrwt>
<rscale>  2 0.41748825E+03</rscale>
<asrwt>0</asrwt>
<pdfrwt beam="1">  1       21 0.59480351E-01 0.41748825E+03</pdfrwt>
<pdfrwt beam="2">  1       21 0.93478772E-01 0.41748825E+03</pdfrwt>
<totfact> 0.22232979E+03</totfact>
</mgrwt>
</event>
<event>
 4    1  0.4732450E-002  0.6041068E+03  0.7818608E-02  0.9896922E-01
         21   -1    0    0  501  502  0.00000000000E+00  0.00000000000E+00  0.45126896616E+03  0.45126896616E+03  0.00000000000E+00 0. -1.
         21   -1    0    0  502  503 -0.00000000000E+00 -0.00000000000E+00 -0.99665944143E+03  0.99665944143E+03  0.00000000000E+00 0. -1.
    9000007    1    1    2  501    0 -0.39160529433E+03 -0.22713489794E+03  0.41692905652E+02  0.60554377777E+03  0.40000000000E+03 0. -1.
   -9000007    1    1    2    0  503  0.39160529433E+03  0.22713489794E+03 -0.58708338093E+03  0.84238462983E+03  0.40000000000E+03 0. -1.
<mgrwt>
<rscale>  2 0.60410675E+03</rscale>
<asrwt>0</asrwt>
<pdfrwt beam="1">  1       21 0.69425995E-01 0.60410675E+03</pdfrwt>
<pdfrwt beam="2">  1       21 0.15333222E+00 0.60410675E+03</pdfrwt>
<totfact> 0.41531665E+02</totfact>
</mgrwt>
</event>
<event>
 4    1  0.4732450E-002  0.4116738E+03  0.7818608E-02  0.1039811E+00
         21   -1    0    0  503  502  0.00000000000E+00  0.00000000000E+00  0.34323560678E+03  0.34323560678E+03  0.00000000000E+00 0.  1.
         21   -1    0    0  501  503 -0.00000000000E+00 -0.00000000000E+00 -0.53437131516E+03  0.53437131516E+03  0.00000000000E+00 0. -1.
    9000007    1    1    2  501    0  0.14248146793E+02 -0.96292812102E+02 -0.21653930066E+03  0.46515006619E+03  0.40000000000E+03 0. -1.
   -9000007    1    1    2    0  502 -0.14248146793E+02  0.96292812102E+02  0.25403592278E+02  0.41245685574E+03  0.40000000000E+03 0.  1.
<mgrwt>
<rscale>  2 0.41167380E+03</rscale>
<asrwt>0</asrwt>
<pdfrwt beam="1">  1       21 0.52805478E-01 0.41167380E+03</pdfrwt>
<pdfrwt beam="2">  1       21 0.82210971E-01 0.41167380E+03</pdfrwt>
<totfact> 0.38981975E+03</totfact>
</mgrwt>
</event>
<event>
 4    1  0.4732450E-002  0.4489599E+03  0.7818608E-02  0.1028033E+00
         21   -1    0    0  503  502  0.00000000000E+00  0.00000000000E+00  0.15933866077E+04  0.15933866077E+04  0.00000000000E+00 0.  1.
         21   -1    0    0  501  503 -0.00000000000E+00 -0.00000000000E+00 -0.33148520195E+03  0.33148520195E+03  0.00000000000E+00 0.  1.
    9000007    1    1    2  501    0  0.80901284659E+02  0.18713634580E+03 -0.12588205128E+03  0.46627386868E+03  0.40000000000E+03 0.  1.
   -9000007    1    1    2    0  502 -0.80901284659E+02 -0.18713634580E+03  0.13877834570E+04  0.14585979410E+04  0.40000000000E+03 0.  1.
<mgrwt>
<rscale>  2 0.44895994E+03</rscale>
<asrwt>0</asrwt>
<pdfrwt beam="1">  1       21 0.24513640E+00 0.44895994E+03</pdfrwt>
<pdfrwt beam="2">  1       21 0.50997724E-01 0.44895994E+03</pdfrwt>
<totfact> 0.20741783E+02</totfact>
</mgrwt>
</event>
<event>
 4    1  0.4732450E-002  0.4012425E+03  0.7818608E-02  0.1043350E+00
         21   -1    0    0  503  502  0.00000000000E+00  0.00000000000E+00  0.28214924500E+03  0.28214924500E+03  0.00000000000E+00 0.  1.
         21   -1    0    0  501  503 -0.00000000000E+00 -0.00000000000E+00 -0.21483464542E+04  0.21483464542E+04  0.00000000000E+00 0.  1.
    9000007    1    1    2  501    0 -0.31342581902E+02  0.36367398068E+01 -0.19745301076E+04  0.20148857856E+04  0.40000000000E+03 0.  1.
   -9000007    1    1    2    0  502  0.31342581902E+02 -0.36367398068E+01  0.10833289846E+03  0.41560991351E+03  0.40000000000E+03 0.  1.
<mgrwt>
<rscale>  2 0.40124255E+03</rscale>
<asrwt>0</asrwt>
<pdfrwt beam="1">  1       21 0.43407576E-01 0.40124255E+03</pdfrwt>
<pdfrwt beam="2">  1       21 0.33051484E+00 0.40124255E+03</pdfrwt>
<totfact> 0.91760431E+01</totfact>
</mgrwt>
</event>
<event>
 4    1  0.4732450E-002  0.4027164E+03  0.7818608E-02  0.1042843E+00
         21   -1    0    0  501  502  0.00000000000E+00  0.00000000000E+00  0.55559311628E+03  0.55559311628E+03  0.00000000000E+00 0. -1.
         21   -1    0    0  502  503 -0.00000000000E+00 -0.00000000000E+00 -0.41722666130E+03  0.41722666130E+03  0.00000000000E+00 0. -1.
    9000007    1    1    2  501    0 -0.41442934558E+02 -0.21517277083E+02  0.33576418571E+03  0.52432632820E+03  0.40000000000E+03 0. -1.
   -9000007    1    1    2    0  503  0.41442934558E+02  0.21517277083E+02 -0.19739773074E+03  0.44849344938E+03  0.40000000000E+03 0. -1.
<mgrwt>
<rscale>  2 0.40271641E+03</rscale>
<asrwt>0</asrwt>
<pdfrwt beam="1">  1       21 0.85475864E-01 0.40271641E+03</pdfrwt>
<pdfrwt beam="2">  1       21 0.64188717E-01 0.40271641E+03</pdfrwt>
<totfact> 0.23367036E+03</totfact>
</mgrwt>
</event>
<event>
 4    1  0.4732450E-002  0.6109648E+03  0.7818608E-02  0.9882915E-01
         21   -1    0    0  501  502  0.00000000000E+00  0.00000000000E+00  0.21708705678E+04  0.21708705678E+04  0.00000000000E+00 0.  1.
         21   -1    0    0  502  503 -0.00000000000E+00 -0.00000000000E+00 -0.18838531597E+03  0.18838531597E+03  0.00000000000E+00 0.  1.
    9000007    1    1    2  501    0  0.26598374226E+03 -0.37753225691E+03  0.64280081514E+03  0.88683191423E+03  0.40000000000E+03 0.  1.
   -9000007    1    1    2    0  503 -0.26598374226E+03  0.37753225691E+03  0.13396844367E+04  0.14724239695E+04  0.40000000000E+03 0.  1.
<mgrwt>
<rscale>  2 0.61096477E+03</rscale>
<asrwt>0</asrwt>
<pdfrwt beam="1">  1       21 0.33398007E+00 0.61096477E+03</pdfrwt>
<pdfrwt beam="2">  1       21 0.28982358E-01 0.61096477E+03</pdfrwt>
<totfact> 0.17569997E+02</totfact>
</mgrwt>
</event>
<event>
 4    1  0.4732450E-002  0.4108839E+03  0.7818608E-02  0.1040075E+00
         21   -1    0    0  501  502  0.00000000000E+00  0.00000000000E+00  0.98709148949E+03  0.98709148949E+03  0.00000000000E+00 0.  1.
         21   -1    0    0  502  503 -0.00000000000E+00 -0.00000000000E+00 -0.25952259041E+03  0.25952259041E+03  0.00000000000E+00 0.  1.
    9000007    1    1    2  501    0 -0.17019440566E+02 -0.92390064466E+02 -0.18055610582E+00  0.41088394708E+03  0.40000000000E+03 0.  1.
   -9000007    1    1    2    0  503  0.17019440566E+02  0.92390064466E+02  0.72774945519E+03  0.83573013282E+03  0.40000000000E+03 0.  1.
<mgrwt>
<rscale>  2 0.41088391E+03</rscale>
<asrwt>0</asrwt>
<pdfrwt beam="1">  1       21 0.15186023E+00 0.41088391E+03</pdfrwt>
<pdfrwt beam="2">  1       21 0.39926553E-01 0.41088391E+03</pdfrwt>
<totfact> 0.15138043E+03</totfact>
</mgrwt>
</event>
<event>
 4    1  0.4732450E-002  0.5566068E+03  0.7818608E-02  0.9999762E-01
         21   -1    0    0  501  502  0.00000000000E+00  0.00000000000E+00  0.18899317975E+03  0.18899317975E+03  0.00000000000E+00 0.  1.
         21   -1    0    0  502  503 -0.00000000000E+00 -0.00000000000E+00 -0.26115493003E+04  0.26115493003E+04  0.00000000000E+00 0.  1.
    9000007    1    1    2  501    0  0.22440820406E+03  0.31536030700E+03 -0.35688403708E+03  0.66119390590E+03  0.40000000000E+03 0.  1.
   -9000007    1    1    2    0  503 -0.22440820406E+03 -0.31536030700E+03 -0.20656720835E+04  0.21393485741E+04  0.40000000000E+03 0.  1.
<mgrwt>
<rscale>  2 0.55660683E+03</rscale>
<asrwt>0</asrwt>
<pdfrwt beam="1">  1       21 0.29075875E-01 0.55660683E+03</pdfrwt>
<pdfrwt beam="2">  1       21 0.40177679E+00 0.55660683E+03</pdfrwt>
<totfact> 0.67234024E+01</totfact>
</mgrwt>
</event>
<event>
 4    1  0.4732450E-002  0.5031161E+03  0.7818608E-02  0.1012969E+00
         21   -1    0    0  501  502  0.00000000000E+00  0.00000000000E+00  0.75682349242E+03  0.75682349242E+03  0.00000000000E+00 0. -1.
         21   -1    0    0  502  503 -0.00000000000E+00 -0.00000000000E+00 -0.57398003069E+03  0.57398003069E+03  0.00000000000E+00 0. -1.
    9000007    1    1    2  501    0  0.17728620528E+03 -0.24838556311E+03  0.52126303929E+03  0.72445906901E+03  0.40000000000E+03 0. -1.
   -9000007    1    1    2    0  503 -0.17728620528E+03  0.24838556311E+03 -0.33841957757E+03  0.60634445410E+03  0.40000000000E+03 0. -1.
<mgrwt>
<rscale>  2 0.50311608E+03</rscale>
<asrwt>0</asrwt>
<pdfrwt beam="1">  1       21 0.11643438E+00 0.50311608E+03</pdfrwt>
<pdfrwt beam="2">  1       21 0.88304620E-01 0.50311608E+03</pdfrwt>
<totfact> 0.51107411E+02</totfact>
</mgrwt>
</event>
<event>
 4    1  0.4732450E-002  0.5040060E+03  0.7818608E-02  0.1012739E+00
         21   -1    0    0  501  502  0.00000000000E+00  0.00000000000E+00  0.92535166060E+03  0.92535166060E+03  0.00000000000E+00 0.  1.
         21   -1    0    0  502  503 -0.00000000000E+00 -0.00000000000E+00 -0.49163146484E+03  0.49163146484E+03  0.00000000000E+00 0.  1.
    9000007    1    1    2  501    0  0.22796391590E+03 -0.20507204371E+03 -0.25396772016E+03  0.56437726119E+03  0.40000000000E+03 0.  1.
   -9000007    1    1    2    0  503 -0.22796391590E+03  0.20507204371E+03  0.68768791592E+03  0.85260586425E+03  0.40000000000E+03 0.  1.
<mgrwt>
<rscale>  2 0.50400604E+03</rscale>
<asrwt>0</asrwt>
<pdfrwt beam="1">  1       21 0.14236179E+00 0.50400604E+03</pdfrwt>
<pdfrwt beam="2">  1       21 0.75635610E-01 0.50400604E+03</pdfrwt>
<totfact> 0.43429125E+02</totfact>
</mgrwt>
</event>
<event>
 4    1  0.4732450E-002  0.5561073E+03  0.7818608E-02  0.1000090E+00
         21   -1    0    0  501  502  0.00000000000E+00  0.00000000000E+00  0.22959634758E+03  0.22959634758E+03  0.00000000000E+00 0. -1.
         21   -1    0    0  502  503 -0.00000000000E+00 -0.00000000000E+00 -0.13483058672E+04  0.13483058672E+04  0.00000000000E+00 0. -1.
    9000007    1    1    2  501    0 -0.38499243506E+03 -0.32189632381E+02 -0.58435144912E+03  0.80667339337E+03  0.40000000000E+03 0. -1.
   -9000007    1    1    2    0  503  0.38499243506E+03  0.32189632381E+02 -0.53435807055E+03  0.77122882146E+03  0.40000000000E+03 0. -1.
<mgrwt>
<rscale>  2 0.55610732E+03</rscale>
<asrwt>0</asrwt>
<pdfrwt beam="1">  1       21 0.35322515E-01 0.55610732E+03</pdfrwt>
<pdfrwt beam="2">  1       21 0.20743167E+00 0.55610732E+03</pdfrwt>
<totfact> 0.73704172E+02</totfact>
</mgrwt>
</event>
<event>
 4    1  0.4732450E-002  0.4575069E+03  0.7818608E-02  0.1025507E+00
         21   -1    0    0  503  502  0.00000000000E+00  0.00000000000E+00  0.36339789242E+03  0.36339789242E+03  0.00000000000E+00 0.  1.
         21   -1    0    0  501  503 -0.00000000000E+00 -0.00000000000E+00 -0.57599819769E+03  0.57599819769E+03  0.00000000000E+00 0. -1.
    9000007    1    1    2  501    0 -0.10567576885E+03 -0.19530797132E+03 -0.10834295256E+03  0.47016036323E+03  0.40000000000E+03 0. -1.
   -9000007    1    1    2    0  502  0.10567576885E+03  0.19530797132E+03 -0.10425735272E+03  0.46923572688E+03  0.40000000000E+03 0. -1.
<mgrwt>
<rscale>  2 0.45750691E+03</rscale>
<asrwt>0</asrwt>
<pdfrwt beam="1">  1       21 0.55907368E-01 0.45750691E+03</pdfrwt>
<pdfrwt beam="2">  1       21 0.88615107E-01 0.45750691E+03</pdfrwt>
<totfact> 0.28448885E+03</totfact>
</mgrwt>
</event>
<event>
 4    1  0.4732450E-002  0.5374487E+03  0.7818608E-02  0.1004442E+00
         21   -1    0    0  501  502  0.00000000000E+00  0.00000000000E+00  0.42855962767E+03  0.42855962767E+03  0.00000000000E+00 0.  1.
         21   -1    0    0  502  503 -0.00000000000E+00 -0.00000000000E+00 -0.68331475339E+03  0.68331475339E+03  0.00000000000E+00 0. -1.
    9000007    1    1    2  501    0  0.23138626717E+03 -0.27442947770E+03 -0.62485033416E+02  0.54106887017E+03  0.40000000000E+03 0. -1.
   -9000007    1    1    2    0  503 -0.23138626717E+03  0.27442947770E+03 -0.19227009231E+03  0.57080551089E+03  0.40000000000E+03 0.  1.
<mgrwt>
<rscale>  2 0.53744874E+03</rscale>
<asrwt>0</asrwt>
<pdfrwt beam="1">  1       21 0.65932250E-01 0.53744874E+03</pdfrwt>
<pdfrwt beam="2">  1       21 0.10512535E+00 0.53744874E+03</pdfrwt>
<totfact> 0.12745520E+03</totfact>
</mgrwt>
</event>
<event>
 4    1  0.4732450E-002  0.4218464E+03  0.7818608E-02  0.1036467E+00
         21   -1    0    0  503  502  0.00000000000E+00  0.00000000000E+00  0.97037312464E+03  0.97037312464E+03  0.00000000000E+00 0. -1.
         21   -1    0    0  501  503 -0.00000000000E+00 -0.00000000000E+00 -0.23531636948E+03  0.23531636948E+03  0.00000000000E+00 0. -1.
    9000007    1    1    2  501    0  0.31890773207E+02  0.13014354437E+03  0.84334684319E+02  0.43019379649E+03  0.40000000000E+03 0. -1.
   -9000007    1    1    2    0  502 -0.31890773207E+02 -0.13014354437E+03  0.65072207085E+03  0.77549569763E+03  0.40000000000E+03 0. -1.
<mgrwt>
<rscale>  2 0.42184637E+03</rscale>
<asrwt>0</asrwt>
<pdfrwt beam="1">  1       21 0.14928817E+00 0.42184637E+03</pdfrwt>
<pdfrwt beam="2">  1       21 0.36202519E-01 0.42184637E+03</pdfrwt>
<totfact> 0.19272822E+03</totfact>
</mgrwt>
</event>
<event>
 4    1  0.4732450E-002  0.4178485E+03  0.7818608E-02  0.1037769E+00
         21   -1    0    0  501  502  0.00000000000E+00  0.00000000000E+00  0.48962490530E+03  0.48962490530E+03  0.00000000000E+00 0. -1.
         21   -1    0    0  502  503 -0.00000000000E+00 -0.00000000000E+00 -0.38355083090E+03  0.38355083090E+03  0.00000000000E+00 0. -1.
    9000007    1    1    2  501    0 -0.12079470434E+03  0.24561971893E+01  0.16877961096E+03  0.45064836689E+03  0.40000000000E+03 0. -1.
   -9000007    1    1    2    0  503  0.12079470434E+03 -0.24561971893E+01 -0.62705536557E+02  0.42252736931E+03  0.40000000000E+03 0. -1.
<mgrwt>
<rscale>  2 0.41784853E+03</rscale>
<asrwt>0</asrwt>
<pdfrwt beam="1">  1       21 0.75326909E-01 0.41784853E+03</pdfrwt>
<pdfrwt beam="2">  1       21 0.59007820E-01 0.41784853E+03</pdfrwt>
<totfact> 0.37406856E+03</totfact>
</mgrwt>
</event>
<event>
 4    1  0.4732450E-002  0.5474710E+03  0.7818608E-02  0.1002081E+00
         21   -1    0    0  501  502  0.00000000000E+00  0.00000000000E+00  0.11345586539E+04  0.11345586539E+04  0.00000000000E+00 0. -1.
         21   -1    0    0  502  503 -0.00000000000E+00 -0.00000000000E+00 -0.27352860866E+03  0.27352860866E+03  0.00000000000E+00 0.  1.
    9000007    1    1    2  501    0  0.37295425429E+03 -0.25091388319E+02  0.56069321800E+03  0.78364618182E+03  0.40000000000E+03 0. -1.
   -9000007    1    1    2    0  503 -0.37295425429E+03  0.25091388319E+02  0.30033682728E+03  0.62444108079E+03  0.40000000000E+03 0.  1.
<mgrwt>
<rscale>  2 0.54747096E+03</rscale>
<asrwt>0</asrwt>
<pdfrwt beam="1">  1       21 0.17454748E+00 0.54747096E+03</pdfrwt>
<pdfrwt beam="2">  1       21 0.42081325E-01 0.54747096E+03</pdfrwt>
<totfact> 0.86909489E+02</totfact>
</mgrwt>
</event>
<event>
 4    1  0.4732450E-002  0.5765907E+03  0.7818608E-02  0.9955199E-01
         21   -1    0    0  503  502  0.00000000000E+00  0.00000000000E+00  0.22456898516E+03  0.22456898516E+03  0.00000000000E+00 0. -1.
         21   -1    0    0  501  503 -0.00000000000E+00 -0.00000000000E+00 -0.16128120584E+04  0.16128120584E+04  0.00000000000E+00 0. -1.
    9000007    1    1    2  501    0 -0.15278771173E+03  0.38615120491E+03 -0.95733327172E+03  0.11175615558E+04  0.40000000000E+03 0. -1.
   -9000007    1    1    2    0  502  0.15278771173E+03 -0.38615120491E+03 -0.43090980157E+03  0.71981948779E+03  0.40000000000E+03 0. -1.
<mgrwt>
<rscale>  2 0.57659070E+03</rscale>
<asrwt>0</asrwt>
<pdfrwt beam="1">  1       21 0.34549075E-01 0.57659070E+03</pdfrwt>
<pdfrwt beam="2">  1       21 0.24812493E+00 0.57659070E+03</pdfrwt>
<totfact> 0.42017372E+02</totfact>
</mgrwt>
</event>
<event>
 4    1  0.4732450E-002  0.4437193E+03  0.7818608E-02  0.1029612E+00
         21   -1    0    0  501  502  0.00000000000E+00  0.00000000000E+00  0.51932625910E+03  0.51932625910E+03  0.00000000000E+00 0.  1.
         21   -1    0    0  502  503 -0.00000000000E+00 -0.00000000000E+00 -0.39994446732E+03  0.39994446732E+03  0.00000000000E+00 0. -1.
    9000007    1    1    2  501    0 -0.19101302866E+03  0.20021635994E+02  0.16457341632E+03  0.47325601146E+03  0.40000000000E+03 0.  1.
   -9000007    1    1    2    0  503  0.19101302866E+03 -0.20021635994E+02 -0.45191624535E+02  0.44601471495E+03  0.40000000000E+03 0. -1.
<mgrwt>
<rscale>  2 0.44371933E+03</rscale>
<asrwt>0</asrwt>
<pdfrwt beam="1">  1       21 0.79896348E-01 0.44371933E+03</pdfrwt>
<pdfrwt beam="2">  1       21 0.61529918E-01 0.44371933E+03</pdfrwt>
<totfact> 0.29537075E+03</totfact>
</mgrwt>
</event>
<event>
 4    1  0.4732450E-002  0.4169084E+03  0.7818608E-02  0.1038077E+00
         21   -1    0    0  501  502  0.00000000000E+00  0.00000000000E+00  0.25116853853E+03  0.25116853853E+03  0.00000000000E+00 0.  1.
         21   -1    0    0  502  503 -0.00000000000E+00 -0.00000000000E+00 -0.88678684044E+03  0.88678684044E+03  0.00000000000E+00 0.  1.
    9000007    1    1    2  501    0  0.11702707006E+03  0.10829693907E+02 -0.51155386243E+02  0.42003510679E+03  0.40000000000E+03 0.  1.
   -9000007    1    1    2    0  503 -0.11702707006E+03 -0.10829693907E+02 -0.58446291567E+03  0.71792027217E+03  0.40000000000E+03 0.  1.
<mgrwt>
<rscale>  2 0.41690840E+03</rscale>
<asrwt>0</asrwt>
<pdfrwt beam="1">  1       21 0.38641314E-01 0.41690840E+03</pdfrwt>
<pdfrwt beam="2">  1       21 0.13642874E+00 0.41690840E+03</pdfrwt>
<totfact> 0.21508220E+03</totfact>
</mgrwt>
</event>
<event>
 4    1  0.4732450E-002  0.4205112E+03  0.7818608E-02  0.1036900E+00
         21   -1    0    0  501  502  0.00000000000E+00  0.00000000000E+00  0.59097402550E+03  0.59097402550E+03  0.00000000000E+00 0.  1.
         21   -1    0    0  502  503 -0.00000000000E+00 -0.00000000000E+00 -0.35412320158E+03  0.35412320158E+03  0.00000000000E+00 0.  1.
    9000007    1    1    2  501    0 -0.12679888229E+03 -0.27417537868E+02  0.30449639165E+03  0.51917986331E+03  0.40000000000E+03 0.  1.
   -9000007    1    1    2    0  503  0.12679888229E+03  0.27417537868E+02 -0.67645567725E+02  0.42591736378E+03  0.40000000000E+03 0.  1.
<mgrwt>
<rscale>  2 0.42051121E+03</rscale>
<asrwt>0</asrwt>
<pdfrwt beam="1">  1       21 0.90919081E-01 0.42051121E+03</pdfrwt>
<pdfrwt beam="2">  1       21 0.54480493E-01 0.42051121E+03</pdfrwt>
<totfact> 0.28696192E+03</totfact>
</mgrwt>
</event>
<event>
 4    1  0.4732450E-002  0.4197517E+03  0.7818608E-02  0.1037147E+00
         21   -1    0    0  501  502  0.00000000000E+00  0.00000000000E+00  0.18378081319E+03  0.18378081319E+03  0.00000000000E+00 0.  1.
         21   -1    0    0  502  503 -0.00000000000E+00 -0.00000000000E+00 -0.99262185239E+03  0.99262185239E+03  0.00000000000E+00 0.  1.
    9000007    1    1    2  501    0 -0.11441097800E+03 -0.55692406426E+02 -0.29569180728E+03  0.51344440879E+03  0.40000000000E+03 0. -1.
   -9000007    1    1    2    0  503  0.11441097800E+03  0.55692406426E+02 -0.51314923193E+03  0.66295825679E+03  0.40000000000E+03 0. -1.
<mgrwt>
<rscale>  2 0.41975173E+03</rscale>
<asrwt>0</asrwt>
<pdfrwt beam="1">  1       21 0.28273971E-01 0.41975173E+03</pdfrwt>
<pdfrwt beam="2">  1       21 0.15271106E+00 0.41975173E+03</pdfrwt>
<totfact> 0.29733321E+03</totfact>
</mgrwt>
</event>
<event>
 4    1  0.4732450E-002  0.4098862E+03  0.7818608E-02  0.1040409E+00
         21   -1    0    0  501  502  0.00000000000E+00  0.00000000000E+00  0.28234829465E+03  0.28234829465E+03  0.00000000000E+00 0.  1.
         21   -1    0    0  502  503 -0.00000000000E+00 -0.00000000000E+00 -0.11922117853E+04  0.11922117853E+04  0.00000000000E+00 0.  1.
    9000007    1    1    2  501    0  0.89385045999E+02 -0.41228696515E+01  0.66872715206E+02  0.41530548340E+03  0.40000000000E+03 0.  1.
   -9000007    1    1    2    0  503 -0.89385045999E+02  0.41228696515E+01 -0.97673620588E+03  0.10592545966E+04  0.40000000000E+03 0.  1.
<mgrwt>
<rscale>  2 0.40988618E+03</rscale>
<asrwt>0</asrwt>
<pdfrwt beam="1">  1       21 0.43438200E-01 0.40988618E+03</pdfrwt>
<pdfrwt beam="2">  1       21 0.18341719E+00 0.40988618E+03</pdfrwt>
<totfact> 0.74660822E+02</totfact>
</mgrwt>
</event>
<event>
 4    1  0.4732450E-002  0.4779338E+03  0.7818608E-02  0.1019705E+00
         21   -1    0    0  501  502  0.00000000000E+00  0.00000000000E+00  0.89317269991E+03  0.89317269991E+03  0.00000000000E+00 0. -1.
         21   -1    0    0  502  503 -0.00000000000E+00 -0.00000000000E+00 -0.42107433991E+03  0.42107433991E+03  0.00000000000E+00 0. -1.
    9000007    1    1    2  501    0 -0.13187674978E+03 -0.22589652797E+03  0.64781290094E+03  0.80503557257E+03  0.40000000000E+03 0.  1.
   -9000007    1    1    2    0  503  0.13187674978E+03  0.22589652797E+03 -0.17571454095E+03  0.50921146725E+03  0.40000000000E+03 0.  1.
<mgrwt>
<rscale>  2 0.47793380E+03</rscale>
<asrwt>0</asrwt>
<pdfrwt beam="1">  1       21 0.13741118E+00 0.47793380E+03</pdfrwt>
<pdfrwt beam="2">  1       21 0.64780668E-01 0.47793380E+03</pdfrwt>
<totfact> 0.68446447E+02</totfact>
</mgrwt>
</event>
<event>
 4    1  0.4732450E-002  0.4202063E+03  0.7818608E-02  0.1036999E+00
         21   -1    0    0  501  502  0.00000000000E+00  0.00000000000E+00  0.23760948833E+03  0.23760948833E+03  0.00000000000E+00 0. -1.
         21   -1    0    0  502  503 -0.00000000000E+00 -0.00000000000E+00 -0.14639038804E+04  0.14639038804E+04  0.00000000000E+00 0. -1.
    9000007    1    1    2  501    0 -0.12185236548E+03  0.41536752252E+02 -0.16180046873E+02  0.42051765085E+03  0.40000000000E+03 0. -1.
   -9000007    1    1    2    0  503  0.12185236548E+03 -0.41536752252E+02 -0.12101143452E+04  0.12809957179E+04  0.40000000000E+03 0. -1.
<mgrwt>
<rscale>  2 0.42020626E+03</rscale>
<asrwt>0</asrwt>
<pdfrwt beam="1">  1       21 0.36555306E-01 0.42020626E+03</pdfrwt>
<pdfrwt beam="2">  1       21 0.22521598E+00 0.42020626E+03</pdfrwt>
<totfact> 0.56106591E+02</totfact>
</mgrwt>
</event>
<event>
 4    1  0.4732450E-002  0.5498362E+03  0.7818608E-02  0.1001532E+00
         21   -1    0    0  503  502  0.00000000000E+00  0.00000000000E+00  0.67868881483E+03  0.67868881483E+03  0.00000000000E+00 0.  1.
         21   -1    0    0  501  503 -0.00000000000E+00 -0.00000000000E+00 -0.65715067097E+03  0.65715067097E+03  0.00000000000E+00 0.  1.
    9000007    1    1    2  501    0  0.35873760020E+03 -0.11673537840E+03 -0.36833296820E+03  0.66180736611E+03  0.40000000000E+03 0.  1.
   -9000007    1    1    2    0  502 -0.35873760020E+03  0.11673537840E+03  0.38987111206E+03  0.67403211970E+03  0.40000000000E+03 0.  1.
<mgrwt>
<rscale>  2 0.54983617E+03</rscale>
<asrwt>0</asrwt>
<pdfrwt beam="1">  1       21 0.10441366E+00 0.54983617E+03</pdfrwt>
<pdfrwt beam="2">  1       21 0.10110010E+00 0.54983617E+03</pdfrwt>
<totfact> 0.47579932E+02</totfact>
</mgrwt>
</event>
<event>
 4    1  0.4732450E-002  0.4248142E+03  0.7818608E-02  0.1035511E+00
         21   -1    0    0  501  502  0.00000000000E+00  0.00000000000E+00  0.26283801015E+04  0.26283801015E+04  0.00000000000E+00 0. -1.
         21   -1    0    0  502  503 -0.00000000000E+00 -0.00000000000E+00 -0.28694265062E+03  0.28694265062E+03  0.00000000000E+00 0. -1.
    9000007    1    1    2  501    0 -0.12334845615E+03  0.72472518807E+02  0.24420763893E+04  0.24787505318E+04  0.40000000000E+03 0. -1.
   -9000007    1    1    2    0  503  0.12334845615E+03 -0.72472518807E+02 -0.10063893846E+03  0.43657222031E+03  0.40000000000E+03 0. -1.
<mgrwt>
<rscale>  2 0.42481420E+03</rscale>
<asrwt>0</asrwt>
<pdfrwt beam="1">  1       21 0.40436615E+00 0.42481420E+03</pdfrwt>
<pdfrwt beam="2">  1       21 0.44145025E-01 0.42481420E+03</pdfrwt>
<totfact> 0.30241544E+01</totfact>
</mgrwt>
</event>
<event>
 4    1  0.4732450E-002  0.5983606E+03  0.7818608E-02  0.9908813E-01
         21   -1    0    0  501  502  0.00000000000E+00  0.00000000000E+00  0.41667738842E+03  0.41667738842E+03  0.00000000000E+00 0. -1.
         21   -1    0    0  502  503 -0.00000000000E+00 -0.00000000000E+00 -0.12916677835E+04  0.12916677835E+04  0.00000000000E+00 0. -1.
    9000007    1    1    2  501    0  0.26538368335E+03  0.35722107358E+03  0.56719369294E+02  0.60104282846E+03  0.40000000000E+03 0. -1.
   -9000007    1    1    2    0  503 -0.26538368335E+03 -0.35722107358E+03 -0.93170976436E+03  0.11073023434E+04  0.40000000000E+03 0. -1.
<mgrwt>
<rscale>  2 0.59836059E+03</rscale>
<asrwt>0</asrwt>
<pdfrwt beam="1">  1       21 0.64104214E-01 0.59836059E+03</pdfrwt>
<pdfrwt beam="2">  1       21 0.19871812E+00 0.59836059E+03</pdfrwt>
<totfact> 0.23352386E+02</totfact>
</mgrwt>
</event>
<event>
 4    1  0.4732450E-002  0.4152297E+03  0.7818608E-02  0.1038630E+00
         21   -1    0    0  503  502  0.00000000000E+00  0.00000000000E+00  0.83516453281E+03  0.83516453281E+03  0.00000000000E+00 0. -1.
         21   -1    0    0  501  503 -0.00000000000E+00 -0.00000000000E+00 -0.20785983332E+03  0.20785983332E+03  0.00000000000E+00 0.  1.
    9000007    1    1    2  501    0 -0.10940410667E+03  0.21130156532E+02  0.27062990992E+03  0.49563725669E+03  0.40000000000E+03 0.  1.
   -9000007    1    1    2    0  502  0.10940410667E+03 -0.21130156532E+02  0.35667478957E+03  0.54738710944E+03  0.40000000000E+03 0. -1.
<mgrwt>
<rscale>  2 0.41522975E+03</rscale>
<asrwt>0</asrwt>
<pdfrwt beam="1">  1       21 0.12848685E+00 0.41522975E+03</pdfrwt>
<pdfrwt beam="2">  1       21 0.31978436E-01 0.41522975E+03</pdfrwt>
<totfact> 0.36878827E+03</totfact>
</mgrwt>
</event>
<event>
 4    1  0.4732450E-002  0.5215861E+03  0.7818608E-02  0.1008293E+00
         21   -1    0    0  501  502  0.00000000000E+00  0.00000000000E+00  0.57210837780E+03  0.57210837780E+03  0.00000000000E+00 0. -1.
         21   -1    0    0  502  503 -0.00000000000E+00 -0.00000000000E+00 -0.55096231137E+03  0.55096231137E+03  0.00000000000E+00 0.  1.
    9000007    1    1    2  501    0  0.57993311863E+02 -0.32967991757E+03  0.21835510148E+03  0.56544763030E+03  0.40000000000E+03 0. -1.
   -9000007    1    1    2    0  503 -0.57993311863E+02  0.32967991757E+03 -0.19720903504E+03  0.55762305886E+03  0.40000000000E+03 0.  1.
<mgrwt>
<rscale>  2 0.52158611E+03</rscale>
<asrwt>0</asrwt>
<pdfrwt beam="1">  1       21 0.88016673E-01 0.52158611E+03</pdfrwt>
<pdfrwt beam="2">  1       21 0.84763433E-01 0.52158611E+03</pdfrwt>
<totfact> 0.11074984E+03</totfact>
</mgrwt>
</event>
<event>
 4    1  0.4732450E-002  0.4859171E+03  0.7818608E-02  0.1017522E+00
         21   -1    0    0  503  502  0.00000000000E+00  0.00000000000E+00  0.53892626262E+03  0.53892626262E+03  0.00000000000E+00 0.  1.
         21   -1    0    0  501  503 -0.00000000000E+00 -0.00000000000E+00 -0.48055778608E+03  0.48055778608E+03  0.00000000000E+00 0.  1.
    9000007    1    1    2  501    0 -0.26048935197E+03 -0.90888499584E+02  0.18066031303E+03  0.51841447756E+03  0.40000000000E+03 0. -1.
   -9000007    1    1    2    0  502  0.26048935197E+03  0.90888499584E+02 -0.12229183649E+03  0.50106957113E+03  0.40000000000E+03 0. -1.
<mgrwt>
<rscale>  2 0.48591709E+03</rscale>
<asrwt>0</asrwt>
<pdfrwt beam="1">  1       21 0.82911733E-01 0.48591709E+03</pdfrwt>
<pdfrwt beam="2">  1       21 0.73931967E-01 0.48591709E+03</pdfrwt>
<totfact> 0.17699054E+03</totfact>
</mgrwt>
</event>
<event>
 4    1  0.4732450E-002  0.4154924E+03  0.7818608E-02  0.1038543E+00
         21   -1    0    0  501  502  0.00000000000E+00  0.00000000000E+00  0.37184628492E+03  0.37184628492E+03  0.00000000000E+00 0.  1.
         21   -1    0    0  502  503 -0.00000000000E+00 -0.00000000000E+00 -0.12632300550E+04  0.12632300550E+04  0.00000000000E+00 0.  1.
    9000007    1    1    2  501    0  0.93922042611E+02 -0.61745913796E+02  0.20448520371E+03  0.46308542030E+03  0.40000000000E+03 0.  1.
   -9000007    1    1    2    0  503 -0.93922042611E+02  0.61745913796E+02 -0.10958689738E+04  0.11719909197E+04  0.40000000000E+03 0.  1.
<mgrwt>
<rscale>  2 0.41549237E+03</rscale>
<asrwt>0</asrwt>
<pdfrwt beam="1">  1       21 0.57207120E-01 0.41549237E+03</pdfrwt>
<pdfrwt beam="2">  1       21 0.19434309E+00 0.41549237E+03</pdfrwt>
<totfact> 0.34932008E+02</totfact>
</mgrwt>
</event>
<event>
 4    1  0.4732450E-002  0.5028659E+03  0.7818608E-02  0.1013034E+00
         21   -1    0    0  503  502  0.00000000000E+00  0.00000000000E+00  0.19376146241E+03  0.19376146241E+03  0.00000000000E+00 0. -1.
         21   -1    0    0  501  503 -0.00000000000E+00 -0.00000000000E+00 -0.18127205557E+04  0.18127205557E+04  0.00000000000E+00 0. -1.
    9000007    1    1    2  501    0  0.24189262542E+03 -0.18537019115E+03 -0.13403861573E+04  0.14316107015E+04  0.40000000000E+03 0. -1.
   -9000007    1    1    2    0  502 -0.24189262542E+03  0.18537019115E+03 -0.27857293603E+03  0.57487131663E+03  0.40000000000E+03 0. -1.
<mgrwt>
<rscale>  2 0.50286594E+03</rscale>
<asrwt>0</asrwt>
<pdfrwt beam="1">  1       21 0.29809456E-01 0.50286594E+03</pdfrwt>
<pdfrwt beam="2">  1       21 0.27888008E+00 0.50286594E+03</pdfrwt>
<totfact> 0.37851820E+02</totfact>
</mgrwt>
</event>
<event>
 4    1  0.4732450E-002  0.4400993E+03  0.7818608E-02  0.1030716E+00
         21   -1    0    0  503  502  0.00000000000E+00  0.00000000000E+00  0.19173401323E+04  0.19173401323E+04  0.00000000000E+00 0.  1.
         21   -1    0    0  501  503 -0.00000000000E+00 -0.00000000000E+00 -0.12601459195E+03  0.12601459195E+03  0.00000000000E+00 0.  1.
    9000007    1    1    2  501    0  0.17609235093E+03 -0.51758096828E+02  0.13506893059E+04  0.14205805214E+04  0.40000000000E+03 0.  1.
   -9000007    1    1    2    0  502 -0.17609235093E+03  0.51758096828E+02  0.44063623444E+03  0.62277420286E+03  0.40000000000E+03 0.  1.
<mgrwt>
<rscale>  2 0.44009933E+03</rscale>
<asrwt>0</asrwt>
<pdfrwt beam="1">  1       21 0.29497538E+00 0.44009933E+03</pdfrwt>
<pdfrwt beam="2">  1       21 0.19386862E-01 0.44009933E+03</pdfrwt>
<totfact> 0.72151875E+02</totfact>
</mgrwt>
</event>
<event>
 4    1  0.4732450E-002  0.4043435E+03  0.7818608E-02  0.1042286E+00
         21   -1    0    0  501  502  0.00000000000E+00  0.00000000000E+00  0.16735589422E+04  0.16735589422E+04  0.00000000000E+00 0. -1.
         21   -1    0    0  502  503 -0.00000000000E+00 -0.00000000000E+00 -0.33470671822E+03  0.33470671822E+03  0.00000000000E+00 0. -1.
    9000007    1    1    2  501    0 -0.42476641481E+02  0.41102736180E+02  0.15144060578E+04  0.15674563496E+04  0.40000000000E+03 0. -1.
   -9000007    1    1    2    0  503  0.42476641481E+02 -0.41102736180E+02 -0.17555383378E+03  0.44080931087E+03  0.40000000000E+03 0. -1.
<mgrwt>
<rscale>  2 0.40434354E+03</rscale>
<asrwt>0</asrwt>
<pdfrwt beam="1">  1       21 0.25747060E+00 0.40434354E+03</pdfrwt>
<pdfrwt beam="2">  1       21 0.51493342E-01 0.40434354E+03</pdfrwt>
<totfact> 0.17546142E+02</totfact>
</mgrwt>
</event>
<event>
 4    1  0.4732450E-002  0.5993475E+03  0.7818608E-02  0.9906761E-01
         21   -1    0    0  501  502  0.00000000000E+00  0.00000000000E+00  0.13963611557E+04  0.13963611557E+04  0.00000000000E+00 0.  1.
         21   -1    0    0  502  503 -0.00000000000E+00 -0.00000000000E+00 -0.32852180953E+03  0.32852180953E+03  0.00000000000E+00 0.  1.
    9000007    1    1    2  501    0 -0.13624199674E+03 -0.42503592091E+03  0.93561684270E+03  0.11111238869E+04  0.40000000000E+03 0.  1.
   -9000007    1    1    2    0  503  0.13624199674E+03  0.42503592091E+03  0.13222250342E+03  0.61375907826E+03  0.40000000000E+03 0.  1.
<mgrwt>
<rscale>  2 0.59934749E+03</rscale>
<asrwt>0</asrwt>
<pdfrwt beam="1">  1       21 0.21482479E+00 0.59934749E+03</pdfrwt>
<pdfrwt beam="2">  1       21 0.50541818E-01 0.59934749E+03</pdfrwt>
<totfact> 0.30675328E+02</totfact>
</mgrwt>
</event>
<event>
 4    1  0.4732450E-002  0.5985277E+03  0.7818608E-02  0.9908465E-01
         21   -1    0    0  503  502  0.00000000000E+00  0.00000000000E+00  0.85417797697E+03  0.85417797697E+03  0.00000000000E+00 0. -1.
         21   -1    0    0  501  503 -0.00000000000E+00 -0.00000000000E+00 -0.70550718923E+03  0.70550718923E+03  0.00000000000E+00 0. -1.
    9000007    1    1    2  501    0  0.44441234623E+03  0.27075723789E+02 -0.42228741866E+03  0.73250398788E+03  0.40000000000E+03 0. -1.
   -9000007    1    1    2    0  502 -0.44441234623E+03 -0.27075723789E+02  0.57095820640E+03  0.82718117831E+03  0.40000000000E+03 0. -1.
<mgrwt>
<rscale>  2 0.59852772E+03</rscale>
<asrwt>0</asrwt>
<pdfrwt beam="1">  1       21 0.13141200E+00 0.59852772E+03</pdfrwt>
<pdfrwt beam="2">  1       21 0.10853957E+00 0.59852772E+03</pdfrwt>
<totfact> 0.21846256E+02</totfact>
</mgrwt>
</event>
<event>
 4    1  0.4732450E-002  0.5693520E+03  0.7818608E-02  0.9971114E-01
         21   -1    0    0  501  502  0.00000000000E+00  0.00000000000E+00  0.15311969342E+04  0.15311969342E+04  0.00000000000E+00 0. -1.
         21   -1    0    0  502  503 -0.00000000000E+00 -0.00000000000E+00 -0.89245755070E+03  0.89245755070E+03  0.00000000000E+00 0. -1.
    9000007    1    1    2  501    0 -0.20632696221E+03 -0.34869888180E+03  0.13777497122E+04  0.14907568531E+04  0.40000000000E+03 0. -1.
   -9000007    1    1    2    0  503  0.20632696221E+03  0.34869888180E+03 -0.73901032871E+03  0.93289763181E+03  0.40000000000E+03 0. -1.
<mgrwt>
<rscale>  2 0.56935202E+03</rscale>
<asrwt>0</asrwt>
<pdfrwt beam="1">  1       21 0.23556876E+00 0.56935202E+03</pdfrwt>
<pdfrwt beam="2">  1       21 0.13730116E+00 0.56935202E+03</pdfrwt>
<totfact> 0.21576577E+01</totfact>
</mgrwt>
</event>
<event>
 4    1  0.4732450E-002  0.4373710E+03  0.7818608E-02  0.1031557E+00
         21   -1    0    0  501  502  0.00000000000E+00  0.00000000000E+00  0.96086526600E+03  0.96086526600E+03  0.00000000000E+00 0.  1.
         21   -1    0    0  502  503 -0.00000000000E+00 -0.00000000000E+00 -0.36388654180E+03  0.36388654180E+03  0.00000000000E+00 0.  1.
    9000007    1    1    2  501    0 -0.17511362967E+03  0.25071270762E+02  0.74425117634E+03  0.86325150761E+03  0.40000000000E+03 0.  1.
   -9000007    1    1    2    0  503  0.17511362967E+03 -0.25071270762E+02 -0.14727245214E+03  0.46150030019E+03  0.40000000000E+03 0.  1.
<mgrwt>
<rscale>  2 0.43737095E+03</rscale>
<asrwt>0</asrwt>
<pdfrwt beam="1">  1       21 0.14782542E+00 0.43737095E+03</pdfrwt>
<pdfrwt beam="2">  1       21 0.55982545E-01 0.43737095E+03</pdfrwt>
<totfact> 0.78914139E+02</totfact>
</mgrwt>
</event>
<event>
 4    1  0.4732450E-002  0.4532644E+03  0.7818608E-02  0.1026753E+00
         21   -1    0    0  503  502  0.00000000000E+00  0.00000000000E+00  0.58810169804E+03  0.58810169804E+03  0.00000000000E+00 0. -1.
         21   -1    0    0  501  503 -0.00000000000E+00 -0.00000000000E+00 -0.45226058304E+03  0.45226058304E+03  0.00000000000E+00 0.  1.
    9000007    1    1    2  501    0 -0.23062034858E+02 -0.21193566205E+03 -0.18022544310E+03  0.48778047587E+03  0.40000000000E+03 0.  1.
   -9000007    1    1    2    0  502  0.23062034858E+02  0.21193566205E+03  0.31606655810E+03  0.55258180521E+03  0.40000000000E+03 0. -1.
<mgrwt>
<rscale>  2 0.45326436E+03</rscale>
<asrwt>0</asrwt>
<pdfrwt beam="1">  1       21 0.90477185E-01 0.45326436E+03</pdfrwt>
<pdfrwt beam="2">  1       21 0.69578551E-01 0.45326436E+03</pdfrwt>
<totfact> 0.16736614E+03</totfact>
</mgrwt>
</event>
<event>
 4    1  0.4732450E-002  0.4878362E+03  0.7818608E-02  0.1017004E+00
         21   -1    0    0  503  502  0.00000000000E+00  0.00000000000E+00  0.44193416699E+03  0.44193416699E+03  0.00000000000E+00 0.  1.
         21   -1    0    0  501  503 -0.00000000000E+00 -0.00000000000E+00 -0.59721258445E+03  0.59721258445E+03  0.00000000000E+00 0. -1.
    9000007    1    1    2  501    0  0.96304505099E+02  0.26212517943E+03 -0.24054108919E+03  0.54391560281E+03  0.40000000000E+03 0. -1.
   -9000007    1    1    2    0  502 -0.96304505099E+02 -0.26212517943E+03  0.85262671726E+02  0.49523114864E+03  0.40000000000E+03 0. -1.
<mgrwt>
<rscale>  2 0.48783621E+03</rscale>
<asrwt>0</asrwt>
<pdfrwt beam="1">  1       21 0.67989872E-01 0.48783621E+03</pdfrwt>
<pdfrwt beam="2">  1       21 0.91878859E-01 0.48783621E+03</pdfrwt>
<totfact> 0.16779678E+03</totfact>
</mgrwt>
</event>
<event>
 4    1  0.4732450E-002  0.4050720E+03  0.7818608E-02  0.1042037E+00
         21   -1    0    0  501  502  0.00000000000E+00  0.00000000000E+00  0.53803630657E+03  0.53803630657E+03  0.00000000000E+00 0. -1.
         21   -1    0    0  502  503 -0.00000000000E+00 -0.00000000000E+00 -0.52525332648E+03  0.52525332648E+03  0.00000000000E+00 0. -1.
    9000007    1    1    2  501    0  0.61820727450E+02 -0.16171630792E+02  0.35068666631E+03  0.53578396944E+03  0.40000000000E+03 0. -1.
   -9000007    1    1    2    0  503 -0.61820727450E+02  0.16171630792E+02 -0.33790368622E+03  0.52750566361E+03  0.40000000000E+03 0. -1.
<mgrwt>
<rscale>  2 0.40507200E+03</rscale>
<asrwt>0</asrwt>
<pdfrwt beam="1">  1       21 0.82774816E-01 0.40507200E+03</pdfrwt>
<pdfrwt beam="2">  1       21 0.80808204E-01 0.40507200E+03</pdfrwt>
<totfact> 0.14954053E+03</totfact>
</mgrwt>
</event>
<event>
 4    1  0.4732450E-002  0.5869370E+03  0.7818608E-02  0.9932884E-01
         21   -1    0    0  503  502  0.00000000000E+00  0.00000000000E+00  0.44957591553E+03  0.44957591553E+03  0.00000000000E+00 0. -1.
         21   -1    0    0  501  503 -0.00000000000E+00 -0.00000000000E+00 -0.84680649154E+03  0.84680649154E+03  0.00000000000E+00 0. -1.
    9000007    1    1    2  501    0 -0.42240508305E+03  0.77903665135E+02 -0.39851694867E+03  0.70944400315E+03  0.40000000000E+03 0. -1.
   -9000007    1    1    2    0  502  0.42240508305E+03 -0.77903665135E+02  0.12863726657E+01  0.58693840391E+03  0.40000000000E+03 0. -1.
<mgrwt>
<rscale>  2 0.58693699E+03</rscale>
<asrwt>0</asrwt>
<pdfrwt beam="1">  1       21 0.69165526E-01 0.58693699E+03</pdfrwt>
<pdfrwt beam="2">  1       21 0.13027792E+00 0.58693699E+03</pdfrwt>
<totfact> 0.65293523E+02</totfact>
</mgrwt>
</event>
<event>
 4    1  0.4732450E-002  0.4251963E+03  0.7818608E-02  0.1035388E+00
         21   -1    0    0  503  502  0.00000000000E+00  0.00000000000E+00  0.16281749700E+04  0.16281749700E+04  0.00000000000E+00 0. -1.
         21   -1    0    0  501  503 -0.00000000000E+00 -0.00000000000E+00 -0.18222493881E+03  0.18222493881E+03  0.00000000000E+00 0. -1.
    9000007    1    1    2  501    0 -0.11400684496E+03  0.88285759241E+02  0.15721034691E+03  0.45332883116E+03  0.40000000000E+03 0. -1.
   -9000007    1    1    2    0  502  0.11400684496E+03 -0.88285759241E+02  0.12887396843E+04  0.13570710776E+04  0.40000000000E+03 0. -1.
<mgrwt>
<rscale>  2 0.42519635E+03</rscale>
<asrwt>0</asrwt>
<pdfrwt beam="1">  1       21 0.25048845E+00 0.42519635E+03</pdfrwt>
<pdfrwt beam="2">  1       21 0.28034607E-01 0.42519635E+03</pdfrwt>
<totfact> 0.66274722E+02</totfact>
</mgrwt>
</event>
<event>
 4    1  0.4732450E-002  0.4004570E+03  0.7818608E-02  0.1043622E+00
         21   -1    0    0  503  502  0.00000000000E+00  0.00000000000E+00  0.63178786449E+03  0.63178786449E+03  0.00000000000E+00 0.  1.
         21   -1    0    0  501  503 -0.00000000000E+00 -0.00000000000E+00 -0.51620351553E+03  0.51620351553E+03  0.00000000000E+00 0.  1.
    9000007    1    1    2  501    0  0.10967189194E+02 -0.15670359343E+02 -0.35143012828E+03  0.53279355708E+03  0.40000000000E+03 0.  1.
   -9000007    1    1    2    0  502 -0.10967189194E+02  0.15670359343E+02  0.46701447723E+03  0.61519782294E+03  0.40000000000E+03 0.  1.
<mgrwt>
<rscale>  2 0.40045704E+03</rscale>
<asrwt>0</asrwt>
<pdfrwt beam="1">  1       21 0.97198133E-01 0.40045704E+03</pdfrwt>
<pdfrwt beam="2">  1       21 0.79415925E-01 0.40045704E+03</pdfrwt>
<totfact> 0.10675691E+03</totfact>
</mgrwt>
</event>
<event>
 4    1  0.4732450E-002  0.4011658E+03  0.7818608E-02  0.1043377E+00
         21   -1    0    0  501  502  0.00000000000E+00  0.00000000000E+00  0.23308592032E+03  0.23308592032E+03  0.00000000000E+00 0. -1.
         21   -1    0    0  502  503 -0.00000000000E+00 -0.00000000000E+00 -0.10112152454E+04  0.10112152454E+04  0.00000000000E+00 0. -1.
    9000007    1    1    2  501    0 -0.23392511135E+02  0.19667667073E+02 -0.38661684656E+02  0.40302450616E+03  0.40000000000E+03 0. -1.
   -9000007    1    1    2    0  503  0.23392511135E+02 -0.19667667073E+02 -0.73946764047E+03  0.84127665961E+03  0.40000000000E+03 0. -1.
<mgrwt>
<rscale>  2 0.40116583E+03</rscale>
<asrwt>0</asrwt>
<pdfrwt beam="1">  1       21 0.35859373E-01 0.40116583E+03</pdfrwt>
<pdfrwt beam="2">  1       21 0.15557157E+00 0.40116583E+03</pdfrwt>
<totfact> 0.17724883E+03</totfact>
</mgrwt>
</event>
<event>
 4    1  0.4732450E-002  0.5074275E+03  0.7818608E-02  0.1011858E+00
         21   -1    0    0  503  502  0.00000000000E+00  0.00000000000E+00  0.15688148205E+03  0.15688148205E+03  0.00000000000E+00 0. -1.
         21   -1    0    0  501  503 -0.00000000000E+00 -0.00000000000E+00 -0.16882322200E+04  0.16882322200E+04  0.00000000000E+00 0. -1.
    9000007    1    1    2  501    0 -0.28752324502E+03 -0.12170892395E+03 -0.91956733072E+03  0.10502793697E+04  0.40000000000E+03 0. -1.
   -9000007    1    1    2    0  502  0.28752324502E+03  0.12170892395E+03 -0.61178340723E+03  0.79483433240E+03  0.40000000000E+03 0. -1.
<mgrwt>
<rscale>  2 0.50742751E+03</rscale>
<asrwt>0</asrwt>
<pdfrwt beam="1">  1       21 0.24135612E-01 0.50742751E+03</pdfrwt>
<pdfrwt beam="2">  1       21 0.25972804E+00 0.50742751E+03</pdfrwt>
<totfact> 0.74830577E+02</totfact>
</mgrwt>
</event>
<event>
 4    1  0.4732450E-002  0.4007805E+03  0.7818608E-02  0.1043510E+00
         21   -1    0    0  501  502  0.00000000000E+00  0.00000000000E+00  0.15383422034E+04  0.15383422034E+04  0.00000000000E+00 0. -1.
         21   -1    0    0  502  503 -0.00000000000E+00 -0.00000000000E+00 -0.37923820500E+03  0.37923820500E+03  0.00000000000E+00 0. -1.
    9000007    1    1    2  501    0  0.22020298585E+02  0.11835813602E+02  0.13957485810E+04  0.14521498137E+04  0.40000000000E+03 0. -1.
   -9000007    1    1    2    0  503 -0.22020298585E+02 -0.11835813602E+02 -0.23664458259E+03  0.46543059472E+03  0.40000000000E+03 0. -1.
<mgrwt>
<rscale>  2 0.40078046E+03</rscale>
<asrwt>0</asrwt>
<pdfrwt beam="1">  1       21 0.23666803E+00 0.40078046E+03</pdfrwt>
<pdfrwt beam="2">  1       21 0.58344340E-01 0.40078046E+03</pdfrwt>
<totfact> 0.18028931E+02</totfact>
</mgrwt>
</event>
<event>
 4    1  0.4732450E-002  0.4145656E+03  0.7818608E-02  0.1038850E+00
         21   -1    0    0  503  502  0.00000000000E+00  0.00000000000E+00  0.11088691625E+04  0.11088691625E+04  0.00000000000E+00 0.  1.
         21   -1    0    0  501  503 -0.00000000000E+00 -0.00000000000E+00 -0.27191138385E+03  0.27191138385E+03  0.00000000000E+00 0.  1.
    9000007    1    1    2  501    0  0.43560918332E+02  0.99835253909E+02 -0.34237552426E+02  0.41597697235E+03  0.40000000000E+03 0.  1.
   -9000007    1    1    2    0  502 -0.43560918332E+02 -0.99835253909E+02  0.87119533107E+03  0.96480357400E+03  0.40000000000E+03 0.  1.
<mgrwt>
<rscale>  2 0.41456559E+03</rscale>
<asrwt>0</asrwt>
<pdfrwt beam="1">  1       21 0.17059525E+00 0.41456559E+03</pdfrwt>
<pdfrwt beam="2">  1       21 0.41832521E-01 0.41456559E+03</pdfrwt>
<totfact> 0.99312600E+02</totfact>
</mgrwt>
</event>
<event>
 4    1  0.4732450E-002  0.5820795E+03  0.7818608E-02  0.9943299E-01
         21   -1    0    0  501  502  0.00000000000E+00  0.00000000000E+00  0.55009541747E+03  0.55009541747E+03  0.00000000000E+00 0.  1.
         21   -1    0    0  502  503 -0.00000000000E+00 -0.00000000000E+00 -0.10457579302E+04  0.10457579302E+04  0.00000000000E+00 0.  1.
    9000007    1    1    2  501    0  0.36804617725E+03 -0.20822726604E+03  0.26373053893E+03  0.63903863739E+03  0.40000000000E+03 0.  1.
   -9000007    1    1    2    0  503 -0.36804617725E+03  0.20822726604E+03 -0.75939305165E+03  0.95681471028E+03  0.40000000000E+03 0.  1.
<mgrwt>
<rscale>  2 0.58207953E+03</rscale>
<asrwt>0</asrwt>
<pdfrwt beam="1">  1       21 0.84630064E-01 0.58207953E+03</pdfrwt>
<pdfrwt beam="2">  1       21 0.16088583E+00 0.58207953E+03</pdfrwt>
<totfact> 0.23184834E+02</totfact>
</mgrwt>
</event>
<event>
 4    1  0.4732450E-002  0.4121940E+03  0.7818608E-02  0.1039637E+00
         21   -1    0    0  501  502  0.00000000000E+00  0.00000000000E+00  0.86411552464E+03  0.86411552464E+03  0.00000000000E+00 0.  1.
         21   -1    0    0  502  503 -0.00000000000E+00 -0.00000000000E+00 -0.19850481671E+03  0.19850481671E+03  0.00000000000E+00 0.  1.
    9000007    1    1    2  501    0 -0.74730005401E+02 -0.65721380238E+02  0.28105660225E+03  0.49889546720E+03  0.40000000000E+03 0.  1.
   -9000007    1    1    2    0  503  0.74730005401E+02  0.65721380238E+02  0.38455410568E+03  0.56372487414E+03  0.40000000000E+03 0.  1.
<mgrwt>
<rscale>  2 0.41219398E+03</rscale>
<asrwt>0</asrwt>
<pdfrwt beam="1">  1       21 0.13294085E+00 0.41219398E+03</pdfrwt>
<pdfrwt beam="2">  1       21 0.30539203E-01 0.41219398E+03</pdfrwt>
<totfact> 0.37050910E+03</totfact>
</mgrwt>
</event>
<event>
 4    1  0.4732450E-002  0.4303272E+03  0.7818608E-02  0.1033757E+00
         21   -1    0    0  503  502  0.00000000000E+00  0.00000000000E+00  0.17404152118E+04  0.17404152118E+04  0.00000000000E+00 0. -1.
         21   -1    0    0  501  503 -0.00000000000E+00 -0.00000000000E+00 -0.18248890684E+03  0.18248890684E+03  0.00000000000E+00 0.  1.
    9000007    1    1    2  501    0 -0.83508824913E+02  0.13493631677E+03  0.15814007858E+03  0.45846463099E+03  0.40000000000E+03 0.  1.
   -9000007    1    1    2    0  502  0.83508824913E+02 -0.13493631677E+03  0.13997862263E+04  0.14644394876E+04  0.40000000000E+03 0. -1.
<mgrwt>
<rscale>  2 0.43032724E+03</rscale>
<asrwt>0</asrwt>
<pdfrwt beam="1">  1       21 0.26775618E+00 0.43032724E+03</pdfrwt>
<pdfrwt beam="2">  1       21 0.28075218E-01 0.43032724E+03</pdfrwt>
<totfact> 0.51743789E+02</totfact>
</mgrwt>
</event>
<event>
 4    1  0.4732450E-002  0.4155688E+03  0.7818608E-02  0.1038518E+00
         21   -1    0    0  501  502  0.00000000000E+00  0.00000000000E+00  0.79344528887E+03  0.79344528887E+03  0.00000000000E+00 0.  1.
         21   -1    0    0  502  503 -0.00000000000E+00 -0.00000000000E+00 -0.23810174084E+03  0.23810174084E+03  0.00000000000E+00 0.  1.
    9000007    1    1    2  501    0  0.10154661294E+03  0.48843783872E+02  0.42881494176E+03  0.59714293440E+03  0.40000000000E+03 0.  1.
   -9000007    1    1    2    0  503 -0.10154661294E+03 -0.48843783872E+02  0.12652860627E+03  0.43440409531E+03  0.40000000000E+03 0.  1.
<mgrwt>
<rscale>  2 0.41556880E+03</rscale>
<asrwt>0</asrwt>
<pdfrwt beam="1">  1       21 0.12206850E+00 0.41556880E+03</pdfrwt>
<pdfrwt beam="2">  1       21 0.36631037E-01 0.41556880E+03</pdfrwt>
<totfact> 0.31987436E+03</totfact>
</mgrwt>
</event>
<event>
 4    1  0.4732450E-002  0.7769705E+03  0.7818608E-02  0.9593963E-01
         21   -1    0    0  503  502  0.00000000000E+00  0.00000000000E+00  0.40505972790E+03  0.40505972790E+03  0.00000000000E+00 0. -1.
         21   -1    0    0  501  503 -0.00000000000E+00 -0.00000000000E+00 -0.14904533639E+04  0.14904533639E+04  0.00000000000E+00 0.  1.
    9000007    1    1    2  501    0  0.58251023881E+03  0.32305576568E+03 -0.55035596414E+03  0.95214226528E+03  0.40000000000E+03 0. -1.
   -9000007    1    1    2    0  502 -0.58251023881E+03 -0.32305576568E+03 -0.53503767188E+03  0.94337082656E+03  0.40000000000E+03 0.  1.
<mgrwt>
<rscale>  2 0.77697053E+03</rscale>
<asrwt>0</asrwt>
<pdfrwt beam="1">  1       21 0.62316880E-01 0.77697053E+03</pdfrwt>
<pdfrwt beam="2">  1       21 0.22930052E+00 0.77697053E+03</pdfrwt>
<totfact> 0.14703885E+02</totfact>
</mgrwt>
</event>
<event>
 4    1  0.4732450E-002  0.6307570E+03  0.7818608E-02  0.9843573E-01
         21   -1    0    0  501  502  0.00000000000E+00  0.00000000000E+00  0.28806979470E+03  0.28806979470E+03  0.00000000000E+00 0.  1.
         21   -1    0    0  502  503 -0.00000000000E+00 -0.00000000000E+00 -0.14210586698E+04  0.14210586698E+04  0.00000000000E+00 0.  1.
    9000007    1    1    2  501    0  0.61283198788E+02  0.48383748807E+03 -0.70978661690E+03  0.94955325646E+03  0.40000000000E+03 0.  1.
   -9000007    1    1    2    0  503 -0.61283198788E+02 -0.48383748807E+03 -0.42320225821E+03  0.75957520804E+03  0.40000000000E+03 0.  1.
<mgrwt>
<rscale>  2 0.63075696E+03</rscale>
<asrwt>0</asrwt>
<pdfrwt beam="1">  1       21 0.44318429E-01 0.63075696E+03</pdfrwt>
<pdfrwt beam="2">  1       21 0.21862441E+00 0.63075696E+03</pdfrwt>
<totfact> 0.37865809E+02</totfact>
</mgrwt>
</event>
<event>
 4    1  0.4732450E-002  0.5603154E+03  0.7818608E-02  0.9991341E-01
         21   -1    0    0  501  502  0.00000000000E+00  0.00000000000E+00  0.88862856698E+03  0.88862856698E+03  0.00000000000E+00 0. -1.
         21   -1    0    0  502  503 -0.00000000000E+00 -0.00000000000E+00 -0.35338055019E+03  0.35338055019E+03  0.00000000000E+00 0.  1.
    9000007    1    1    2  501    0 -0.32366955871E+03  0.22179117760E+03  0.27694479752E+03  0.62502138409E+03  0.40000000000E+03 0.  1.
   -9000007    1    1    2    0  503  0.32366955871E+03 -0.22179117760E+03  0.25830321926E+03  0.61698773308E+03  0.40000000000E+03 0.  1.
<mgrwt>
<rscale>  2 0.56031537E+03</rscale>
<asrwt>0</asrwt>
<pdfrwt beam="1">  1       21 0.13671209E+00 0.56031537E+03</pdfrwt>
<pdfrwt beam="2">  1       21 0.54366239E-01 0.56031537E+03</pdfrwt>
<totfact> 0.98850786E+02</totfact>
</mgrwt>
</event>
<event>
 4    1  0.4732450E-002  0.4371797E+03  0.7818608E-02  0.1031616E+00
         21   -1    0    0  501  502  0.00000000000E+00  0.00000000000E+00  0.67432974734E+03  0.67432974734E+03  0.00000000000E+00 0.  1.
         21   -1    0    0  502  503 -0.00000000000E+00 -0.00000000000E+00 -0.55514665578E+03  0.55514665578E+03  0.00000000000E+00 0.  1.
    9000007    1    1    2  501    0  0.10090162229E+03 -0.14472368313E+03  0.48966587307E+03  0.65642878447E+03  0.40000000000E+03 0.  1.
   -9000007    1    1    2    0  503 -0.10090162229E+03  0.14472368313E+03 -0.37048278151E+03  0.57304761864E+03  0.40000000000E+03 0.  1.
<mgrwt>
<rscale>  2 0.43717969E+03</rscale>
<asrwt>0</asrwt>
<pdfrwt beam="1">  1       21 0.10374304E+00 0.43717969E+03</pdfrwt>
<pdfrwt beam="2">  1       21 0.85407178E-01 0.43717969E+03</pdfrwt>
<totfact> 0.75711447E+02</totfact>
</mgrwt>
</event>
<event>
 4    1  0.4732450E-002  0.6699113E+03  0.7818608E-02  0.9770118E-01
         21   -1    0    0  503  502  0.00000000000E+00  0.00000000000E+00  0.21248935822E+04  0.21248935822E+04  0.00000000000E+00 0. -1.
         21   -1    0    0  501  503 -0.00000000000E+00 -0.00000000000E+00 -0.21679072472E+03  0.21679072472E+03  0.00000000000E+00 0.  1.
    9000007    1    1    2  501    0  0.36460004308E+03  0.39477586890E+03  0.76605687699E+03  0.10176562862E+04  0.40000000000E+03 0.  1.
   -9000007    1    1    2    0  502 -0.36460004308E+03 -0.39477586890E+03  0.11420459805E+04  0.13240280207E+04  0.40000000000E+03 0. -1.
<mgrwt>
<rscale>  2 0.66991132E+03</rscale>
<asrwt>0</asrwt>
<pdfrwt beam="1">  1       21 0.32690669E+00 0.66991132E+03</pdfrwt>
<pdfrwt beam="2">  1       21 0.33352421E-01 0.66991132E+03</pdfrwt>
<totfact> 0.14278435E+02</totfact>
</mgrwt>
</event>
<event>
 4    1  0.4732450E-002  0.6741823E+03  0.7818608E-02  0.9762432E-01
         21   -1    0    0  503  502  0.00000000000E+00  0.00000000000E+00  0.35219571848E+03  0.35219571848E+03  0.00000000000E+00 0.  1.
         21   -1    0    0  501  503 -0.00000000000E+00 -0.00000000000E+00 -0.13045169332E+04  0.13045169332E+04  0.00000000000E+00 0.  1.
    9000007    1    1    2  501    0  0.29130063671E+03  0.45789270221E+03 -0.39041006694E+03  0.77906470081E+03  0.40000000000E+03 0.  1.
   -9000007    1    1    2    0  502 -0.29130063671E+03 -0.45789270221E+03 -0.56191114778E+03  0.87764795088E+03  0.40000000000E+03 0.  1.
<mgrwt>
<rscale>  2 0.67418231E+03</rscale>
<asrwt>0</asrwt>
<pdfrwt beam="1">  1       21 0.54183956E-01 0.67418231E+03</pdfrwt>
<pdfrwt beam="2">  1       21 0.20069492E+00 0.67418231E+03</pdfrwt>
<totfact> 0.31917120E+02</totfact>
</mgrwt>
</event>
<event>
 4    1  0.4732450E-002  0.4460913E+03  0.7818608E-02  0.1028894E+00
         21   -1    0    0  503  502  0.00000000000E+00  0.00000000000E+00  0.44317077742E+03  0.44317077742E+03  0.00000000000E+00 0.  1.
         21   -1    0    0  501  503 -0.00000000000E+00 -0.00000000000E+00 -0.45072415374E+03  0.45072415374E+03  0.00000000000E+00 0.  1.
    9000007    1    1    2  501    0 -0.43502874056E+00 -0.19747718891E+03 -0.31170078030E+02  0.44717893863E+03  0.40000000000E+03 0.  1.
   -9000007    1    1    2    0  502  0.43502874056E+00  0.19747718891E+03  0.23616701710E+02  0.44671599254E+03  0.40000000000E+03 0.  1.
<mgrwt>
<rscale>  2 0.44609128E+03</rscale>
<asrwt>0</asrwt>
<pdfrwt beam="1">  1       21 0.68180119E-01 0.44609128E+03</pdfrwt>
<pdfrwt beam="2">  1       21 0.69342178E-01 0.44609128E+03</pdfrwt>
<totfact> 0.32446835E+03</totfact>
</mgrwt>
</event>
<event>
 4    1  0.4732450E-002  0.4918134E+03  0.7818608E-02  0.1015938E+00
         21   -1    0    0  501  502  0.00000000000E+00  0.00000000000E+00  0.60238980737E+03  0.60238980737E+03  0.00000000000E+00 0. -1.
         21   -1    0    0  502  503 -0.00000000000E+00 -0.00000000000E+00 -0.43846439680E+03  0.43846439680E+03  0.00000000000E+00 0. -1.
    9000007    1    1    2  501    0 -0.26276791498E+03 -0.11328487699E+03  0.23299865016E+03  0.54421393907E+03  0.40000000000E+03 0. -1.
   -9000007    1    1    2    0  503  0.26276791498E+03  0.11328487699E+03 -0.69073239587E+02  0.49664026511E+03  0.40000000000E+03 0. -1.
<mgrwt>
<rscale>  2 0.49181342E+03</rscale>
<asrwt>0</asrwt>
<pdfrwt beam="1">  1       21 0.92675355E-01 0.49181342E+03</pdfrwt>
<pdfrwt beam="2">  1       21 0.67456061E-01 0.49181342E+03</pdfrwt>
<totfact> 0.16707055E+03</totfact>
</mgrwt>
</event>
<event>
 4    1  0.4732450E-002  0.5878594E+03  0.7818608E-02  0.9930919E-01
         21   -1    0    0  501  502  0.00000000000E+00  0.00000000000E+00  0.93086645219E+03  0.93086645219E+03  0.00000000000E+00 0.  1.
         21   -1    0    0  502  503 -0.00000000000E+00 -0.00000000000E+00 -0.11879331113E+04  0.11879331113E+04  0.00000000000E+00 0.  1.
    9000007    1    1    2  501    0 -0.19371179980E+03 -0.38477838736E+03  0.74986650255E+03  0.95282655316E+03  0.40000000000E+03 0.  1.
   -9000007    1    1    2    0  503  0.19371179980E+03  0.38477838736E+03 -0.10069331616E+04  0.11659730103E+04  0.40000000000E+03 0.  1.
<mgrwt>
<rscale>  2 0.58785940E+03</rscale>
<asrwt>0</asrwt>
<pdfrwt beam="1">  1       21 0.14321022E+00 0.58785940E+03</pdfrwt>
<pdfrwt beam="2">  1       21 0.18275894E+00 0.58785940E+03</pdfrwt>
<totfact> 0.42742558E+01</totfact>
</mgrwt>
</event>
<event>
 4    1  0.4732450E-002  0.4862294E+03  0.7818608E-02  0.1017437E+00
         21   -1    0    0  503  502  0.00000000000E+00  0.00000000000E+00  0.11504673006E+04  0.11504673006E+04  0.00000000000E+00 0.  1.
         21   -1    0    0  501  503 -0.00000000000E+00 -0.00000000000E+00 -0.29418809371E+03  0.29418809371E+03  0.00000000000E+00 0. -1.
    9000007    1    1    2  501    0  0.83009489020E+02  0.26368240261E+03  0.31534100988E+02  0.48725084324E+03  0.40000000000E+03 0. -1.
   -9000007    1    1    2    0  502 -0.83009489020E+02 -0.26368240261E+03  0.82474510590E+03  0.95740455107E+03  0.40000000000E+03 0.  1.
<mgrwt>
<rscale>  2 0.48622935E+03</rscale>
<asrwt>0</asrwt>
<pdfrwt beam="1">  1       21 0.17699497E+00 0.48622935E+03</pdfrwt>
<pdfrwt beam="2">  1       21 0.45259707E-01 0.48622935E+03</pdfrwt>
<totfact> 0.73396507E+02</totfact>
</mgrwt>
</event>
<event>
 4    1  0.4732450E-002  0.4915630E+03  0.7818608E-02  0.1016005E+00
         21   -1    0    0  501  502  0.00000000000E+00  0.00000000000E+00  0.93264809295E+03  0.93264809295E+03  0.00000000000E+00 0.  1.
         21   -1    0    0  502  503 -0.00000000000E+00 -0.00000000000E+00 -0.26398850797E+03  0.26398850797E+03  0.00000000000E+00 0.  1.
    9000007    1    1    2  501    0 -0.26964429705E+03 -0.94478450156E+02  0.25277748271E+03  0.55274829737E+03  0.40000000000E+03 0.  1.
   -9000007    1    1    2    0  503  0.26964429705E+03  0.94478450156E+02  0.41588210226E+03  0.64388830356E+03  0.40000000000E+03 0.  1.
<mgrwt>
<rscale>  2 0.49156304E+03</rscale>
<asrwt>0</asrwt>
<pdfrwt beam="1">  1       21 0.14348432E+00 0.49156304E+03</pdfrwt>
<pdfrwt beam="2">  1       21 0.40613617E-01 0.49156304E+03</pdfrwt>
<totfact> 0.16486513E+03</totfact>
</mgrwt>
</event>
<event>
 4    1  0.4732450E-002  0.4129232E+03  0.7818608E-02  0.1039394E+00
         21   -1    0    0  501  502  0.00000000000E+00  0.00000000000E+00  0.35057395717E+04  0.35057395717E+04  0.00000000000E+00 0.  1.
         21   -1    0    0  502  503 -0.00000000000E+00 -0.00000000000E+00 -0.11085338039E+03  0.11085338039E+03  0.00000000000E+00 0.  1.
    9000007    1    1    2  501    0 -0.33182881057E+02  0.96976549809E+02  0.30521664663E+04  0.30799717032E+04  0.40000000000E+03 0.  1.
   -9000007    1    1    2    0  503  0.33182881057E+02 -0.96976549809E+02  0.34271972502E+03  0.53662124886E+03  0.40000000000E+03 0.  1.
<mgrwt>
<rscale>  2 0.41292318E+03</rscale>
<asrwt>0</asrwt>
<pdfrwt beam="1">  1       21 0.53934446E+00 0.41292318E+03</pdfrwt>
<pdfrwt beam="2">  1       21 0.17054369E-01 0.41292318E+03</pdfrwt>
<totfact> 0.23097846E+01</totfact>
</mgrwt>
</event>
<event>
 4    1  0.4732450E-002  0.6667540E+03  0.7818608E-02  0.9775840E-01
         21   -1    0    0  501  502  0.00000000000E+00  0.00000000000E+00  0.12135538151E+04  0.12135538151E+04  0.00000000000E+00 0. -1.
         21   -1    0    0  502  503 -0.00000000000E+00 -0.00000000000E+00 -0.40450088893E+03  0.40450088893E+03  0.00000000000E+00 0.  1.
    9000007    1    1    2  501    0 -0.10537142304E+03 -0.52293185082E+03  0.65305202397E+03  0.93329406052E+03  0.40000000000E+03 0. -1.
   -9000007    1    1    2    0  503  0.10537142304E+03  0.52293185082E+03  0.15600090220E+03  0.68476064350E+03  0.40000000000E+03 0.  1.
<mgrwt>
<rscale>  2 0.66675397E+03</rscale>
<asrwt>0</asrwt>
<pdfrwt beam="1">  1       21 0.18670059E+00 0.66675397E+03</pdfrwt>
<pdfrwt beam="2">  1       21 0.62230907E-01 0.66675397E+03</pdfrwt>
<totfact> 0.29461820E+02</totfact>
</mgrwt>
</event>
<event>
 4    1  0.4732450E-002  0.4038365E+03  0.7818608E-02  0.1042459E+00
         21   -1    0    0  501  502  0.00000000000E+00  0.00000000000E+00  0.50031348071E+03  0.50031348071E+03  0.00000000000E+00 0. -1.
         21   -1    0    0  502  503 -0.00000000000E+00 -0.00000000000E+00 -0.36947280419E+03  0.36947280419E+03  0.00000000000E+00 0. -1.
    9000007    1    1    2  501    0  0.16593987296E-01 -0.55533103198E+02  0.21465938436E+03  0.45734295351E+03  0.40000000000E+03 0. -1.
   -9000007    1    1    2    0  503 -0.16593987296E-01  0.55533103198E+02 -0.83818707848E+02  0.41244333139E+03  0.40000000000E+03 0. -1.
<mgrwt>
<rscale>  2 0.40383651E+03</rscale>
<asrwt>0</asrwt>
<pdfrwt beam="1">  1       21 0.76971305E-01 0.40383651E+03</pdfrwt>
<pdfrwt beam="2">  1       21 0.56841970E-01 0.40383651E+03</pdfrwt>
<totfact> 0.38827607E+03</totfact>
</mgrwt>
</event>
<event>
 4    1  0.4732450E-002  0.4198743E+03  0.7818608E-02  0.1037107E+00
         21   -1    0    0  501  502  0.00000000000E+00  0.00000000000E+00  0.76295035804E+03  0.76295035804E+03  0.00000000000E+00 0. -1.
         21   -1    0    0  502  503 -0.00000000000E+00 -0.00000000000E+00 -0.23964489568E+03  0.23964489568E+03  0.00000000000E+00 0. -1.
    9000007    1    1    2  501    0 -0.11017984387E+03  0.64457754309E+02  0.35648232147E+03  0.55079401377E+03  0.40000000000E+03 0.  1.
   -9000007    1    1    2    0  503  0.11017984387E+03 -0.64457754309E+02  0.16682314089E+03  0.45180123995E+03  0.40000000000E+03 0.  1.
<mgrwt>
<rscale>  2 0.41987427E+03</rscale>
<asrwt>0</asrwt>
<pdfrwt beam="1">  1       21 0.11737698E+00 0.41987427E+03</pdfrwt>
<pdfrwt beam="2">  1       21 0.36868446E-01 0.41987427E+03</pdfrwt>
<totfact> 0.34810518E+03</totfact>
</mgrwt>
</event>
<event>
 4    1  0.4732450E-002  0.5863271E+03  0.7818608E-02  0.9934186E-01
         21   -1    0    0  501  502  0.00000000000E+00  0.00000000000E+00  0.80570996415E+03  0.80570996415E+03  0.00000000000E+00 0.  1.
         21   -1    0    0  502  503 -0.00000000000E+00 -0.00000000000E+00 -0.50218616306E+03  0.50218616306E+03  0.00000000000E+00 0.  1.
    9000007    1    1    2  501    0 -0.28660327670E+03  0.31880726307E+03  0.40533606822E+03  0.71279508795E+03  0.40000000000E+03 0.  1.
   -9000007    1    1    2    0  503  0.28660327670E+03 -0.31880726307E+03 -0.10181226713E+03  0.59510103927E+03  0.40000000000E+03 0.  1.
<mgrwt>
<rscale>  2 0.58632713E+03</rscale>
<asrwt>0</asrwt>
<pdfrwt beam="1">  1       21 0.12395538E+00 0.58632713E+03</pdfrwt>
<pdfrwt beam="2">  1       21 0.77259410E-01 0.58632713E+03</pdfrwt>
<totfact> 0.57728329E+02</totfact>
</mgrwt>
</event>
<event>
 4    1  0.4732450E-002  0.4485648E+03  0.7818608E-02  0.1028151E+00
         21   -1    0    0  503  502  0.00000000000E+00  0.00000000000E+00  0.51973026129E+03  0.51973026129E+03  0.00000000000E+00 0.  1.
         21   -1    0    0  501  503 -0.00000000000E+00 -0.00000000000E+00 -0.50086264871E+03  0.50086264871E+03  0.00000000000E+00 0. -1.
    9000007    1    1    2  501    0 -0.18425413010E+03 -0.85210202742E+02 -0.23371906436E+03  0.50580130897E+03  0.40000000000E+03 0. -1.
   -9000007    1    1    2    0  502  0.18425413010E+03  0.85210202742E+02  0.25258667695E+03  0.51479160102E+03  0.40000000000E+03 0.  1.
<mgrwt>
<rscale>  2 0.44856478E+03</rscale>
<asrwt>0</asrwt>
<pdfrwt beam="1">  1       21 0.79958502E-01 0.44856478E+03</pdfrwt>
<pdfrwt beam="2">  1       21 0.77055792E-01 0.44856478E+03</pdfrwt>
<totfact> 0.17757789E+03</totfact>
</mgrwt>
</event>
<event>
 4    1  0.4732450E-002  0.5265553E+03  0.7818608E-02  0.1007071E+00
         21   -1    0    0  503  502  0.00000000000E+00  0.00000000000E+00  0.43752803848E+03  0.43752803848E+03  0.00000000000E+00 0. -1.
         21   -1    0    0  501  503 -0.00000000000E+00 -0.00000000000E+00 -0.73842163479E+03  0.73842163479E+03  0.00000000000E+00 0. -1.
    9000007    1    1    2  501    0 -0.67135392678E-01  0.34243313137E+03 -0.37187339389E+03  0.64463189112E+03  0.40000000000E+03 0. -1.
   -9000007    1    1    2    0  502  0.67135392678E-01 -0.34243313137E+03  0.70979797578E+02  0.53131778215E+03  0.40000000000E+03 0. -1.
<mgrwt>
<rscale>  2 0.52655527E+03</rscale>
<asrwt>0</asrwt>
<pdfrwt beam="1">  1       21 0.67312006E-01 0.52655527E+03</pdfrwt>
<pdfrwt beam="2">  1       21 0.11360333E+00 0.52655527E+03</pdfrwt>
<totfact> 0.10067960E+03</totfact>
</mgrwt>
</event>
<event>
 4    1  0.4732450E-002  0.4180772E+03  0.7818608E-02  0.1037694E+00
         21   -1    0    0  503  502  0.00000000000E+00  0.00000000000E+00  0.15775416137E+04  0.15775416137E+04  0.00000000000E+00 0.  1.
         21   -1    0    0  501  503 -0.00000000000E+00 -0.00000000000E+00 -0.21541894188E+03  0.21541894188E+03  0.00000000000E+00 0. -1.
    9000007    1    1    2  501    0  0.10489966452E+03 -0.61518974045E+02  0.56308812766E+02  0.42185211411E+03  0.40000000000E+03 0. -1.
   -9000007    1    1    2    0  502 -0.10489966452E+03  0.61518974045E+02  0.13058138591E+04  0.13711084415E+04  0.40000000000E+03 0.  1.
<mgrwt>
<rscale>  2 0.41807717E+03</rscale>
<asrwt>0</asrwt>
<pdfrwt beam="1">  1       21 0.24269870E+00 0.41807717E+03</pdfrwt>
<pdfrwt beam="2">  1       21 0.33141377E-01 0.41807717E+03</pdfrwt>
<totfact> 0.53262850E+02</totfact>
</mgrwt>
</event>
<event>
 4    1  0.4732450E-002  0.4830002E+03  0.7818608E-02  0.1018314E+00
         21   -1    0    0  503  502  0.00000000000E+00  0.00000000000E+00  0.56047155023E+03  0.56047155023E+03  0.00000000000E+00 0. -1.
         21   -1    0    0  501  503 -0.00000000000E+00 -0.00000000000E+00 -0.55502455989E+03  0.55502455989E+03  0.00000000000E+00 0. -1.
    9000007    1    1    2  501    0  0.68113852575E+02 -0.26201087977E+03 -0.27618174365E+03  0.55638615507E+03  0.40000000000E+03 0. -1.
   -9000007    1    1    2    0  502 -0.68113852575E+02  0.26201087977E+03  0.28162873399E+03  0.55910995505E+03  0.40000000000E+03 0. -1.
<mgrwt>
<rscale>  2 0.48300021E+03</rscale>
<asrwt>0</asrwt>
<pdfrwt beam="1">  1       21 0.86226392E-01 0.48300021E+03</pdfrwt>
<pdfrwt beam="2">  1       21 0.85388394E-01 0.48300021E+03</pdfrwt>
<totfact> 0.11585481E+03</totfact>
</mgrwt>
</event>
<event>
 4    1  0.4732450E-002  0.4163499E+03  0.7818608E-02  0.1038261E+00
         21   -1    0    0  503  502  0.00000000000E+00  0.00000000000E+00  0.11660791674E+04  0.11660791674E+04  0.00000000000E+00 0. -1.
         21   -1    0    0  501  503 -0.00000000000E+00 -0.00000000000E+00 -0.17601081245E+03  0.17601081245E+03  0.00000000000E+00 0. -1.
    9000007    1    1    2  501    0 -0.46343927794E+02 -0.10582774122E+03  0.23050042313E+03  0.47589674880E+03  0.40000000000E+03 0. -1.
   -9000007    1    1    2    0  502  0.46343927794E+02  0.10582774122E+03  0.75956793183E+03  0.86619323105E+03  0.40000000000E+03 0. -1.
<mgrwt>
<rscale>  2 0.41634994E+03</rscale>
<asrwt>0</asrwt>
<pdfrwt beam="1">  1       21 0.17939679E+00 0.41634994E+03</pdfrwt>
<pdfrwt beam="2">  1       21 0.27078587E-01 0.41634994E+03</pdfrwt>
<totfact> 0.20599954E+03</totfact>
</mgrwt>
</event>
<event>
 4    1  0.4732450E-002  0.4864298E+03  0.7818608E-02  0.1017383E+00
         21   -1    0    0  503  502  0.00000000000E+00  0.00000000000E+00  0.21362198471E+03  0.21362198471E+03  0.00000000000E+00 0.  1.
         21   -1    0    0  501  503 -0.00000000000E+00 -0.00000000000E+00 -0.19565913202E+04  0.19565913202E+04  0.00000000000E+00 0.  1.
    9000007    1    1    2  501    0 -0.13214341646E+03 -0.24321192690E+03 -0.15862550526E+04  0.16591621428E+04  0.40000000000E+03 0.  1.
   -9000007    1    1    2    0  502  0.13214341646E+03  0.24321192690E+03 -0.15671428285E+03  0.51105116216E+03  0.40000000000E+03 0.  1.
<mgrwt>
<rscale>  2 0.48642977E+03</rscale>
<asrwt>0</asrwt>
<pdfrwt beam="1">  1       21 0.32864920E-01 0.48642977E+03</pdfrwt>
<pdfrwt beam="2">  1       21 0.30101406E+00 0.48642977E+03</pdfrwt>
<totfact> 0.23083264E+02</totfact>
</mgrwt>
</event>
<event>
 4    1  0.4732450E-002  0.4057178E+03  0.7818608E-02  0.1041818E+00
         21   -1    0    0  501  502  0.00000000000E+00  0.00000000000E+00  0.12680252656E+04  0.12680252656E+04  0.00000000000E+00 0. -1.
         21   -1    0    0  502  503 -0.00000000000E+00 -0.00000000000E+00 -0.14729979794E+03  0.14729979794E+03  0.00000000000E+00 0. -1.
    9000007    1    1    2  501    0 -0.61411161169E+02  0.28906553731E+02  0.80418472354E+03  0.90073302878E+03  0.40000000000E+03 0. -1.
   -9000007    1    1    2    0  503  0.61411161169E+02 -0.28906553731E+02  0.31654074415E+03  0.51459203480E+03  0.40000000000E+03 0. -1.
<mgrwt>
<rscale>  2 0.40571778E+03</rscale>
<asrwt>0</asrwt>
<pdfrwt beam="1">  1       21 0.19508080E+00 0.40571778E+03</pdfrwt>
<pdfrwt beam="2">  1       21 0.22661508E-01 0.40571778E+03</pdfrwt>
<totfact> 0.22815403E+03</totfact>
</mgrwt>
</event>
<event>
 4    1  0.4732450E-002  0.4442186E+03  0.7818608E-02  0.1029460E+00
         21   -1    0    0  503  502  0.00000000000E+00  0.00000000000E+00  0.19731961674E+03  0.19731961674E+03  0.00000000000E+00 0.  1.
         21   -1    0    0  501  503 -0.00000000000E+00 -0.00000000000E+00 -0.10012732819E+04  0.10012732819E+04  0.00000000000E+00 0.  1.
    9000007    1    1    2  501    0  0.52969107723E+02  0.18580742317E+03 -0.42289628001E+03  0.61332812468E+03  0.40000000000E+03 0. -1.
   -9000007    1    1    2    0  502 -0.52969107723E+02 -0.18580742317E+03 -0.38105738520E+03  0.58526477400E+03  0.40000000000E+03 0. -1.
<mgrwt>
<rscale>  2 0.44421856E+03</rscale>
<asrwt>0</asrwt>
<pdfrwt beam="1">  1       21 0.30356865E-01 0.44421856E+03</pdfrwt>
<pdfrwt beam="2">  1       21 0.15404204E+00 0.44421856E+03</pdfrwt>
<totfact> 0.24980599E+03</totfact>
</mgrwt>
</event>
<event>
 4    1  0.4732450E-002  0.5730679E+03  0.7818608E-02  0.9962913E-01
         21   -1    0    0  503  502  0.00000000000E+00  0.00000000000E+00  0.12382862335E+04  0.12382862335E+04  0.00000000000E+00 0.  1.
         21   -1    0    0  501  503 -0.00000000000E+00 -0.00000000000E+00 -0.29030806689E+03  0.29030806689E+03  0.00000000000E+00 0.  1.
    9000007    1    1    2  501    0  0.39658219657E+03  0.10549602512E+03  0.69871136260E+03  0.90366167241E+03  0.40000000000E+03 0.  1.
   -9000007    1    1    2    0  502 -0.39658219657E+03 -0.10549602512E+03  0.24926680405E+03  0.62493262801E+03  0.40000000000E+03 0.  1.
<mgrwt>
<rscale>  2 0.57306793E+03</rscale>
<asrwt>0</asrwt>
<pdfrwt beam="1">  1       21 0.19050557E+00 0.57306793E+03</pdfrwt>
<pdfrwt beam="2">  1       21 0.44662780E-01 0.57306793E+03</pdfrwt>
<totfact> 0.58648474E+02</totfact>
</mgrwt>
</event>
<event>
 4    1  0.4732450E-002  0.5219096E+03  0.7818608E-02  0.1008213E+00
         21   -1    0    0  503  502  0.00000000000E+00  0.00000000000E+00  0.91401888997E+03  0.91401888997E+03  0.00000000000E+00 0.  1.
         21   -1    0    0  501  503 -0.00000000000E+00 -0.00000000000E+00 -0.30460714831E+03  0.30460714831E+03  0.00000000000E+00 0. -1.
    9000007    1    1    2  501    0 -0.32747660320E+03  0.71754409001E+02  0.21505679307E+03  0.56448121767E+03  0.40000000000E+03 0. -1.
   -9000007    1    1    2    0  502  0.32747660320E+03 -0.71754409001E+02  0.39435494859E+03  0.65414482061E+03  0.40000000000E+03 0.  1.
<mgrwt>
<rscale>  2 0.52190959E+03</rscale>
<asrwt>0</asrwt>
<pdfrwt beam="1">  1       21 0.14061829E+00 0.52190959E+03</pdfrwt>
<pdfrwt beam="2">  1       21 0.46862639E-01 0.52190959E+03</pdfrwt>
<totfact> 0.12764016E+03</totfact>
</mgrwt>
</event>
<event>
 4    1  0.4732450E-002  0.5074209E+03  0.7818608E-02  0.1011860E+00
         21   -1    0    0  503  502  0.00000000000E+00  0.00000000000E+00  0.94520311016E+03  0.94520311016E+03  0.00000000000E+00 0. -1.
         21   -1    0    0  501  503 -0.00000000000E+00 -0.00000000000E+00 -0.64557037367E+03  0.64557037367E+03  0.00000000000E+00 0. -1.
    9000007    1    1    2  501    0 -0.27979371230E+03  0.13853302049E+03 -0.45490948328E+03  0.68148261694E+03  0.40000000000E+03 0. -1.
   -9000007    1    1    2    0  502  0.27979371230E+03 -0.13853302049E+03  0.75454221977E+03  0.90929086689E+03  0.40000000000E+03 0. -1.
<mgrwt>
<rscale>  2 0.50742085E+03</rscale>
<asrwt>0</asrwt>
<pdfrwt beam="1">  1       21 0.14541586E+00 0.50742085E+03</pdfrwt>
<pdfrwt beam="2">  1       21 0.99318520E-01 0.50742085E+03</pdfrwt>
<totfact> 0.21549486E+02</totfact>
</mgrwt>
</event>
<event>
 4    1  0.4732450E-002  0.4494054E+03  0.7818608E-02  0.1027900E+00
         21   -1    0    0  503  502  0.00000000000E+00  0.00000000000E+00  0.30402178041E+03  0.30402178041E+03  0.00000000000E+00 0.  1.
         21   -1    0    0  501  503 -0.00000000000E+00 -0.00000000000E+00 -0.76630847313E+03  0.76630847313E+03  0.00000000000E+00 0. -1.
    9000007    1    1    2  501    0 -0.20460788391E+03 -0.10041744225E+02 -0.35898657520E+02  0.45083692883E+03  0.40000000000E+03 0.  1.
   -9000007    1    1    2    0  502  0.20460788391E+03  0.10041744225E+02 -0.42638803520E+03  0.61949332470E+03  0.40000000000E+03 0. -1.
<mgrwt>
<rscale>  2 0.44940541E+03</rscale>
<asrwt>0</asrwt>
<pdfrwt beam="1">  1       21 0.46772582E-01 0.44940541E+03</pdfrwt>
<pdfrwt beam="2">  1       21 0.11789361E+00 0.44940541E+03</pdfrwt>
<totfact> 0.20805032E+03</totfact>
</mgrwt>
</event>
<event>
 4    1  0.4732450E-002  0.4413300E+03  0.7818608E-02  0.1030340E+00
         21   -1    0    0  503  502  0.00000000000E+00  0.00000000000E+00  0.60864744971E+03  0.60864744971E+03  0.00000000000E+00 0. -1.
         21   -1    0    0  501  503 -0.00000000000E+00 -0.00000000000E+00 -0.41634902563E+03  0.41634902563E+03  0.00000000000E+00 0. -1.
    9000007    1    1    2  501    0  0.84699184304E+02  0.16612717500E+03 -0.15038019171E+03  0.46624713635E+03  0.40000000000E+03 0. -1.
   -9000007    1    1    2    0  502 -0.84699184304E+02 -0.16612717500E+03  0.34267861579E+03  0.55874933898E+03  0.40000000000E+03 0. -1.
<mgrwt>
<rscale>  2 0.44133002E+03</rscale>
<asrwt>0</asrwt>
<pdfrwt beam="1">  1       21 0.93638069E-01 0.44133002E+03</pdfrwt>
<pdfrwt beam="2">  1       21 0.64053696E-01 0.44133002E+03</pdfrwt>
<totfact> 0.18637541E+03</totfact>
</mgrwt>
</event>
<event>
 4    1  0.4732450E-002  0.4317538E+03  0.7818608E-02  0.1033307E+00
         21   -1    0    0  501  502  0.00000000000E+00  0.00000000000E+00  0.31349446590E+03  0.31349446590E+03  0.00000000000E+00 0. -1.
         21   -1    0    0  502  503 -0.00000000000E+00 -0.00000000000E+00 -0.73718008718E+03  0.73718008718E+03  0.00000000000E+00 0. -1.
    9000007    1    1    2  501    0 -0.15763022998E+03  0.39548449073E+02 -0.44285991138E+03  0.61849516598E+03  0.40000000000E+03 0. -1.
   -9000007    1    1    2    0  503  0.15763022998E+03 -0.39548449073E+02  0.19174290104E+02  0.43217938709E+03  0.40000000000E+03 0. -1.
<mgrwt>
<rscale>  2 0.43175383E+03</rscale>
<asrwt>0</asrwt>
<pdfrwt beam="1">  1       21 0.48229918E-01 0.43175383E+03</pdfrwt>
<pdfrwt beam="2">  1       21 0.11341232E+00 0.43175383E+03</pdfrwt>
<totfact> 0.21633429E+03</totfact>
</mgrwt>
</event>
<event>
 4    1  0.4732450E-002  0.5660282E+03  0.7818608E-02  0.9978506E-01
         21   -1    0    0  501  502  0.00000000000E+00  0.00000000000E+00  0.47249291609E+03  0.47249291609E+03  0.00000000000E+00 0.  1.
         21   -1    0    0  502  503 -0.00000000000E+00 -0.00000000000E+00 -0.23350671671E+04  0.23350671671E+04  0.00000000000E+00 0.  1.
    9000007    1    1    2  501    0  0.31597075906E+03  0.24606997393E+03  0.25123413993E+03  0.61927905319E+03  0.40000000000E+03 0.  1.
   -9000007    1    1    2    0  503 -0.31597075906E+03 -0.24606997393E+03 -0.21138083909E+04  0.21882810300E+04  0.40000000000E+03 0.  1.
<mgrwt>
<rscale>  2 0.56602823E+03</rscale>
<asrwt>0</asrwt>
<pdfrwt beam="1">  1       21 0.72691217E-01 0.56602823E+03</pdfrwt>
<pdfrwt beam="2">  1       21 0.35924111E+00 0.56602823E+03</pdfrwt>
<totfact> 0.17866368E+01</totfact>
</mgrwt>
</event>
<event>
 4    1  0.4732450E-002  0.4211683E+03  0.7818608E-02  0.1036687E+00
         21   -1    0    0  501  502  0.00000000000E+00  0.00000000000E+00  0.38967047091E+03  0.38967047091E+03  0.00000000000E+00 0.  1.
         21   -1    0    0  502  503 -0.00000000000E+00 -0.00000000000E+00 -0.53284116763E+03  0.53284116763E+03  0.00000000000E+00 0.  1.
    9000007    1    1    2  501    0 -0.12933165896E+03 -0.25614062062E+02  0.10447227544E+03  0.43393226951E+03  0.40000000000E+03 0. -1.
   -9000007    1    1    2    0  503  0.12933165896E+03  0.25614062062E+02 -0.24764297216E+03  0.48857936904E+03  0.40000000000E+03 0. -1.
<mgrwt>
<rscale>  2 0.42116833E+03</rscale>
<asrwt>0</asrwt>
<pdfrwt beam="1">  1       21 0.59949303E-01 0.42116833E+03</pdfrwt>
<pdfrwt beam="2">  1       21 0.81975564E-01 0.42116833E+03</pdfrwt>
<totfact> 0.29714459E+03</totfact>
</mgrwt>
</event>
<event>
 4    1  0.4732450E-002  0.5251984E+03  0.7818608E-02  0.1007403E+00
         21   -1    0    0  503  502  0.00000000000E+00  0.00000000000E+00  0.66369962722E+03  0.66369962722E+03  0.00000000000E+00 0. -1.
         21   -1    0    0  501  503 -0.00000000000E+00 -0.00000000000E+00 -0.55889307680E+03  0.55889307680E+03  0.00000000000E+00 0. -1.
    9000007    1    1    2  501    0 -0.27727739882E+01  0.34033177573E+03  0.36193160673E+03  0.63783061528E+03  0.40000000000E+03 0. -1.
   -9000007    1    1    2    0  502  0.27727739882E+01 -0.34033177573E+03 -0.25712505631E+03  0.58476208874E+03  0.40000000000E+03 0. -1.
<mgrwt>
<rscale>  2 0.52519844E+03</rscale>
<asrwt>0</asrwt>
<pdfrwt beam="1">  1       21 0.10210763E+00 0.52519844E+03</pdfrwt>
<pdfrwt beam="2">  1       21 0.85983551E-01 0.52519844E+03</pdfrwt>
<totfact> 0.74809336E+02</totfact>
</mgrwt>
</event>
<event>
 4    1  0.4732450E-002  0.4684904E+03  0.7818608E-02  0.1022347E+00
         21   -1    0    0  501  502  0.00000000000E+00  0.00000000000E+00  0.17588640712E+03  0.17588640712E+03  0.00000000000E+00 0.  1.
         21   -1    0    0  502  503 -0.00000000000E+00 -0.00000000000E+00 -0.19010448597E+04  0.19010448597E+04  0.00000000000E+00 0.  1.
    9000007    1    1    2  501    0  0.70873611261E+02 -0.23336704056E+03 -0.14712898976E+04  0.15440781092E+04  0.40000000000E+03 0.  1.
   -9000007    1    1    2    0  503 -0.70873611261E+02  0.23336704056E+03 -0.25386855492E+03  0.53285315760E+03  0.40000000000E+03 0.  1.
<mgrwt>
<rscale>  2 0.46849039E+03</rscale>
<asrwt>0</asrwt>
<pdfrwt beam="1">  1       21 0.27059448E-01 0.46849039E+03</pdfrwt>
<pdfrwt beam="2">  1       21 0.29246843E+00 0.46849039E+03</pdfrwt>
<totfact> 0.38639370E+02</totfact>
</mgrwt>
</event>
<event>
 4    1  0.4732450E-002  0.4530583E+03  0.7818608E-02  0.1026814E+00
         21   -1    0    0  503  502  0.00000000000E+00  0.00000000000E+00  0.53883230158E+03  0.53883230158E+03  0.00000000000E+00 0.  1.
         21   -1    0    0  501  503 -0.00000000000E+00 -0.00000000000E+00 -0.41112742288E+03  0.41112742288E+03  0.00000000000E+00 0.  1.
    9000007    1    1    2  501    0  0.13322318012E+03 -0.16587155771E+03  0.19256270220E+03  0.49228262579E+03  0.40000000000E+03 0.  1.
   -9000007    1    1    2    0  502 -0.13322318012E+03  0.16587155771E+03 -0.64857823509E+02  0.45767709867E+03  0.40000000000E+03 0.  1.
<mgrwt>
<rscale>  2 0.45305826E+03</rscale>
<asrwt>0</asrwt>
<pdfrwt beam="1">  1       21 0.82897277E-01 0.45305826E+03</pdfrwt>
<pdfrwt beam="2">  1       21 0.63250373E-01 0.45305826E+03</pdfrwt>
<totfact> 0.25431060E+03</totfact>
</mgrwt>
</event>
<event>
 4    1  0.4732450E-002  0.4195813E+03  0.7818608E-02  0.1037203E+00
         21   -1    0    0  503  502  0.00000000000E+00  0.00000000000E+00  0.45272188193E+03  0.45272188193E+03  0.00000000000E+00 0. -1.
         21   -1    0    0  501  503 -0.00000000000E+00 -0.00000000000E+00 -0.43814960608E+03  0.43814960608E+03  0.00000000000E+00 0. -1.
    9000007    1    1    2  501    0 -0.96935134766E+02 -0.81560066974E+02 -0.14210402456E+03  0.44299212033E+03  0.40000000000E+03 0. -1.
   -9000007    1    1    2    0  502  0.96935134766E+02  0.81560066974E+02  0.15667630041E+03  0.44787936767E+03  0.40000000000E+03 0. -1.
<mgrwt>
<rscale>  2 0.41958130E+03</rscale>
<asrwt>0</asrwt>
<pdfrwt beam="1">  1       21 0.69649520E-01 0.41958130E+03</pdfrwt>
<pdfrwt beam="2">  1       21 0.67407632E-01 0.41958130E+03</pdfrwt>
<totfact> 0.33273344E+03</totfact>
</mgrwt>
</event>
<event>
 4    1  0.4732450E-002  0.4110737E+03  0.7818608E-02  0.1040011E+00
         21   -1    0    0  501  502  0.00000000000E+00  0.00000000000E+00  0.69762661455E+03  0.69762661455E+03  0.00000000000E+00 0. -1.
         21   -1    0    0  502  503 -0.00000000000E+00 -0.00000000000E+00 -0.26511179796E+03  0.26511179796E+03  0.00000000000E+00 0. -1.
    9000007    1    1    2  501    0 -0.44485654197E+02  0.83681400619E+02  0.35769689210E+03  0.54491156792E+03  0.40000000000E+03 0. -1.
   -9000007    1    1    2    0  503  0.44485654197E+02 -0.83681400619E+02  0.74817924492E+02  0.41782684459E+03  0.40000000000E+03 0. -1.
<mgrwt>
<rscale>  2 0.41107366E+03</rscale>
<asrwt>0</asrwt>
<pdfrwt beam="1">  1       21 0.10732717E+00 0.41107366E+03</pdfrwt>
<pdfrwt beam="2">  1       21 0.40786431E-01 0.41107366E+03</pdfrwt>
<totfact> 0.35477447E+03</totfact>
</mgrwt>
</event>
<event>
 4    1  0.4732450E-002  0.4482384E+03  0.7818608E-02  0.1028249E+00
         21   -1    0    0  501  502  0.00000000000E+00  0.00000000000E+00  0.15118437972E+04  0.15118437972E+04  0.00000000000E+00 0. -1.
         21   -1    0    0  502  503 -0.00000000000E+00 -0.00000000000E+00 -0.34506039815E+03  0.34506039815E+03  0.00000000000E+00 0. -1.
    9000007    1    1    2  501    0 -0.20033873272E+03 -0.27965988173E+02  0.13114202193E+04  0.13859078959E+04  0.40000000000E+03 0. -1.
   -9000007    1    1    2    0  503  0.20033873272E+03  0.27965988173E+02 -0.14463682025E+03  0.47099629945E+03  0.40000000000E+03 0. -1.
<mgrwt>
<rscale>  2 0.44823845E+03</rscale>
<asrwt>0</asrwt>
<pdfrwt beam="1">  1       21 0.23259135E+00 0.44823845E+03</pdfrwt>
<pdfrwt beam="2">  1       21 0.53086216E-01 0.44823845E+03</pdfrwt>
<totfact> 0.22788189E+02</totfact>
</mgrwt>
</event>
<event>
 4    1  0.4732450E-002  0.4842921E+03  0.7818608E-02  0.1017962E+00
         21   -1    0    0  501  502  0.00000000000E+00  0.00000000000E+00  0.48268578845E+03  0.48268578845E+03  0.00000000000E+00 0.  1.
         21   -1    0    0  502  503 -0.00000000000E+00 -0.00000000000E+00 -0.75862652575E+03  0.75862652575E+03  0.00000000000E+00 0. -1.
    9000007    1    1    2  501    0  0.27267880072E+03 -0.13604124362E+02  0.23416231647E+03  0.53793195761E+03  0.40000000000E+03 0.  1.
   -9000007    1    1    2    0  503 -0.27267880072E+03  0.13604124362E+02 -0.51010305377E+03  0.70338035658E+03  0.40000000000E+03 0. -1.
<mgrwt>
<rscale>  2 0.48429206E+03</rscale>
<asrwt>0</asrwt>
<pdfrwt beam="1">  1       21 0.74259353E-01 0.48429206E+03</pdfrwt>
<pdfrwt beam="2">  1       21 0.11671177E+00 0.48429206E+03</pdfrwt>
<totfact> 0.76530162E+02</totfact>
</mgrwt>
</event>
<event>
 4    1  0.4732450E-002  0.5013317E+03  0.7818608E-02  0.1013432E+00
         21   -1    0    0  501  502  0.00000000000E+00  0.00000000000E+00  0.93309166164E+03  0.93309166164E+03  0.00000000000E+00 0. -1.
         21   -1    0    0  502  503 -0.00000000000E+00 -0.00000000000E+00 -0.30551880754E+03  0.30551880754E+03  0.00000000000E+00 0. -1.
    9000007    1    1    2  501    0 -0.27533945646E+03 -0.12458592412E+03  0.10071794136E+03  0.51134877773E+03  0.40000000000E+03 0. -1.
   -9000007    1    1    2    0  503  0.27533945646E+03  0.12458592412E+03  0.52685491274E+03  0.72726169145E+03  0.40000000000E+03 0. -1.
<mgrwt>
<rscale>  2 0.50133170E+03</rscale>
<asrwt>0</asrwt>
<pdfrwt beam="1">  1       21 0.14355256E+00 0.50133170E+03</pdfrwt>
<pdfrwt beam="2">  1       21 0.47002894E-01 0.50133170E+03</pdfrwt>
<totfact> 0.12088197E+03</totfact>
</mgrwt>
</event>
<event>
 4    1  0.4732450E-002  0.4005761E+03  0.7818608E-02  0.1043580E+00
         21   -1    0    0  501  502  0.00000000000E+00  0.00000000000E+00  0.45639881823E+03  0.45639881823E+03  0.00000000000E+00 0. -1.
         21   -1    0    0  502  503 -0.00000000000E+00 -0.00000000000E+00 -0.36259157313E+03  0.36259157313E+03  0.00000000000E+00 0. -1.
    9000007    1    1    2  501    0  0.21090951854E+02  0.40467135920E+01 -0.24454383614E+02  0.40132184219E+03  0.40000000000E+03 0. -1.
   -9000007    1    1    2    0  503 -0.21090951854E+02 -0.40467135920E+01  0.11826162871E+03  0.41766854917E+03  0.40000000000E+03 0. -1.
<mgrwt>
<rscale>  2 0.40057609E+03</rscale>
<asrwt>0</asrwt>
<pdfrwt beam="1">  1       21 0.70215203E-01 0.40057609E+03</pdfrwt>
<pdfrwt beam="2">  1       21 0.55783319E-01 0.40057609E+03</pdfrwt>
<totfact> 0.49861194E+03</totfact>
</mgrwt>
</event>
<event>
 4    1  0.4732450E-002  0.4082169E+03  0.7818608E-02  0.1040971E+00
         21   -1    0    0  503  502  0.00000000000E+00  0.00000000000E+00  0.65383098935E+03  0.65383098935E+03  0.00000000000E+00 0.  1.
         21   -1    0    0  501  503 -0.00000000000E+00 -0.00000000000E+00 -0.28763370897E+03  0.28763370897E+03  0.00000000000E+00 0.  1.
    9000007    1    1    2  501    0 -0.77130119738E+02 -0.26305188173E+02  0.34197514024E+03  0.53252982531E+03  0.40000000000E+03 0.  1.
   -9000007    1    1    2    0  502  0.77130119738E+02  0.26305188173E+02  0.24222140133E+02  0.40893487302E+03  0.40000000000E+03 0.  1.
<mgrwt>
<rscale>  2 0.40821688E+03</rscale>
<asrwt>0</asrwt>
<pdfrwt beam="1">  1       21 0.10058938E+00 0.40821688E+03</pdfrwt>
<pdfrwt beam="2">  1       21 0.44251340E-01 0.40821688E+03</pdfrwt>
<totfact> 0.35154233E+03</totfact>
</mgrwt>
</event>
<event>
 4    1  0.4732450E-002  0.5262592E+03  0.7818608E-02  0.1007143E+00
         21   -1    0    0  501  502  0.00000000000E+00  0.00000000000E+00  0.15095024025E+03  0.15095024025E+03  0.00000000000E+00 0.  1.
         21   -1    0    0  502  503 -0.00000000000E+00 -0.00000000000E+00 -0.22343433662E+04  0.22343433662E+04  0.00000000000E+00 0.  1.
    9000007    1    1    2  501    0 -0.21835273741E+03  0.26319360431E+03 -0.53730036119E+03  0.75209073217E+03  0.40000000000E+03 0.  1.
   -9000007    1    1    2    0  503  0.21835273741E+03 -0.26319360431E+03 -0.15460927648E+04  0.16332028743E+04  0.40000000000E+03 0.  1.
<mgrwt>
<rscale>  2 0.52625924E+03</rscale>
<asrwt>0</asrwt>
<pdfrwt beam="1">  1       21 0.23223114E-01 0.52625924E+03</pdfrwt>
<pdfrwt beam="2">  1       21 0.34374513E+00 0.52625924E+03</pdfrwt>
<totfact> 0.24648584E+02</totfact>
</mgrwt>
</event>
<event>
 4    1  0.4732450E-002  0.4204512E+03  0.7818608E-02  0.1036920E+00
         21   -1    0    0  501  502  0.00000000000E+00  0.00000000000E+00  0.12342593520E+04  0.12342593520E+04  0.00000000000E+00 0.  1.
         21   -1    0    0  502  503 -0.00000000000E+00 -0.00000000000E+00 -0.15296434331E+03  0.15296434331E+03  0.00000000000E+00 0.  1.
    9000007    1    1    2  501    0  0.10835430407E+03  0.70982982046E+02  0.36564587308E+03  0.55720386166E+03  0.40000000000E+03 0.  1.
   -9000007    1    1    2    0  503 -0.10835430407E+03 -0.70982982046E+02  0.71564913565E+03  0.83001983368E+03  0.40000000000E+03 0.  1.
<mgrwt>
<rscale>  2 0.42045123E+03</rscale>
<asrwt>0</asrwt>
<pdfrwt beam="1">  1       21 0.18988605E+00 0.42045123E+03</pdfrwt>
<pdfrwt beam="2">  1       21 0.23532977E-01 0.42045123E+03</pdfrwt>
<totfact> 0.22853234E+03</totfact>
</mgrwt>
</event>
<event>
 4    1  0.4732450E-002  0.5823741E+03  0.7818608E-02  0.9942664E-01
         21   -1    0    0  503  502  0.00000000000E+00  0.00000000000E+00  0.79900731985E+03  0.79900731985E+03  0.00000000000E+00 0. -1.
         21   -1    0    0  501  503 -0.00000000000E+00 -0.00000000000E+00 -0.45875056538E+03  0.45875056538E+03  0.00000000000E+00 0. -1.
    9000007    1    1    2  501    0  0.38254042372E+03 -0.18116971955E+03 -0.17665435957E+01  0.58237682281E+03  0.40000000000E+03 0. -1.
   -9000007    1    1    2    0  502 -0.38254042372E+03  0.18116971955E+03  0.34202329806E+03  0.67538106242E+03  0.40000000000E+03 0. -1.
<mgrwt>
<rscale>  2 0.58237414E+03</rscale>
<asrwt>0</asrwt>
<pdfrwt beam="1">  1       21 0.12292420E+00 0.58237414E+03</pdfrwt>
<pdfrwt beam="2">  1       21 0.70577010E-01 0.58237414E+03</pdfrwt>
<totfact> 0.72651491E+02</totfact>
</mgrwt>
</event>
<event>
 4    1  0.4732450E-002  0.4187212E+03  0.7818608E-02  0.1037483E+00
         21   -1    0    0  503  502  0.00000000000E+00  0.00000000000E+00  0.12704378883E+04  0.12704378883E+04  0.00000000000E+00 0.  1.
         21   -1    0    0  501  503 -0.00000000000E+00 -0.00000000000E+00 -0.26047661873E+03  0.26047661873E+03  0.00000000000E+00 0. -1.
    9000007    1    1    2  501    0 -0.12132843471E+03  0.24633931396E+02 -0.19891367653E+02  0.41919337560E+03  0.40000000000E+03 0. -1.
   -9000007    1    1    2    0  502  0.12132843471E+03 -0.24633931396E+02  0.10298526372E+04  0.11117211314E+04  0.40000000000E+03 0.  1.
<mgrwt>
<rscale>  2 0.41872117E+03</rscale>
<asrwt>0</asrwt>
<pdfrwt beam="1">  1       21 0.19545198E+00 0.41872117E+03</pdfrwt>
<pdfrwt beam="2">  1       21 0.40073327E-01 0.41872117E+03</pdfrwt>
<totfact> 0.72676961E+02</totfact>
</mgrwt>
</event>
<event>
 4    1  0.4732450E-002  0.4133836E+03  0.7818608E-02  0.1039241E+00
         21   -1    0    0  501  502  0.00000000000E+00  0.00000000000E+00  0.43465753752E+03  0.43465753752E+03  0.00000000000E+00 0. -1.
         21   -1    0    0  502  503 -0.00000000000E+00 -0.00000000000E+00 -0.57131713822E+03  0.57131713822E+03  0.00000000000E+00 0. -1.
    9000007    1    1    2  501    0 -0.95853960121E+02 -0.41206758762E+02  0.21255691348E+03  0.46482945271E+03  0.40000000000E+03 0. -1.
   -9000007    1    1    2    0  503  0.95853960121E+02  0.41206758762E+02 -0.34921651418E+03  0.54114522304E+03  0.40000000000E+03 0. -1.
<mgrwt>
<rscale>  2 0.41338357E+03</rscale>
<asrwt>0</asrwt>
<pdfrwt beam="1">  1       21 0.66870391E-01 0.41338357E+03</pdfrwt>
<pdfrwt beam="2">  1       21 0.87894943E-01 0.41338357E+03</pdfrwt>
<totfact> 0.19897879E+03</totfact>
</mgrwt>
</event>
<event>
 4    1  0.4732450E-002  0.4805100E+03  0.7818608E-02  0.1018995E+00
         21   -1    0    0  503  502  0.00000000000E+00  0.00000000000E+00  0.11336042365E+04  0.11336042365E+04  0.00000000000E+00 0. -1.
         21   -1    0    0  501  503 -0.00000000000E+00 -0.00000000000E+00 -0.60511375599E+03  0.60511375599E+03  0.00000000000E+00 0. -1.
    9000007    1    1    2  501    0  0.10412277243E+03  0.24504753287E+03 -0.44384540393E+03  0.65413193447E+03  0.40000000000E+03 0. -1.
   -9000007    1    1    2    0  502 -0.10412277243E+03 -0.24504753287E+03  0.97233588447E+03  0.10845860581E+04  0.40000000000E+03 0. -1.
<mgrwt>
<rscale>  2 0.48050998E+03</rscale>
<asrwt>0</asrwt>
<pdfrwt beam="1">  1       21 0.17440065E+00 0.48050998E+03</pdfrwt>
<pdfrwt beam="2">  1       21 0.93094424E-01 0.48050998E+03</pdfrwt>
<totfact> 0.15365115E+02</totfact>
</mgrwt>
</event>
<event>
 4    1  0.4732450E-002  0.4365685E+03  0.7818608E-02  0.1031805E+00
         21   -1    0    0  501  502  0.00000000000E+00  0.00000000000E+00  0.14553000447E+04  0.14553000447E+04  0.00000000000E+00 0. -1.
         21   -1    0    0  502  503 -0.00000000000E+00 -0.00000000000E+00 -0.14349789490E+03  0.14349789490E+03  0.00000000000E+00 0. -1.
    9000007    1    1    2  501    0 -0.16026205840E+03  0.70058162568E+02  0.41964555880E+03  0.60555302701E+03  0.40000000000E+03 0.  1.
   -9000007    1    1    2    0  503  0.16026205840E+03 -0.70058162568E+02  0.89215659099E+03  0.99324491257E+03  0.40000000000E+03 0.  1.
<mgrwt>
<rscale>  2 0.43656852E+03</rscale>
<asrwt>0</asrwt>
<pdfrwt beam="1">  1       21 0.22389230E+00 0.43656852E+03</pdfrwt>
<pdfrwt beam="2">  1       21 0.22076600E-01 0.43656852E+03</pdfrwt>
<totfact> 0.15346926E+03</totfact>
</mgrwt>
</event>
<event>
 4    1  0.4732450E-002  0.4764461E+03  0.7818608E-02  0.1020116E+00
         21   -1    0    0  503  502  0.00000000000E+00  0.00000000000E+00  0.70942853175E+03  0.70942853175E+03  0.00000000000E+00 0. -1.
         21   -1    0    0  501  503 -0.00000000000E+00 -0.00000000000E+00 -0.77745947174E+03  0.77745947174E+03  0.00000000000E+00 0. -1.
    9000007    1    1    2  501    0 -0.15365378562E+03 -0.20830601402E+03 -0.60430653364E+03  0.76953704778E+03  0.40000000000E+03 0. -1.
   -9000007    1    1    2    0  502  0.15365378562E+03  0.20830601402E+03  0.53627559365E+03  0.71735095571E+03  0.40000000000E+03 0. -1.
<mgrwt>
<rscale>  2 0.47644609E+03</rscale>
<asrwt>0</asrwt>
<pdfrwt beam="1">  1       21 0.10914285E+00 0.47644609E+03</pdfrwt>
<pdfrwt beam="2">  1       21 0.11960915E+00 0.47644609E+03</pdfrwt>
<totfact> 0.28895863E+02</totfact>
</mgrwt>
</event>
<event>
 4    1  0.4732450E-002  0.4030985E+03  0.7818608E-02  0.1042712E+00
         21   -1    0    0  501  502  0.00000000000E+00  0.00000000000E+00  0.37398530627E+03  0.37398530627E+03  0.00000000000E+00 0. -1.
         21   -1    0    0  502  503 -0.00000000000E+00 -0.00000000000E+00 -0.43508311993E+03  0.43508311993E+03  0.00000000000E+00 0. -1.
    9000007    1    1    2  501    0  0.42970121336E+02  0.25336666037E+02 -0.45635785221E+02  0.40567351758E+03  0.40000000000E+03 0.  1.
   -9000007    1    1    2    0  503 -0.42970121336E+02 -0.25336666037E+02 -0.15462028439E+02  0.40339490862E+03  0.40000000000E+03 0.  1.
<mgrwt>
<rscale>  2 0.40309847E+03</rscale>
<asrwt>0</asrwt>
<pdfrwt beam="1">  1       21 0.57536201E-01 0.40309847E+03</pdfrwt>
<pdfrwt beam="2">  1       21 0.66935864E-01 0.40309847E+03</pdfrwt>
<totfact> 0.51851094E+03</totfact>
</mgrwt>
</event>
<event>
 4    1  0.4732450E-002  0.5128873E+03  0.7818608E-02  0.1010469E+00
         21   -1    0    0  503  502  0.00000000000E+00  0.00000000000E+00  0.91829749123E+03  0.91829749123E+03  0.00000000000E+00 0. -1.
         21   -1    0    0  501  503 -0.00000000000E+00 -0.00000000000E+00 -0.61464710743E+03  0.61464710743E+03  0.00000000000E+00 0.  1.
    9000007    1    1    2  501    0  0.15954557117E+03  0.27856519640E+03 -0.40824936479E+03  0.65553100749E+03  0.40000000000E+03 0.  1.
   -9000007    1    1    2    0  502 -0.15954557117E+03 -0.27856519640E+03  0.71189974859E+03  0.87741359117E+03  0.40000000000E+03 0. -1.
<mgrwt>
<rscale>  2 0.51288728E+03</rscale>
<asrwt>0</asrwt>
<pdfrwt beam="1">  1       21 0.14127654E+00 0.51288728E+03</pdfrwt>
<pdfrwt beam="2">  1       21 0.94561093E-01 0.51288728E+03</pdfrwt>
<totfact> 0.26161282E+02</totfact>
</mgrwt>
</event>
<event>
 4    1  0.4732450E-002  0.5557193E+03  0.7818608E-02  0.1000179E+00
         21   -1    0    0  503  502  0.00000000000E+00  0.00000000000E+00  0.17960153418E+03  0.17960153418E+03  0.00000000000E+00 0. -1.
         21   -1    0    0  501  503 -0.00000000000E+00 -0.00000000000E+00 -0.19534908064E+04  0.19534908064E+04  0.00000000000E+00 0. -1.
    9000007    1    1    2  501    0 -0.64548710641E+02  0.38033850441E+03 -0.12560736193E+04  0.13735155082E+04  0.40000000000E+03 0. -1.
   -9000007    1    1    2    0  502  0.64548710641E+02 -0.38033850441E+03 -0.51781565291E+03  0.75957683244E+03  0.40000000000E+03 0. -1.
<mgrwt>
<rscale>  2 0.55571928E+03</rscale>
<asrwt>0</asrwt>
<pdfrwt beam="1">  1       21 0.27631007E-01 0.55571928E+03</pdfrwt>
<pdfrwt beam="2">  1       21 0.30053703E+00 0.55571928E+03</pdfrwt>
<totfact> 0.31708805E+02</totfact>
</mgrwt>
</event>
<event>
 4    1  0.4732450E-002  0.8690137E+03  0.7818608E-02  0.9465167E-01
         21   -1    0    0  501  502  0.00000000000E+00  0.00000000000E+00  0.94199206655E+03  0.94199206655E+03  0.00000000000E+00 0. -1.
         21   -1    0    0  502  503 -0.00000000000E+00 -0.00000000000E+00 -0.10094515963E+04  0.10094515963E+04  0.00000000000E+00 0.  1.
    9000007    1    1    2  501    0 -0.59974919747E+03  0.48526870147E+03  0.40892669377E+03  0.96041962358E+03  0.40000000000E+03 0. -1.
   -9000007    1    1    2    0  503  0.59974919747E+03 -0.48526870147E+03 -0.47638622357E+03  0.99102403931E+03  0.40000000000E+03 0.  1.
<mgrwt>
<rscale>  2 0.86901370E+03</rscale>
<asrwt>0</asrwt>
<pdfrwt beam="1">  1       21 0.14492186E+00 0.86901370E+03</pdfrwt>
<pdfrwt beam="2">  1       21 0.15530025E+00 0.86901370E+03</pdfrwt>
<totfact> 0.59849946E+01</totfact>
</mgrwt>
</event>
<event>
 4    1  0.4732450E-002  0.4521107E+03  0.7818608E-02  0.1027094E+00
         21   -1    0    0  503  502  0.00000000000E+00  0.00000000000E+00  0.18456174241E+04  0.18456174241E+04  0.00000000000E+00 0. -1.
         21   -1    0    0  501  503 -0.00000000000E+00 -0.00000000000E+00 -0.23254215068E+03  0.23254215068E+03  0.00000000000E+00 0.  1.
    9000007    1    1    2  501    0  0.18179102995E+03 -0.10656523844E+03  0.54558531603E+02  0.45539077943E+03  0.40000000000E+03 0.  1.
   -9000007    1    1    2    0  502 -0.18179102995E+03  0.10656523844E+03  0.15585167418E+04  0.16227687953E+04  0.40000000000E+03 0. -1.
<mgrwt>
<rscale>  2 0.45211075E+03</rscale>
<asrwt>0</asrwt>
<pdfrwt beam="1">  1       21 0.28394113E+00 0.45211075E+03</pdfrwt>
<pdfrwt beam="2">  1       21 0.35775717E-01 0.45211075E+03</pdfrwt>
<totfact> 0.25138426E+02</totfact>
</mgrwt>
</event>
<event>
 4    1  0.4732450E-002  0.4144313E+03  0.7818608E-02  0.1038894E+00
         21   -1    0    0  501  502  0.00000000000E+00  0.00000000000E+00  0.17099805760E+03  0.17099805760E+03  0.00000000000E+00 0. -1.
         21   -1    0    0  502  503 -0.00000000000E+00 -0.00000000000E+00 -0.12348009705E+04  0.12348009705E+04  0.00000000000E+00 0. -1.
    9000007    1    1    2  501    0  0.75448967261E+01 -0.10814964615E+03 -0.22828776116E+03  0.47314751751E+03  0.40000000000E+03 0.  1.
   -9000007    1    1    2    0  503 -0.75448967261E+01  0.10814964615E+03 -0.83551515175E+03  0.93265151061E+03  0.40000000000E+03 0.  1.
<mgrwt>
<rscale>  2 0.41443126E+03</rscale>
<asrwt>0</asrwt>
<pdfrwt beam="1">  1       21 0.26307392E-01 0.41443126E+03</pdfrwt>
<pdfrwt beam="2">  1       21 0.18996939E+00 0.41443126E+03</pdfrwt>
<totfact> 0.18431558E+03</totfact>
</mgrwt>
</event>
<event>
 4    1  0.4732450E-002  0.5870776E+03  0.7818608E-02  0.9932585E-01
         21   -1    0    0  503  502  0.00000000000E+00  0.00000000000E+00  0.11967519975E+04  0.11967519975E+04  0.00000000000E+00 0.  1.
         21   -1    0    0  501  503 -0.00000000000E+00 -0.00000000000E+00 -0.68871359166E+03  0.68871359166E+03  0.00000000000E+00 0.  1.
    9000007    1    1    2  501    0 -0.40599992959E+03  0.14079842503E+03 -0.46507921528E+03  0.74897183913E+03  0.40000000000E+03 0.  1.
   -9000007    1    1    2    0  502  0.40599992959E+03 -0.14079842503E+03  0.97311762109E+03  0.11364937500E+04  0.40000000000E+03 0.  1.
<mgrwt>
<rscale>  2 0.58707763E+03</rscale>
<asrwt>0</asrwt>
<pdfrwt beam="1">  1       21 0.18411569E+00 0.58707763E+03</pdfrwt>
<pdfrwt beam="2">  1       21 0.10595594E+00 0.58707763E+03</pdfrwt>
<totfact> 0.91009661E+01</totfact>
</mgrwt>
</event>
<event>
 4    1  0.4732450E-002  0.7229906E+03  0.7818608E-02  0.9678703E-01
         21   -1    0    0  503  502  0.00000000000E+00  0.00000000000E+00  0.12822013827E+04  0.12822013827E+04  0.00000000000E+00 0.  1.
         21   -1    0    0  501  503 -0.00000000000E+00 -0.00000000000E+00 -0.97504992862E+03  0.97504992862E+03  0.00000000000E+00 0. -1.
    9000007    1    1    2  501    0  0.33820754858E+03 -0.49832827603E+03 -0.70736521656E+03  0.10114746493E+04  0.40000000000E+03 0. -1.
   -9000007    1    1    2    0  502 -0.33820754858E+03  0.49832827603E+03  0.10145166707E+04  0.12457766620E+04  0.40000000000E+03 0.  1.
<mgrwt>
<rscale>  2 0.72299061E+03</rscale>
<asrwt>0</asrwt>
<pdfrwt beam="1">  1       21 0.19726175E+00 0.72299061E+03</pdfrwt>
<pdfrwt beam="2">  1       21 0.15000768E+00 0.72299061E+03</pdfrwt>
<totfact> 0.28208404E+01</totfact>
</mgrwt>
</event>
<event>
 4    1  0.4732450E-002  0.5081376E+03  0.7818608E-02  0.1011676E+00
         21   -1    0    0  501  502  0.00000000000E+00  0.00000000000E+00  0.59035877056E+03  0.59035877056E+03  0.00000000000E+00 0. -1.
         21   -1    0    0  502  503 -0.00000000000E+00 -0.00000000000E+00 -0.55509950796E+03  0.55509950796E+03  0.00000000000E+00 0.  1.
    9000007    1    1    2  501    0 -0.17154020753E+03  0.26225527173E+03  0.28139071924E+03  0.58084817916E+03  0.40000000000E+03 0. -1.
   -9000007    1    1    2    0  503  0.17154020753E+03 -0.26225527173E+03 -0.24613145665E+03  0.56461009936E+03  0.40000000000E+03 0.  1.
<mgrwt>
<rscale>  2 0.50813765E+03</rscale>
<asrwt>0</asrwt>
<pdfrwt beam="1">  1       21 0.90824426E-01 0.50813765E+03</pdfrwt>
<pdfrwt beam="2">  1       21 0.85399924E-01 0.50813765E+03</pdfrwt>
<totfact> 0.10148329E+03</totfact>
</mgrwt>
</event>
<event>
 4    1  0.4732450E-002  0.4491992E+03  0.7818608E-02  0.1027961E+00
         21   -1    0    0  503  502  0.00000000000E+00  0.00000000000E+00  0.22240128093E+04  0.22240128093E+04  0.00000000000E+00 0. -1.
         21   -1    0    0  501  503 -0.00000000000E+00 -0.00000000000E+00 -0.23805509880E+03  0.23805509880E+03  0.00000000000E+00 0. -1.
    9000007    1    1    2  501    0 -0.18860194663E+03 -0.78798630021E+02  0.24538640380E+02  0.44986894007E+03  0.40000000000E+03 0. -1.
   -9000007    1    1    2    0  502  0.18860194663E+03  0.78798630021E+02  0.19614190702E+04  0.20121989681E+04  0.40000000000E+03 0. -1.
<mgrwt>
<rscale>  2 0.44919920E+03</rscale>
<asrwt>0</asrwt>
<pdfrwt beam="1">  1       21 0.34215580E+00 0.44919920E+03</pdfrwt>
<pdfrwt beam="2">  1       21 0.36623863E-01 0.44919920E+03</pdfrwt>
<totfact> 0.10690274E+02</totfact>
</mgrwt>
</event>
<event>
 4    1  0.4732450E-002  0.4510395E+03  0.7818608E-02  0.1027413E+00
         21   -1    0    0  503  502  0.00000000000E+00  0.00000000000E+00  0.21001250031E+04  0.21001250031E+04  0.00000000000E+00 0.  1.
         21   -1    0    0  501  503 -0.00000000000E+00 -0.00000000000E+00 -0.21133059736E+03  0.21133059736E+03  0.00000000000E+00 0. -1.
    9000007    1    1    2  501    0 -0.20840402743E+03  0.20934985091E+01  0.17949565489E+04  0.18507581241E+04  0.40000000000E+03 0.  1.
   -9000007    1    1    2    0  502  0.20840402743E+03 -0.20934985091E+01  0.93837856851E+02  0.46069747640E+03  0.40000000000E+03 0. -1.
<mgrwt>
<rscale>  2 0.45103949E+03</rscale>
<asrwt>0</asrwt>
<pdfrwt beam="1">  1       21 0.32309614E+00 0.45103949E+03</pdfrwt>
<pdfrwt beam="2">  1       21 0.32512401E-01 0.45103949E+03</pdfrwt>
<totfact> 0.17728228E+02</totfact>
</mgrwt>
</event>
<event>
 4    1  0.4732450E-002  0.4960972E+03  0.7818608E-02  0.1014803E+00
         21   -1    0    0  501  502  0.00000000000E+00  0.00000000000E+00  0.10529859061E+04  0.10529859061E+04  0.00000000000E+00 0.  1.
         21   -1    0    0  502  503 -0.00000000000E+00 -0.00000000000E+00 -0.48009030859E+03  0.48009030859E+03  0.00000000000E+00 0.  1.
    9000007    1    1    2  501    0  0.12223417970E+01  0.29344670906E+03  0.83555768935E+03  0.97173510660E+03  0.40000000000E+03 0.  1.
   -9000007    1    1    2    0  503 -0.12223417970E+01 -0.29344670906E+03 -0.26266209181E+03  0.56134110811E+03  0.40000000000E+03 0.  1.
<mgrwt>
<rscale>  2 0.49609723E+03</rscale>
<asrwt>0</asrwt>
<pdfrwt beam="1">  1       21 0.16199783E+00 0.49609723E+03</pdfrwt>
<pdfrwt beam="2">  1       21 0.73860048E-01 0.49609723E+03</pdfrwt>
<totfact> 0.32282451E+02</totfact>
</mgrwt>
</event>
<event>
 4    1  0.4732450E-002  0.1347244E+04  0.7818608E-02  0.8992917E-01
         21   -1    0    0  501  502  0.00000000000E+00  0.00000000000E+00  0.13098905792E+04  0.13098905792E+04  0.00000000000E+00 0.  1.
         21   -1    0    0  502  503 -0.00000000000E+00 -0.00000000000E+00 -0.13892774862E+04  0.13892774862E+04  0.00000000000E+00 0. -1.
    9000007    1    1    2  501    0 -0.67543652483E+03  0.10949212586E+04  0.29143516162E+02  0.13475594259E+04  0.40000000000E+03 0.  1.
   -9000007    1    1    2    0  503  0.67543652483E+03 -0.10949212586E+04 -0.10853042313E+03  0.13516086395E+04  0.40000000000E+03 0. -1.
<mgrwt>
<rscale>  2 0.13472442E+04</rscale>
<asrwt>0</asrwt>
<pdfrwt beam="1">  1       21 0.20152163E+00 0.13472442E+04</pdfrwt>
<pdfrwt beam="2">  1       21 0.21373500E+00 0.13472442E+04</pdfrwt>
<totfact> 0.75828468E+00</totfact>
</mgrwt>
</event>
<event>
 4    1  0.4732450E-002  0.4188993E+03  0.7818608E-02  0.1037425E+00
         21   -1    0    0  501  502  0.00000000000E+00  0.00000000000E+00  0.32841275027E+03  0.32841275027E+03  0.00000000000E+00 0. -1.
         21   -1    0    0  502  503 -0.00000000000E+00 -0.00000000000E+00 -0.76017673701E+03  0.76017673701E+03  0.00000000000E+00 0. -1.
    9000007    1    1    2  501    0 -0.34392528686E+02  0.11955643427E+03  0.80803322837E+02  0.42662133560E+03  0.40000000000E+03 0. -1.
   -9000007    1    1    2    0  503  0.34392528686E+02 -0.11955643427E+03 -0.51256730957E+03  0.66196815168E+03  0.40000000000E+03 0. -1.
<mgrwt>
<rscale>  2 0.41889926E+03</rscale>
<asrwt>0</asrwt>
<pdfrwt beam="1">  1       21 0.50525038E-01 0.41889926E+03</pdfrwt>
<pdfrwt beam="2">  1       21 0.11695027E+00 0.41889926E+03</pdfrwt>
<totfact> 0.18248990E+03</totfact>
</mgrwt>
</event>
<event>
 4    1  0.4732450E-002  0.4343607E+03  0.7818608E-02  0.1032491E+00
         21   -1    0    0  501  502  0.00000000000E+00  0.00000000000E+00  0.19187935138E+04  0.19187935138E+04  0.00000000000E+00 0. -1.
         21   -1    0    0  502  503 -0.00000000000E+00 -0.00000000000E+00 -0.10531297220E+03  0.10531297220E+03  0.00000000000E+00 0.  1.
    9000007    1    1    2  501    0 -0.10447485399E+03  0.13324509929E+03  0.11674007418E+04  0.12455897172E+04  0.40000000000E+03 0. -1.
   -9000007    1    1    2    0  503  0.10447485399E+03 -0.13324509929E+03  0.64607979972E+03  0.77851676874E+03  0.40000000000E+03 0.  1.
<mgrwt>
<rscale>  2 0.43436074E+03</rscale>
<asrwt>0</asrwt>
<pdfrwt beam="1">  1       21 0.29519898E+00 0.43436074E+03</pdfrwt>
<pdfrwt beam="2">  1       21 0.16201997E-01 0.43436074E+03</pdfrwt>
<totfact> 0.10112507E+03</totfact>
</mgrwt>
</event>
<event>
 4    1  0.4732450E-002  0.5700026E+03  0.7818608E-02  0.9969673E-01
         21   -1    0    0  501  502  0.00000000000E+00  0.00000000000E+00  0.18444506688E+04  0.18444506688E+04  0.00000000000E+00 0.  1.
         21   -1    0    0  502  503 -0.00000000000E+00 -0.00000000000E+00 -0.25135731728E+03  0.25135731728E+03  0.00000000000E+00 0. -1.
    9000007    1    1    2  501    0 -0.12370192112E+03 -0.38678259969E+03  0.22335332355E+03  0.61220066306E+03  0.40000000000E+03 0. -1.
   -9000007    1    1    2    0  503  0.12370192112E+03  0.38678259969E+03  0.13697400280E+04  0.14836073231E+04  0.40000000000E+03 0.  1.
<mgrwt>
<rscale>  2 0.57000258E+03</rscale>
<asrwt>0</asrwt>
<pdfrwt beam="1">  1       21 0.28376163E+00 0.57000258E+03</pdfrwt>
<pdfrwt beam="2">  1       21 0.38670358E-01 0.57000258E+03</pdfrwt>
<totfact> 0.20218882E+02</totfact>
</mgrwt>
</event>
<event>
 4    1  0.4732450E-002  0.7901166E+03  0.7818608E-02  0.9574434E-01
         21   -1    0    0  501  502  0.00000000000E+00  0.00000000000E+00  0.10286190358E+04  0.10286190358E+04  0.00000000000E+00 0.  1.
         21   -1    0    0  502  503 -0.00000000000E+00 -0.00000000000E+00 -0.67460314488E+03  0.67460314488E+03  0.00000000000E+00 0. -1.
    9000007    1    1    2  501    0  0.34710147215E+03 -0.58634876900E+03 -0.92749517574E+02  0.79554181781E+03  0.40000000000E+03 0. -1.
   -9000007    1    1    2    0  503 -0.34710147215E+03  0.58634876900E+03  0.44676540845E+03  0.90768036283E+03  0.40000000000E+03 0.  1.
<mgrwt>
<rscale>  2 0.79011664E+03</rscale>
<asrwt>0</asrwt>
<pdfrwt beam="1">  1       21 0.15824908E+00 0.79011664E+03</pdfrwt>
<pdfrwt beam="2">  1       21 0.10378510E+00 0.79011664E+03</pdfrwt>
<totfact> 0.13847904E+02</totfact>
</mgrwt>
</event>
<event>
 4    1  0.4732450E-002  0.6202019E+03  0.7818608E-02  0.9864358E-01
         21   -1    0    0  501  502  0.00000000000E+00  0.00000000000E+00  0.86697555194E+03  0.86697555194E+03  0.00000000000E+00 0.  1.
         21   -1    0    0  502  503 -0.00000000000E+00 -0.00000000000E+00 -0.72320336854E+03  0.72320336854E+03  0.00000000000E+00 0. -1.
    9000007    1    1    2  501    0  0.32628335165E+03 -0.34378718745E+03  0.56620034301E+03  0.83978168844E+03  0.40000000000E+03 0.  1.
   -9000007    1    1    2    0  503 -0.32628335165E+03  0.34378718745E+03 -0.42242815961E+03  0.75039723204E+03  0.40000000000E+03 0. -1.
<mgrwt>
<rscale>  2 0.62020195E+03</rscale>
<asrwt>0</asrwt>
<pdfrwt beam="1">  1       21 0.13338085E+00 0.62020195E+03</pdfrwt>
<pdfrwt beam="2">  1       21 0.11126206E+00 0.62020195E+03</pdfrwt>
<totfact> 0.19593359E+02</totfact>
</mgrwt>
</event>
<event>
 4    1  0.4732450E-002  0.5248414E+03  0.7818608E-02  0.1007491E+00
         21   -1    0    0  503  502  0.00000000000E+00  0.00000000000E+00  0.35682569017E+04  0.35682569017E+04  0.00000000000E+00 0. -1.
         21   -1    0    0  501  503 -0.00000000000E+00 -0.00000000000E+00 -0.26517971412E+03  0.26517971412E+03  0.00000000000E+00 0. -1.
    9000007    1    1    2  501    0  0.83886133479E+02  0.32927433469E+03  0.37747987369E+02  0.52619709371E+03  0.40000000000E+03 0. -1.
   -9000007    1    1    2    0  502 -0.83886133479E+02 -0.32927433469E+03  0.32653292003E+04  0.33072395222E+04  0.40000000000E+03 0. -1.
<mgrwt>
<rscale>  2 0.52484138E+03</rscale>
<asrwt>0</asrwt>
<pdfrwt beam="1">  1       21 0.54896257E+00 0.52484138E+03</pdfrwt>
<pdfrwt beam="2">  1       21 0.40796882E-01 0.52484138E+03</pdfrwt>
<totfact> 0.32448635E+00</totfact>
</mgrwt>
</event>
<event>
 4    1  0.4732450E-002  0.4289265E+03  0.7818608E-02  0.1034200E+00
         21   -1    0    0  501  502  0.00000000000E+00  0.00000000000E+00  0.22365334259E+03  0.22365334259E+03  0.00000000000E+00 0. -1.
         21   -1    0    0  502  503 -0.00000000000E+00 -0.00000000000E+00 -0.11253225218E+04  0.11253225218E+04  0.00000000000E+00 0.  1.
    9000007    1    1    2  501    0 -0.15403107184E+03 -0.15886756210E+02 -0.10100564987E+03  0.44065871309E+03  0.40000000000E+03 0. -1.
   -9000007    1    1    2    0  503  0.15403107184E+03  0.15886756210E+02 -0.80066352930E+03  0.90831715126E+03  0.40000000000E+03 0. -1.
<mgrwt>
<rscale>  2 0.42892652E+03</rscale>
<asrwt>0</asrwt>
<pdfrwt beam="1">  1       21 0.34408207E-01 0.42892652E+03</pdfrwt>
<pdfrwt beam="2">  1       21 0.17312654E+00 0.42892652E+03</pdfrwt>
<totfact> 0.14099902E+03</totfact>
</mgrwt>
</event>
<event>
 4    1  0.4732450E-002  0.4047773E+03  0.7818608E-02  0.1042138E+00
         21   -1    0    0  501  502  0.00000000000E+00  0.00000000000E+00  0.22391094902E+03  0.22391094902E+03  0.00000000000E+00 0.  1.
         21   -1    0    0  502  503 -0.00000000000E+00 -0.00000000000E+00 -0.11044364815E+04  0.11044364815E+04  0.00000000000E+00 0.  1.
    9000007    1    1    2  501    0 -0.14335719541E+02 -0.60325341967E+02 -0.54439158402E+02  0.40842169593E+03  0.40000000000E+03 0.  1.
   -9000007    1    1    2    0  503  0.14335719541E+02  0.60325341967E+02 -0.82608637406E+03  0.91992573458E+03  0.40000000000E+03 0.  1.
<mgrwt>
<rscale>  2 0.40477730E+03</rscale>
<asrwt>0</asrwt>
<pdfrwt beam="1">  1       21 0.34447838E-01 0.40477730E+03</pdfrwt>
<pdfrwt beam="2">  1       21 0.16991331E+00 0.40477730E+03</pdfrwt>
<totfact> 0.15002908E+03</totfact>
</mgrwt>
</event>
<event>
 4    1  0.4732450E-002  0.4392218E+03  0.7818608E-02  0.1030986E+00
         21   -1    0    0  501  502  0.00000000000E+00  0.00000000000E+00  0.24123819848E+03  0.24123819848E+03  0.00000000000E+00 0.  1.
         21   -1    0    0  502  503 -0.00000000000E+00 -0.00000000000E+00 -0.11437647836E+04  0.11437647836E+04  0.00000000000E+00 0.  1.
    9000007    1    1    2  501    0 -0.17880785875E+03  0.30717566739E+02 -0.71442566766E+02  0.44499422424E+03  0.40000000000E+03 0.  1.
   -9000007    1    1    2    0  503  0.17880785875E+03 -0.30717566739E+02 -0.83108401838E+03  0.94000875787E+03  0.40000000000E+03 0.  1.
<mgrwt>
<rscale>  2 0.43922183E+03</rscale>
<asrwt>0</asrwt>
<pdfrwt beam="1">  1       21 0.37113569E-01 0.43922183E+03</pdfrwt>
<pdfrwt beam="2">  1       21 0.17596381E+00 0.43922183E+03</pdfrwt>
<totfact> 0.11487865E+03</totfact>
</mgrwt>
</event>
<event>
 4    1  0.4732450E-002  0.5642102E+03  0.7818608E-02  0.9982573E-01
         21   -1    0    0  501  502  0.00000000000E+00  0.00000000000E+00  0.94880293697E+03  0.94880293697E+03  0.00000000000E+00 0.  1.
         21   -1    0    0  502  503 -0.00000000000E+00 -0.00000000000E+00 -0.44679971596E+03  0.44679971596E+03  0.00000000000E+00 0. -1.
    9000007    1    1    2  501    0 -0.35869353521E+03 -0.17225581167E+03  0.59926062186E+03  0.82307132726E+03  0.40000000000E+03 0.  1.
   -9000007    1    1    2    0  503  0.35869353521E+03  0.17225581167E+03 -0.97257400843E+02  0.57253132567E+03  0.40000000000E+03 0. -1.
<mgrwt>
<rscale>  2 0.56421017E+03</rscale>
<asrwt>0</asrwt>
<pdfrwt beam="1">  1       21 0.14596968E+00 0.56421017E+03</pdfrwt>
<pdfrwt beam="2">  1       21 0.68738418E-01 0.56421017E+03</pdfrwt>
<totfact> 0.49292278E+02</totfact>
</mgrwt>
</event>
<event>
 4    1  0.4732450E-002  0.4513316E+03  0.7818608E-02  0.1027326E+00
         21   -1    0    0  503  502  0.00000000000E+00  0.00000000000E+00  0.28281055620E+03  0.28281055620E+03  0.00000000000E+00 0. -1.
         21   -1    0    0  501  503 -0.00000000000E+00 -0.00000000000E+00 -0.76429298094E+03  0.76429298094E+03  0.00000000000E+00 0. -1.
    9000007    1    1    2  501    0  0.14772458097E+03  0.14791088688E+03 -0.36639209105E+03  0.58132894876E+03  0.40000000000E+03 0. -1.
   -9000007    1    1    2    0  502 -0.14772458097E+03 -0.14791088688E+03 -0.11509033369E+03  0.46577458839E+03  0.40000000000E+03 0. -1.
<mgrwt>
<rscale>  2 0.45133157E+03</rscale>
<asrwt>0</asrwt>
<pdfrwt beam="1">  1       21 0.43509317E-01 0.45133157E+03</pdfrwt>
<pdfrwt beam="2">  1       21 0.11758353E+00 0.45133157E+03</pdfrwt>
<totfact> 0.24352734E+03</totfact>
</mgrwt>
</event>
<event>
 4    1  0.4732450E-002  0.4121350E+03  0.7818608E-02  0.1039657E+00
         21   -1    0    0  503  502  0.00000000000E+00  0.00000000000E+00  0.50634006071E+03  0.50634006071E+03  0.00000000000E+00 0.  1.
         21   -1    0    0  501  503 -0.00000000000E+00 -0.00000000000E+00 -0.39185483009E+03  0.39185483009E+03  0.00000000000E+00 0.  1.
    9000007    1    1    2  501    0 -0.29303159461E+02 -0.94850245604E+02 -0.11313390289E+03  0.42738100593E+03  0.40000000000E+03 0.  1.
   -9000007    1    1    2    0  502  0.29303159461E+02  0.94850245604E+02  0.22761913351E+03  0.47081388487E+03  0.40000000000E+03 0.  1.
<mgrwt>
<rscale>  2 0.41213498E+03</rscale>
<asrwt>0</asrwt>
<pdfrwt beam="1">  1       21 0.77898471E-01 0.41213498E+03</pdfrwt>
<pdfrwt beam="2">  1       21 0.60285359E-01 0.41213498E+03</pdfrwt>
<totfact> 0.33129658E+03</totfact>
</mgrwt>
</event>
<event>
 4    1  0.4732450E-002  0.4521722E+03  0.7818608E-02  0.1027076E+00
         21   -1    0    0  501  502  0.00000000000E+00  0.00000000000E+00  0.25114841736E+03  0.25114841736E+03  0.00000000000E+00 0.  1.
         21   -1    0    0  502  503 -0.00000000000E+00 -0.00000000000E+00 -0.16287166995E+04  0.16287166995E+04  0.00000000000E+00 0.  1.
    9000007    1    1    2  501    0  0.10564268415E+03 -0.18248090946E+03 -0.24045603722E+02  0.45281105341E+03  0.40000000000E+03 0.  1.
   -9000007    1    1    2    0  503 -0.10564268415E+03  0.18248090946E+03 -0.13535226784E+04  0.14270540634E+04  0.40000000000E+03 0.  1.
<mgrwt>
<rscale>  2 0.45217216E+03</rscale>
<asrwt>0</asrwt>
<pdfrwt beam="1">  1       21 0.38638219E-01 0.45217216E+03</pdfrwt>
<pdfrwt beam="2">  1       21 0.25057179E+00 0.45217216E+03</pdfrwt>
<totfact> 0.34250527E+02</totfact>
</mgrwt>
</event>
<event>
 4    1  0.4732450E-002  0.4147746E+03  0.7818608E-02  0.1038781E+00
         21   -1    0    0  501  502  0.00000000000E+00  0.00000000000E+00  0.82203617925E+03  0.82203617925E+03  0.00000000000E+00 0.  1.
         21   -1    0    0  502  503 -0.00000000000E+00 -0.00000000000E+00 -0.57230650087E+03  0.57230650087E+03  0.00000000000E+00 0.  1.
    9000007    1    1    2  501    0 -0.10867615188E+03  0.15082238578E+02  0.68012014179E+03  0.79661872134E+03  0.40000000000E+03 0.  1.
   -9000007    1    1    2    0  503  0.10867615188E+03 -0.15082238578E+02 -0.43039046341E+03  0.59772395879E+03  0.40000000000E+03 0.  1.
<mgrwt>
<rscale>  2 0.41477461E+03</rscale>
<asrwt>0</asrwt>
<pdfrwt beam="1">  1       21 0.12646710E+00 0.41477461E+03</pdfrwt>
<pdfrwt beam="2">  1       21 0.88047154E-01 0.41477461E+03</pdfrwt>
<totfact> 0.43367989E+02</totfact>
</mgrwt>
</event>
<event>
 4    1  0.4732450E-002  0.4231234E+03  0.7818608E-02  0.1036055E+00
         21   -1    0    0  503  502  0.00000000000E+00  0.00000000000E+00  0.25848480674E+03  0.25848480674E+03  0.00000000000E+00 0. -1.
         21   -1    0    0  501  503 -0.00000000000E+00 -0.00000000000E+00 -0.69717160775E+03  0.69717160775E+03  0.00000000000E+00 0. -1.
    9000007    1    1    2  501    0  0.13544601532E+03 -0.26224995231E+02 -0.25792532867E+03  0.49553894762E+03  0.40000000000E+03 0.  1.
   -9000007    1    1    2    0  502 -0.13544601532E+03  0.26224995231E+02 -0.18076147234E+03  0.46011746687E+03  0.40000000000E+03 0.  1.
<mgrwt>
<rscale>  2 0.42312335E+03</rscale>
<asrwt>0</asrwt>
<pdfrwt beam="1">  1       21 0.39766894E-01 0.42312335E+03</pdfrwt>
<pdfrwt beam="2">  1       21 0.10725717E+00 0.42312335E+03</pdfrwt>
<totfact> 0.37266695E+03</totfact>
</mgrwt>
</event>
<event>
 4    1  0.4732450E-002  0.4436785E+03  0.7818608E-02  0.1029624E+00
         21   -1    0    0  503  502  0.00000000000E+00  0.00000000000E+00  0.26638840873E+04  0.26638840873E+04  0.00000000000E+00 0. -1.
         21   -1    0    0  501  503 -0.00000000000E+00 -0.00000000000E+00 -0.73941552287E+02  0.73941552287E+02  0.00000000000E+00 0. -1.
    9000007    1    1    2  501    0  0.19148591789E+03  0.13555267935E+02  0.13289170820E+04  0.14010250579E+04  0.40000000000E+03 0. -1.
   -9000007    1    1    2    0  502 -0.19148591789E+03 -0.13555267935E+02  0.12610254529E+04  0.13368005816E+04  0.40000000000E+03 0. -1.
<mgrwt>
<rscale>  2 0.44367849E+03</rscale>
<asrwt>0</asrwt>
<pdfrwt beam="1">  1       21 0.40982825E+00 0.44367849E+03</pdfrwt>
<pdfrwt beam="2">  1       21 0.11375625E-01 0.44367849E+03</pdfrwt>
<totfact> 0.37776280E+02</totfact>
</mgrwt>
</event>
<event>
 4    1  0.4732450E-002  0.5713673E+03  0.7818608E-02  0.9966658E-01
         21   -1    0    0  501  502  0.00000000000E+00  0.00000000000E+00  0.22503596910E+03  0.22503596910E+03  0.00000000000E+00 0. -1.
         21   -1    0    0  502  503 -0.00000000000E+00 -0.00000000000E+00 -0.30394633841E+04  0.30394633841E+04  0.00000000000E+00 0.  1.
    9000007    1    1    2  501    0  0.36389422307E+03  0.18450354684E+03 -0.22711806301E+03  0.61485216022E+03  0.40000000000E+03 0.  1.
   -9000007    1    1    2    0  503 -0.36389422307E+03 -0.18450354684E+03 -0.25873093520E+04  0.26496471930E+04  0.40000000000E+03 0.  1.
<mgrwt>
<rscale>  2 0.57136728E+03</rscale>
<asrwt>0</asrwt>
<pdfrwt beam="1">  1       21 0.34620920E-01 0.57136728E+03</pdfrwt>
<pdfrwt beam="2">  1       21 0.46760973E+00 0.57136728E+03</pdfrwt>
<totfact> 0.17012677E+01</totfact>
</mgrwt>
</event>
<event>
 4    1  0.4732450E-002  0.7691627E+03  0.7818608E-02  0.9605758E-01
         21   -1    0    0  503  502  0.00000000000E+00  0.00000000000E+00  0.88357351778E+03  0.88357351778E+03  0.00000000000E+00 0. -1.
         21   -1    0    0  501  503 -0.00000000000E+00 -0.00000000000E+00 -0.67044619029E+03  0.67044619029E+03  0.00000000000E+00 0.  1.
    9000007    1    1    2  501    0 -0.15130158271E+02 -0.65679700530E+03  0.13470919456E+03  0.78086989630E+03  0.40000000000E+03 0.  1.
   -9000007    1    1    2    0  502  0.15130158271E+02  0.65679700530E+03  0.78418132931E+02  0.77314981176E+03  0.40000000000E+03 0. -1.
<mgrwt>
<rscale>  2 0.76916268E+03</rscale>
<asrwt>0</asrwt>
<pdfrwt beam="1">  1       21 0.13593439E+00 0.76916268E+03</pdfrwt>
<pdfrwt beam="2">  1       21 0.10314557E+00 0.76916268E+03</pdfrwt>
<totfact> 0.21479383E+02</totfact>
</mgrwt>
</event>
<event>
 4    1  0.4732450E-002  0.4683663E+03  0.7818608E-02  0.1022382E+00
         21   -1    0    0  501  502  0.00000000000E+00  0.00000000000E+00  0.39662482170E+03  0.39662482170E+03  0.00000000000E+00 0.  1.
         21   -1    0    0  502  503 -0.00000000000E+00 -0.00000000000E+00 -0.16160599051E+04  0.16160599051E+04  0.00000000000E+00 0.  1.
    9000007    1    1    2  501    0 -0.12991763221E+03  0.20612716297E+03  0.20644875659E+03  0.51184771912E+03  0.40000000000E+03 0.  1.
   -9000007    1    1    2    0  503  0.12991763221E+03 -0.20612716297E+03 -0.14258838400E+04  0.15008370077E+04  0.40000000000E+03 0.  1.
<mgrwt>
<rscale>  2 0.46836631E+03</rscale>
<asrwt>0</asrwt>
<pdfrwt beam="1">  1       21 0.61019205E-01 0.46836631E+03</pdfrwt>
<pdfrwt beam="2">  1       21 0.24862460E+00 0.46836631E+03</pdfrwt>
<totfact> 0.13236840E+02</totfact>
</mgrwt>
</event>
<event>
 4    1  0.4732450E-002  0.5626413E+03  0.7818608E-02  0.9986096E-01
         21   -1    0    0  501  502  0.00000000000E+00  0.00000000000E+00  0.51004660169E+03  0.51004660169E+03  0.00000000000E+00 0.  1.
         21   -1    0    0  502  503 -0.00000000000E+00 -0.00000000000E+00 -0.62108955715E+03  0.62108955715E+03  0.00000000000E+00 0. -1.
    9000007    1    1    2  501    0  0.38773895523E+03  0.78890982717E+02 -0.70403270334E+02  0.56702901604E+03  0.40000000000E+03 0. -1.
   -9000007    1    1    2    0  503 -0.38773895523E+03 -0.78890982717E+02 -0.40639685134E+02  0.56410714280E+03  0.40000000000E+03 0. -1.
<mgrwt>
<rscale>  2 0.56264135E+03</rscale>
<asrwt>0</asrwt>
<pdfrwt beam="1">  1       21 0.78468708E-01 0.56264135E+03</pdfrwt>
<pdfrwt beam="2">  1       21 0.95552239E-01 0.56264135E+03</pdfrwt>
<totfact> 0.10745834E+03</totfact>
</mgrwt>
</event>
<event>
 4    1  0.4732450E-002  0.4071964E+03  0.7818608E-02  0.1041316E+00
         21   -1    0    0  501  502  0.00000000000E+00  0.00000000000E+00  0.73736420651E+03  0.73736420651E+03  0.00000000000E+00 0.  1.
         21   -1    0    0  502  503 -0.00000000000E+00 -0.00000000000E+00 -0.11297845951E+04  0.11297845951E+04  0.00000000000E+00 0.  1.
    9000007    1    1    2  501    0 -0.73747252176E+02 -0.19241343375E+02  0.63930744574E+03  0.75797288651E+03  0.40000000000E+03 0.  1.
   -9000007    1    1    2    0  503  0.73747252176E+02  0.19241343375E+02 -0.10317278344E+04  0.11091759151E+04  0.40000000000E+03 0.  1.
<mgrwt>
<rscale>  2 0.40719637E+03</rscale>
<asrwt>0</asrwt>
<pdfrwt beam="1">  1       21 0.11344065E+00 0.40719637E+03</pdfrwt>
<pdfrwt beam="2">  1       21 0.17381301E+00 0.40719637E+03</pdfrwt>
<totfact> 0.99731266E+01</totfact>
</mgrwt>
</event>
<event>
 4    1  0.4732450E-002  0.4321079E+03  0.7818608E-02  0.1033196E+00
         21   -1    0    0  501  502  0.00000000000E+00  0.00000000000E+00  0.37496889302E+03  0.37496889302E+03  0.00000000000E+00 0. -1.
         21   -1    0    0  502  503 -0.00000000000E+00 -0.00000000000E+00 -0.53107346712E+03  0.53107346712E+03  0.00000000000E+00 0. -1.
    9000007    1    1    2  501    0  0.11451078486E+03 -0.11663834963E+03  0.35079200966E+02  0.43352943936E+03  0.40000000000E+03 0. -1.
   -9000007    1    1    2    0  503 -0.11451078486E+03  0.11663834963E+03 -0.19118377506E+03  0.47251292078E+03  0.40000000000E+03 0. -1.
<mgrwt>
<rscale>  2 0.43210789E+03</rscale>
<asrwt>0</asrwt>
<pdfrwt beam="1">  1       21 0.57687522E-01 0.43210789E+03</pdfrwt>
<pdfrwt beam="2">  1       21 0.81703610E-01 0.43210789E+03</pdfrwt>
<totfact> 0.32433461E+03</totfact>
</mgrwt>
</event>
<event>
 4    1  0.4732450E-002  0.4242156E+03  0.7818608E-02  0.1035703E+00
         21   -1    0    0  501  502  0.00000000000E+00  0.00000000000E+00  0.25748914181E+03  0.25748914181E+03  0.00000000000E+00 0. -1.
         21   -1    0    0  502  503 -0.00000000000E+00 -0.00000000000E+00 -0.93566950276E+03  0.93566950276E+03  0.00000000000E+00 0. -1.
    9000007    1    1    2  501    0 -0.13573919962E+03  0.39163182663E+02 -0.63919351670E+03  0.76715528870E+03  0.40000000000E+03 0. -1.
   -9000007    1    1    2    0  503  0.13573919962E+03 -0.39163182663E+02 -0.38986844252E+02  0.42600335587E+03  0.40000000000E+03 0. -1.
<mgrwt>
<rscale>  2 0.42421561E+03</rscale>
<asrwt>0</asrwt>
<pdfrwt beam="1">  1       21 0.39613713E-01 0.42421561E+03</pdfrwt>
<pdfrwt beam="2">  1       21 0.14394916E+00 0.42421561E+03</pdfrwt>
<totfact> 0.17670423E+03</totfact>
</mgrwt>
</event>
<event>
 4    1  0.4732450E-002  0.4214913E+03  0.7818608E-02  0.1036582E+00
         21   -1    0    0  503  502  0.00000000000E+00  0.00000000000E+00  0.34398716979E+03  0.34398716979E+03  0.00000000000E+00 0.  1.
         21   -1    0    0  501  503 -0.00000000000E+00 -0.00000000000E+00 -0.52892904459E+03  0.52892904459E+03  0.00000000000E+00 0. -1.
    9000007    1    1    2  501    0 -0.11752376020E+03 -0.61992302583E+02 -0.15948988422E+03  0.45065719007E+03  0.40000000000E+03 0.  1.
   -9000007    1    1    2    0  502  0.11752376020E+03  0.61992302583E+02 -0.25451990584E+02  0.42225902431E+03  0.40000000000E+03 0.  1.
<mgrwt>
<rscale>  2 0.42149126E+03</rscale>
<asrwt>0</asrwt>
<pdfrwt beam="1">  1       21 0.52921103E-01 0.42149126E+03</pdfrwt>
<pdfrwt beam="2">  1       21 0.81373699E-01 0.42149126E+03</pdfrwt>
<totfact> 0.39587892E+03</totfact>
</mgrwt>
</event>
<event>
 4    1  0.4732450E-002  0.6023059E+03  0.7818608E-02  0.9900634E-01
         21   -1    0    0  503  502  0.00000000000E+00  0.00000000000E+00  0.24171692219E+03  0.24171692219E+03  0.00000000000E+00 0. -1.
         21   -1    0    0  501  503 -0.00000000000E+00 -0.00000000000E+00 -0.15351692372E+04  0.15351692372E+04  0.00000000000E+00 0. -1.
    9000007    1    1    2  501    0  0.34041058942E+03 -0.29477613131E+03 -0.77963161863E+03  0.98518921926E+03  0.40000000000E+03 0. -1.
   -9000007    1    1    2    0  502 -0.34041058942E+03  0.29477613131E+03 -0.51382069635E+03  0.79169694011E+03  0.40000000000E+03 0. -1.
<mgrwt>
<rscale>  2 0.60230585E+03</rscale>
<asrwt>0</asrwt>
<pdfrwt beam="1">  1       21 0.37187219E-01 0.60230585E+03</pdfrwt>
<pdfrwt beam="2">  1       21 0.23617988E+00 0.60230585E+03</pdfrwt>
<totfact> 0.42522088E+02</totfact>
</mgrwt>
</event>
<event>
 4    1  0.4732450E-002  0.4571762E+03  0.7818608E-02  0.1025603E+00
         21   -1    0    0  501  502  0.00000000000E+00  0.00000000000E+00  0.24504551259E+03  0.24504551259E+03  0.00000000000E+00 0. -1.
         21   -1    0    0  502  503 -0.00000000000E+00 -0.00000000000E+00 -0.10062121394E+04  0.10062121394E+04  0.00000000000E+00 0. -1.
    9000007    1    1    2  501    0  0.13622870265E+03  0.17450444239E+03 -0.13641002756E+03  0.47709302600E+03  0.40000000000E+03 0. -1.
   -9000007    1    1    2    0  503 -0.13622870265E+03 -0.17450444239E+03 -0.62475659930E+03  0.77416462604E+03  0.40000000000E+03 0. -1.
<mgrwt>
<rscale>  2 0.45717618E+03</rscale>
<asrwt>0</asrwt>
<pdfrwt beam="1">  1       21 0.37699310E-01 0.45717618E+03</pdfrwt>
<pdfrwt beam="2">  1       21 0.15480187E+00 0.45717618E+03</pdfrwt>
<totfact> 0.15844434E+03</totfact>
</mgrwt>
</event>
<event>
 4    1  0.4732450E-002  0.4630650E+03  0.7818608E-02  0.1023896E+00
         21   -1    0    0  503  502  0.00000000000E+00  0.00000000000E+00  0.53130078785E+03  0.53130078785E+03  0.00000000000E+00 0. -1.
         21   -1    0    0  501  503 -0.00000000000E+00 -0.00000000000E+00 -0.55835785582E+03  0.55835785582E+03  0.00000000000E+00 0. -1.
    9000007    1    1    2  501    0 -0.12747960535E+03 -0.19539228269E+03 -0.30036908971E+03  0.55195179497E+03  0.40000000000E+03 0. -1.
   -9000007    1    1    2    0  502  0.12747960535E+03  0.19539228269E+03  0.27331202174E+03  0.53770684870E+03  0.40000000000E+03 0. -1.
<mgrwt>
<rscale>  2 0.46306500E+03</rscale>
<asrwt>0</asrwt>
<pdfrwt beam="1">  1       21 0.81738583E-01 0.46306500E+03</pdfrwt>
<pdfrwt beam="2">  1       21 0.85901208E-01 0.46306500E+03</pdfrwt>
<totfact> 0.13042663E+03</totfact>
</mgrwt>
</event>
<event>
 4    1  0.4732450E-002  0.4210980E+03  0.7818608E-02  0.1036710E+00
         21   -1    0    0  503  502  0.00000000000E+00  0.00000000000E+00  0.49200374310E+03  0.49200374310E+03  0.00000000000E+00 0.  1.
         21   -1    0    0  501  503 -0.00000000000E+00 -0.00000000000E+00 -0.51932941643E+03  0.51932941643E+03  0.00000000000E+00 0.  1.
    9000007    1    1    2  501    0 -0.13116321474E+03  0.10941757456E+02 -0.29338703858E+03  0.51322457595E+03  0.40000000000E+03 0.  1.
   -9000007    1    1    2    0  502  0.13116321474E+03 -0.10941757456E+02  0.26606136525E+03  0.49810858358E+03  0.40000000000E+03 0.  1.
<mgrwt>
<rscale>  2 0.42109798E+03</rscale>
<asrwt>0</asrwt>
<pdfrwt beam="1">  1       21 0.75692883E-01 0.42109798E+03</pdfrwt>
<pdfrwt beam="2">  1       21 0.79896834E-01 0.42109798E+03</pdfrwt>
<totfact> 0.18731325E+03</totfact>
</mgrwt>
</event>
<event>
 4    1  0.4732450E-002  0.4149055E+03  0.7818608E-02  0.1038737E+00
         21   -1    0    0  503  502  0.00000000000E+00  0.00000000000E+00  0.48979094951E+03  0.48979094951E+03  0.00000000000E+00 0.  1.
         21   -1    0    0  501  503 -0.00000000000E+00 -0.00000000000E+00 -0.37858940868E+03  0.37858940868E+03  0.00000000000E+00 0.  1.
    9000007    1    1    2  501    0  0.11011764684E+03 -0.45496298766E+01 -0.60608193654E+02  0.41930889379E+03  0.40000000000E+03 0.  1.
   -9000007    1    1    2    0  502 -0.11011764684E+03  0.45496298766E+01  0.17180973448E+03  0.44907146440E+03  0.40000000000E+03 0.  1.
<mgrwt>
<rscale>  2 0.41490553E+03</rscale>
<asrwt>0</asrwt>
<pdfrwt beam="1">  1       21 0.75352454E-01 0.41490553E+03</pdfrwt>
<pdfrwt beam="2">  1       21 0.58244524E-01 0.41490553E+03</pdfrwt>
<totfact> 0.38495535E+03</totfact>
</mgrwt>
</event>
<event>
 4    1  0.4732450E-002  0.4841892E+03  0.7818608E-02  0.1017990E+00
         21   -1    0    0  501  502  0.00000000000E+00  0.00000000000E+00  0.11234072683E+04  0.11234072683E+04  0.00000000000E+00 0.  1.
         21   -1    0    0  502  503 -0.00000000000E+00 -0.00000000000E+00 -0.31069407910E+03  0.31069407910E+03  0.00000000000E+00 0.  1.
    9000007    1    1    2  501    0  0.27283530302E+03  0.17626179845E+00  0.81722343360E+03  0.94989119065E+03  0.40000000000E+03 0.  1.
   -9000007    1    1    2    0  503 -0.27283530302E+03 -0.17626179845E+00 -0.45102443544E+01  0.48421015680E+03  0.40000000000E+03 0.  1.
<mgrwt>
<rscale>  2 0.48418915E+03</rscale>
<asrwt>0</asrwt>
<pdfrwt beam="1">  1       21 0.17283189E+00 0.48418915E+03</pdfrwt>
<pdfrwt beam="2">  1       21 0.47799090E-01 0.48418915E+03</pdfrwt>
<totfact> 0.70146088E+02</totfact>
</mgrwt>
</event>
<event>
 4    1  0.4732450E-002  0.5187410E+03  0.7818608E-02  0.1009000E+00
         21   -1    0    0  501  502  0.00000000000E+00  0.00000000000E+00  0.76834276315E+03  0.76834276315E+03  0.00000000000E+00 0. -1.
         21   -1    0    0  502  503 -0.00000000000E+00 -0.00000000000E+00 -0.51663723587E+03  0.51663723587E+03  0.00000000000E+00 0. -1.
    9000007    1    1    2  501    0 -0.32116057296E+03 -0.77124304949E+02  0.49049512454E+03  0.71391717953E+03  0.40000000000E+03 0. -1.
   -9000007    1    1    2    0  503  0.32116057296E+03  0.77124304949E+02 -0.23878959726E+03  0.57106281948E+03  0.40000000000E+03 0. -1.
<mgrwt>
<rscale>  2 0.51874105E+03</rscale>
<asrwt>0</asrwt>
<pdfrwt beam="1">  1       21 0.11820658E+00 0.51874105E+03</pdfrwt>
<pdfrwt beam="2">  1       21 0.79482652E-01 0.51874105E+03</pdfrwt>
<totfact> 0.62561612E+02</totfact>
</mgrwt>
</event>
<event>
 4    1  0.4732450E-002  0.4445703E+03  0.7818608E-02  0.1029354E+00
         21   -1    0    0  501  502  0.00000000000E+00  0.00000000000E+00  0.16731667076E+04  0.16731667076E+04  0.00000000000E+00 0.  1.
         21   -1    0    0  502  503 -0.00000000000E+00 -0.00000000000E+00 -0.14969421062E+03  0.14969421062E+03  0.00000000000E+00 0.  1.
    9000007    1    1    2  501    0  0.19359151946E+03  0.12847468592E+02  0.11802919290E+04  0.12612421542E+04  0.40000000000E+03 0.  1.
   -9000007    1    1    2    0  503 -0.19359151946E+03 -0.12847468592E+02  0.34318056797E+03  0.56161876401E+03  0.40000000000E+03 0.  1.
<mgrwt>
<rscale>  2 0.44457028E+03</rscale>
<asrwt>0</asrwt>
<pdfrwt beam="1">  1       21 0.25741025E+00 0.44457028E+03</pdfrwt>
<pdfrwt beam="2">  1       21 0.23029880E-01 0.44457028E+03</pdfrwt>
<totfact> 0.87291742E+02</totfact>
</mgrwt>
</event>
<event>
 4    1  0.4732450E-002  0.5210070E+03  0.7818608E-02  0.1008437E+00
         21   -1    0    0  503  502  0.00000000000E+00  0.00000000000E+00  0.22042636501E+04  0.22042636501E+04  0.00000000000E+00 0. -1.
         21   -1    0    0  501  503 -0.00000000000E+00 -0.00000000000E+00 -0.12517606963E+03  0.12517606963E+03  0.00000000000E+00 0.  1.
    9000007    1    1    2  501    0 -0.10292854165E+03 -0.31757518940E+03  0.11878357344E+04  0.12970744071E+04  0.40000000000E+03 0. -1.
   -9000007    1    1    2    0  502  0.10292854165E+03  0.31757518940E+03  0.89125184602E+03  0.10323653126E+04  0.40000000000E+03 0. -1.
<mgrwt>
<rscale>  2 0.52100699E+03</rscale>
<asrwt>0</asrwt>
<pdfrwt beam="1">  1       21 0.33911746E+00 0.52100699E+03</pdfrwt>
<pdfrwt beam="2">  1       21 0.19257859E-01 0.52100699E+03</pdfrwt>
<totfact> 0.37799965E+02</totfact>
</mgrwt>
</event>
<event>
 4    1  0.4732450E-002  0.4010595E+03  0.7818608E-02  0.1043413E+00
         21   -1    0    0  501  502  0.00000000000E+00  0.00000000000E+00  0.76327966236E+03  0.76327966236E+03  0.00000000000E+00 0.  1.
         21   -1    0    0  502  503 -0.00000000000E+00 -0.00000000000E+00 -0.37392556700E+03  0.37392556700E+03  0.00000000000E+00 0.  1.
    9000007    1    1    2  501    0 -0.18960575177E+02 -0.22118814614E+02  0.57031159783E+03  0.69721163501E+03  0.40000000000E+03 0.  1.
   -9000007    1    1    2    0  503  0.18960575177E+02  0.22118814614E+02 -0.18095750246E+03  0.43999359435E+03  0.40000000000E+03 0.  1.
<mgrwt>
<rscale>  2 0.40105953E+03</rscale>
<asrwt>0</asrwt>
<pdfrwt beam="1">  1       21 0.11742764E+00 0.40105953E+03</pdfrwt>
<pdfrwt beam="2">  1       21 0.57527010E-01 0.40105953E+03</pdfrwt>
<totfact> 0.13776182E+03</totfact>
</mgrwt>
</event>
<event>
 4    1  0.4732450E-002  0.5269661E+03  0.7818608E-02  0.1006971E+00
         21   -1    0    0  501  502  0.00000000000E+00  0.00000000000E+00  0.97423188830E+03  0.97423188830E+03  0.00000000000E+00 0.  1.
         21   -1    0    0  502  503 -0.00000000000E+00 -0.00000000000E+00 -0.39375071735E+03  0.39375071735E+03  0.00000000000E+00 0. -1.
    9000007    1    1    2  501    0 -0.18619668474E+03 -0.28813901477E+03  0.64964192402E+03  0.83649741583E+03  0.40000000000E+03 0.  1.
   -9000007    1    1    2    0  503  0.18619668474E+03  0.28813901477E+03 -0.69160753070E+02  0.53148518983E+03  0.40000000000E+03 0. -1.
<mgrwt>
<rscale>  2 0.52696613E+03</rscale>
<asrwt>0</asrwt>
<pdfrwt beam="1">  1       21 0.14988183E+00 0.52696613E+03</pdfrwt>
<pdfrwt beam="2">  1       21 0.60577034E-01 0.52696613E+03</pdfrwt>
<totfact> 0.61644354E+02</totfact>
</mgrwt>
</event>
<event>
 4    1  0.4732450E-002  0.4613324E+03  0.7818608E-02  0.1024395E+00
         21   -1    0    0  501  502  0.00000000000E+00  0.00000000000E+00  0.90409946238E+03  0.90409946238E+03  0.00000000000E+00 0. -1.
         21   -1    0    0  502  503 -0.00000000000E+00 -0.00000000000E+00 -0.38381850932E+03  0.38381850932E+03  0.00000000000E+00 0.  1.
    9000007    1    1    2  501    0 -0.16592044412E+02  0.22924295113E+03  0.66057826521E+03  0.80572406632E+03  0.40000000000E+03 0.  1.
   -9000007    1    1    2    0  503  0.16592044412E+02 -0.22924295113E+03 -0.14029731215E+03  0.48219390537E+03  0.40000000000E+03 0. -1.
<mgrwt>
<rscale>  2 0.46133245E+03</rscale>
<asrwt>0</asrwt>
<pdfrwt beam="1">  1       21 0.13909222E+00 0.46133245E+03</pdfrwt>
<pdfrwt beam="2">  1       21 0.59049002E-01 0.46133245E+03</pdfrwt>
<totfact> 0.81864487E+02</totfact>
</mgrwt>
</event>
<event>
 4    1  0.4732450E-002  0.4816102E+03  0.7818608E-02  0.1018694E+00
         21   -1    0    0  503  502  0.00000000000E+00  0.00000000000E+00  0.25904972804E+03  0.25904972804E+03  0.00000000000E+00 0. -1.
         21   -1    0    0  501  503 -0.00000000000E+00 -0.00000000000E+00 -0.95596312995E+03  0.95596312995E+03  0.00000000000E+00 0. -1.
    9000007    1    1    2  501    0  0.20872293222E+03 -0.16847290199E+03 -0.19552407961E+03  0.51978653969E+03  0.40000000000E+03 0. -1.
   -9000007    1    1    2    0  502 -0.20872293222E+03  0.16847290199E+03 -0.50138932230E+03  0.69522631830E+03  0.40000000000E+03 0. -1.
<mgrwt>
<rscale>  2 0.48161020E+03</rscale>
<asrwt>0</asrwt>
<pdfrwt beam="1">  1       21 0.39853805E-01 0.48161020E+03</pdfrwt>
<pdfrwt beam="2">  1       21 0.14707125E+00 0.48161020E+03</pdfrwt>
<totfact> 0.16098139E+03</totfact>
</mgrwt>
</event>
<event>
 4    1  0.4732450E-002  0.4546376E+03  0.7818608E-02  0.1026348E+00
         21   -1    0    0  501  502  0.00000000000E+00  0.00000000000E+00  0.29021842526E+04  0.29021842526E+04  0.00000000000E+00 0.  1.
         21   -1    0    0  502  503 -0.00000000000E+00 -0.00000000000E+00 -0.82375899005E+02  0.82375899005E+02  0.00000000000E+00 0.  1.
    9000007    1    1    2  501    0 -0.20647461952E+03  0.63745907773E+02  0.19590539744E+04  0.20111160543E+04  0.40000000000E+03 0.  1.
   -9000007    1    1    2    0  503  0.20647461952E+03 -0.63745907773E+02  0.86075437917E+03  0.97344409728E+03  0.40000000000E+03 0.  1.
<mgrwt>
<rscale>  2 0.45463756E+03</rscale>
<asrwt>0</asrwt>
<pdfrwt beam="1">  1       21 0.44648981E+00 0.45463756E+03</pdfrwt>
<pdfrwt beam="2">  1       21 0.12673217E-01 0.45463756E+03</pdfrwt>
<totfact> 0.17628920E+02</totfact>
</mgrwt>
</event>
<event>
 4    1  0.4732450E-002  0.4876376E+03  0.7818608E-02  0.1017057E+00
         21   -1    0    0  501  502  0.00000000000E+00  0.00000000000E+00  0.93275173614E+03  0.93275173614E+03  0.00000000000E+00 0. -1.
         21   -1    0    0  502  503 -0.00000000000E+00 -0.00000000000E+00 -0.27651057504E+03  0.27651057504E+03  0.00000000000E+00 0.  1.
    9000007    1    1    2  501    0 -0.24715920201E+03 -0.12923919769E+03  0.15922333942E+03  0.51297418373E+03  0.40000000000E+03 0. -1.
   -9000007    1    1    2    0  503  0.24715920201E+03  0.12923919769E+03  0.49701782169E+03  0.69628812745E+03  0.40000000000E+03 0. -1.
<mgrwt>
<rscale>  2 0.48763761E+03</rscale>
<asrwt>0</asrwt>
<pdfrwt beam="1">  1       21 0.14350027E+00 0.48763761E+03</pdfrwt>
<pdfrwt beam="2">  1       21 0.42540089E-01 0.48763761E+03</pdfrwt>
<totfact> 0.14992202E+03</totfact>
</mgrwt>
</event>
<event>
 4    1  0.4732450E-002  0.4076824E+03  0.7818608E-02  0.1041152E+00
         21   -1    0    0  501  502  0.00000000000E+00  0.00000000000E+00  0.31779881174E+03  0.31779881174E+03  0.00000000000E+00 0. -1.
         21   -1    0    0  502  503 -0.00000000000E+00 -0.00000000000E+00 -0.53871583582E+03  0.53871583582E+03  0.00000000000E+00 0. -1.
    9000007    1    1    2  501    0 -0.45026261399E+02 -0.64634195492E+02 -0.37283913966E+02  0.40938372425E+03  0.40000000000E+03 0. -1.
   -9000007    1    1    2    0  503  0.45026261399E+02  0.64634195492E+02 -0.18363311011E+03  0.44713092330E+03  0.40000000000E+03 0. -1.
<mgrwt>
<rscale>  2 0.40768241E+03</rscale>
<asrwt>0</asrwt>
<pdfrwt beam="1">  1       21 0.48892125E-01 0.40768241E+03</pdfrwt>
<pdfrwt beam="2">  1       21 0.82879359E-01 0.40768241E+03</pdfrwt>
<totfact> 0.45135421E+03</totfact>
</mgrwt>
</event>
<event>
 4    1  0.4732450E-002  0.4118637E+03  0.7818608E-02  0.1039747E+00
         21   -1    0    0  503  502  0.00000000000E+00  0.00000000000E+00  0.17109067481E+03  0.17109067481E+03  0.00000000000E+00 0. -1.
         21   -1    0    0  501  503 -0.00000000000E+00 -0.00000000000E+00 -0.99308748048E+03  0.99308748048E+03  0.00000000000E+00 0. -1.
    9000007    1    1    2  501    0 -0.58708487468E+02  0.78644769753E+02 -0.43447252542E+03  0.59866356299E+03  0.40000000000E+03 0. -1.
   -9000007    1    1    2    0  502  0.58708487468E+02 -0.78644769753E+02 -0.38752428026E+03  0.56551459229E+03  0.40000000000E+03 0. -1.
<mgrwt>
<rscale>  2 0.41186367E+03</rscale>
<asrwt>0</asrwt>
<pdfrwt beam="1">  1       21 0.26321642E-01 0.41186367E+03</pdfrwt>
<pdfrwt beam="2">  1       21 0.15278269E+00 0.41186367E+03</pdfrwt>
<totfact> 0.34279420E+03</totfact>
</mgrwt>
</event>
<event>
 4    1  0.4732450E-002  0.4524872E+03  0.7818608E-02  0.1026983E+00
         21   -1    0    0  501  502  0.00000000000E+00  0.00000000000E+00  0.87674382526E+03  0.87674382526E+03  0.00000000000E+00 0. -1.
         21   -1    0    0  502  503 -0.00000000000E+00 -0.00000000000E+00 -0.11577875068E+04  0.11577875068E+04  0.00000000000E+00 0. -1.
    9000007    1    1    2  501    0  0.17549968111E+03 -0.11808681665E+03  0.76837964353E+03  0.89171290836E+03  0.40000000000E+03 0. -1.
   -9000007    1    1    2    0  503 -0.17549968111E+03  0.11808681665E+03 -0.10494233250E+04  0.11428184237E+04  0.40000000000E+03 0. -1.
<mgrwt>
<rscale>  2 0.45248716E+03</rscale>
<asrwt>0</asrwt>
<pdfrwt beam="1">  1       21 0.13488367E+00 0.45248716E+03</pdfrwt>
<pdfrwt beam="2">  1       21 0.17812115E+00 0.45248716E+03</pdfrwt>
<totfact> 0.58063449E+01</totfact>
</mgrwt>
</event>
<event>
 4    1  0.4732450E-002  0.5119978E+03  0.7818608E-02  0.1010694E+00
         21   -1    0    0  503  502  0.00000000000E+00  0.00000000000E+00  0.88700205267E+03  0.88700205267E+03  0.00000000000E+00 0.  1.
         21   -1    0    0  501  503 -0.00000000000E+00 -0.00000000000E+00 -0.39088793640E+03  0.39088793640E+03  0.00000000000E+00 0. -1.
    9000007    1    1    2  501    0 -0.31959444746E+03  0.10761088650E+01 -0.67516220749E+02  0.51643025562E+03  0.40000000000E+03 0. -1.
   -9000007    1    1    2    0  502  0.31959444746E+03 -0.10761088650E+01  0.56363033702E+03  0.76145973345E+03  0.40000000000E+03 0. -1.
<mgrwt>
<rscale>  2 0.51199782E+03</rscale>
<asrwt>0</asrwt>
<pdfrwt beam="1">  1       21 0.13646185E+00 0.51199782E+03</pdfrwt>
<pdfrwt beam="2">  1       21 0.60136606E-01 0.51199782E+03</pdfrwt>
<totfact> 0.81081467E+02</totfact>
</mgrwt>
</event>
<event>
 4    1  0.4732450E-002  0.5005428E+03  0.7818608E-02  0.1013637E+00
         21   -1    0    0  503  502  0.00000000000E+00  0.00000000000E+00  0.63628678540E+03  0.63628678540E+03  0.00000000000E+00 0. -1.
         21   -1    0    0  501  503 -0.00000000000E+00 -0.00000000000E+00 -0.39684168407E+03  0.39684168407E+03  0.00000000000E+00 0.  1.
    9000007    1    1    2  501    0 -0.21024613753E+03  0.21526642878E+03  0.16525738976E+03  0.52711770846E+03  0.40000000000E+03 0. -1.
   -9000007    1    1    2    0  502  0.21024613753E+03 -0.21526642878E+03  0.74187711569E+02  0.50601076100E+03  0.40000000000E+03 0.  1.
<mgrwt>
<rscale>  2 0.50054278E+03</rscale>
<asrwt>0</asrwt>
<pdfrwt beam="1">  1       21 0.97890275E-01 0.50054278E+03</pdfrwt>
<pdfrwt beam="2">  1       21 0.61052567E-01 0.50054278E+03</pdfrwt>
<totfact> 0.18226257E+03</totfact>
</mgrwt>
</event>
<event>
 4    1  0.4732450E-002  0.4267676E+03  0.7818608E-02  0.1034886E+00
         21   -1    0    0  501  502  0.00000000000E+00  0.00000000000E+00  0.26703630488E+03  0.26703630488E+03  0.00000000000E+00 0. -1.
         21   -1    0    0  502  503 -0.00000000000E+00 -0.00000000000E+00 -0.97876738564E+03  0.97876738564E+03  0.00000000000E+00 0. -1.
    9000007    1    1    2  501    0  0.14808496925E+03  0.14193730200E+02 -0.12896074169E+02  0.42696244428E+03  0.40000000000E+03 0. -1.
   -9000007    1    1    2    0  503 -0.14808496925E+03 -0.14193730200E+02 -0.69883500659E+03  0.81884124623E+03  0.40000000000E+03 0. -1.
<mgrwt>
<rscale>  2 0.42676764E+03</rscale>
<asrwt>0</asrwt>
<pdfrwt beam="1">  1       21 0.41082509E-01 0.42676764E+03</pdfrwt>
<pdfrwt beam="2">  1       21 0.15057960E+00 0.42676764E+03</pdfrwt>
<totfact> 0.14503604E+03</totfact>
</mgrwt>
</event>
<event>
 4    1  0.4732450E-002  0.4069878E+03  0.7818608E-02  0.1041387E+00
         21   -1    0    0  501  502  0.00000000000E+00  0.00000000000E+00  0.18018967730E+04  0.18018967730E+04  0.00000000000E+00 0.  1.
         21   -1    0    0  502  503 -0.00000000000E+00 -0.00000000000E+00 -0.14410431417E+03  0.14410431417E+03  0.00000000000E+00 0.  1.
    9000007    1    1    2  501    0 -0.73833301558E+02 -0.13699738983E+02  0.14143930181E+04  0.14717834926E+04  0.40000000000E+03 0.  1.
   -9000007    1    1    2    0  503  0.73833301558E+02  0.13699738983E+02  0.24339944066E+03  0.47421759455E+03  0.40000000000E+03 0.  1.
<mgrwt>
<rscale>  2 0.40698776E+03</rscale>
<asrwt>0</asrwt>
<pdfrwt beam="1">  1       21 0.27721487E+00 0.40698776E+03</pdfrwt>
<pdfrwt beam="2">  1       21 0.22169896E-01 0.40698776E+03</pdfrwt>
<totfact> 0.72772350E+02</totfact>
</mgrwt>
</event>
<event>
 4    1  0.4732450E-002  0.6324851E+03  0.7818608E-02  0.9840211E-01
         21   -1    0    0  503  502  0.00000000000E+00  0.00000000000E+00  0.16242572392E+04  0.16242572392E+04  0.00000000000E+00 0.  1.
         21   -1    0    0  501  503 -0.00000000000E+00 -0.00000000000E+00 -0.38650258431E+03  0.38650258431E+03  0.00000000000E+00 0. -1.
    9000007    1    1    2  501    0  0.35691249857E+03  0.33563500306E+03  0.13329591453E+02  0.63262553293E+03  0.40000000000E+03 0. -1.
   -9000007    1    1    2    0  502 -0.35691249857E+03 -0.33563500306E+03  0.12244250635E+04  0.13781342906E+04  0.40000000000E+03 0.  1.
<mgrwt>
<rscale>  2 0.63248509E+03</rscale>
<asrwt>0</asrwt>
<pdfrwt beam="1">  1       21 0.24988573E+00 0.63248509E+03</pdfrwt>
<pdfrwt beam="2">  1       21 0.59461937E-01 0.63248509E+03</pdfrwt>
<totfact> 0.12721340E+02</totfact>
</mgrwt>
</event>
<event>
 4    1  0.4732450E-002  0.4069320E+03  0.7818608E-02  0.1041405E+00
         21   -1    0    0  501  502  0.00000000000E+00  0.00000000000E+00  0.13511480517E+04  0.13511480517E+04  0.00000000000E+00 0. -1.
         21   -1    0    0  502  503 -0.00000000000E+00 -0.00000000000E+00 -0.17250990434E+03  0.17250990434E+03  0.00000000000E+00 0. -1.
    9000007    1    1    2  501    0  0.44210363546E+02  0.60325143373E+02  0.99926590827E+03  0.10789467246E+04  0.40000000000E+03 0. -1.
   -9000007    1    1    2    0  503 -0.44210363546E+02 -0.60325143373E+02  0.17937223907E+03  0.44471123138E+03  0.40000000000E+03 0. -1.
<mgrwt>
<rscale>  2 0.40693203E+03</rscale>
<asrwt>0</asrwt>
<pdfrwt beam="1">  1       21 0.20786892E+00 0.40693203E+03</pdfrwt>
<pdfrwt beam="2">  1       21 0.26539986E-01 0.40693203E+03</pdfrwt>
<totfact> 0.13815005E+03</totfact>
</mgrwt>
</event>
<event>
 4    1  0.4732450E-002  0.4585697E+03  0.7818608E-02  0.1025197E+00
         21   -1    0    0  503  502  0.00000000000E+00  0.00000000000E+00  0.64084218654E+03  0.64084218654E+03  0.00000000000E+00 0.  1.
         21   -1    0    0  501  503 -0.00000000000E+00 -0.00000000000E+00 -0.43821988093E+03  0.43821988093E+03  0.00000000000E+00 0.  1.
    9000007    1    1    2  501    0 -0.99814280922E+02  0.20080647770E+03 -0.16909951614E+03  0.48875431305E+03  0.40000000000E+03 0.  1.
   -9000007    1    1    2    0  502  0.99814280922E+02 -0.20080647770E+03  0.37172182176E+03  0.59030775442E+03  0.40000000000E+03 0.  1.
<mgrwt>
<rscale>  2 0.45856966E+03</rscale>
<asrwt>0</asrwt>
<pdfrwt beam="1">  1       21 0.98591106E-01 0.45856966E+03</pdfrwt>
<pdfrwt beam="2">  1       21 0.67418443E-01 0.45856966E+03</pdfrwt>
<totfact> 0.14594637E+03</totfact>
</mgrwt>
</event>
<event>
 4    1  0.4732450E-002  0.4422478E+03  0.7818608E-02  0.1030059E+00
         21   -1    0    0  501  502  0.00000000000E+00  0.00000000000E+00  0.16348938691E+04  0.16348938691E+04  0.00000000000E+00 0.  1.
         21   -1    0    0  502  503 -0.00000000000E+00 -0.00000000000E+00 -0.12141851868E+03  0.12141851868E+03  0.00000000000E+00 0. -1.
    9000007    1    1    2  501    0 -0.16774440842E+03 -0.86284085627E+02  0.86330360472E+03  0.96998775452E+03  0.40000000000E+03 0.  1.
   -9000007    1    1    2    0  503  0.16774440842E+03  0.86284085627E+02  0.65017174575E+03  0.78632463331E+03  0.40000000000E+03 0. -1.
<mgrwt>
<rscale>  2 0.44224782E+03</rscale>
<asrwt>0</asrwt>
<pdfrwt beam="1">  1       21 0.25152212E+00 0.44224782E+03</pdfrwt>
<pdfrwt beam="2">  1       21 0.18679773E-01 0.44224782E+03</pdfrwt>
<totfact> 0.14161592E+03</totfact>
</mgrwt>
</event>
<event>
 4    1  0.4732450E-002  0.4084501E+03  0.7818608E-02  0.1040892E+00
         21   -1    0    0  501  502  0.00000000000E+00  0.00000000000E+00  0.25343767659E+03  0.25343767659E+03  0.00000000000E+00 0.  1.
         21   -1    0    0  502  503 -0.00000000000E+00 -0.00000000000E+00 -0.66122046004E+03  0.66122046004E+03  0.00000000000E+00 0. -1.
    9000007    1    1    2  501    0 -0.56829689014E+02 -0.60015427518E+02 -0.23441927162E+03  0.47093933792E+03  0.40000000000E+03 0. -1.
   -9000007    1    1    2    0  503  0.56829689014E+02  0.60015427518E+02 -0.17336351183E+03  0.44371879871E+03  0.40000000000E+03 0. -1.
<mgrwt>
<rscale>  2 0.40845008E+03</rscale>
<asrwt>0</asrwt>
<pdfrwt beam="1">  1       21 0.38990412E-01 0.40845008E+03</pdfrwt>
<pdfrwt beam="2">  1       21 0.10172622E+00 0.40845008E+03</pdfrwt>
<totfact> 0.44429413E+03</totfact>
</mgrwt>
</event>
<event>
 4    1  0.4732450E-002  0.4662517E+03  0.7818608E-02  0.1022983E+00
         21   -1    0    0  501  502  0.00000000000E+00  0.00000000000E+00  0.91300134993E+03  0.91300134993E+03  0.00000000000E+00 0.  1.
         21   -1    0    0  502  503 -0.00000000000E+00 -0.00000000000E+00 -0.55159077279E+03  0.55159077279E+03  0.00000000000E+00 0. -1.
    9000007    1    1    2  501    0 -0.23947005974E+03  0.66902539728E+01  0.73276588936E+03  0.86852548473E+03  0.40000000000E+03 0.  1.
   -9000007    1    1    2    0  503  0.23947005974E+03 -0.66902539728E+01 -0.37135531222E+03  0.59606663799E+03  0.40000000000E+03 0. -1.
<mgrwt>
<rscale>  2 0.46625172E+03</rscale>
<asrwt>0</asrwt>
<pdfrwt beam="1">  1       21 0.14046175E+00 0.46625172E+03</pdfrwt>
<pdfrwt beam="2">  1       21 0.84860119E-01 0.46625172E+03</pdfrwt>
<totfact> 0.35064958E+02</totfact>
</mgrwt>
</event>
<event>
 4    1  0.4732450E-002  0.4039401E+03  0.7818608E-02  0.1042424E+00
         21   -1    0    0  503  502  0.00000000000E+00  0.00000000000E+00  0.10840610917E+03  0.10840610917E+03  0.00000000000E+00 0. -1.
         21   -1    0    0  501  503 -0.00000000000E+00 -0.00000000000E+00 -0.20808882148E+04  0.20808882148E+04  0.00000000000E+00 0. -1.
    9000007    1    1    2  501    0 -0.26751054626E+02  0.49517375598E+02 -0.15620280349E+04  0.16134122756E+04  0.40000000000E+03 0. -1.
   -9000007    1    1    2    0  502  0.26751054626E+02 -0.49517375598E+02 -0.41045407079E+03  0.57588204837E+03  0.40000000000E+03 0. -1.
<mgrwt>
<rscale>  2 0.40394008E+03</rscale>
<asrwt>0</asrwt>
<pdfrwt beam="1">  1       21 0.16677863E-01 0.40394008E+03</pdfrwt>
<pdfrwt beam="2">  1       21 0.32013665E+00 0.40394008E+03</pdfrwt>
<totfact> 0.69118210E+02</totfact>
</mgrwt>
</event>
<event>
 4    1  0.4732450E-002  0.4406200E+03  0.7818608E-02  0.1030557E+00
         21   -1    0    0  503  502  0.00000000000E+00  0.00000000000E+00  0.23505179022E+03  0.23505179022E+03  0.00000000000E+00 0. -1.
         21   -1    0    0  501  503 -0.00000000000E+00 -0.00000000000E+00 -0.84143625089E+03  0.84143625089E+03  0.00000000000E+00 0. -1.
    9000007    1    1    2  501    0  0.18459917747E+03  0.83145736784E+01 -0.23022203271E+03  0.49713999316E+03  0.40000000000E+03 0.  1.
   -9000007    1    1    2    0  502 -0.18459917747E+03 -0.83145736784E+01 -0.37616242796E+03  0.57934804795E+03  0.40000000000E+03 0.  1.
<mgrwt>
<rscale>  2 0.44062000E+03</rscale>
<asrwt>0</asrwt>
<pdfrwt beam="1">  1       21 0.36161814E-01 0.44062000E+03</pdfrwt>
<pdfrwt beam="2">  1       21 0.12945173E+00 0.44062000E+03</pdfrwt>
<totfact> 0.27964129E+03</totfact>
</mgrwt>
</event>
<event>
 4    1  0.4732450E-002  0.4493444E+03  0.7818608E-02  0.1027918E+00
         21   -1    0    0  503  502  0.00000000000E+00  0.00000000000E+00  0.26514121905E+03  0.26514121905E+03  0.00000000000E+00 0.  1.
         21   -1    0    0  501  503 -0.00000000000E+00 -0.00000000000E+00 -0.77486146632E+03  0.77486146632E+03  0.00000000000E+00 0. -1.
    9000007    1    1    2  501    0 -0.13601694582E+03  0.15300259124E+03 -0.32309249251E+03  0.55344300627E+03  0.40000000000E+03 0.  1.
   -9000007    1    1    2    0  502  0.13601694582E+03 -0.15300259124E+03 -0.18662775476E+03  0.48655967909E+03  0.40000000000E+03 0. -1.
<mgrwt>
<rscale>  2 0.44934441E+03</rscale>
<asrwt>0</asrwt>
<pdfrwt beam="1">  1       21 0.40790957E-01 0.44934441E+03</pdfrwt>
<pdfrwt beam="2">  1       21 0.11920946E+00 0.44934441E+03</pdfrwt>
<totfact> 0.26911995E+03</totfact>
</mgrwt>
</event>
<event>
 4    1  0.4732450E-002  0.4907676E+03  0.7818608E-02  0.1016217E+00
         21   -1    0    0  501  502  0.00000000000E+00  0.00000000000E+00  0.88859167712E+03  0.88859167712E+03  0.00000000000E+00 0. -1.
         21   -1    0    0  502  503 -0.00000000000E+00 -0.00000000000E+00 -0.11980733564E+04  0.11980733564E+04  0.00000000000E+00 0. -1.
    9000007    1    1    2  501    0  0.21087441593E+03  0.19074796605E+03  0.76301333285E+03  0.90721670617E+03  0.40000000000E+03 0. -1.
   -9000007    1    1    2    0  503 -0.21087441593E+03 -0.19074796605E+03 -0.10724950121E+04  0.11794483274E+04  0.40000000000E+03 0. -1.
<mgrwt>
<rscale>  2 0.49076757E+03</rscale>
<asrwt>0</asrwt>
<pdfrwt beam="1">  1       21 0.13670641E+00 0.49076757E+03</pdfrwt>
<pdfrwt beam="2">  1       21 0.18431898E+00 0.49076757E+03</pdfrwt>
<totfact> 0.49578925E+01</totfact>
</mgrwt>
</event>
<event>
 4    1  0.4732450E-002  0.4118246E+03  0.7818608E-02  0.1039760E+00
         21   -1    0    0  501  502  0.00000000000E+00  0.00000000000E+00  0.32891162582E+03  0.32891162582E+03  0.00000000000E+00 0.  1.
         21   -1    0    0  502  503 -0.00000000000E+00 -0.00000000000E+00 -0.56737214356E+03  0.56737214356E+03  0.00000000000E+00 0. -1.
    9000007    1    1    2  501    0  0.56523608012E+02 -0.80028515919E+02  0.16091696889E+02  0.41213884109E+03  0.40000000000E+03 0.  1.
   -9000007    1    1    2    0  503 -0.56523608012E+02  0.80028515919E+02 -0.25455221462E+03  0.48414492829E+03  0.40000000000E+03 0. -1.
<mgrwt>
<rscale>  2 0.41182458E+03</rscale>
<asrwt>0</asrwt>
<pdfrwt beam="1">  1       21 0.50601789E-01 0.41182458E+03</pdfrwt>
<pdfrwt beam="2">  1       21 0.87288021E-01 0.41182458E+03</pdfrwt>
<totfact> 0.37121439E+03</totfact>
</mgrwt>
</event>
<event>
 4    1  0.4732450E-002  0.4930496E+03  0.7818608E-02  0.1015609E+00
         21   -1    0    0  503  502  0.00000000000E+00  0.00000000000E+00  0.26873030491E+03  0.26873030491E+03  0.00000000000E+00 0.  1.
         21   -1    0    0  501  503 -0.00000000000E+00 -0.00000000000E+00 -0.13015699034E+04  0.13015699034E+04  0.00000000000E+00 0.  1.
    9000007    1    1    2  501    0 -0.10401979791E+03 -0.26884534868E+03 -0.95001908904E+03  0.10703430335E+04  0.40000000000E+03 0.  1.
   -9000007    1    1    2    0  502  0.10401979791E+03  0.26884534868E+03 -0.82820509472E+02  0.49995717482E+03  0.40000000000E+03 0.  1.
<mgrwt>
<rscale>  2 0.49304963E+03</rscale>
<asrwt>0</asrwt>
<pdfrwt beam="1">  1       21 0.41343123E-01 0.49304963E+03</pdfrwt>
<pdfrwt beam="2">  1       21 0.20024153E+00 0.49304963E+03</pdfrwt>
<totfact> 0.61093477E+02</totfact>
</mgrwt>
</event>
<event>
 4    1  0.4732450E-002  0.4422620E+03  0.7818608E-02  0.1030055E+00
         21   -1    0    0  501  502  0.00000000000E+00  0.00000000000E+00  0.70119673227E+03  0.70119673227E+03  0.00000000000E+00 0. -1.
         21   -1    0    0  502  503 -0.00000000000E+00 -0.00000000000E+00 -0.27899663455E+03  0.27899663455E+03  0.00000000000E+00 0. -1.
    9000007    1    1    2  501    0 -0.18866670610E+03 -0.76138438224E+00  0.20446808887E+03  0.48724008975E+03  0.40000000000E+03 0.  1.
   -9000007    1    1    2    0  503  0.18866670610E+03  0.76138438224E+00  0.21773200885E+03  0.49295327707E+03  0.40000000000E+03 0.  1.
<mgrwt>
<rscale>  2 0.44226203E+03</rscale>
<asrwt>0</asrwt>
<pdfrwt beam="1">  1       21 0.10787642E+00 0.44226203E+03</pdfrwt>
<pdfrwt beam="2">  1       21 0.42922559E-01 0.44226203E+03</pdfrwt>
<totfact> 0.31153277E+03</totfact>
</mgrwt>
</event>
<event>
 4    1  0.4732450E-002  0.4150647E+03  0.7818608E-02  0.1038685E+00
         21   -1    0    0  501  502  0.00000000000E+00  0.00000000000E+00  0.32274138727E+03  0.32274138727E+03  0.00000000000E+00 0. -1.
         21   -1    0    0  502  503 -0.00000000000E+00 -0.00000000000E+00 -0.66663847564E+03  0.66663847564E+03  0.00000000000E+00 0. -1.
    9000007    1    1    2  501    0  0.66301368920E+02 -0.88785526714E+02  0.48878836342E+02  0.41793286772E+03  0.40000000000E+03 0. -1.
   -9000007    1    1    2    0  503 -0.66301368920E+02  0.88785526714E+02 -0.39277592471E+03  0.57144699519E+03  0.40000000000E+03 0. -1.
<mgrwt>
<rscale>  2 0.41506474E+03</rscale>
<asrwt>0</asrwt>
<pdfrwt beam="1">  1       21 0.49652522E-01 0.41506474E+03</pdfrwt>
<pdfrwt beam="2">  1       21 0.10255976E+00 0.41506474E+03</pdfrwt>
<totfact> 0.26246890E+03</totfact>
</mgrwt>
</event>
<event>
 4    1  0.4732450E-002  0.4445050E+03  0.7818608E-02  0.1029373E+00
         21   -1    0    0  501  502  0.00000000000E+00  0.00000000000E+00  0.10498659070E+03  0.10498659070E+03  0.00000000000E+00 0.  1.
         21   -1    0    0  502  503 -0.00000000000E+00 -0.00000000000E+00 -0.19676031938E+04  0.19676031938E+04  0.00000000000E+00 0.  1.
    9000007    1    1    2  501    0  0.14584218160E+03 -0.12772919736E+03 -0.11474613517E+04  0.12305495696E+04  0.40000000000E+03 0.  1.
   -9000007    1    1    2    0  503 -0.14584218160E+03  0.12772919736E+03 -0.71515525147E+03  0.84204021489E+03  0.40000000000E+03 0.  1.
<mgrwt>
<rscale>  2 0.44450499E+03</rscale>
<asrwt>0</asrwt>
<pdfrwt beam="1">  1       21 0.16151785E-01 0.44450499E+03</pdfrwt>
<pdfrwt beam="2">  1       21 0.30270815E+00 0.44450499E+03</pdfrwt>
<totfact> 0.91172244E+02</totfact>
</mgrwt>
</event>
<event>
 4    1  0.4732450E-002  0.4133694E+03  0.7818608E-02  0.1039246E+00
         21   -1    0    0  503  502  0.00000000000E+00  0.00000000000E+00  0.20928222815E+03  0.20928222815E+03  0.00000000000E+00 0. -1.
         21   -1    0    0  501  503 -0.00000000000E+00 -0.00000000000E+00 -0.81934083104E+03  0.81934083104E+03  0.00000000000E+00 0.  1.
    9000007    1    1    2  501    0 -0.99009174652E+02 -0.32732987388E+02 -0.27462625028E+03  0.49628000410E+03  0.40000000000E+03 0. -1.
   -9000007    1    1    2    0  502  0.99009174652E+02  0.32732987388E+02 -0.33543235261E+03  0.53234305509E+03  0.40000000000E+03 0.  1.
<mgrwt>
<rscale>  2 0.41336941E+03</rscale>
<asrwt>0</asrwt>
<pdfrwt beam="1">  1       21 0.32197266E-01 0.41336941E+03</pdfrwt>
<pdfrwt beam="2">  1       21 0.12605243E+00 0.41336941E+03</pdfrwt>
<totfact> 0.38244127E+03</totfact>
</mgrwt>
</event>
<event>
 4    1  0.4732450E-002  0.4188523E+03  0.7818608E-02  0.1037440E+00
         21   -1    0    0  503  502  0.00000000000E+00  0.00000000000E+00  0.11801120496E+04  0.11801120496E+04  0.00000000000E+00 0.  1.
         21   -1    0    0  501  503 -0.00000000000E+00 -0.00000000000E+00 -0.15062921491E+03  0.15062921491E+03  0.00000000000E+00 0.  1.
    9000007    1    1    2  501    0 -0.31732279383E+02 -0.12012617785E+03  0.43869315454E+03  0.60653847364E+03  0.40000000000E+03 0. -1.
   -9000007    1    1    2    0  502  0.31732279383E+02  0.12012617785E+03  0.59078968017E+03  0.72420279091E+03  0.40000000000E+03 0. -1.
<mgrwt>
<rscale>  2 0.41885228E+03</rscale>
<asrwt>0</asrwt>
<pdfrwt beam="1">  1       21 0.18155569E+00 0.41885228E+03</pdfrwt>
<pdfrwt beam="2">  1       21 0.23173726E-01 0.41885228E+03</pdfrwt>
<totfact> 0.26894632E+03</totfact>
</mgrwt>
</event>
<event>
 4    1  0.4732450E-002  0.5765985E+03  0.7818608E-02  0.9955182E-01
         21   -1    0    0  503  502  0.00000000000E+00  0.00000000000E+00  0.43006363234E+03  0.43006363234E+03  0.00000000000E+00 0.  1.
         21   -1    0    0  501  503 -0.00000000000E+00 -0.00000000000E+00 -0.16524771356E+04  0.16524771356E+04  0.00000000000E+00 0. -1.
    9000007    1    1    2  501    0  0.38402254860E+02  0.41351072866E+03 -0.13708203877E+04  0.14871497542E+04  0.40000000000E+03 0. -1.
   -9000007    1    1    2    0  502 -0.38402254860E+02 -0.41351072866E+03  0.14840688448E+03  0.59539101375E+03  0.40000000000E+03 0.  1.
<mgrwt>
<rscale>  2 0.57659852E+03</rscale>
<asrwt>0</asrwt>
<pdfrwt beam="1">  1       21 0.66163636E-01 0.57659852E+03</pdfrwt>
<pdfrwt beam="2">  1       21 0.25422725E+00 0.57659852E+03</pdfrwt>
<totfact> 0.96600088E+01</totfact>
</mgrwt>
</event>
<event>
 4    1  0.4732450E-002  0.4346909E+03  0.7818608E-02  0.1032388E+00
         21   -1    0    0  501  502  0.00000000000E+00  0.00000000000E+00  0.17018868279E+04  0.17018868279E+04  0.00000000000E+00 0. -1.
         21   -1    0    0  502  503 -0.00000000000E+00 -0.00000000000E+00 -0.23472872114E+03  0.23472872114E+03  0.00000000000E+00 0. -1.
    9000007    1    1    2  501    0  0.51827685435E+02 -0.16208049528E+03  0.14365175710E+04  0.15008460706E+04  0.40000000000E+03 0. -1.
   -9000007    1    1    2    0  503 -0.51827685435E+02  0.16208049528E+03  0.30640535816E+02  0.43576947847E+03  0.40000000000E+03 0. -1.
<mgrwt>
<rscale>  2 0.43469092E+03</rscale>
<asrwt>0</asrwt>
<pdfrwt beam="1">  1       21 0.26182873E+00 0.43469092E+03</pdfrwt>
<pdfrwt beam="2">  1       21 0.36112112E-01 0.43469092E+03</pdfrwt>
<totfact> 0.33891646E+02</totfact>
</mgrwt>
</event>
<event>
 4    1  0.4732450E-002  0.5419974E+03  0.7818608E-02  0.1003363E+00
         21   -1    0    0  501  502  0.00000000000E+00  0.00000000000E+00  0.52868871316E+03  0.52868871316E+03  0.00000000000E+00 0. -1.
         21   -1    0    0  502  503 -0.00000000000E+00 -0.00000000000E+00 -0.88651788573E+03  0.88651788573E+03  0.00000000000E+00 0.  1.
    9000007    1    1    2  501    0 -0.33955765367E+03 -0.13587420740E+03  0.25337942558E+03  0.59829953511E+03  0.40000000000E+03 0. -1.
   -9000007    1    1    2    0  503  0.33955765367E+03  0.13587420740E+03 -0.61120859815E+03  0.81690706378E+03  0.40000000000E+03 0.  1.
<mgrwt>
<rscale>  2 0.54199742E+03</rscale>
<asrwt>0</asrwt>
<pdfrwt beam="1">  1       21 0.81336725E-01 0.54199742E+03</pdfrwt>
<pdfrwt beam="2">  1       21 0.13638737E+00 0.54199742E+03</pdfrwt>
<totfact> 0.40560142E+02</totfact>
</mgrwt>
</event>
<event>
 4    1  0.4732450E-002  0.8407333E+03  0.7818608E-02  0.9502860E-01
         21   -1    0    0  503  502  0.00000000000E+00  0.00000000000E+00  0.98399156796E+03  0.98399156796E+03  0.00000000000E+00 0.  1.
         21   -1    0    0  501  503 -0.00000000000E+00 -0.00000000000E+00 -0.81082982691E+03  0.81082982691E+03  0.00000000000E+00 0. -1.
    9000007    1    1    2  501    0 -0.70313815760E+03 -0.22897422119E+03  0.38968548678E+03  0.92665378715E+03  0.40000000000E+03 0.  1.
   -9000007    1    1    2    0  502  0.70313815760E+03  0.22897422119E+03 -0.21652374573E+03  0.86816760772E+03  0.40000000000E+03 0. -1.
<mgrwt>
<rscale>  2 0.84073329E+03</rscale>
<asrwt>0</asrwt>
<pdfrwt beam="1">  1       21 0.15138332E+00 0.84073329E+03</pdfrwt>
<pdfrwt beam="2">  1       21 0.12474305E+00 0.84073329E+03</pdfrwt>
<totfact> 0.96774163E+01</totfact>
</mgrwt>
</event>
<event>
 4    1  0.4732450E-002  0.4725224E+03  0.7818608E-02  0.1021211E+00
         21   -1    0    0  501  502  0.00000000000E+00  0.00000000000E+00  0.15325259644E+04  0.15325259644E+04  0.00000000000E+00 0. -1.
         21   -1    0    0  502  503 -0.00000000000E+00 -0.00000000000E+00 -0.14818839990E+03  0.14818839990E+03  0.00000000000E+00 0.  1.
    9000007    1    1    2  501    0  0.29901587331E+02  0.24976646052E+03  0.58310542279E+03  0.75052603140E+03  0.40000000000E+03 0.  1.
   -9000007    1    1    2    0  503 -0.29901587331E+02 -0.24976646052E+03  0.80123214169E+03  0.93018833287E+03  0.40000000000E+03 0.  1.
<mgrwt>
<rscale>  2 0.47252237E+03</rscale>
<asrwt>0</asrwt>
<pdfrwt beam="1">  1       21 0.23577322E+00 0.47252237E+03</pdfrwt>
<pdfrwt beam="2">  1       21 0.22798216E-01 0.47252237E+03</pdfrwt>
<totfact> 0.11941500E+03</totfact>
</mgrwt>
</event>
<event>
 4    1  0.4732450E-002  0.4156967E+03  0.7818608E-02  0.1038476E+00
         21   -1    0    0  503  502  0.00000000000E+00  0.00000000000E+00  0.34167559853E+03  0.34167559853E+03  0.00000000000E+00 0.  1.
         21   -1    0    0  501  503 -0.00000000000E+00 -0.00000000000E+00 -0.62775537874E+03  0.62775537874E+03  0.00000000000E+00 0.  1.
    9000007    1    1    2  501    0 -0.11206519431E+03 -0.15657213375E+02 -0.35672500840E+03  0.54777412108E+03  0.40000000000E+03 0.  1.
   -9000007    1    1    2    0  502  0.11206519431E+03  0.15657213375E+02  0.70645228191E+02  0.42165685619E+03  0.40000000000E+03 0.  1.
<mgrwt>
<rscale>  2 0.41569671E+03</rscale>
<asrwt>0</asrwt>
<pdfrwt beam="1">  1       21 0.52565477E-01 0.41569671E+03</pdfrwt>
<pdfrwt beam="2">  1       21 0.96577749E-01 0.41569671E+03</pdfrwt>
<totfact> 0.26880553E+03</totfact>
</mgrwt>
</event>
<event>
 4    1  0.4732450E-002  0.6445921E+03  0.7818608E-02  0.9816980E-01
         21   -1    0    0  501  502  0.00000000000E+00  0.00000000000E+00  0.75009964529E+03  0.75009964529E+03  0.00000000000E+00 0. -1.
         21   -1    0    0  502  503 -0.00000000000E+00 -0.00000000000E+00 -0.58358743961E+03  0.58358743961E+03  0.00000000000E+00 0. -1.
    9000007    1    1    2  501    0  0.40256846709E+03 -0.30567560930E+03 -0.67083842529E+02  0.64807344548E+03  0.40000000000E+03 0. -1.
   -9000007    1    1    2    0  503 -0.40256846709E+03  0.30567560930E+03  0.23359604821E+03  0.68561363942E+03  0.40000000000E+03 0. -1.
<mgrwt>
<rscale>  2 0.64459208E+03</rscale>
<asrwt>0</asrwt>
<pdfrwt beam="1">  1       21 0.11539995E+00 0.64459208E+03</pdfrwt>
<pdfrwt beam="2">  1       21 0.89782683E-01 0.64459208E+03</pdfrwt>
<totfact> 0.47827060E+02</totfact>
</mgrwt>
</event>
<event>
 4    1  0.4732450E-002  0.4214446E+03  0.7818608E-02  0.1036597E+00
         21   -1    0    0  503  502  0.00000000000E+00  0.00000000000E+00  0.20633738280E+04  0.20633738280E+04  0.00000000000E+00 0. -1.
         21   -1    0    0  501  503 -0.00000000000E+00 -0.00000000000E+00 -0.10582575590E+03  0.10582575590E+03  0.00000000000E+00 0. -1.
    9000007    1    1    2  501    0 -0.93713399571E+02  0.93986039757E+02  0.51027489173E+03  0.66181269409E+03  0.40000000000E+03 0. -1.
   -9000007    1    1    2    0  502  0.93713399571E+02 -0.93986039757E+02  0.14472731804E+04  0.15073868898E+04  0.40000000000E+03 0. -1.
<mgrwt>
<rscale>  2 0.42144463E+03</rscale>
<asrwt>0</asrwt>
<pdfrwt beam="1">  1       21 0.31744210E+00 0.42144463E+03</pdfrwt>
<pdfrwt beam="2">  1       21 0.16280887E-01 0.42144463E+03</pdfrwt>
<totfact> 0.74231211E+02</totfact>
</mgrwt>
</event>
<event>
 4    1  0.4732450E-002  0.5009369E+03  0.7818608E-02  0.1013535E+00
         21   -1    0    0  501  502  0.00000000000E+00  0.00000000000E+00  0.45950360844E+03  0.45950360844E+03  0.00000000000E+00 0.  1.
         21   -1    0    0  502  503 -0.00000000000E+00 -0.00000000000E+00 -0.10715311261E+04  0.10715311261E+04  0.00000000000E+00 0.  1.
    9000007    1    1    2  501    0  0.57105644314E+02  0.29610261964E+03  0.23003950740E+03  0.55123134067E+03  0.40000000000E+03 0.  1.
   -9000007    1    1    2    0  503 -0.57105644314E+02 -0.29610261964E+03 -0.84206702506E+03  0.97980339388E+03  0.40000000000E+03 0.  1.
<mgrwt>
<rscale>  2 0.50093694E+03</rscale>
<asrwt>0</asrwt>
<pdfrwt beam="1">  1       21 0.70692863E-01 0.50093694E+03</pdfrwt>
<pdfrwt beam="2">  1       21 0.16485094E+00 0.50093694E+03</pdfrwt>
<totfact> 0.33877773E+02</totfact>
</mgrwt>
</event>
<event>
 4    1  0.4732450E-002  0.5128664E+03  0.7818608E-02  0.1010474E+00
         21   -1    0    0  503  502  0.00000000000E+00  0.00000000000E+00  0.51639742790E+03  0.51639742790E+03  0.00000000000E+00 0. -1.
         21   -1    0    0  501  503 -0.00000000000E+00 -0.00000000000E+00 -0.51693135366E+03  0.51693135366E+03  0.00000000000E+00 0. -1.
    9000007    1    1    2  501    0 -0.72747421942E+02 -0.31263354568E+03 -0.62797764771E+02  0.51669670073E+03  0.40000000000E+03 0. -1.
   -9000007    1    1    2    0  502  0.72747421942E+02  0.31263354568E+03  0.62263839010E+02  0.51663208082E+03  0.40000000000E+03 0. -1.
<mgrwt>
<rscale>  2 0.51286638E+03</rscale>
<asrwt>0</asrwt>
<pdfrwt beam="1">  1       21 0.79445759E-01 0.51286638E+03</pdfrwt>
<pdfrwt beam="2">  1       21 0.79527900E-01 0.51286638E+03</pdfrwt>
<totfact> 0.16377892E+03</totfact>
</mgrwt>
</event>
<event>
 4    1  0.4732450E-002  0.4454926E+03  0.7818608E-02  0.1029075E+00
         21   -1    0    0  503  502  0.00000000000E+00  0.00000000000E+00  0.32199455407E+03  0.32199455407E+03  0.00000000000E+00 0. -1.
         21   -1    0    0  501  503 -0.00000000000E+00 -0.00000000000E+00 -0.61651335605E+03  0.61651335605E+03  0.00000000000E+00 0.  1.
    9000007    1    1    2  501    0  0.40604074050E+02  0.19187220314E+03 -0.13978907522E+03  0.46690964728E+03  0.40000000000E+03 0.  1.
   -9000007    1    1    2    0  502 -0.40604074050E+02 -0.19187220314E+03 -0.15472972676E+03  0.47159826284E+03  0.40000000000E+03 0.  1.
<mgrwt>
<rscale>  2 0.44549257E+03</rscale>
<asrwt>0</asrwt>
<pdfrwt beam="1">  1       21 0.49537624E-01 0.44549257E+03</pdfrwt>
<pdfrwt beam="2">  1       21 0.94848208E-01 0.44549257E+03</pdfrwt>
<totfact> 0.31502669E+03</totfact>
</mgrwt>
</event>
<event>
 4    1  0.4732450E-002  0.4719610E+03  0.7818608E-02  0.1021368E+00
         21   -1    0    0  503  502  0.00000000000E+00  0.00000000000E+00  0.72200277683E+03  0.72200277683E+03  0.00000000000E+00 0.  1.
         21   -1    0    0  501  503 -0.00000000000E+00 -0.00000000000E+00 -0.31142512567E+03  0.31142512567E+03  0.00000000000E+00 0. -1.
    9000007    1    1    2  501    0  0.24796950264E+03 -0.35472467471E+02  0.15532152280E+03  0.49686209921E+03  0.40000000000E+03 0. -1.
   -9000007    1    1    2    0  502 -0.24796950264E+03  0.35472467471E+02  0.25525612837E+03  0.53656580329E+03  0.40000000000E+03 0.  1.
<mgrwt>
<rscale>  2 0.47196098E+03</rscale>
<asrwt>0</asrwt>
<pdfrwt beam="1">  1       21 0.11107735E+00 0.47196098E+03</pdfrwt>
<pdfrwt beam="2">  1       21 0.47911558E-01 0.47196098E+03</pdfrwt>
<totfact> 0.22759440E+03</totfact>
</mgrwt>
</event>
<event>
 4    1  0.4732450E-002  0.4814781E+03  0.7818608E-02  0.1018730E+00
         21   -1    0    0  503  502  0.00000000000E+00  0.00000000000E+00  0.78531921942E+03  0.78531921942E+03  0.00000000000E+00 0. -1.
         21   -1    0    0  501  503 -0.00000000000E+00 -0.00000000000E+00 -0.37924067206E+03  0.37924067206E+03  0.00000000000E+00 0.  1.
    9000007    1    1    2  501    0  0.11707317877E+03  0.24107060250E+03  0.47715617556E+03  0.67786368869E+03  0.40000000000E+03 0. -1.
   -9000007    1    1    2    0  502 -0.11707317877E+03 -0.24107060250E+03 -0.71077628199E+02  0.48669620279E+03  0.40000000000E+03 0.  1.
<mgrwt>
<rscale>  2 0.48147810E+03</rscale>
<asrwt>0</asrwt>
<pdfrwt beam="1">  1       21 0.12081834E+00 0.48147810E+03</pdfrwt>
<pdfrwt beam="2">  1       21 0.58344719E-01 0.48147810E+03</pdfrwt>
<totfact> 0.12021592E+03</totfact>
</mgrwt>
</event>
<event>
 4    1  0.4732450E-002  0.5122983E+03  0.7818608E-02  0.1010618E+00
         21   -1    0    0  501  502  0.00000000000E+00  0.00000000000E+00  0.15333820178E+04  0.15333820178E+04  0.00000000000E+00 0. -1.
         21   -1    0    0  502  503 -0.00000000000E+00 -0.00000000000E+00 -0.17480901220E+03  0.17480901220E+03  0.00000000000E+00 0. -1.
    9000007    1    1    2  501    0 -0.31925053934E+03 -0.22991484070E+02  0.80273142301E+03  0.95227477793E+03  0.40000000000E+03 0.  1.
   -9000007    1    1    2    0  503  0.31925053934E+03  0.22991484070E+02  0.55584158259E+03  0.75591625207E+03  0.40000000000E+03 0.  1.
<mgrwt>
<rscale>  2 0.51229827E+03</rscale>
<asrwt>0</asrwt>
<pdfrwt beam="1">  1       21 0.23590492E+00 0.51229827E+03</pdfrwt>
<pdfrwt beam="2">  1       21 0.26893695E-01 0.51229827E+03</pdfrwt>
<totfact> 0.84891751E+02</totfact>
</mgrwt>
</event>
<event>
 4    1  0.4732450E-002  0.4993761E+03  0.7818608E-02  0.1013942E+00
         21   -1    0    0  501  502  0.00000000000E+00  0.00000000000E+00  0.14026690053E+04  0.14026690053E+04  0.00000000000E+00 0.  1.
         21   -1    0    0  502  503 -0.00000000000E+00 -0.00000000000E+00 -0.26292043070E+03  0.26292043070E+03  0.00000000000E+00 0. -1.
    9000007    1    1    2  501    0 -0.30517874946E+02 -0.29739721220E+03  0.10437621974E+04  0.11570721530E+04  0.40000000000E+03 0.  1.
   -9000007    1    1    2    0  503  0.30517874946E+02  0.29739721220E+03  0.95986377217E+02  0.50851728301E+03  0.40000000000E+03 0. -1.
<mgrwt>
<rscale>  2 0.49937605E+03</rscale>
<asrwt>0</asrwt>
<pdfrwt beam="1">  1       21 0.21579523E+00 0.49937605E+03</pdfrwt>
<pdfrwt beam="2">  1       21 0.40449298E-01 0.49937605E+03</pdfrwt>
<totfact> 0.50367648E+02</totfact>
</mgrwt>
</event>
<event>
 4    1  0.4732450E-002  0.4019311E+03  0.7818608E-02  0.1043113E+00
         21   -1    0    0  501  502  0.00000000000E+00  0.00000000000E+00  0.46161655014E+03  0.46161655014E+03  0.00000000000E+00 0.  1.
         21   -1    0    0  502  503 -0.00000000000E+00 -0.00000000000E+00 -0.46081938873E+03  0.46081938873E+03  0.00000000000E+00 0.  1.
    9000007    1    1    2  501    0  0.11732862022E+02 -0.37562507207E+02  0.22661372760E+03  0.46141346267E+03  0.40000000000E+03 0.  1.
   -9000007    1    1    2    0  503 -0.11732862022E+02  0.37562507207E+02 -0.22581656619E+03  0.46102247620E+03  0.40000000000E+03 0.  1.
<mgrwt>
<rscale>  2 0.40193109E+03</rscale>
<asrwt>0</asrwt>
<pdfrwt beam="1">  1       21 0.71017931E-01 0.40193109E+03</pdfrwt>
<pdfrwt beam="2">  1       21 0.70895290E-01 0.40193109E+03</pdfrwt>
<totfact> 0.28638404E+03</totfact>
</mgrwt>
</event>
<event>
 4    1  0.4732450E-002  0.5806120E+03  0.7818608E-02  0.9946467E-01
         21   -1    0    0  503  502  0.00000000000E+00  0.00000000000E+00  0.16585417386E+03  0.16585417386E+03  0.00000000000E+00 0.  1.
         21   -1    0    0  501  503 -0.00000000000E+00 -0.00000000000E+00 -0.21126251045E+04  0.21126251045E+04  0.00000000000E+00 0.  1.
    9000007    1    1    2  501    0 -0.10359972498E+03  0.40789386077E+03 -0.75161844106E+03  0.94975817218E+03  0.40000000000E+03 0.  1.
   -9000007    1    1    2    0  502  0.10359972498E+03 -0.40789386077E+03 -0.11951524895E+04  0.13287211061E+04  0.40000000000E+03 0.  1.
<mgrwt>
<rscale>  2 0.58061201E+03</rscale>
<asrwt>0</asrwt>
<pdfrwt beam="1">  1       21 0.25516028E-01 0.58061201E+03</pdfrwt>
<pdfrwt beam="2">  1       21 0.32501923E+00 0.58061201E+03</pdfrwt>
<totfact> 0.26007048E+02</totfact>
</mgrwt>
</event>
<event>
 4    1  0.4732450E-002  0.4392561E+03  0.7818608E-02  0.1030975E+00
         21   -1    0    0  501  502  0.00000000000E+00  0.00000000000E+00  0.34124951742E+03  0.34124951742E+03  0.00000000000E+00 0.  1.
         21   -1    0    0  502  503 -0.00000000000E+00 -0.00000000000E+00 -0.59075516969E+03  0.59075516969E+03  0.00000000000E+00 0.  1.
    9000007    1    1    2  501    0  0.90900512956E+02 -0.15710826272E+03 -0.28229686667E+02  0.44016227085E+03  0.40000000000E+03 0.  1.
   -9000007    1    1    2    0  503 -0.90900512956E+02  0.15710826272E+03 -0.22127596560E+03  0.49184241625E+03  0.40000000000E+03 0.  1.
<mgrwt>
<rscale>  2 0.43925609E+03</rscale>
<asrwt>0</asrwt>
<pdfrwt beam="1">  1       21 0.52499926E-01 0.43925609E+03</pdfrwt>
<pdfrwt beam="2">  1       21 0.90885410E-01 0.43925609E+03</pdfrwt>
<totfact> 0.30882108E+03</totfact>
</mgrwt>
</event>
<event>
 4    1  0.4732450E-002  0.6743766E+03  0.7818608E-02  0.9762084E-01
         21   -1    0    0  501  502  0.00000000000E+00  0.00000000000E+00  0.14449002053E+04  0.14449002053E+04  0.00000000000E+00 0.  1.
         21   -1    0    0  502  503 -0.00000000000E+00 -0.00000000000E+00 -0.50501070034E+03  0.50501070034E+03  0.00000000000E+00 0. -1.
    9000007    1    1    2  501    0 -0.51172808831E+03 -0.18143364714E+03  0.10683671927E+04  0.12634050274E+04  0.40000000000E+03 0.  1.
   -9000007    1    1    2    0  503  0.51172808831E+03  0.18143364714E+03 -0.12847768774E+03  0.68650587829E+03  0.40000000000E+03 0. -1.
<mgrwt>
<rscale>  2 0.67437660E+03</rscale>
<asrwt>0</asrwt>
<pdfrwt beam="1">  1       21 0.22229234E+00 0.67437660E+03</pdfrwt>
<pdfrwt beam="2">  1       21 0.77693954E-01 0.67437660E+03</pdfrwt>
<totfact> 0.10235502E+02</totfact>
</mgrwt>
</event>
<event>
 4    1  0.4732450E-002  0.5052534E+03  0.7818608E-02  0.1012417E+00
         21   -1    0    0  503  502  0.00000000000E+00  0.00000000000E+00  0.76545928461E+03  0.76545928461E+03  0.00000000000E+00 0.  1.
         21   -1    0    0  501  503 -0.00000000000E+00 -0.00000000000E+00 -0.89459236431E+03  0.89459236431E+03  0.00000000000E+00 0.  1.
    9000007    1    1    2  501    0 -0.29248215533E+03  0.98666797186E+02 -0.72191560656E+03  0.88116008253E+03  0.40000000000E+03 0.  1.
   -9000007    1    1    2    0  502  0.29248215533E+03 -0.98666797186E+02  0.59278252686E+03  0.77889156639E+03  0.40000000000E+03 0.  1.
<mgrwt>
<rscale>  2 0.50525335E+03</rscale>
<asrwt>0</asrwt>
<pdfrwt beam="1">  1       21 0.11776297E+00 0.50525335E+03</pdfrwt>
<pdfrwt beam="2">  1       21 0.13762959E+00 0.50525335E+03</pdfrwt>
<totfact> 0.16382028E+02</totfact>
</mgrwt>
</event>
<event>
 4    1  0.4732450E-002  0.5880632E+03  0.7818608E-02  0.9930485E-01
         21   -1    0    0  503  502  0.00000000000E+00  0.00000000000E+00  0.37653701167E+03  0.37653701167E+03  0.00000000000E+00 0. -1.
         21   -1    0    0  501  503 -0.00000000000E+00 -0.00000000000E+00 -0.96172548689E+03  0.96172548689E+03  0.00000000000E+00 0. -1.
    9000007    1    1    2  501    0 -0.19323182783E+03  0.38533080390E+03 -0.43458734403E+03  0.73122125743E+03  0.40000000000E+03 0. -1.
   -9000007    1    1    2    0  502  0.19323182783E+03 -0.38533080390E+03 -0.15060113119E+03  0.60704124113E+03  0.40000000000E+03 0. -1.
<mgrwt>
<rscale>  2 0.58806323E+03</rscale>
<asrwt>0</asrwt>
<pdfrwt beam="1">  1       21 0.57928771E-01 0.58806323E+03</pdfrwt>
<pdfrwt beam="2">  1       21 0.14795777E+00 0.58806323E+03</pdfrwt>
<totfact> 0.68923064E+02</totfact>
</mgrwt>
</event>
<event>
 4    1  0.4732450E-002  0.4400868E+03  0.7818608E-02  0.1030720E+00
         21   -1    0    0  501  502  0.00000000000E+00  0.00000000000E+00  0.41319158632E+03  0.41319158632E+03  0.00000000000E+00 0.  1.
         21   -1    0    0  502  503 -0.00000000000E+00 -0.00000000000E+00 -0.46985931677E+03  0.46985931677E+03  0.00000000000E+00 0.  1.
    9000007    1    1    2  501    0 -0.20176798530E+02 -0.18239874544E+03 -0.67135999942E+01  0.44013802149E+03  0.40000000000E+03 0.  1.
   -9000007    1    1    2    0  503  0.20176798530E+02  0.18239874544E+03 -0.49954130451E+02  0.44291288160E+03  0.40000000000E+03 0.  1.
<mgrwt>
<rscale>  2 0.44008682E+03</rscale>
<asrwt>0</asrwt>
<pdfrwt beam="1">  1       21 0.63567936E-01 0.44008682E+03</pdfrwt>
<pdfrwt beam="2">  1       21 0.72286049E-01 0.44008682E+03</pdfrwt>
<totfact> 0.34601007E+03</totfact>
</mgrwt>
</event>
<event>
 4    1  0.4732450E-002  0.4153793E+03  0.7818608E-02  0.1038581E+00
         21   -1    0    0  501  502  0.00000000000E+00  0.00000000000E+00  0.16668347535E+03  0.16668347535E+03  0.00000000000E+00 0.  1.
         21   -1    0    0  502  503 -0.00000000000E+00 -0.00000000000E+00 -0.22523276181E+04  0.22523276181E+04  0.00000000000E+00 0.  1.
    9000007    1    1    2  501    0 -0.10764242307E+03  0.30872429346E+02 -0.15367903332E+03  0.44289642516E+03  0.40000000000E+03 0.  1.
   -9000007    1    1    2    0  503  0.10764242307E+03 -0.30872429346E+02 -0.19319651095E+04  0.19761146683E+04  0.40000000000E+03 0.  1.
<mgrwt>
<rscale>  2 0.41537934E+03</rscale>
<asrwt>0</asrwt>
<pdfrwt beam="1">  1       21 0.25643612E-01 0.41537934E+03</pdfrwt>
<pdfrwt beam="2">  1       21 0.34651194E+00 0.41537934E+03</pdfrwt>
<totfact> 0.20916322E+02</totfact>
</mgrwt>
</event>
<event>
 4    1  0.4732450E-002  0.4007658E+03  0.7818608E-02  0.1043515E+00
         21   -1    0    0  501  502  0.00000000000E+00  0.00000000000E+00  0.33806305568E+03  0.33806305568E+03  0.00000000000E+00 0. -1.
         21   -1    0    0  502  503 -0.00000000000E+00 -0.00000000000E+00 -0.77239110058E+03  0.77239110058E+03  0.00000000000E+00 0. -1.
    9000007    1    1    2  501    0  0.22735966789E+02 -0.98132382673E+01  0.12730019585E+03  0.42049799487E+03  0.40000000000E+03 0. -1.
   -9000007    1    1    2    0  503 -0.22735966789E+02  0.98132382673E+01 -0.56162824075E+03  0.68995616139E+03  0.40000000000E+03 0. -1.
<mgrwt>
<rscale>  2 0.40076580E+03</rscale>
<asrwt>0</asrwt>
<pdfrwt beam="1">  1       21 0.52009702E-01 0.40076580E+03</pdfrwt>
<pdfrwt beam="2">  1       21 0.11882940E+00 0.40076580E+03</pdfrwt>
<totfact> 0.16612785E+03</totfact>
</mgrwt>
</event>
<event>
 4    1  0.4732450E-002  0.4008763E+03  0.7818608E-02  0.1043477E+00
         21   -1    0    0  503  502  0.00000000000E+00  0.00000000000E+00  0.15178079447E+04  0.15178079447E+04  0.00000000000E+00 0. -1.
         21   -1    0    0  501  503 -0.00000000000E+00 -0.00000000000E+00 -0.22243382822E+03  0.22243382822E+03  0.00000000000E+00 0. -1.
    9000007    1    1    2  501    0  0.56396646547E+01 -0.25883659412E+02  0.17822702840E+02  0.40127224970E+03  0.40000000000E+03 0. -1.
   -9000007    1    1    2    0  502 -0.56396646547E+01  0.25883659412E+02  0.12775514136E+04  0.13389695232E+04  0.40000000000E+03 0. -1.
<mgrwt>
<rscale>  2 0.40087625E+03</rscale>
<asrwt>0</asrwt>
<pdfrwt beam="1">  1       21 0.23350891E+00 0.40087625E+03</pdfrwt>
<pdfrwt beam="2">  1       21 0.34220590E-01 0.40087625E+03</pdfrwt>
<totfact> 0.57501433E+02</totfact>
</mgrwt>
</event>
<event>
 4    1  0.4732450E-002  0.4861708E+03  0.7818608E-02  0.1017453E+00
         21   -1    0    0  501  502  0.00000000000E+00  0.00000000000E+00  0.26605083389E+03  0.26605083389E+03  0.00000000000E+00 0.  1.
         21   -1    0    0  502  503 -0.00000000000E+00 -0.00000000000E+00 -0.88865109364E+03  0.88865109364E+03  0.00000000000E+00 0. -1.
    9000007    1    1    2  501    0 -0.25811183300E+02 -0.27512873683E+03 -0.32082334267E+03  0.58248575623E+03  0.40000000000E+03 0.  1.
   -9000007    1    1    2    0  503  0.25811183300E+02  0.27512873683E+03 -0.30177691708E+03  0.57221617130E+03  0.40000000000E+03 0. -1.
<mgrwt>
<rscale>  2 0.48617079E+03</rscale>
<asrwt>0</asrwt>
<pdfrwt beam="1">  1       21 0.40930898E-01 0.48617079E+03</pdfrwt>
<pdfrwt beam="2">  1       21 0.13671555E+00 0.48617079E+03</pdfrwt>
<totfact> 0.18493763E+03</totfact>
</mgrwt>
</event>
<event>
 4    1  0.4732450E-002  0.4913880E+03  0.7818608E-02  0.1016052E+00
         21   -1    0    0  503  502  0.00000000000E+00  0.00000000000E+00  0.13501799144E+04  0.13501799144E+04  0.00000000000E+00 0. -1.
         21   -1    0    0  501  503 -0.00000000000E+00 -0.00000000000E+00 -0.43934646374E+03  0.43934646374E+03  0.00000000000E+00 0. -1.
    9000007    1    1    2  501    0 -0.89833933916E+02  0.27090967416E+03 -0.23357856839E+03  0.54407824331E+03  0.40000000000E+03 0. -1.
   -9000007    1    1    2    0  502  0.89833933916E+02 -0.27090967416E+03  0.11444120191E+04  0.12454481349E+04  0.40000000000E+03 0. -1.
<mgrwt>
<rscale>  2 0.49138802E+03</rscale>
<asrwt>0</asrwt>
<pdfrwt beam="1">  1       21 0.20771998E+00 0.49138802E+03</pdfrwt>
<pdfrwt beam="2">  1       21 0.67591764E-01 0.49138802E+03</pdfrwt>
<totfact> 0.18929047E+02</totfact>
</mgrwt>
</event>
<event>
 4    1  0.4732450E-002  0.5295030E+03  0.7818608E-02  0.1006353E+00
         21   -1    0    0  501  502  0.00000000000E+00  0.00000000000E+00  0.15989737994E+04  0.15989737994E+04  0.00000000000E+00 0. -1.
         21   -1    0    0  502  503 -0.00000000000E+00 -0.00000000000E+00 -0.21294582570E+03  0.21294582570E+03  0.00000000000E+00 0.  1.
    9000007    1    1    2  501    0 -0.27239675211E+03 -0.21487999042E+03  0.31232683566E+03  0.61475316438E+03  0.40000000000E+03 0.  1.
   -9000007    1    1    2    0  503  0.27239675211E+03  0.21487999042E+03  0.10737011381E+04  0.11971664608E+04  0.40000000000E+03 0. -1.
<mgrwt>
<rscale>  2 0.52950298E+03</rscale>
<asrwt>0</asrwt>
<pdfrwt beam="1">  1       21 0.24599596E+00 0.52950298E+03</pdfrwt>
<pdfrwt beam="2">  1       21 0.32760897E-01 0.52950298E+03</pdfrwt>
<totfact> 0.49210253E+02</totfact>
</mgrwt>
</event>
<event>
 4    1  0.4732450E-002  0.5719458E+03  0.7818608E-02  0.9965382E-01
         21   -1    0    0  503  502  0.00000000000E+00  0.00000000000E+00  0.45062269359E+03  0.45062269359E+03  0.00000000000E+00 0. -1.
         21   -1    0    0  501  503 -0.00000000000E+00 -0.00000000000E+00 -0.98762766429E+03  0.98762766429E+03  0.00000000000E+00 0. -1.
    9000007    1    1    2  501    0 -0.29217903803E+03 -0.28592556706E+03 -0.63867575483E+03  0.85733817130E+03  0.40000000000E+03 0. -1.
   -9000007    1    1    2    0  502  0.29217903803E+03  0.28592556706E+03  0.10167078413E+03  0.58091218657E+03  0.40000000000E+03 0. -1.
<mgrwt>
<rscale>  2 0.57194582E+03</rscale>
<asrwt>0</asrwt>
<pdfrwt beam="1">  1       21 0.69326569E-01 0.57194582E+03</pdfrwt>
<pdfrwt beam="2">  1       21 0.15194272E+00 0.57194582E+03</pdfrwt>
<totfact> 0.43215594E+02</totfact>
</mgrwt>
</event>
<event>
 4    1  0.4732450E-002  0.4313401E+03  0.7818608E-02  0.1033437E+00
         21   -1    0    0  503  502  0.00000000000E+00  0.00000000000E+00  0.12498780519E+03  0.12498780519E+03  0.00000000000E+00 0. -1.
         21   -1    0    0  501  503 -0.00000000000E+00 -0.00000000000E+00 -0.32949547615E+04  0.32949547615E+04  0.00000000000E+00 0. -1.
    9000007    1    1    2  501    0 -0.14554331255E+03  0.69795888428E+02 -0.28510835735E+04  0.28835276772E+04  0.40000000000E+03 0. -1.
   -9000007    1    1    2    0  502  0.14554331255E+03 -0.69795888428E+02 -0.31888338281E+03  0.53641488952E+03  0.40000000000E+03 0. -1.
<mgrwt>
<rscale>  2 0.43134015E+03</rscale>
<asrwt>0</asrwt>
<pdfrwt beam="1">  1       21 0.19228893E-01 0.43134015E+03</pdfrwt>
<pdfrwt beam="2">  1       21 0.50691613E+00 0.43134015E+03</pdfrwt>
<totfact> 0.31320032E+01</totfact>
</mgrwt>
</event>
<event>
 4    1  0.4732450E-002  0.4765037E+03  0.7818608E-02  0.1020100E+00
         21   -1    0    0  503  502  0.00000000000E+00  0.00000000000E+00  0.14968783738E+04  0.14968783738E+04  0.00000000000E+00 0. -1.
         21   -1    0    0  501  503 -0.00000000000E+00 -0.00000000000E+00 -0.15303978848E+03  0.15303978848E+03  0.00000000000E+00 0. -1.
    9000007    1    1    2  501    0  0.63502407743E+02 -0.25104428232E+03  0.74950363463E+03  0.88815059860E+03  0.40000000000E+03 0. -1.
   -9000007    1    1    2    0  502 -0.63502407743E+02  0.25104428232E+03  0.59433495074E+03  0.76176756372E+03  0.40000000000E+03 0. -1.
<mgrwt>
<rscale>  2 0.47650371E+03</rscale>
<asrwt>0</asrwt>
<pdfrwt beam="1">  1       21 0.23028897E+00 0.47650371E+03</pdfrwt>
<pdfrwt beam="2">  1       21 0.23544584E-01 0.47650371E+03</pdfrwt>
<totfact> 0.12125289E+03</totfact>
</mgrwt>
</event>
<event>
 4    1  0.4732450E-002  0.4769277E+03  0.7818608E-02  0.1019983E+00
         21   -1    0    0  501  502  0.00000000000E+00  0.00000000000E+00  0.14843946804E+04  0.14843946804E+04  0.00000000000E+00 0. -1.
         21   -1    0    0  502  503 -0.00000000000E+00 -0.00000000000E+00 -0.17348468358E+03  0.17348468358E+03  0.00000000000E+00 0.  1.
    9000007    1    1    2  501    0  0.17906861106E+03  0.18813405915E+03  0.93866614795E+03  0.10528789717E+04  0.40000000000E+03 0. -1.
   -9000007    1    1    2    0  503 -0.17906861106E+03 -0.18813405915E+03  0.37224384889E+03  0.60500039232E+03  0.40000000000E+03 0.  1.
<mgrwt>
<rscale>  2 0.47692766E+03</rscale>
<asrwt>0</asrwt>
<pdfrwt beam="1">  1       21 0.22836840E+00 0.47692766E+03</pdfrwt>
<pdfrwt beam="2">  1       21 0.26689952E-01 0.47692766E+03</pdfrwt>
<totfact> 0.97638344E+02</totfact>
</mgrwt>
</event>
<event>
 4    1  0.4732450E-002  0.4156304E+03  0.7818608E-02  0.1038498E+00
         21   -1    0    0  501  502  0.00000000000E+00  0.00000000000E+00  0.80558296480E+03  0.80558296480E+03  0.00000000000E+00 0.  1.
         21   -1    0    0  502  503 -0.00000000000E+00 -0.00000000000E+00 -0.59656284814E+03  0.59656284814E+03  0.00000000000E+00 0.  1.
    9000007    1    1    2  501    0 -0.15872399528E+02  0.11178871612E+03  0.66560581030E+03  0.78471634673E+03  0.40000000000E+03 0.  1.
   -9000007    1    1    2    0  503  0.15872399528E+02 -0.11178871612E+03 -0.45658569364E+03  0.61742946622E+03  0.40000000000E+03 0.  1.
<mgrwt>
<rscale>  2 0.41563042E+03</rscale>
<asrwt>0</asrwt>
<pdfrwt beam="1">  1       21 0.12393584E+00 0.41563042E+03</pdfrwt>
<pdfrwt beam="2">  1       21 0.91778899E-01 0.41563042E+03</pdfrwt>
<totfact> 0.41392165E+02</totfact>
</mgrwt>
</event>
<event>
 4    1  0.4732450E-002  0.8189592E+03  0.7818608E-02  0.9532973E-01
         21   -1    0    0  501  502  0.00000000000E+00  0.00000000000E+00  0.79278361628E+03  0.79278361628E+03  0.00000000000E+00 0. -1.
         21   -1    0    0  502  503 -0.00000000000E+00 -0.00000000000E+00 -0.86956841768E+03  0.86956841768E+03  0.00000000000E+00 0. -1.
    9000007    1    1    2  501    0  0.18375787364E+03 -0.69059921629E+03 -0.17523286490E+03  0.83749674066E+03  0.40000000000E+03 0. -1.
   -9000007    1    1    2    0  503 -0.18375787364E+03  0.69059921629E+03  0.98448063507E+02  0.82485529330E+03  0.40000000000E+03 0. -1.
<mgrwt>
<rscale>  2 0.81895924E+03</rscale>
<asrwt>0</asrwt>
<pdfrwt beam="1">  1       21 0.12196671E+00 0.81895924E+03</pdfrwt>
<pdfrwt beam="2">  1       21 0.13377976E+00 0.81895924E+03</pdfrwt>
<totfact> 0.14457822E+02</totfact>
</mgrwt>
</event>
<event>
 4    1  0.4732450E-002  0.4171419E+03  0.7818608E-02  0.1038001E+00
         21   -1    0    0  503  502  0.00000000000E+00  0.00000000000E+00  0.53958149709E+03  0.53958149709E+03  0.00000000000E+00 0.  1.
         21   -1    0    0  501  503 -0.00000000000E+00 -0.00000000000E+00 -0.78928187626E+03  0.78928187626E+03  0.00000000000E+00 0.  1.
    9000007    1    1    2  501    0  0.11821386950E+03  0.57296428916E+01 -0.63582311460E+03  0.76044617220E+03  0.40000000000E+03 0.  1.
   -9000007    1    1    2    0  502 -0.11821386950E+03 -0.57296428916E+01  0.38612273543E+03  0.56841720115E+03  0.40000000000E+03 0.  1.
<mgrwt>
<rscale>  2 0.41714188E+03</rscale>
<asrwt>0</asrwt>
<pdfrwt beam="1">  1       21 0.83012538E-01 0.41714188E+03</pdfrwt>
<pdfrwt beam="2">  1       21 0.12142798E+00 0.41714188E+03</pdfrwt>
<totfact> 0.55166844E+02</totfact>
</mgrwt>
</event>
<event>
 4    1  0.4732450E-002  0.7037424E+03  0.7818608E-02  0.9710854E-01
         21   -1    0    0  503  502  0.00000000000E+00  0.00000000000E+00  0.24913683926E+03  0.24913683926E+03  0.00000000000E+00 0.  1.
         21   -1    0    0  501  503 -0.00000000000E+00 -0.00000000000E+00 -0.20061496216E+04  0.20061496216E+04  0.00000000000E+00 0. -1.
    9000007    1    1    2  501    0 -0.56213286770E+03 -0.13878033271E+03 -0.77088640868E+03  0.10438003625E+04  0.40000000000E+03 0. -1.
   -9000007    1    1    2    0  502  0.56213286770E+03  0.13878033271E+03 -0.98612637369E+03  0.12114860984E+04  0.40000000000E+03 0. -1.
<mgrwt>
<rscale>  2 0.70374238E+03</rscale>
<asrwt>0</asrwt>
<pdfrwt beam="1">  1       21 0.38328742E-01 0.70374238E+03</pdfrwt>
<pdfrwt beam="2">  1       21 0.30863842E+00 0.70374238E+03</pdfrwt>
<totfact> 0.13718557E+02</totfact>
</mgrwt>
</event>
<event>
 4    1  0.4732450E-002  0.4985742E+03  0.7818608E-02  0.1014152E+00
         21   -1    0    0  501  502  0.00000000000E+00  0.00000000000E+00  0.18931271352E+03  0.18931271352E+03  0.00000000000E+00 0.  1.
         21   -1    0    0  502  503 -0.00000000000E+00 -0.00000000000E+00 -0.16392167498E+04  0.16392167498E+04  0.00000000000E+00 0.  1.
    9000007    1    1    2  501    0  0.29257909924E+03 -0.54531963779E+02 -0.31712460846E+03  0.59088432174E+03  0.40000000000E+03 0.  1.
   -9000007    1    1    2    0  503 -0.29257909924E+03  0.54531963779E+02 -0.11327794278E+04  0.12376451416E+04  0.40000000000E+03 0.  1.
<mgrwt>
<rscale>  2 0.49857423E+03</rscale>
<asrwt>0</asrwt>
<pdfrwt beam="1">  1       21 0.29125032E-01 0.49857423E+03</pdfrwt>
<pdfrwt beam="2">  1       21 0.25218720E+00 0.49857423E+03</pdfrwt>
<totfact> 0.57797956E+02</totfact>
</mgrwt>
</event>
<event>
 4    1  0.4732450E-002  0.5412716E+03  0.7818608E-02  0.1003535E+00
         21   -1    0    0  501  502  0.00000000000E+00  0.00000000000E+00  0.10675317138E+04  0.10675317138E+04  0.00000000000E+00 0. -1.
         21   -1    0    0  502  503 -0.00000000000E+00 -0.00000000000E+00 -0.28286795017E+03  0.28286795017E+03  0.00000000000E+00 0.  1.
    9000007    1    1    2  501    0  0.32546308326E+03  0.16446496503E+03  0.50886899840E+03  0.74291493512E+03  0.40000000000E+03 0. -1.
   -9000007    1    1    2    0  503 -0.32546308326E+03 -0.16446496503E+03  0.27579476526E+03  0.60748472889E+03  0.40000000000E+03 0.  1.
<mgrwt>
<rscale>  2 0.54127160E+03</rscale>
<asrwt>0</asrwt>
<pdfrwt beam="1">  1       21 0.16423565E+00 0.54127160E+03</pdfrwt>
<pdfrwt beam="2">  1       21 0.43518147E-01 0.54127160E+03</pdfrwt>
<totfact> 0.96676113E+02</totfact>
</mgrwt>
</event>
<event>
 4    1  0.4732450E-002  0.6098757E+03  0.7818608E-02  0.9885126E-01
         21   -1    0    0  501  502  0.00000000000E+00  0.00000000000E+00  0.40375431393E+03  0.40375431393E+03  0.00000000000E+00 0.  1.
         21   -1    0    0  502  503 -0.00000000000E+00 -0.00000000000E+00 -0.10026582029E+04  0.10026582029E+04  0.00000000000E+00 0. -1.
    9000007    1    1    2  501    0  0.15085669977E+03 -0.43496055602E+03 -0.99047224473E+02  0.61786631388E+03  0.40000000000E+03 0.  1.
   -9000007    1    1    2    0  503 -0.15085669977E+03  0.43496055602E+03 -0.49985666454E+03  0.78854620299E+03  0.40000000000E+03 0. -1.
<mgrwt>
<rscale>  2 0.60987575E+03</rscale>
<asrwt>0</asrwt>
<pdfrwt beam="1">  1       21 0.62116049E-01 0.60987575E+03</pdfrwt>
<pdfrwt beam="2">  1       21 0.15425511E+00 0.60987575E+03</pdfrwt>
<totfact> 0.52316978E+02</totfact>
</mgrwt>
</event>
<event>
 4    1  0.4732450E-002  0.5127998E+03  0.7818608E-02  0.1010491E+00
         21   -1    0    0  503  502  0.00000000000E+00  0.00000000000E+00  0.97996284384E+02  0.97996284384E+02  0.00000000000E+00 0.  1.
         21   -1    0    0  501  503 -0.00000000000E+00 -0.00000000000E+00 -0.27336909384E+04  0.27336909384E+04  0.00000000000E+00 0.  1.
    9000007    1    1    2  501    0  0.34095982398E+02  0.31906280739E+03 -0.11258175241E+04  0.12371049707E+04  0.40000000000E+03 0.  1.
   -9000007    1    1    2    0  502 -0.34095982398E+02 -0.31906280739E+03 -0.15098771299E+04  0.15945822521E+04  0.40000000000E+03 0.  1.
<mgrwt>
<rscale>  2 0.51279978E+03</rscale>
<asrwt>0</asrwt>
<pdfrwt beam="1">  1       21 0.15076350E-01 0.51279978E+03</pdfrwt>
<pdfrwt beam="2">  1       21 0.42056787E+00 0.51279978E+03</pdfrwt>
<totfact> 0.18349502E+02</totfact>
</mgrwt>
</event>
<event>
 4    1  0.4732450E-002  0.4243269E+03  0.7818608E-02  0.1035667E+00
         21   -1    0    0  501  502  0.00000000000E+00  0.00000000000E+00  0.38611609008E+03  0.38611609008E+03  0.00000000000E+00 0.  1.
         21   -1    0    0  502  503 -0.00000000000E+00 -0.00000000000E+00 -0.57830338385E+03  0.57830338385E+03  0.00000000000E+00 0.  1.
    9000007    1    1    2  501    0 -0.11969690328E+03 -0.75670161139E+02  0.11610205136E+03  0.43992386645E+03  0.40000000000E+03 0.  1.
   -9000007    1    1    2    0  503  0.11969690328E+03  0.75670161139E+02 -0.30828934513E+03  0.52449560748E+03  0.40000000000E+03 0.  1.
<mgrwt>
<rscale>  2 0.42432690E+03</rscale>
<asrwt>0</asrwt>
<pdfrwt beam="1">  1       21 0.59402475E-01 0.42432690E+03</pdfrwt>
<pdfrwt beam="2">  1       21 0.88969751E-01 0.42432690E+03</pdfrwt>
<totfact> 0.25002943E+03</totfact>
</mgrwt>
</event>
<event>
 4    1  0.4732450E-002  0.4214132E+03  0.7818608E-02  0.1036607E+00
         21   -1    0    0  501  502  0.00000000000E+00  0.00000000000E+00  0.64018013769E+03  0.64018013769E+03  0.00000000000E+00 0.  1.
         21   -1    0    0  502  503 -0.00000000000E+00 -0.00000000000E+00 -0.27742991744E+03  0.27742991744E+03  0.00000000000E+00 0.  1.
    9000007    1    1    2  501    0  0.60927851919E+02  0.11780001532E+03  0.18574016173E+03  0.46053062268E+03  0.40000000000E+03 0. -1.
   -9000007    1    1    2    0  503 -0.60927851919E+02 -0.11780001532E+03  0.17701005852E+03  0.45707943245E+03  0.40000000000E+03 0. -1.
<mgrwt>
<rscale>  2 0.42141315E+03</rscale>
<asrwt>0</asrwt>
<pdfrwt beam="1">  1       21 0.98489251E-01 0.42141315E+03</pdfrwt>
<pdfrwt beam="2">  1       21 0.42681526E-01 0.42141315E+03</pdfrwt>
<totfact> 0.39686723E+03</totfact>
</mgrwt>
</event>
<event>
 4    1  0.4732450E-002  0.6578766E+03  0.7818608E-02  0.9792111E-01
         21   -1    0    0  503  502  0.00000000000E+00  0.00000000000E+00  0.99207938019E+03  0.99207938019E+03  0.00000000000E+00 0. -1.
         21   -1    0    0  501  503 -0.00000000000E+00 -0.00000000000E+00 -0.48363079409E+03  0.48363079409E+03  0.00000000000E+00 0.  1.
    9000007    1    1    2  501    0 -0.50923582006E+03  0.11610554978E+03  0.48515568818E+03  0.81742134845E+03  0.40000000000E+03 0. -1.
   -9000007    1    1    2    0  502  0.50923582006E+03 -0.11610554978E+03  0.23292897917E+02  0.65828882583E+03  0.40000000000E+03 0. -1.
<mgrwt>
<rscale>  2 0.65787660E+03</rscale>
<asrwt>0</asrwt>
<pdfrwt beam="1">  1       21 0.15262760E+00 0.65787660E+03</pdfrwt>
<pdfrwt beam="2">  1       21 0.74404738E-01 0.65787660E+03</pdfrwt>
<totfact> 0.35289754E+02</totfact>
</mgrwt>
</event>
<event>
 4    1  0.4732450E-002  0.4266220E+03  0.7818608E-02  0.1034932E+00
         21   -1    0    0  503  502  0.00000000000E+00  0.00000000000E+00  0.35623708216E+03  0.35623708216E+03  0.00000000000E+00 0.  1.
         21   -1    0    0  501  503 -0.00000000000E+00 -0.00000000000E+00 -0.61874252395E+03  0.61874252395E+03  0.00000000000E+00 0.  1.
    9000007    1    1    2  501    0 -0.56681245600E+02 -0.13708956622E+03 -0.33475932783E+03  0.54228232531E+03  0.40000000000E+03 0.  1.
   -9000007    1    1    2    0  502  0.56681245600E+02  0.13708956622E+03  0.72253886049E+02  0.43269728081E+03  0.40000000000E+03 0.  1.
<mgrwt>
<rscale>  2 0.42662198E+03</rscale>
<asrwt>0</asrwt>
<pdfrwt beam="1">  1       21 0.54805706E-01 0.42662198E+03</pdfrwt>
<pdfrwt beam="2">  1       21 0.95191156E-01 0.42662198E+03</pdfrwt>
<totfact> 0.25336126E+03</totfact>
</mgrwt>
</event>
<event>
 4    1  0.4732450E-002  0.5523642E+03  0.7818608E-02  0.1000948E+00
         21   -1    0    0  501  502  0.00000000000E+00  0.00000000000E+00  0.12549125791E+04  0.12549125791E+04  0.00000000000E+00 0. -1.
         21   -1    0    0  502  503 -0.00000000000E+00 -0.00000000000E+00 -0.46771086117E+03  0.46771086117E+03  0.00000000000E+00 0. -1.
    9000007    1    1    2  501    0 -0.12170019976E+03 -0.36096438617E+03  0.99044167547E+03  0.11340550865E+04  0.40000000000E+03 0. -1.
   -9000007    1    1    2    0  503  0.12170019976E+03  0.36096438617E+03 -0.20323995755E+03  0.58856835376E+03  0.40000000000E+03 0. -1.
<mgrwt>
<rscale>  2 0.55236422E+03</rscale>
<asrwt>0</asrwt>
<pdfrwt beam="1">  1       21 0.19306347E+00 0.55236422E+03</pdfrwt>
<pdfrwt beam="2">  1       21 0.71955517E-01 0.55236422E+03</pdfrwt>
<totfact> 0.20045217E+02</totfact>
</mgrwt>
</event>
<event>
 4    1  0.4732450E-002  0.5949043E+03  0.7818608E-02  0.9916035E-01
         21   -1    0    0  503  502  0.00000000000E+00  0.00000000000E+00  0.20842414875E+03  0.20842414875E+03  0.00000000000E+00 0. -1.
         21   -1    0    0  501  503 -0.00000000000E+00 -0.00000000000E+00 -0.17116738598E+04  0.17116738598E+04  0.00000000000E+00 0.  1.
    9000007    1    1    2  501    0 -0.25916678034E+03  0.35601076548E+03 -0.83732934377E+03  0.10271472704E+04  0.40000000000E+03 0.  1.
   -9000007    1    1    2    0  502  0.25916678034E+03 -0.35601076548E+03 -0.66592036728E+03  0.89295073813E+03  0.40000000000E+03 0. -1.
<mgrwt>
<rscale>  2 0.59490427E+03</rscale>
<asrwt>0</asrwt>
<pdfrwt beam="1">  1       21 0.32065252E-01 0.59490427E+03</pdfrwt>
<pdfrwt beam="2">  1       21 0.26333445E+00 0.59490427E+03</pdfrwt>
<totfact> 0.39045540E+02</totfact>
</mgrwt>
</event>
<event>
 4    1  0.4732450E-002  0.4485855E+03  0.7818608E-02  0.1028145E+00
         21   -1    0    0  503  502  0.00000000000E+00  0.00000000000E+00  0.19311711490E+04  0.19311711490E+04  0.00000000000E+00 0. -1.
         21   -1    0    0  501  503 -0.00000000000E+00 -0.00000000000E+00 -0.11761302879E+03  0.11761302879E+03  0.00000000000E+00 0. -1.
    9000007    1    1    2  501    0  0.16646003852E+03  0.11627565634E+03  0.12527137029E+04  0.13306091064E+04  0.40000000000E+03 0. -1.
   -9000007    1    1    2    0  502 -0.16646003852E+03 -0.11627565634E+03  0.56084441729E+03  0.71817507133E+03  0.40000000000E+03 0. -1.
<mgrwt>
<rscale>  2 0.44858552E+03</rscale>
<asrwt>0</asrwt>
<pdfrwt beam="1">  1       21 0.29710323E+00 0.44858552E+03</pdfrwt>
<pdfrwt beam="2">  1       21 0.18094314E-01 0.44858552E+03</pdfrwt>
<totfact> 0.79447863E+02</totfact>
</mgrwt>
</event>
<event>
 4    1  0.4732450E-002  0.6643214E+03  0.7818608E-02  0.9780271E-01
         21   -1    0    0  501  502  0.00000000000E+00  0.00000000000E+00  0.77092469440E+03  0.77092469440E+03  0.00000000000E+00 0. -1.
         21   -1    0    0  502  503 -0.00000000000E+00 -0.00000000000E+00 -0.21554559372E+04  0.21554559372E+04  0.00000000000E+00 0. -1.
    9000007    1    1    2  501    0  0.13553197634E+03 -0.51279039461E+03  0.56165850434E+03  0.86993286000E+03  0.40000000000E+03 0. -1.
   -9000007    1    1    2    0  503 -0.13553197634E+03  0.51279039461E+03 -0.19461897472E+04  0.20564477716E+04  0.40000000000E+03 0. -1.
<mgrwt>
<rscale>  2 0.66432139E+03</rscale>
<asrwt>0</asrwt>
<pdfrwt beam="1">  1       21 0.11860380E+00 0.66432139E+03</pdfrwt>
<pdfrwt beam="2">  1       21 0.33160861E+00 0.66432139E+03</pdfrwt>
<totfact> 0.77188915E+00</totfact>
</mgrwt>
</event>
<event>
 4    1  0.4732450E-002  0.4496820E+03  0.7818608E-02  0.1027817E+00
         21   -1    0    0  503  502  0.00000000000E+00  0.00000000000E+00  0.76456346146E+03  0.76456346146E+03  0.00000000000E+00 0. -1.
         21   -1    0    0  501  503 -0.00000000000E+00 -0.00000000000E+00 -0.30098393643E+03  0.30098393643E+03  0.00000000000E+00 0.  1.
    9000007    1    1    2  501    0 -0.10364320641E+03 -0.17740352123E+03  0.46255547291E+02  0.45205475247E+03  0.40000000000E+03 0. -1.
   -9000007    1    1    2    0  502  0.10364320641E+03  0.17740352123E+03  0.41732397774E+03  0.61349264542E+03  0.40000000000E+03 0. -1.
<mgrwt>
<rscale>  2 0.44968202E+03</rscale>
<asrwt>0</asrwt>
<pdfrwt beam="1">  1       21 0.11762515E+00 0.44968202E+03</pdfrwt>
<pdfrwt beam="2">  1       21 0.46305221E-01 0.44968202E+03</pdfrwt>
<totfact> 0.21369297E+03</totfact>
</mgrwt>
</event>
<event>
 4    1  0.4732450E-002  0.4862504E+03  0.7818608E-02  0.1017431E+00
         21   -1    0    0  501  502  0.00000000000E+00  0.00000000000E+00  0.89750069467E+03  0.89750069467E+03  0.00000000000E+00 0. -1.
         21   -1    0    0  502  503 -0.00000000000E+00 -0.00000000000E+00 -0.56155112266E+03  0.56155112266E+03  0.00000000000E+00 0. -1.
    9000007    1    1    2  501    0  0.62318462304E+01  0.27640664021E+03  0.69951194589E+03  0.85191339296E+03  0.40000000000E+03 0. -1.
   -9000007    1    1    2    0  503 -0.62318462304E+01 -0.27640664021E+03 -0.36356237388E+03  0.60713842438E+03  0.40000000000E+03 0. -1.
<mgrwt>
<rscale>  2 0.48625042E+03</rscale>
<asrwt>0</asrwt>
<pdfrwt beam="1">  1       21 0.13807703E+00 0.48625042E+03</pdfrwt>
<pdfrwt beam="2">  1       21 0.86392481E-01 0.48625042E+03</pdfrwt>
<totfact> 0.34872805E+02</totfact>
</mgrwt>
</event>
<event>
 4    1  0.4732450E-002  0.4573301E+03  0.7818608E-02  0.1025558E+00
         21   -1    0    0  501  502  0.00000000000E+00  0.00000000000E+00  0.19935768521E+03  0.19935768521E+03  0.00000000000E+00 0. -1.
         21   -1    0    0  502  503 -0.00000000000E+00 -0.00000000000E+00 -0.20060743430E+04  0.20060743430E+04  0.00000000000E+00 0.  1.
    9000007    1    1    2  501    0 -0.21009208638E+03 -0.70796296262E+02 -0.14174414918E+03  0.47879244371E+03  0.40000000000E+03 0. -1.
   -9000007    1    1    2    0  503  0.21009208638E+03  0.70796296262E+02 -0.16649725086E+04  0.17266395845E+04  0.40000000000E+03 0.  1.
<mgrwt>
<rscale>  2 0.45733008E+03</rscale>
<asrwt>0</asrwt>
<pdfrwt beam="1">  1       21 0.30670414E-01 0.45733008E+03</pdfrwt>
<pdfrwt beam="2">  1       21 0.30862681E+00 0.45733008E+03</pdfrwt>
<totfact> 0.24259711E+02</totfact>
</mgrwt>
</event>
<event>
 4    1  0.4732450E-002  0.4142280E+03  0.7818608E-02  0.1038961E+00
         21   -1    0    0  503  502  0.00000000000E+00  0.00000000000E+00  0.31921001939E+03  0.31921001939E+03  0.00000000000E+00 0.  1.
         21   -1    0    0  501  503 -0.00000000000E+00 -0.00000000000E+00 -0.57936102086E+03  0.57936102086E+03  0.00000000000E+00 0.  1.
    9000007    1    1    2  501    0 -0.10061169299E+03  0.38237970345E+02 -0.25080092787E+03  0.48423750429E+03  0.40000000000E+03 0.  1.
   -9000007    1    1    2    0  502  0.10061169299E+03 -0.38237970345E+02 -0.93500736078E+01  0.41433353596E+03  0.40000000000E+03 0.  1.
<mgrwt>
<rscale>  2 0.41422802E+03</rscale>
<asrwt>0</asrwt>
<pdfrwt beam="1">  1       21 0.49109234E-01 0.41422802E+03</pdfrwt>
<pdfrwt beam="2">  1       21 0.89132464E-01 0.41422802E+03</pdfrwt>
<totfact> 0.37623607E+03</totfact>
</mgrwt>
</event>
<event>
 4    1  0.4732450E-002  0.4667320E+03  0.7818608E-02  0.1022847E+00
         21   -1    0    0  501  502  0.00000000000E+00  0.00000000000E+00  0.89756213245E+03  0.89756213245E+03  0.00000000000E+00 0.  1.
         21   -1    0    0  502  503 -0.00000000000E+00 -0.00000000000E+00 -0.42434255819E+03  0.42434255819E+03  0.00000000000E+00 0. -1.
    9000007    1    1    2  501    0  0.15768626425E+03  0.18158690805E+03  0.66904403342E+03  0.81575650887E+03  0.40000000000E+03 0.  1.
   -9000007    1    1    2    0  503 -0.15768626425E+03 -0.18158690805E+03 -0.19582445916E+03  0.50614818177E+03  0.40000000000E+03 0. -1.
<mgrwt>
<rscale>  2 0.46673200E+03</rscale>
<asrwt>0</asrwt>
<pdfrwt beam="1">  1       21 0.13808648E+00 0.46673200E+03</pdfrwt>
<pdfrwt beam="2">  1       21 0.65283471E-01 0.46673200E+03</pdfrwt>
<totfact> 0.66725921E+02</totfact>
</mgrwt>
</event>
<event>
 4    1  0.4732450E-002  0.4455369E+03  0.7818608E-02  0.1029061E+00
         21   -1    0    0  503  502  0.00000000000E+00  0.00000000000E+00  0.10803458344E+04  0.10803458344E+04  0.00000000000E+00 0.  1.
         21   -1    0    0  501  503 -0.00000000000E+00 -0.00000000000E+00 -0.30257210799E+03  0.30257210799E+03  0.00000000000E+00 0.  1.
    9000007    1    1    2  501    0 -0.13199980893E+03 -0.14518684270E+03 -0.44442532845E+02  0.44774804028E+03  0.40000000000E+03 0.  1.
   -9000007    1    1    2    0  502  0.13199980893E+03  0.14518684270E+03  0.82221625930E+03  0.93516990216E+03  0.40000000000E+03 0.  1.
<mgrwt>
<rscale>  2 0.44553694E+03</rscale>
<asrwt>0</asrwt>
<pdfrwt beam="1">  1       21 0.16620705E+00 0.44553694E+03</pdfrwt>
<pdfrwt beam="2">  1       21 0.46549556E-01 0.44553694E+03</pdfrwt>
<totfact> 0.84332348E+02</totfact>
</mgrwt>
</event>
<event>
 4    1  0.4732450E-002  0.4215053E+03  0.7818608E-02  0.1036578E+00
         21   -1    0    0  501  502  0.00000000000E+00  0.00000000000E+00  0.15232318731E+04  0.15232318731E+04  0.00000000000E+00 0.  1.
         21   -1    0    0  502  503 -0.00000000000E+00 -0.00000000000E+00 -0.12931715049E+03  0.12931715049E+03  0.00000000000E+00 0.  1.
    9000007    1    1    2  501    0  0.10929212153E+03  0.75643320136E+02  0.95568439866E+03  0.10445091429E+04  0.40000000000E+03 0. -1.
   -9000007    1    1    2    0  503 -0.10929212153E+03 -0.75643320136E+02  0.43823032395E+03  0.60803988071E+03  0.40000000000E+03 0. -1.
<mgrwt>
<rscale>  2 0.42150525E+03</rscale>
<asrwt>0</asrwt>
<pdfrwt beam="1">  1       21 0.23434335E+00 0.42150525E+03</pdfrwt>
<pdfrwt beam="2">  1       21 0.19894947E-01 0.42150525E+03</pdfrwt>
<totfact> 0.16209417E+03</totfact>
</mgrwt>
</event>
<event>
 4    1  0.4732450E-002  0.4637807E+03  0.7818608E-02  0.1023690E+00
         21   -1    0    0  503  502  0.00000000000E+00  0.00000000000E+00  0.18292300879E+03  0.18292300879E+03  0.00000000000E+00 0.  1.
         21   -1    0    0  501  503 -0.00000000000E+00 -0.00000000000E+00 -0.14908598740E+04  0.14908598740E+04  0.00000000000E+00 0. -1.
    9000007    1    1    2  501    0  0.19038903310E+03 -0.13727558021E+03 -0.10386516070E+04  0.11374927383E+04  0.40000000000E+03 0. -1.
   -9000007    1    1    2    0  502 -0.19038903310E+03  0.13727558021E+03 -0.26928525823E+03  0.53629014456E+03  0.40000000000E+03 0.  1.
<mgrwt>
<rscale>  2 0.46378073E+03</rscale>
<asrwt>0</asrwt>
<pdfrwt beam="1">  1       21 0.28142002E-01 0.46378073E+03</pdfrwt>
<pdfrwt beam="2">  1       21 0.22936305E+00 0.46378073E+03</pdfrwt>
<totfact> 0.87241574E+02</totfact>
</mgrwt>
</event>
<event>
 4    1  0.4732450E-002  0.5921956E+03  0.7818608E-02  0.9921731E-01
         21   -1    0    0  503  502  0.00000000000E+00  0.00000000000E+00  0.39302443718E+03  0.39302443718E+03  0.00000000000E+00 0. -1.
         21   -1    0    0  501  503 -0.00000000000E+00 -0.00000000000E+00 -0.10053701927E+04  0.10053701927E+04  0.00000000000E+00 0. -1.
    9000007    1    1    2  501    0  0.46784486652E+02  0.43417375566E+03 -0.71689996013E+02  0.59651914791E+03  0.40000000000E+03 0. -1.
   -9000007    1    1    2    0  502 -0.46784486652E+02 -0.43417375566E+03 -0.54065575949E+03  0.80187548196E+03  0.40000000000E+03 0. -1.
<mgrwt>
<rscale>  2 0.59219561E+03</rscale>
<asrwt>0</asrwt>
<pdfrwt beam="1">  1       21 0.60465298E-01 0.59219561E+03</pdfrwt>
<pdfrwt beam="2">  1       21 0.15467234E+00 0.59219561E+03</pdfrwt>
<totfact> 0.55444641E+02</totfact>
</mgrwt>
</event>
<event>
 4    1  0.4732450E-002  0.5597684E+03  0.7818608E-02  0.9992579E-01
         21   -1    0    0  503  502  0.00000000000E+00  0.00000000000E+00  0.10033720160E+04  0.10033720160E+04  0.00000000000E+00 0.  1.
         21   -1    0    0  501  503 -0.00000000000E+00 -0.00000000000E+00 -0.38829032612E+03  0.38829032612E+03  0.00000000000E+00 0. -1.
    9000007    1    1    2  501    0 -0.25713117288E+03  0.29533747330E+03 -0.30983003830E+00  0.55976848714E+03  0.40000000000E+03 0. -1.
   -9000007    1    1    2    0  502  0.25713117288E+03 -0.29533747330E+03  0.61539151994E+03  0.83189385502E+03  0.40000000000E+03 0.  1.
<mgrwt>
<rscale>  2 0.55976840E+03</rscale>
<asrwt>0</asrwt>
<pdfrwt beam="1">  1       21 0.15436492E+00 0.55976840E+03</pdfrwt>
<pdfrwt beam="2">  1       21 0.59736974E-01 0.55976840E+03</pdfrwt>
<totfact> 0.57922045E+02</totfact>
</mgrwt>
</event>
<event>
 4    1  0.4732450E-002  0.5869594E+03  0.7818608E-02  0.9932837E-01
         21   -1    0    0  503  502  0.00000000000E+00  0.00000000000E+00  0.11009706024E+04  0.11009706024E+04  0.00000000000E+00 0. -1.
         21   -1    0    0  501  503 -0.00000000000E+00 -0.00000000000E+00 -0.31692323403E+03  0.31692323403E+03  0.00000000000E+00 0. -1.
    9000007    1    1    2  501    0  0.44790586175E+02  0.42721786124E+03  0.31239542115E+03  0.66491518010E+03  0.40000000000E+03 0. -1.
   -9000007    1    1    2    0  502 -0.44790586175E+02 -0.42721786124E+03  0.47165194724E+03  0.75297865634E+03  0.40000000000E+03 0. -1.
<mgrwt>
<rscale>  2 0.58695937E+03</rscale>
<asrwt>0</asrwt>
<pdfrwt beam="1">  1       21 0.16938009E+00 0.58695937E+03</pdfrwt>
<pdfrwt beam="2">  1       21 0.48757421E-01 0.58695937E+03</pdfrwt>
<totfact> 0.68527820E+02</totfact>
</mgrwt>
</event>
<event>
 4    1  0.4732450E-002  0.1032825E+04  0.7818608E-02  0.9273258E-01
         21   -1    0    0  503  502  0.00000000000E+00  0.00000000000E+00  0.18112242379E+04  0.18112242379E+04  0.00000000000E+00 0. -1.
         21   -1    0    0  501  503 -0.00000000000E+00 -0.00000000000E+00 -0.59067844931E+03  0.59067844931E+03  0.00000000000E+00 0.  1.
    9000007    1    1    2  501    0  0.49005762569E+03  0.81643813538E+03  0.54538273383E+03  0.11679768969E+04  0.40000000000E+03 0. -1.
   -9000007    1    1    2    0  502 -0.49005762569E+03 -0.81643813538E+03  0.67516305474E+03  0.12339257903E+04  0.40000000000E+03 0.  1.
<mgrwt>
<rscale>  2 0.10328251E+04</rscale>
<asrwt>0</asrwt>
<pdfrwt beam="1">  1       21 0.27864988E+00 0.10328251E+04</pdfrwt>
<pdfrwt beam="2">  1       21 0.90873608E-01 0.10328251E+04</pdfrwt>
<totfact> 0.27714207E+01</totfact>
</mgrwt>
</event>
<event>
 4    1  0.4732450E-002  0.4051356E+03  0.7818608E-02  0.1042016E+00
         21   -1    0    0  501  502  0.00000000000E+00  0.00000000000E+00  0.14841725006E+04  0.14841725006E+04  0.00000000000E+00 0. -1.
         21   -1    0    0  502  503 -0.00000000000E+00 -0.00000000000E+00 -0.12663188406E+03  0.12663188406E+03  0.00000000000E+00 0. -1.
    9000007    1    1    2  501    0 -0.96259737495E+01 -0.63578164484E+02  0.96543030093E+03  0.10469911692E+04  0.40000000000E+03 0. -1.
   -9000007    1    1    2    0  503  0.96259737495E+01  0.63578164484E+02  0.39211031565E+03  0.56381321553E+03  0.40000000000E+03 0. -1.
<mgrwt>
<rscale>  2 0.40513559E+03</rscale>
<asrwt>0</asrwt>
<pdfrwt beam="1">  1       21 0.22833422E+00 0.40513559E+03</pdfrwt>
<pdfrwt beam="2">  1       21 0.19481829E-01 0.40513559E+03</pdfrwt>
<totfact> 0.18544765E+03</totfact>
</mgrwt>
</event>
<event>
 4    1  0.4732450E-002  0.5274569E+03  0.7818608E-02  0.1006851E+00
         21   -1    0    0  501  502  0.00000000000E+00  0.00000000000E+00  0.74463013775E+03  0.74463013775E+03  0.00000000000E+00 0. -1.
         21   -1    0    0  502  503 -0.00000000000E+00 -0.00000000000E+00 -0.37784477390E+03  0.37784477390E+03  0.00000000000E+00 0.  1.
    9000007    1    1    2  501    0 -0.31540975318E+02 -0.34236822190E+03  0.12406665565E+03  0.54185179481E+03  0.40000000000E+03 0.  1.
   -9000007    1    1    2    0  503  0.31540975318E+02  0.34236822190E+03  0.24271870821E+03  0.58062311684E+03  0.40000000000E+03 0.  1.
<mgrwt>
<rscale>  2 0.52745695E+03</rscale>
<asrwt>0</asrwt>
<pdfrwt beam="1">  1       21 0.11455848E+00 0.52745695E+03</pdfrwt>
<pdfrwt beam="2">  1       21 0.58129966E-01 0.52745695E+03</pdfrwt>
<totfact> 0.13639564E+03</totfact>
</mgrwt>
</event>
<event>
 4    1  0.4732450E-002  0.4204711E+03  0.7818608E-02  0.1036913E+00
         21   -1    0    0  503  502  0.00000000000E+00  0.00000000000E+00  0.78365899514E+03  0.78365899514E+03  0.00000000000E+00 0. -1.
         21   -1    0    0  501  503 -0.00000000000E+00 -0.00000000000E+00 -0.23302567705E+03  0.23302567705E+03  0.00000000000E+00 0. -1.
    9000007    1    1    2  501    0 -0.99246197066E-01 -0.12959922837E+03  0.18459121752E+03  0.45920571363E+03  0.40000000000E+03 0. -1.
   -9000007    1    1    2    0  502  0.99246197066E-01  0.12959922837E+03  0.36604210057E+03  0.55747895856E+03  0.40000000000E+03 0. -1.
<mgrwt>
<rscale>  2 0.42047113E+03</rscale>
<asrwt>0</asrwt>
<pdfrwt beam="1">  1       21 0.12056292E+00 0.42047113E+03</pdfrwt>
<pdfrwt beam="2">  1       21 0.35850104E-01 0.42047113E+03</pdfrwt>
<totfact> 0.34426120E+03</totfact>
</mgrwt>
</event>
<event>
 4    1  0.4732450E-002  0.4226961E+03  0.7818608E-02  0.1036192E+00
         21   -1    0    0  501  502  0.00000000000E+00  0.00000000000E+00  0.39970623244E+03  0.39970623244E+03  0.00000000000E+00 0. -1.
         21   -1    0    0  502  503 -0.00000000000E+00 -0.00000000000E+00 -0.62984672502E+03  0.62984672502E+03  0.00000000000E+00 0. -1.
    9000007    1    1    2  501    0 -0.66061068985E+02  0.11961588455E+03  0.16228407058E+03  0.45277825062E+03  0.40000000000E+03 0. -1.
   -9000007    1    1    2    0  503  0.66061068985E+02 -0.11961588455E+03 -0.39242456317E+03  0.57677470684E+03  0.40000000000E+03 0. -1.
<mgrwt>
<rscale>  2 0.42269614E+03</rscale>
<asrwt>0</asrwt>
<pdfrwt beam="1">  1       21 0.61493267E-01 0.42269614E+03</pdfrwt>
<pdfrwt beam="2">  1       21 0.96899496E-01 0.42269614E+03</pdfrwt>
<totfact> 0.18925867E+03</totfact>
</mgrwt>
</event>
<event>
 4    1  0.4732450E-002  0.4424261E+03  0.7818608E-02  0.1030005E+00
         21   -1    0    0  501  502  0.00000000000E+00  0.00000000000E+00  0.30185613577E+03  0.30185613577E+03  0.00000000000E+00 0. -1.
         21   -1    0    0  502  503 -0.00000000000E+00 -0.00000000000E+00 -0.84240762911E+03  0.84240762911E+03  0.00000000000E+00 0.  1.
    9000007    1    1    2  501    0 -0.12456063160E+03 -0.14221632001E+03 -0.54479967096E+03  0.70181729396E+03  0.40000000000E+03 0.  1.
   -9000007    1    1    2    0  503  0.12456063160E+03  0.14221632001E+03  0.42481776253E+01  0.44244647092E+03  0.40000000000E+03 0. -1.
<mgrwt>
<rscale>  2 0.44242608E+03</rscale>
<asrwt>0</asrwt>
<pdfrwt beam="1">  1       21 0.46439406E-01 0.44242608E+03</pdfrwt>
<pdfrwt beam="2">  1       21 0.12960117E+00 0.44242608E+03</pdfrwt>
<totfact> 0.16614655E+03</totfact>
</mgrwt>
</event>
<event>
 4    1  0.4732450E-002  0.4263756E+03  0.7818608E-02  0.1035011E+00
         21   -1    0    0  503  502  0.00000000000E+00  0.00000000000E+00  0.35460323235E+03  0.35460323235E+03  0.00000000000E+00 0. -1.
         21   -1    0    0  501  503 -0.00000000000E+00 -0.00000000000E+00 -0.63569687706E+03  0.63569687706E+03  0.00000000000E+00 0. -1.
    9000007    1    1    2  501    0  0.38047043566E+01 -0.14758607350E+03  0.77276010281E+02  0.43332171263E+03  0.40000000000E+03 0. -1.
   -9000007    1    1    2    0  502 -0.38047043566E+01  0.14758607350E+03 -0.35836965499E+03  0.55697839678E+03  0.40000000000E+03 0. -1.
<mgrwt>
<rscale>  2 0.42637557E+03</rscale>
<asrwt>0</asrwt>
<pdfrwt beam="1">  1       21 0.54554344E-01 0.42637557E+03</pdfrwt>
<pdfrwt beam="2">  1       21 0.97799519E-01 0.42637557E+03</pdfrwt>
<totfact> 0.23981848E+03</totfact>
</mgrwt>
</event>
<event>
 4    1  0.4732450E-002  0.4710506E+03  0.7818608E-02  0.1021624E+00
         21   -1    0    0  503  502  0.00000000000E+00  0.00000000000E+00  0.33540808786E+03  0.33540808786E+03  0.00000000000E+00 0.  1.
         21   -1    0    0  501  503 -0.00000000000E+00 -0.00000000000E+00 -0.66304109860E+03  0.66304109860E+03  0.00000000000E+00 0.  1.
    9000007    1    1    2  501    0  0.24393883070E+03  0.48811317943E+02 -0.18750326931E+03  0.50699721289E+03  0.40000000000E+03 0.  1.
   -9000007    1    1    2    0  502 -0.24393883070E+03 -0.48811317943E+02 -0.14012974143E+03  0.49145197356E+03  0.40000000000E+03 0.  1.
<mgrwt>
<rscale>  2 0.47105063E+03</rscale>
<asrwt>0</asrwt>
<pdfrwt beam="1">  1       21 0.51601245E-01 0.47105063E+03</pdfrwt>
<pdfrwt beam="2">  1       21 0.10200632E+00 0.47105063E+03</pdfrwt>
<totfact> 0.23996031E+03</totfact>
</mgrwt>
</event>
<event>
 4    1  0.4732450E-002  0.6672241E+03  0.7818608E-02  0.9774986E-01
         21   -1    0    0  503  502  0.00000000000E+00  0.00000000000E+00  0.16097644202E+04  0.16097644202E+04  0.00000000000E+00 0.  1.
         21   -1    0    0  501  503 -0.00000000000E+00 -0.00000000000E+00 -0.33658335143E+03  0.33658335143E+03  0.00000000000E+00 0.  1.
    9000007    1    1    2  501    0  0.46710383111E+03 -0.25884755541E+03  0.22560822017E+03  0.70433451924E+03  0.40000000000E+03 0.  1.
   -9000007    1    1    2    0  502 -0.46710383111E+03  0.25884755541E+03  0.10475728486E+04  0.12420132524E+04  0.40000000000E+03 0.  1.
<mgrwt>
<rscale>  2 0.66722413E+03</rscale>
<asrwt>0</asrwt>
<pdfrwt beam="1">  1       21 0.24765606E+00 0.66722413E+03</pdfrwt>
<pdfrwt beam="2">  1       21 0.51782055E-01 0.66722413E+03</pdfrwt>
<totfact> 0.17519382E+02</totfact>
</mgrwt>
</event>
<event>
 4    1  0.4732450E-002  0.4492511E+03  0.7818608E-02  0.1027946E+00
         21   -1    0    0  503  502  0.00000000000E+00  0.00000000000E+00  0.19508499827E+04  0.19508499827E+04  0.00000000000E+00 0.  1.
         21   -1    0    0  501  503 -0.00000000000E+00 -0.00000000000E+00 -0.11445019824E+03  0.11445019824E+03  0.00000000000E+00 0.  1.
    9000007    1    1    2  501    0  0.16067725729E+03 -0.12652824673E+03  0.12382605841E+04  0.13172379635E+04  0.40000000000E+03 0.  1.
   -9000007    1    1    2    0  502 -0.16067725729E+03  0.12652824673E+03  0.59813920039E+03  0.74806221752E+03  0.40000000000E+03 0.  1.
<mgrwt>
<rscale>  2 0.44925113E+03</rscale>
<asrwt>0</asrwt>
<pdfrwt beam="1">  1       21 0.30013074E+00 0.44925113E+03</pdfrwt>
<pdfrwt beam="2">  1       21 0.17607724E-01 0.44925113E+03</pdfrwt>
<totfact> 0.80170450E+02</totfact>
</mgrwt>
</event>
<event>
 4    1  0.4732450E-002  0.4391849E+03  0.7818608E-02  0.1030997E+00
         21   -1    0    0  501  502  0.00000000000E+00  0.00000000000E+00  0.15091651397E+03  0.15091651397E+03  0.00000000000E+00 0.  1.
         21   -1    0    0  502  503 -0.00000000000E+00 -0.00000000000E+00 -0.13366964784E+04  0.13366964784E+04  0.00000000000E+00 0. -1.
    9000007    1    1    2  501    0  0.14167833642E+03 -0.11318407944E+03 -0.74864900499E+03  0.86796239522E+03  0.40000000000E+03 0.  1.
   -9000007    1    1    2    0  503 -0.14167833642E+03  0.11318407944E+03 -0.43713095943E+03  0.61965059715E+03  0.40000000000E+03 0.  1.
<mgrwt>
<rscale>  2 0.43918491E+03</rscale>
<asrwt>0</asrwt>
<pdfrwt beam="1">  1       21 0.23217925E-01 0.43918491E+03</pdfrwt>
<pdfrwt beam="2">  1       21 0.20564561E+00 0.43918491E+03</pdfrwt>
<totfact> 0.18243377E+03</totfact>
</mgrwt>
</event>
<event>
 4    1  0.4732450E-002  0.4197011E+03  0.7818608E-02  0.1037164E+00
         21   -1    0    0  501  502  0.00000000000E+00  0.00000000000E+00  0.33140991765E+03  0.33140991765E+03  0.00000000000E+00 0. -1.
         21   -1    0    0  502  503 -0.00000000000E+00 -0.00000000000E+00 -0.63846603202E+03  0.63846603202E+03  0.00000000000E+00 0. -1.
    9000007    1    1    2  501    0  0.32687802758E+02 -0.12280286500E+03  0.44949617093E+02  0.42210129611E+03  0.40000000000E+03 0. -1.
   -9000007    1    1    2    0  503 -0.32687802758E+02  0.12280286500E+03 -0.35200573146E+03  0.54777465356E+03  0.40000000000E+03 0. -1.
<mgrwt>
<rscale>  2 0.41970113E+03</rscale>
<asrwt>0</asrwt>
<pdfrwt beam="1">  1       21 0.50986141E-01 0.41970113E+03</pdfrwt>
<pdfrwt beam="2">  1       21 0.98225544E-01 0.41970113E+03</pdfrwt>
<totfact> 0.27502473E+03</totfact>
</mgrwt>
</event>
<event>
 4    1  0.4732450E-002  0.4289377E+03  0.7818608E-02  0.1034196E+00
         21   -1    0    0  501  502  0.00000000000E+00  0.00000000000E+00  0.63866716427E+03  0.63866716427E+03  0.00000000000E+00 0.  1.
         21   -1    0    0  502  503 -0.00000000000E+00 -0.00000000000E+00 -0.28809238209E+03  0.28809238209E+03  0.00000000000E+00 0. -1.
    9000007    1    1    2  501    0 -0.61054754783E+02  0.14233719891E+03  0.17231252675E+03  0.46225444092E+03  0.40000000000E+03 0. -1.
   -9000007    1    1    2    0  503  0.61054754783E+02 -0.14233719891E+03  0.17826225543E+03  0.46450510544E+03  0.40000000000E+03 0.  1.
<mgrwt>
<rscale>  2 0.42893771E+03</rscale>
<asrwt>0</asrwt>
<pdfrwt beam="1">  1       21 0.98256487E-01 0.42893771E+03</pdfrwt>
<pdfrwt beam="2">  1       21 0.44321905E-01 0.42893771E+03</pdfrwt>
<totfact> 0.36798378E+03</totfact>
</mgrwt>
</event>
<event>
 4    1  0.4732450E-002  0.5345896E+03  0.7818608E-02  0.1005125E+00
         21   -1    0    0  503  502  0.00000000000E+00  0.00000000000E+00  0.29467188903E+03  0.29467188903E+03  0.00000000000E+00 0. -1.
         21   -1    0    0  501  503 -0.00000000000E+00 -0.00000000000E+00 -0.14136334977E+04  0.14136334977E+04  0.00000000000E+00 0.  1.
    9000007    1    1    2  501    0 -0.50015009744E+01  0.35462797275E+03 -0.10380615203E+04  0.11676291080E+04  0.40000000000E+03 0.  1.
   -9000007    1    1    2    0  502  0.50015009744E+01 -0.35462797275E+03 -0.80900088431E+02  0.54067627873E+03  0.40000000000E+03 0. -1.
<mgrwt>
<rscale>  2 0.53458958E+03</rscale>
<asrwt>0</asrwt>
<pdfrwt beam="1">  1       21 0.45334137E-01 0.53458958E+03</pdfrwt>
<pdfrwt beam="2">  1       21 0.21748208E+00 0.53458958E+03</pdfrwt>
<totfact> 0.38131684E+02</totfact>
</mgrwt>
</event>
<event>
 4    1  0.4732450E-002  0.4249292E+03  0.7818608E-02  0.1035474E+00
         21   -1    0    0  501  502  0.00000000000E+00  0.00000000000E+00  0.30499307227E+03  0.30499307227E+03  0.00000000000E+00 0. -1.
         21   -1    0    0  502  503 -0.00000000000E+00 -0.00000000000E+00 -0.59203030956E+03  0.59203030956E+03  0.00000000000E+00 0. -1.
    9000007    1    1    2  501    0 -0.11659252110E+03 -0.83492653636E+02 -0.14293684865E+03  0.44832553116E+03  0.40000000000E+03 0. -1.
   -9000007    1    1    2    0  503  0.11659252110E+03  0.83492653636E+02 -0.14410038865E+03  0.44869785067E+03  0.40000000000E+03 0. -1.
<mgrwt>
<rscale>  2 0.42492922E+03</rscale>
<asrwt>0</asrwt>
<pdfrwt beam="1">  1       21 0.46922012E-01 0.42492922E+03</pdfrwt>
<pdfrwt beam="2">  1       21 0.91081585E-01 0.42492922E+03</pdfrwt>
<totfact> 0.39202202E+03</totfact>
</mgrwt>
</event>
<event>
 4    1  0.4732450E-002  0.4007462E+03  0.7818608E-02  0.1043522E+00
         21   -1    0    0  503  502  0.00000000000E+00  0.00000000000E+00  0.95693043562E+03  0.95693043562E+03  0.00000000000E+00 0. -1.
         21   -1    0    0  501  503 -0.00000000000E+00 -0.00000000000E+00 -0.51418290042E+03  0.51418290042E+03  0.00000000000E+00 0. -1.
    9000007    1    1    2  501    0 -0.21979486555E+02 -0.10695170939E+02 -0.38232384122E+03  0.55386731631E+03  0.40000000000E+03 0. -1.
   -9000007    1    1    2    0  502  0.21979486555E+02  0.10695170939E+02  0.82507137642E+03  0.91724601973E+03  0.40000000000E+03 0. -1.
<mgrwt>
<rscale>  2 0.40074616E+03</rscale>
<asrwt>0</asrwt>
<pdfrwt beam="1">  1       21 0.14722007E+00 0.40074616E+03</pdfrwt>
<pdfrwt beam="2">  1       21 0.79105061E-01 0.40074616E+03</pdfrwt>
<totfact> 0.37594363E+02</totfact>
</mgrwt>
</event>
<event>
 4    1  0.4732450E-002  0.4309880E+03  0.7818608E-02  0.1033548E+00
         21   -1    0    0  501  502  0.00000000000E+00  0.00000000000E+00  0.28178242796E+03  0.28178242796E+03  0.00000000000E+00 0.  1.
         21   -1    0    0  502  503 -0.00000000000E+00 -0.00000000000E+00 -0.67075774827E+03  0.67075774827E+03  0.00000000000E+00 0.  1.
    9000007    1    1    2  501    0 -0.14572882506E+03 -0.67184569626E+02 -0.25700901579E+03  0.50180104727E+03  0.40000000000E+03 0.  1.
   -9000007    1    1    2    0  503  0.14572882506E+03  0.67184569626E+02 -0.13196630452E+03  0.45073912896E+03  0.40000000000E+03 0.  1.
<mgrwt>
<rscale>  2 0.43098800E+03</rscale>
<asrwt>0</asrwt>
<pdfrwt beam="1">  1       21 0.43351143E-01 0.43098800E+03</pdfrwt>
<pdfrwt beam="2">  1       21 0.10319350E+00 0.43098800E+03</pdfrwt>
<totfact> 0.34178422E+03</totfact>
</mgrwt>
</event>
<event>
 4    1  0.4732450E-002  0.4054831E+03  0.7818608E-02  0.1041897E+00
         21   -1    0    0  501  502  0.00000000000E+00  0.00000000000E+00  0.31817648294E+03  0.31817648294E+03  0.00000000000E+00 0. -1.
         21   -1    0    0  502  503 -0.00000000000E+00 -0.00000000000E+00 -0.60436287423E+03  0.60436287423E+03  0.00000000000E+00 0. -1.
    9000007    1    1    2  501    0  0.60448723749E+02  0.27613470648E+02  0.32536887121E+02  0.40678643167E+03  0.40000000000E+03 0. -1.
   -9000007    1    1    2    0  503 -0.60448723749E+02 -0.27613470648E+02 -0.31872327841E+03  0.51575292550E+03  0.40000000000E+03 0. -1.
<mgrwt>
<rscale>  2 0.40548311E+03</rscale>
<asrwt>0</asrwt>
<pdfrwt beam="1">  1       21 0.48950228E-01 0.40548311E+03</pdfrwt>
<pdfrwt beam="2">  1       21 0.92978904E-01 0.40548311E+03</pdfrwt>
<totfact> 0.34390239E+03</totfact>
</mgrwt>
</event>
<event>
 4    1  0.4732450E-002  0.4529390E+03  0.7818608E-02  0.1026849E+00
         21   -1    0    0  501  502  0.00000000000E+00  0.00000000000E+00  0.68889045182E+03  0.68889045182E+03  0.00000000000E+00 0.  1.
         21   -1    0    0  502  503 -0.00000000000E+00 -0.00000000000E+00 -0.69638310625E+03  0.69638310625E+03  0.00000000000E+00 0.  1.
    9000007    1    1    2  501    0  0.10894261240E+03 -0.18244232343E+03  0.52026322571E+03  0.68980252116E+03  0.40000000000E+03 0.  1.
   -9000007    1    1    2    0  503 -0.10894261240E+03  0.18244232343E+03 -0.52775588014E+03  0.69547103692E+03  0.40000000000E+03 0.  1.
<mgrwt>
<rscale>  2 0.45293895E+03</rscale>
<asrwt>0</asrwt>
<pdfrwt beam="1">  1       21 0.10598315E+00 0.45293895E+03</pdfrwt>
<pdfrwt beam="2">  1       21 0.10713586E+00 0.45293895E+03</pdfrwt>
<totfact> 0.41364757E+02</totfact>
</mgrwt>
</event>
<event>
 4    1  0.4732450E-002  0.4011354E+03  0.7818608E-02  0.1043387E+00
         21   -1    0    0  501  502  0.00000000000E+00  0.00000000000E+00  0.11186136582E+04  0.11186136582E+04  0.00000000000E+00 0.  1.
         21   -1    0    0  502  503 -0.00000000000E+00 -0.00000000000E+00 -0.15459279435E+03  0.15459279435E+03  0.00000000000E+00 0.  1.
    9000007    1    1    2  501    0  0.10546032902E+02  0.28255188832E+02  0.64984717756E+03  0.76368247897E+03  0.40000000000E+03 0.  1.
   -9000007    1    1    2    0  503 -0.10546032902E+02 -0.28255188832E+02  0.31417368632E+03  0.50952397361E+03  0.40000000000E+03 0.  1.
<mgrwt>
<rscale>  2 0.40113536E+03</rscale>
<asrwt>0</asrwt>
<pdfrwt beam="1">  1       21 0.17209440E+00 0.40113536E+03</pdfrwt>
<pdfrwt beam="2">  1       21 0.23783508E-01 0.40113536E+03</pdfrwt>
<totfact> 0.30090100E+03</totfact>
</mgrwt>
</event>
<event>
 4    1  0.4732450E-002  0.4679113E+03  0.7818608E-02  0.1022511E+00
         21   -1    0    0  501  502  0.00000000000E+00  0.00000000000E+00  0.44421246088E+03  0.44421246088E+03  0.00000000000E+00 0. -1.
         21   -1    0    0  502  503 -0.00000000000E+00 -0.00000000000E+00 -0.49686379334E+03  0.49686379334E+03  0.00000000000E+00 0. -1.
    9000007    1    1    2  501    0 -0.19524728319E+03  0.14428973187E+03  0.15836216182E+02  0.46817925420E+03  0.40000000000E+03 0. -1.
   -9000007    1    1    2    0  503  0.19524728319E+03 -0.14428973187E+03 -0.68487548639E+02  0.47289700003E+03  0.40000000000E+03 0. -1.
<mgrwt>
<rscale>  2 0.46791135E+03</rscale>
<asrwt>0</asrwt>
<pdfrwt beam="1">  1       21 0.68340378E-01 0.46791135E+03</pdfrwt>
<pdfrwt beam="2">  1       21 0.76440584E-01 0.46791135E+03</pdfrwt>
<totfact> 0.25674973E+03</totfact>
</mgrwt>
</event>
<event>
 4    1  0.4732450E-002  0.4660820E+03  0.7818608E-02  0.1023032E+00
         21   -1    0    0  503  502  0.00000000000E+00  0.00000000000E+00  0.30827472495E+03  0.30827472495E+03  0.00000000000E+00 0. -1.
         21   -1    0    0  501  503 -0.00000000000E+00 -0.00000000000E+00 -0.70754626477E+03  0.70754626477E+03  0.00000000000E+00 0.  1.
    9000007    1    1    2  501    0 -0.22405174586E+02 -0.23818161768E+03 -0.16726181711E+03  0.49518581392E+03  0.40000000000E+03 0.  1.
   -9000007    1    1    2    0  502  0.22405174586E+02  0.23818161768E+03 -0.23200972271E+03  0.52063517580E+03  0.40000000000E+03 0. -1.
<mgrwt>
<rscale>  2 0.46608205E+03</rscale>
<asrwt>0</asrwt>
<pdfrwt beam="1">  1       21 0.47426881E-01 0.46608205E+03</pdfrwt>
<pdfrwt beam="2">  1       21 0.10885327E+00 0.46608205E+03</pdfrwt>
<totfact> 0.24503775E+03</totfact>
</mgrwt>
</event>
<event>
 4    1  0.4732450E-002  0.4655113E+03  0.7818608E-02  0.1023195E+00
         21   -1    0    0  501  502  0.00000000000E+00  0.00000000000E+00  0.11378339553E+04  0.11378339553E+04  0.00000000000E+00 0. -1.
         21   -1    0    0  502  503 -0.00000000000E+00 -0.00000000000E+00 -0.22229269899E+03  0.22229269899E+03  0.00000000000E+00 0.  1.
    9000007    1    1    2  501    0 -0.14877377290E+02 -0.23765394069E+03  0.20038152105E+03  0.50680714859E+03  0.40000000000E+03 0.  1.
   -9000007    1    1    2    0  503  0.14877377290E+02  0.23765394069E+03  0.71515973525E+03  0.85331950570E+03  0.40000000000E+03 0. -1.
<mgrwt>
<rscale>  2 0.46551126E+03</rscale>
<asrwt>0</asrwt>
<pdfrwt beam="1">  1       21 0.17505137E+00 0.46551126E+03</pdfrwt>
<pdfrwt beam="2">  1       21 0.34198877E-01 0.46551126E+03</pdfrwt>
<totfact> 0.13611326E+03</totfact>
</mgrwt>
</event>
<event>
 4    1  0.4732450E-002  0.4594015E+03  0.7818608E-02  0.1024955E+00
         21   -1    0    0  501  502  0.00000000000E+00  0.00000000000E+00  0.16915317457E+03  0.16915317457E+03  0.00000000000E+00 0.  1.
         21   -1    0    0  502  503 -0.00000000000E+00 -0.00000000000E+00 -0.13022991476E+04  0.13022991476E+04  0.00000000000E+00 0.  1.
    9000007    1    1    2  501    0 -0.20368108372E+03  0.97794276748E+02 -0.41590621063E+03  0.61969966958E+03  0.40000000000E+03 0.  1.
   -9000007    1    1    2    0  503  0.20368108372E+03 -0.97794276748E+02 -0.71723976242E+03  0.85175265261E+03  0.40000000000E+03 0.  1.
<mgrwt>
<rscale>  2 0.45940146E+03</rscale>
<asrwt>0</asrwt>
<pdfrwt beam="1">  1       21 0.26023565E-01 0.45940146E+03</pdfrwt>
<pdfrwt beam="2">  1       21 0.20035372E+00 0.45940146E+03</pdfrwt>
<totfact> 0.15705740E+03</totfact>
</mgrwt>
</event>
<event>
 4    1  0.4732450E-002  0.4607202E+03  0.7818608E-02  0.1024573E+00
         21   -1    0    0  501  502  0.00000000000E+00  0.00000000000E+00  0.21577616479E+03  0.21577616479E+03  0.00000000000E+00 0.  1.
         21   -1    0    0  502  503 -0.00000000000E+00 -0.00000000000E+00 -0.99126099773E+03  0.99126099773E+03  0.00000000000E+00 0.  1.
    9000007    1    1    2  501    0  0.15151858829E+03 -0.17118754070E+03 -0.33509860132E+03  0.56969652386E+03  0.40000000000E+03 0.  1.
   -9000007    1    1    2    0  503 -0.15151858829E+03  0.17118754070E+03 -0.44038623162E+03  0.63734063866E+03  0.40000000000E+03 0.  1.
<mgrwt>
<rscale>  2 0.46072015E+03</rscale>
<asrwt>0</asrwt>
<pdfrwt beam="1">  1       21 0.33196333E-01 0.46072015E+03</pdfrwt>
<pdfrwt beam="2">  1       21 0.15250169E+00 0.46072015E+03</pdfrwt>
<totfact> 0.21333400E+03</totfact>
</mgrwt>
</event>
<event>
 4    1  0.4732450E-002  0.6077406E+03  0.7818608E-02  0.9889476E-01
         21   -1    0    0  503  502  0.00000000000E+00  0.00000000000E+00  0.23825262441E+04  0.23825262441E+04  0.00000000000E+00 0.  1.
         21   -1    0    0  501  503 -0.00000000000E+00 -0.00000000000E+00 -0.16170710890E+03  0.16170710890E+03  0.00000000000E+00 0.  1.
    9000007    1    1    2  501    0 -0.13970789472E+03  0.43569519093E+03  0.13690245897E+04  0.14978574439E+04  0.40000000000E+03 0.  1.
   -9000007    1    1    2    0  502  0.13970789472E+03 -0.43569519093E+03  0.85179454548E+03  0.10463759090E+04  0.40000000000E+03 0.  1.
<mgrwt>
<rscale>  2 0.60774057E+03</rscale>
<asrwt>0</asrwt>
<pdfrwt beam="1">  1       21 0.36654247E+00 0.60774057E+03</pdfrwt>
<pdfrwt beam="2">  1       21 0.24878018E-01 0.60774057E+03</pdfrwt>
<totfact> 0.14927321E+02</totfact>
</mgrwt>
</event>
<event>
 4    1  0.4732450E-002  0.4634647E+03  0.7818608E-02  0.1023781E+00
         21   -1    0    0  503  502  0.00000000000E+00  0.00000000000E+00  0.30560327486E+03  0.30560327486E+03  0.00000000000E+00 0. -1.
         21   -1    0    0  501  503 -0.00000000000E+00 -0.00000000000E+00 -0.14256751324E+04  0.14256751324E+04  0.00000000000E+00 0.  1.
    9000007    1    1    2  501    0 -0.20727107507E+03 -0.10880372522E+03 -0.11763996536E+04  0.12644032957E+04  0.40000000000E+03 0.  1.
   -9000007    1    1    2    0  502  0.20727107507E+03  0.10880372522E+03  0.56327796067E+02  0.46687511156E+03  0.40000000000E+03 0.  1.
<mgrwt>
<rscale>  2 0.46346472E+03</rscale>
<asrwt>0</asrwt>
<pdfrwt beam="1">  1       21 0.47015888E-01 0.46346472E+03</pdfrwt>
<pdfrwt beam="2">  1       21 0.21933464E+00 0.46346472E+03</pdfrwt>
<totfact> 0.35512556E+02</totfact>
</mgrwt>
</event>
<event>
 4    1  0.4732450E-002  0.4939390E+03  0.7818608E-02  0.1015373E+00
         21   -1    0    0  501  502  0.00000000000E+00  0.00000000000E+00  0.26619885759E+03  0.26619885759E+03  0.00000000000E+00 0.  1.
         21   -1    0    0  502  503 -0.00000000000E+00 -0.00000000000E+00 -0.95223616292E+03  0.95223616292E+03  0.00000000000E+00 0. -1.
    9000007    1    1    2  501    0 -0.26812111962E+02  0.28854270380E+03 -0.22502718256E+03  0.54278265830E+03  0.40000000000E+03 0.  1.
   -9000007    1    1    2    0  503  0.26812111962E+02 -0.28854270380E+03 -0.46101012277E+03  0.67565236221E+03  0.40000000000E+03 0.  1.
<mgrwt>
<rscale>  2 0.49393905E+03</rscale>
<asrwt>0</asrwt>
<pdfrwt beam="1">  1       21 0.40953670E-01 0.49393905E+03</pdfrwt>
<pdfrwt beam="2">  1       21 0.14649787E+00 0.49393905E+03</pdfrwt>
<totfact> 0.15307439E+03</totfact>
</mgrwt>
</event>
<event>
 4    1  0.4732450E-002  0.7159813E+03  0.7818608E-02  0.9690286E-01
         21   -1    0    0  503  502  0.00000000000E+00  0.00000000000E+00  0.60833113162E+03  0.60833113162E+03  0.00000000000E+00 0. -1.
         21   -1    0    0  501  503 -0.00000000000E+00 -0.00000000000E+00 -0.91305670119E+03  0.91305670119E+03  0.00000000000E+00 0.  1.
    9000007    1    1    2  501    0  0.31813306897E+02  0.59297311749E+03  0.58826479203E+02  0.71839387471E+03  0.40000000000E+03 0. -1.
   -9000007    1    1    2    0  502 -0.31813306897E+02 -0.59297311749E+03 -0.36355204878E+03  0.80299395809E+03  0.40000000000E+03 0.  1.
<mgrwt>
<rscale>  2 0.71598129E+03</rscale>
<asrwt>0</asrwt>
<pdfrwt beam="1">  1       21 0.93589406E-01 0.71598129E+03</pdfrwt>
<pdfrwt beam="2">  1       21 0.14047026E+00 0.71598129E+03</pdfrwt>
<totfact> 0.25335163E+02</totfact>
</mgrwt>
</event>
<event>
 4    1  0.4732450E-002  0.4170233E+03  0.7818608E-02  0.1038039E+00
         21   -1    0    0  501  502  0.00000000000E+00  0.00000000000E+00  0.12572894557E+04  0.12572894557E+04  0.00000000000E+00 0. -1.
         21   -1    0    0  502  503 -0.00000000000E+00 -0.00000000000E+00 -0.14512552130E+03  0.14512552130E+03  0.00000000000E+00 0. -1.
    9000007    1    1    2  501    0  0.26873124094E+02 -0.11483144915E+03  0.40423659292E+03  0.58078881667E+03  0.40000000000E+03 0. -1.
   -9000007    1    1    2    0  503 -0.26873124094E+02  0.11483144915E+03  0.70792734145E+03  0.82162616030E+03  0.40000000000E+03 0. -1.
<mgrwt>
<rscale>  2 0.41702329E+03</rscale>
<asrwt>0</asrwt>
<pdfrwt beam="1">  1       21 0.19342914E+00 0.41702329E+03</pdfrwt>
<pdfrwt beam="2">  1       21 0.22327004E-01 0.41702329E+03</pdfrwt>
<totfact> 0.23963061E+03</totfact>
</mgrwt>
</event>
<event>
 4    1  0.4732450E-002  0.4489021E+03  0.7818608E-02  0.1028050E+00
         21   -1    0    0  501  502  0.00000000000E+00  0.00000000000E+00  0.32015794242E+03  0.32015794242E+03  0.00000000000E+00 0. -1.
         21   -1    0    0  502  503 -0.00000000000E+00 -0.00000000000E+00 -0.63538365429E+03  0.63538365429E+03  0.00000000000E+00 0. -1.
    9000007    1    1    2  501    0  0.91694720118E+02  0.18194826847E+03 -0.11131728350E+03  0.46249825049E+03  0.40000000000E+03 0. -1.
   -9000007    1    1    2    0  503 -0.91694720118E+02 -0.18194826847E+03 -0.20390842837E+03  0.49304334623E+03  0.40000000000E+03 0. -1.
<mgrwt>
<rscale>  2 0.44890210E+03</rscale>
<asrwt>0</asrwt>
<pdfrwt beam="1">  1       21 0.49255069E-01 0.44890210E+03</pdfrwt>
<pdfrwt beam="2">  1       21 0.97751330E-01 0.44890210E+03</pdfrwt>
<totfact> 0.29622149E+03</totfact>
</mgrwt>
</event>
<event>
 4    1  0.4732450E-002  0.5012635E+03  0.7818608E-02  0.1013450E+00
         21   -1    0    0  501  502  0.00000000000E+00  0.00000000000E+00  0.59686780754E+03  0.59686780754E+03  0.00000000000E+00 0. -1.
         21   -1    0    0  502  503 -0.00000000000E+00 -0.00000000000E+00 -0.52913844620E+03  0.52913844620E+03  0.00000000000E+00 0.  1.
    9000007    1    1    2  501    0  0.30188762362E+03 -0.11354521953E+02  0.28841344304E+03  0.57831425418E+03  0.40000000000E+03 0. -1.
   -9000007    1    1    2    0  503 -0.30188762362E+03  0.11354521953E+02 -0.22068408170E+03  0.54769199955E+03  0.40000000000E+03 0.  1.
<mgrwt>
<rscale>  2 0.50126347E+03</rscale>
<asrwt>0</asrwt>
<pdfrwt beam="1">  1       21 0.91825817E-01 0.50126347E+03</pdfrwt>
<pdfrwt beam="2">  1       21 0.81405915E-01 0.50126347E+03</pdfrwt>
<totfact> 0.11084659E+03</totfact>
</mgrwt>
</event>
<event>
 4    1  0.4732450E-002  0.4526712E+03  0.7818608E-02  0.1026928E+00
         21   -1    0    0  503  502  0.00000000000E+00  0.00000000000E+00  0.17401818128E+04  0.17401818128E+04  0.00000000000E+00 0.  1.
         21   -1    0    0  501  503 -0.00000000000E+00 -0.00000000000E+00 -0.16370341967E+03  0.16370341967E+03  0.00000000000E+00 0.  1.
    9000007    1    1    2  501    0  0.58837886932E+02 -0.20359096170E+03  0.28389402968E+03  0.53432854754E+03  0.40000000000E+03 0.  1.
   -9000007    1    1    2    0  502 -0.58837886932E+02  0.20359096170E+03  0.12925843635E+04  0.13695566850E+04  0.40000000000E+03 0.  1.
<mgrwt>
<rscale>  2 0.45267116E+03</rscale>
<asrwt>0</asrwt>
<pdfrwt beam="1">  1       21 0.26772027E+00 0.45267116E+03</pdfrwt>
<pdfrwt beam="2">  1       21 0.25185143E-01 0.45267116E+03</pdfrwt>
<totfact> 0.63264417E+02</totfact>
</mgrwt>
</event>
<event>
 4    1  0.4732450E-002  0.4936100E+03  0.7818608E-02  0.1015460E+00
         21   -1    0    0  501  502  0.00000000000E+00  0.00000000000E+00  0.16492652581E+03  0.16492652581E+03  0.00000000000E+00 0.  1.
         21   -1    0    0  502  503 -0.00000000000E+00 -0.00000000000E+00 -0.14774840842E+04  0.14774840842E+04  0.00000000000E+00 0. -1.
    9000007    1    1    2  501    0  0.18450615118E+03  0.22272913227E+03 -0.64787301859E+03  0.81448771286E+03  0.40000000000E+03 0. -1.
   -9000007    1    1    2    0  503 -0.18450615118E+03 -0.22272913227E+03 -0.66468453980E+03  0.82792289715E+03  0.40000000000E+03 0. -1.
<mgrwt>
<rscale>  2 0.49360995E+03</rscale>
<asrwt>0</asrwt>
<pdfrwt beam="1">  1       21 0.25373312E-01 0.49360995E+03</pdfrwt>
<pdfrwt beam="2">  1       21 0.22730524E+00 0.49360995E+03</pdfrwt>
<totfact> 0.10866603E+03</totfact>
</mgrwt>
</event>
<event>
 4    1  0.4732450E-002  0.4187965E+03  0.7818608E-02  0.1037459E+00
         21   -1    0    0  501  502  0.00000000000E+00  0.00000000000E+00  0.24081500650E+03  0.24081500650E+03  0.00000000000E+00 0. -1.
         21   -1    0    0  502  503 -0.00000000000E+00 -0.00000000000E+00 -0.80328065151E+03  0.80328065151E+03  0.00000000000E+00 0. -1.
    9000007    1    1    2  501    0  0.83153282564E+02  0.92065292288E+02 -0.12175800888E+03  0.43613701881E+03  0.40000000000E+03 0. -1.
   -9000007    1    1    2    0  503 -0.83153282564E+02 -0.92065292288E+02 -0.44070763613E+03  0.60795863921E+03  0.40000000000E+03 0. -1.
<mgrwt>
<rscale>  2 0.41879647E+03</rscale>
<asrwt>0</asrwt>
<pdfrwt beam="1">  1       21 0.37048462E-01 0.41879647E+03</pdfrwt>
<pdfrwt beam="2">  1       21 0.12358164E+00 0.41879647E+03</pdfrwt>
<totfact> 0.30251828E+03</totfact>
</mgrwt>
</event>
<event>
 4    1  0.4732450E-002  0.4426185E+03  0.7818608E-02  0.1029946E+00
         21   -1    0    0  501  502  0.00000000000E+00  0.00000000000E+00  0.32889917483E+04  0.32889917483E+04  0.00000000000E+00 0. -1.
         21   -1    0    0  502  503 -0.00000000000E+00 -0.00000000000E+00 -0.80036710971E+02  0.80036710971E+02  0.00000000000E+00 0. -1.
    9000007    1    1    2  501    0 -0.18281867696E+03 -0.49884981938E+02  0.24563987484E+04  0.24959579305E+04  0.40000000000E+03 0. -1.
   -9000007    1    1    2    0  503  0.18281867696E+03  0.49884981938E+02  0.75255628893E+03  0.87307052870E+03  0.40000000000E+03 0. -1.
<mgrwt>
<rscale>  2 0.44261855E+03</rscale>
<asrwt>0</asrwt>
<pdfrwt beam="1">  1       21 0.50599863E+00 0.44261855E+03</pdfrwt>
<pdfrwt beam="2">  1       21 0.12313343E-01 0.44261855E+03</pdfrwt>
<totfact> 0.72190218E+01</totfact>
</mgrwt>
</event>
<event>
 4    1  0.4732450E-002  0.4826211E+03  0.7818608E-02  0.1018417E+00
         21   -1    0    0  503  502  0.00000000000E+00  0.00000000000E+00  0.30318039168E+03  0.30318039168E+03  0.00000000000E+00 0.  1.
         21   -1    0    0  501  503 -0.00000000000E+00 -0.00000000000E+00 -0.88197912062E+03  0.88197912062E+03  0.00000000000E+00 0. -1.
    9000007    1    1    2  501    0 -0.13861209735E+03  0.23175368986E+03 -0.50217582530E+03  0.69649382324E+03  0.40000000000E+03 0.  1.
   -9000007    1    1    2    0  502  0.13861209735E+03 -0.23175368986E+03 -0.76622903640E+02  0.48866568906E+03  0.40000000000E+03 0.  1.
<mgrwt>
<rscale>  2 0.48262106E+03</rscale>
<asrwt>0</asrwt>
<pdfrwt beam="1">  1       21 0.46643138E-01 0.48262106E+03</pdfrwt>
<pdfrwt beam="2">  1       21 0.13568909E+00 0.48262106E+03</pdfrwt>
<totfact> 0.14376553E+03</totfact>
</mgrwt>
</event>
<event>
 4    1  0.4732450E-002  0.4890535E+03  0.7818608E-02  0.1016676E+00
         21   -1    0    0  501  502  0.00000000000E+00  0.00000000000E+00  0.34241917832E+03  0.34241917832E+03  0.00000000000E+00 0. -1.
         21   -1    0    0  502  503 -0.00000000000E+00 -0.00000000000E+00 -0.74388630916E+03  0.74388630916E+03  0.00000000000E+00 0. -1.
    9000007    1    1    2  501    0 -0.93564679760E+02  0.26536565107E+03 -0.33492419215E+03  0.59274572336E+03  0.40000000000E+03 0. -1.
   -9000007    1    1    2    0  503  0.93564679760E+02 -0.26536565107E+03 -0.66542938686E+02  0.49355976412E+03  0.40000000000E+03 0. -1.
<mgrwt>
<rscale>  2 0.48905345E+03</rscale>
<asrwt>0</asrwt>
<pdfrwt beam="1">  1       21 0.52679874E-01 0.48905345E+03</pdfrwt>
<pdfrwt beam="2">  1       21 0.11444405E+00 0.48905345E+03</pdfrwt>
<totfact> 0.17150430E+03</totfact>
</mgrwt>
</event>
<event>
 4    1  0.4732450E-002  0.5839964E+03  0.7818608E-02  0.9939176E-01
         21   -1    0    0  503  502  0.00000000000E+00  0.00000000000E+00  0.10599954613E+04  0.10599954613E+04  0.00000000000E+00 0. -1.
         21   -1    0    0  501  503 -0.00000000000E+00 -0.00000000000E+00 -0.37654485479E+03  0.37654485479E+03  0.00000000000E+00 0. -1.
    9000007    1    1    2  501    0  0.36118109023E+03  0.22494451588E+03  0.67721997992E+02  0.58790992862E+03  0.40000000000E+03 0. -1.
   -9000007    1    1    2    0  502 -0.36118109023E+03 -0.22494451588E+03  0.61572860847E+03  0.84863038742E+03  0.40000000000E+03 0. -1.
<mgrwt>
<rscale>  2 0.58399642E+03</rscale>
<asrwt>0</asrwt>
<pdfrwt beam="1">  1       21 0.16307622E+00 0.58399642E+03</pdfrwt>
<pdfrwt beam="2">  1       21 0.57929978E-01 0.58399642E+03</pdfrwt>
<totfact> 0.52672242E+02</totfact>
</mgrwt>
</event>
<event>
 4    1  0.4732450E-002  0.4091061E+03  0.7818608E-02  0.1040671E+00
         21   -1    0    0  503  502  0.00000000000E+00  0.00000000000E+00  0.15276876471E+03  0.15276876471E+03  0.00000000000E+00 0. -1.
         21   -1    0    0  501  503 -0.00000000000E+00 -0.00000000000E+00 -0.11778914134E+04  0.11778914134E+04  0.00000000000E+00 0. -1.
    9000007    1    1    2  501    0 -0.31864588444E+01 -0.85776859473E+02 -0.68845860143E+03  0.80083897821E+03  0.40000000000E+03 0. -1.
   -9000007    1    1    2    0  502  0.31864588444E+01  0.85776859473E+02 -0.33666404728E+03  0.52982119991E+03  0.40000000000E+03 0. -1.
<mgrwt>
<rscale>  2 0.40910613E+03</rscale>
<asrwt>0</asrwt>
<pdfrwt beam="1">  1       21 0.23502887E-01 0.40910613E+03</pdfrwt>
<pdfrwt beam="2">  1       21 0.18121406E+00 0.40910613E+03</pdfrwt>
<totfact> 0.26428653E+03</totfact>
</mgrwt>
</event>
<event>
 4    1  0.4732450E-002  0.6456030E+03  0.7818608E-02  0.9815065E-01
         21   -1    0    0  501  502  0.00000000000E+00  0.00000000000E+00  0.69492714151E+03  0.69492714151E+03  0.00000000000E+00 0. -1.
         21   -1    0    0  502  503 -0.00000000000E+00 -0.00000000000E+00 -0.75205039135E+03  0.75205039135E+03  0.00000000000E+00 0. -1.
    9000007    1    1    2  501    0  0.42487787403E+02  0.50497325127E+03  0.29698745538E+03  0.71063685890E+03  0.40000000000E+03 0. -1.
   -9000007    1    1    2    0  503 -0.42487787403E+02 -0.50497325127E+03 -0.35411070522E+03  0.73634067396E+03  0.40000000000E+03 0. -1.
<mgrwt>
<rscale>  2 0.64560297E+03</rscale>
<asrwt>0</asrwt>
<pdfrwt beam="1">  1       21 0.10691187E+00 0.64560297E+03</pdfrwt>
<pdfrwt beam="2">  1       21 0.11570006E+00 0.64560297E+03</pdfrwt>
<totfact> 0.31018866E+02</totfact>
</mgrwt>
</event>
<event>
 4    1  0.4732450E-002  0.4110624E+03  0.7818608E-02  0.1040015E+00
         21   -1    0    0  503  502  0.00000000000E+00  0.00000000000E+00  0.21109076200E+03  0.21109076200E+03  0.00000000000E+00 0. -1.
         21   -1    0    0  501  503 -0.00000000000E+00 -0.00000000000E+00 -0.97046795739E+03  0.97046795739E+03  0.00000000000E+00 0. -1.
    9000007    1    1    2  501    0 -0.89732087413E+02  0.30338275119E+02 -0.62694863225E+03  0.74969116703E+03  0.40000000000E+03 0. -1.
   -9000007    1    1    2    0  502  0.89732087413E+02 -0.30338275119E+02 -0.13242856314E+03  0.43186755236E+03  0.40000000000E+03 0. -1.
<mgrwt>
<rscale>  2 0.41106235E+03</rscale>
<asrwt>0</asrwt>
<pdfrwt beam="1">  1       21 0.32475501E-01 0.41106235E+03</pdfrwt>
<pdfrwt beam="2">  1       21 0.14930277E+00 0.41106235E+03</pdfrwt>
<totfact> 0.24093398E+03</totfact>
</mgrwt>
</event>
<event>
 4    1  0.4732450E-002  0.4124845E+03  0.7818608E-02  0.1039540E+00
         21   -1    0    0  503  502  0.00000000000E+00  0.00000000000E+00  0.28783632915E+03  0.28783632915E+03  0.00000000000E+00 0.  1.
         21   -1    0    0  501  503 -0.00000000000E+00 -0.00000000000E+00 -0.63040589264E+03  0.63040589264E+03  0.00000000000E+00 0.  1.
    9000007    1    1    2  501    0  0.10040328969E+03  0.79161699485E+01 -0.28590997412E+03  0.50188444848E+03  0.40000000000E+03 0.  1.
   -9000007    1    1    2    0  502 -0.10040328969E+03 -0.79161699485E+01 -0.56659589370E+02  0.41635777331E+03  0.40000000000E+03 0.  1.
<mgrwt>
<rscale>  2 0.41248453E+03</rscale>
<asrwt>0</asrwt>
<pdfrwt beam="1">  1       21 0.44282513E-01 0.41248453E+03</pdfrwt>
<pdfrwt beam="2">  1       21 0.96985521E-01 0.41248453E+03</pdfrwt>
<totfact> 0.38272409E+03</totfact>
</mgrwt>
</event>
<event>
 4    1  0.4732450E-002  0.4875732E+03  0.7818608E-02  0.1017074E+00
         21   -1    0    0  503  502  0.00000000000E+00  0.00000000000E+00  0.12287308083E+03  0.12287308083E+03  0.00000000000E+00 0.  1.
         21   -1    0    0  501  503 -0.00000000000E+00 -0.00000000000E+00 -0.19350932388E+04  0.19350932388E+04  0.00000000000E+00 0.  1.
    9000007    1    1    2  501    0 -0.81320224149E+02 -0.26667330209E+03 -0.91998616561E+03  0.10412022732E+04  0.40000000000E+03 0.  1.
   -9000007    1    1    2    0  502  0.81320224149E+02  0.26667330209E+03 -0.89223399241E+03  0.10167640464E+04  0.40000000000E+03 0.  1.
<mgrwt>
<rscale>  2 0.48757320E+03</rscale>
<asrwt>0</asrwt>
<pdfrwt beam="1">  1       21 0.18903550E-01 0.48757320E+03</pdfrwt>
<pdfrwt beam="2">  1       21 0.29770666E+00 0.48757320E+03</pdfrwt>
<totfact> 0.71042462E+02</totfact>
</mgrwt>
</event>
<event>
 4    1  0.4732450E-002  0.5049526E+03  0.7818608E-02  0.1012494E+00
         21   -1    0    0  501  502  0.00000000000E+00  0.00000000000E+00  0.15008295945E+04  0.15008295945E+04  0.00000000000E+00 0. -1.
         21   -1    0    0  502  503 -0.00000000000E+00 -0.00000000000E+00 -0.23963155333E+03  0.23963155333E+03  0.00000000000E+00 0. -1.
    9000007    1    1    2  501    0 -0.27060235568E+03 -0.14748393914E+03  0.11000666356E+04  0.12104229633E+04  0.40000000000E+03 0. -1.
   -9000007    1    1    2    0  503  0.27060235568E+03  0.14748393914E+03  0.16113140551E+03  0.53003818452E+03  0.40000000000E+03 0. -1.
<mgrwt>
<rscale>  2 0.50495262E+03</rscale>
<asrwt>0</asrwt>
<pdfrwt beam="1">  1       21 0.23089685E+00 0.50495262E+03</pdfrwt>
<pdfrwt beam="2">  1       21 0.36866394E-01 0.50495262E+03</pdfrwt>
<totfact> 0.48677255E+02</totfact>
</mgrwt>
</event>
<event>
 4    1  0.4732450E-002  0.4670130E+03  0.7818608E-02  0.1022767E+00
         21   -1    0    0  501  502  0.00000000000E+00  0.00000000000E+00  0.72329132882E+03  0.72329132882E+03  0.00000000000E+00 0.  1.
         21   -1    0    0  502  503 -0.00000000000E+00 -0.00000000000E+00 -0.31804536465E+03  0.31804536465E+03  0.00000000000E+00 0.  1.
    9000007    1    1    2  501    0  0.23280213912E+03 -0.62484365344E+02  0.32123581148E+03  0.56682764441E+03  0.40000000000E+03 0.  1.
   -9000007    1    1    2    0  503 -0.23280213912E+03  0.62484365344E+02  0.84010152690E+02  0.47450904907E+03  0.40000000000E+03 0.  1.
<mgrwt>
<rscale>  2 0.46701299E+03</rscale>
<asrwt>0</asrwt>
<pdfrwt beam="1">  1       21 0.11127559E+00 0.46701299E+03</pdfrwt>
<pdfrwt beam="2">  1       21 0.48930056E-01 0.46701299E+03</pdfrwt>
<totfact> 0.21709596E+03</totfact>
</mgrwt>
</event>
<event>
 4    1  0.4732450E-002  0.6717044E+03  0.7818608E-02  0.9766884E-01
         21   -1    0    0  501  502  0.00000000000E+00  0.00000000000E+00  0.13523601292E+04  0.13523601292E+04  0.00000000000E+00 0. -1.
         21   -1    0    0  502  503 -0.00000000000E+00 -0.00000000000E+00 -0.33862922906E+03  0.33862922906E+03  0.00000000000E+00 0. -1.
    9000007    1    1    2  501    0  0.51629238502E+03 -0.15693623992E+03  0.60960448779E+03  0.90708568601E+03  0.40000000000E+03 0. -1.
   -9000007    1    1    2    0  503 -0.51629238502E+03  0.15693623992E+03  0.40412641237E+03  0.78390367227E+03  0.40000000000E+03 0. -1.
<mgrwt>
<rscale>  2 0.67170441E+03</rscale>
<asrwt>0</asrwt>
<pdfrwt beam="1">  1       21 0.20805540E+00 0.67170441E+03</pdfrwt>
<pdfrwt beam="2">  1       21 0.52096805E-01 0.67170441E+03</pdfrwt>
<totfact> 0.31042550E+02</totfact>
</mgrwt>
</event>
<event>
 4    1  0.4732450E-002  0.5450218E+03  0.7818608E-02  0.1002653E+00
         21   -1    0    0  501  502  0.00000000000E+00  0.00000000000E+00  0.63123622466E+03  0.63123622466E+03  0.00000000000E+00 0.  1.
         21   -1    0    0  502  503 -0.00000000000E+00 -0.00000000000E+00 -0.57122567864E+03  0.57122567864E+03  0.00000000000E+00 0.  1.
    9000007    1    1    2  501    0  0.32814670274E+03 -0.17137250010E+03  0.28237043183E+03  0.61382558849E+03  0.40000000000E+03 0.  1.
   -9000007    1    1    2    0  503 -0.32814670274E+03  0.17137250010E+03 -0.22235988581E+03  0.58863631482E+03  0.40000000000E+03 0.  1.
<mgrwt>
<rscale>  2 0.54502183E+03</rscale>
<asrwt>0</asrwt>
<pdfrwt beam="1">  1       21 0.97113265E-01 0.54502183E+03</pdfrwt>
<pdfrwt beam="2">  1       21 0.87880874E-01 0.54502183E+03</pdfrwt>
<totfact> 0.79735142E+02</totfact>
</mgrwt>
</event>
<event>
 4    1  0.4732450E-002  0.5470896E+03  0.7818608E-02  0.1002170E+00
         21   -1    0    0  503  502  0.00000000000E+00  0.00000000000E+00  0.72762637851E+03  0.72762637851E+03  0.00000000000E+00 0. -1.
         21   -1    0    0  501  503 -0.00000000000E+00 -0.00000000000E+00 -0.51094884197E+03  0.51094884197E+03  0.00000000000E+00 0. -1.
    9000007    1    1    2  501    0  0.33071484999E+03  0.17301646741E+03 -0.16508553927E+03  0.57145449974E+03  0.40000000000E+03 0. -1.
   -9000007    1    1    2    0  502 -0.33071484999E+03 -0.17301646741E+03  0.38176307581E+03  0.66712072074E+03  0.40000000000E+03 0. -1.
<mgrwt>
<rscale>  2 0.54708958E+03</rscale>
<asrwt>0</asrwt>
<pdfrwt beam="1">  1       21 0.11194252E+00 0.54708958E+03</pdfrwt>
<pdfrwt beam="2">  1       21 0.78607514E-01 0.54708958E+03</pdfrwt>
<totfact> 0.72845064E+02</totfact>
</mgrwt>
</event>
<event>
 4    1  0.4732450E-002  0.4319825E+03  0.7818608E-02  0.1033236E+00
         21   -1    0    0  503  502  0.00000000000E+00  0.00000000000E+00  0.77802961155E+03  0.77802961155E+03  0.00000000000E+00 0. -1.
         21   -1    0    0  501  503 -0.00000000000E+00 -0.00000000000E+00 -0.26773311238E+03  0.26773311238E+03  0.00000000000E+00 0.  1.
    9000007    1    1    2  501    0 -0.12917817890E+03  0.99608626666E+02  0.42389599392E+03  0.60522449890E+03  0.40000000000E+03 0. -1.
   -9000007    1    1    2    0  502  0.12917817890E+03 -0.99608626666E+02  0.86400505250E+02  0.44053822504E+03  0.40000000000E+03 0.  1.
<mgrwt>
<rscale>  2 0.43198250E+03</rscale>
<asrwt>0</asrwt>
<pdfrwt beam="1">  1       21 0.11969686E+00 0.43198250E+03</pdfrwt>
<pdfrwt beam="2">  1       21 0.41189710E-01 0.43198250E+03</pdfrwt>
<totfact> 0.26275439E+03</totfact>
</mgrwt>
</event>
<event>
 4    1  0.4732450E-002  0.5023159E+03  0.7818608E-02  0.1013176E+00
         21   -1    0    0  501  502  0.00000000000E+00  0.00000000000E+00  0.60750455976E+03  0.60750455976E+03  0.00000000000E+00 0. -1.
         21   -1    0    0  502  503 -0.00000000000E+00 -0.00000000000E+00 -0.41862632396E+03  0.41862632396E+03  0.00000000000E+00 0. -1.
    9000007    1    1    2  501    0  0.22373470532E+03 -0.20558225365E+03  0.13989373127E+03  0.52143219830E+03  0.40000000000E+03 0. -1.
   -9000007    1    1    2    0  503 -0.22373470532E+03  0.20558225365E+03  0.48984504527E+02  0.50469868542E+03  0.40000000000E+03 0. -1.
<mgrwt>
<rscale>  2 0.50231592E+03</rscale>
<asrwt>0</asrwt>
<pdfrwt beam="1">  1       21 0.93462241E-01 0.50231592E+03</pdfrwt>
<pdfrwt beam="2">  1       21 0.64404049E-01 0.50231592E+03</pdfrwt>
<totfact> 0.18090642E+03</totfact>
</mgrwt>
</event>
<event>
 4    1  0.4732450E-002  0.6549737E+03  0.7818608E-02  0.9797491E-01
         21   -1    0    0  501  502  0.00000000000E+00  0.00000000000E+00  0.13280922291E+04  0.13280922291E+04  0.00000000000E+00 0. -1.
         21   -1    0    0  502  503 -0.00000000000E+00 -0.00000000000E+00 -0.42816086546E+03  0.42816086546E+03  0.00000000000E+00 0. -1.
    9000007    1    1    2  501    0 -0.41824191460E+03 -0.30669890969E+03  0.88513140923E+03  0.11011122250E+04  0.40000000000E+03 0. -1.
   -9000007    1    1    2    0  503  0.41824191460E+03  0.30669890969E+03  0.14799954371E+02  0.65514086957E+03  0.40000000000E+03 0. -1.
<mgrwt>
<rscale>  2 0.65497368E+03</rscale>
<asrwt>0</asrwt>
<pdfrwt beam="1">  1       21 0.20432188E+00 0.65497368E+03</pdfrwt>
<pdfrwt beam="2">  1       21 0.65870903E-01 0.65497368E+03</pdfrwt>
<totfact> 0.19729545E+02</totfact>
</mgrwt>
</event>
<event>
 4    1  0.4732450E-002  0.5854980E+03  0.7818608E-02  0.9935958E-01
         21   -1    0    0  501  502  0.00000000000E+00  0.00000000000E+00  0.21718337077E+04  0.21718337077E+04  0.00000000000E+00 0.  1.
         21   -1    0    0  502  503 -0.00000000000E+00 -0.00000000000E+00 -0.17366199468E+03  0.17366199468E+03  0.00000000000E+00 0. -1.
    9000007    1    1    2  501    0  0.34470593867E+03  0.25295410439E+03  0.13530397174E+04  0.14742877738E+04  0.40000000000E+03 0.  1.
   -9000007    1    1    2    0  503 -0.34470593867E+03 -0.25295410439E+03  0.64513199562E+03  0.87120792860E+03  0.40000000000E+03 0. -1.
<mgrwt>
<rscale>  2 0.58549805E+03</rscale>
<asrwt>0</asrwt>
<pdfrwt beam="1">  1       21 0.33412824E+00 0.58549805E+03</pdfrwt>
<pdfrwt beam="2">  1       21 0.26717231E-01 0.58549805E+03</pdfrwt>
<totfact> 0.20844893E+02</totfact>
</mgrwt>
</event>
<event>
 4    1  0.4732450E-002  0.5047110E+03  0.7818608E-02  0.1012557E+00
         21   -1    0    0  501  502  0.00000000000E+00  0.00000000000E+00  0.30460367296E+03  0.30460367296E+03  0.00000000000E+00 0.  1.
         21   -1    0    0  502  503 -0.00000000000E+00 -0.00000000000E+00 -0.97845188905E+03  0.97845188905E+03  0.00000000000E+00 0. -1.
    9000007    1    1    2  501    0  0.30411079010E+03 -0.47431871314E+02 -0.92380322313E+02  0.51309577958E+03  0.40000000000E+03 0. -1.
   -9000007    1    1    2    0  503 -0.30411079010E+03  0.47431871314E+02 -0.58146789378E+03  0.76995978244E+03  0.40000000000E+03 0.  1.
<mgrwt>
<rscale>  2 0.50471096E+03</rscale>
<asrwt>0</asrwt>
<pdfrwt beam="1">  1       21 0.46862103E-01 0.50471096E+03</pdfrwt>
<pdfrwt beam="2">  1       21 0.15053106E+00 0.50471096E+03</pdfrwt>
<totfact> 0.10683609E+03</totfact>
</mgrwt>
</event>
<event>
 4    1  0.4732450E-002  0.4619675E+03  0.7818608E-02  0.1024212E+00
         21   -1    0    0  503  502  0.00000000000E+00  0.00000000000E+00  0.19210586829E+04  0.19210586829E+04  0.00000000000E+00 0. -1.
         21   -1    0    0  501  503 -0.00000000000E+00 -0.00000000000E+00 -0.13283335569E+03  0.13283335569E+03  0.00000000000E+00 0.  1.
    9000007    1    1    2  501    0  0.23102534059E+03 -0.64246632492E+01  0.13095817759E+04  0.13886750563E+04  0.40000000000E+03 0. -1.
   -9000007    1    1    2    0  502 -0.23102534059E+03  0.64246632492E+01  0.47864355137E+03  0.66521698232E+03  0.40000000000E+03 0.  1.
<mgrwt>
<rscale>  2 0.46196751E+03</rscale>
<asrwt>0</asrwt>
<pdfrwt beam="1">  1       21 0.29554747E+00 0.46196751E+03</pdfrwt>
<pdfrwt beam="2">  1       21 0.20435902E-01 0.46196751E+03</pdfrwt>
<totfact> 0.63976821E+02</totfact>
</mgrwt>
</event>
<event>
 4    1  0.4732450E-002  0.4579103E+03  0.7818608E-02  0.1025389E+00
         21   -1    0    0  503  502  0.00000000000E+00  0.00000000000E+00  0.14133877736E+04  0.14133877736E+04  0.00000000000E+00 0.  1.
         21   -1    0    0  501  503 -0.00000000000E+00 -0.00000000000E+00 -0.22438786726E+03  0.22438786726E+03  0.00000000000E+00 0.  1.
    9000007    1    1    2  501    0 -0.15989698186E+03  0.15528937874E+03  0.11781872245E+03  0.47282458409E+03  0.40000000000E+03 0.  1.
   -9000007    1    1    2    0  502  0.15989698186E+03 -0.15528937874E+03  0.10711811839E+04  0.11649510568E+04  0.40000000000E+03 0.  1.
<mgrwt>
<rscale>  2 0.45791029E+03</rscale>
<asrwt>0</asrwt>
<pdfrwt beam="1">  1       21 0.21744427E+00 0.45791029E+03</pdfrwt>
<pdfrwt beam="2">  1       21 0.34521211E-01 0.45791029E+03</pdfrwt>
<totfact> 0.69277839E+02</totfact>
</mgrwt>
</event>
<event>
 4    1  0.4732450E-002  0.4217660E+03  0.7818608E-02  0.1036493E+00
         21   -1    0    0  501  502  0.00000000000E+00  0.00000000000E+00  0.50001108241E+03  0.50001108241E+03  0.00000000000E+00 0.  1.
         21   -1    0    0  502  503 -0.00000000000E+00 -0.00000000000E+00 -0.46442282869E+03  0.46442282869E+03  0.00000000000E+00 0.  1.
    9000007    1    1    2  501    0 -0.13356819821E+03  0.67878262069E+01  0.25104099813E+03  0.49082392046E+03  0.40000000000E+03 0.  1.
   -9000007    1    1    2    0  503  0.13356819821E+03 -0.67878262069E+01 -0.21545274441E+03  0.47360999064E+03  0.40000000000E+03 0.  1.
<mgrwt>
<rscale>  2 0.42176598E+03</rscale>
<asrwt>0</asrwt>
<pdfrwt beam="1">  1       21 0.76924782E-01 0.42176598E+03</pdfrwt>
<pdfrwt beam="2">  1       21 0.71449666E-01 0.42176598E+03</pdfrwt>
<totfact> 0.23287905E+03</totfact>
</mgrwt>
</event>
<event>
 4    1  0.4732450E-002  0.4123465E+03  0.7818608E-02  0.1039586E+00
         21   -1    0    0  501  502  0.00000000000E+00  0.00000000000E+00  0.69933428349E+03  0.69933428349E+03  0.00000000000E+00 0.  1.
         21   -1    0    0  502  503 -0.00000000000E+00 -0.00000000000E+00 -0.26908035464E+03  0.26908035464E+03  0.00000000000E+00 0.  1.
    9000007    1    1    2  501    0  0.35242622772E+02  0.93742261200E+02  0.36549513101E+03  0.55101392432E+03  0.40000000000E+03 0.  1.
   -9000007    1    1    2    0  503 -0.35242622772E+02 -0.93742261200E+02  0.64758797836E+02  0.41740071381E+03  0.40000000000E+03 0.  1.
<mgrwt>
<rscale>  2 0.41234652E+03</rscale>
<asrwt>0</asrwt>
<pdfrwt beam="1">  1       21 0.10758989E+00 0.41234652E+03</pdfrwt>
<pdfrwt beam="2">  1       21 0.41396978E-01 0.41234652E+03</pdfrwt>
<totfact> 0.34182255E+03</totfact>
</mgrwt>
</event>
<event>
 4    1  0.4732450E-002  0.4363680E+03  0.7818608E-02  0.1031867E+00
         21   -1    0    0  501  502  0.00000000000E+00  0.00000000000E+00  0.30401185182E+03  0.30401185182E+03  0.00000000000E+00 0.  1.
         21   -1    0    0  502  503 -0.00000000000E+00 -0.00000000000E+00 -0.64239404064E+03  0.64239404064E+03  0.00000000000E+00 0. -1.
    9000007    1    1    2  501    0 -0.11411281257E+03  0.13189121055E+03 -0.24398032879E+03  0.49994342305E+03  0.40000000000E+03 0. -1.
   -9000007    1    1    2    0  503  0.11411281257E+03 -0.13189121055E+03 -0.94401860037E+02  0.44646246941E+03  0.40000000000E+03 0.  1.
<mgrwt>
<rscale>  2 0.43636799E+03</rscale>
<asrwt>0</asrwt>
<pdfrwt beam="1">  1       21 0.46771054E-01 0.43636799E+03</pdfrwt>
<pdfrwt beam="2">  1       21 0.98829852E-01 0.43636799E+03</pdfrwt>
<totfact> 0.32328125E+03</totfact>
</mgrwt>
</event>
<event>
 4    1  0.4732450E-002  0.5612560E+03  0.7818608E-02  0.9989217E-01
         21   -1    0    0  503  502  0.00000000000E+00  0.00000000000E+00  0.16517535476E+03  0.16517535476E+03  0.00000000000E+00 0. -1.
         21   -1    0    0  501  503 -0.00000000000E+00 -0.00000000000E+00 -0.20651536808E+04  0.20651536808E+04  0.00000000000E+00 0.  1.
    9000007    1    1    2  501    0 -0.23107094223E+03  0.31877030158E+03 -0.64149611776E+03  0.85236468405E+03  0.40000000000E+03 0. -1.
   -9000007    1    1    2    0  502  0.23107094223E+03 -0.31877030158E+03 -0.12584822083E+04  0.13779643516E+04  0.40000000000E+03 0.  1.
<mgrwt>
<rscale>  2 0.56125599E+03</rscale>
<asrwt>0</asrwt>
<pdfrwt beam="1">  1       21 0.25411594E-01 0.56125599E+03</pdfrwt>
<pdfrwt beam="2">  1       21 0.31771594E+00 0.56125599E+03</pdfrwt>
<totfact> 0.29319345E+02</totfact>
</mgrwt>
</event>
<event>
 4    1  0.4732450E-002  0.4912429E+03  0.7818608E-02  0.1016090E+00
         21   -1    0    0  503  502  0.00000000000E+00  0.00000000000E+00  0.12627291254E+04  0.12627291254E+04  0.00000000000E+00 0.  1.
         21   -1    0    0  501  503 -0.00000000000E+00 -0.00000000000E+00 -0.21944895071E+03  0.21944895071E+03  0.00000000000E+00 0. -1.
    9000007    1    1    2  501    0 -0.65407672141E+02 -0.27756339593E+03  0.25532306824E+03  0.55363297545E+03  0.40000000000E+03 0. -1.
   -9000007    1    1    2    0  502  0.65407672141E+02  0.27756339593E+03  0.78795710644E+03  0.92854510064E+03  0.40000000000E+03 0.  1.
<mgrwt>
<rscale>  2 0.49124292E+03</rscale>
<asrwt>0</asrwt>
<pdfrwt beam="1">  1       21 0.19426602E+00 0.49124292E+03</pdfrwt>
<pdfrwt beam="2">  1       21 0.33761378E-01 0.49124292E+03</pdfrwt>
<totfact> 0.10152526E+03</totfact>
</mgrwt>
</event>
<event>
 4    1  0.4732450E-002  0.5990164E+03  0.7818608E-02  0.9907449E-01
         21   -1    0    0  503  502  0.00000000000E+00  0.00000000000E+00  0.74287525090E+03  0.74287525090E+03  0.00000000000E+00 0. -1.
         21   -1    0    0  501  503 -0.00000000000E+00 -0.00000000000E+00 -0.58006969382E+03  0.58006969382E+03  0.00000000000E+00 0.  1.
    9000007    1    1    2  501    0  0.28088975099E+03 -0.34629705525E+03  0.35197145028E+03  0.69476946140E+03  0.40000000000E+03 0. -1.
   -9000007    1    1    2    0  502 -0.28088975099E+03  0.34629705525E+03 -0.18916589321E+03  0.62817548332E+03  0.40000000000E+03 0.  1.
<mgrwt>
<rscale>  2 0.59901645E+03</rscale>
<asrwt>0</asrwt>
<pdfrwt beam="1">  1       21 0.11428850E+00 0.59901645E+03</pdfrwt>
<pdfrwt beam="2">  1       21 0.89241491E-01 0.59901645E+03</pdfrwt>
<totfact> 0.50441201E+02</totfact>
</mgrwt>
</event>
<event>
 4    1  0.4732450E-002  0.5505667E+03  0.7818608E-02  0.1001363E+00
         21   -1    0    0  503  502  0.00000000000E+00  0.00000000000E+00  0.62623527804E+03  0.62623527804E+03  0.00000000000E+00 0.  1.
         21   -1    0    0  501  503 -0.00000000000E+00 -0.00000000000E+00 -0.83264365205E+03  0.83264365205E+03  0.00000000000E+00 0.  1.
    9000007    1    1    2  501    0 -0.28860609384E+03 -0.24460225343E+03  0.36877714705E+03  0.66266154557E+03  0.40000000000E+03 0.  1.
   -9000007    1    1    2    0  502  0.28860609384E+03  0.24460225343E+03 -0.57518552106E+03  0.79621738453E+03  0.40000000000E+03 0.  1.
<mgrwt>
<rscale>  2 0.55056674E+03</rscale>
<asrwt>0</asrwt>
<pdfrwt beam="1">  1       21 0.96343889E-01 0.55056674E+03</pdfrwt>
<pdfrwt beam="2">  1       21 0.12809902E+00 0.55056674E+03</pdfrwt>
<totfact> 0.31884713E+02</totfact>
</mgrwt>
</event>
<event>
 4    1  0.4732450E-002  0.4067324E+03  0.7818608E-02  0.1041473E+00
         21   -1    0    0  503  502  0.00000000000E+00  0.00000000000E+00  0.63037099992E+03  0.63037099992E+03  0.00000000000E+00 0. -1.
         21   -1    0    0  501  503 -0.00000000000E+00 -0.00000000000E+00 -0.26757494437E+03  0.26757494437E+03  0.00000000000E+00 0. -1.
    9000007    1    1    2  501    0  0.21684642976E+02  0.70434780374E+02  0.11917007879E+03  0.42383108629E+03  0.40000000000E+03 0. -1.
   -9000007    1    1    2    0  502 -0.21684642976E+02 -0.70434780374E+02  0.24362597676E+03  0.47411485800E+03  0.40000000000E+03 0. -1.
<mgrwt>
<rscale>  2 0.40673245E+03</rscale>
<asrwt>0</asrwt>
<pdfrwt beam="1">  1       21 0.96980153E-01 0.40673245E+03</pdfrwt>
<pdfrwt beam="2">  1       21 0.41165376E-01 0.40673245E+03</pdfrwt>
<totfact> 0.44634615E+03</totfact>
</mgrwt>
</event>
<event>
 4    1  0.4732450E-002  0.4042246E+03  0.7818608E-02  0.1042327E+00
         21   -1    0    0  501  502  0.00000000000E+00  0.00000000000E+00  0.32607547580E+03  0.32607547580E+03  0.00000000000E+00 0. -1.
         21   -1    0    0  502  503 -0.00000000000E+00 -0.00000000000E+00 -0.53190594829E+03  0.53190594829E+03  0.00000000000E+00 0. -1.
    9000007    1    1    2  501    0  0.47700619933E+02 -0.33498768154E+02  0.31907626612E+00  0.40422471278E+03  0.40000000000E+03 0. -1.
   -9000007    1    1    2    0  503 -0.47700619933E+02  0.33498768154E+02 -0.20614954876E+03  0.45375671131E+03  0.40000000000E+03 0. -1.
<mgrwt>
<rscale>  2 0.40422459E+03</rscale>
<asrwt>0</asrwt>
<pdfrwt beam="1">  1       21 0.50165458E-01 0.40422459E+03</pdfrwt>
<pdfrwt beam="2">  1       21 0.81831683E-01 0.40422459E+03</pdfrwt>
<totfact> 0.44078538E+03</totfact>
</mgrwt>
</event>
<event>
 4    1  0.4732450E-002  0.4616456E+03  0.7818608E-02  0.1024305E+00
         21   -1    0    0  503  502  0.00000000000E+00  0.00000000000E+00  0.67050223454E+03  0.67050223454E+03  0.00000000000E+00 0. -1.
         21   -1    0    0  501  503 -0.00000000000E+00 -0.00000000000E+00 -0.34979803402E+03  0.34979803402E+03  0.00000000000E+00 0. -1.
    9000007    1    1    2  501    0 -0.32566601741E+02  0.22815792400E+03  0.61689662022E+01  0.46168677475E+03  0.40000000000E+03 0. -1.
   -9000007    1    1    2    0  502  0.32566601741E+02 -0.22815792400E+03  0.31453523432E+03  0.55861349381E+03  0.40000000000E+03 0. -1.
<mgrwt>
<rscale>  2 0.46164556E+03</rscale>
<asrwt>0</asrwt>
<pdfrwt beam="1">  1       21 0.10315419E+00 0.46164556E+03</pdfrwt>
<pdfrwt beam="2">  1       21 0.53815082E-01 0.46164556E+03</pdfrwt>
<totfact> 0.21406311E+03</totfact>
</mgrwt>
</event>
<event>
 4    1  0.4732450E-002  0.6262191E+03  0.7818608E-02  0.9852455E-01
         21   -1    0    0  503  502  0.00000000000E+00  0.00000000000E+00  0.87400752502E+03  0.87400752502E+03  0.00000000000E+00 0.  1.
         21   -1    0    0  501  503 -0.00000000000E+00 -0.00000000000E+00 -0.83866887933E+03  0.83866887933E+03  0.00000000000E+00 0.  1.
    9000007    1    1    2  501    0  0.42477269572E+03 -0.22741717415E+03 -0.56628073952E+03  0.84428922182E+03  0.40000000000E+03 0.  1.
   -9000007    1    1    2    0  502 -0.42477269572E+03  0.22741717415E+03  0.60161938520E+03  0.86838718253E+03  0.40000000000E+03 0.  1.
<mgrwt>
<rscale>  2 0.62621914E+03</rscale>
<asrwt>0</asrwt>
<pdfrwt beam="1">  1       21 0.13446270E+00 0.62621914E+03</pdfrwt>
<pdfrwt beam="2">  1       21 0.12902598E+00 0.62621914E+03</pdfrwt>
<totfact> 0.13095713E+02</totfact>
</mgrwt>
</event>
<event>
 4    1  0.4732450E-002  0.5040850E+03  0.7818608E-02  0.1012718E+00
         21   -1    0    0  503  502  0.00000000000E+00  0.00000000000E+00  0.14602132792E+03  0.14602132792E+03  0.00000000000E+00 0. -1.
         21   -1    0    0  501  503 -0.00000000000E+00 -0.00000000000E+00 -0.19430351532E+04  0.19430351532E+04  0.00000000000E+00 0.  1.
    9000007    1    1    2  501    0 -0.28166055123E+03  0.12152784064E+03 -0.12360159697E+04  0.13348547334E+04  0.40000000000E+03 0.  1.
   -9000007    1    1    2    0  502  0.28166055123E+03 -0.12152784064E+03 -0.56099785558E+03  0.75420174764E+03  0.40000000000E+03 0. -1.
<mgrwt>
<rscale>  2 0.50408499E+03</rscale>
<asrwt>0</asrwt>
<pdfrwt beam="1">  1       21 0.22464820E-01 0.50408499E+03</pdfrwt>
<pdfrwt beam="2">  1       21 0.29892848E+00 0.50408499E+03</pdfrwt>
<totfact> 0.49791766E+02</totfact>
</mgrwt>
</event>
<event>
 4    1  0.4732450E-002  0.4301537E+03  0.7818608E-02  0.1033811E+00
         21   -1    0    0  503  502  0.00000000000E+00  0.00000000000E+00  0.62880652083E+03  0.62880652083E+03  0.00000000000E+00 0.  1.
         21   -1    0    0  501  503 -0.00000000000E+00 -0.00000000000E+00 -0.38842622999E+03  0.38842622999E+03  0.00000000000E+00 0. -1.
    9000007    1    1    2  501    0 -0.15641393674E+03 -0.23808547821E+02 -0.13023922985E+03  0.44943789732E+03  0.40000000000E+03 0. -1.
   -9000007    1    1    2    0  502  0.15641393674E+03  0.23808547821E+02  0.37061952068E+03  0.56779485350E+03  0.40000000000E+03 0.  1.
<mgrwt>
<rscale>  2 0.43015365E+03</rscale>
<asrwt>0</asrwt>
<pdfrwt beam="1">  1       21 0.96739464E-01 0.43015365E+03</pdfrwt>
<pdfrwt beam="2">  1       21 0.59757882E-01 0.43015365E+03</pdfrwt>
<totfact> 0.20172378E+03</totfact>
</mgrwt>
</event>
<event>
 4    1  0.4732450E-002  0.5041557E+03  0.7818608E-02  0.1012700E+00
         21   -1    0    0  503  502  0.00000000000E+00  0.00000000000E+00  0.33087743611E+03  0.33087743611E+03  0.00000000000E+00 0.  1.
         21   -1    0    0  501  503 -0.00000000000E+00 -0.00000000000E+00 -0.77363913817E+03  0.77363913817E+03  0.00000000000E+00 0.  1.
    9000007    1    1    2  501    0  0.21975958017E+03  0.21419308836E+03 -0.17498358744E+03  0.53365926213E+03  0.40000000000E+03 0.  1.
   -9000007    1    1    2    0  502 -0.21975958017E+03 -0.21419308836E+03 -0.26777811462E+03  0.57085731216E+03  0.40000000000E+03 0.  1.
<mgrwt>
<rscale>  2 0.50415568E+03</rscale>
<asrwt>0</asrwt>
<pdfrwt beam="1">  1       21 0.50904221E-01 0.50415568E+03</pdfrwt>
<pdfrwt beam="2">  1       21 0.11902140E+00 0.50415568E+03</pdfrwt>
<totfact> 0.16634180E+03</totfact>
</mgrwt>
</event>
<event>
 4    1  0.4732450E-002  0.4630490E+03  0.7818608E-02  0.1023901E+00
         21   -1    0    0  501  502  0.00000000000E+00  0.00000000000E+00  0.34970356057E+03  0.34970356057E+03  0.00000000000E+00 0.  1.
         21   -1    0    0  502  503 -0.00000000000E+00 -0.00000000000E+00 -0.67173780833E+03  0.67173780833E+03  0.00000000000E+00 0.  1.
    9000007    1    1    2  501    0 -0.19296765769E+03 -0.13106450587E+03 -0.10164067739E+02  0.46316058758E+03  0.40000000000E+03 0.  1.
   -9000007    1    1    2    0  503  0.19296765769E+03  0.13106450587E+03 -0.31187018002E+03  0.55828078132E+03  0.40000000000E+03 0.  1.
<mgrwt>
<rscale>  2 0.46304905E+03</rscale>
<asrwt>0</asrwt>
<pdfrwt beam="1">  1       21 0.53800548E-01 0.46304905E+03</pdfrwt>
<pdfrwt beam="2">  1       21 0.10334428E+00 0.46304905E+03</pdfrwt>
<totfact> 0.21311222E+03</totfact>
</mgrwt>
</event>
<event>
 4    1  0.4732450E-002  0.5546973E+03  0.7818608E-02  0.1000413E+00
         21   -1    0    0  503  502  0.00000000000E+00  0.00000000000E+00  0.10988463680E+04  0.10988463680E+04  0.00000000000E+00 0. -1.
         21   -1    0    0  501  503 -0.00000000000E+00 -0.00000000000E+00 -0.50379666941E+03  0.50379666941E+03  0.00000000000E+00 0.  1.
    9000007    1    1    2  501    0  0.32497716727E+03 -0.20513141909E+03 -0.23654161250E+03  0.60302652744E+03  0.40000000000E+03 0.  1.
   -9000007    1    1    2    0  502 -0.32497716727E+03  0.20513141909E+03  0.83159131110E+03  0.99961650999E+03  0.40000000000E+03 0. -1.
<mgrwt>
<rscale>  2 0.55469727E+03</rscale>
<asrwt>0</asrwt>
<pdfrwt beam="1">  1       21 0.16905329E+00 0.55469727E+03</pdfrwt>
<pdfrwt beam="2">  1       21 0.77507180E-01 0.55469727E+03</pdfrwt>
<totfact> 0.24991470E+02</totfact>
</mgrwt>
</event>
<event>
 4    1  0.4732450E-002  0.4989004E+03  0.7818608E-02  0.1014066E+00
         21   -1    0    0  501  502  0.00000000000E+00  0.00000000000E+00  0.52701185042E+03  0.52701185042E+03  0.00000000000E+00 0.  1.
         21   -1    0    0  502  503 -0.00000000000E+00 -0.00000000000E+00 -0.48443532015E+03  0.48443532015E+03  0.00000000000E+00 0.  1.
    9000007    1    1    2  501    0 -0.28758338107E+03 -0.78723403786E+02  0.10136911548E+03  0.50909456189E+03  0.40000000000E+03 0.  1.
   -9000007    1    1    2    0  503  0.28758338107E+03  0.78723403786E+02 -0.58792585208E+02  0.50235260868E+03  0.40000000000E+03 0.  1.
<mgrwt>
<rscale>  2 0.49890037E+03</rscale>
<asrwt>0</asrwt>
<pdfrwt beam="1">  1       21 0.81078746E-01 0.49890037E+03</pdfrwt>
<pdfrwt beam="2">  1       21 0.74528511E-01 0.49890037E+03</pdfrwt>
<totfact> 0.18223215E+03</totfact>
</mgrwt>
</event>
<event>
 4    1  0.4732450E-002  0.4082482E+03  0.7818608E-02  0.1040960E+00
         21   -1    0    0  501  502  0.00000000000E+00  0.00000000000E+00  0.32331148832E+03  0.32331148832E+03  0.00000000000E+00 0. -1.
         21   -1    0    0  502  503 -0.00000000000E+00 -0.00000000000E+00 -0.64532888965E+03  0.64532888965E+03  0.00000000000E+00 0.  1.
    9000007    1    1    2  501    0  0.27215035575E+02 -0.76979994255E+02  0.56226524813E+02  0.41210192886E+03  0.40000000000E+03 0. -1.
   -9000007    1    1    2    0  503 -0.27215035575E+02  0.76979994255E+02 -0.37824392614E+03  0.55653844911E+03  0.40000000000E+03 0. -1.
<mgrwt>
<rscale>  2 0.40824818E+03</rscale>
<asrwt>0</asrwt>
<pdfrwt beam="1">  1       21 0.49740229E-01 0.40824818E+03</pdfrwt>
<pdfrwt beam="2">  1       21 0.99281367E-01 0.40824818E+03</pdfrwt>
<totfact> 0.28376264E+03</totfact>
</mgrwt>
</event>
<event>
 4    1  0.4732450E-002  0.4024765E+03  0.7818608E-02  0.1042926E+00
         21   -1    0    0  503  502  0.00000000000E+00  0.00000000000E+00  0.12088842693E+03  0.12088842693E+03  0.00000000000E+00 0.  1.
         21   -1    0    0  501  503 -0.00000000000E+00 -0.00000000000E+00 -0.14507262324E+04  0.14507262324E+04  0.00000000000E+00 0.  1.
    9000007    1    1    2  501    0  0.44549077375E+02  0.16400678280E+01 -0.44779870879E+03  0.60208885865E+03  0.40000000000E+03 0.  1.
   -9000007    1    1    2    0  502 -0.44549077375E+02 -0.16400678280E+01 -0.88203909664E+03  0.96952580065E+03  0.40000000000E+03 0.  1.
<mgrwt>
<rscale>  2 0.40247647E+03</rscale>
<asrwt>0</asrwt>
<pdfrwt beam="1">  1       21 0.18598220E-01 0.40247647E+03</pdfrwt>
<pdfrwt beam="2">  1       21 0.22318865E+00 0.40247647E+03</pdfrwt>
<totfact> 0.21843695E+03</totfact>
</mgrwt>
</event>
<event>
 4    1  0.4732450E-002  0.4269513E+03  0.7818608E-02  0.1034827E+00
         21   -1    0    0  501  502  0.00000000000E+00  0.00000000000E+00  0.25760640777E+03  0.25760640777E+03  0.00000000000E+00 0.  1.
         21   -1    0    0  502  503 -0.00000000000E+00 -0.00000000000E+00 -0.94005475407E+03  0.94005475407E+03  0.00000000000E+00 0.  1.
    9000007    1    1    2  501    0 -0.14664311578E+03  0.27986448553E+02 -0.43456234931E+02  0.42915718456E+03  0.40000000000E+03 0.  1.
   -9000007    1    1    2    0  503  0.14664311578E+03 -0.27986448553E+02 -0.63899211136E+03  0.76850397728E+03  0.40000000000E+03 0.  1.
<mgrwt>
<rscale>  2 0.42695134E+03</rscale>
<asrwt>0</asrwt>
<pdfrwt beam="1">  1       21 0.39631756E-01 0.42695134E+03</pdfrwt>
<pdfrwt beam="2">  1       21 0.14462381E+00 0.42695134E+03</pdfrwt>
<totfact> 0.17413975E+03</totfact>
</mgrwt>
</event>
<event>
 4    1  0.4732450E-002  0.6545831E+03  0.7818608E-02  0.9798217E-01
         21   -1    0    0  503  502  0.00000000000E+00  0.00000000000E+00  0.12347140168E+04  0.12347140168E+04  0.00000000000E+00 0.  1.
         21   -1    0    0  501  503 -0.00000000000E+00 -0.00000000000E+00 -0.40963637596E+03  0.40963637596E+03  0.00000000000E+00 0.  1.
    9000007    1    1    2  501    0 -0.31851341774E+03 -0.40869093109E+03  0.91109954840E+02  0.66089340919E+03  0.40000000000E+03 0.  1.
   -9000007    1    1    2    0  502  0.31851341774E+03  0.40869093109E+03  0.73396768597E+03  0.98345698354E+03  0.40000000000E+03 0.  1.
<mgrwt>
<rscale>  2 0.65458313E+03</rscale>
<asrwt>0</asrwt>
<pdfrwt beam="1">  1       21 0.18995600E+00 0.65458313E+03</pdfrwt>
<pdfrwt beam="2">  1       21 0.63020982E-01 0.65458313E+03</pdfrwt>
<totfact> 0.27298887E+02</totfact>
</mgrwt>
</event>
<event>
 4    1  0.4732450E-002  0.4127185E+03  0.7818608E-02  0.1039463E+00
         21   -1    0    0  503  502  0.00000000000E+00  0.00000000000E+00  0.13322139877E+04  0.13322139877E+04  0.00000000000E+00 0. -1.
         21   -1    0    0  501  503 -0.00000000000E+00 -0.00000000000E+00 -0.35548317533E+03  0.35548317533E+03  0.00000000000E+00 0. -1.
    9000007    1    1    2  501    0 -0.98486890372E+02  0.25236871128E+02 -0.18688283599E+03  0.45305823205E+03  0.40000000000E+03 0. -1.
   -9000007    1    1    2    0  502  0.98486890372E+02 -0.25236871128E+02  0.11636136483E+04  0.12346389310E+04  0.40000000000E+03 0. -1.
<mgrwt>
<rscale>  2 0.41271851E+03</rscale>
<asrwt>0</asrwt>
<pdfrwt beam="1">  1       21 0.20495600E+00 0.41271851E+03</pdfrwt>
<pdfrwt beam="2">  1       21 0.54689720E-01 0.41271851E+03</pdfrwt>
<totfact> 0.32770488E+02</totfact>
</mgrwt>
</event>
<event>
 4    1  0.4732450E-002  0.5400349E+03  0.7818608E-02  0.1003827E+00
         21   -1    0    0  503  502  0.00000000000E+00  0.00000000000E+00  0.86288958610E+03  0.86288958610E+03  0.00000000000E+00 0. -1.
         21   -1    0    0  501  503 -0.00000000000E+00 -0.00000000000E+00 -0.40186035455E+03  0.40186035455E+03  0.00000000000E+00 0. -1.
    9000007    1    1    2  501    0  0.27528326581E+03 -0.23634058172E+03 -0.21617024430E+02  0.54046742987E+03  0.40000000000E+03 0. -1.
   -9000007    1    1    2    0  502 -0.27528326581E+03  0.23634058172E+03  0.48264625599E+03  0.72428251078E+03  0.40000000000E+03 0. -1.
<mgrwt>
<rscale>  2 0.54003495E+03</rscale>
<asrwt>0</asrwt>
<pdfrwt beam="1">  1       21 0.13275224E+00 0.54003495E+03</pdfrwt>
<pdfrwt beam="2">  1       21 0.61824670E-01 0.54003495E+03</pdfrwt>
<totfact> 0.81178627E+02</totfact>
</mgrwt>
</event>
<event>
 4    1  0.4732450E-002  0.6024473E+03  0.7818608E-02  0.9900342E-01
         21   -1    0    0  503  502  0.00000000000E+00  0.00000000000E+00  0.21358269408E+04  0.21358269408E+04  0.00000000000E+00 0. -1.
         21   -1    0    0  501  503 -0.00000000000E+00 -0.00000000000E+00 -0.17168507882E+03  0.17168507882E+03  0.00000000000E+00 0. -1.
    9000007    1    1    2  501    0 -0.20141714353E+03 -0.40295649407E+03  0.10986970402E+04  0.12530275288E+04  0.40000000000E+03 0. -1.
   -9000007    1    1    2    0  502  0.20141714353E+03  0.40295649407E+03  0.86544482179E+03  0.10544844908E+04  0.40000000000E+03 0. -1.
<mgrwt>
<rscale>  2 0.60244734E+03</rscale>
<asrwt>0</asrwt>
<pdfrwt beam="1">  1       21 0.32858874E+00 0.60244734E+03</pdfrwt>
<pdfrwt beam="2">  1       21 0.26413091E-01 0.60244734E+03</pdfrwt>
<totfact> 0.22874902E+02</totfact>
</mgrwt>
</event>
<event>
 4    1  0.4732450E-002  0.5025869E+03  0.7818608E-02  0.1013106E+00
         21   -1    0    0  503  502  0.00000000000E+00  0.00000000000E+00  0.14019432838E+03  0.14019432838E+03  0.00000000000E+00 0. -1.
         21   -1    0    0  501  503 -0.00000000000E+00 -0.00000000000E+00 -0.18780420608E+04  0.18780420608E+04  0.00000000000E+00 0. -1.
    9000007    1    1    2  501    0 -0.30306144299E+03  0.27337671804E+02 -0.10723282974E+04  0.11842641445E+04  0.40000000000E+03 0. -1.
   -9000007    1    1    2    0  502  0.30306144299E+03 -0.27337671804E+02 -0.66551943507E+03  0.83397224473E+03  0.40000000000E+03 0. -1.
<mgrwt>
<rscale>  2 0.50258689E+03</rscale>
<asrwt>0</asrwt>
<pdfrwt beam="1">  1       21 0.21568359E-01 0.50258689E+03</pdfrwt>
<pdfrwt beam="2">  1       21 0.28892954E+00 0.50258689E+03</pdfrwt>
<totfact> 0.61938903E+02</totfact>
</mgrwt>
</event>
<event>
 4    1  0.4732450E-002  0.5244347E+03  0.7818608E-02  0.1007591E+00
         21   -1    0    0  501  502  0.00000000000E+00  0.00000000000E+00  0.14026666954E+04  0.14026666954E+04  0.00000000000E+00 0. -1.
         21   -1    0    0  502  503 -0.00000000000E+00 -0.00000000000E+00 -0.39350724120E+03  0.39350724120E+03  0.00000000000E+00 0.  1.
    9000007    1    1    2  501    0  0.28643437607E+03 -0.18162350954E+03  0.11407128752E+04  0.12554909855E+04  0.40000000000E+03 0. -1.
   -9000007    1    1    2    0  503 -0.28643437607E+03  0.18162350954E+03 -0.13155342101E+03  0.54068295109E+03  0.40000000000E+03 0.  1.
<mgrwt>
<rscale>  2 0.52443470E+03</rscale>
<asrwt>0</asrwt>
<pdfrwt beam="1">  1       21 0.21579487E+00 0.52443470E+03</pdfrwt>
<pdfrwt beam="2">  1       21 0.60539576E-01 0.52443470E+03</pdfrwt>
<totfact> 0.21083682E+02</totfact>
</mgrwt>
</event>
<event>
 4    1  0.4732450E-002  0.6086007E+03  0.7818608E-02  0.9887721E-01
         21   -1    0    0  501  502  0.00000000000E+00  0.00000000000E+00  0.33077313415E+03  0.33077313415E+03  0.00000000000E+00 0.  1.
         21   -1    0    0  502  503 -0.00000000000E+00 -0.00000000000E+00 -0.13717421063E+04  0.13717421063E+04  0.00000000000E+00 0.  1.
    9000007    1    1    2  501    0  0.36671555441E+03  0.27552580160E+03 -0.15565648906E+03  0.62819082115E+03  0.40000000000E+03 0. -1.
   -9000007    1    1    2    0  503 -0.36671555441E+03 -0.27552580160E+03 -0.88531248308E+03  0.10743244193E+04  0.40000000000E+03 0. -1.
<mgrwt>
<rscale>  2 0.60860066E+03</rscale>
<asrwt>0</asrwt>
<pdfrwt beam="1">  1       21 0.50888174E-01 0.60860066E+03</pdfrwt>
<pdfrwt beam="2">  1       21 0.21103725E+00 0.60860066E+03</pdfrwt>
<totfact> 0.31901343E+02</totfact>
</mgrwt>
</event>
<event>
 4    1  0.4732450E-002  0.6976583E+03  0.7818608E-02  0.9721245E-01
         21   -1    0    0  503  502  0.00000000000E+00  0.00000000000E+00  0.79033920891E+03  0.79033920891E+03  0.00000000000E+00 0. -1.
         21   -1    0    0  501  503 -0.00000000000E+00 -0.00000000000E+00 -0.61925459563E+03  0.61925459563E+03  0.00000000000E+00 0. -1.
    9000007    1    1    2  501    0  0.11777778367E+03  0.55933489665E+03  0.13783316545E+03  0.71114352590E+03  0.40000000000E+03 0. -1.
   -9000007    1    1    2    0  502 -0.11777778367E+03 -0.55933489665E+03  0.33251447831E+02  0.69845027863E+03  0.40000000000E+03 0. -1.
<mgrwt>
<rscale>  2 0.69765832E+03</rscale>
<asrwt>0</asrwt>
<pdfrwt beam="1">  1       21 0.12159065E+00 0.69765832E+03</pdfrwt>
<pdfrwt beam="2">  1       21 0.95269937E-01 0.69765832E+03</pdfrwt>
<totfact> 0.35703932E+02</totfact>
</mgrwt>
</event>
<event>
 4    1  0.4732450E-002  0.4508704E+03  0.7818608E-02  0.1027463E+00
         21   -1    0    0  503  502  0.00000000000E+00  0.00000000000E+00  0.43075522475E+03  0.43075522475E+03  0.00000000000E+00 0.  1.
         21   -1    0    0  501  503 -0.00000000000E+00 -0.00000000000E+00 -0.68439719213E+03  0.68439719213E+03  0.00000000000E+00 0.  1.
    9000007    1    1    2  501    0  0.20727648942E+03  0.17903577571E+02 -0.43749244471E+03  0.62823858552E+03  0.40000000000E+03 0.  1.
   -9000007    1    1    2    0  502 -0.20727648942E+03 -0.17903577571E+02  0.18385047732E+03  0.48691383136E+03  0.40000000000E+03 0.  1.
<mgrwt>
<rscale>  2 0.45087036E+03</rscale>
<asrwt>0</asrwt>
<pdfrwt beam="1">  1       21 0.66270035E-01 0.45087036E+03</pdfrwt>
<pdfrwt beam="2">  1       21 0.10529188E+00 0.45087036E+03</pdfrwt>
<totfact> 0.12953009E+03</totfact>
</mgrwt>
</event>
<event>
 4    1  0.4732450E-002  0.4698876E+03  0.7818608E-02  0.1021952E+00
         21   -1    0    0  501  502  0.00000000000E+00  0.00000000000E+00  0.11489309502E+04  0.11489309502E+04  0.00000000000E+00 0.  1.
         21   -1    0    0  502  503 -0.00000000000E+00 -0.00000000000E+00 -0.28135459097E+03  0.28135459097E+03  0.00000000000E+00 0.  1.
    9000007    1    1    2  501    0 -0.23303155627E+03  0.80564682583E+02  0.83641390518E+03  0.95936572541E+03  0.40000000000E+03 0.  1.
   -9000007    1    1    2    0  503  0.23303155627E+03 -0.80564682583E+02  0.31162454014E+02  0.47091981572E+03  0.40000000000E+03 0.  1.
<mgrwt>
<rscale>  2 0.46988762E+03</rscale>
<asrwt>0</asrwt>
<pdfrwt beam="1">  1       21 0.17675861E+00 0.46988762E+03</pdfrwt>
<pdfrwt beam="2">  1       21 0.43285322E-01 0.46988762E+03</pdfrwt>
<totfact> 0.81465053E+02</totfact>
</mgrwt>
</event>
<event>
 4    1  0.4732450E-002  0.4312442E+03  0.7818608E-02  0.1033468E+00
         21   -1    0    0  501  502  0.00000000000E+00  0.00000000000E+00  0.77333011534E+03  0.77333011534E+03  0.00000000000E+00 0.  1.
         21   -1    0    0  502  503 -0.00000000000E+00 -0.00000000000E+00 -0.35114434327E+03  0.35114434327E+03  0.00000000000E+00 0.  1.
    9000007    1    1    2  501    0  0.15884944925E+03 -0.27174060638E+02  0.52672246533E+03  0.68074087036E+03  0.40000000000E+03 0.  1.
   -9000007    1    1    2    0  503 -0.15884944925E+03  0.27174060638E+02 -0.10453669326E+03  0.44373358824E+03  0.40000000000E+03 0.  1.
<mgrwt>
<rscale>  2 0.43124422E+03</rscale>
<asrwt>0</asrwt>
<pdfrwt beam="1">  1       21 0.11897386E+00 0.43124422E+03</pdfrwt>
<pdfrwt beam="2">  1       21 0.54022207E-01 0.43124422E+03</pdfrwt>
<totfact> 0.15069845E+03</totfact>
</mgrwt>
</event>
<event>
 4    1  0.4732450E-002  0.4571609E+03  0.7818608E-02  0.1025608E+00
         21   -1    0    0  503  502  0.00000000000E+00  0.00000000000E+00  0.36611368863E+03  0.36611368863E+03  0.00000000000E+00 0.  1.
         21   -1    0    0  501  503 -0.00000000000E+00 -0.00000000000E+00 -0.81677509593E+03  0.81677509593E+03  0.00000000000E+00 0.  1.
    9000007    1    1    2  501    0 -0.19911538562E+03 -0.96691125491E+02 -0.54986741491E+03  0.71508760619E+03  0.40000000000E+03 0.  1.
   -9000007    1    1    2    0  502  0.19911538562E+03  0.96691125491E+02  0.99206007622E+02  0.46780117837E+03  0.40000000000E+03 0.  1.
<mgrwt>
<rscale>  2 0.45716092E+03</rscale>
<asrwt>0</asrwt>
<pdfrwt beam="1">  1       21 0.56325184E-01 0.45716092E+03</pdfrwt>
<pdfrwt beam="2">  1       21 0.12565770E+00 0.45716092E+03</pdfrwt>
<totfact> 0.11848046E+03</totfact>
</mgrwt>
</event>
<event>
 4    1  0.4732450E-002  0.4876334E+03  0.7818608E-02  0.1017058E+00
         21   -1    0    0  501  502  0.00000000000E+00  0.00000000000E+00  0.23239574091E+03  0.23239574091E+03  0.00000000000E+00 0. -1.
         21   -1    0    0  502  503 -0.00000000000E+00 -0.00000000000E+00 -0.14286358977E+04  0.14286358977E+04  0.00000000000E+00 0.  1.
    9000007    1    1    2  501    0 -0.13435034780E+03  0.24441021804E+03 -0.15568411426E+03  0.51188271515E+03  0.40000000000E+03 0.  1.
   -9000007    1    1    2    0  503  0.13435034780E+03 -0.24441021804E+03 -0.10405560425E+04  0.11491489234E+04  0.40000000000E+03 0.  1.
<mgrwt>
<rscale>  2 0.48763344E+03</rscale>
<asrwt>0</asrwt>
<pdfrwt beam="1">  1       21 0.35753190E-01 0.48763344E+03</pdfrwt>
<pdfrwt beam="2">  1       21 0.21979014E+00 0.48763344E+03</pdfrwt>
<totfact> 0.61454239E+02</totfact>
</mgrwt>
</event>
<event>
 4    1  0.4732450E-002  0.4228523E+03  0.7818608E-02  0.1036142E+00
         21   -1    0    0  501  502  0.00000000000E+00  0.00000000000E+00  0.56085482008E+03  0.56085482008E+03  0.00000000000E+00 0. -1.
         21   -1    0    0  502  503 -0.00000000000E+00 -0.00000000000E+00 -0.11101502783E+04  0.11101502783E+04  0.00000000000E+00 0. -1.
    9000007    1    1    2  501    0 -0.12887815790E+03 -0.46845494464E+02  0.43075888849E+03  0.60362016198E+03  0.40000000000E+03 0. -1.
   -9000007    1    1    2    0  503  0.12887815790E+03  0.46845494464E+02 -0.98005434675E+03  0.10673849364E+04  0.40000000000E+03 0. -1.
<mgrwt>
<rscale>  2 0.42285231E+03</rscale>
<asrwt>0</asrwt>
<pdfrwt beam="1">  1       21 0.86285358E-01 0.42285231E+03</pdfrwt>
<pdfrwt beam="2">  1       21 0.17079235E+00 0.42285231E+03</pdfrwt>
<totfact> 0.20131205E+02</totfact>
</mgrwt>
</event>
<event>
 4    1  0.4732450E-002  0.5496324E+03  0.7818608E-02  0.1001579E+00
         21   -1    0    0  503  502  0.00000000000E+00  0.00000000000E+00  0.81581843600E+03  0.81581843600E+03  0.00000000000E+00 0. -1.
         21   -1    0    0  501  503 -0.00000000000E+00 -0.00000000000E+00 -0.37067368489E+03  0.37067368489E+03  0.00000000000E+00 0. -1.
    9000007    1    1    2  501    0  0.36952993921E+03  0.74454322906E+02  0.20368242056E+03  0.58615898067E+03  0.40000000000E+03 0. -1.
   -9000007    1    1    2    0  502 -0.36952993921E+03 -0.74454322906E+02  0.24146233055E+03  0.60033314022E+03  0.40000000000E+03 0. -1.
<mgrwt>
<rscale>  2 0.54963244E+03</rscale>
<asrwt>0</asrwt>
<pdfrwt beam="1">  1       21 0.12551053E+00 0.54963244E+03</pdfrwt>
<pdfrwt beam="2">  1       21 0.57026721E-01 0.54963244E+03</pdfrwt>
<totfact> 0.11183237E+03</totfact>
</mgrwt>
</event>
<event>
 4    1  0.4732450E-002  0.4041270E+03  0.7818608E-02  0.1042360E+00
         21   -1    0    0  501  502  0.00000000000E+00  0.00000000000E+00  0.26176646297E+03  0.26176646297E+03  0.00000000000E+00 0.  1.
         21   -1    0    0  502  503 -0.00000000000E+00 -0.00000000000E+00 -0.72320224313E+03  0.72320224313E+03  0.00000000000E+00 0.  1.
    9000007    1    1    2  501    0  0.42644967111E+02  0.38730678240E+02 -0.48235619021E+02  0.40699549580E+03  0.40000000000E+03 0.  1.
   -9000007    1    1    2    0  503 -0.42644967111E+02 -0.38730678240E+02 -0.41320016114E+03  0.57797321030E+03  0.40000000000E+03 0.  1.
<mgrwt>
<rscale>  2 0.40412703E+03</rscale>
<asrwt>0</asrwt>
<pdfrwt beam="1">  1       21 0.40271764E-01 0.40412703E+03</pdfrwt>
<pdfrwt beam="2">  1       21 0.11126188E+00 0.40412703E+03</pdfrwt>
<totfact> 0.33408583E+03</totfact>
</mgrwt>
</event>
<event>
 4    1  0.4732450E-002  0.4581733E+03  0.7818608E-02  0.1025312E+00
         21   -1    0    0  501  502  0.00000000000E+00  0.00000000000E+00  0.72948004620E+03  0.72948004620E+03  0.00000000000E+00 0. -1.
         21   -1    0    0  502  503 -0.00000000000E+00 -0.00000000000E+00 -0.39154473983E+03  0.39154473983E+03  0.00000000000E+00 0. -1.
    9000007    1    1    2  501    0  0.16391931430E+03  0.15183288232E+03  0.45752989877E+03  0.64750009577E+03  0.40000000000E+03 0. -1.
   -9000007    1    1    2    0  503 -0.16391931430E+03 -0.15183288232E+03 -0.11959459240E+03  0.47352469026E+03  0.40000000000E+03 0. -1.
<mgrwt>
<rscale>  2 0.45817329E+03</rscale>
<asrwt>0</asrwt>
<pdfrwt beam="1">  1       21 0.11222770E+00 0.45817329E+03</pdfrwt>
<pdfrwt beam="2">  1       21 0.60237652E-01 0.45817329E+03</pdfrwt>
<totfact> 0.13619659E+03</totfact>
</mgrwt>
</event>
<event>
 4    1  0.4732450E-002  0.4735146E+03  0.7818608E-02  0.1020933E+00
         21   -1    0    0  501  502  0.00000000000E+00  0.00000000000E+00  0.87026008983E+03  0.87026008983E+03  0.00000000000E+00 0. -1.
         21   -1    0    0  502  503 -0.00000000000E+00 -0.00000000000E+00 -0.30781123135E+03  0.30781123135E+03  0.00000000000E+00 0.  1.
    9000007    1    1    2  501    0 -0.60578855069E+01  0.25333654609E+03  0.51902633331E+03  0.70256988138E+03  0.40000000000E+03 0. -1.
   -9000007    1    1    2    0  503  0.60578855069E+01 -0.25333654609E+03  0.43422525173E+02  0.47550143980E+03  0.40000000000E+03 0.  1.
<mgrwt>
<rscale>  2 0.47351463E+03</rscale>
<asrwt>0</asrwt>
<pdfrwt beam="1">  1       21 0.13388617E+00 0.47351463E+03</pdfrwt>
<pdfrwt beam="2">  1       21 0.47355574E-01 0.47351463E+03</pdfrwt>
<totfact> 0.14471187E+03</totfact>
</mgrwt>
</event>
<event>
 4    1  0.4732450E-002  0.5566123E+03  0.7818608E-02  0.9999749E-01
         21   -1    0    0  501  502  0.00000000000E+00  0.00000000000E+00  0.19382118196E+04  0.19382118196E+04  0.00000000000E+00 0. -1.
         21   -1    0    0  502  503 -0.00000000000E+00 -0.00000000000E+00 -0.24915670153E+03  0.24915670153E+03  0.00000000000E+00 0.  1.
    9000007    1    1    2  501    0 -0.16429645611E+03 -0.35046241716E+03  0.14993222311E+04  0.15993074701E+04  0.40000000000E+03 0. -1.
   -9000007    1    1    2    0  503  0.16429645611E+03  0.35046241716E+03  0.18973288700E+03  0.58806105103E+03  0.40000000000E+03 0.  1.
<mgrwt>
<rscale>  2 0.55661228E+03</rscale>
<asrwt>0</asrwt>
<pdfrwt beam="1">  1       21 0.29818642E+00 0.55661228E+03</pdfrwt>
<pdfrwt beam="2">  1       21 0.38331801E-01 0.55661228E+03</pdfrwt>
<totfact> 0.16933118E+02</totfact>
</mgrwt>
</event>
<event>
 4    1  0.4732450E-002  0.4450645E+03  0.7818608E-02  0.1029204E+00
         21   -1    0    0  501  502  0.00000000000E+00  0.00000000000E+00  0.48717074326E+03  0.48717074326E+03  0.00000000000E+00 0.  1.
         21   -1    0    0  502  503 -0.00000000000E+00 -0.00000000000E+00 -0.41104465316E+03  0.41104465316E+03  0.00000000000E+00 0. -1.
    9000007    1    1    2  501    0 -0.19513665548E+03  0.20163695485E+01 -0.86512360500E+01  0.44514854144E+03  0.40000000000E+03 0.  1.
   -9000007    1    1    2    0  503  0.19513665548E+03 -0.20163695485E+01  0.84777326155E+02  0.45306685499E+03  0.40000000000E+03 0. -1.
<mgrwt>
<rscale>  2 0.44506447E+03</rscale>
<asrwt>0</asrwt>
<pdfrwt beam="1">  1       21 0.74949345E-01 0.44506447E+03</pdfrwt>
<pdfrwt beam="2">  1       21 0.63237639E-01 0.44506447E+03</pdfrwt>
<totfact> 0.32182822E+03</totfact>
</mgrwt>
</event>
<event>
 4    1  0.4732450E-002  0.4004994E+03  0.7818608E-02  0.1043607E+00
         21   -1    0    0  501  502  0.00000000000E+00  0.00000000000E+00  0.13534212441E+04  0.13534212441E+04  0.00000000000E+00 0. -1.
         21   -1    0    0  502  503 -0.00000000000E+00 -0.00000000000E+00 -0.12021320363E+03  0.12021320363E+03  0.00000000000E+00 0. -1.
    9000007    1    1    2  501    0 -0.19715780290E+02 -0.33203359687E+01  0.52901063008E+03  0.66351487049E+03  0.40000000000E+03 0.  1.
   -9000007    1    1    2    0  503  0.19715780290E+02  0.33203359687E+01  0.70419741042E+03  0.81011957726E+03  0.40000000000E+03 0.  1.
<mgrwt>
<rscale>  2 0.40049936E+03</rscale>
<asrwt>0</asrwt>
<pdfrwt beam="1">  1       21 0.20821864E+00 0.40049936E+03</pdfrwt>
<pdfrwt beam="2">  1       21 0.18494340E-01 0.40049936E+03</pdfrwt>
<totfact> 0.27567807E+03</totfact>
</mgrwt>
</event>
<event>
 4    1  0.4732450E-002  0.4475622E+03  0.7818608E-02  0.1028452E+00
         21   -1    0    0  503  502  0.00000000000E+00  0.00000000000E+00  0.40317231589E+03  0.40317231589E+03  0.00000000000E+00 0.  1.
         21   -1    0    0  501  503 -0.00000000000E+00 -0.00000000000E+00 -0.77704837903E+03  0.77704837903E+03  0.00000000000E+00 0.  1.
    9000007    1    1    2  501    0  0.10361537427E+03  0.17197606819E+03 -0.54130250996E+03  0.70236765380E+03  0.40000000000E+03 0.  1.
   -9000007    1    1    2    0  502 -0.10361537427E+03 -0.17197606819E+03  0.16742644681E+03  0.47785304112E+03  0.40000000000E+03 0.  1.
<mgrwt>
<rscale>  2 0.44756219E+03</rscale>
<asrwt>0</asrwt>
<pdfrwt beam="1">  1       21 0.62026510E-01 0.44756219E+03</pdfrwt>
<pdfrwt beam="2">  1       21 0.11954590E+00 0.44756219E+03</pdfrwt>
<totfact> 0.10945899E+03</totfact>
</mgrwt>
</event>
<event>
 4    1  0.4732450E-002  0.4228178E+03  0.7818608E-02  0.1036153E+00
         21   -1    0    0  501  502  0.00000000000E+00  0.00000000000E+00  0.11304903702E+04  0.11304903702E+04  0.00000000000E+00 0. -1.
         21   -1    0    0  502  503 -0.00000000000E+00 -0.00000000000E+00 -0.18142115402E+03  0.18142115402E+03  0.00000000000E+00 0. -1.
    9000007    1    1    2  501    0  0.11804099350E+03 -0.69578616502E+02  0.70951961857E+03  0.82594972556E+03  0.40000000000E+03 0.  1.
   -9000007    1    1    2    0  503 -0.11804099350E+03  0.69578616502E+02  0.23954959757E+03  0.48596179862E+03  0.40000000000E+03 0.  1.
<mgrwt>
<rscale>  2 0.42281776E+03</rscale>
<asrwt>0</asrwt>
<pdfrwt beam="1">  1       21 0.17392159E+00 0.42281776E+03</pdfrwt>
<pdfrwt beam="2">  1       21 0.27910947E-01 0.42281776E+03</pdfrwt>
<totfact> 0.21171401E+03</totfact>
</mgrwt>
</event>
<event>
 4    1  0.4732450E-002  0.5214189E+03  0.7818608E-02  0.1008335E+00
         21   -1    0    0  503  502  0.00000000000E+00  0.00000000000E+00  0.48588774590E+03  0.48588774590E+03  0.00000000000E+00 0. -1.
         21   -1    0    0  501  503 -0.00000000000E+00 -0.00000000000E+00 -0.56439143791E+03  0.56439143791E+03  0.00000000000E+00 0. -1.
    9000007    1    1    2  501    0 -0.11457577758E+03 -0.31424526792E+03 -0.87897577868E+02  0.52877564374E+03  0.40000000000E+03 0. -1.
   -9000007    1    1    2    0  502  0.11457577758E+03  0.31424526792E+03  0.93938858543E+01  0.52150354007E+03  0.40000000000E+03 0. -1.
<mgrwt>
<rscale>  2 0.52141893E+03</rscale>
<asrwt>0</asrwt>
<pdfrwt beam="1">  1       21 0.74751962E-01 0.52141893E+03</pdfrwt>
<pdfrwt beam="2">  1       21 0.86829451E-01 0.52141893E+03</pdfrwt>
<totfact> 0.15301919E+03</totfact>
</mgrwt>
</event>
<event>
 4    1  0.4732450E-002  0.4341595E+03  0.7818608E-02  0.1032554E+00
         21   -1    0    0  501  502  0.00000000000E+00  0.00000000000E+00  0.55839835846E+03  0.55839835846E+03  0.00000000000E+00 0. -1.
         21   -1    0    0  502  503 -0.00000000000E+00 -0.00000000000E+00 -0.51611833642E+03  0.51611833642E+03  0.00000000000E+00 0.  1.
    9000007    1    1    2  501    0  0.80914672627E+02  0.14814612459E+03  0.33714599565E+03  0.54969253302E+03  0.40000000000E+03 0. -1.
   -9000007    1    1    2    0  503 -0.80914672627E+02 -0.14814612459E+03 -0.29486597360E+03  0.52482416185E+03  0.40000000000E+03 0.  1.
<mgrwt>
<rscale>  2 0.43415949E+03</rscale>
<asrwt>0</asrwt>
<pdfrwt beam="1">  1       21 0.85907439E-01 0.43415949E+03</pdfrwt>
<pdfrwt beam="2">  1       21 0.79402821E-01 0.43415949E+03</pdfrwt>
<totfact> 0.14105945E+03</totfact>
</mgrwt>
</event>
<event>
 4    1  0.4732450E-002  0.4343864E+03  0.7818608E-02  0.1032483E+00
         21   -1    0    0  501  502  0.00000000000E+00  0.00000000000E+00  0.95645245961E+03  0.95645245961E+03  0.00000000000E+00 0.  1.
         21   -1    0    0  502  503 -0.00000000000E+00 -0.00000000000E+00 -0.41052154512E+03  0.41052154512E+03  0.00000000000E+00 0.  1.
    9000007    1    1    2  501    0  0.15172434640E+03 -0.75307917495E+02  0.76556658890E+03  0.88021801945E+03  0.40000000000E+03 0.  1.
   -9000007    1    1    2    0  503 -0.15172434640E+03  0.75307917495E+02 -0.21963567441E+03  0.48675598528E+03  0.40000000000E+03 0.  1.
<mgrwt>
<rscale>  2 0.43438642E+03</rscale>
<asrwt>0</asrwt>
<pdfrwt beam="1">  1       21 0.14714653E+00 0.43438642E+03</pdfrwt>
<pdfrwt beam="2">  1       21 0.63157161E-01 0.43438642E+03</pdfrwt>
<totfact> 0.61464815E+02</totfact>
</mgrwt>
</event>
<event>
 4    1  0.4732450E-002  0.5265206E+03  0.7818608E-02  0.1007079E+00
         21   -1    0    0  501  502  0.00000000000E+00  0.00000000000E+00  0.46979976812E+03  0.46979976812E+03  0.00000000000E+00 0.  1.
         21   -1    0    0  502  503 -0.00000000000E+00 -0.00000000000E+00 -0.68418243844E+03  0.68418243844E+03  0.00000000000E+00 0.  1.
    9000007    1    1    2  501    0  0.18104178041E+03  0.29059905128E+03  0.10678293336E+03  0.53723973207E+03  0.40000000000E+03 0.  1.
   -9000007    1    1    2    0  503 -0.18104178041E+03 -0.29059905128E+03 -0.32116560367E+03  0.61674247449E+03  0.40000000000E+03 0.  1.
<mgrwt>
<rscale>  2 0.52652059E+03</rscale>
<asrwt>0</asrwt>
<pdfrwt beam="1">  1       21 0.72276888E-01 0.52652059E+03</pdfrwt>
<pdfrwt beam="2">  1       21 0.10525884E+00 0.52652059E+03</pdfrwt>
<totfact> 0.10366289E+03</totfact>
</mgrwt>
</event>
<event>
 4    1  0.4732450E-002  0.4042794E+03  0.7818608E-02  0.1042308E+00
         21   -1    0    0  501  502  0.00000000000E+00  0.00000000000E+00  0.99018871228E+03  0.99018871228E+03  0.00000000000E+00 0.  1.
         21   -1    0    0  502  503 -0.00000000000E+00 -0.00000000000E+00 -0.34635741502E+03  0.34635741502E+03  0.00000000000E+00 0.  1.
    9000007    1    1    2  501    0 -0.20237085368E+02 -0.55065996427E+02  0.80540398263E+03  0.90117555383E+03  0.40000000000E+03 0.  1.
   -9000007    1    1    2    0  503  0.20237085368E+02  0.55065996427E+02 -0.16157268537E+03  0.43537057347E+03  0.40000000000E+03 0.  1.
<mgrwt>
<rscale>  2 0.40427936E+03</rscale>
<asrwt>0</asrwt>
<pdfrwt beam="1">  1       21 0.15233672E+00 0.40427936E+03</pdfrwt>
<pdfrwt beam="2">  1       21 0.53285756E-01 0.40427936E+03</pdfrwt>
<totfact> 0.82171494E+02</totfact>
</mgrwt>
</event>
<event>
 4    1  0.4732450E-002  0.4118049E+03  0.7818608E-02  0.1039767E+00
         21   -1    0    0  501  502  0.00000000000E+00  0.00000000000E+00  0.32075031149E+03  0.32075031149E+03  0.00000000000E+00 0. -1.
         21   -1    0    0  502  503 -0.00000000000E+00 -0.00000000000E+00 -0.87364106224E+03  0.87364106224E+03  0.00000000000E+00 0. -1.
    9000007    1    1    2  501    0 -0.96393107827E+02 -0.17077979295E+02 -0.65169260163E+03  0.77089982205E+03  0.40000000000E+03 0. -1.
   -9000007    1    1    2    0  503  0.96393107827E+02  0.17077979295E+02  0.98801850884E+02  0.42349155169E+03  0.40000000000E+03 0. -1.
<mgrwt>
<rscale>  2 0.41180492E+03</rscale>
<asrwt>0</asrwt>
<pdfrwt beam="1">  1       21 0.49346201E-01 0.41180492E+03</pdfrwt>
<pdfrwt beam="2">  1       21 0.13440632E+00 0.41180492E+03</pdfrwt>
<totfact> 0.13469243E+03</totfact>
</mgrwt>
</event>
<event>
 4    1  0.4732450E-002  0.5541605E+03  0.7818608E-02  0.1000536E+00
         21   -1    0    0  501  502  0.00000000000E+00  0.00000000000E+00  0.26691209451E+03  0.26691209451E+03  0.00000000000E+00 0. -1.
         21   -1    0    0  502  503 -0.00000000000E+00 -0.00000000000E+00 -0.13016754390E+04  0.13016754390E+04  0.00000000000E+00 0.  1.
    9000007    1    1    2  501    0 -0.37919521096E+03 -0.57487731810E+02 -0.25013874206E+03  0.60799937303E+03  0.40000000000E+03 0. -1.
   -9000007    1    1    2    0  503  0.37919521096E+03  0.57487731810E+02 -0.78462460244E+03  0.96058816049E+03  0.40000000000E+03 0.  1.
<mgrwt>
<rscale>  2 0.55416049E+03</rscale>
<asrwt>0</asrwt>
<pdfrwt beam="1">  1       21 0.41063398E-01 0.55416049E+03</pdfrwt>
<pdfrwt beam="2">  1       21 0.20025776E+00 0.55416049E+03</pdfrwt>
<totfact> 0.60423936E+02</totfact>
</mgrwt>
</event>
<event>
 4    1  0.4732450E-002  0.4229215E+03  0.7818608E-02  0.1036120E+00
         21   -1    0    0  501  502  0.00000000000E+00  0.00000000000E+00  0.18789372144E+04  0.18789372144E+04  0.00000000000E+00 0.  1.
         21   -1    0    0  502  503 -0.00000000000E+00 -0.00000000000E+00 -0.95203873217E+02  0.95203873217E+02  0.00000000000E+00 0.  1.
    9000007    1    1    2  501    0  0.12333883808E+03  0.60416201516E+02  0.90217616612E+03  0.99638567889E+03  0.40000000000E+03 0.  1.
   -9000007    1    1    2    0  503 -0.12333883808E+03 -0.60416201516E+02  0.88155717506E+03  0.97775540872E+03  0.40000000000E+03 0.  1.
<mgrwt>
<rscale>  2 0.42292149E+03</rscale>
<asrwt>0</asrwt>
<pdfrwt beam="1">  1       21 0.28906724E+00 0.42292149E+03</pdfrwt>
<pdfrwt beam="2">  1       21 0.14646751E-01 0.42292149E+03</pdfrwt>
<totfact> 0.13358954E+03</totfact>
</mgrwt>
</event>
<event>
 4    1  0.4732450E-002  0.5197566E+03  0.7818608E-02  0.1008747E+00
         21   -1    0    0  503  502  0.00000000000E+00  0.00000000000E+00  0.11557558404E+03  0.11557558404E+03  0.00000000000E+00 0.  1.
         21   -1    0    0  501  503 -0.00000000000E+00 -0.00000000000E+00 -0.27399991635E+04  0.27399991635E+04  0.00000000000E+00 0. -1.
    9000007    1    1    2  501    0 -0.27265582740E+03  0.18922407909E+03 -0.18595074937E+04  0.19307809486E+04  0.40000000000E+03 0. -1.
   -9000007    1    1    2    0  502  0.27265582740E+03 -0.18922407909E+03 -0.76491608575E+03  0.92479379895E+03  0.40000000000E+03 0.  1.
<mgrwt>
<rscale>  2 0.51975663E+03</rscale>
<asrwt>0</asrwt>
<pdfrwt beam="1">  1       21 0.17780858E-01 0.51975663E+03</pdfrwt>
<pdfrwt beam="2">  1       21 0.42153835E+00 0.51975663E+03</pdfrwt>
<totfact> 0.13219625E+02</totfact>
</mgrwt>
</event>
<event>
 4    1  0.4732450E-002  0.4119624E+03  0.7818608E-02  0.1039714E+00
         21   -1    0    0  503  502  0.00000000000E+00  0.00000000000E+00  0.10568791783E+03  0.10568791783E+03  0.00000000000E+00 0. -1.
         21   -1    0    0  501  503 -0.00000000000E+00 -0.00000000000E+00 -0.17391403540E+04  0.17391403540E+04  0.00000000000E+00 0. -1.
    9000007    1    1    2  501    0 -0.97537076826E+02 -0.14127097117E+02 -0.10721425802E+04  0.11485655265E+04  0.40000000000E+03 0. -1.
   -9000007    1    1    2    0  502  0.97537076826E+02  0.14127097117E+02 -0.56130985596E+03  0.69626274539E+03  0.40000000000E+03 0. -1.
<mgrwt>
<rscale>  2 0.41196245E+03</rscale>
<asrwt>0</asrwt>
<pdfrwt beam="1">  1       21 0.16259679E-01 0.41196245E+03</pdfrwt>
<pdfrwt beam="2">  1       21 0.26756007E+00 0.41196245E+03</pdfrwt>
<totfact> 0.14908056E+03</totfact>
</mgrwt>
</event>
<event>
 4    1  0.4732450E-002  0.5025609E+03  0.7818608E-02  0.1013113E+00
         21   -1    0    0  501  502  0.00000000000E+00  0.00000000000E+00  0.68580427988E+03  0.68580427988E+03  0.00000000000E+00 0.  1.
         21   -1    0    0  502  503 -0.00000000000E+00 -0.00000000000E+00 -0.74436985819E+03  0.74436985819E+03  0.00000000000E+00 0. -1.
    9000007    1    1    2  501    0 -0.23386255044E+03 -0.19461686400E+03  0.47900635933E+03  0.69427264712E+03  0.40000000000E+03 0.  1.
   -9000007    1    1    2    0  503  0.23386255044E+03  0.19461686400E+03 -0.53757193763E+03  0.73590149095E+03  0.40000000000E+03 0. -1.
<mgrwt>
<rscale>  2 0.50256086E+03</rscale>
<asrwt>0</asrwt>
<pdfrwt beam="1">  1       21 0.10550835E+00 0.50256086E+03</pdfrwt>
<pdfrwt beam="2">  1       21 0.11451844E+00 0.50256086E+03</pdfrwt>
<totfact> 0.34665172E+02</totfact>
</mgrwt>
</event>
<event>
 4    1  0.4732450E-002  0.4569632E+03  0.7818608E-02  0.1025666E+00
         21   -1    0    0  503  502  0.00000000000E+00  0.00000000000E+00  0.10973984181E+04  0.10973984181E+04  0.00000000000E+00 0. -1.
         21   -1    0    0  501  503 -0.00000000000E+00 -0.00000000000E+00 -0.23213317744E+03  0.23213317744E+03  0.00000000000E+00 0.  1.
    9000007    1    1    2  501    0 -0.15735603206E+03  0.15509488134E+03  0.15037019994E+03  0.48106812415E+03  0.40000000000E+03 0.  1.
   -9000007    1    1    2    0  502  0.15735603206E+03 -0.15509488134E+03  0.71489504072E+03  0.84846347139E+03  0.40000000000E+03 0. -1.
<mgrwt>
<rscale>  2 0.45696317E+03</rscale>
<asrwt>0</asrwt>
<pdfrwt beam="1">  1       21 0.16883052E+00 0.45696317E+03</pdfrwt>
<pdfrwt beam="2">  1       21 0.35712797E-01 0.45696317E+03</pdfrwt>
<totfact> 0.13879463E+03</totfact>
</mgrwt>
</event>
<event>
 4    1  0.4732450E-002  0.4706046E+03  0.7818608E-02  0.1021750E+00
         21   -1    0    0  503  502  0.00000000000E+00  0.00000000000E+00  0.27747091877E+03  0.27747091877E+03  0.00000000000E+00 0.  1.
         21   -1    0    0  501  503 -0.00000000000E+00 -0.00000000000E+00 -0.79819582898E+03  0.79819582898E+03  0.00000000000E+00 0.  1.
    9000007    1    1    2  501    0  0.23971326446E+03  0.63294869131E+02 -0.25724512546E+03  0.53632429014E+03  0.40000000000E+03 0.  1.
   -9000007    1    1    2    0  502 -0.23971326446E+03 -0.63294869131E+02 -0.26347978475E+03  0.53934245762E+03  0.40000000000E+03 0.  1.
<mgrwt>
<rscale>  2 0.47060460E+03</rscale>
<asrwt>0</asrwt>
<pdfrwt beam="1">  1       21 0.42687833E-01 0.47060460E+03</pdfrwt>
<pdfrwt beam="2">  1       21 0.12279936E+00 0.47060460E+03</pdfrwt>
<totfact> 0.22527607E+03</totfact>
</mgrwt>
</event>
<event>
 4    1  0.4732450E-002  0.6040709E+03  0.7818608E-02  0.9896996E-01
         21   -1    0    0  501  502  0.00000000000E+00  0.00000000000E+00  0.32524174825E+03  0.32524174825E+03  0.00000000000E+00 0. -1.
         21   -1    0    0  502  503 -0.00000000000E+00 -0.00000000000E+00 -0.11581175127E+04  0.11581175127E+04  0.00000000000E+00 0.  1.
    9000007    1    1    2  501    0  0.11103575816E+03  0.43883112948E+03 -0.28535080141E+03  0.66807692645E+03  0.40000000000E+03 0.  1.
   -9000007    1    1    2    0  503 -0.11103575816E+03 -0.43883112948E+03 -0.54752496303E+03  0.81528233449E+03  0.40000000000E+03 0.  1.
<mgrwt>
<rscale>  2 0.60407094E+03</rscale>
<asrwt>0</asrwt>
<pdfrwt beam="1">  1       21 0.50037193E-01 0.60407094E+03</pdfrwt>
<pdfrwt beam="2">  1       21 0.17817192E+00 0.60407094E+03</pdfrwt>
<totfact> 0.55643329E+02</totfact>
</mgrwt>
</event>
<event>
 4    1  0.4732450E-002  0.4259379E+03  0.7818608E-02  0.1035151E+00
         21   -1    0    0  501  502  0.00000000000E+00  0.00000000000E+00  0.18745421409E+03  0.18745421409E+03  0.00000000000E+00 0.  1.
         21   -1    0    0  502  503 -0.00000000000E+00 -0.00000000000E+00 -0.11468968802E+04  0.11468968802E+04  0.00000000000E+00 0.  1.
    9000007    1    1    2  501    0 -0.13717701888E+03  0.51044475845E+02 -0.21609405298E+03  0.47761879439E+03  0.40000000000E+03 0.  1.
   -9000007    1    1    2    0  503  0.13717701888E+03 -0.51044475845E+02 -0.74334861310E+03  0.85673229986E+03  0.40000000000E+03 0.  1.
<mgrwt>
<rscale>  2 0.42593787E+03</rscale>
<asrwt>0</asrwt>
<pdfrwt beam="1">  1       21 0.28839110E-01 0.42593787E+03</pdfrwt>
<pdfrwt beam="2">  1       21 0.17644567E+00 0.42593787E+03</pdfrwt>
<totfact> 0.19015140E+03</totfact>
</mgrwt>
</event>
<event>
 4    1  0.4732450E-002  0.5383219E+03  0.7818608E-02  0.1004234E+00
         21   -1    0    0  503  502  0.00000000000E+00  0.00000000000E+00  0.86761948772E+03  0.86761948772E+03  0.00000000000E+00 0.  1.
         21   -1    0    0  501  503 -0.00000000000E+00 -0.00000000000E+00 -0.54126391560E+03  0.54126391560E+03  0.00000000000E+00 0.  1.
    9000007    1    1    2  501    0 -0.31406540680E+03  0.17650316263E+03 -0.27273106029E+03  0.60346721320E+03  0.40000000000E+03 0.  1.
   -9000007    1    1    2    0  502  0.31406540680E+03 -0.17650316263E+03  0.59908663242E+03  0.80541619012E+03  0.40000000000E+03 0.  1.
<mgrwt>
<rscale>  2 0.53832188E+03</rscale>
<asrwt>0</asrwt>
<pdfrwt beam="1">  1       21 0.13347992E+00 0.53832188E+03</pdfrwt>
<pdfrwt beam="2">  1       21 0.83271371E-01 0.53832188E+03</pdfrwt>
<totfact> 0.40692822E+02</totfact>
</mgrwt>
</event>
<event>
 4    1  0.4732450E-002  0.7214818E+03  0.7818608E-02  0.9681185E-01
         21   -1    0    0  501  502  0.00000000000E+00  0.00000000000E+00  0.11234780694E+04  0.11234780694E+04  0.00000000000E+00 0. -1.
         21   -1    0    0  502  503 -0.00000000000E+00 -0.00000000000E+00 -0.46347062904E+03  0.46347062904E+03  0.00000000000E+00 0.  1.
    9000007    1    1    2  501    0  0.57387093687E+03 -0.17665815299E+03  0.34404832496E+03  0.79931546032E+03  0.40000000000E+03 0. -1.
   -9000007    1    1    2    0  503 -0.57387093687E+03  0.17665815299E+03  0.31595911543E+03  0.78763323814E+03  0.40000000000E+03 0.  1.
<mgrwt>
<rscale>  2 0.72148178E+03</rscale>
<asrwt>0</asrwt>
<pdfrwt beam="1">  1       21 0.17284278E+00 0.72148178E+03</pdfrwt>
<pdfrwt beam="2">  1       21 0.71303174E-01 0.72148178E+03</pdfrwt>
<totfact> 0.26783925E+02</totfact>
</mgrwt>
</event>
<event>
 4    1  0.4732450E-002  0.4194993E+03  0.7818608E-02  0.1037229E+00
         21   -1    0    0  501  502  0.00000000000E+00  0.00000000000E+00  0.21211736230E+03  0.21211736230E+03  0.00000000000E+00 0. -1.
         21   -1    0    0  502  503 -0.00000000000E+00 -0.00000000000E+00 -0.99537867963E+03  0.99537867963E+03  0.00000000000E+00 0. -1.
    9000007    1    1    2  501    0 -0.11783152198E+03  0.45775319114E+02 -0.63799743679E+03  0.76355771017E+03  0.40000000000E+03 0. -1.
   -9000007    1    1    2    0  503  0.11783152198E+03 -0.45775319114E+02 -0.14526388055E+03  0.44393833176E+03  0.40000000000E+03 0. -1.
<mgrwt>
<rscale>  2 0.41949928E+03</rscale>
<asrwt>0</asrwt>
<pdfrwt beam="1">  1       21 0.32633441E-01 0.41949928E+03</pdfrwt>
<pdfrwt beam="2">  1       21 0.15313518E+00 0.41949928E+03</pdfrwt>
<totfact> 0.22195500E+03</totfact>
</mgrwt>
</event>
<event>
 4    1  0.4732450E-002  0.5779741E+03  0.7818608E-02  0.9952187E-01
         21   -1    0    0  501  502  0.00000000000E+00  0.00000000000E+00  0.23011053040E+04  0.23011053040E+04  0.00000000000E+00 0. -1.
         21   -1    0    0  502  503 -0.00000000000E+00 -0.00000000000E+00 -0.14576636929E+03  0.14576636929E+03  0.00000000000E+00 0. -1.
    9000007    1    1    2  501    0 -0.31907599207E+03  0.26878360299E+03  0.11558483272E+04  0.12923000695E+04  0.40000000000E+03 0. -1.
   -9000007    1    1    2    0  503  0.31907599207E+03 -0.26878360299E+03  0.99949060745E+03  0.11545716038E+04  0.40000000000E+03 0. -1.
<mgrwt>
<rscale>  2 0.57797415E+03</rscale>
<asrwt>0</asrwt>
<pdfrwt beam="1">  1       21 0.35401618E+00 0.57797415E+03</pdfrwt>
<pdfrwt beam="2">  1       21 0.22425597E-01 0.57797415E+03</pdfrwt>
<totfact> 0.22192874E+02</totfact>
</mgrwt>
</event>
<event>
 4    1  0.4732450E-002  0.4575233E+03  0.7818608E-02  0.1025502E+00
         21   -1    0    0  501  502  0.00000000000E+00  0.00000000000E+00  0.45324361129E+03  0.45324361129E+03  0.00000000000E+00 0.  1.
         21   -1    0    0  502  503 -0.00000000000E+00 -0.00000000000E+00 -0.10459642080E+04  0.10459642080E+04  0.00000000000E+00 0.  1.
    9000007    1    1    2  501    0 -0.16480095940E+03 -0.14888981098E+03  0.26381609279E+03  0.52813489077E+03  0.40000000000E+03 0.  1.
   -9000007    1    1    2    0  503  0.16480095940E+03  0.14888981098E+03 -0.85653668946E+03  0.97107292848E+03  0.40000000000E+03 0.  1.
<mgrwt>
<rscale>  2 0.45752326E+03</rscale>
<asrwt>0</asrwt>
<pdfrwt beam="1">  1       21 0.69729787E-01 0.45752326E+03</pdfrwt>
<pdfrwt beam="2">  1       21 0.16091757E+00 0.45752326E+03</pdfrwt>
<totfact> 0.38147320E+02</totfact>
</mgrwt>
</event>
<event>
 4    1  0.4732450E-002  0.4033602E+03  0.7818608E-02  0.1042622E+00
         21   -1    0    0  501  502  0.00000000000E+00  0.00000000000E+00  0.25364764112E+03  0.25364764112E+03  0.00000000000E+00 0.  1.
         21   -1    0    0  502  503 -0.00000000000E+00 -0.00000000000E+00 -0.16556408648E+04  0.16556408648E+04  0.00000000000E+00 0. -1.
    9000007    1    1    2  501    0  0.16550291508E+02  0.49249544686E+02  0.46175659799E+02  0.40599460755E+03  0.40000000000E+03 0.  1.
   -9000007    1    1    2    0  503 -0.16550291508E+02 -0.49249544686E+02 -0.14481688835E+04  0.15032938984E+04  0.40000000000E+03 0. -1.
<mgrwt>
<rscale>  2 0.40336017E+03</rscale>
<asrwt>0</asrwt>
<pdfrwt beam="1">  1       21 0.39022714E-01 0.40336017E+03</pdfrwt>
<pdfrwt beam="2">  1       21 0.25471398E+00 0.40336017E+03</pdfrwt>
<totfact> 0.32570922E+02</totfact>
</mgrwt>
</event>
<event>
 4    1  0.4732450E-002  0.5180724E+03  0.7818608E-02  0.1009167E+00
         21   -1    0    0  501  502  0.00000000000E+00  0.00000000000E+00  0.19847447562E+03  0.19847447562E+03  0.00000000000E+00 0. -1.
         21   -1    0    0  502  503 -0.00000000000E+00 -0.00000000000E+00 -0.16792608460E+04  0.16792608460E+04  0.00000000000E+00 0. -1.
    9000007    1    1    2  501    0 -0.30410685379E+03 -0.12616668806E+03 -0.32612025770E+03  0.61217108245E+03  0.40000000000E+03 0. -1.
   -9000007    1    1    2    0  503  0.30410685379E+03  0.12616668806E+03 -0.11546661127E+04  0.12655642392E+04  0.40000000000E+03 0. -1.
<mgrwt>
<rscale>  2 0.51807240E+03</rscale>
<asrwt>0</asrwt>
<pdfrwt beam="1">  1       21 0.30534533E-01 0.51807240E+03</pdfrwt>
<pdfrwt beam="2">  1       21 0.25834783E+00 0.51807240E+03</pdfrwt>
<totfact> 0.47786238E+02</totfact>
</mgrwt>
</event>
<event>
 4    1  0.4732450E-002  0.4088814E+03  0.7818608E-02  0.1040747E+00
         21   -1    0    0  503  502  0.00000000000E+00  0.00000000000E+00  0.11078922511E+04  0.11078922511E+04  0.00000000000E+00 0.  1.
         21   -1    0    0  501  503 -0.00000000000E+00 -0.00000000000E+00 -0.16337529710E+03  0.16337529710E+03  0.00000000000E+00 0.  1.
    9000007    1    1    2  501    0  0.79932050376E+02  0.28193929911E+02  0.29663172445E+03  0.50514790934E+03  0.40000000000E+03 0.  1.
   -9000007    1    1    2    0  502 -0.79932050376E+02 -0.28193929911E+02  0.64788522950E+03  0.76611963881E+03  0.40000000000E+03 0.  1.
<mgrwt>
<rscale>  2 0.40888144E+03</rscale>
<asrwt>0</asrwt>
<pdfrwt beam="1">  1       21 0.17044496E+00 0.40888144E+03</pdfrwt>
<pdfrwt beam="2">  1       21 0.25134662E-01 0.40888144E+03</pdfrwt>
<totfact> 0.27690532E+03</totfact>
</mgrwt>
</event>
<event>
 4    1  0.4732450E-002  0.4378375E+03  0.7818608E-02  0.1031412E+00
         21   -1    0    0  501  502  0.00000000000E+00  0.00000000000E+00  0.30738156618E+03  0.30738156618E+03  0.00000000000E+00 0. -1.
         21   -1    0    0  502  503 -0.00000000000E+00 -0.00000000000E+00 -0.74270664711E+03  0.74270664711E+03  0.00000000000E+00 0. -1.
    9000007    1    1    2  501    0  0.15220884936E+03  0.92380480913E+02 -0.74565316787E+01  0.43790100130E+03  0.40000000000E+03 0. -1.
   -9000007    1    1    2    0  503 -0.15220884936E+03 -0.92380480913E+02 -0.42786854925E+03  0.61218721199E+03  0.40000000000E+03 0. -1.
<mgrwt>
<rscale>  2 0.43783751E+03</rscale>
<asrwt>0</asrwt>
<pdfrwt beam="1">  1       21 0.47289472E-01 0.43783751E+03</pdfrwt>
<pdfrwt beam="2">  1       21 0.11426256E+00 0.43783751E+03</pdfrwt>
<totfact> 0.22083215E+03</totfact>
</mgrwt>
</event>
<event>
 4    1  0.4732450E-002  0.4128076E+03  0.7818608E-02  0.1039433E+00
         21   -1    0    0  501  502  0.00000000000E+00  0.00000000000E+00  0.16414815503E+03  0.16414815503E+03  0.00000000000E+00 0.  1.
         21   -1    0    0  502  503 -0.00000000000E+00 -0.00000000000E+00 -0.10940740632E+04  0.10940740632E+04  0.00000000000E+00 0.  1.
    9000007    1    1    2  501    0 -0.47424802917E+02 -0.90338323556E+02 -0.32272678899E+03  0.52398731375E+03  0.40000000000E+03 0.  1.
   -9000007    1    1    2    0  503  0.47424802917E+02  0.90338323556E+02 -0.60719911922E+03  0.73423490452E+03  0.40000000000E+03 0.  1.
<mgrwt>
<rscale>  2 0.41280761E+03</rscale>
<asrwt>0</asrwt>
<pdfrwt beam="1">  1       21 0.25253563E-01 0.41280761E+03</pdfrwt>
<pdfrwt beam="2">  1       21 0.16831908E+00 0.41280761E+03</pdfrwt>
<totfact> 0.28383267E+03</totfact>
</mgrwt>
</event>
<event>
 4    1  0.4732450E-002  0.5619222E+03  0.7818608E-02  0.9987715E-01
         21   -1    0    0  501  502  0.00000000000E+00  0.00000000000E+00  0.67102478600E+03  0.67102478600E+03  0.00000000000E+00 0.  1.
         21   -1    0    0  502  503 -0.00000000000E+00 -0.00000000000E+00 -0.88518766948E+03  0.88518766948E+03  0.00000000000E+00 0.  1.
    9000007    1    1    2  501    0 -0.36233801481E+03  0.15642174541E+03  0.42545704126E+03  0.70481933385E+03  0.40000000000E+03 0.  1.
   -9000007    1    1    2    0  503  0.36233801481E+03 -0.15642174541E+03 -0.63961992475E+03  0.85139312162E+03  0.40000000000E+03 0.  1.
<mgrwt>
<rscale>  2 0.56192224E+03</rscale>
<asrwt>0</asrwt>
<pdfrwt beam="1">  1       21 0.10323458E+00 0.56192224E+03</pdfrwt>
<pdfrwt beam="2">  1       21 0.13618272E+00 0.56192224E+03</pdfrwt>
<totfact> 0.22841679E+02</totfact>
</mgrwt>
</event>
<event>
 4    1  0.4732450E-002  0.4193172E+03  0.7818608E-02  0.1037289E+00
         21   -1    0    0  501  502  0.00000000000E+00  0.00000000000E+00  0.32458048204E+03  0.32458048204E+03  0.00000000000E+00 0.  1.
         21   -1    0    0  502  503 -0.00000000000E+00 -0.00000000000E+00 -0.88181250020E+03  0.88181250020E+03  0.00000000000E+00 0.  1.
    9000007    1    1    2  501    0 -0.35045602401E+02 -0.12082521420E+03  0.95993393939E+02  0.43016468743E+03  0.40000000000E+03 0.  1.
   -9000007    1    1    2    0  503  0.35045602401E+02  0.12082521420E+03 -0.65322541210E+03  0.77622829480E+03  0.40000000000E+03 0.  1.
<mgrwt>
<rscale>  2 0.41931721E+03</rscale>
<asrwt>0</asrwt>
<pdfrwt beam="1">  1       21 0.49935458E-01 0.41931721E+03</pdfrwt>
<pdfrwt beam="2">  1       21 0.13566346E+00 0.41931721E+03</pdfrwt>
<totfact> 0.12776461E+03</totfact>
</mgrwt>
</event>
<event>
 4    1  0.4732450E-002  0.5021426E+03  0.7818608E-02  0.1013221E+00
         21   -1    0    0  501  502  0.00000000000E+00  0.00000000000E+00  0.21563592259E+03  0.21563592259E+03  0.00000000000E+00 0.  1.
         21   -1    0    0  502  503 -0.00000000000E+00 -0.00000000000E+00 -0.12102467521E+04  0.12102467521E+04  0.00000000000E+00 0. -1.
    9000007    1    1    2  501    0  0.28232312491E+03 -0.11153870344E+03 -0.62841202898E+03  0.80439350283E+03  0.40000000000E+03 0. -1.
   -9000007    1    1    2    0  503 -0.28232312491E+03  0.11153870344E+03 -0.36619880049E+03  0.62148917183E+03  0.40000000000E+03 0.  1.
<mgrwt>
<rscale>  2 0.50214264E+03</rscale>
<asrwt>0</asrwt>
<pdfrwt beam="1">  1       21 0.33174758E-01 0.50214264E+03</pdfrwt>
<pdfrwt beam="2">  1       21 0.18619180E+00 0.50214264E+03</pdfrwt>
<totfact> 0.11897604E+03</totfact>
</mgrwt>
</event>
<event>
 4    1  0.4732450E-002  0.6301769E+03  0.7818608E-02  0.9844704E-01
         21   -1    0    0  503  502  0.00000000000E+00  0.00000000000E+00  0.68509898890E+03  0.68509898890E+03  0.00000000000E+00 0.  1.
         21   -1    0    0  501  503 -0.00000000000E+00 -0.00000000000E+00 -0.13104308953E+04  0.13104308953E+04  0.00000000000E+00 0. -1.
    9000007    1    1    2  501    0  0.44580902263E+03 -0.19590102606E+03 -0.10577623896E+04  0.12312530892E+04  0.40000000000E+03 0. -1.
   -9000007    1    1    2    0  502 -0.44580902263E+03  0.19590102606E+03  0.43243048320E+03  0.76427679506E+03  0.40000000000E+03 0.  1.
<mgrwt>
<rscale>  2 0.63017688E+03</rscale>
<asrwt>0</asrwt>
<pdfrwt beam="1">  1       21 0.10539984E+00 0.63017688E+03</pdfrwt>
<pdfrwt beam="2">  1       21 0.20160475E+00 0.63017688E+03</pdfrwt>
<totfact> 0.68663711E+01</totfact>
</mgrwt>
</event>
<event>
 4    1  0.4732450E-002  0.7624394E+03  0.7818608E-02  0.9616035E-01
         21   -1    0    0  501  502  0.00000000000E+00  0.00000000000E+00  0.10828411193E+04  0.10828411193E+04  0.00000000000E+00 0. -1.
         21   -1    0    0  502  503 -0.00000000000E+00 -0.00000000000E+00 -0.71916249630E+03  0.71916249630E+03  0.00000000000E+00 0.  1.
    9000007    1    1    2  501    0 -0.34286367151E+03 -0.55114270308E+03  0.63549962778E+03  0.99255909310E+03  0.40000000000E+03 0. -1.
   -9000007    1    1    2    0  503  0.34286367151E+03  0.55114270308E+03 -0.27182100476E+03  0.80944452251E+03  0.40000000000E+03 0.  1.
<mgrwt>
<rscale>  2 0.76243936E+03</rscale>
<asrwt>0</asrwt>
<pdfrwt beam="1">  1       21 0.16659094E+00 0.76243936E+03</pdfrwt>
<pdfrwt beam="2">  1       21 0.11064038E+00 0.76243936E+03</pdfrwt>
<totfact> 0.10273021E+02</totfact>
</mgrwt>
</event>
<event>
 4    1  0.4732450E-002  0.4042383E+03  0.7818608E-02  0.1042322E+00
         21   -1    0    0  501  502  0.00000000000E+00  0.00000000000E+00  0.99856227934E+03  0.99856227934E+03  0.00000000000E+00 0.  1.
         21   -1    0    0  502  503 -0.00000000000E+00 -0.00000000000E+00 -0.17536695884E+03  0.17536695884E+03  0.00000000000E+00 0.  1.
    9000007    1    1    2  501    0 -0.13208024773E+02  0.56869458615E+02  0.56335832697E+03  0.69338387045E+03  0.40000000000E+03 0.  1.
   -9000007    1    1    2    0  503  0.13208024773E+02 -0.56869458615E+02  0.25983699353E+03  0.48054536773E+03  0.40000000000E+03 0.  1.
<mgrwt>
<rscale>  2 0.40423828E+03</rscale>
<asrwt>0</asrwt>
<pdfrwt beam="1">  1       21 0.15362496E+00 0.40423828E+03</pdfrwt>
<pdfrwt beam="2">  1       21 0.26979533E-01 0.40423828E+03</pdfrwt>
<totfact> 0.32281766E+03</totfact>
</mgrwt>
</event>
<event>
 4    1  0.4732450E-002  0.4438313E+03  0.7818608E-02  0.1029578E+00
         21   -1    0    0  501  502  0.00000000000E+00  0.00000000000E+00  0.62337703787E+03  0.62337703787E+03  0.00000000000E+00 0. -1.
         21   -1    0    0  502  503 -0.00000000000E+00 -0.00000000000E+00 -0.31627507062E+03  0.31627507062E+03  0.00000000000E+00 0. -1.
    9000007    1    1    2  501    0  0.12361938251E+03  0.14732439395E+03  0.13965841355E+03  0.46528561257E+03  0.40000000000E+03 0. -1.
   -9000007    1    1    2    0  503 -0.12361938251E+03 -0.14732439395E+03  0.16744355370E+03  0.47436649593E+03  0.40000000000E+03 0. -1.
<mgrwt>
<rscale>  2 0.44383131E+03</rscale>
<asrwt>0</asrwt>
<pdfrwt beam="1">  1       21 0.95904159E-01 0.44383131E+03</pdfrwt>
<pdfrwt beam="2">  1       21 0.48657703E-01 0.44383131E+03</pdfrwt>
<totfact> 0.31884704E+03</totfact>
</mgrwt>
</event>
<event>
 4    1  0.4732450E-002  0.4154928E+03  0.7818608E-02  0.1038543E+00
         21   -1    0    0  503  502  0.00000000000E+00  0.00000000000E+00  0.44523350926E+03  0.44523350926E+03  0.00000000000E+00 0.  1.
         21   -1    0    0  501  503 -0.00000000000E+00 -0.00000000000E+00 -0.51668325442E+03  0.51668325442E+03  0.00000000000E+00 0.  1.
    9000007    1    1    2  501    0  0.92539084659E+02 -0.63802467997E+02 -0.27599340842E+03  0.49880517099E+03  0.40000000000E+03 0.  1.
   -9000007    1    1    2    0  502 -0.92539084659E+02  0.63802467997E+02  0.20454366325E+03  0.46311159269E+03  0.40000000000E+03 0.  1.
<mgrwt>
<rscale>  2 0.41549276E+03</rscale>
<asrwt>0</asrwt>
<pdfrwt beam="1">  1       21 0.68497463E-01 0.41549276E+03</pdfrwt>
<pdfrwt beam="2">  1       21 0.79489731E-01 0.41549276E+03</pdfrwt>
<totfact> 0.23806259E+03</totfact>
</mgrwt>
</event>
<event>
 4    1  0.4732450E-002  0.5660011E+03  0.7818608E-02  0.9978567E-01
         21   -1    0    0  501  502  0.00000000000E+00  0.00000000000E+00  0.52281153856E+03  0.52281153856E+03  0.00000000000E+00 0.  1.
         21   -1    0    0  502  503 -0.00000000000E+00 -0.00000000000E+00 -0.76291569067E+03  0.76291569067E+03  0.00000000000E+00 0.  1.
    9000007    1    1    2  501    0 -0.31124409705E+03 -0.25196096526E+03 -0.40525477729E+03  0.69612401947E+03  0.40000000000E+03 0.  1.
   -9000007    1    1    2    0  503  0.31124409705E+03  0.25196096526E+03  0.16515062518E+03  0.58960320976E+03  0.40000000000E+03 0.  1.
<mgrwt>
<rscale>  2 0.56600107E+03</rscale>
<asrwt>0</asrwt>
<pdfrwt beam="1">  1       21 0.80432544E-01 0.56600107E+03</pdfrwt>
<pdfrwt beam="2">  1       21 0.11737165E+00 0.56600107E+03</pdfrwt>
<totfact> 0.60913680E+02</totfact>
</mgrwt>
</event>
<event>
 4    1  0.4732450E-002  0.5169069E+03  0.7818608E-02  0.1009458E+00
         21   -1    0    0  501  502  0.00000000000E+00  0.00000000000E+00  0.11119152745E+04  0.11119152745E+04  0.00000000000E+00 0. -1.
         21   -1    0    0  502  503 -0.00000000000E+00 -0.00000000000E+00 -0.24409058359E+03  0.24409058359E+03  0.00000000000E+00 0. -1.
    9000007    1    1    2  501    0 -0.17427160199E+02  0.32693881044E+03  0.34941610871E+03  0.62392652509E+03  0.40000000000E+03 0. -1.
   -9000007    1    1    2    0  503  0.17427160199E+02 -0.32693881044E+03  0.51840858216E+03  0.73207933296E+03  0.40000000000E+03 0. -1.
<mgrwt>
<rscale>  2 0.51690685E+03</rscale>
<asrwt>0</asrwt>
<pdfrwt beam="1">  1       21 0.17106389E+00 0.51690685E+03</pdfrwt>
<pdfrwt beam="2">  1       21 0.37552398E-01 0.51690685E+03</pdfrwt>
<totfact> 0.11785275E+03</totfact>
</mgrwt>
</event>
<event>
 4    1  0.4732450E-002  0.4137264E+03  0.7818608E-02  0.1039128E+00
         21   -1    0    0  503  502  0.00000000000E+00  0.00000000000E+00  0.16392405472E+04  0.16392405472E+04  0.00000000000E+00 0. -1.
         21   -1    0    0  501  503 -0.00000000000E+00 -0.00000000000E+00 -0.15394481039E+03  0.15394481039E+03  0.00000000000E+00 0. -1.
    9000007    1    1    2  501    0 -0.88268471244E+02  0.58122303338E+02  0.23410917874E+03  0.47536999561E+03  0.40000000000E+03 0. -1.
   -9000007    1    1    2    0  502  0.88268471244E+02 -0.58122303338E+02  0.12511865580E+04  0.13178153619E+04  0.40000000000E+03 0. -1.
<mgrwt>
<rscale>  2 0.41372639E+03</rscale>
<asrwt>0</asrwt>
<pdfrwt beam="1">  1       21 0.25219084E+00 0.41372639E+03</pdfrwt>
<pdfrwt beam="2">  1       21 0.23683818E-01 0.41372639E+03</pdfrwt>
<totfact> 0.90455014E+02</totfact>
</mgrwt>
</event>
<event>
 4    1  0.4732450E-002  0.4067319E+03  0.7818608E-02  0.1041473E+00
         21   -1    0    0  501  502  0.00000000000E+00  0.00000000000E+00  0.15039659955E+04  0.15039659955E+04  0.00000000000E+00 0.  1.
         21   -1    0    0  502  503 -0.00000000000E+00 -0.00000000000E+00 -0.11076355364E+03  0.11076355364E+03  0.00000000000E+00 0.  1.
    9000007    1    1    2  501    0 -0.64699171811E+02  0.35282366121E+02  0.62940950415E+03  0.74939118764E+03  0.40000000000E+03 0.  1.
   -9000007    1    1    2    0  503  0.64699171811E+02 -0.35282366121E+02  0.76379293772E+03  0.86533836151E+03  0.40000000000E+03 0.  1.
<mgrwt>
<rscale>  2 0.40673189E+03</rscale>
<asrwt>0</asrwt>
<pdfrwt beam="1">  1       21 0.23137937E+00 0.40673189E+03</pdfrwt>
<pdfrwt beam="2">  1       21 0.17040548E-01 0.40673189E+03</pdfrwt>
<totfact> 0.22815616E+03</totfact>
</mgrwt>
</event>
<event>
 4    1  0.4732450E-002  0.5891922E+03  0.7818608E-02  0.9928086E-01
         21   -1    0    0  501  502  0.00000000000E+00  0.00000000000E+00  0.12871949603E+04  0.12871949603E+04  0.00000000000E+00 0. -1.
         21   -1    0    0  502  503 -0.00000000000E+00 -0.00000000000E+00 -0.27169114155E+03  0.27169114155E+03  0.00000000000E+00 0.  1.
    9000007    1    1    2  501    0 -0.36841764230E+03  0.22675083663E+03  0.44090871593E+03  0.73589944751E+03  0.40000000000E+03 0. -1.
   -9000007    1    1    2    0  503  0.36841764230E+03 -0.22675083663E+03  0.57459510286E+03  0.82298665439E+03  0.40000000000E+03 0.  1.
<mgrwt>
<rscale>  2 0.58919224E+03</rscale>
<asrwt>0</asrwt>
<pdfrwt beam="1">  1       21 0.19802999E+00 0.58919224E+03</pdfrwt>
<pdfrwt beam="2">  1       21 0.41798638E-01 0.58919224E+03</pdfrwt>
<totfact> 0.59496746E+02</totfact>
</mgrwt>
</event>
<event>
 4    1  0.4732450E-002  0.4171451E+03  0.7818608E-02  0.1037999E+00
         21   -1    0    0  501  502  0.00000000000E+00  0.00000000000E+00  0.20268821404E+04  0.20268821404E+04  0.00000000000E+00 0. -1.
         21   -1    0    0  502  503 -0.00000000000E+00 -0.00000000000E+00 -0.10842015052E+03  0.10842015052E+03  0.00000000000E+00 0. -1.
    9000007    1    1    2  501    0 -0.28696437091E+01 -0.11832920963E+03  0.14463455748E+04  0.15052991591E+04  0.40000000000E+03 0. -1.
   -9000007    1    1    2    0  503  0.28696437091E+01  0.11832920963E+03  0.47211641518E+03  0.63000313189E+03  0.40000000000E+03 0. -1.
<mgrwt>
<rscale>  2 0.41714510E+03</rscale>
<asrwt>0</asrwt>
<pdfrwt beam="1">  1       21 0.31182799E+00 0.41714510E+03</pdfrwt>
<pdfrwt beam="2">  1       21 0.16680025E-01 0.41714510E+03</pdfrwt>
<totfact> 0.76874689E+02</totfact>
</mgrwt>
</event>
<event>
 4    1  0.4732450E-002  0.4110094E+03  0.7818608E-02  0.1040033E+00
         21   -1    0    0  503  502  0.00000000000E+00  0.00000000000E+00  0.15538068811E+04  0.15538068811E+04  0.00000000000E+00 0.  1.
         21   -1    0    0  501  503 -0.00000000000E+00 -0.00000000000E+00 -0.17635310469E+03  0.17635310469E+03  0.00000000000E+00 0.  1.
    9000007    1    1    2  501    0 -0.68362140763E+02  0.65233310628E+02  0.15299600445E+03  0.43856190496E+03  0.40000000000E+03 0.  1.
   -9000007    1    1    2    0  502  0.68362140763E+02 -0.65233310628E+02  0.12244577719E+04  0.12915980808E+04  0.40000000000E+03 0.  1.
<mgrwt>
<rscale>  2 0.41100945E+03</rscale>
<asrwt>0</asrwt>
<pdfrwt beam="1">  1       21 0.23904720E+00 0.41100945E+03</pdfrwt>
<pdfrwt beam="2">  1       21 0.27131248E-01 0.41100945E+03</pdfrwt>
<totfact> 0.83759735E+02</totfact>
</mgrwt>
</event>
<event>
 4    1  0.4732450E-002  0.4831488E+03  0.7818608E-02  0.1018273E+00
         21   -1    0    0  501  502  0.00000000000E+00  0.00000000000E+00  0.36123175691E+03  0.36123175691E+03  0.00000000000E+00 0. -1.
         21   -1    0    0  502  503 -0.00000000000E+00 -0.00000000000E+00 -0.71102068085E+03  0.71102068085E+03  0.00000000000E+00 0. -1.
    9000007    1    1    2  501    0 -0.13194821971E+03 -0.23669058850E+03 -0.13034978650E+02  0.48332460939E+03  0.40000000000E+03 0. -1.
   -9000007    1    1    2    0  503  0.13194821971E+03  0.23669058850E+03 -0.33675394529E+03  0.58892782838E+03  0.40000000000E+03 0. -1.
<mgrwt>
<rscale>  2 0.48314880E+03</rscale>
<asrwt>0</asrwt>
<pdfrwt beam="1">  1       21 0.55574117E-01 0.48314880E+03</pdfrwt>
<pdfrwt beam="2">  1       21 0.10938780E+00 0.48314880E+03</pdfrwt>
<totfact> 0.17141536E+03</totfact>
</mgrwt>
</event>
<event>
 4    1  0.4732450E-002  0.5357879E+03  0.7818608E-02  0.1004838E+00
         21   -1    0    0  501  502  0.00000000000E+00  0.00000000000E+00  0.80061368976E+03  0.80061368976E+03  0.00000000000E+00 0. -1.
         21   -1    0    0  502  503 -0.00000000000E+00 -0.00000000000E+00 -0.89429045780E+03  0.89429045780E+03  0.00000000000E+00 0. -1.
    9000007    1    1    2  501    0  0.11798845318E+03  0.33637390021E+03  0.60907833012E+03  0.81119978307E+03  0.40000000000E+03 0. -1.
   -9000007    1    1    2    0  503 -0.11798845318E+03 -0.33637390021E+03 -0.70275509817E+03  0.88370436449E+03  0.40000000000E+03 0. -1.
<mgrwt>
<rscale>  2 0.53578790E+03</rscale>
<asrwt>0</asrwt>
<pdfrwt beam="1">  1       21 0.12317134E+00 0.53578790E+03</pdfrwt>
<pdfrwt beam="2">  1       21 0.13758315E+00 0.53578790E+03</pdfrwt>
<totfact> 0.14420316E+02</totfact>
</mgrwt>
</event>
<event>
 4    1  0.4732450E-002  0.5245567E+03  0.7818608E-02  0.1007561E+00
         21   -1    0    0  501  502  0.00000000000E+00  0.00000000000E+00  0.40795795499E+03  0.40795795499E+03  0.00000000000E+00 0.  1.
         21   -1    0    0  502  503 -0.00000000000E+00 -0.00000000000E+00 -0.72463857364E+03  0.72463857364E+03  0.00000000000E+00 0.  1.
    9000007    1    1    2  501    0  0.33934858880E+03 -0.14902302458E+01 -0.30732955800E+03  0.60795653029E+03  0.40000000000E+03 0.  1.
   -9000007    1    1    2    0  503 -0.33934858880E+03  0.14902302458E+01 -0.93510606542E+01  0.52463999833E+03  0.40000000000E+03 0.  1.
<mgrwt>
<rscale>  2 0.52455666E+03</rscale>
<asrwt>0</asrwt>
<pdfrwt beam="1">  1       21 0.62762763E-01 0.52455666E+03</pdfrwt>
<pdfrwt beam="2">  1       21 0.11148286E+00 0.52455666E+03</pdfrwt>
<totfact> 0.12344869E+03</totfact>
</mgrwt>
</event>
<event>
 4    1  0.4732450E-002  0.5098728E+03  0.7818608E-02  0.1011234E+00
         21   -1    0    0  501  502  0.00000000000E+00  0.00000000000E+00  0.22090726852E+04  0.22090726852E+04  0.00000000000E+00 0.  1.
         21   -1    0    0  502  503 -0.00000000000E+00 -0.00000000000E+00 -0.23173645387E+03  0.23173645387E+03  0.00000000000E+00 0. -1.
    9000007    1    1    2  501    0  0.29164830193E+02 -0.31483275348E+03  0.18448398999E+04  0.19140022221E+04  0.40000000000E+03 0.  1.
   -9000007    1    1    2    0  503 -0.29164830193E+02  0.31483275348E+03  0.13249633151E+03  0.52680691705E+03  0.40000000000E+03 0. -1.
<mgrwt>
<rscale>  2 0.50987278E+03</rscale>
<asrwt>0</asrwt>
<pdfrwt beam="1">  1       21 0.33985732E+00 0.50987278E+03</pdfrwt>
<pdfrwt beam="2">  1       21 0.35651764E-01 0.50987278E+03</pdfrwt>
<totfact> 0.11227109E+02</totfact>
</mgrwt>
</event>
<event>
 4    1  0.4732450E-002  0.4089104E+03  0.7818608E-02  0.1040737E+00
         21   -1    0    0  503  502  0.00000000000E+00  0.00000000000E+00  0.22438153105E+03  0.22438153105E+03  0.00000000000E+00 0. -1.
         21   -1    0    0  501  503 -0.00000000000E+00 -0.00000000000E+00 -0.80718880165E+03  0.80718880165E+03  0.00000000000E+00 0. -1.
    9000007    1    1    2  501    0 -0.80273745788E+02 -0.27637019464E+02 -0.43434579854E+03  0.59654333607E+03  0.40000000000E+03 0. -1.
   -9000007    1    1    2    0  502  0.80273745788E+02  0.27637019464E+02 -0.14846147207E+03  0.43502699663E+03  0.40000000000E+03 0. -1.
<mgrwt>
<rscale>  2 0.40891036E+03</rscale>
<asrwt>0</asrwt>
<pdfrwt beam="1">  1       21 0.34520235E-01 0.40891036E+03</pdfrwt>
<pdfrwt beam="2">  1       21 0.12418290E+00 0.40891036E+03</pdfrwt>
<totfact> 0.34611217E+03</totfact>
</mgrwt>
</event>
<event>
 4    1  0.4732450E-002  0.4696673E+03  0.7818608E-02  0.1022014E+00
         21   -1    0    0  501  502  0.00000000000E+00  0.00000000000E+00  0.34631148895E+03  0.34631148895E+03  0.00000000000E+00 0. -1.
         21   -1    0    0  502  503 -0.00000000000E+00 -0.00000000000E+00 -0.10574339837E+04  0.10574339837E+04  0.00000000000E+00 0.  1.
    9000007    1    1    2  501    0 -0.27153530696E+02  0.24464276097E+03  0.87027196388E+02  0.47766214801E+03  0.40000000000E+03 0. -1.
   -9000007    1    1    2    0  503  0.27153530696E+02 -0.24464276097E+03 -0.79814969113E+03  0.92608332464E+03  0.40000000000E+03 0.  1.
<mgrwt>
<rscale>  2 0.46966732E+03</rscale>
<asrwt>0</asrwt>
<pdfrwt beam="1">  1       21 0.53278690E-01 0.46966732E+03</pdfrwt>
<pdfrwt beam="2">  1       21 0.16268215E+00 0.46966732E+03</pdfrwt>
<totfact> 0.66500164E+02</totfact>
</mgrwt>
</event>
<event>
 4    1  0.4732450E-002  0.4498961E+03  0.7818608E-02  0.1027753E+00
         21   -1    0    0  501  502  0.00000000000E+00  0.00000000000E+00  0.11091299289E+03  0.11091299289E+03  0.00000000000E+00 0. -1.
         21   -1    0    0  502  503 -0.00000000000E+00 -0.00000000000E+00 -0.18249138327E+04  0.18249138327E+04  0.00000000000E+00 0. -1.
    9000007    1    1    2  501    0 -0.32414193863E+02 -0.20336124262E+03 -0.85791315726E+03  0.96872155977E+03  0.40000000000E+03 0. -1.
   -9000007    1    1    2    0  503  0.32414193863E+02  0.20336124262E+03 -0.85608768251E+03  0.96710526579E+03  0.40000000000E+03 0. -1.
<mgrwt>
<rscale>  2 0.44989607E+03</rscale>
<asrwt>0</asrwt>
<pdfrwt beam="1">  1       21 0.17063538E-01 0.44989607E+03</pdfrwt>
<pdfrwt beam="2">  1       21 0.28075597E+00 0.44989607E+03</pdfrwt>
<totfact> 0.11117862E+03</totfact>
</mgrwt>
</event>
<event>
 4    1  0.4732450E-002  0.5443021E+03  0.7818608E-02  0.1002821E+00
         21   -1    0    0  501  502  0.00000000000E+00  0.00000000000E+00  0.28534499624E+03  0.28534499624E+03  0.00000000000E+00 0. -1.
         21   -1    0    0  502  503 -0.00000000000E+00 -0.00000000000E+00 -0.13550783301E+04  0.13550783301E+04  0.00000000000E+00 0. -1.
    9000007    1    1    2  501    0  0.26626726853E+03  0.25566867098E+03 -0.93145784503E+03  0.10788319817E+04  0.40000000000E+03 0. -1.
   -9000007    1    1    2    0  503 -0.26626726853E+03 -0.25566867098E+03 -0.13827548885E+03  0.56159134469E+03  0.40000000000E+03 0. -1.
<mgrwt>
<rscale>  2 0.54430206E+03</rscale>
<asrwt>0</asrwt>
<pdfrwt beam="1">  1       21 0.43899230E-01 0.54430206E+03</pdfrwt>
<pdfrwt beam="2">  1       21 0.20847359E+00 0.54430206E+03</pdfrwt>
<totfact> 0.46529463E+02</totfact>
</mgrwt>
</event>
<event>
 4    1  0.4732450E-002  0.5444922E+03  0.7818608E-02  0.1002777E+00
         21   -1    0    0  503  502  0.00000000000E+00  0.00000000000E+00  0.73380563596E+03  0.73380563596E+03  0.00000000000E+00 0. -1.
         21   -1    0    0  501  503 -0.00000000000E+00 -0.00000000000E+00 -0.40968324989E+03  0.40968324989E+03  0.00000000000E+00 0. -1.
    9000007    1    1    2  501    0 -0.93060514782E+02  0.35750727090E+03  0.94835706216E+02  0.55268935156E+03  0.40000000000E+03 0. -1.
   -9000007    1    1    2    0  502  0.93060514782E+02 -0.35750727090E+03  0.22928667985E+03  0.59079953429E+03  0.40000000000E+03 0. -1.
<mgrwt>
<rscale>  2 0.54449216E+03</rscale>
<asrwt>0</asrwt>
<pdfrwt beam="1">  1       21 0.11289317E+00 0.54449216E+03</pdfrwt>
<pdfrwt beam="2">  1       21 0.63028192E-01 0.54449216E+03</pdfrwt>
<totfact> 0.11772148E+03</totfact>
</mgrwt>
</event>
<event>
 4    1  0.4732450E-002  0.4712017E+03  0.7818608E-02  0.1021582E+00
         21   -1    0    0  501  502  0.00000000000E+00  0.00000000000E+00  0.18522335399E+04  0.18522335399E+04  0.00000000000E+00 0.  1.
         21   -1    0    0  502  503 -0.00000000000E+00 -0.00000000000E+00 -0.15612174975E+03  0.15612174975E+03  0.00000000000E+00 0. -1.
    9000007    1    1    2  501    0 -0.24738107729E+03 -0.28872788989E+02  0.13319285040E+04  0.14128214944E+04  0.40000000000E+03 0.  1.
   -9000007    1    1    2    0  503  0.24738107729E+03  0.28872788989E+02  0.36418328615E+03  0.59553379523E+03  0.40000000000E+03 0.  1.
<mgrwt>
<rscale>  2 0.47120169E+03</rscale>
<asrwt>0</asrwt>
<pdfrwt beam="1">  1       21 0.28495899E+00 0.47120169E+03</pdfrwt>
<pdfrwt beam="2">  1       21 0.24018732E-01 0.47120169E+03</pdfrwt>
<totfact> 0.54038490E+02</totfact>
</mgrwt>
</event>
<event>
 4    1  0.4732450E-002  0.4643953E+03  0.7818608E-02  0.1023514E+00
         21   -1    0    0  501  502  0.00000000000E+00  0.00000000000E+00  0.40919849268E+03  0.40919849268E+03  0.00000000000E+00 0.  1.
         21   -1    0    0  502  503 -0.00000000000E+00 -0.00000000000E+00 -0.72315277694E+03  0.72315277694E+03  0.00000000000E+00 0.  1.
    9000007    1    1    2  501    0  0.15972492480E+03  0.17364036803E+03  0.13786641843E+03  0.48442768123E+03  0.40000000000E+03 0. -1.
   -9000007    1    1    2    0  503 -0.15972492480E+03 -0.17364036803E+03 -0.45182070269E+03  0.64792358839E+03  0.40000000000E+03 0. -1.
<mgrwt>
<rscale>  2 0.46439534E+03</rscale>
<asrwt>0</asrwt>
<pdfrwt beam="1">  1       21 0.62953615E-01 0.46439534E+03</pdfrwt>
<pdfrwt beam="2">  1       21 0.11125427E+00 0.46439534E+03</pdfrwt>
<totfact> 0.12598984E+03</totfact>
</mgrwt>
</event>
<event>
 4    1  0.4732450E-002  0.4902347E+03  0.7818608E-02  0.1016360E+00
         21   -1    0    0  503  502  0.00000000000E+00  0.00000000000E+00  0.29117263113E+03  0.29117263113E+03  0.00000000000E+00 0. -1.
         21   -1    0    0  501  503 -0.00000000000E+00 -0.00000000000E+00 -0.11995091166E+04  0.11995091166E+04  0.00000000000E+00 0. -1.
    9000007    1    1    2  501    0  0.82179938612E+02 -0.27124993623E+03 -0.87042368186E+03  0.99898321115E+03  0.40000000000E+03 0. -1.
   -9000007    1    1    2    0  502 -0.82179938612E+02  0.27124993623E+03 -0.37912803632E+02  0.49169853660E+03  0.40000000000E+03 0. -1.
<mgrwt>
<rscale>  2 0.49023471E+03</rscale>
<asrwt>0</asrwt>
<pdfrwt beam="1">  1       21 0.44795790E-01 0.49023471E+03</pdfrwt>
<pdfrwt beam="2">  1       21 0.18453986E+00 0.49023471E+03</pdfrwt>
<totfact> 0.66232604E+02</totfact>
</mgrwt>
</event>
<event>
 4    1  0.4732450E-002  0.5134454E+03  0.7818608E-02  0.1010328E+00
         21   -1    0    0  503  502  0.00000000000E+00  0.00000000000E+00  0.25347165042E+03  0.25347165042E+03  0.00000000000E+00 0.  1.
         21   -1    0    0  501  503 -0.00000000000E+00 -0.00000000000E+00 -0.12096077318E+04  0.12096077318E+04  0.00000000000E+00 0. -1.
    9000007    1    1    2  501    0  0.32187731353E+03 -0.46069350364E+01 -0.75194724819E+03  0.91052231872E+03  0.40000000000E+03 0. -1.
   -9000007    1    1    2    0  502 -0.32187731353E+03  0.46069350364E+01 -0.20418883318E+03  0.55255706349E+03  0.40000000000E+03 0.  1.
<mgrwt>
<rscale>  2 0.51344545E+03</rscale>
<asrwt>0</asrwt>
<pdfrwt beam="1">  1       21 0.38995639E-01 0.51344545E+03</pdfrwt>
<pdfrwt beam="2">  1       21 0.18609350E+00 0.51344545E+03</pdfrwt>
<totfact> 0.85367090E+02</totfact>
</mgrwt>
</event>
<event>
 4    1  0.4732450E-002  0.4365404E+03  0.7818608E-02  0.1031814E+00
         21   -1    0    0  503  502  0.00000000000E+00  0.00000000000E+00  0.29696085705E+03  0.29696085705E+03  0.00000000000E+00 0. -1.
         21   -1    0    0  501  503 -0.00000000000E+00 -0.00000000000E+00 -0.73017200417E+03  0.73017200417E+03  0.00000000000E+00 0.  1.
    9000007    1    1    2  501    0  0.16015078994E+03  0.70137260425E+02 -0.39534612069E+03  0.58895336484E+03  0.40000000000E+03 0.  1.
   -9000007    1    1    2    0  502 -0.16015078994E+03 -0.70137260425E+02 -0.37865026440E+02  0.43817949638E+03  0.40000000000E+03 0. -1.
<mgrwt>
<rscale>  2 0.43654039E+03</rscale>
<asrwt>0</asrwt>
<pdfrwt beam="1">  1       21 0.45686286E-01 0.43654039E+03</pdfrwt>
<pdfrwt beam="2">  1       21 0.11233415E+00 0.43654039E+03</pdfrwt>
<totfact> 0.24785869E+03</totfact>
</mgrwt>
</event>
<event>
 4    1  0.4732450E-002  0.4008363E+03  0.7818608E-02  0.1043490E+00
         21   -1    0    0  501  502  0.00000000000E+00  0.00000000000E+00  0.95889262940E+03  0.95889262940E+03  0.00000000000E+00 0. -1.
         21   -1    0    0  502  503 -0.00000000000E+00 -0.00000000000E+00 -0.28586805265E+03  0.28586805265E+03  0.00000000000E+00 0. -1.
    9000007    1    1    2  501    0 -0.15896783622E+02  0.20420655800E+02  0.73690363508E+03  0.83886630538E+03  0.40000000000E+03 0. -1.
   -9000007    1    1    2    0  503  0.15896783622E+02 -0.20420655800E+02 -0.63879058332E+02  0.40589437666E+03  0.40000000000E+03 0. -1.
<mgrwt>
<rscale>  2 0.40083626E+03</rscale>
<asrwt>0</asrwt>
<pdfrwt beam="1">  1       21 0.14752194E+00 0.40083626E+03</pdfrwt>
<pdfrwt beam="2">  1       21 0.43979701E-01 0.40083626E+03</pdfrwt>
<totfact> 0.13466151E+03</totfact>
</mgrwt>
</event>
<event>
 4    1  0.4732450E-002  0.5639372E+03  0.7818608E-02  0.9983185E-01
         21   -1    0    0  503  502  0.00000000000E+00  0.00000000000E+00  0.20179875452E+04  0.20179875452E+04  0.00000000000E+00 0.  1.
         21   -1    0    0  501  503 -0.00000000000E+00 -0.00000000000E+00 -0.31732297972E+03  0.31732297972E+03  0.00000000000E+00 0.  1.
    9000007    1    1    2  501    0 -0.33469489101E+03 -0.21448665220E+03  0.21905602350E+02  0.56436251599E+03  0.40000000000E+03 0.  1.
   -9000007    1    1    2    0  502  0.33469489101E+03  0.21448665220E+03  0.16787589631E+04  0.17709480089E+04  0.40000000000E+03 0.  1.
<mgrwt>
<rscale>  2 0.56393723E+03</rscale>
<asrwt>0</asrwt>
<pdfrwt beam="1">  1       21 0.31045962E+00 0.56393723E+03</pdfrwt>
<pdfrwt beam="2">  1       21 0.48818921E-01 0.56393723E+03</pdfrwt>
<totfact> 0.85654413E+01</totfact>
</mgrwt>
</event>
<event>
 4    1  0.4732450E-002  0.4025518E+03  0.7818608E-02  0.1042900E+00
         21   -1    0    0  503  502  0.00000000000E+00  0.00000000000E+00  0.31002262156E+03  0.31002262156E+03  0.00000000000E+00 0. -1.
         21   -1    0    0  501  503 -0.00000000000E+00 -0.00000000000E+00 -0.59079714383E+03  0.59079714383E+03  0.00000000000E+00 0. -1.
    9000007    1    1    2  501    0 -0.12030584361E+02  0.43626110282E+02 -0.29330642947E+03  0.49807292039E+03  0.40000000000E+03 0.  1.
   -9000007    1    1    2    0  502  0.12030584361E+02 -0.43626110282E+02  0.12531907195E+02  0.40274684500E+03  0.40000000000E+03 0.  1.
<mgrwt>
<rscale>  2 0.40255183E+03</rscale>
<asrwt>0</asrwt>
<pdfrwt beam="1">  1       21 0.47695789E-01 0.40255183E+03</pdfrwt>
<pdfrwt beam="2">  1       21 0.90891867E-01 0.40255183E+03</pdfrwt>
<totfact> 0.38382966E+03</totfact>
</mgrwt>
</event>
<event>
 4    1  0.4732450E-002  0.5078475E+03  0.7818608E-02  0.1011751E+00
         21   -1    0    0  501  502  0.00000000000E+00  0.00000000000E+00  0.13910194288E+04  0.13910194288E+04  0.00000000000E+00 0. -1.
         21   -1    0    0  502  503 -0.00000000000E+00 -0.00000000000E+00 -0.20785528304E+03  0.20785528304E+03  0.00000000000E+00 0. -1.
    9000007    1    1    2  501    0  0.49252575754E+02 -0.30900362337E+03  0.85428532656E+03  0.99383724756E+03  0.40000000000E+03 0. -1.
   -9000007    1    1    2    0  503 -0.49252575754E+02  0.30900362337E+03  0.32887881923E+03  0.60503746430E+03  0.40000000000E+03 0. -1.
<mgrwt>
<rscale>  2 0.50784747E+03</rscale>
<asrwt>0</asrwt>
<pdfrwt beam="1">  1       21 0.21400298E+00 0.50784747E+03</pdfrwt>
<pdfrwt beam="2">  1       21 0.31977737E-01 0.50784747E+03</pdfrwt>
<totfact> 0.83181142E+02</totfact>
</mgrwt>
</event>
<event>
 4    1  0.4732450E-002  0.4143255E+03  0.7818608E-02  0.1038929E+00
         21   -1    0    0  501  502  0.00000000000E+00  0.00000000000E+00  0.65618003283E+03  0.65618003283E+03  0.00000000000E+00 0.  1.
         21   -1    0    0  502  503 -0.00000000000E+00 -0.00000000000E+00 -0.28410948384E+03  0.28410948384E+03  0.00000000000E+00 0.  1.
    9000007    1    1    2  501    0  0.63389751231E+02  0.87449218458E+02  0.31832928399E+03  0.52249321471E+03  0.40000000000E+03 0.  1.
   -9000007    1    1    2    0  503 -0.63389751231E+02 -0.87449218458E+02  0.53741265007E+02  0.41779630196E+03  0.40000000000E+03 0.  1.
<mgrwt>
<rscale>  2 0.41432551E+03</rscale>
<asrwt>0</asrwt>
<pdfrwt beam="1">  1       21 0.10095077E+00 0.41432551E+03</pdfrwt>
<pdfrwt beam="2">  1       21 0.43709151E-01 0.41432551E+03</pdfrwt>
<totfact> 0.35671886E+03</totfact>
</mgrwt>
</event>
<event>
 4    1  0.4732450E-002  0.5588969E+03  0.7818608E-02  0.9994554E-01
         21   -1    0    0  503  502  0.00000000000E+00  0.00000000000E+00  0.24301399549E+03  0.24301399549E+03  0.00000000000E+00 0. -1.
         21   -1    0    0  501  503 -0.00000000000E+00 -0.00000000000E+00 -0.13143735257E+04  0.13143735257E+04  0.00000000000E+00 0.  1.
    9000007    1    1    2  501    0 -0.23444694101E+03 -0.31209027273E+03 -0.65132991254E+03  0.85825192190E+03  0.40000000000E+03 0.  1.
   -9000007    1    1    2    0  502  0.23444694101E+03  0.31209027273E+03 -0.42002961769E+03  0.69913559931E+03  0.40000000000E+03 0. -1.
<mgrwt>
<rscale>  2 0.55889687E+03</rscale>
<asrwt>0</asrwt>
<pdfrwt beam="1">  1       21 0.37386768E-01 0.55889687E+03</pdfrwt>
<pdfrwt beam="2">  1       21 0.20221131E+00 0.55889687E+03</pdfrwt>
<totfact> 0.71018035E+02</totfact>
</mgrwt>
</event>
<event>
 4    1  0.4732450E-002  0.6414342E+03  0.7818608E-02  0.9822986E-01
         21   -1    0    0  503  502  0.00000000000E+00  0.00000000000E+00  0.65320691536E+03  0.65320691536E+03  0.00000000000E+00 0. -1.
         21   -1    0    0  501  503 -0.00000000000E+00 -0.00000000000E+00 -0.64454426947E+03  0.64454426947E+03  0.00000000000E+00 0. -1.
    9000007    1    1    2  501    0 -0.27676856945E+03 -0.41813517544E+03  0.10222583306E+03  0.64952905010E+03  0.40000000000E+03 0. -1.
   -9000007    1    1    2    0  502  0.27676856945E+03  0.41813517544E+03 -0.93563187172E+02  0.64822213474E+03  0.40000000000E+03 0. -1.
<mgrwt>
<rscale>  2 0.64143423E+03</rscale>
<asrwt>0</asrwt>
<pdfrwt beam="1">  1       21 0.10049337E+00 0.64143423E+03</pdfrwt>
<pdfrwt beam="2">  1       21 0.99160657E-01 0.64143423E+03</pdfrwt>
<totfact> 0.53185147E+02</totfact>
</mgrwt>
</event>
<event>
 4    1  0.4732450E-002  0.4920761E+03  0.7818608E-02  0.1015868E+00
         21   -1    0    0  501  502  0.00000000000E+00  0.00000000000E+00  0.14833398476E+03  0.14833398476E+03  0.00000000000E+00 0. -1.
         21   -1    0    0  502  503 -0.00000000000E+00 -0.00000000000E+00 -0.18192910606E+04  0.18192910606E+04  0.00000000000E+00 0. -1.
    9000007    1    1    2  501    0 -0.28436769624E+03 -0.35691073267E+02 -0.11508102988E+04  0.12516002490E+04  0.40000000000E+03 0. -1.
   -9000007    1    1    2    0  503  0.28436769624E+03  0.35691073267E+02 -0.52014677700E+03  0.71602479636E+03  0.40000000000E+03 0. -1.
<mgrwt>
<rscale>  2 0.49207605E+03</rscale>
<asrwt>0</asrwt>
<pdfrwt beam="1">  1       21 0.22820614E-01 0.49207605E+03</pdfrwt>
<pdfrwt beam="2">  1       21 0.27989092E+00 0.49207605E+03</pdfrwt>
<totfact> 0.63332945E+02</totfact>
</mgrwt>
</event>
<event>
 4    1  0.4732450E-002  0.5245523E+03  0.7818608E-02  0.1007562E+00
         21   -1    0    0  501  502  0.00000000000E+00  0.00000000000E+00  0.34004411887E+04  0.34004411887E+04  0.00000000000E+00 0. -1.
         21   -1    0    0  502  503 -0.00000000000E+00 -0.00000000000E+00 -0.88520443395E+02  0.88520443395E+02  0.00000000000E+00 0. -1.
    9000007    1    1    2  501    0  0.32463801286E+02  0.33778877220E+03  0.21672131495E+04  0.22297910189E+04  0.40000000000E+03 0. -1.
   -9000007    1    1    2    0  503 -0.32463801286E+02 -0.33778877220E+03  0.11447075959E+04  0.12591706132E+04  0.40000000000E+03 0. -1.
<mgrwt>
<rscale>  2 0.52455234E+03</rscale>
<asrwt>0</asrwt>
<pdfrwt beam="1">  1       21 0.52314470E+00 0.52455234E+03</pdfrwt>
<pdfrwt beam="2">  1       21 0.13618532E-01 0.52455234E+03</pdfrwt>
<totfact> 0.42655598E+01</totfact>
</mgrwt>
</event>
<event>
 4    1  0.4732450E-002  0.4731714E+03  0.7818608E-02  0.1021029E+00
         21   -1    0    0  503  502  0.00000000000E+00  0.00000000000E+00  0.44624264746E+03  0.44624264746E+03  0.00000000000E+00 0. -1.
         21   -1    0    0  501  503 -0.00000000000E+00 -0.00000000000E+00 -0.77012518296E+03  0.77012518296E+03  0.00000000000E+00 0.  1.
    9000007    1    1    2  501    0 -0.60574820548E+02  0.24540143169E+03 -0.52098349362E+03  0.70378616936E+03  0.40000000000E+03 0.  1.
   -9000007    1    1    2    0  502  0.60574820548E+02 -0.24540143169E+03  0.19710095812E+03  0.51258166105E+03  0.40000000000E+03 0. -1.
<mgrwt>
<rscale>  2 0.47317140E+03</rscale>
<asrwt>0</asrwt>
<pdfrwt beam="1">  1       21 0.68652715E-01 0.47317140E+03</pdfrwt>
<pdfrwt beam="2">  1       21 0.11848080E+00 0.47317140E+03</pdfrwt>
<totfact> 0.88410341E+02</totfact>
</mgrwt>
</event>
<event>
 4    1  0.4732450E-002  0.5148372E+03  0.7818608E-02  0.1009977E+00
         21   -1    0    0  501  502  0.00000000000E+00  0.00000000000E+00  0.13109635441E+04  0.13109635441E+04  0.00000000000E+00 0. -1.
         21   -1    0    0  502  503 -0.00000000000E+00 -0.00000000000E+00 -0.31110710605E+03  0.31110710605E+03  0.00000000000E+00 0.  1.
    9000007    1    1    2  501    0 -0.31006522022E+03  0.94429445902E+02  0.97981912565E+03  0.11068436565E+04  0.40000000000E+03 0. -1.
   -9000007    1    1    2    0  503  0.31006522022E+03 -0.94429445902E+02  0.20037312388E+02  0.51522699360E+03  0.40000000000E+03 0.  1.
<mgrwt>
<rscale>  2 0.51483722E+03</rscale>
<asrwt>0</asrwt>
<pdfrwt beam="1">  1       21 0.20168670E+00 0.51483722E+03</pdfrwt>
<pdfrwt beam="2">  1       21 0.47862632E-01 0.51483722E+03</pdfrwt>
<totfact> 0.43545971E+02</totfact>
</mgrwt>
</event>
<event>
 4    1  0.4732450E-002  0.6220361E+03  0.7818608E-02  0.9860714E-01
         21   -1    0    0  503  502  0.00000000000E+00  0.00000000000E+00  0.35552835942E+03  0.35552835942E+03  0.00000000000E+00 0. -1.
         21   -1    0    0  501  503 -0.00000000000E+00 -0.00000000000E+00 -0.11878623197E+04  0.11878623197E+04  0.00000000000E+00 0. -1.
    9000007    1    1    2  501    0 -0.13103646066E+03 -0.45799377115E+03 -0.19277615788E+03  0.65122307659E+03  0.40000000000E+03 0. -1.
   -9000007    1    1    2    0  502  0.13103646066E+03  0.45799377115E+03 -0.63955780244E+03  0.89216760258E+03  0.40000000000E+03 0. -1.
<mgrwt>
<rscale>  2 0.62203605E+03</rscale>
<asrwt>0</asrwt>
<pdfrwt beam="1">  1       21 0.54696670E-01 0.62203605E+03</pdfrwt>
<pdfrwt beam="2">  1       21 0.18274805E+00 0.62203605E+03</pdfrwt>
<totfact> 0.42344564E+02</totfact>
</mgrwt>
</event>
<event>
 4    1  0.4732450E-002  0.4499348E+03  0.7818608E-02  0.1027741E+00
         21   -1    0    0  501  502  0.00000000000E+00  0.00000000000E+00  0.11596549217E+04  0.11596549217E+04  0.00000000000E+00 0. -1.
         21   -1    0    0  502  503 -0.00000000000E+00 -0.00000000000E+00 -0.18358413352E+03  0.18358413352E+03  0.00000000000E+00 0. -1.
    9000007    1    1    2  501    0 -0.15945072519E+03  0.13044847082E+03  0.63685491144E+03  0.77975990890E+03  0.40000000000E+03 0. -1.
   -9000007    1    1    2    0  503  0.15945072519E+03 -0.13044847082E+03  0.33921587673E+03  0.56347914631E+03  0.40000000000E+03 0. -1.
<mgrwt>
<rscale>  2 0.44993481E+03</rscale>
<asrwt>0</asrwt>
<pdfrwt beam="1">  1       21 0.17840845E+00 0.44993481E+03</pdfrwt>
<pdfrwt beam="2">  1       21 0.28243713E-01 0.44993481E+03</pdfrwt>
<totfact> 0.18993932E+03</totfact>
</mgrwt>
</event>
<event>
 4    1  0.4732450E-002  0.4456390E+03  0.7818608E-02  0.1029031E+00
         21   -1    0    0  503  502  0.00000000000E+00  0.00000000000E+00  0.87328398487E+03  0.87328398487E+03  0.00000000000E+00 0.  1.
         21   -1    0    0  501  503 -0.00000000000E+00 -0.00000000000E+00 -0.41453185743E+03  0.41453185743E+03  0.00000000000E+00 0.  1.
    9000007    1    1    2  501    0  0.10494205900E+03 -0.16607602120E+03 -0.20324365887E+03  0.48979798431E+03  0.40000000000E+03 0.  1.
   -9000007    1    1    2    0  502 -0.10494205900E+03  0.16607602120E+03  0.66199578631E+03  0.79801785799E+03  0.40000000000E+03 0.  1.
<mgrwt>
<rscale>  2 0.44563896E+03</rscale>
<asrwt>0</asrwt>
<pdfrwt beam="1">  1       21 0.13435138E+00 0.44563896E+03</pdfrwt>
<pdfrwt beam="2">  1       21 0.63774132E-01 0.44563896E+03</pdfrwt>
<totfact> 0.76237530E+02</totfact>
</mgrwt>
</event>
<event>
 4    1  0.4732450E-002  0.4199733E+03  0.7818608E-02  0.1037075E+00
         21   -1    0    0  503  502  0.00000000000E+00  0.00000000000E+00  0.54925372070E+03  0.54925372070E+03  0.00000000000E+00 0.  1.
         21   -1    0    0  501  503 -0.00000000000E+00 -0.00000000000E+00 -0.37192581143E+03  0.37192581143E+03  0.00000000000E+00 0.  1.
    9000007    1    1    2  501    0  0.18744787176E+02 -0.12659455633E+03 -0.81565038131E+02  0.42782052801E+03  0.40000000000E+03 0.  1.
   -9000007    1    1    2    0  502 -0.18744787176E+02  0.12659455633E+03  0.25889294740E+03  0.49335900412E+03  0.40000000000E+03 0.  1.
<mgrwt>
<rscale>  2 0.41997327E+03</rscale>
<asrwt>0</asrwt>
<pdfrwt beam="1">  1       21 0.84500572E-01 0.41997327E+03</pdfrwt>
<pdfrwt beam="2">  1       21 0.57219356E-01 0.41997327E+03</pdfrwt>
<totfact> 0.30665086E+03</totfact>
</mgrwt>
</event>
<event>
 4    1  0.4732450E-002  0.6353701E+03  0.7818608E-02  0.9834625E-01
         21   -1    0    0  503  502  0.00000000000E+00  0.00000000000E+00  0.15288216170E+04  0.15288216170E+04  0.00000000000E+00 0. -1.
         21   -1    0    0  501  503 -0.00000000000E+00 -0.00000000000E+00 -0.30474107147E+03  0.30474107147E+03  0.00000000000E+00 0.  1.
    9000007    1    1    2  501    0  0.32931899085E+02  0.49255526103E+03  0.27706290947E+03  0.69315153535E+03  0.40000000000E+03 0. -1.
   -9000007    1    1    2    0  502 -0.32931899085E+02 -0.49255526103E+03  0.94701763605E+03  0.11404111531E+04  0.40000000000E+03 0. -1.
<mgrwt>
<rscale>  2 0.63537012E+03</rscale>
<asrwt>0</asrwt>
<pdfrwt beam="1">  1       21 0.23520332E+00 0.63537012E+03</pdfrwt>
<pdfrwt beam="2">  1       21 0.46883243E-01 0.63537012E+03</pdfrwt>
<totfact> 0.26270422E+02</totfact>
</mgrwt>
</event>
<event>
 4    1  0.4732450E-002  0.5096079E+03  0.7818608E-02  0.1011301E+00
         21   -1    0    0  503  502  0.00000000000E+00  0.00000000000E+00  0.11457461780E+04  0.11457461780E+04  0.00000000000E+00 0.  1.
         21   -1    0    0  501  503 -0.00000000000E+00 -0.00000000000E+00 -0.30065575860E+03  0.30065575860E+03  0.00000000000E+00 0. -1.
    9000007    1    1    2  501    0 -0.11873353712E+03  0.29257909040E+03  0.63777002647E+02  0.51358318026E+03  0.40000000000E+03 0. -1.
   -9000007    1    1    2    0  502  0.11873353712E+03 -0.29257909040E+03  0.78131341673E+03  0.93281875632E+03  0.40000000000E+03 0.  1.
<mgrwt>
<rscale>  2 0.50960787E+03</rscale>
<asrwt>0</asrwt>
<pdfrwt beam="1">  1       21 0.17626864E+00 0.50960787E+03</pdfrwt>
<pdfrwt beam="2">  1       21 0.46254732E-01 0.50960787E+03</pdfrwt>
<totfact> 0.70280384E+02</totfact>
</mgrwt>
</event>
<event>
 4    1  0.4732450E-002  0.4319163E+03  0.7818608E-02  0.1033256E+00
         21   -1    0    0  503  502  0.00000000000E+00  0.00000000000E+00  0.30325968425E+03  0.30325968425E+03  0.00000000000E+00 0. -1.
         21   -1    0    0  501  503 -0.00000000000E+00 -0.00000000000E+00 -0.13798570281E+04  0.13798570281E+04  0.00000000000E+00 0. -1.
    9000007    1    1    2  501    0  0.15452502230E+03  0.51707811773E+02 -0.11647875154E+04  0.12422888700E+04  0.40000000000E+03 0. -1.
   -9000007    1    1    2    0  502 -0.15452502230E+03 -0.51707811773E+02  0.88190171532E+02  0.44082784244E+03  0.40000000000E+03 0. -1.
<mgrwt>
<rscale>  2 0.43191629E+03</rscale>
<asrwt>0</asrwt>
<pdfrwt beam="1">  1       21 0.46655336E-01 0.43191629E+03</pdfrwt>
<pdfrwt beam="2">  1       21 0.21228570E+00 0.43191629E+03</pdfrwt>
<totfact> 0.40736998E+02</totfact>
</mgrwt>
</event>
<event>
 4    1  0.4732450E-002  0.9913546E+03  0.7818608E-02  0.9318078E-01
         21   -1    0    0  501  502  0.00000000000E+00  0.00000000000E+00  0.83205437739E+03  0.83205437739E+03  0.00000000000E+00 0. -1.
         21   -1    0    0  502  503 -0.00000000000E+00 -0.00000000000E+00 -0.16403590387E+04  0.16403590387E+04  0.00000000000E+00 0.  1.
    9000007    1    1    2  501    0 -0.90459048925E+03  0.67081969101E+02  0.24991912209E+03  0.10223715134E+04  0.40000000000E+03 0. -1.
   -9000007    1    1    2    0  503  0.90459048925E+03 -0.67081969101E+02 -0.10582237834E+04  0.14500419027E+04  0.40000000000E+03 0.  1.
<mgrwt>
<rscale>  2 0.99135460E+03</rscale>
<asrwt>0</asrwt>
<pdfrwt beam="1">  1       21 0.12800837E+00 0.99135460E+03</pdfrwt>
<pdfrwt beam="2">  1       21 0.25236293E+00 0.99135460E+03</pdfrwt>
<totfact> 0.17260809E+01</totfact>
</mgrwt>
</event>
<event>
 4    1  0.4732450E-002  0.4188555E+03  0.7818608E-02  0.1037439E+00
         21   -1    0    0  501  502  0.00000000000E+00  0.00000000000E+00  0.11634979557E+04  0.11634979557E+04  0.00000000000E+00 0. -1.
         21   -1    0    0  502  503 -0.00000000000E+00 -0.00000000000E+00 -0.16441766085E+03  0.16441766085E+03  0.00000000000E+00 0. -1.
    9000007    1    1    2  501    0  0.10743360794E+03 -0.62433249269E+02  0.69071519926E+03  0.80779166697E+03  0.40000000000E+03 0. -1.
   -9000007    1    1    2    0  503 -0.10743360794E+03  0.62433249269E+02  0.30836509555E+03  0.52012394954E+03  0.40000000000E+03 0. -1.
<mgrwt>
<rscale>  2 0.41885545E+03</rscale>
<asrwt>0</asrwt>
<pdfrwt beam="1">  1       21 0.17899968E+00 0.41885545E+03</pdfrwt>
<pdfrwt beam="2">  1       21 0.25295025E-01 0.41885545E+03</pdfrwt>
<totfact> 0.23656881E+03</totfact>
</mgrwt>
</event>
<event>
 4    1  0.4732450E-002  0.4684351E+03  0.7818608E-02  0.1022363E+00
         21   -1    0    0  501  502  0.00000000000E+00  0.00000000000E+00  0.24823474992E+03  0.24823474992E+03  0.00000000000E+00 0. -1.
         21   -1    0    0  502  503 -0.00000000000E+00 -0.00000000000E+00 -0.88998910803E+03  0.88998910803E+03  0.00000000000E+00 0. -1.
    9000007    1    1    2  501    0  0.20378547458E+03 -0.13380167764E+03 -0.27406403729E+03  0.54271770298E+03  0.40000000000E+03 0. -1.
   -9000007    1    1    2    0  503 -0.20378547458E+03  0.13380167764E+03 -0.36769032082E+03  0.59550615498E+03  0.40000000000E+03 0. -1.
<mgrwt>
<rscale>  2 0.46843506E+03</rscale>
<asrwt>0</asrwt>
<pdfrwt beam="1">  1       21 0.38189961E-01 0.46843506E+03</pdfrwt>
<pdfrwt beam="2">  1       21 0.13692140E+00 0.46843506E+03</pdfrwt>
<totfact> 0.21386215E+03</totfact>
</mgrwt>
</event>
<event>
 4    1  0.4732450E-002  0.5020878E+03  0.7818608E-02  0.1013235E+00
         21   -1    0    0  501  502  0.00000000000E+00  0.00000000000E+00  0.17173104830E+04  0.17173104830E+04  0.00000000000E+00 0.  1.
         21   -1    0    0  502  503 -0.00000000000E+00 -0.00000000000E+00 -0.16176289779E+03  0.16176289779E+03  0.00000000000E+00 0.  1.
    9000007    1    1    2  501    0 -0.19195377760E+03  0.23504451486E+03  0.10635711451E+04  0.11761274409E+04  0.40000000000E+03 0.  1.
   -9000007    1    1    2    0  503  0.19195377760E+03 -0.23504451486E+03  0.49197644014E+03  0.70294593985E+03  0.40000000000E+03 0.  1.
<mgrwt>
<rscale>  2 0.50208782E+03</rscale>
<asrwt>0</asrwt>
<pdfrwt beam="1">  1       21 0.26420160E+00 0.50208782E+03</pdfrwt>
<pdfrwt beam="2">  1       21 0.24886601E-01 0.50208782E+03</pdfrwt>
<totfact> 0.66356700E+02</totfact>
</mgrwt>
</event>
<event>
 4    1  0.4732450E-002  0.4684366E+03  0.7818608E-02  0.1022362E+00
         21   -1    0    0  501  502  0.00000000000E+00  0.00000000000E+00  0.60996734972E+03  0.60996734972E+03  0.00000000000E+00 0.  1.
         21   -1    0    0  502  503 -0.00000000000E+00 -0.00000000000E+00 -0.36587208006E+03  0.36587208006E+03  0.00000000000E+00 0.  1.
    9000007    1    1    2  501    0 -0.17344198809E+03 -0.17132060744E+03  0.18518706506E+03  0.50371333398E+03  0.40000000000E+03 0.  1.
   -9000007    1    1    2    0  503  0.17344198809E+03  0.17132060744E+03  0.58908204602E+02  0.47212609580E+03  0.40000000000E+03 0.  1.
<mgrwt>
<rscale>  2 0.46843663E+03</rscale>
<asrwt>0</asrwt>
<pdfrwt beam="1">  1       21 0.93841131E-01 0.46843663E+03</pdfrwt>
<pdfrwt beam="2">  1       21 0.56288012E-01 0.46843663E+03</pdfrwt>
<totfact> 0.24369735E+03</totfact>
</mgrwt>
</event>
<event>
 4    1  0.4732450E-002  0.5703594E+03  0.7818608E-02  0.9968884E-01
         21   -1    0    0  503  502  0.00000000000E+00  0.00000000000E+00  0.75555796083E+03  0.75555796083E+03  0.00000000000E+00 0.  1.
         21   -1    0    0  501  503 -0.00000000000E+00 -0.00000000000E+00 -0.43095803622E+03  0.43095803622E+03  0.00000000000E+00 0. -1.
    9000007    1    1    2  501    0 -0.40390966733E+03 -0.46548870332E+02  0.18042584883E+03  0.59821676976E+03  0.40000000000E+03 0. -1.
   -9000007    1    1    2    0  502  0.40390966733E+03  0.46548870332E+02  0.14417407579E+03  0.58829922729E+03  0.40000000000E+03 0.  1.
<mgrwt>
<rscale>  2 0.57035938E+03</rscale>
<asrwt>0</asrwt>
<pdfrwt beam="1">  1       21 0.11623969E+00 0.57035938E+03</pdfrwt>
<pdfrwt beam="2">  1       21 0.66301236E-01 0.57035938E+03</pdfrwt>
<totfact> 0.96878272E+02</totfact>
</mgrwt>
</event>
<event>
 4    1  0.4732450E-002  0.4747947E+03  0.7818608E-02  0.1020576E+00
         21   -1    0    0  503  502  0.00000000000E+00  0.00000000000E+00  0.13233393076E+03  0.13233393076E+03  0.00000000000E+00 0. -1.
         21   -1    0    0  501  503 -0.00000000000E+00 -0.00000000000E+00 -0.21771409713E+04  0.21771409713E+04  0.00000000000E+00 0. -1.
    9000007    1    1    2  501    0 -0.23010953172E+03  0.11171225158E+03 -0.48380212568E+03  0.67786025150E+03  0.40000000000E+03 0. -1.
   -9000007    1    1    2    0  502  0.23010953172E+03 -0.11171225158E+03 -0.15610049148E+04  0.16316146505E+04  0.40000000000E+03 0. -1.
<mgrwt>
<rscale>  2 0.47479472E+03</rscale>
<asrwt>0</asrwt>
<pdfrwt beam="1">  1       21 0.20359069E-01 0.47479472E+03</pdfrwt>
<pdfrwt beam="2">  1       21 0.33494473E+00 0.47479472E+03</pdfrwt>
<totfact> 0.36972931E+02</totfact>
</mgrwt>
</event>
<event>
 4    1  0.4732450E-002  0.5793830E+03  0.7818608E-02  0.9949128E-01
         21   -1    0    0  503  502  0.00000000000E+00  0.00000000000E+00  0.26109142317E+03  0.26109142317E+03  0.00000000000E+00 0. -1.
         21   -1    0    0  501  503 -0.00000000000E+00 -0.00000000000E+00 -0.19687017371E+04  0.19687017371E+04  0.00000000000E+00 0.  1.
    9000007    1    1    2  501    0 -0.39609381028E+03 -0.13709261342E+03 -0.15104887970E+04  0.16177951344E+04  0.40000000000E+03 0.  1.
   -9000007    1    1    2    0  502  0.39609381028E+03  0.13709261342E+03 -0.19712151698E+03  0.61199802586E+03  0.40000000000E+03 0. -1.
<mgrwt>
<rscale>  2 0.57938303E+03</rscale>
<asrwt>0</asrwt>
<pdfrwt beam="1">  1       21 0.40167912E-01 0.57938303E+03</pdfrwt>
<pdfrwt beam="2">  1       21 0.30287719E+00 0.57938303E+03</pdfrwt>
<totfact> 0.14238882E+02</totfact>
</mgrwt>
</event>
<event>
 4    1  0.4732450E-002  0.4269214E+03  0.7818608E-02  0.1034837E+00
         21   -1    0    0  503  502  0.00000000000E+00  0.00000000000E+00  0.57828058692E+03  0.57828058692E+03  0.00000000000E+00 0. -1.
         21   -1    0    0  501  503 -0.00000000000E+00 -0.00000000000E+00 -0.55324602635E+03  0.55324602635E+03  0.00000000000E+00 0. -1.
    9000007    1    1    2  501    0  0.13041879254E+03 -0.72476328916E+02 -0.35861204895E+03  0.55755222299E+03  0.40000000000E+03 0. -1.
   -9000007    1    1    2    0  502 -0.13041879254E+03  0.72476328916E+02  0.38364660953E+03  0.57397439028E+03  0.40000000000E+03 0. -1.
<mgrwt>
<rscale>  2 0.42692140E+03</rscale>
<asrwt>0</asrwt>
<pdfrwt beam="1">  1       21 0.88966244E-01 0.42692140E+03</pdfrwt>
<pdfrwt beam="2">  1       21 0.85114773E-01 0.42692140E+03</pdfrwt>
<totfact> 0.11090963E+03</totfact>
</mgrwt>
</event>
<event>
 4    1  0.4732450E-002  0.4633125E+03  0.7818608E-02  0.1023825E+00
         21   -1    0    0  503  502  0.00000000000E+00  0.00000000000E+00  0.48458977035E+03  0.48458977035E+03  0.00000000000E+00 0.  1.
         21   -1    0    0  501  503 -0.00000000000E+00 -0.00000000000E+00 -0.99476358447E+03  0.99476358447E+03  0.00000000000E+00 0. -1.
    9000007    1    1    2  501    0 -0.23037209146E+03  0.39839794737E+02 -0.80598401021E+03  0.92966054799E+03  0.40000000000E+03 0. -1.
   -9000007    1    1    2    0  502  0.23037209146E+03 -0.39839794737E+02  0.29581019609E+03  0.54969280683E+03  0.40000000000E+03 0.  1.
<mgrwt>
<rscale>  2 0.46331254E+03</rscale>
<asrwt>0</asrwt>
<pdfrwt beam="1">  1       21 0.74552272E-01 0.46331254E+03</pdfrwt>
<pdfrwt beam="2">  1       21 0.15304055E+00 0.46331254E+03</pdfrwt>
<totfact> 0.37565524E+02</totfact>
</mgrwt>
</event>
<event>
 4    1  0.4732450E-002  0.5632637E+03  0.7818608E-02  0.9984697E-01
         21   -1    0    0  503  502  0.00000000000E+00  0.00000000000E+00  0.15394151604E+04  0.15394151604E+04  0.00000000000E+00 0. -1.
         21   -1    0    0  501  503 -0.00000000000E+00 -0.00000000000E+00 -0.24204459238E+03  0.24204459238E+03  0.00000000000E+00 0. -1.
    9000007    1    1    2  501    0  0.36040154891E+03  0.16545909782E+03  0.30540849332E+03  0.64073421736E+03  0.40000000000E+03 0. -1.
   -9000007    1    1    2    0  502 -0.36040154891E+03 -0.16545909782E+03  0.99196207473E+03  0.11407255354E+04  0.40000000000E+03 0. -1.
<mgrwt>
<rscale>  2 0.56326369E+03</rscale>
<asrwt>0</asrwt>
<pdfrwt beam="1">  1       21 0.23683310E+00 0.56326369E+03</pdfrwt>
<pdfrwt beam="2">  1       21 0.37237631E-01 0.56326369E+03</pdfrwt>
<totfact> 0.42665200E+02</totfact>
</mgrwt>
</event>
<event>
 4    1  0.4732450E-002  0.5511562E+03  0.7818608E-02  0.1001227E+00
         21   -1    0    0  503  502  0.00000000000E+00  0.00000000000E+00  0.23613525110E+03  0.23613525110E+03  0.00000000000E+00 0.  1.
         21   -1    0    0  501  503 -0.00000000000E+00 -0.00000000000E+00 -0.13661526363E+04  0.13661526363E+04  0.00000000000E+00 0. -1.
    9000007    1    1    2  501    0 -0.13108821431E+03 -0.35579354917E+03 -0.75853150848E+03  0.93762637490E+03  0.40000000000E+03 0. -1.
   -9000007    1    1    2    0  502  0.13108821431E+03  0.35579354917E+03 -0.37148587668E+03  0.66466151245E+03  0.40000000000E+03 0. -1.
<mgrwt>
<rscale>  2 0.55115621E+03</rscale>
<asrwt>0</asrwt>
<pdfrwt beam="1">  1       21 0.36328501E-01 0.55115621E+03</pdfrwt>
<pdfrwt beam="2">  1       21 0.21017733E+00 0.55115621E+03</pdfrwt>
<totfact> 0.66892562E+02</totfact>
</mgrwt>
</event>
<event>
 4    1  0.4732450E-002  0.4296520E+03  0.7818608E-02  0.1033970E+00
         21   -1    0    0  503  502  0.00000000000E+00  0.00000000000E+00  0.32853252863E+03  0.32853252863E+03  0.00000000000E+00 0.  1.
         21   -1    0    0  501  503 -0.00000000000E+00 -0.00000000000E+00 -0.60140249924E+03  0.60140249924E+03  0.00000000000E+00 0.  1.
    9000007    1    1    2  501    0 -0.83191982560E+02 -0.13296580881E+03 -0.25560838081E+03  0.49993645258E+03  0.40000000000E+03 0.  1.
   -9000007    1    1    2    0  502  0.83191982560E+02  0.13296580881E+03 -0.17261589789E+02  0.42999857529E+03  0.40000000000E+03 0.  1.
<mgrwt>
<rscale>  2 0.42965197E+03</rscale>
<asrwt>0</asrwt>
<pdfrwt beam="1">  1       21 0.50543466E-01 0.42965197E+03</pdfrwt>
<pdfrwt beam="2">  1       21 0.92523461E-01 0.42965197E+03</pdfrwt>
<totfact> 0.32211898E+03</totfact>
</mgrwt>
</event>
<event>
 4    1  0.4732450E-002  0.7619731E+03  0.7818608E-02  0.9616751E-01
         21   -1    0    0  503  502  0.00000000000E+00  0.00000000000E+00  0.12932658925E+04  0.12932658925E+04  0.00000000000E+00 0. -1.
         21   -1    0    0  501  503 -0.00000000000E+00 -0.00000000000E+00 -0.54489695188E+03  0.54489695188E+03  0.00000000000E+00 0.  1.
    9000007    1    1    2  501    0 -0.36624241364E+03 -0.53522848976E+03 -0.11495939533E+02  0.76205983914E+03  0.40000000000E+03 0.  1.
   -9000007    1    1    2    0  502  0.36624241364E+03  0.53522848976E+03  0.75986488013E+03  0.10761030052E+04  0.40000000000E+03 0. -1.
<mgrwt>
<rscale>  2 0.76197312E+03</rscale>
<asrwt>0</asrwt>
<pdfrwt beam="1">  1       21 0.19896398E+00 0.76197312E+03</pdfrwt>
<pdfrwt beam="2">  1       21 0.83830301E-01 0.76197312E+03</pdfrwt>
<totfact> 0.11878643E+02</totfact>
</mgrwt>
</event>
<event>
 4    1  0.4732450E-002  0.4062689E+03  0.7818608E-02  0.1041630E+00
         21   -1    0    0  503  502  0.00000000000E+00  0.00000000000E+00  0.91822623629E+03  0.91822623629E+03  0.00000000000E+00 0.  1.
         21   -1    0    0  501  503 -0.00000000000E+00 -0.00000000000E+00 -0.26357838998E+03  0.26357838998E+03  0.00000000000E+00 0.  1.
    9000007    1    1    2  501    0 -0.43532707705E+02  0.56207957202E+02 -0.59084153607E+01  0.40631187586E+03  0.40000000000E+03 0.  1.
   -9000007    1    1    2    0  502  0.43532707705E+02 -0.56207957202E+02  0.66055626168E+03  0.77549275041E+03  0.40000000000E+03 0.  1.
<mgrwt>
<rscale>  2 0.40626891E+03</rscale>
<asrwt>0</asrwt>
<pdfrwt beam="1">  1       21 0.14126557E+00 0.40626891E+03</pdfrwt>
<pdfrwt beam="2">  1       21 0.40550522E-01 0.40626891E+03</pdfrwt>
<totfact> 0.17845832E+03</totfact>
</mgrwt>
</event>
<event>
 4    1  0.4732450E-002  0.4146729E+03  0.7818608E-02  0.1038814E+00
         21   -1    0    0  503  502  0.00000000000E+00  0.00000000000E+00  0.24930122291E+03  0.24930122291E+03  0.00000000000E+00 0. -1.
         21   -1    0    0  501  503 -0.00000000000E+00 -0.00000000000E+00 -0.15967166152E+04  0.15967166152E+04  0.00000000000E+00 0. -1.
    9000007    1    1    2  501    0  0.84600349708E+01  0.10900493046E+03 -0.13693555079E+04  0.14307648842E+04  0.40000000000E+03 0. -1.
   -9000007    1    1    2    0  502 -0.84600349708E+01 -0.10900493046E+03  0.21940115533E+02  0.41525295390E+03  0.40000000000E+03 0. -1.
<mgrwt>
<rscale>  2 0.41467294E+03</rscale>
<asrwt>0</asrwt>
<pdfrwt beam="1">  1       21 0.38354035E-01 0.41467294E+03</pdfrwt>
<pdfrwt beam="2">  1       21 0.24564870E+00 0.41467294E+03</pdfrwt>
<totfact> 0.38074357E+02</totfact>
</mgrwt>
</event>
<event>
 4    1  0.4732450E-002  0.4483682E+03  0.7818608E-02  0.1028210E+00
         21   -1    0    0  503  502  0.00000000000E+00  0.00000000000E+00  0.13604482474E+04  0.13604482474E+04  0.00000000000E+00 0. -1.
         21   -1    0    0  501  503 -0.00000000000E+00 -0.00000000000E+00 -0.77586529270E+03  0.77586529270E+03  0.00000000000E+00 0. -1.
    9000007    1    1    2  501    0  0.18305206427E+03 -0.86752292303E+02 -0.66877727421E+03  0.80516896423E+03  0.40000000000E+03 0. -1.
   -9000007    1    1    2    0  502 -0.18305206427E+03  0.86752292303E+02  0.12533602289E+04  0.13311445759E+04  0.40000000000E+03 0. -1.
<mgrwt>
<rscale>  2 0.44836817E+03</rscale>
<asrwt>0</asrwt>
<pdfrwt beam="1">  1       21 0.20929973E+00 0.44836817E+03</pdfrwt>
<pdfrwt beam="2">  1       21 0.11936389E+00 0.44836817E+03</pdfrwt>
<totfact> 0.49022091E+01</totfact>
</mgrwt>
</event>
<event>
 4    1  0.4732450E-002  0.6275139E+03  0.7818608E-02  0.9849912E-01
         21   -1    0    0  503  502  0.00000000000E+00  0.00000000000E+00  0.51950081925E+03  0.51950081925E+03  0.00000000000E+00 0. -1.
         21   -1    0    0  501  503 -0.00000000000E+00 -0.00000000000E+00 -0.77105527487E+03  0.77105527487E+03  0.00000000000E+00 0.  1.
    9000007    1    1    2  501    0  0.97411989522E+02  0.47358698997E+03 -0.41763635459E+02  0.62890216569E+03  0.40000000000E+03 0. -1.
   -9000007    1    1    2    0  502 -0.97411989522E+02 -0.47358698997E+03 -0.20979082016E+03  0.66165392842E+03  0.40000000000E+03 0.  1.
<mgrwt>
<rscale>  2 0.62751393E+03</rscale>
<asrwt>0</asrwt>
<pdfrwt beam="1">  1       21 0.79923203E-01 0.62751393E+03</pdfrwt>
<pdfrwt beam="2">  1       21 0.11862389E+00 0.62751393E+03</pdfrwt>
<totfact> 0.58982885E+02</totfact>
</mgrwt>
</event>
<event>
 4    1  0.4732450E-002  0.4787455E+03  0.7818608E-02  0.1019481E+00
         21   -1    0    0  501  502  0.00000000000E+00  0.00000000000E+00  0.51017285318E+03  0.51017285318E+03  0.00000000000E+00 0.  1.
         21   -1    0    0  502  503 -0.00000000000E+00 -0.00000000000E+00 -0.48788305720E+03  0.48788305720E+03  0.00000000000E+00 0.  1.
    9000007    1    1    2  501    0  0.11040794914E+03  0.23876205282E+03 -0.12927337948E+03  0.49589196378E+03  0.40000000000E+03 0. -1.
   -9000007    1    1    2    0  503 -0.11040794914E+03 -0.23876205282E+03  0.15156317546E+03  0.50216394659E+03  0.40000000000E+03 0. -1.
<mgrwt>
<rscale>  2 0.47874548E+03</rscale>
<asrwt>0</asrwt>
<pdfrwt beam="1">  1       21 0.78488131E-01 0.47874548E+03</pdfrwt>
<pdfrwt beam="2">  1       21 0.75058932E-01 0.47874548E+03</pdfrwt>
<totfact> 0.19465197E+03</totfact>
</mgrwt>
</event>
<event>
 4    1  0.4732450E-002  0.5429170E+03  0.7818608E-02  0.1003147E+00
         21   -1    0    0  503  502  0.00000000000E+00  0.00000000000E+00  0.37469225500E+03  0.37469225500E+03  0.00000000000E+00 0.  1.
         21   -1    0    0  501  503 -0.00000000000E+00 -0.00000000000E+00 -0.87746018489E+03  0.87746018489E+03  0.00000000000E+00 0.  1.
    9000007    1    1    2  501    0 -0.20801668896E+03  0.30246978013E+03 -0.45277239479E+03  0.70693829452E+03  0.40000000000E+03 0.  1.
   -9000007    1    1    2    0  502  0.20801668896E+03 -0.30246978013E+03 -0.49995535099E+02  0.54521414537E+03  0.40000000000E+03 0.  1.
<mgrwt>
<rscale>  2 0.54291704E+03</rscale>
<asrwt>0</asrwt>
<pdfrwt beam="1">  1       21 0.57644963E-01 0.54291704E+03</pdfrwt>
<pdfrwt beam="2">  1       21 0.13499387E+00 0.54291704E+03</pdfrwt>
<totfact> 0.90521101E+02</totfact>
</mgrwt>
</event>
<event>
 4    1  0.4732450E-002  0.6228381E+03  0.7818608E-02  0.9859125E-01
         21   -1    0    0  503  502  0.00000000000E+00  0.00000000000E+00  0.16918027243E+04  0.16918027243E+04  0.00000000000E+00 0.  1.
         21   -1    0    0  501  503 -0.00000000000E+00 -0.00000000000E+00 -0.25431331769E+03  0.25431331769E+03  0.00000000000E+00 0. -1.
    9000007    1    1    2  501    0 -0.44153623341E+03  0.18158485764E+03  0.41356508209E+03  0.74763853771E+03  0.40000000000E+03 0. -1.
   -9000007    1    1    2    0  502  0.44153623341E+03 -0.18158485764E+03  0.10239243246E+04  0.11984775043E+04  0.40000000000E+03 0.  1.
<mgrwt>
<rscale>  2 0.62283811E+03</rscale>
<asrwt>0</asrwt>
<pdfrwt beam="1">  1       21 0.26027734E+00 0.62283811E+03</pdfrwt>
<pdfrwt beam="2">  1       21 0.39125127E-01 0.62283811E+03</pdfrwt>
<totfact> 0.26876032E+02</totfact>
</mgrwt>
</event>
<event>
 4    1  0.4732450E-002  0.4593491E+03  0.7818608E-02  0.1024970E+00
         21   -1    0    0  501  502  0.00000000000E+00  0.00000000000E+00  0.91629575496E+03  0.91629575496E+03  0.00000000000E+00 0.  1.
         21   -1    0    0  502  503 -0.00000000000E+00 -0.00000000000E+00 -0.23123063392E+03  0.23123063392E+03  0.00000000000E+00 0.  1.
    9000007    1    1    2  501    0  0.16397166624E+03 -0.15528979641E+03  0.37938386527E+03  0.59576316219E+03  0.40000000000E+03 0.  1.
   -9000007    1    1    2    0  503 -0.16397166624E+03  0.15528979641E+03  0.30568125577E+03  0.55176322669E+03  0.40000000000E+03 0.  1.
<mgrwt>
<rscale>  2 0.45934914E+03</rscale>
<asrwt>0</asrwt>
<pdfrwt beam="1">  1       21 0.14096858E+00 0.45934914E+03</pdfrwt>
<pdfrwt beam="2">  1       21 0.35573944E-01 0.45934914E+03</pdfrwt>
<totfact> 0.22950446E+03</totfact>
</mgrwt>
</event>
<event>
 4    1  0.4732450E-002  0.4672320E+03  0.7818608E-02  0.1022704E+00
         21   -1    0    0  501  502  0.00000000000E+00  0.00000000000E+00  0.15251235413E+04  0.15251235413E+04  0.00000000000E+00 0.  1.
         21   -1    0    0  502  503 -0.00000000000E+00 -0.00000000000E+00 -0.17973176398E+03  0.17973176398E+03  0.00000000000E+00 0.  1.
    9000007    1    1    2  501    0 -0.24061683155E+03 -0.20230560536E+02  0.28806998511E+03  0.54889894473E+03  0.40000000000E+03 0.  1.
   -9000007    1    1    2    0  503  0.24061683155E+03  0.20230560536E+02  0.10573217922E+04  0.11559563606E+04  0.40000000000E+03 0.  1.
<mgrwt>
<rscale>  2 0.46723199E+03</rscale>
<asrwt>0</asrwt>
<pdfrwt beam="1">  1       21 0.23463438E+00 0.46723199E+03</pdfrwt>
<pdfrwt beam="2">  1       21 0.27651042E-01 0.46723199E+03</pdfrwt>
<totfact> 0.83548068E+02</totfact>
</mgrwt>
</event>
<event>
 4    1  0.4732450E-002  0.4016674E+03  0.7818608E-02  0.1043204E+00
         21   -1    0    0  501  502  0.00000000000E+00  0.00000000000E+00  0.78721606001E+02  0.78721606001E+02  0.00000000000E+00 0.  1.
         21   -1    0    0  502  503 -0.00000000000E+00 -0.00000000000E+00 -0.22910120043E+04  0.22910120043E+04  0.00000000000E+00 0.  1.
    9000007    1    1    2  501    0  0.25839255536E+02 -0.25865428326E+02 -0.72140970077E+03  0.82569282659E+03  0.40000000000E+03 0.  1.
   -9000007    1    1    2    0  503 -0.25839255536E+02  0.25865428326E+02 -0.14908806975E+04  0.15440407837E+04  0.40000000000E+03 0.  1.
<mgrwt>
<rscale>  2 0.40166738E+03</rscale>
<asrwt>0</asrwt>
<pdfrwt beam="1">  1       21 0.12111014E-01 0.40166738E+03</pdfrwt>
<pdfrwt beam="2">  1       21 0.35246345E+00 0.40166738E+03</pdfrwt>
<totfact> 0.79532924E+02</totfact>
</mgrwt>
</event>
<event>
 4    1  0.4732450E-002  0.4056098E+03  0.7818608E-02  0.1041854E+00
         21   -1    0    0  501  502  0.00000000000E+00  0.00000000000E+00  0.16631627166E+03  0.16631627166E+03  0.00000000000E+00 0.  1.
         21   -1    0    0  502  503 -0.00000000000E+00 -0.00000000000E+00 -0.21465810204E+04  0.21465810204E+04  0.00000000000E+00 0.  1.
    9000007    1    1    2  501    0 -0.67121056744E+02 -0.37526791552E+01 -0.14096809108E+03  0.42940810607E+03  0.40000000000E+03 0.  1.
   -9000007    1    1    2    0  503  0.67121056744E+02  0.37526791552E+01 -0.18392966576E+04  0.18834891860E+04  0.40000000000E+03 0.  1.
<mgrwt>
<rscale>  2 0.40560981E+03</rscale>
<asrwt>0</asrwt>
<pdfrwt beam="1">  1       21 0.25587120E-01 0.40560981E+03</pdfrwt>
<pdfrwt beam="2">  1       21 0.33024322E+00 0.40560981E+03</pdfrwt>
<totfact> 0.26547193E+02</totfact>
</mgrwt>
</event>
<event>
 4    1  0.4732450E-002  0.4416315E+03  0.7818608E-02  0.1030247E+00
         21   -1    0    0  501  502  0.00000000000E+00  0.00000000000E+00  0.65577144145E+03  0.65577144145E+03  0.00000000000E+00 0.  1.
         21   -1    0    0  502  503 -0.00000000000E+00 -0.00000000000E+00 -0.31232309425E+03  0.31232309425E+03  0.00000000000E+00 0. -1.
    9000007    1    1    2  501    0  0.16818144421E+03 -0.82179006929E+02  0.27746668092E+03  0.52156125851E+03  0.40000000000E+03 0. -1.
   -9000007    1    1    2    0  503 -0.16818144421E+03  0.82179006929E+02  0.65981666278E+02  0.44653327720E+03  0.40000000000E+03 0. -1.
<mgrwt>
<rscale>  2 0.44163151E+03</rscale>
<asrwt>0</asrwt>
<pdfrwt beam="1">  1       21 0.10088791E+00 0.44163151E+03</pdfrwt>
<pdfrwt beam="2">  1       21 0.48049707E-01 0.44163151E+03</pdfrwt>
<totfact> 0.28993864E+03</totfact>
</mgrwt>
</event>
<event>
 4    1  0.4732450E-002  0.4414853E+03  0.7818608E-02  0.1030292E+00
         21   -1    0    0  503  502  0.00000000000E+00  0.00000000000E+00  0.68181891787E+03  0.68181891787E+03  0.00000000000E+00 0.  1.
         21   -1    0    0  501  503 -0.00000000000E+00 -0.00000000000E+00 -0.32518903878E+03  0.32518903878E+03  0.00000000000E+00 0.  1.
    9000007    1    1    2  501    0 -0.28491041454E+02 -0.18465522548E+03  0.32275413423E+01  0.44149712203E+03  0.40000000000E+03 0.  1.
   -9000007    1    1    2    0  502  0.28491041454E+02  0.18465522548E+03  0.35340233775E+03  0.56551083462E+03  0.40000000000E+03 0.  1.
<mgrwt>
<rscale>  2 0.44148532E+03</rscale>
<asrwt>0</asrwt>
<pdfrwt beam="1">  1       21 0.10489522E+00 0.44148532E+03</pdfrwt>
<pdfrwt beam="2">  1       21 0.50029083E-01 0.44148532E+03</pdfrwt>
<totfact> 0.24194360E+03</totfact>
</mgrwt>
</event>
<event>
 4    1  0.4732450E-002  0.5690011E+03  0.7818608E-02  0.9971892E-01
         21   -1    0    0  501  502  0.00000000000E+00  0.00000000000E+00  0.19748381976E+03  0.19748381976E+03  0.00000000000E+00 0.  1.
         21   -1    0    0  502  503 -0.00000000000E+00 -0.00000000000E+00 -0.16438981055E+04  0.16438981055E+04  0.00000000000E+00 0. -1.
    9000007    1    1    2  501    0 -0.40427651619E+03  0.17963846135E+02 -0.67524292953E+03  0.88301484426E+03  0.40000000000E+03 0.  1.
   -9000007    1    1    2    0  503  0.40427651619E+03 -0.17963846135E+02 -0.77117135622E+03  0.95836708101E+03  0.40000000000E+03 0.  1.
<mgrwt>
<rscale>  2 0.56900106E+03</rscale>
<asrwt>0</asrwt>
<pdfrwt beam="1">  1       21 0.30382125E-01 0.56900106E+03</pdfrwt>
<pdfrwt beam="2">  1       21 0.25290741E+00 0.56900106E+03</pdfrwt>
<totfact> 0.51000231E+02</totfact>
</mgrwt>
</event>
<event>
 4    1  0.4732450E-002  0.5976341E+03  0.7818608E-02  0.9910327E-01
         21   -1    0    0  501  502  0.00000000000E+00  0.00000000000E+00  0.53315205081E+03  0.53315205081E+03  0.00000000000E+00 0. -1.
         21   -1    0    0  502  503 -0.00000000000E+00 -0.00000000000E+00 -0.66996369033E+03  0.66996369033E+03  0.00000000000E+00 0.  1.
    9000007    1    1    2  501    0 -0.44358041912E+03  0.20071634933E+02 -0.73543724579E+02  0.60214212457E+03  0.40000000000E+03 0. -1.
   -9000007    1    1    2    0  503  0.44358041912E+03 -0.20071634933E+02 -0.63267914944E+02  0.60097361657E+03  0.40000000000E+03 0.  1.
<mgrwt>
<rscale>  2 0.59763405E+03</rscale>
<asrwt>0</asrwt>
<pdfrwt beam="1">  1       21 0.82023393E-01 0.59763405E+03</pdfrwt>
<pdfrwt beam="2">  1       21 0.10307134E+00 0.59763405E+03</pdfrwt>
<totfact> 0.79675788E+02</totfact>
</mgrwt>
</event>
<event>
 4    1  0.4732450E-002  0.4141776E+03  0.7818608E-02  0.1038978E+00
         21   -1    0    0  503  502  0.00000000000E+00  0.00000000000E+00  0.99694620958E+03  0.99694620958E+03  0.00000000000E+00 0.  1.
         21   -1    0    0  501  503 -0.00000000000E+00 -0.00000000000E+00 -0.58078134689E+03  0.58078134689E+03  0.00000000000E+00 0.  1.
    9000007    1    1    2  501    0 -0.59105978530E+02  0.89719347928E+02 -0.45368411524E+03  0.61430640117E+03  0.40000000000E+03 0.  1.
   -9000007    1    1    2    0  502  0.59105978530E+02 -0.89719347928E+02  0.86984897793E+03  0.96342115531E+03  0.40000000000E+03 0.  1.
<mgrwt>
<rscale>  2 0.41417759E+03</rscale>
<asrwt>0</asrwt>
<pdfrwt beam="1">  1       21 0.15337634E+00 0.41417759E+03</pdfrwt>
<pdfrwt beam="2">  1       21 0.89350976E-01 0.41417759E+03</pdfrwt>
<totfact> 0.25151770E+02</totfact>
</mgrwt>
</event>
<event>
 4    1  0.4732450E-002  0.5367274E+03  0.7818608E-02  0.1004614E+00
         21   -1    0    0  501  502  0.00000000000E+00  0.00000000000E+00  0.94093543779E+03  0.94093543779E+03  0.00000000000E+00 0.  1.
         21   -1    0    0  502  503 -0.00000000000E+00 -0.00000000000E+00 -0.32407964687E+03  0.32407964687E+03  0.00000000000E+00 0. -1.
    9000007    1    1    2  501    0  0.47196232627E+02  0.35475180435E+03  0.15969379120E+03  0.55998074432E+03  0.40000000000E+03 0.  1.
   -9000007    1    1    2    0  503 -0.47196232627E+02 -0.35475180435E+03  0.45716199972E+03  0.70503434034E+03  0.40000000000E+03 0. -1.
<mgrwt>
<rscale>  2 0.53672742E+03</rscale>
<asrwt>0</asrwt>
<pdfrwt beam="1">  1       21 0.14475930E+00 0.53672742E+03</pdfrwt>
<pdfrwt beam="2">  1       21 0.49858408E-01 0.53672742E+03</pdfrwt>
<totfact> 0.10295757E+03</totfact>
</mgrwt>
</event>
<event>
 4    1  0.4732450E-002  0.4432949E+03  0.7818608E-02  0.1029741E+00
         21   -1    0    0  501  502  0.00000000000E+00  0.00000000000E+00  0.12408126698E+03  0.12408126698E+03  0.00000000000E+00 0. -1.
         21   -1    0    0  502  503 -0.00000000000E+00 -0.00000000000E+00 -0.18591934537E+04  0.18591934537E+04  0.00000000000E+00 0.  1.
    9000007    1    1    2  501    0 -0.71235565440E+02 -0.17730173491E+03 -0.48585117577E+03  0.65769428763E+03  0.40000000000E+03 0. -1.
   -9000007    1    1    2    0  503  0.71235565440E+02  0.17730173491E+03 -0.12492610109E+04  0.13255804330E+04  0.40000000000E+03 0.  1.
<mgrwt>
<rscale>  2 0.44329495E+03</rscale>
<asrwt>0</asrwt>
<pdfrwt beam="1">  1       21 0.19089428E-01 0.44329495E+03</pdfrwt>
<pdfrwt beam="2">  1       21 0.28602973E+00 0.44329495E+03</pdfrwt>
<totfact> 0.83943085E+02</totfact>
</mgrwt>
</event>
<event>
 4    1  0.4732450E-002  0.4313921E+03  0.7818608E-02  0.1033421E+00
         21   -1    0    0  501  502  0.00000000000E+00  0.00000000000E+00  0.46087163372E+03  0.46087163372E+03  0.00000000000E+00 0.  1.
         21   -1    0    0  502  503 -0.00000000000E+00 -0.00000000000E+00 -0.40636799312E+03  0.40636799312E+03  0.00000000000E+00 0. -1.
    9000007    1    1    2  501    0  0.11668467277E+03 -0.11173094539E+03 -0.72309346364E+01  0.43145266650E+03  0.40000000000E+03 0.  1.
   -9000007    1    1    2    0  503 -0.11668467277E+03  0.11173094539E+03  0.61734575243E+02  0.43578696033E+03  0.40000000000E+03 0.  1.
<mgrwt>
<rscale>  2 0.43139207E+03</rscale>
<asrwt>0</asrwt>
<pdfrwt beam="1">  1       21 0.70903328E-01 0.43139207E+03</pdfrwt>
<pdfrwt beam="2">  1       21 0.62518153E-01 0.43139207E+03</pdfrwt>
<totfact> 0.37614593E+03</totfact>
</mgrwt>
</event>
<event>
 4    1  0.4732450E-002  0.4451844E+03  0.7818608E-02  0.1029168E+00
         21   -1    0    0  501  502  0.00000000000E+00  0.00000000000E+00  0.62964623868E+03  0.62964623868E+03  0.00000000000E+00 0. -1.
         21   -1    0    0  502  503 -0.00000000000E+00 -0.00000000000E+00 -0.50234514689E+03  0.50234514689E+03  0.00000000000E+00 0. -1.
    9000007    1    1    2  501    0  0.10865596331E+03  0.16242854988E+03  0.40951674028E+03  0.60489099245E+03  0.40000000000E+03 0. -1.
   -9000007    1    1    2    0  503 -0.10865596331E+03 -0.16242854988E+03 -0.28221564848E+03  0.52710039312E+03  0.40000000000E+03 0. -1.
<mgrwt>
<rscale>  2 0.44518440E+03</rscale>
<asrwt>0</asrwt>
<pdfrwt beam="1">  1       21 0.96868652E-01 0.44518440E+03</pdfrwt>
<pdfrwt beam="2">  1       21 0.77283869E-01 0.44518440E+03</pdfrwt>
<totfact> 0.11236387E+03</totfact>
</mgrwt>
</event>
<event>
 4    1  0.4732450E-002  0.4852059E+03  0.7818608E-02  0.1017714E+00
         21   -1    0    0  501  502  0.00000000000E+00  0.00000000000E+00  0.26959442444E+04  0.26959442444E+04  0.00000000000E+00 0.  1.
         21   -1    0    0  502  503 -0.00000000000E+00 -0.00000000000E+00 -0.20708324881E+03  0.20708324881E+03  0.00000000000E+00 0. -1.
    9000007    1    1    2  501    0  0.12805955637E+03 -0.24295168604E+03  0.23482559854E+04  0.23978596591E+04  0.40000000000E+03 0.  1.
   -9000007    1    1    2    0  503 -0.12805955637E+03  0.24295168604E+03  0.14060501018E+03  0.50516783411E+03  0.40000000000E+03 0. -1.
<mgrwt>
<rscale>  2 0.48520591E+03</rscale>
<asrwt>0</asrwt>
<pdfrwt beam="1">  1       21 0.41476063E+00 0.48520591E+03</pdfrwt>
<pdfrwt beam="2">  1       21 0.31858963E-01 0.48520591E+03</pdfrwt>
<totfact> 0.48206598E+01</totfact>
</mgrwt>
</event>
<event>
 4    1  0.4732450E-002  0.4045670E+03  0.7818608E-02  0.1042210E+00
         21   -1    0    0  503  502  0.00000000000E+00  0.00000000000E+00  0.12868821095E+03  0.12868821095E+03  0.00000000000E+00 0. -1.
         21   -1    0    0  501  503 -0.00000000000E+00 -0.00000000000E+00 -0.12817577777E+04  0.12817577777E+04  0.00000000000E+00 0. -1.
    9000007    1    1    2  501    0 -0.18923216244E+02 -0.57587650177E+02 -0.51458848376E+03  0.65458057807E+03  0.40000000000E+03 0. -1.
   -9000007    1    1    2    0  502  0.18923216244E+02  0.57587650177E+02 -0.63848108299E+03  0.75586541058E+03  0.40000000000E+03 0. -1.
<mgrwt>
<rscale>  2 0.40456696E+03</rscale>
<asrwt>0</asrwt>
<pdfrwt beam="1">  1       21 0.19798186E-01 0.40456696E+03</pdfrwt>
<pdfrwt beam="2">  1       21 0.19719350E+00 0.40456696E+03</pdfrwt>
<totfact> 0.28597494E+03</totfact>
</mgrwt>
</event>
<event>
 4    1  0.4732450E-002  0.4422152E+03  0.7818608E-02  0.1030069E+00
         21   -1    0    0  501  502  0.00000000000E+00  0.00000000000E+00  0.72722956937E+03  0.72722956937E+03  0.00000000000E+00 0.  1.
         21   -1    0    0  502  503 -0.00000000000E+00 -0.00000000000E+00 -0.62107032603E+03  0.62107032603E+03  0.00000000000E+00 0. -1.
    9000007    1    1    2  501    0  0.18584377842E+03 -0.31880250179E+02  0.56072519677E+03  0.71411974250E+03  0.40000000000E+03 0.  1.
   -9000007    1    1    2    0  503 -0.18584377842E+03  0.31880250179E+02 -0.45456595343E+03  0.63418015291E+03  0.40000000000E+03 0. -1.
<mgrwt>
<rscale>  2 0.44221517E+03</rscale>
<asrwt>0</asrwt>
<pdfrwt beam="1">  1       21 0.11188147E+00 0.44221517E+03</pdfrwt>
<pdfrwt beam="2">  1       21 0.95549281E-01 0.44221517E+03</pdfrwt>
<totfact> 0.48047592E+02</totfact>
</mgrwt>
</event>
<event>
 4    1  0.4732450E-002  0.4239858E+03  0.7818608E-02  0.1035777E+00
         21   -1    0    0  501  502  0.00000000000E+00  0.00000000000E+00  0.69848038171E+03  0.69848038171E+03  0.00000000000E+00 0. -1.
         21   -1    0    0  502  503 -0.00000000000E+00 -0.00000000000E+00 -0.26650449179E+03  0.26650449179E+03  0.00000000000E+00 0. -1.
    9000007    1    1    2  501    0 -0.85541958813E+02 -0.11156409948E+03  0.30534191225E+03  0.52249177829E+03  0.40000000000E+03 0. -1.
   -9000007    1    1    2    0  503  0.85541958813E+02  0.11156409948E+03  0.12663397767E+03  0.44249309521E+03  0.40000000000E+03 0. -1.
<mgrwt>
<rscale>  2 0.42398582E+03</rscale>
<asrwt>0</asrwt>
<pdfrwt beam="1">  1       21 0.10745852E+00 0.42398582E+03</pdfrwt>
<pdfrwt beam="2">  1       21 0.41000691E-01 0.42398582E+03</pdfrwt>
<totfact> 0.34819803E+03</totfact>
</mgrwt>
</event>
<event>
 4    1  0.4732450E-002  0.4116118E+03  0.7818608E-02  0.1039831E+00
         21   -1    0    0  501  502  0.00000000000E+00  0.00000000000E+00  0.32347387292E+03  0.32347387292E+03  0.00000000000E+00 0.  1.
         21   -1    0    0  502  503 -0.00000000000E+00 -0.00000000000E+00 -0.53248742568E+03  0.53248742568E+03  0.00000000000E+00 0.  1.
    9000007    1    1    2  501    0 -0.18711171645E+02 -0.95258300459E+02 -0.49730655638E+02  0.41460510110E+03  0.40000000000E+03 0. -1.
   -9000007    1    1    2    0  503  0.18711171645E+02  0.95258300459E+02 -0.15928289712E+03  0.44135619749E+03  0.40000000000E+03 0. -1.
<mgrwt>
<rscale>  2 0.41161177E+03</rscale>
<asrwt>0</asrwt>
<pdfrwt beam="1">  1       21 0.49765211E-01 0.41161177E+03</pdfrwt>
<pdfrwt beam="2">  1       21 0.81921143E-01 0.41161177E+03</pdfrwt>
<totfact> 0.44597566E+03</totfact>
</mgrwt>
</event>
<event>
 4    1  0.4732450E-002  0.5396107E+03  0.7818608E-02  0.1003928E+00
         21   -1    0    0  503  502  0.00000000000E+00  0.00000000000E+00  0.38792014192E+03  0.38792014192E+03  0.00000000000E+00 0. -1.
         21   -1    0    0  501  503 -0.00000000000E+00 -0.00000000000E+00 -0.98865179508E+03  0.98865179508E+03  0.00000000000E+00 0. -1.
    9000007    1    1    2  501    0 -0.95341478249E+02 -0.34941338710E+03 -0.63809365623E+03  0.83566932855E+03  0.40000000000E+03 0. -1.
   -9000007    1    1    2    0  502  0.95341478249E+02  0.34941338710E+03  0.37362003069E+02  0.54090260845E+03  0.40000000000E+03 0. -1.
<mgrwt>
<rscale>  2 0.53961070E+03</rscale>
<asrwt>0</asrwt>
<pdfrwt beam="1">  1       21 0.59680024E-01 0.53961070E+03</pdfrwt>
<pdfrwt beam="2">  1       21 0.15210027E+00 0.53961070E+03</pdfrwt>
<totfact> 0.60902085E+02</totfact>
</mgrwt>
</event>
<event>
 4    1  0.4732450E-002  0.5027056E+03  0.7818608E-02  0.1013075E+00
         21   -1    0    0  503  502  0.00000000000E+00  0.00000000000E+00  0.89257638398E+03  0.89257638398E+03  0.00000000000E+00 0. -1.
         21   -1    0    0  501  503 -0.00000000000E+00 -0.00000000000E+00 -0.29928850983E+03  0.29928850983E+03  0.00000000000E+00 0.  1.
    9000007    1    1    2  501    0 -0.29806587261E+03  0.62206585076E+02  0.15816420806E+03  0.52699984853E+03  0.40000000000E+03 0.  1.
   -9000007    1    1    2    0  502  0.29806587261E+03 -0.62206585076E+02  0.43512366609E+03  0.66486504528E+03  0.40000000000E+03 0. -1.
<mgrwt>
<rscale>  2 0.50270560E+03</rscale>
<asrwt>0</asrwt>
<pdfrwt beam="1">  1       21 0.13731944E+00 0.50270560E+03</pdfrwt>
<pdfrwt beam="2">  1       21 0.46044387E-01 0.50270560E+03</pdfrwt>
<totfact> 0.14209359E+03</totfact>
</mgrwt>
</event>
<event>
 4    1  0.4732450E-002  0.4077746E+03  0.7818608E-02  0.1041120E+00
         21   -1    0    0  503  502  0.00000000000E+00  0.00000000000E+00  0.53052153159E+03  0.53052153159E+03  0.00000000000E+00 0.  1.
         21   -1    0    0  501  503 -0.00000000000E+00 -0.00000000000E+00 -0.32502143735E+03  0.32502143735E+03  0.00000000000E+00 0.  1.
    9000007    1    1    2  501    0 -0.70981848526E+02  0.35237377355E+02  0.21957882150E+02  0.40836533175E+03  0.40000000000E+03 0.  1.
   -9000007    1    1    2    0  502  0.70981848526E+02 -0.35237377355E+02  0.18354221209E+03  0.44717763719E+03  0.40000000000E+03 0.  1.
<mgrwt>
<rscale>  2 0.40777456E+03</rscale>
<asrwt>0</asrwt>
<pdfrwt beam="1">  1       21 0.81618697E-01 0.40777456E+03</pdfrwt>
<pdfrwt beam="2">  1       21 0.50003298E-01 0.40777456E+03</pdfrwt>
<totfact> 0.44591083E+03</totfact>
</mgrwt>
</event>
<event>
 4    1  0.4732450E-002  0.4360827E+03  0.7818608E-02  0.1031956E+00
         21   -1    0    0  501  502  0.00000000000E+00  0.00000000000E+00  0.15866965672E+04  0.15866965672E+04  0.00000000000E+00 0.  1.
         21   -1    0    0  502  503 -0.00000000000E+00 -0.00000000000E+00 -0.19799005147E+03  0.19799005147E+03  0.00000000000E+00 0.  1.
    9000007    1    1    2  501    0  0.12635582490E+03 -0.11917346065E+03  0.12549398577E+04  0.13285488906E+04  0.40000000000E+03 0.  1.
   -9000007    1    1    2    0  503 -0.12635582490E+03  0.11917346065E+03  0.13376665807E+03  0.45613772813E+03  0.40000000000E+03 0.  1.
<mgrwt>
<rscale>  2 0.43608269E+03</rscale>
<asrwt>0</asrwt>
<pdfrwt beam="1">  1       21 0.24410716E+00 0.43608269E+03</pdfrwt>
<pdfrwt beam="2">  1       21 0.30460009E-01 0.43608269E+03</pdfrwt>
<totfact> 0.61193892E+02</totfact>
</mgrwt>
</event>
<event>
 4    1  0.4732450E-002  0.4456159E+03  0.7818608E-02  0.1029038E+00
         21   -1    0    0  503  502  0.00000000000E+00  0.00000000000E+00  0.81095870137E+03  0.81095870137E+03  0.00000000000E+00 0. -1.
         21   -1    0    0  501  503 -0.00000000000E+00 -0.00000000000E+00 -0.12619963965E+04  0.12619963965E+04  0.00000000000E+00 0. -1.
    9000007    1    1    2  501    0  0.12832668834E+03 -0.14868027802E+03 -0.11560263005E+04  0.12389392121E+04  0.40000000000E+03 0. -1.
   -9000007    1    1    2    0  502 -0.12832668834E+03  0.14868027802E+03  0.70498860533E+03  0.83401588574E+03  0.40000000000E+03 0. -1.
<mgrwt>
<rscale>  2 0.44561594E+03</rscale>
<asrwt>0</asrwt>
<pdfrwt beam="1">  1       21 0.12476288E+00 0.44561594E+03</pdfrwt>
<pdfrwt beam="2">  1       21 0.19415329E+00 0.44561594E+03</pdfrwt>
<totfact> 0.55285086E+01</totfact>
</mgrwt>
</event>
<event>
 4    1  0.4732450E-002  0.4826067E+03  0.7818608E-02  0.1018421E+00
         21   -1    0    0  501  502  0.00000000000E+00  0.00000000000E+00  0.84021555105E+03  0.84021555105E+03  0.00000000000E+00 0.  1.
         21   -1    0    0  502  503 -0.00000000000E+00 -0.00000000000E+00 -0.38917047209E+03  0.38917047209E+03  0.00000000000E+00 0. -1.
    9000007    1    1    2  501    0  0.15753027702E+03  0.21930218295E+03  0.55523598852E+03  0.73566040982E+03  0.40000000000E+03 0.  1.
   -9000007    1    1    2    0  503 -0.15753027702E+03 -0.21930218295E+03 -0.10419090956E+03  0.49372561333E+03  0.40000000000E+03 0. -1.
<mgrwt>
<rscale>  2 0.48260671E+03</rscale>
<asrwt>0</asrwt>
<pdfrwt beam="1">  1       21 0.12926393E+00 0.48260671E+03</pdfrwt>
<pdfrwt beam="2">  1       21 0.59872381E-01 0.48260671E+03</pdfrwt>
<totfact> 0.95405302E+02</totfact>
</mgrwt>
</event>
<event>
 4    1  0.4732450E-002  0.5006014E+03  0.7818608E-02  0.1013622E+00
         21   -1    0    0  501  502  0.00000000000E+00  0.00000000000E+00  0.55606577138E+03  0.55606577138E+03  0.00000000000E+00 0.  1.
         21   -1    0    0  502  503 -0.00000000000E+00 -0.00000000000E+00 -0.59573043387E+03  0.59573043387E+03  0.00000000000E+00 0.  1.
    9000007    1    1    2  501    0  0.25905515920E+02 -0.29988435565E+03  0.26434957361E+03  0.56611166706E+03  0.40000000000E+03 0.  1.
   -9000007    1    1    2    0  503 -0.25905515920E+02  0.29988435565E+03 -0.30401423610E+03  0.58568453818E+03  0.40000000000E+03 0.  1.
<mgrwt>
<rscale>  2 0.50060136E+03</rscale>
<asrwt>0</asrwt>
<pdfrwt beam="1">  1       21 0.85548581E-01 0.50060136E+03</pdfrwt>
<pdfrwt beam="2">  1       21 0.91650836E-01 0.50060136E+03</pdfrwt>
<totfact> 0.99180263E+02</totfact>
</mgrwt>
</event>
<event>
 4    1  0.4732450E-002  0.4283611E+03  0.7818608E-02  0.1034379E+00
         21   -1    0    0  501  502  0.00000000000E+00  0.00000000000E+00  0.92815833318E+03  0.92815833318E+03  0.00000000000E+00 0. -1.
         21   -1    0    0  502  503 -0.00000000000E+00 -0.00000000000E+00 -0.41423188040E+03  0.41423188040E+03  0.00000000000E+00 0. -1.
    9000007    1    1    2  501    0 -0.15316936027E+03 -0.56918035916E+01 -0.22831621388E+03  0.48540863515E+03  0.40000000000E+03 0. -1.
   -9000007    1    1    2    0  503  0.15316936027E+03  0.56918035916E+01  0.74224266667E+03  0.85698157843E+03  0.40000000000E+03 0. -1.
<mgrwt>
<rscale>  2 0.42836112E+03</rscale>
<asrwt>0</asrwt>
<pdfrwt beam="1">  1       21 0.14279359E+00 0.42836112E+03</pdfrwt>
<pdfrwt beam="2">  1       21 0.63727982E-01 0.42836112E+03</pdfrwt>
<totfact> 0.65497529E+02</totfact>
</mgrwt>
</event>
<event>
 4    1  0.4732450E-002  0.4470296E+03  0.7818608E-02  0.1028612E+00
         21   -1    0    0  501  502  0.00000000000E+00  0.00000000000E+00  0.22713492178E+03  0.22713492178E+03  0.00000000000E+00 0.  1.
         21   -1    0    0  502  503 -0.00000000000E+00 -0.00000000000E+00 -0.11580150046E+04  0.11580150046E+04  0.00000000000E+00 0.  1.
    9000007    1    1    2  501    0  0.17043687920E+03  0.10385905746E+03 -0.12597688031E+03  0.46444117817E+03  0.40000000000E+03 0.  1.
   -9000007    1    1    2    0  503 -0.17043687920E+03 -0.10385905746E+03 -0.80490320251E+03  0.92070874820E+03  0.40000000000E+03 0.  1.
<mgrwt>
<rscale>  2 0.44702957E+03</rscale>
<asrwt>0</asrwt>
<pdfrwt beam="1">  1       21 0.34943834E-01 0.44702957E+03</pdfrwt>
<pdfrwt beam="2">  1       21 0.17815615E+00 0.44702957E+03</pdfrwt>
<totfact> 0.12481153E+03</totfact>
</mgrwt>
</event>
<event>
 4    1  0.4732450E-002  0.4070352E+03  0.7818608E-02  0.1041371E+00
         21   -1    0    0  501  502  0.00000000000E+00  0.00000000000E+00  0.11931110842E+04  0.11931110842E+04  0.00000000000E+00 0. -1.
         21   -1    0    0  502  503 -0.00000000000E+00 -0.00000000000E+00 -0.13941301517E+03  0.13941301517E+03  0.00000000000E+00 0.  1.
    9000007    1    1    2  501    0  0.67939525475E+02 -0.32586175209E+02  0.48495753847E+03  0.63313620340E+03  0.40000000000E+03 0.  1.
   -9000007    1    1    2    0  503 -0.67939525475E+02  0.32586175209E+02  0.56874053060E+03  0.69938789601E+03  0.40000000000E+03 0. -1.
<mgrwt>
<rscale>  2 0.40703518E+03</rscale>
<asrwt>0</asrwt>
<pdfrwt beam="1">  1       21 0.18355554E+00 0.40703518E+03</pdfrwt>
<pdfrwt beam="2">  1       21 0.21448157E-01 0.40703518E+03</pdfrwt>
<totfact> 0.30372649E+03</totfact>
</mgrwt>
</event>
<event>
 4    1  0.4732450E-002  0.4051500E+03  0.7818608E-02  0.1042011E+00
         21   -1    0    0  503  502  0.00000000000E+00  0.00000000000E+00  0.14045213309E+03  0.14045213309E+03  0.00000000000E+00 0.  1.
         21   -1    0    0  501  503 -0.00000000000E+00 -0.00000000000E+00 -0.14624392332E+04  0.14624392332E+04  0.00000000000E+00 0.  1.
    9000007    1    1    2  501    0  0.56347518307E+02  0.31168268476E+02 -0.10201764505E+04  0.10976823284E+04  0.40000000000E+03 0.  1.
   -9000007    1    1    2    0  502 -0.56347518307E+02 -0.31168268476E+02 -0.30181064952E+03  0.50520903787E+03  0.40000000000E+03 0.  1.
<mgrwt>
<rscale>  2 0.40514998E+03</rscale>
<asrwt>0</asrwt>
<pdfrwt beam="1">  1       21 0.21608022E-01 0.40514998E+03</pdfrwt>
<pdfrwt beam="2">  1       21 0.22499063E+00 0.40514998E+03</pdfrwt>
<totfact> 0.15980510E+03</totfact>
</mgrwt>
</event>
<event>
 4    1  0.4732450E-002  0.4346014E+03  0.7818608E-02  0.1032416E+00
         21   -1    0    0  501  502  0.00000000000E+00  0.00000000000E+00  0.22125155927E+03  0.22125155927E+03  0.00000000000E+00 0.  1.
         21   -1    0    0  502  503 -0.00000000000E+00 -0.00000000000E+00 -0.86121756930E+03  0.86121756930E+03  0.00000000000E+00 0.  1.
    9000007    1    1    2  501    0 -0.11242371277E+03  0.12743345153E+03 -0.26935394524E+03  0.51130218421E+03  0.40000000000E+03 0.  1.
   -9000007    1    1    2    0  503  0.11242371277E+03 -0.12743345153E+03 -0.37061206479E+03  0.57116694436E+03  0.40000000000E+03 0.  1.
<mgrwt>
<rscale>  2 0.43460140E+03</rscale>
<asrwt>0</asrwt>
<pdfrwt beam="1">  1       21 0.34038702E-01 0.43460140E+03</pdfrwt>
<pdfrwt beam="2">  1       21 0.13249501E+00 0.43460140E+03</pdfrwt>
<totfact> 0.29823180E+03</totfact>
</mgrwt>
</event>
<event>
 4    1  0.4732450E-002  0.4327420E+03  0.7818608E-02  0.1032997E+00
         21   -1    0    0  501  502  0.00000000000E+00  0.00000000000E+00  0.29383163165E+03  0.29383163165E+03  0.00000000000E+00 0.  1.
         21   -1    0    0  502  503 -0.00000000000E+00 -0.00000000000E+00 -0.19537152054E+04  0.19537152054E+04  0.00000000000E+00 0.  1.
    9000007    1    1    2  501    0 -0.70722997151E+02  0.14921101735E+03  0.92503827947E+02  0.44251850607E+03  0.40000000000E+03 0.  1.
   -9000007    1    1    2    0  503  0.70722997151E+02 -0.14921101735E+03 -0.17523874017E+04  0.18050283310E+04  0.40000000000E+03 0.  1.
<mgrwt>
<rscale>  2 0.43274204E+03</rscale>
<asrwt>0</asrwt>
<pdfrwt beam="1">  1       21 0.45204865E-01 0.43274204E+03</pdfrwt>
<pdfrwt beam="2">  1       21 0.30057158E+00 0.43274204E+03</pdfrwt>
<totfact> 0.12479581E+02</totfact>
</mgrwt>
</event>
<event>
 4    1  0.4732450E-002  0.4018882E+03  0.7818608E-02  0.1043128E+00
         21   -1    0    0  503  502  0.00000000000E+00  0.00000000000E+00  0.60987849694E+03  0.60987849694E+03  0.00000000000E+00 0.  1.
         21   -1    0    0  501  503 -0.00000000000E+00 -0.00000000000E+00 -0.26745086335E+03  0.26745086335E+03  0.00000000000E+00 0.  1.
    9000007    1    1    2  501    0 -0.21669554771E+02 -0.32319106479E+02  0.21463850131E+03  0.45561363071E+03  0.40000000000E+03 0. -1.
   -9000007    1    1    2    0  502  0.21669554771E+02  0.32319106479E+02  0.12778913228E+03  0.42171572958E+03  0.40000000000E+03 0. -1.
<mgrwt>
<rscale>  2 0.40188816E+03</rscale>
<asrwt>0</asrwt>
<pdfrwt beam="1">  1       21 0.93827460E-01 0.40188816E+03</pdfrwt>
<pdfrwt beam="2">  1       21 0.41146287E-01 0.40188816E+03</pdfrwt>
<totfact> 0.48442620E+03</totfact>
</mgrwt>
</event>
<event>
 4    1  0.4732450E-002  0.4229663E+03  0.7818608E-02  0.1036105E+00
         21   -1    0    0  503  502  0.00000000000E+00  0.00000000000E+00  0.42667641762E+03  0.42667641762E+03  0.00000000000E+00 0.  1.
         21   -1    0    0  501  503 -0.00000000000E+00 -0.00000000000E+00 -0.15210351069E+04  0.15210351069E+04  0.00000000000E+00 0. -1.
    9000007    1    1    2  501    0 -0.35779897935E+02 -0.13274132344E+03 -0.13760101906E+04  0.14395501050E+04  0.40000000000E+03 0. -1.
   -9000007    1    1    2    0  502  0.35779897935E+02  0.13274132344E+03  0.28165150138E+03  0.50816141950E+03  0.40000000000E+03 0.  1.
<mgrwt>
<rscale>  2 0.42296626E+03</rscale>
<asrwt>0</asrwt>
<pdfrwt beam="1">  1       21 0.65642526E-01 0.42296626E+03</pdfrwt>
<pdfrwt beam="2">  1       21 0.23400540E+00 0.42296626E+03</pdfrwt>
<totfact> 0.14252326E+02</totfact>
</mgrwt>
</event>
<event>
 4    1  0.4732450E-002  0.4097652E+03  0.7818608E-02  0.1040450E+00
         21   -1    0    0  503  502  0.00000000000E+00  0.00000000000E+00  0.30659062059E+03  0.30659062059E+03  0.00000000000E+00 0.  1.
         21   -1    0    0  501  503 -0.00000000000E+00 -0.00000000000E+00 -0.56281674560E+03  0.56281674560E+03  0.00000000000E+00 0. -1.
    9000007    1    1    2  501    0  0.80947103933E+02  0.36811134102E+02 -0.19944915870E+03  0.45572739673E+03  0.40000000000E+03 0. -1.
   -9000007    1    1    2    0  502 -0.80947103933E+02 -0.36811134102E+02 -0.56776966311E+02  0.41367996946E+03  0.40000000000E+03 0.  1.
<mgrwt>
<rscale>  2 0.40976517E+03</rscale>
<asrwt>0</asrwt>
<pdfrwt beam="1">  1       21 0.47167788E-01 0.40976517E+03</pdfrwt>
<pdfrwt beam="2">  1       21 0.86587191E-01 0.40976517E+03</pdfrwt>
<totfact> 0.43928122E+03</totfact>
</mgrwt>
</event>
<event>
 4    1  0.4732450E-002  0.5145419E+03  0.7818608E-02  0.1010051E+00
         21   -1    0    0  501  502  0.00000000000E+00  0.00000000000E+00  0.17857472647E+03  0.17857472647E+03  0.00000000000E+00 0. -1.
         21   -1    0    0  502  503 -0.00000000000E+00 -0.00000000000E+00 -0.17326825178E+04  0.17326825178E+04  0.00000000000E+00 0. -1.
    9000007    1    1    2  501    0 -0.12412810041E+03 -0.29890739259E+03 -0.41399382351E+03  0.66041222018E+03  0.40000000000E+03 0. -1.
   -9000007    1    1    2    0  503  0.12412810041E+03  0.29890739259E+03 -0.11401139678E+04  0.12508450241E+04  0.40000000000E+03 0. -1.
<mgrwt>
<rscale>  2 0.51454195E+03</rscale>
<asrwt>0</asrwt>
<pdfrwt beam="1">  1       21 0.27473035E-01 0.51454195E+03</pdfrwt>
<pdfrwt beam="2">  1       21 0.26656654E+00 0.51454195E+03</pdfrwt>
<totfact> 0.52577050E+02</totfact>
</mgrwt>
</event>
<event>
 4    1  0.4732450E-002  0.5203559E+03  0.7818608E-02  0.1008598E+00
         21   -1    0    0  501  502  0.00000000000E+00  0.00000000000E+00  0.34723003069E+03  0.34723003069E+03  0.00000000000E+00 0.  1.
         21   -1    0    0  502  503 -0.00000000000E+00 -0.00000000000E+00 -0.77983522501E+03  0.77983522501E+03  0.00000000000E+00 0. -1.
    9000007    1    1    2  501    0  0.23412275595E+03 -0.23655181443E+03 -0.22005144797E+03  0.56497156169E+03  0.40000000000E+03 0.  1.
   -9000007    1    1    2    0  503 -0.23412275595E+03  0.23655181443E+03 -0.21255374636E+03  0.56209369401E+03  0.40000000000E+03 0.  1.
<mgrwt>
<rscale>  2 0.52035586E+03</rscale>
<asrwt>0</asrwt>
<pdfrwt beam="1">  1       21 0.53420005E-01 0.52035586E+03</pdfrwt>
<pdfrwt beam="2">  1       21 0.11997465E+00 0.52035586E+03</pdfrwt>
<totfact> 0.14614349E+03</totfact>
</mgrwt>
</event>
<event>
 4    1  0.4732450E-002  0.4193037E+03  0.7818608E-02  0.1037293E+00
         21   -1    0    0  501  502  0.00000000000E+00  0.00000000000E+00  0.16583297800E+03  0.16583297800E+03  0.00000000000E+00 0. -1.
         21   -1    0    0  502  503 -0.00000000000E+00 -0.00000000000E+00 -0.10837669407E+04  0.10837669407E+04  0.00000000000E+00 0. -1.
    9000007    1    1    2  501    0 -0.84788487778E+02  0.92878897194E+02 -0.36682554322E+03  0.55711449125E+03  0.40000000000E+03 0. -1.
   -9000007    1    1    2    0  503  0.84788487778E+02 -0.92878897194E+02 -0.55110841947E+03  0.69248542744E+03  0.40000000000E+03 0. -1.
<mgrwt>
<rscale>  2 0.41930368E+03</rscale>
<asrwt>0</asrwt>
<pdfrwt beam="1">  1       21 0.25512766E-01 0.41930368E+03</pdfrwt>
<pdfrwt beam="2">  1       21 0.16673338E+00 0.41930368E+03</pdfrwt>
<totfact> 0.28500949E+03</totfact>
</mgrwt>
</event>
<event>
 4    1  0.4732450E-002  0.5607801E+03  0.7818608E-02  0.9990291E-01
         21   -1    0    0  503  502  0.00000000000E+00  0.00000000000E+00  0.21651196124E+03  0.21651196124E+03  0.00000000000E+00 0. -1.
         21   -1    0    0  501  503 -0.00000000000E+00 -0.00000000000E+00 -0.19690874229E+04  0.19690874229E+04  0.00000000000E+00 0. -1.
    9000007    1    1    2  501    0  0.32891497436E+03  0.21514934532E+03 -0.14360428547E+04  0.15416528084E+04  0.40000000000E+03 0. -1.
   -9000007    1    1    2    0  502 -0.32891497436E+03 -0.21514934532E+03 -0.31653260701E+03  0.64394657577E+03  0.40000000000E+03 0. -1.
<mgrwt>
<rscale>  2 0.56078008E+03</rscale>
<asrwt>0</asrwt>
<pdfrwt beam="1">  1       21 0.33309533E-01 0.56078008E+03</pdfrwt>
<pdfrwt beam="2">  1       21 0.30293652E+00 0.56078008E+03</pdfrwt>
<totfact> 0.21054160E+02</totfact>
</mgrwt>
</event>
<event>
 4    1  0.4732450E-002  0.4207915E+03  0.7818608E-02  0.1036809E+00
         21   -1    0    0  503  502  0.00000000000E+00  0.00000000000E+00  0.42000772569E+03  0.42000772569E+03  0.00000000000E+00 0.  1.
         21   -1    0    0  501  503 -0.00000000000E+00 -0.00000000000E+00 -0.81588529750E+03  0.81588529750E+03  0.00000000000E+00 0.  1.
    9000007    1    1    2  501    0  0.11624211774E+03  0.59609412301E+02 -0.62752902092E+03  0.75555157605E+03  0.40000000000E+03 0.  1.
   -9000007    1    1    2    0  502 -0.11624211774E+03 -0.59609412301E+02  0.23165144911E+03  0.48034144715E+03  0.40000000000E+03 0.  1.
<mgrwt>
<rscale>  2 0.42079153E+03</rscale>
<asrwt>0</asrwt>
<pdfrwt beam="1">  1       21 0.64616574E-01 0.42079153E+03</pdfrwt>
<pdfrwt beam="2">  1       21 0.12552081E+00 0.42079153E+03</pdfrwt>
<totfact> 0.89301519E+02</totfact>
</mgrwt>
</event>
<event>
 4    1  0.4732450E-002  0.5048666E+03  0.7818608E-02  0.1012516E+00
         21   -1    0    0  503  502  0.00000000000E+00  0.00000000000E+00  0.14007779180E+04  0.14007779180E+04  0.00000000000E+00 0. -1.
         21   -1    0    0  501  503 -0.00000000000E+00 -0.00000000000E+00 -0.23006244108E+03  0.23006244108E+03  0.00000000000E+00 0. -1.
    9000007    1    1    2  501    0 -0.13985113724E+03 -0.27446669917E+03  0.21251403591E+03  0.54777050395E+03  0.40000000000E+03 0. -1.
   -9000007    1    1    2    0  502  0.13985113724E+03  0.27446669917E+03  0.95820144102E+03  0.10830698551E+04  0.40000000000E+03 0. -1.
<mgrwt>
<rscale>  2 0.50486663E+03</rscale>
<asrwt>0</asrwt>
<pdfrwt beam="1">  1       21 0.21550429E+00 0.50486663E+03</pdfrwt>
<pdfrwt beam="2">  1       21 0.35394223E-01 0.50486663E+03</pdfrwt>
<totfact> 0.66344743E+02</totfact>
</mgrwt>
</event>
<event>
 4    1  0.4732450E-002  0.4098849E+03  0.7818608E-02  0.1040410E+00
         21   -1    0    0  503  502  0.00000000000E+00  0.00000000000E+00  0.10929067261E+03  0.10929067261E+03  0.00000000000E+00 0.  1.
         21   -1    0    0  501  503 -0.00000000000E+00 -0.00000000000E+00 -0.16745987375E+04  0.16745987375E+04  0.00000000000E+00 0.  1.
    9000007    1    1    2  501    0  0.60429251506E+02  0.65984072131E+02 -0.52719780007E+03  0.66778972185E+03  0.40000000000E+03 0.  1.
   -9000007    1    1    2    0  502 -0.60429251506E+02 -0.65984072131E+02 -0.10381102649E+04  0.11160996883E+04  0.40000000000E+03 0.  1.
<mgrwt>
<rscale>  2 0.40988485E+03</rscale>
<asrwt>0</asrwt>
<pdfrwt beam="1">  1       21 0.16813951E-01 0.40988485E+03</pdfrwt>
<pdfrwt beam="2">  1       21 0.25763056E+00 0.40988485E+03</pdfrwt>
<totfact> 0.16100123E+03</totfact>
</mgrwt>
</event>
<event>
 4    1  0.4732450E-002  0.4759631E+03  0.7818608E-02  0.1020251E+00
         21   -1    0    0  503  502  0.00000000000E+00  0.00000000000E+00  0.10009348464E+04  0.10009348464E+04  0.00000000000E+00 0. -1.
         21   -1    0    0  501  503 -0.00000000000E+00 -0.00000000000E+00 -0.25119581516E+03  0.25119581516E+03  0.00000000000E+00 0. -1.
    9000007    1    1    2  501    0 -0.18733697897E+03 -0.17732947587E+03  0.17789008079E+03  0.50811983581E+03  0.40000000000E+03 0. -1.
   -9000007    1    1    2    0  502  0.18733697897E+03  0.17732947587E+03  0.57184895043E+03  0.74401082573E+03  0.40000000000E+03 0. -1.
<mgrwt>
<rscale>  2 0.47596311E+03</rscale>
<asrwt>0</asrwt>
<pdfrwt beam="1">  1       21 0.15398997E+00 0.47596311E+03</pdfrwt>
<pdfrwt beam="2">  1       21 0.38645511E-01 0.47596311E+03</pdfrwt>
<totfact> 0.15165315E+03</totfact>
</mgrwt>
</event>
<event>
 4    1  0.4732450E-002  0.4058307E+03  0.7818608E-02  0.1041779E+00
         21   -1    0    0  503  502  0.00000000000E+00  0.00000000000E+00  0.10534266311E+04  0.10534266311E+04  0.00000000000E+00 0.  1.
         21   -1    0    0  501  503 -0.00000000000E+00 -0.00000000000E+00 -0.15635162857E+03  0.15635162857E+03  0.00000000000E+00 0.  1.
    9000007    1    1    2  501    0 -0.68508766532E+02  0.22615614605E+01  0.45230917484E+03  0.60768590192E+03  0.40000000000E+03 0. -1.
   -9000007    1    1    2    0  502  0.68508766532E+02 -0.22615614605E+01  0.44476582765E+03  0.60209235770E+03  0.40000000000E+03 0. -1.
<mgrwt>
<rscale>  2 0.40583071E+03</rscale>
<asrwt>0</asrwt>
<pdfrwt beam="1">  1       21 0.16206563E+00 0.40583071E+03</pdfrwt>
<pdfrwt beam="2">  1       21 0.24054097E-01 0.40583071E+03</pdfrwt>
<totfact> 0.34793849E+03</totfact>
</mgrwt>
</event>
<event>
 4    1  0.4732450E-002  0.4444795E+03  0.7818608E-02  0.1029381E+00
         21   -1    0    0  503  502  0.00000000000E+00  0.00000000000E+00  0.14563360516E+03  0.14563360516E+03  0.00000000000E+00 0.  1.
         21   -1    0    0  501  503 -0.00000000000E+00 -0.00000000000E+00 -0.14254217433E+04  0.14254217433E+04  0.00000000000E+00 0.  1.
    9000007    1    1    2  501    0 -0.18411122339E+03 -0.60539918911E+02 -0.46725040850E+03  0.64489143939E+03  0.40000000000E+03 0.  1.
   -9000007    1    1    2    0  502  0.18411122339E+03  0.60539918911E+02 -0.81253772968E+03  0.92616390909E+03  0.40000000000E+03 0.  1.
<mgrwt>
<rscale>  2 0.44447950E+03</rscale>
<asrwt>0</asrwt>
<pdfrwt beam="1">  1       21 0.22405171E-01 0.44447950E+03</pdfrwt>
<pdfrwt beam="2">  1       21 0.21929565E+00 0.44447950E+03</pdfrwt>
<totfact> 0.15899242E+03</totfact>
</mgrwt>
</event>
<event>
 4    1  0.4732450E-002  0.4290597E+03  0.7818608E-02  0.1034157E+00
         21   -1    0    0  503  502  0.00000000000E+00  0.00000000000E+00  0.40885331378E+03  0.40885331378E+03  0.00000000000E+00 0. -1.
         21   -1    0    0  501  503 -0.00000000000E+00 -0.00000000000E+00 -0.50968395785E+03  0.50968395785E+03  0.00000000000E+00 0. -1.
    9000007    1    1    2  501    0  0.12274592432E+03 -0.95003484546E+02  0.10639687283E+03  0.44205488184E+03  0.40000000000E+03 0.  1.
   -9000007    1    1    2    0  502 -0.12274592432E+03  0.95003484546E+02 -0.20722751690E+03  0.47648238979E+03  0.40000000000E+03 0.  1.
<mgrwt>
<rscale>  2 0.42905970E+03</rscale>
<asrwt>0</asrwt>
<pdfrwt beam="1">  1       21 0.62900510E-01 0.42905970E+03</pdfrwt>
<pdfrwt beam="2">  1       21 0.78412916E-01 0.42905970E+03</pdfrwt>
<totfact> 0.29536354E+03</totfact>
</mgrwt>
</event>
<event>
 4    1  0.4732450E-002  0.4478432E+03  0.7818608E-02  0.1028367E+00
         21   -1    0    0  503  502  0.00000000000E+00  0.00000000000E+00  0.96925598122E+03  0.96925598122E+03  0.00000000000E+00 0.  1.
         21   -1    0    0  501  503 -0.00000000000E+00 -0.00000000000E+00 -0.26993995575E+03  0.26993995575E+03  0.00000000000E+00 0. -1.
    9000007    1    1    2  501    0 -0.91645582118E+02 -0.17934502265E+03  0.50295574931E+02  0.45065862327E+03  0.40000000000E+03 0. -1.
   -9000007    1    1    2    0  502  0.91645582118E+02  0.17934502265E+03  0.64902045054E+03  0.78853731370E+03  0.40000000000E+03 0.  1.
<mgrwt>
<rscale>  2 0.44784322E+03</rscale>
<asrwt>0</asrwt>
<pdfrwt beam="1">  1       21 0.14911630E+00 0.44784322E+03</pdfrwt>
<pdfrwt beam="2">  1       21 0.41529224E-01 0.44784322E+03</pdfrwt>
<totfact> 0.14434077E+03</totfact>
</mgrwt>
</event>
<event>
 4    1  0.4732450E-002  0.4127993E+03  0.7818608E-02  0.1039436E+00
         21   -1    0    0  503  502  0.00000000000E+00  0.00000000000E+00  0.56767300500E+03  0.56767300500E+03  0.00000000000E+00 0. -1.
         21   -1    0    0  501  503 -0.00000000000E+00 -0.00000000000E+00 -0.72740753153E+03  0.72740753153E+03  0.00000000000E+00 0. -1.
    9000007    1    1    2  501    0  0.62805891552E+02 -0.80365859781E+02 -0.57612608985E+03  0.70874856108E+03  0.40000000000E+03 0. -1.
   -9000007    1    1    2    0  502 -0.62805891552E+02  0.80365859781E+02  0.41639156331E+03  0.58633197544E+03  0.40000000000E+03 0. -1.
<mgrwt>
<rscale>  2 0.41279929E+03</rscale>
<asrwt>0</asrwt>
<pdfrwt beam="1">  1       21 0.87334309E-01 0.41279929E+03</pdfrwt>
<pdfrwt beam="2">  1       21 0.11190885E+00 0.41279929E+03</pdfrwt>
<totfact> 0.60267095E+02</totfact>
</mgrwt>
</event>
<event>
 4    1  0.4732450E-002  0.6504632E+03  0.7818608E-02  0.9805910E-01
         21   -1    0    0  503  502  0.00000000000E+00  0.00000000000E+00  0.68095408648E+03  0.68095408648E+03  0.00000000000E+00 0.  1.
         21   -1    0    0  501  503 -0.00000000000E+00 -0.00000000000E+00 -0.62226066662E+03  0.62226066662E+03  0.00000000000E+00 0. -1.
    9000007    1    1    2  501    0  0.19772434896E+03  0.47329429285E+03  0.42505851857E+01  0.65047711204E+03  0.40000000000E+03 0.  1.
   -9000007    1    1    2    0  502 -0.19772434896E+03 -0.47329429285E+03  0.54442834680E+02  0.65273764106E+03  0.40000000000E+03 0. -1.
<mgrwt>
<rscale>  2 0.65046322E+03</rscale>
<asrwt>0</asrwt>
<pdfrwt beam="1">  1       21 0.10476217E+00 0.65046322E+03</pdfrwt>
<pdfrwt beam="2">  1       21 0.95732410E-01 0.65046322E+03</pdfrwt>
<totfact> 0.52131496E+02</totfact>
</mgrwt>
</event>
<event>
 4    1  0.4732450E-002  0.4953579E+03  0.7818608E-02  0.1014998E+00
         21   -1    0    0  503  502  0.00000000000E+00  0.00000000000E+00  0.52593304186E+03  0.52593304186E+03  0.00000000000E+00 0.  1.
         21   -1    0    0  501  503 -0.00000000000E+00 -0.00000000000E+00 -0.46656546620E+03  0.46656546620E+03  0.00000000000E+00 0.  1.
    9000007    1    1    2  501    0  0.17717242529E+03 -0.23235617067E+03  0.28026572516E+02  0.49615012556E+03  0.40000000000E+03 0.  1.
   -9000007    1    1    2    0  502 -0.17717242529E+03  0.23235617067E+03  0.31341003141E+02  0.49634838250E+03  0.40000000000E+03 0.  1.
<mgrwt>
<rscale>  2 0.49535791E+03</rscale>
<asrwt>0</asrwt>
<pdfrwt beam="1">  1       21 0.80912776E-01 0.49535791E+03</pdfrwt>
<pdfrwt beam="2">  1       21 0.71779302E-01 0.49535791E+03</pdfrwt>
<totfact> 0.19968793E+03</totfact>
</mgrwt>
</event>
<event>
 4    1  0.4732450E-002  0.4578311E+03  0.7818608E-02  0.1025412E+00
         21   -1    0    0  501  502  0.00000000000E+00  0.00000000000E+00  0.25198768176E+03  0.25198768176E+03  0.00000000000E+00 0. -1.
         21   -1    0    0  502  503 -0.00000000000E+00 -0.00000000000E+00 -0.10970952765E+04  0.10970952765E+04  0.00000000000E+00 0. -1.
    9000007    1    1    2  501    0  0.21946236622E+03 -0.38021245396E+02 -0.90864251374E+02  0.46676081398E+03  0.40000000000E+03 0. -1.
   -9000007    1    1    2    0  503 -0.21946236622E+03  0.38021245396E+02 -0.75424334341E+03  0.88232214433E+03  0.40000000000E+03 0. -1.
<mgrwt>
<rscale>  2 0.45783113E+03</rscale>
<asrwt>0</asrwt>
<pdfrwt beam="1">  1       21 0.38767336E-01 0.45783113E+03</pdfrwt>
<pdfrwt beam="2">  1       21 0.16878389E+00 0.45783113E+03</pdfrwt>
<totfact> 0.11744668E+03</totfact>
</mgrwt>
</event>
<event>
 4    1  0.4732450E-002  0.5035548E+03  0.7818608E-02  0.1012855E+00
         21   -1    0    0  503  502  0.00000000000E+00  0.00000000000E+00  0.68694223926E+03  0.68694223926E+03  0.00000000000E+00 0. -1.
         21   -1    0    0  501  503 -0.00000000000E+00 -0.00000000000E+00 -0.37875439160E+03  0.37875439160E+03  0.00000000000E+00 0.  1.
    9000007    1    1    2  501    0  0.21049870240E+03  0.22194073809E+03  0.23905683928E+03  0.55741866433E+03  0.40000000000E+03 0.  1.
   -9000007    1    1    2    0  502 -0.21049870240E+03 -0.22194073809E+03  0.69131008378E+02  0.50827796653E+03  0.40000000000E+03 0. -1.
<mgrwt>
<rscale>  2 0.50355476E+03</rscale>
<asrwt>0</asrwt>
<pdfrwt beam="1">  1       21 0.10568342E+00 0.50355476E+03</pdfrwt>
<pdfrwt beam="2">  1       21 0.58269907E-01 0.50355476E+03</pdfrwt>
<totfact> 0.16720476E+03</totfact>
</mgrwt>
</event>
<event>
 4    1  0.4732450E-002  0.5095889E+03  0.7818608E-02  0.1011306E+00
         21   -1    0    0  503  502  0.00000000000E+00  0.00000000000E+00  0.20907881263E+03  0.20907881263E+03  0.00000000000E+00 0. -1.
         21   -1    0    0  501  503 -0.00000000000E+00 -0.00000000000E+00 -0.17613535281E+04  0.17613535281E+04  0.00000000000E+00 0.  1.
    9000007    1    1    2  501    0  0.12662395862E+03  0.28921822172E+03 -0.13111080196E+04  0.14066574017E+04  0.40000000000E+03 0.  1.
   -9000007    1    1    2    0  502 -0.12662395862E+03 -0.28921822172E+03 -0.24116669583E+03  0.56377493901E+03  0.40000000000E+03 0. -1.
<mgrwt>
<rscale>  2 0.50958886E+03</rscale>
<asrwt>0</asrwt>
<pdfrwt beam="1">  1       21 0.32165972E-01 0.50958886E+03</pdfrwt>
<pdfrwt beam="2">  1       21 0.27097746E+00 0.50958886E+03</pdfrwt>
<totfact> 0.36190934E+02</totfact>
</mgrwt>
</event>
<event>
 4    1  0.4732450E-002  0.4261047E+03  0.7818608E-02  0.1035098E+00
         21   -1    0    0  503  502  0.00000000000E+00  0.00000000000E+00  0.22710680891E+03  0.22710680891E+03  0.00000000000E+00 0.  1.
         21   -1    0    0  501  503 -0.00000000000E+00 -0.00000000000E+00 -0.20078470286E+04  0.20078470286E+04  0.00000000000E+00 0.  1.
    9000007    1    1    2  501    0  0.16318083645E+02  0.14594166637E+03 -0.17572807770E+04  0.18082037991E+04  0.40000000000E+03 0.  1.
   -9000007    1    1    2    0  502 -0.16318083645E+02 -0.14594166637E+03 -0.23459442692E+02  0.42675003842E+03  0.40000000000E+03 0.  1.
<mgrwt>
<rscale>  2 0.42610474E+03</rscale>
<asrwt>0</asrwt>
<pdfrwt beam="1">  1       21 0.34939509E-01 0.42610474E+03</pdfrwt>
<pdfrwt beam="2">  1       21 0.30889954E+00 0.42610474E+03</pdfrwt>
<totfact> 0.18974034E+02</totfact>
</mgrwt>
</event>
<event>
 4    1  0.4732450E-002  0.4083355E+03  0.7818608E-02  0.1040931E+00
         21   -1    0    0  501  502  0.00000000000E+00  0.00000000000E+00  0.52999443706E+03  0.52999443706E+03  0.00000000000E+00 0. -1.
         21   -1    0    0  502  503 -0.00000000000E+00 -0.00000000000E+00 -0.63071407026E+03  0.63071407026E+03  0.00000000000E+00 0. -1.
    9000007    1    1    2  501    0 -0.74468230061E+01 -0.81746110441E+02  0.36050287835E+03  0.54470194331E+03  0.40000000000E+03 0. -1.
   -9000007    1    1    2    0  503  0.74468230061E+01  0.81746110441E+02 -0.46122251155E+03  0.61600656401E+03  0.40000000000E+03 0. -1.
<mgrwt>
<rscale>  2 0.40833550E+03</rscale>
<asrwt>0</asrwt>
<pdfrwt beam="1">  1       21 0.81537606E-01 0.40833550E+03</pdfrwt>
<pdfrwt beam="2">  1       21 0.97032933E-01 0.40833550E+03</pdfrwt>
<totfact> 0.10049697E+03</totfact>
</mgrwt>
</event>
<event>
 4    1  0.4732450E-002  0.4983867E+03  0.7818608E-02  0.1014201E+00
         21   -1    0    0  501  502  0.00000000000E+00  0.00000000000E+00  0.26678766507E+03  0.26678766507E+03  0.00000000000E+00 0. -1.
         21   -1    0    0  502  503 -0.00000000000E+00 -0.00000000000E+00 -0.10726217720E+04  0.10726217720E+04  0.00000000000E+00 0.  1.
    9000007    1    1    2  501    0 -0.26766223799E+03 -0.12940714233E+03 -0.15960267010E+03  0.52331854012E+03  0.40000000000E+03 0.  1.
   -9000007    1    1    2    0  503  0.26766223799E+03  0.12940714233E+03 -0.64623143681E+03  0.81609089693E+03  0.40000000000E+03 0.  1.
<mgrwt>
<rscale>  2 0.49838668E+03</rscale>
<asrwt>0</asrwt>
<pdfrwt beam="1">  1       21 0.41044257E-01 0.49838668E+03</pdfrwt>
<pdfrwt beam="2">  1       21 0.16501873E+00 0.49838668E+03</pdfrwt>
<totfact> 0.10947148E+03</totfact>
</mgrwt>
</event>
<event>
 4    1  0.4732450E-002  0.4707711E+03  0.7818608E-02  0.1021703E+00
         21   -1    0    0  501  502  0.00000000000E+00  0.00000000000E+00  0.71834688736E+03  0.71834688736E+03  0.00000000000E+00 0.  1.
         21   -1    0    0  502  503 -0.00000000000E+00 -0.00000000000E+00 -0.33423206528E+03  0.33423206528E+03  0.00000000000E+00 0. -1.
    9000007    1    1    2  501    0  0.14900185393E+03  0.19855443196E+03  0.33802517759E+03  0.57955710298E+03  0.40000000000E+03 0. -1.
   -9000007    1    1    2    0  503 -0.14900185393E+03 -0.19855443196E+03  0.46089644483E+02  0.47302184966E+03  0.40000000000E+03 0. -1.
<mgrwt>
<rscale>  2 0.47077109E+03</rscale>
<asrwt>0</asrwt>
<pdfrwt beam="1">  1       21 0.11051491E+00 0.47077109E+03</pdfrwt>
<pdfrwt beam="2">  1       21 0.51420318E-01 0.47077109E+03</pdfrwt>
<totfact> 0.19840048E+03</totfact>
</mgrwt>
</event>
<event>
 4    1  0.4732450E-002  0.4827421E+03  0.7818608E-02  0.1018384E+00
         21   -1    0    0  503  502  0.00000000000E+00  0.00000000000E+00  0.10661905388E+03  0.10661905388E+03  0.00000000000E+00 0.  1.
         21   -1    0    0  501  503 -0.00000000000E+00 -0.00000000000E+00 -0.23422225603E+04  0.23422225603E+04  0.00000000000E+00 0.  1.
    9000007    1    1    2  501    0  0.12867236586E+03 -0.23766230936E+03 -0.14342991582E+04  0.15133585253E+04  0.40000000000E+03 0.  1.
   -9000007    1    1    2    0  502 -0.12867236586E+03  0.23766230936E+03 -0.80130434827E+03  0.93548308888E+03  0.40000000000E+03 0.  1.
<mgrwt>
<rscale>  2 0.48274212E+03</rscale>
<asrwt>0</asrwt>
<pdfrwt beam="1">  1       21 0.16402933E-01 0.48274212E+03</pdfrwt>
<pdfrwt beam="2">  1       21 0.36034189E+00 0.48274212E+03</pdfrwt>
<totfact> 0.38648964E+02</totfact>
</mgrwt>
</event>
<event>
 4    1  0.4732450E-002  0.4075171E+03  0.7818608E-02  0.1041207E+00
         21   -1    0    0  503  502  0.00000000000E+00  0.00000000000E+00  0.26126954401E+03  0.26126954401E+03  0.00000000000E+00 0.  1.
         21   -1    0    0  501  503 -0.00000000000E+00 -0.00000000000E+00 -0.65954058739E+03  0.65954058739E+03  0.00000000000E+00 0.  1.
    9000007    1    1    2  501    0  0.43347448667E+02  0.64739100190E+02 -0.11146863565E+03  0.42248717038E+03  0.40000000000E+03 0.  1.
   -9000007    1    1    2    0  502 -0.43347448667E+02 -0.64739100190E+02 -0.28680240774E+03  0.49832296102E+03  0.40000000000E+03 0.  1.
<mgrwt>
<rscale>  2 0.40751706E+03</rscale>
<asrwt>0</asrwt>
<pdfrwt beam="1">  1       21 0.40195315E-01 0.40751706E+03</pdfrwt>
<pdfrwt beam="2">  1       21 0.10146778E+00 0.40751706E+03</pdfrwt>
<totfact> 0.42013194E+03</totfact>
</mgrwt>
</event>
<event>
 4    1  0.4732450E-002  0.4562181E+03  0.7818608E-02  0.1025884E+00
         21   -1    0    0  503  502  0.00000000000E+00  0.00000000000E+00  0.16261795235E+04  0.16261795235E+04  0.00000000000E+00 0.  1.
         21   -1    0    0  501  503 -0.00000000000E+00 -0.00000000000E+00 -0.24327073353E+03  0.24327073353E+03  0.00000000000E+00 0.  1.
    9000007    1    1    2  501    0 -0.83313856172E+02  0.20296241082E+03  0.48001002884E+02  0.45873634597E+03  0.40000000000E+03 0.  1.
   -9000007    1    1    2    0  502  0.83313856172E+02 -0.20296241082E+03  0.13349077871E+04  0.14107139111E+04  0.40000000000E+03 0.  1.
<mgrwt>
<rscale>  2 0.45621808E+03</rscale>
<asrwt>0</asrwt>
<pdfrwt beam="1">  1       21 0.25018146E+00 0.45621808E+03</pdfrwt>
<pdfrwt beam="2">  1       21 0.37426268E-01 0.45621808E+03</pdfrwt>
<totfact> 0.36679506E+02</totfact>
</mgrwt>
</event>
<event>
 4    1  0.4732450E-002  0.5547307E+03  0.7818608E-02  0.1000405E+00
         21   -1    0    0  501  502  0.00000000000E+00  0.00000000000E+00  0.99138791571E+03  0.99138791571E+03  0.00000000000E+00 0. -1.
         21   -1    0    0  502  503 -0.00000000000E+00 -0.00000000000E+00 -0.31039941214E+03  0.31039941214E+03  0.00000000000E+00 0. -1.
    9000007    1    1    2  501    0 -0.24408459363E+03 -0.29689880664E+03  0.34027161796E+03  0.65077720014E+03  0.40000000000E+03 0. -1.
   -9000007    1    1    2    0  503  0.24408459363E+03  0.29689880664E+03  0.34071688561E+03  0.65101012770E+03  0.40000000000E+03 0. -1.
<mgrwt>
<rscale>  2 0.55473074E+03</rscale>
<asrwt>0</asrwt>
<pdfrwt beam="1">  1       21 0.15252122E+00 0.55473074E+03</pdfrwt>
<pdfrwt beam="2">  1       21 0.47753756E-01 0.55473074E+03</pdfrwt>
<totfact> 0.97272276E+02</totfact>
</mgrwt>
</event>
<event>
 4    1  0.4732450E-002  0.4166151E+03  0.7818608E-02  0.1038174E+00
         21   -1    0    0  503  502  0.00000000000E+00  0.00000000000E+00  0.43558696692E+03  0.43558696692E+03  0.00000000000E+00 0.  1.
         21   -1    0    0  501  503 -0.00000000000E+00 -0.00000000000E+00 -0.13393271537E+04  0.13393271537E+04  0.00000000000E+00 0.  1.
    9000007    1    1    2  501    0 -0.81549098050E+02 -0.83173836745E+02 -0.11956868563E+04  0.12661892437E+04  0.40000000000E+03 0.  1.
   -9000007    1    1    2    0  502  0.81549098050E+02  0.83173836745E+02  0.29194666955E+03  0.50872487690E+03  0.40000000000E+03 0.  1.
<mgrwt>
<rscale>  2 0.41661510E+03</rscale>
<asrwt>0</asrwt>
<pdfrwt beam="1">  1       21 0.67013380E-01 0.41661510E+03</pdfrwt>
<pdfrwt beam="2">  1       21 0.20605033E+00 0.41661510E+03</pdfrwt>
<totfact> 0.20604716E+02</totfact>
</mgrwt>
</event>
<event>
 4    1  0.4732450E-002  0.4047890E+03  0.7818608E-02  0.1042134E+00
         21   -1    0    0  503  502  0.00000000000E+00  0.00000000000E+00  0.11911399776E+04  0.11911399776E+04  0.00000000000E+00 0.  1.
         21   -1    0    0  501  503 -0.00000000000E+00 -0.00000000000E+00 -0.20259900599E+03  0.20259900599E+03  0.00000000000E+00 0.  1.
    9000007    1    1    2  501    0 -0.47884555222E+02  0.39512122996E+02  0.99434110053E+02  0.41682284095E+03  0.40000000000E+03 0.  1.
   -9000007    1    1    2    0  502  0.47884555222E+02 -0.39512122996E+02  0.88910686159E+03  0.97691614267E+03  0.40000000000E+03 0.  1.
<mgrwt>
<rscale>  2 0.40478900E+03</rscale>
<asrwt>0</asrwt>
<pdfrwt beam="1">  1       21 0.18325230E+00 0.40478900E+03</pdfrwt>
<pdfrwt beam="2">  1       21 0.31169079E-01 0.40478900E+03</pdfrwt>
<totfact> 0.14740062E+03</totfact>
</mgrwt>
</event>
<event>
 4    1  0.4732450E-002  0.4783829E+03  0.7818608E-02  0.1019581E+00
         21   -1    0    0  503  502  0.00000000000E+00  0.00000000000E+00  0.41162381255E+03  0.41162381255E+03  0.00000000000E+00 0. -1.
         21   -1    0    0  501  503 -0.00000000000E+00 -0.00000000000E+00 -0.56814643856E+03  0.56814643856E+03  0.00000000000E+00 0. -1.
    9000007    1    1    2  501    0  0.91896405160E+02  0.24577485825E+03 -0.14998053173E+03  0.50134258758E+03  0.40000000000E+03 0. -1.
   -9000007    1    1    2    0  502 -0.91896405160E+02 -0.24577485825E+03 -0.65420942823E+01  0.47842766352E+03  0.40000000000E+03 0. -1.
<mgrwt>
<rscale>  2 0.47838293E+03</rscale>
<asrwt>0</asrwt>
<pdfrwt beam="1">  1       21 0.63326740E-01 0.47838293E+03</pdfrwt>
<pdfrwt beam="2">  1       21 0.87407144E-01 0.47838293E+03</pdfrwt>
<totfact> 0.22202552E+03</totfact>
</mgrwt>
</event>
<event>
 4    1  0.4732450E-002  0.5272295E+03  0.7818608E-02  0.1006906E+00
         21   -1    0    0  503  502  0.00000000000E+00  0.00000000000E+00  0.61141473373E+03  0.61141473373E+03  0.00000000000E+00 0. -1.
         21   -1    0    0  501  503 -0.00000000000E+00 -0.00000000000E+00 -0.45631385304E+03  0.45631385304E+03  0.00000000000E+00 0. -1.
    9000007    1    1    2  501    0  0.28792196840E+03 -0.18727476644E+03  0.45173999845E+02  0.52916121201E+03  0.40000000000E+03 0. -1.
   -9000007    1    1    2    0  502 -0.28792196840E+03  0.18727476644E+03  0.10992688084E+03  0.53856737477E+03  0.40000000000E+03 0. -1.
<mgrwt>
<rscale>  2 0.52722945E+03</rscale>
<asrwt>0</asrwt>
<pdfrwt beam="1">  1       21 0.94063805E-01 0.52722945E+03</pdfrwt>
<pdfrwt beam="2">  1       21 0.70202131E-01 0.52722945E+03</pdfrwt>
<totfact> 0.14562195E+03</totfact>
</mgrwt>
</event>
<event>
 4    1  0.4732450E-002  0.5127550E+03  0.7818608E-02  0.1010502E+00
         21   -1    0    0  503  502  0.00000000000E+00  0.00000000000E+00  0.31405594498E+03  0.31405594498E+03  0.00000000000E+00 0. -1.
         21   -1    0    0  501  503 -0.00000000000E+00 -0.00000000000E+00 -0.90132835222E+03  0.90132835222E+03  0.00000000000E+00 0. -1.
    9000007    1    1    2  501    0  0.29439139252E+03  0.12748097600E+03 -0.13150210581E+03  0.52934912398E+03  0.40000000000E+03 0. -1.
   -9000007    1    1    2    0  502 -0.29439139252E+03 -0.12748097600E+03 -0.45577030143E+03  0.68603517322E+03  0.40000000000E+03 0. -1.
<mgrwt>
<rscale>  2 0.51275500E+03</rscale>
<asrwt>0</asrwt>
<pdfrwt beam="1">  1       21 0.48316301E-01 0.51275500E+03</pdfrwt>
<pdfrwt beam="2">  1       21 0.13866590E+00 0.51275500E+03</pdfrwt>
<totfact> 0.12459890E+03</totfact>
</mgrwt>
</event>
<event>
 4    1  0.4732450E-002  0.4181467E+03  0.7818608E-02  0.1037671E+00
         21   -1    0    0  503  502  0.00000000000E+00  0.00000000000E+00  0.91745608359E+03  0.91745608359E+03  0.00000000000E+00 0. -1.
         21   -1    0    0  501  503 -0.00000000000E+00 -0.00000000000E+00 -0.59377857233E+03  0.59377857233E+03  0.00000000000E+00 0. -1.
    9000007    1    1    2  501    0  0.11823797703E+03 -0.29435523668E+02 -0.46082040262E+03  0.62225566509E+03  0.40000000000E+03 0. -1.
   -9000007    1    1    2    0  502 -0.11823797703E+03  0.29435523668E+02  0.78449791388E+03  0.88897899084E+03  0.40000000000E+03 0. -1.
<mgrwt>
<rscale>  2 0.41814671E+03</rscale>
<asrwt>0</asrwt>
<pdfrwt beam="1">  1       21 0.14114709E+00 0.41814671E+03</pdfrwt>
<pdfrwt beam="2">  1       21 0.91350550E-01 0.41814671E+03</pdfrwt>
<totfact> 0.29792014E+02</totfact>
</mgrwt>
</event>
<event>
 4    1  0.4732450E-002  0.4056318E+03  0.7818608E-02  0.1041847E+00
         21   -1    0    0  501  502  0.00000000000E+00  0.00000000000E+00  0.35001775517E+03  0.35001775517E+03  0.00000000000E+00 0. -1.
         21   -1    0    0  502  503 -0.00000000000E+00 -0.00000000000E+00 -0.55681567937E+03  0.55681567937E+03  0.00000000000E+00 0. -1.
    9000007    1    1    2  501    0  0.41384412023E+01  0.67231232790E+02  0.75552328312E+02  0.41260794911E+03  0.40000000000E+03 0. -1.
   -9000007    1    1    2    0  503 -0.41384412023E+01 -0.67231232790E+02 -0.28235025250E+03  0.49422548543E+03  0.40000000000E+03 0. -1.
<mgrwt>
<rscale>  2 0.40563181E+03</rscale>
<asrwt>0</asrwt>
<pdfrwt beam="1">  1       21 0.53848885E-01 0.40563181E+03</pdfrwt>
<pdfrwt beam="2">  1       21 0.85663951E-01 0.40563181E+03</pdfrwt>
<totfact> 0.34045328E+03</totfact>
</mgrwt>
</event>
<event>
 4    1  0.4732450E-002  0.5559375E+03  0.7818608E-02  0.1000129E+00
         21   -1    0    0  503  502  0.00000000000E+00  0.00000000000E+00  0.29478996177E+03  0.29478996177E+03  0.00000000000E+00 0. -1.
         21   -1    0    0  501  503 -0.00000000000E+00 -0.00000000000E+00 -0.22201701768E+04  0.22201701768E+04  0.00000000000E+00 0. -1.
    9000007    1    1    2  501    0 -0.74511088516E+02 -0.37883317689E+03 -0.18762220557E+04  0.19568535154E+04  0.40000000000E+03 0. -1.
   -9000007    1    1    2    0  502  0.74511088516E+02  0.37883317689E+03 -0.49158159289E+02  0.55810662319E+03  0.40000000000E+03 0. -1.
<mgrwt>
<rscale>  2 0.55593748E+03</rscale>
<asrwt>0</asrwt>
<pdfrwt beam="1">  1       21 0.45352302E-01 0.55593748E+03</pdfrwt>
<pdfrwt beam="2">  1       21 0.34156464E+00 0.55593748E+03</pdfrwt>
<totfact> 0.64908682E+01</totfact>
</mgrwt>
</event>
<event>
 4    1  0.4732450E-002  0.7329417E+03  0.7818608E-02  0.9662499E-01
         21   -1    0    0  501  502  0.00000000000E+00  0.00000000000E+00  0.44907799637E+03  0.44907799637E+03  0.00000000000E+00 0. -1.
         21   -1    0    0  502  503 -0.00000000000E+00 -0.00000000000E+00 -0.14347516098E+04  0.14347516098E+04  0.00000000000E+00 0. -1.
    9000007    1    1    2  501    0 -0.56102554206E+03 -0.24990761555E+03 -0.10879257932E+03  0.74097186213E+03  0.40000000000E+03 0. -1.
   -9000007    1    1    2    0  503  0.56102554206E+03  0.24990761555E+03 -0.87688103411E+03  0.11428577441E+04  0.40000000000E+03 0. -1.
<mgrwt>
<rscale>  2 0.73294166E+03</rscale>
<asrwt>0</asrwt>
<pdfrwt beam="1">  1       21 0.69088924E-01 0.73294166E+03</pdfrwt>
<pdfrwt beam="2">  1       21 0.22073101E+00 0.73294166E+03</pdfrwt>
<totfact> 0.13433198E+02</totfact>
</mgrwt>
</event>
<event>
 4    1  0.4732450E-002  0.4311621E+03  0.7818608E-02  0.1033493E+00
         21   -1    0    0  503  502  0.00000000000E+00  0.00000000000E+00  0.44620743571E+03  0.44620743571E+03  0.00000000000E+00 0. -1.
         21   -1    0    0  501  503 -0.00000000000E+00 -0.00000000000E+00 -0.41763610155E+03  0.41763610155E+03  0.00000000000E+00 0. -1.
    9000007    1    1    2  501    0  0.11450340910E+03 -0.11309184749E+03  0.35546705635E+02  0.43262497032E+03  0.40000000000E+03 0. -1.
   -9000007    1    1    2    0  502 -0.11450340910E+03  0.11309184749E+03 -0.69753714684E+01  0.43121856694E+03  0.40000000000E+03 0. -1.
<mgrwt>
<rscale>  2 0.43116215E+03</rscale>
<asrwt>0</asrwt>
<pdfrwt beam="1">  1       21 0.68647298E-01 0.43116215E+03</pdfrwt>
<pdfrwt beam="2">  1       21 0.64251708E-01 0.43116215E+03</pdfrwt>
<totfact> 0.38081174E+03</totfact>
</mgrwt>
</event>
<event>
 4    1  0.4732450E-002  0.4260241E+03  0.7818608E-02  0.1035123E+00
         21   -1    0    0  501  502  0.00000000000E+00  0.00000000000E+00  0.16855841600E+04  0.16855841600E+04  0.00000000000E+00 0. -1.
         21   -1    0    0  502  503 -0.00000000000E+00 -0.00000000000E+00 -0.10770604662E+03  0.10770604662E+03  0.00000000000E+00 0. -1.
    9000007    1    1    2  501    0 -0.10142423845E+03  0.10587574771E+03  0.77390248498E+03  0.88341474199E+03  0.40000000000E+03 0. -1.
   -9000007    1    1    2    0  503  0.10142423845E+03 -0.10587574771E+03  0.80397562844E+03  0.90987546468E+03  0.40000000000E+03 0. -1.
<mgrwt>
<rscale>  2 0.42602412E+03</rscale>
<asrwt>0</asrwt>
<pdfrwt beam="1">  1       21 0.25932062E+00 0.42602412E+03</pdfrwt>
<pdfrwt beam="2">  1       21 0.16570162E-01 0.42602412E+03</pdfrwt>
<totfact> 0.16025424E+03</totfact>
</mgrwt>
</event>
<event>
 4    1  0.4732450E-002  0.4021803E+03  0.7818608E-02  0.1043027E+00
         21   -1    0    0  501  502  0.00000000000E+00  0.00000000000E+00  0.11034611293E+04  0.11034611293E+04  0.00000000000E+00 0.  1.
         21   -1    0    0  502  503 -0.00000000000E+00 -0.00000000000E+00 -0.37634807142E+03  0.37634807142E+03  0.00000000000E+00 0.  1.
    9000007    1    1    2  501    0  0.33171404560E+02 -0.25468398091E+02  0.94168265281E+03  0.10239703121E+04  0.40000000000E+03 0.  1.
   -9000007    1    1    2    0  503 -0.33171404560E+02  0.25468398091E+02 -0.21456959490E+03  0.45583888868E+03  0.40000000000E+03 0.  1.
<mgrwt>
<rscale>  2 0.40218028E+03</rscale>
<asrwt>0</asrwt>
<pdfrwt beam="1">  1       21 0.16976325E+00 0.40218028E+03</pdfrwt>
<pdfrwt beam="2">  1       21 0.57899704E-01 0.40218028E+03</pdfrwt>
<totfact> 0.50896546E+02</totfact>
</mgrwt>
</event>
<event>
 4    1  0.4732450E-002  0.5331848E+03  0.7818608E-02  0.1005463E+00
         21   -1    0    0  501  502  0.00000000000E+00  0.00000000000E+00  0.56411436981E+03  0.56411436981E+03  0.00000000000E+00 0. -1.
         21   -1    0    0  502  503 -0.00000000000E+00 -0.00000000000E+00 -0.57347232495E+03  0.57347232495E+03  0.00000000000E+00 0.  1.
    9000007    1    1    2  501    0 -0.22290240381E+03 -0.27313106034E+03 -0.20272083042E+03  0.57042246873E+03  0.40000000000E+03 0. -1.
   -9000007    1    1    2    0  503  0.22290240381E+03  0.27313106034E+03  0.19336287529E+03  0.56716422603E+03  0.40000000000E+03 0. -1.
<mgrwt>
<rscale>  2 0.53318483E+03</rscale>
<asrwt>0</asrwt>
<pdfrwt beam="1">  1       21 0.86786826E-01 0.53318483E+03</pdfrwt>
<pdfrwt beam="2">  1       21 0.88226512E-01 0.53318483E+03</pdfrwt>
<totfact> 0.10376708E+03</totfact>
</mgrwt>
</event>
<event>
 4    1  0.4732450E-002  0.5491445E+03  0.7818608E-02  0.1001692E+00
         21   -1    0    0  501  502  0.00000000000E+00  0.00000000000E+00  0.26276542885E+03  0.26276542885E+03  0.00000000000E+00 0. -1.
         21   -1    0    0  502  503 -0.00000000000E+00 -0.00000000000E+00 -0.15753010744E+04  0.15753010744E+04  0.00000000000E+00 0. -1.
    9000007    1    1    2  501    0  0.37058019592E+03 -0.65038459314E+02 -0.17741710779E+03  0.57709315794E+03  0.40000000000E+03 0. -1.
   -9000007    1    1    2    0  503 -0.37058019592E+03  0.65038459314E+02 -0.11351185377E+04  0.12609733453E+04  0.40000000000E+03 0. -1.
<mgrwt>
<rscale>  2 0.54914450E+03</rscale>
<asrwt>0</asrwt>
<pdfrwt beam="1">  1       21 0.40425452E-01 0.54914450E+03</pdfrwt>
<pdfrwt beam="2">  1       21 0.24235400E+00 0.54914450E+03</pdfrwt>
<totfact> 0.33463679E+02</totfact>
</mgrwt>
</event>
<event>
 4    1  0.4732450E-002  0.4953749E+03  0.7818608E-02  0.1014993E+00
         21   -1    0    0  503  502  0.00000000000E+00  0.00000000000E+00  0.65364095594E+03  0.65364095594E+03  0.00000000000E+00 0. -1.
         21   -1    0    0  501  503 -0.00000000000E+00 -0.00000000000E+00 -0.40337253251E+03  0.40337253251E+03  0.00000000000E+00 0. -1.
    9000007    1    1    2  501    0 -0.89846742727E+02 -0.27807171149E+03  0.26423563225E+03  0.56144170068E+03  0.40000000000E+03 0. -1.
   -9000007    1    1    2    0  502  0.89846742727E+02  0.27807171149E+03 -0.13967208815E+02  0.49557178777E+03  0.40000000000E+03 0. -1.
<mgrwt>
<rscale>  2 0.49537492E+03</rscale>
<asrwt>0</asrwt>
<pdfrwt beam="1">  1       21 0.10056015E+00 0.49537492E+03</pdfrwt>
<pdfrwt beam="2">  1       21 0.62057313E-01 0.49537492E+03</pdfrwt>
<totfact> 0.16497756E+03</totfact>
</mgrwt>
</event>
<event>
 4    1  0.4732450E-002  0.5062156E+03  0.7818608E-02  0.1012169E+00
         21   -1    0    0  501  502  0.00000000000E+00  0.00000000000E+00  0.43532797403E+03  0.43532797403E+03  0.00000000000E+00 0.  1.
         21   -1    0    0  502  503 -0.00000000000E+00 -0.00000000000E+00 -0.11815648651E+04  0.11815648651E+04  0.00000000000E+00 0.  1.
    9000007    1    1    2  501    0  0.14154955567E+03 -0.27607601711E+03  0.19957201144E+03  0.54413530642E+03  0.40000000000E+03 0.  1.
   -9000007    1    1    2    0  503 -0.14154955567E+03  0.27607601711E+03 -0.94580890256E+03  0.10727575328E+04  0.40000000000E+03 0.  1.
<mgrwt>
<rscale>  2 0.50621561E+03</rscale>
<asrwt>0</asrwt>
<pdfrwt beam="1">  1       21 0.66973535E-01 0.50621561E+03</pdfrwt>
<pdfrwt beam="2">  1       21 0.18177921E+00 0.50621561E+03</pdfrwt>
<totfact> 0.28792685E+02</totfact>
</mgrwt>
</event>
<event>
 4    1  0.4732450E-002  0.4081565E+03  0.7818608E-02  0.1040991E+00
         21   -1    0    0  501  502  0.00000000000E+00  0.00000000000E+00  0.11708186865E+04  0.11708186865E+04  0.00000000000E+00 0. -1.
         21   -1    0    0  502  503 -0.00000000000E+00 -0.00000000000E+00 -0.48297256072E+03  0.48297256072E+03  0.00000000000E+00 0. -1.
    9000007    1    1    2  501    0  0.56130796091E+02  0.58660857067E+02  0.10384140422E+04  0.11157488452E+04  0.40000000000E+03 0. -1.
   -9000007    1    1    2    0  503 -0.56130796091E+02 -0.58660857067E+02 -0.35056791641E+03  0.53804240208E+03  0.40000000000E+03 0. -1.
<mgrwt>
<rscale>  2 0.40815654E+03</rscale>
<asrwt>0</asrwt>
<pdfrwt beam="1">  1       21 0.18012595E+00 0.40815654E+03</pdfrwt>
<pdfrwt beam="2">  1       21 0.74303471E-01 0.40815654E+03</pdfrwt>
<totfact> 0.24584160E+02</totfact>
</mgrwt>
</event>
<event>
 4    1  0.4732450E-002  0.6414467E+03  0.7818608E-02  0.9822963E-01
         21   -1    0    0  503  502  0.00000000000E+00  0.00000000000E+00  0.14112102015E+04  0.14112102015E+04  0.00000000000E+00 0. -1.
         21   -1    0    0  501  503 -0.00000000000E+00 -0.00000000000E+00 -0.34461767955E+03  0.34461767955E+03  0.00000000000E+00 0. -1.
    9000007    1    1    2  501    0 -0.11036530347E+03  0.48915577441E+03  0.18882486863E+03  0.66866187484E+03  0.40000000000E+03 0. -1.
   -9000007    1    1    2    0  502  0.11036530347E+03 -0.48915577441E+03  0.87776765329E+03  0.10871660062E+04  0.40000000000E+03 0. -1.
<mgrwt>
<rscale>  2 0.64144670E+03</rscale>
<asrwt>0</asrwt>
<pdfrwt beam="1">  1       21 0.21710926E+00 0.64144670E+03</pdfrwt>
<pdfrwt beam="2">  1       21 0.53018105E-01 0.64144670E+03</pdfrwt>
<totfact> 0.26327173E+02</totfact>
</mgrwt>
</event>
<event>
 4    1  0.4732450E-002  0.4621415E+03  0.7818608E-02  0.1024162E+00
         21   -1    0    0  501  502  0.00000000000E+00  0.00000000000E+00  0.49450663719E+03  0.49450663719E+03  0.00000000000E+00 0.  1.
         21   -1    0    0  502  503 -0.00000000000E+00 -0.00000000000E+00 -0.11249037357E+04  0.11249037357E+04  0.00000000000E+00 0.  1.
    9000007    1    1    2  501    0 -0.13399810941E+02  0.23107395040E+03  0.32033537042E+03  0.56230727812E+03  0.40000000000E+03 0.  1.
   -9000007    1    1    2    0  503  0.13399810941E+02 -0.23107395040E+03 -0.95073246898E+03  0.10571030948E+04  0.40000000000E+03 0.  1.
<mgrwt>
<rscale>  2 0.46214146E+03</rscale>
<asrwt>0</asrwt>
<pdfrwt beam="1">  1       21 0.76077945E-01 0.46214146E+03</pdfrwt>
<pdfrwt beam="2">  1       21 0.17306211E+00 0.46214146E+03</pdfrwt>
<totfact> 0.25419162E+02</totfact>
</mgrwt>
</event>
<event>
 4    1  0.4732450E-002  0.4388844E+03  0.7818608E-02  0.1031090E+00
         21   -1    0    0  501  502  0.00000000000E+00  0.00000000000E+00  0.18442961008E+03  0.18442961008E+03  0.00000000000E+00 0. -1.
         21   -1    0    0  502  503 -0.00000000000E+00 -0.00000000000E+00 -0.10458734347E+04  0.10458734347E+04  0.00000000000E+00 0. -1.
    9000007    1    1    2  501    0  0.17611221679E+03  0.40049591636E+02 -0.45376011672E+03  0.63128260409E+03  0.40000000000E+03 0. -1.
   -9000007    1    1    2    0  503 -0.17611221679E+03 -0.40049591636E+02 -0.40768370791E+03  0.59902044071E+03  0.40000000000E+03 0. -1.
<mgrwt>
<rscale>  2 0.43888436E+03</rscale>
<asrwt>0</asrwt>
<pdfrwt beam="1">  1       21 0.28373786E-01 0.43888436E+03</pdfrwt>
<pdfrwt beam="2">  1       21 0.16090361E+00 0.43888436E+03</pdfrwt>
<totfact> 0.25367344E+03</totfact>
</mgrwt>
</event>
<event>
 4    1  0.4732450E-002  0.5040548E+03  0.7818608E-02  0.1012726E+00
         21   -1    0    0  503  502  0.00000000000E+00  0.00000000000E+00  0.48188318834E+03  0.48188318834E+03  0.00000000000E+00 0. -1.
         21   -1    0    0  501  503 -0.00000000000E+00 -0.00000000000E+00 -0.13559288764E+04  0.13559288764E+04  0.00000000000E+00 0. -1.
    9000007    1    1    2  501    0  0.27730405204E+03  0.13104848286E+03 -0.11553903663E+04  0.12605546957E+04  0.40000000000E+03 0. -1.
   -9000007    1    1    2    0  502 -0.27730405204E+03 -0.13104848286E+03  0.28134467829E+03  0.57725736906E+03  0.40000000000E+03 0. -1.
<mgrwt>
<rscale>  2 0.50405480E+03</rscale>
<asrwt>0</asrwt>
<pdfrwt beam="1">  1       21 0.74135877E-01 0.50405480E+03</pdfrwt>
<pdfrwt beam="2">  1       21 0.20860444E+00 0.50405480E+03</pdfrwt>
<totfact> 0.15060758E+02</totfact>
</mgrwt>
</event>
<event>
 4    1  0.4732450E-002  0.4545703E+03  0.7818608E-02  0.1026368E+00
         21   -1    0    0  503  502  0.00000000000E+00  0.00000000000E+00  0.35317402174E+03  0.35317402174E+03  0.00000000000E+00 0. -1.
         21   -1    0    0  501  503 -0.00000000000E+00 -0.00000000000E+00 -0.93265073382E+03  0.93265073382E+03  0.00000000000E+00 0. -1.
    9000007    1    1    2  501    0 -0.19593432598E+03 -0.90795713558E+02 -0.68221654180E+03  0.81978871156E+03  0.40000000000E+03 0. -1.
   -9000007    1    1    2    0  502  0.19593432598E+03  0.90795713558E+02  0.10273982971E+03  0.46603604400E+03  0.40000000000E+03 0. -1.
<mgrwt>
<rscale>  2 0.45457026E+03</rscale>
<asrwt>0</asrwt>
<pdfrwt beam="1">  1       21 0.54334466E-01 0.45457026E+03</pdfrwt>
<pdfrwt beam="2">  1       21 0.14348473E+00 0.45457026E+03</pdfrwt>
<totfact> 0.90516287E+02</totfact>
</mgrwt>
</event>
<event>
 4    1  0.4732450E-002  0.4456341E+03  0.7818608E-02  0.1029032E+00
         21   -1    0    0  503  502  0.00000000000E+00  0.00000000000E+00  0.10665717648E+04  0.10665717648E+04  0.00000000000E+00 0.  1.
         21   -1    0    0  501  503 -0.00000000000E+00 -0.00000000000E+00 -0.24120868577E+03  0.24120868577E+03  0.00000000000E+00 0.  1.
    9000007    1    1    2  501    0  0.12994320533E+03 -0.14732450733E+03  0.10040029482E+03  0.45680407865E+03  0.40000000000E+03 0.  1.
   -9000007    1    1    2    0  502 -0.12994320533E+03  0.14732450733E+03  0.72496278421E+03  0.85097637192E+03  0.40000000000E+03 0.  1.
<mgrwt>
<rscale>  2 0.44563410E+03</rscale>
<asrwt>0</asrwt>
<pdfrwt beam="1">  1       21 0.16408796E+00 0.44563410E+03</pdfrwt>
<pdfrwt beam="2">  1       21 0.37109029E-01 0.44563410E+03</pdfrwt>
<totfact> 0.13980877E+03</totfact>
</mgrwt>
</event>
<event>
 4    1  0.4732450E-002  0.4337711E+03  0.7818608E-02  0.1032675E+00
         21   -1    0    0  503  502  0.00000000000E+00  0.00000000000E+00  0.33723217079E+03  0.33723217079E+03  0.00000000000E+00 0. -1.
         21   -1    0    0  501  503 -0.00000000000E+00 -0.00000000000E+00 -0.56087427016E+03  0.56087427016E+03  0.00000000000E+00 0.  1.
    9000007    1    1    2  501    0 -0.17294167893E+02 -0.16690788362E+03 -0.14426793587E+03  0.45713298631E+03  0.40000000000E+03 0.  1.
   -9000007    1    1    2    0  502  0.17294167893E+02  0.16690788362E+03 -0.79374163499E+02  0.44097345463E+03  0.40000000000E+03 0. -1.
<mgrwt>
<rscale>  2 0.43377106E+03</rscale>
<asrwt>0</asrwt>
<pdfrwt beam="1">  1       21 0.51881873E-01 0.43377106E+03</pdfrwt>
<pdfrwt beam="2">  1       21 0.86288348E-01 0.43377106E+03</pdfrwt>
<totfact> 0.35870390E+03</totfact>
</mgrwt>
</event>
<event>
 4    1  0.4732450E-002  0.5427419E+03  0.7818608E-02  0.1003188E+00
         21   -1    0    0  503  502  0.00000000000E+00  0.00000000000E+00  0.42819563657E+03  0.42819563657E+03  0.00000000000E+00 0.  1.
         21   -1    0    0  501  503 -0.00000000000E+00 -0.00000000000E+00 -0.68884176409E+03  0.68884176409E+03  0.00000000000E+00 0.  1.
    9000007    1    1    2  501    0 -0.36608654615E+03 -0.23439604658E+02 -0.11000717915E+03  0.55377825328E+03  0.40000000000E+03 0.  1.
   -9000007    1    1    2    0  502  0.36608654615E+03  0.23439604658E+02 -0.15063894838E+03  0.56325914738E+03  0.40000000000E+03 0.  1.
<mgrwt>
<rscale>  2 0.54274190E+03</rscale>
<asrwt>0</asrwt>
<pdfrwt beam="1">  1       21 0.65876252E-01 0.54274190E+03</pdfrwt>
<pdfrwt beam="2">  1       21 0.10597566E+00 0.54274190E+03</pdfrwt>
<totfact> 0.12495811E+03</totfact>
</mgrwt>
</event>
<event>
 4    1  0.4732450E-002  0.4090957E+03  0.7818608E-02  0.1040675E+00
         21   -1    0    0  503  502  0.00000000000E+00  0.00000000000E+00  0.58401931320E+03  0.58401931320E+03  0.00000000000E+00 0. -1.
         21   -1    0    0  501  503 -0.00000000000E+00 -0.00000000000E+00 -0.37178765482E+03  0.37178765482E+03  0.00000000000E+00 0. -1.
    9000007    1    1    2  501    0 -0.71921690271E+02 -0.46760727109E+02 -0.12269212258E+03  0.42709794202E+03  0.40000000000E+03 0. -1.
   -9000007    1    1    2    0  502  0.71921690271E+02  0.46760727109E+02  0.33492378096E+03  0.52870902601E+03  0.40000000000E+03 0. -1.
<mgrwt>
<rscale>  2 0.40909570E+03</rscale>
<asrwt>0</asrwt>
<pdfrwt beam="1">  1       21 0.89849125E-01 0.40909570E+03</pdfrwt>
<pdfrwt beam="2">  1       21 0.57198101E-01 0.40909570E+03</pdfrwt>
<totfact> 0.26684080E+03</totfact>
</mgrwt>
</event>
<event>
 4    1  0.4732450E-002  0.4536686E+03  0.7818608E-02  0.1026634E+00
         21   -1    0    0  503  502  0.00000000000E+00  0.00000000000E+00  0.60083529934E+03  0.60083529934E+03  0.00000000000E+00 0.  1.
         21   -1    0    0  501  503 -0.00000000000E+00 -0.00000000000E+00 -0.34452970411E+03  0.34452970411E+03  0.00000000000E+00 0.  1.
    9000007    1    1    2  501    0 -0.21369620649E+03  0.12213677067E+02  0.92308621352E+02  0.46296449556E+03  0.40000000000E+03 0.  1.
   -9000007    1    1    2    0  502  0.21369620649E+03 -0.12213677067E+02  0.16399697388E+03  0.48240050789E+03  0.40000000000E+03 0.  1.
<mgrwt>
<rscale>  2 0.45366865E+03</rscale>
<asrwt>0</asrwt>
<pdfrwt beam="1">  1       21 0.92436200E-01 0.45366865E+03</pdfrwt>
<pdfrwt beam="2">  1       21 0.53004570E-01 0.45366865E+03</pdfrwt>
<totfact> 0.28912285E+03</totfact>
</mgrwt>
</event>
<event>
 4    1  0.4732450E-002  0.4754385E+03  0.7818608E-02  0.1020396E+00
         21   -1    0    0  503  502  0.00000000000E+00  0.00000000000E+00  0.32473234518E+03  0.32473234518E+03  0.00000000000E+00 0.  1.
         21   -1    0    0  501  503 -0.00000000000E+00 -0.00000000000E+00 -0.77538680378E+03  0.77538680378E+03  0.00000000000E+00 0. -1.
    9000007    1    1    2  501    0 -0.25194118896E+03  0.50669835648E+02 -0.40123620808E+03  0.62211919245E+03  0.40000000000E+03 0. -1.
   -9000007    1    1    2    0  502  0.25194118896E+03 -0.50669835648E+02 -0.49418250521E+02  0.47799995651E+03  0.40000000000E+03 0.  1.
<mgrwt>
<rscale>  2 0.47543853E+03</rscale>
<asrwt>0</asrwt>
<pdfrwt beam="1">  1       21 0.49958823E-01 0.47543853E+03</pdfrwt>
<pdfrwt beam="2">  1       21 0.11929028E+00 0.47543853E+03</pdfrwt>
<totfact> 0.17391677E+03</totfact>
</mgrwt>
</event>
<event>
 4    1  0.4732450E-002  0.5472248E+03  0.7818608E-02  0.1002138E+00
         21   -1    0    0  501  502  0.00000000000E+00  0.00000000000E+00  0.13702213776E+04  0.13702213776E+04  0.00000000000E+00 0. -1.
         21   -1    0    0  502  503 -0.00000000000E+00 -0.00000000000E+00 -0.39728075357E+03  0.39728075357E+03  0.00000000000E+00 0.  1.
    9000007    1    1    2  501    0  0.35128324332E+03  0.12670856770E+03  0.10792413168E+04  0.12100482627E+04  0.40000000000E+03 0. -1.
   -9000007    1    1    2    0  503 -0.35128324332E+03 -0.12670856770E+03 -0.10630069279E+03  0.55745386845E+03  0.40000000000E+03 0.  1.
<mgrwt>
<rscale>  2 0.54722480E+03</rscale>
<asrwt>0</asrwt>
<pdfrwt beam="1">  1       21 0.21080329E+00 0.54722480E+03</pdfrwt>
<pdfrwt beam="2">  1       21 0.61120117E-01 0.54722480E+03</pdfrwt>
<totfact> 0.22028512E+02</totfact>
</mgrwt>
</event>
<event>
 4    1  0.4732450E-002  0.5060775E+03  0.7818608E-02  0.1012205E+00
         21   -1    0    0  503  502  0.00000000000E+00  0.00000000000E+00  0.62998879459E+03  0.62998879459E+03  0.00000000000E+00 0.  1.
         21   -1    0    0  501  503 -0.00000000000E+00 -0.00000000000E+00 -0.41791660253E+03  0.41791660253E+03  0.00000000000E+00 0. -1.
    9000007    1    1    2  501    0  0.29280264917E+03  0.10188749687E+03  0.19581188906E+02  0.50645619390E+03  0.40000000000E+03 0.  1.
   -9000007    1    1    2    0  502 -0.29280264917E+03 -0.10188749687E+03  0.19249100316E+03  0.54144920323E+03  0.40000000000E+03 0. -1.
<mgrwt>
<rscale>  2 0.50607752E+03</rscale>
<asrwt>0</asrwt>
<pdfrwt beam="1">  1       21 0.96921353E-01 0.50607752E+03</pdfrwt>
<pdfrwt beam="2">  1       21 0.64294862E-01 0.50607752E+03</pdfrwt>
<totfact> 0.16618281E+03</totfact>
</mgrwt>
</event>
<event>
 4    1  0.4732450E-002  0.5427665E+03  0.7818608E-02  0.1003182E+00
         21   -1    0    0  503  502  0.00000000000E+00  0.00000000000E+00  0.57564274784E+03  0.57564274784E+03  0.00000000000E+00 0. -1.
         21   -1    0    0  501  503 -0.00000000000E+00 -0.00000000000E+00 -0.56926355666E+03  0.56926355666E+03  0.00000000000E+00 0. -1.
    9000007    1    1    2  501    0  0.13547616024E+03 -0.34094242566E+03 -0.17873879117E+03  0.57143948331E+03  0.40000000000E+03 0. -1.
   -9000007    1    1    2    0  502 -0.13547616024E+03  0.34094242566E+03  0.18511798236E+03  0.57346682119E+03  0.40000000000E+03 0. -1.
<mgrwt>
<rscale>  2 0.54276655E+03</rscale>
<asrwt>0</asrwt>
<pdfrwt beam="1">  1       21 0.88560423E-01 0.54276655E+03</pdfrwt>
<pdfrwt beam="2">  1       21 0.87579008E-01 0.54276655E+03</pdfrwt>
<totfact> 0.10033242E+03</totfact>
</mgrwt>
</event>
<event>
 4    1  0.4732450E-002  0.4271312E+03  0.7818608E-02  0.1034770E+00
         21   -1    0    0  503  502  0.00000000000E+00  0.00000000000E+00  0.63936743768E+03  0.63936743768E+03  0.00000000000E+00 0. -1.
         21   -1    0    0  501  503 -0.00000000000E+00 -0.00000000000E+00 -0.29051103387E+03  0.29051103387E+03  0.00000000000E+00 0. -1.
    9000007    1    1    2  501    0 -0.61021492731E+02  0.13681162172E+03  0.23642150709E+03  0.48819685725E+03  0.40000000000E+03 0. -1.
   -9000007    1    1    2    0  502  0.61021492731E+02 -0.13681162172E+03  0.11243489672E+03  0.44168161430E+03  0.40000000000E+03 0. -1.
<mgrwt>
<rscale>  2 0.42713118E+03</rscale>
<asrwt>0</asrwt>
<pdfrwt beam="1">  1       21 0.98364221E-01 0.42713118E+03</pdfrwt>
<pdfrwt beam="2">  1       21 0.44694005E-01 0.42713118E+03</pdfrwt>
<totfact> 0.36089512E+03</totfact>
</mgrwt>
</event>
<event>
 4    1  0.4732450E-002  0.4701503E+03  0.7818608E-02  0.1021878E+00
         21   -1    0    0  501  502  0.00000000000E+00  0.00000000000E+00  0.11762716540E+04  0.11762716540E+04  0.00000000000E+00 0.  1.
         21   -1    0    0  502  503 -0.00000000000E+00 -0.00000000000E+00 -0.34465982534E+03  0.34465982534E+03  0.00000000000E+00 0. -1.
    9000007    1    1    2  501    0 -0.12325357166E+03 -0.21412587036E+03  0.92864165587E+03  0.10408730260E+04  0.40000000000E+03 0.  1.
   -9000007    1    1    2    0  503  0.12325357166E+03  0.21412587036E+03 -0.97029827171E+02  0.48005845336E+03  0.40000000000E+03 0. -1.
<mgrwt>
<rscale>  2 0.47015033E+03</rscale>
<asrwt>0</asrwt>
<pdfrwt beam="1">  1       21 0.18096487E+00 0.47015033E+03</pdfrwt>
<pdfrwt beam="2">  1       21 0.53024589E-01 0.47015033E+03</pdfrwt>
<totfact> 0.49497749E+02</totfact>
</mgrwt>
</event>
<event>
 4    1  0.4732450E-002  0.4100875E+03  0.7818608E-02  0.1040342E+00
         21   -1    0    0  501  502  0.00000000000E+00  0.00000000000E+00  0.57101543610E+03  0.57101543610E+03  0.00000000000E+00 0. -1.
         21   -1    0    0  502  503 -0.00000000000E+00 -0.00000000000E+00 -0.53059811600E+03  0.53059811600E+03  0.00000000000E+00 0.  1.
    9000007    1    1    2  501    0  0.23464495646E+02 -0.87299150122E+02  0.38761810429E+03  0.56428673469E+03  0.40000000000E+03 0. -1.
   -9000007    1    1    2    0  503 -0.23464495646E+02  0.87299150122E+02 -0.34720078419E+03  0.53732681741E+03  0.40000000000E+03 0.  1.
<mgrwt>
<rscale>  2 0.41008746E+03</rscale>
<asrwt>0</asrwt>
<pdfrwt beam="1">  1       21 0.87848528E-01 0.41008746E+03</pdfrwt>
<pdfrwt beam="2">  1       21 0.81630480E-01 0.41008746E+03</pdfrwt>
<totfact> 0.12684628E+03</totfact>
</mgrwt>
</event>
<event>
 4    1  0.4732450E-002  0.5958647E+03  0.7818608E-02  0.9914023E-01
         21   -1    0    0  501  502  0.00000000000E+00  0.00000000000E+00  0.58311829624E+03  0.58311829624E+03  0.00000000000E+00 0.  1.
         21   -1    0    0  502  503 -0.00000000000E+00 -0.00000000000E+00 -0.63719393049E+03  0.63719393049E+03  0.00000000000E+00 0. -1.
    9000007    1    1    2  501    0 -0.37205266875E+03  0.23797382576E+03 -0.15563479252E+03  0.61585462466E+03  0.40000000000E+03 0.  1.
   -9000007    1    1    2    0  503  0.37205266875E+03 -0.23797382576E+03  0.10155915828E+03  0.60445760207E+03  0.40000000000E+03 0. -1.
<mgrwt>
<rscale>  2 0.59586469E+03</rscale>
<asrwt>0</asrwt>
<pdfrwt beam="1">  1       21 0.89710508E-01 0.59586469E+03</pdfrwt>
<pdfrwt beam="2">  1       21 0.98029835E-01 0.59586469E+03</pdfrwt>
<totfact> 0.72969737E+02</totfact>
</mgrwt>
</event>
<event>
 4    1  0.4732450E-002  0.4002894E+03  0.7818608E-02  0.1043680E+00
         21   -1    0    0  503  502  0.00000000000E+00  0.00000000000E+00  0.89609452710E+03  0.89609452710E+03  0.00000000000E+00 0. -1.
         21   -1    0    0  501  503 -0.00000000000E+00 -0.00000000000E+00 -0.35389898548E+03  0.35389898548E+03  0.00000000000E+00 0. -1.
    9000007    1    1    2  501    0  0.10659253739E+02  0.10863168415E+02 -0.16851083044E+03  0.43431270773E+03  0.40000000000E+03 0. -1.
   -9000007    1    1    2    0  502 -0.10659253739E+02 -0.10863168415E+02  0.71070637206E+03  0.81568080486E+03  0.40000000000E+03 0. -1.
<mgrwt>
<rscale>  2 0.40028943E+03</rscale>
<asrwt>0</asrwt>
<pdfrwt beam="1">  1       21 0.13786070E+00 0.40028943E+03</pdfrwt>
<pdfrwt beam="2">  1       21 0.54445998E-01 0.40028943E+03</pdfrwt>
<totfact> 0.10271951E+03</totfact>
</mgrwt>
</event>
<event>
 4    1  0.4732450E-002  0.6308647E+03  0.7818608E-02  0.9843363E-01
         21   -1    0    0  501  502  0.00000000000E+00  0.00000000000E+00  0.35081346532E+03  0.35081346532E+03  0.00000000000E+00 0. -1.
         21   -1    0    0  502  503 -0.00000000000E+00 -0.00000000000E+00 -0.13344747730E+04  0.13344747730E+04  0.00000000000E+00 0.  1.
    9000007    1    1    2  501    0 -0.43067498193E+03  0.22914926126E+03 -0.16561860943E+03  0.65224216958E+03  0.40000000000E+03 0. -1.
   -9000007    1    1    2    0  503  0.43067498193E+03 -0.22914926126E+03 -0.81804269829E+03  0.10330460688E+04  0.40000000000E+03 0.  1.
<mgrwt>
<rscale>  2 0.63086474E+03</rscale>
<asrwt>0</asrwt>
<pdfrwt beam="1">  1       21 0.53971302E-01 0.63086474E+03</pdfrwt>
<pdfrwt beam="2">  1       21 0.20530381E+00 0.63086474E+03</pdfrwt>
<totfact> 0.30423593E+02</totfact>
</mgrwt>
</event>
<event>
 4    1  0.4732450E-002  0.4426851E+03  0.7818608E-02  0.1029926E+00
         21   -1    0    0  501  502  0.00000000000E+00  0.00000000000E+00  0.78703076339E+03  0.78703076339E+03  0.00000000000E+00 0.  1.
         21   -1    0    0  502  503 -0.00000000000E+00 -0.00000000000E+00 -0.33517795784E+03  0.33517795784E+03  0.00000000000E+00 0.  1.
    9000007    1    1    2  501    0  0.18614551940E+03  0.36331497156E+02  0.51044175673E+03  0.67566331785E+03  0.40000000000E+03 0.  1.
   -9000007    1    1    2    0  503 -0.18614551940E+03 -0.36331497156E+02 -0.58588951173E+02  0.44654540338E+03  0.40000000000E+03 0.  1.
<mgrwt>
<rscale>  2 0.44268514E+03</rscale>
<asrwt>0</asrwt>
<pdfrwt beam="1">  1       21 0.12108166E+00 0.44268514E+03</pdfrwt>
<pdfrwt beam="2">  1       21 0.51565840E-01 0.44268514E+03</pdfrwt>
<totfact> 0.15848670E+03</totfact>
</mgrwt>
</event>
<event>
 4    1  0.4732450E-002  0.4055696E+03  0.7818608E-02  0.1041868E+00
         21   -1    0    0  501  502  0.00000000000E+00  0.00000000000E+00  0.81755975347E+03  0.81755975347E+03  0.00000000000E+00 0.  1.
         21   -1    0    0  502  503 -0.00000000000E+00 -0.00000000000E+00 -0.20273391682E+03  0.20273391682E+03  0.00000000000E+00 0.  1.
    9000007    1    1    2  501    0 -0.66028586479E+02 -0.11267486501E+02  0.26292729879E+03  0.48333993724E+03  0.40000000000E+03 0.  1.
   -9000007    1    1    2    0  503  0.66028586479E+02  0.11267486501E+02  0.35189853786E+03  0.53695373304E+03  0.40000000000E+03 0.  1.
<mgrwt>
<rscale>  2 0.40556964E+03</rscale>
<asrwt>0</asrwt>
<pdfrwt beam="1">  1       21 0.12577842E+00 0.40556964E+03</pdfrwt>
<pdfrwt beam="2">  1       21 0.31189834E-01 0.40556964E+03</pdfrwt>
<totfact> 0.41102684E+03</totfact>
</mgrwt>
</event>
<event>
 4    1  0.4732450E-002  0.4894884E+03  0.7818608E-02  0.1016560E+00
         21   -1    0    0  503  502  0.00000000000E+00  0.00000000000E+00  0.52868979800E+03  0.52868979800E+03  0.00000000000E+00 0.  1.
         21   -1    0    0  501  503 -0.00000000000E+00 -0.00000000000E+00 -0.10054421993E+04  0.10054421993E+04  0.00000000000E+00 0. -1.
    9000007    1    1    2  501    0  0.96580358721E+02 -0.26508696693E+03 -0.80686441432E+03  0.94373144953E+03  0.40000000000E+03 0. -1.
   -9000007    1    1    2    0  502 -0.96580358721E+02  0.26508696693E+03  0.33011201299E+03  0.59040054780E+03  0.40000000000E+03 0.  1.
<mgrwt>
<rscale>  2 0.48948837E+03</rscale>
<asrwt>0</asrwt>
<pdfrwt beam="1">  1       21 0.81336893E-01 0.48948837E+03</pdfrwt>
<pdfrwt beam="2">  1       21 0.15468341E+00 0.48948837E+03</pdfrwt>
<totfact> 0.29496832E+02</totfact>
</mgrwt>
</event>
<event>
 4    1  0.4732450E-002  0.6863361E+03  0.7818608E-02  0.9740889E-01
         21   -1    0    0  503  502  0.00000000000E+00  0.00000000000E+00  0.75185667668E+03  0.75185667668E+03  0.00000000000E+00 0.  1.
         21   -1    0    0  501  503 -0.00000000000E+00 -0.00000000000E+00 -0.14801482067E+04  0.14801482067E+04  0.00000000000E+00 0.  1.
    9000007    1    1    2  501    0 -0.15351064529E+03  0.53618258905E+03 -0.12116571757E+04  0.13925409863E+04  0.40000000000E+03 0.  1.
   -9000007    1    1    2    0  502  0.15351064529E+03 -0.53618258905E+03  0.48336564572E+03  0.83946389707E+03  0.40000000000E+03 0.  1.
<mgrwt>
<rscale>  2 0.68633613E+03</rscale>
<asrwt>0</asrwt>
<pdfrwt beam="1">  1       21 0.11567026E+00 0.68633613E+03</pdfrwt>
<pdfrwt beam="2">  1       21 0.22771511E+00 0.68633613E+03</pdfrwt>
<totfact> 0.35804688E+01</totfact>
</mgrwt>
</event>
<event>
 4    1  0.4732450E-002  0.4517149E+03  0.7818608E-02  0.1027212E+00
         21   -1    0    0  501  502  0.00000000000E+00  0.00000000000E+00  0.18460732549E+04  0.18460732549E+04  0.00000000000E+00 0.  1.
         21   -1    0    0  502  503 -0.00000000000E+00 -0.00000000000E+00 -0.42835792943E+03  0.42835792943E+03  0.00000000000E+00 0.  1.
    9000007    1    1    2  501    0 -0.16218521910E+03 -0.13320008063E+03  0.16884276998E+04  0.17478084575E+04  0.40000000000E+03 0.  1.
   -9000007    1    1    2    0  503  0.16218521910E+03  0.13320008063E+03 -0.27071237433E+03  0.52662272681E+03  0.40000000000E+03 0.  1.
<mgrwt>
<rscale>  2 0.45171485E+03</rscale>
<asrwt>0</asrwt>
<pdfrwt beam="1">  1       21 0.28401127E+00 0.45171485E+03</pdfrwt>
<pdfrwt beam="2">  1       21 0.65901221E-01 0.45171485E+03</pdfrwt>
<totfact> 0.68725205E+01</totfact>
</mgrwt>
</event>
<event>
 4    1  0.4732450E-002  0.4411258E+03  0.7818608E-02  0.1030402E+00
         21   -1    0    0  501  502  0.00000000000E+00  0.00000000000E+00  0.20562714154E+03  0.20562714154E+03  0.00000000000E+00 0. -1.
         21   -1    0    0  502  503 -0.00000000000E+00 -0.00000000000E+00 -0.12049963449E+04  0.12049963449E+04  0.00000000000E+00 0.  1.
    9000007    1    1    2  501    0  0.36962583491E+02 -0.18227930418E+03 -0.17290513055E+03  0.47380181667E+03  0.40000000000E+03 0. -1.
   -9000007    1    1    2    0  503 -0.36962583491E+02  0.18227930418E+03 -0.82646407283E+03  0.93682166979E+03  0.40000000000E+03 0. -1.
<mgrwt>
<rscale>  2 0.44112581E+03</rscale>
<asrwt>0</asrwt>
<pdfrwt beam="1">  1       21 0.31634945E-01 0.44112581E+03</pdfrwt>
<pdfrwt beam="2">  1       21 0.18538405E+00 0.44112581E+03</pdfrwt>
<totfact> 0.13601826E+03</totfact>
</mgrwt>
</event>
<event>
 4    1  0.4732450E-002  0.4191571E+03  0.7818608E-02  0.1037341E+00
         21   -1    0    0  501  502  0.00000000000E+00  0.00000000000E+00  0.13991599680E+03  0.13991599680E+03  0.00000000000E+00 0. -1.
         21   -1    0    0  502  503 -0.00000000000E+00 -0.00000000000E+00 -0.14602513204E+04  0.14602513204E+04  0.00000000000E+00 0. -1.
    9000007    1    1    2  501    0 -0.90211322024E+02 -0.86917352253E+02 -0.36071975158E+03  0.55300221331E+03  0.40000000000E+03 0.  1.
   -9000007    1    1    2    0  503  0.90211322024E+02  0.86917352253E+02 -0.95961557200E+03  0.10471651039E+04  0.40000000000E+03 0.  1.
<mgrwt>
<rscale>  2 0.41915714E+03</rscale>
<asrwt>0</asrwt>
<pdfrwt beam="1">  1       21 0.21525539E-01 0.41915714E+03</pdfrwt>
<pdfrwt beam="2">  1       21 0.22465404E+00 0.41915714E+03</pdfrwt>
<totfact> 0.16064114E+03</totfact>
</mgrwt>
</event>
<event>
 4    1  0.4732450E-002  0.4157135E+03  0.7818608E-02  0.1038470E+00
         21   -1    0    0  501  502  0.00000000000E+00  0.00000000000E+00  0.43304622442E+03  0.43304622442E+03  0.00000000000E+00 0.  1.
         21   -1    0    0  502  503 -0.00000000000E+00 -0.00000000000E+00 -0.40108735228E+03  0.40108735228E+03  0.00000000000E+00 0.  1.
    9000007    1    1    2  501    0 -0.10865876508E+03  0.31796176876E+02  0.45524670484E+02  0.41819878015E+03  0.40000000000E+03 0.  1.
   -9000007    1    1    2    0  503  0.10865876508E+03 -0.31796176876E+02 -0.13565798344E+02  0.41593479655E+03  0.40000000000E+03 0.  1.
<mgrwt>
<rscale>  2 0.41571351E+03</rscale>
<asrwt>0</asrwt>
<pdfrwt beam="1">  1       21 0.66622496E-01 0.41571351E+03</pdfrwt>
<pdfrwt beam="2">  1       21 0.61705746E-01 0.41571351E+03</pdfrwt>
<totfact> 0.44762894E+03</totfact>
</mgrwt>
</event>
<event>
 4    1  0.4732450E-002  0.6251090E+03  0.7818608E-02  0.9854640E-01
         21   -1    0    0  501  502  0.00000000000E+00  0.00000000000E+00  0.86274699230E+03  0.86274699230E+03  0.00000000000E+00 0.  1.
         21   -1    0    0  502  503 -0.00000000000E+00 -0.00000000000E+00 -0.49412938852E+03  0.49412938852E+03  0.00000000000E+00 0. -1.
    9000007    1    1    2  501    0 -0.10624250071E+03 -0.46848024277E+03  0.38021688898E+03  0.73165981815E+03  0.40000000000E+03 0. -1.
   -9000007    1    1    2    0  503  0.10624250071E+03  0.46848024277E+03 -0.11599285200E+02  0.62521656268E+03  0.40000000000E+03 0.  1.
<mgrwt>
<rscale>  2 0.62510896E+03</rscale>
<asrwt>0</asrwt>
<pdfrwt beam="1">  1       21 0.13273031E+00 0.62510896E+03</pdfrwt>
<pdfrwt beam="2">  1       21 0.76019906E-01 0.62510896E+03</pdfrwt>
<totfact> 0.49498679E+02</totfact>
</mgrwt>
</event>
<event>
 4    1  0.4732450E-002  0.4008642E+03  0.7818608E-02  0.1043481E+00
         21   -1    0    0  501  502  0.00000000000E+00  0.00000000000E+00  0.66015632198E+03  0.66015632198E+03  0.00000000000E+00 0. -1.
         21   -1    0    0  502  503 -0.00000000000E+00 -0.00000000000E+00 -0.24485511078E+03  0.24485511078E+03  0.00000000000E+00 0. -1.
    9000007    1    1    2  501    0 -0.61949168053E+01 -0.25567758793E+02  0.24235115329E+03  0.46842947045E+03  0.40000000000E+03 0. -1.
   -9000007    1    1    2    0  503  0.61949168053E+01  0.25567758793E+02  0.17295005791E+03  0.43658196231E+03  0.40000000000E+03 0. -1.
<mgrwt>
<rscale>  2 0.40086418E+03</rscale>
<asrwt>0</asrwt>
<pdfrwt beam="1">  1       21 0.10156251E+00 0.40086418E+03</pdfrwt>
<pdfrwt beam="2">  1       21 0.37670017E-01 0.40086418E+03</pdfrwt>
<totfact> 0.47995242E+03</totfact>
</mgrwt>
</event>
<event>
 4    1  0.4732450E-002  0.5249292E+03  0.7818608E-02  0.1007469E+00
         21   -1    0    0  501  502  0.00000000000E+00  0.00000000000E+00  0.38143774915E+03  0.38143774915E+03  0.00000000000E+00 0. -1.
         21   -1    0    0  502  503 -0.00000000000E+00 -0.00000000000E+00 -0.77366078325E+03  0.77366078325E+03  0.00000000000E+00 0.  1.
    9000007    1    1    2  501    0  0.22426590852E+03 -0.25545144976E+03 -0.47447370350E+02  0.52706915473E+03  0.40000000000E+03 0. -1.
   -9000007    1    1    2    0  503 -0.22426590852E+03  0.25545144976E+03 -0.34477566374E+03  0.62802937767E+03  0.40000000000E+03 0.  1.
<mgrwt>
<rscale>  2 0.52492918E+03</rscale>
<asrwt>0</asrwt>
<pdfrwt beam="1">  1       21 0.58682731E-01 0.52492918E+03</pdfrwt>
<pdfrwt beam="2">  1       21 0.11902473E+00 0.52492918E+03</pdfrwt>
<totfact> 0.12141418E+03</totfact>
</mgrwt>
</event>
<event>
 4    1  0.4732450E-002  0.5495678E+03  0.7818608E-02  0.1001594E+00
         21   -1    0    0  503  502  0.00000000000E+00  0.00000000000E+00  0.14826766295E+03  0.14826766295E+03  0.00000000000E+00 0.  1.
         21   -1    0    0  501  503 -0.00000000000E+00 -0.00000000000E+00 -0.20465989474E+04  0.20465989474E+04  0.00000000000E+00 0. -1.
    9000007    1    1    2  501    0  0.36499544786E+03 -0.93824531194E+02 -0.10242311452E+04  0.11623571562E+04  0.40000000000E+03 0.  1.
   -9000007    1    1    2    0  502 -0.36499544786E+03  0.93824531194E+02 -0.87410013917E+03  0.10325094542E+04  0.40000000000E+03 0. -1.
<mgrwt>
<rscale>  2 0.54956776E+03</rscale>
<asrwt>0</asrwt>
<pdfrwt beam="1">  1       21 0.22810411E-01 0.54956776E+03</pdfrwt>
<pdfrwt beam="2">  1       21 0.31486135E+00 0.54956776E+03</pdfrwt>
<totfact> 0.37865280E+02</totfact>
</mgrwt>
</event>
<event>
 4    1  0.4732450E-002  0.4832465E+03  0.7818608E-02  0.1018247E+00
         21   -1    0    0  503  502  0.00000000000E+00  0.00000000000E+00  0.45777939439E+03  0.45777939439E+03  0.00000000000E+00 0.  1.
         21   -1    0    0  501  503 -0.00000000000E+00 -0.00000000000E+00 -0.11404465029E+04  0.11404465029E+04  0.00000000000E+00 0.  1.
    9000007    1    1    2  501    0  0.23929960568E+03  0.12752607931E+03 -0.93542034710E+03  0.10528715154E+04  0.40000000000E+03 0.  1.
   -9000007    1    1    2    0  502 -0.23929960568E+03 -0.12752607931E+03  0.25275323861E+03  0.54535438186E+03  0.40000000000E+03 0.  1.
<mgrwt>
<rscale>  2 0.48324652E+03</rscale>
<asrwt>0</asrwt>
<pdfrwt beam="1">  1       21 0.70427600E-01 0.48324652E+03</pdfrwt>
<pdfrwt beam="2">  1       21 0.17545330E+00 0.48324652E+03</pdfrwt>
<totfact> 0.28819952E+02</totfact>
</mgrwt>
</event>
<event>
 4    1  0.4732450E-002  0.4141895E+03  0.7818608E-02  0.1038974E+00
         21   -1    0    0  501  502  0.00000000000E+00  0.00000000000E+00  0.44063521060E+03  0.44063521060E+03  0.00000000000E+00 0. -1.
         21   -1    0    0  502  503 -0.00000000000E+00 -0.00000000000E+00 -0.93911642859E+03  0.93911642859E+03  0.00000000000E+00 0.  1.
    9000007    1    1    2  501    0  0.59921099042E+02 -0.89232096539E+02  0.27860614389E+03  0.49917360565E+03  0.40000000000E+03 0. -1.
   -9000007    1    1    2    0  503 -0.59921099042E+02  0.89232096539E+02 -0.77708736188E+03  0.88057803354E+03  0.40000000000E+03 0.  1.
<mgrwt>
<rscale>  2 0.41418946E+03</rscale>
<asrwt>0</asrwt>
<pdfrwt beam="1">  1       21 0.67790032E-01 0.41418946E+03</pdfrwt>
<pdfrwt beam="2">  1       21 0.14447945E+00 0.41418946E+03</pdfrwt>
<totfact> 0.55702697E+02</totfact>
</mgrwt>
</event>
<event>
 4    1  0.4732450E-002  0.4197859E+03  0.7818608E-02  0.1037136E+00
         21   -1    0    0  503  502  0.00000000000E+00  0.00000000000E+00  0.31639518598E+03  0.31639518598E+03  0.00000000000E+00 0. -1.
         21   -1    0    0  501  503 -0.00000000000E+00 -0.00000000000E+00 -0.57633329885E+03  0.57633329885E+03  0.00000000000E+00 0. -1.
    9000007    1    1    2  501    0  0.91613138996E+02  0.88471694113E+02 -0.21180195445E+03  0.47019174366E+03  0.40000000000E+03 0. -1.
   -9000007    1    1    2    0  502 -0.91613138996E+02 -0.88471694113E+02 -0.48136158416E+02  0.42253674118E+03  0.40000000000E+03 0. -1.
<mgrwt>
<rscale>  2 0.41978591E+03</rscale>
<asrwt>0</asrwt>
<pdfrwt beam="1">  1       21 0.48676182E-01 0.41978591E+03</pdfrwt>
<pdfrwt beam="2">  1       21 0.88666661E-01 0.41978591E+03</pdfrwt>
<totfact> 0.38732542E+03</totfact>
</mgrwt>
</event>
<event>
 4    1  0.4732450E-002  0.4141160E+03  0.7818608E-02  0.1038999E+00
         21   -1    0    0  503  502  0.00000000000E+00  0.00000000000E+00  0.91841146193E+03  0.91841146193E+03  0.00000000000E+00 0.  1.
         21   -1    0    0  501  503 -0.00000000000E+00 -0.00000000000E+00 -0.24033381346E+03  0.24033381346E+03  0.00000000000E+00 0.  1.
    9000007    1    1    2  501    0 -0.10707104643E+03 -0.52798379361E+01  0.65410457902E+02  0.41925006103E+03  0.40000000000E+03 0.  1.
   -9000007    1    1    2    0  502  0.10707104643E+03  0.52798379361E+01  0.61266719056E+03  0.73949521436E+03  0.40000000000E+03 0.  1.
<mgrwt>
<rscale>  2 0.41411603E+03</rscale>
<asrwt>0</asrwt>
<pdfrwt beam="1">  1       21 0.14129407E+00 0.41411603E+03</pdfrwt>
<pdfrwt beam="2">  1       21 0.36974433E-01 0.41411603E+03</pdfrwt>
<totfact> 0.21472454E+03</totfact>
</mgrwt>
</event>
<event>
 4    1  0.4732450E-002  0.4536023E+03  0.7818608E-02  0.1026653E+00
         21   -1    0    0  503  502  0.00000000000E+00  0.00000000000E+00  0.57505826138E+03  0.57505826138E+03  0.00000000000E+00 0.  1.
         21   -1    0    0  501  503 -0.00000000000E+00 -0.00000000000E+00 -0.41927631520E+03  0.41927631520E+03  0.00000000000E+00 0.  1.
    9000007    1    1    2  501    0  0.84521405129E+02 -0.19649720559E+03 -0.11248466415E+03  0.46734122373E+03  0.40000000000E+03 0.  1.
   -9000007    1    1    2    0  502 -0.84521405129E+02  0.19649720559E+03  0.26826661033E+03  0.52699335285E+03  0.40000000000E+03 0.  1.
<mgrwt>
<rscale>  2 0.45360227E+03</rscale>
<asrwt>0</asrwt>
<pdfrwt beam="1">  1       21 0.88470501E-01 0.45360227E+03</pdfrwt>
<pdfrwt beam="2">  1       21 0.64504049E-01 0.45360227E+03</pdfrwt>
<totfact> 0.20900192E+03</totfact>
</mgrwt>
</event>
<event>
 4    1  0.4732450E-002  0.5321070E+03  0.7818608E-02  0.1005722E+00
         21   -1    0    0  501  502  0.00000000000E+00  0.00000000000E+00  0.33682354250E+03  0.33682354250E+03  0.00000000000E+00 0. -1.
         21   -1    0    0  502  503 -0.00000000000E+00 -0.00000000000E+00 -0.86574947661E+03  0.86574947661E+03  0.00000000000E+00 0.  1.
    9000007    1    1    2  501    0 -0.34243654690E+03 -0.76648910281E+02 -0.16200448556E+03  0.55622234533E+03  0.40000000000E+03 0. -1.
   -9000007    1    1    2    0  503  0.34243654690E+03  0.76648910281E+02 -0.36692144855E+03  0.64635067378E+03  0.40000000000E+03 0. -1.
<mgrwt>
<rscale>  2 0.53210699E+03</rscale>
<asrwt>0</asrwt>
<pdfrwt beam="1">  1       21 0.51819008E-01 0.53210699E+03</pdfrwt>
<pdfrwt beam="2">  1       21 0.13319222E+00 0.53210699E+03</pdfrwt>
<totfact> 0.11854786E+03</totfact>
</mgrwt>
</event>
<event>
 4    1  0.4732450E-002  0.4050421E+03  0.7818608E-02  0.1042048E+00
         21   -1    0    0  501  502  0.00000000000E+00  0.00000000000E+00  0.61976013818E+03  0.61976013818E+03  0.00000000000E+00 0. -1.
         21   -1    0    0  502  503 -0.00000000000E+00 -0.00000000000E+00 -0.26490527812E+03  0.26490527812E+03  0.00000000000E+00 0. -1.
    9000007    1    1    2  501    0  0.62865960651E+02 -0.10343926863E+02  0.16553843490E+03  0.43756382307E+03  0.40000000000E+03 0.  1.
   -9000007    1    1    2    0  503 -0.62865960651E+02  0.10343926863E+02  0.18931642517E+03  0.44710159323E+03  0.40000000000E+03 0.  1.
<mgrwt>
<rscale>  2 0.40504213E+03</rscale>
<asrwt>0</asrwt>
<pdfrwt beam="1">  1       21 0.95347713E-01 0.40504213E+03</pdfrwt>
<pdfrwt beam="2">  1       21 0.40754658E-01 0.40504213E+03</pdfrwt>
<totfact> 0.47490514E+03</totfact>
</mgrwt>
</event>
<event>
 4    1  0.4732450E-002  0.4243051E+03  0.7818608E-02  0.1035674E+00
         21   -1    0    0  503  502  0.00000000000E+00  0.00000000000E+00  0.35727290403E+03  0.35727290403E+03  0.00000000000E+00 0. -1.
         21   -1    0    0  501  503 -0.00000000000E+00 -0.00000000000E+00 -0.10124228066E+04  0.10124228066E+04  0.00000000000E+00 0. -1.
    9000007    1    1    2  501    0 -0.50756675491E+02 -0.13213084806E+03 -0.81293318320E+03  0.91700335957E+03  0.40000000000E+03 0. -1.
   -9000007    1    1    2    0  502  0.50756675491E+02  0.13213084806E+03  0.15778328058E+03  0.45269235110E+03  0.40000000000E+03 0. -1.
<mgrwt>
<rscale>  2 0.42430508E+03</rscale>
<asrwt>0</asrwt>
<pdfrwt beam="1">  1       21 0.54965063E-01 0.42430508E+03</pdfrwt>
<pdfrwt beam="2">  1       21 0.15575735E+00 0.42430508E+03</pdfrwt>
<totfact> 0.71647672E+02</totfact>
</mgrwt>
</event>
<event>
 4    1  0.4732450E-002  0.4606565E+03  0.7818608E-02  0.1024591E+00
         21   -1    0    0  501  502  0.00000000000E+00  0.00000000000E+00  0.55674609548E+03  0.55674609548E+03  0.00000000000E+00 0. -1.
         21   -1    0    0  502  503 -0.00000000000E+00 -0.00000000000E+00 -0.41720930191E+03  0.41720930191E+03  0.00000000000E+00 0. -1.
    9000007    1    1    2  501    0 -0.21909748039E+03 -0.64812955418E+02  0.21293235574E+03  0.50748853507E+03  0.40000000000E+03 0. -1.
   -9000007    1    1    2    0  503  0.21909748039E+03  0.64812955418E+02 -0.73395562169E+02  0.46646686233E+03  0.40000000000E+03 0. -1.
<mgrwt>
<rscale>  2 0.46065652E+03</rscale>
<asrwt>0</asrwt>
<pdfrwt beam="1">  1       21 0.85653245E-01 0.46065652E+03</pdfrwt>
<pdfrwt beam="2">  1       21 0.64186047E-01 0.46065652E+03</pdfrwt>
<totfact> 0.22743554E+03</totfact>
</mgrwt>
</event>
<event>
 4    1  0.4732450E-002  0.7157626E+03  0.7818608E-02  0.9690649E-01
         21   -1    0    0  501  502  0.00000000000E+00  0.00000000000E+00  0.59300649881E+03  0.59300649881E+03  0.00000000000E+00 0.  1.
         21   -1    0    0  502  503 -0.00000000000E+00 -0.00000000000E+00 -0.87110035520E+03  0.87110035520E+03  0.00000000000E+00 0. -1.
    9000007    1    1    2  501    0 -0.54609848640E+03  0.23257815331E+03 -0.72630352850E+02  0.71943819915E+03  0.40000000000E+03 0.  1.
   -9000007    1    1    2    0  503  0.54609848640E+03 -0.23257815331E+03 -0.20546350354E+03  0.74466865486E+03  0.40000000000E+03 0.  1.
<mgrwt>
<rscale>  2 0.71576264E+03</rscale>
<asrwt>0</asrwt>
<pdfrwt beam="1">  1       21 0.91231769E-01 0.71576264E+03</pdfrwt>
<pdfrwt beam="2">  1       21 0.13401544E+00 0.71576264E+03</pdfrwt>
<totfact> 0.30560174E+02</totfact>
</mgrwt>
</event>
<event>
 4    1  0.4732450E-002  0.5174217E+03  0.7818608E-02  0.1009329E+00
         21   -1    0    0  501  502  0.00000000000E+00  0.00000000000E+00  0.96504909478E+03  0.96504909478E+03  0.00000000000E+00 0.  1.
         21   -1    0    0  502  503 -0.00000000000E+00 -0.00000000000E+00 -0.34220089048E+03  0.34220089048E+03  0.00000000000E+00 0.  1.
    9000007    1    1    2  501    0 -0.88432313616E+02 -0.31607745164E+03  0.59580930148E+03  0.78912226762E+03  0.40000000000E+03 0.  1.
   -9000007    1    1    2    0  503  0.88432313616E+02  0.31607745164E+03  0.27038902816E+02  0.51812771764E+03  0.40000000000E+03 0.  1.
<mgrwt>
<rscale>  2 0.51742171E+03</rscale>
<asrwt>0</asrwt>
<pdfrwt beam="1">  1       21 0.14846909E+00 0.51742171E+03</pdfrwt>
<pdfrwt beam="2">  1       21 0.52646291E-01 0.51742171E+03</pdfrwt>
<totfact> 0.86151695E+02</totfact>
</mgrwt>
</event>
<event>
 4    1  0.4732450E-002  0.5825644E+03  0.7818608E-02  0.9942254E-01
         21   -1    0    0  501  502  0.00000000000E+00  0.00000000000E+00  0.81921284661E+03  0.81921284661E+03  0.00000000000E+00 0.  1.
         21   -1    0    0  502  503 -0.00000000000E+00 -0.00000000000E+00 -0.42110501182E+03  0.42110501182E+03  0.00000000000E+00 0.  1.
    9000007    1    1    2  501    0  0.24094662813E+02 -0.42284838745E+03  0.27802069278E+03  0.64550508686E+03  0.40000000000E+03 0.  1.
   -9000007    1    1    2    0  503 -0.24094662813E+02  0.42284838745E+03  0.12008714202E+03  0.59481277157E+03  0.40000000000E+03 0.  1.
<mgrwt>
<rscale>  2 0.58256443E+03</rscale>
<asrwt>0</asrwt>
<pdfrwt beam="1">  1       21 0.12603275E+00 0.58256443E+03</pdfrwt>
<pdfrwt beam="2">  1       21 0.64785387E-01 0.58256443E+03</pdfrwt>
<totfact> 0.82574510E+02</totfact>
</mgrwt>
</event>
<event>
 4    1  0.4732450E-002  0.4810779E+03  0.7818608E-02  0.1018839E+00
         21   -1    0    0  501  502  0.00000000000E+00  0.00000000000E+00  0.59089659529E+03  0.59089659529E+03  0.00000000000E+00 0. -1.
         21   -1    0    0  502  503 -0.00000000000E+00 -0.00000000000E+00 -0.40608675629E+03  0.40608675629E+03  0.00000000000E+00 0. -1.
    9000007    1    1    2  501    0  0.90474528364E+02  0.25149611165E+03  0.18633310079E+03  0.51590305185E+03  0.40000000000E+03 0. -1.
   -9000007    1    1    2    0  503 -0.90474528364E+02 -0.25149611165E+03 -0.15232617975E+01  0.48108029973E+03  0.40000000000E+03 0. -1.
<mgrwt>
<rscale>  2 0.48107789E+03</rscale>
<asrwt>0</asrwt>
<pdfrwt beam="1">  1       21 0.90907168E-01 0.48107789E+03</pdfrwt>
<pdfrwt beam="2">  1       21 0.62474886E-01 0.48107789E+03</pdfrwt>
<totfact> 0.20827597E+03</totfact>
</mgrwt>
</event>
<event>
 4    1  0.4732450E-002  0.4373627E+03  0.7818608E-02  0.1031559E+00
         21   -1    0    0  503  502  0.00000000000E+00  0.00000000000E+00  0.16590274948E+03  0.16590274948E+03  0.00000000000E+00 0. -1.
         21   -1    0    0  501  503 -0.00000000000E+00 -0.00000000000E+00 -0.15160793154E+04  0.15160793154E+04  0.00000000000E+00 0.  1.
    9000007    1    1    2  501    0  0.87891763625E+02 -0.15349633784E+03 -0.10866456431E+04  0.11713602527E+04  0.40000000000E+03 0.  1.
   -9000007    1    1    2    0  502 -0.87891763625E+02  0.15349633784E+03 -0.26353092286E+03  0.51062181225E+03  0.40000000000E+03 0. -1.
<mgrwt>
<rscale>  2 0.43736265E+03</rscale>
<asrwt>0</asrwt>
<pdfrwt beam="1">  1       21 0.25523499E-01 0.43736265E+03</pdfrwt>
<pdfrwt beam="2">  1       21 0.23324298E+00 0.43736265E+03</pdfrwt>
<totfact> 0.10117723E+03</totfact>
</mgrwt>
</event>
<event>
 4    1  0.4732450E-002  0.8751314E+03  0.7818608E-02  0.9457214E-01
         21   -1    0    0  501  502  0.00000000000E+00  0.00000000000E+00  0.64637907465E+03  0.64637907465E+03  0.00000000000E+00 0.  1.
         21   -1    0    0  502  503 -0.00000000000E+00 -0.00000000000E+00 -0.12930443280E+04  0.12930443280E+04  0.00000000000E+00 0. -1.
    9000007    1    1    2  501    0  0.75299303020E+03  0.19712040221E+03 -0.42814576935E+02  0.87617808949E+03  0.40000000000E+03 0.  1.
   -9000007    1    1    2    0  503 -0.75299303020E+03 -0.19712040221E+03 -0.60385067637E+03  0.10632453131E+04  0.40000000000E+03 0. -1.
<mgrwt>
<rscale>  2 0.87513139E+03</rscale>
<asrwt>0</asrwt>
<pdfrwt beam="1">  1       21 0.99442935E-01 0.87513139E+03</pdfrwt>
<pdfrwt beam="2">  1       21 0.19892990E+00 0.87513139E+03</pdfrwt>
<totfact> 0.76108858E+01</totfact>
</mgrwt>
</event>
<event>
 4    1  0.4732450E-002  0.4476263E+03  0.7818608E-02  0.1028432E+00
         21   -1    0    0  501  502  0.00000000000E+00  0.00000000000E+00  0.36061270429E+03  0.36061270429E+03  0.00000000000E+00 0. -1.
         21   -1    0    0  502  503 -0.00000000000E+00 -0.00000000000E+00 -0.55768361864E+03  0.55768361864E+03  0.00000000000E+00 0. -1.
    9000007    1    1    2  501    0  0.13193728494E+03 -0.15153173951E+03 -0.12635875044E+03  0.46511917726E+03  0.40000000000E+03 0. -1.
   -9000007    1    1    2    0  503 -0.13193728494E+03  0.15153173951E+03 -0.70712163897E+02  0.45317714567E+03  0.40000000000E+03 0. -1.
<mgrwt>
<rscale>  2 0.44762631E+03</rscale>
<asrwt>0</asrwt>
<pdfrwt beam="1">  1       21 0.55478878E-01 0.44762631E+03</pdfrwt>
<pdfrwt beam="2">  1       21 0.85797480E-01 0.44762631E+03</pdfrwt>
<totfact> 0.31320526E+03</totfact>
</mgrwt>
</event>
<event>
 4    1  0.4732450E-002  0.4943206E+03  0.7818608E-02  0.1015272E+00
         21   -1    0    0  503  502  0.00000000000E+00  0.00000000000E+00  0.15172484828E+04  0.15172484828E+04  0.00000000000E+00 0.  1.
         21   -1    0    0  501  503 -0.00000000000E+00 -0.00000000000E+00 -0.27437530994E+03  0.27437530994E+03  0.00000000000E+00 0.  1.
    9000007    1    1    2  501    0  0.18077942246E+02  0.28987253273E+03  0.45721337764E+02  0.49643059732E+03  0.40000000000E+03 0.  1.
   -9000007    1    1    2    0  502 -0.18077942246E+02 -0.28987253273E+03  0.11971518351E+04  0.12951931954E+04  0.40000000000E+03 0.  1.
<mgrwt>
<rscale>  2 0.49432064E+03</rscale>
<asrwt>0</asrwt>
<pdfrwt beam="1">  1       21 0.23342284E+00 0.49432064E+03</pdfrwt>
<pdfrwt beam="2">  1       21 0.42211587E-01 0.49432064E+03</pdfrwt>
<totfact> 0.35672752E+02</totfact>
</mgrwt>
</event>
<event>
 4    1  0.4732450E-002  0.4325383E+03  0.7818608E-02  0.1033061E+00
         21   -1    0    0  501  502  0.00000000000E+00  0.00000000000E+00  0.46170008590E+03  0.46170008590E+03  0.00000000000E+00 0. -1.
         21   -1    0    0  502  503 -0.00000000000E+00 -0.00000000000E+00 -0.98608270123E+03  0.98608270123E+03  0.00000000000E+00 0. -1.
    9000007    1    1    2  501    0 -0.68260280875E+02 -0.14976620362E+03  0.29339825320E+03  0.52265850866E+03  0.40000000000E+03 0. -1.
   -9000007    1    1    2    0  503  0.68260280875E+02  0.14976620362E+03 -0.81778086853E+03  0.92512427848E+03  0.40000000000E+03 0. -1.
<mgrwt>
<rscale>  2 0.43253830E+03</rscale>
<asrwt>0</asrwt>
<pdfrwt beam="1">  1       21 0.71030782E-01 0.43253830E+03</pdfrwt>
<pdfrwt beam="2">  1       21 0.15170503E+00 0.43253830E+03</pdfrwt>
<totfact> 0.43573551E+02</totfact>
</mgrwt>
</event>
<event>
 4    1  0.4732450E-002  0.5638883E+03  0.7818608E-02  0.9983295E-01
         21   -1    0    0  501  502  0.00000000000E+00  0.00000000000E+00  0.54010134673E+03  0.54010134673E+03  0.00000000000E+00 0. -1.
         21   -1    0    0  502  503 -0.00000000000E+00 -0.00000000000E+00 -0.77854127077E+03  0.77854127077E+03  0.00000000000E+00 0.  1.
    9000007    1    1    2  501    0 -0.38501442212E+03 -0.98660328321E+02  0.20633592397E+03  0.60045356119E+03  0.40000000000E+03 0. -1.
   -9000007    1    1    2    0  503  0.38501442212E+03  0.98660328321E+02 -0.44477584801E+03  0.71818905631E+03  0.40000000000E+03 0.  1.
<mgrwt>
<rscale>  2 0.56388826E+03</rscale>
<asrwt>0</asrwt>
<pdfrwt beam="1">  1       21 0.83092515E-01 0.56388826E+03</pdfrwt>
<pdfrwt beam="2">  1       21 0.11977558E+00 0.56388826E+03</pdfrwt>
<totfact> 0.53659673E+02</totfact>
</mgrwt>
</event>
<event>
 4    1  0.4732450E-002  0.5144389E+03  0.7818608E-02  0.1010077E+00
         21   -1    0    0  503  502  0.00000000000E+00  0.00000000000E+00  0.80798689698E+03  0.80798689698E+03  0.00000000000E+00 0.  1.
         21   -1    0    0  501  503 -0.00000000000E+00 -0.00000000000E+00 -0.40438484938E+03  0.40438484938E+03  0.00000000000E+00 0.  1.
    9000007    1    1    2  501    0 -0.31951075636E+03  0.50598754921E+02  0.46605291309E+03  0.69415608852E+03  0.40000000000E+03 0.  1.
   -9000007    1    1    2    0  502  0.31951075636E+03 -0.50598754921E+02 -0.62450865480E+02  0.51821565784E+03  0.40000000000E+03 0.  1.
<mgrwt>
<rscale>  2 0.51443888E+03</rscale>
<asrwt>0</asrwt>
<pdfrwt beam="1">  1       21 0.12430568E+00 0.51443888E+03</pdfrwt>
<pdfrwt beam="2">  1       21 0.62213054E-01 0.51443888E+03</pdfrwt>
<totfact> 0.95857830E+02</totfact>
</mgrwt>
</event>
<event>
 4    1  0.4732450E-002  0.5164814E+03  0.7818608E-02  0.1009564E+00
         21   -1    0    0  503  502  0.00000000000E+00  0.00000000000E+00  0.78632373025E+03  0.78632373025E+03  0.00000000000E+00 0.  1.
         21   -1    0    0  501  503 -0.00000000000E+00 -0.00000000000E+00 -0.34249330622E+03  0.34249330622E+03  0.00000000000E+00 0.  1.
    9000007    1    1    2  501    0  0.35697080279E+02 -0.32477498573E+03  0.16691325442E+03  0.54278274420E+03  0.40000000000E+03 0.  1.
   -9000007    1    1    2    0  502 -0.35697080279E+02  0.32477498573E+03  0.27691716961E+03  0.58603429228E+03  0.40000000000E+03 0.  1.
<mgrwt>
<rscale>  2 0.51648144E+03</rscale>
<asrwt>0</asrwt>
<pdfrwt beam="1">  1       21 0.12097288E+00 0.51648144E+03</pdfrwt>
<pdfrwt beam="2">  1       21 0.52691278E-01 0.51648144E+03</pdfrwt>
<totfact> 0.14756403E+03</totfact>
</mgrwt>
</event>
<event>
 4    1  0.4732450E-002  0.6691786E+03  0.7818608E-02  0.9771443E-01
         21   -1    0    0  503  502  0.00000000000E+00  0.00000000000E+00  0.46110103145E+03  0.46110103145E+03  0.00000000000E+00 0. -1.
         21   -1    0    0  501  503 -0.00000000000E+00 -0.00000000000E+00 -0.11656777716E+04  0.11656777716E+04  0.00000000000E+00 0. -1.
    9000007    1    1    2  501    0  0.11445857345E+02  0.53634782070E+03 -0.68456200294E+03  0.95730096014E+03  0.40000000000E+03 0. -1.
   -9000007    1    1    2    0  502 -0.11445857345E+02 -0.53634782070E+03 -0.20014737196E+02  0.66947784289E+03  0.40000000000E+03 0. -1.
<mgrwt>
<rscale>  2 0.66917860E+03</rscale>
<asrwt>0</asrwt>
<pdfrwt beam="1">  1       21 0.70938622E-01 0.66917860E+03</pdfrwt>
<pdfrwt beam="2">  1       21 0.17933504E+00 0.66917860E+03</pdfrwt>
<totfact> 0.24723032E+02</totfact>
</mgrwt>
</event>
<event>
 4    1  0.4732450E-002  0.4055247E+03  0.7818608E-02  0.1041883E+00
         21   -1    0    0  503  502  0.00000000000E+00  0.00000000000E+00  0.72302178675E+02  0.72302178675E+02  0.00000000000E+00 0.  1.
         21   -1    0    0  501  503 -0.00000000000E+00 -0.00000000000E+00 -0.26918796264E+04  0.26918796264E+04  0.00000000000E+00 0.  1.
    9000007    1    1    2  501    0  0.17100117828E+02  0.64481638136E+02 -0.18540177225E+04  0.18978493120E+04  0.40000000000E+03 0.  1.
   -9000007    1    1    2    0  502 -0.17100117828E+02 -0.64481638136E+02 -0.76555972524E+03  0.86633249310E+03  0.40000000000E+03 0.  1.
<mgrwt>
<rscale>  2 0.40552472E+03</rscale>
<asrwt>0</asrwt>
<pdfrwt beam="1">  1       21 0.11123414E-01 0.40552472E+03</pdfrwt>
<pdfrwt beam="2">  1       21 0.41413527E+00 0.40552472E+03</pdfrwt>
<totfact> 0.37865361E+02</totfact>
</mgrwt>
</event>
<event>
 4    1  0.4732450E-002  0.4127718E+03  0.7818608E-02  0.1039445E+00
         21   -1    0    0  503  502  0.00000000000E+00  0.00000000000E+00  0.37504545847E+03  0.37504545847E+03  0.00000000000E+00 0. -1.
         21   -1    0    0  501  503 -0.00000000000E+00 -0.00000000000E+00 -0.50594073069E+03  0.50594073069E+03  0.00000000000E+00 0. -1.
    9000007    1    1    2  501    0 -0.15202062038E+02  0.10074443610E+03 -0.20618671591E+03  0.46140384254E+03  0.40000000000E+03 0.  1.
   -9000007    1    1    2    0  502  0.15202062038E+02 -0.10074443610E+03  0.75291443689E+02  0.41958234661E+03  0.40000000000E+03 0.  1.
<mgrwt>
<rscale>  2 0.41277178E+03</rscale>
<asrwt>0</asrwt>
<pdfrwt beam="1">  1       21 0.57699301E-01 0.41277178E+03</pdfrwt>
<pdfrwt beam="2">  1       21 0.77837036E-01 0.41277178E+03</pdfrwt>
<totfact> 0.36511823E+03</totfact>
</mgrwt>
</event>
<event>
 4    1  0.4732450E-002  0.7183157E+03  0.7818608E-02  0.9686413E-01
         21   -1    0    0  501  502  0.00000000000E+00  0.00000000000E+00  0.67044032210E+03  0.67044032210E+03  0.00000000000E+00 0. -1.
         21   -1    0    0  502  503 -0.00000000000E+00 -0.00000000000E+00 -0.81373287585E+03  0.81373287585E+03  0.00000000000E+00 0.  1.
    9000007    1    1    2  501    0 -0.59479728602E+03 -0.46835752861E+02  0.10115496654E+03  0.72540314754E+03  0.40000000000E+03 0. -1.
   -9000007    1    1    2    0  503  0.59479728602E+03  0.46835752861E+02 -0.24444752029E+03  0.75877005040E+03  0.40000000000E+03 0. -1.
<mgrwt>
<rscale>  2 0.71831567E+03</rscale>
<asrwt>0</asrwt>
<pdfrwt beam="1">  1       21 0.10314466E+00 0.71831567E+03</pdfrwt>
<pdfrwt beam="2">  1       21 0.12518967E+00 0.71831567E+03</pdfrwt>
<totfact> 0.27073070E+02</totfact>
</mgrwt>
</event>
<event>
 4    1  0.4732450E-002  0.4194093E+03  0.7818608E-02  0.1037259E+00
         21   -1    0    0  503  502  0.00000000000E+00  0.00000000000E+00  0.59877160996E+03  0.59877160996E+03  0.00000000000E+00 0.  1.
         21   -1    0    0  501  503 -0.00000000000E+00 -0.00000000000E+00 -0.52522320679E+03  0.52522320679E+03  0.00000000000E+00 0.  1.
    9000007    1    1    2  501    0 -0.12162624194E+03  0.33335270482E+02 -0.33629481818E+03  0.53758570268E+03  0.40000000000E+03 0.  1.
   -9000007    1    1    2    0  502  0.12162624194E+03 -0.33335270482E+02  0.40984322134E+03  0.58640911407E+03  0.40000000000E+03 0.  1.
<mgrwt>
<rscale>  2 0.41940933E+03</rscale>
<asrwt>0</asrwt>
<pdfrwt beam="1">  1       21 0.92118709E-01 0.41940933E+03</pdfrwt>
<pdfrwt beam="2">  1       21 0.80803570E-01 0.41940933E+03</pdfrwt>
<totfact> 0.11561898E+03</totfact>
</mgrwt>
</event>
<event>
 4    1  0.4732450E-002  0.6828027E+03  0.7818608E-02  0.9747102E-01
         21   -1    0    0  503  502  0.00000000000E+00  0.00000000000E+00  0.28351258702E+04  0.28351258702E+04  0.00000000000E+00 0.  1.
         21   -1    0    0  501  503 -0.00000000000E+00 -0.00000000000E+00 -0.14695172089E+04  0.14695172089E+04  0.00000000000E+00 0.  1.
    9000007    1    1    2  501    0 -0.55212789532E+03 -0.37071461330E+02 -0.13455192845E+04  0.15088544168E+04  0.40000000000E+03 0.  1.
   -9000007    1    1    2    0  502  0.55212789532E+03  0.37071461330E+02  0.27111279458E+04  0.27957886623E+04  0.40000000000E+03 0.  1.
<mgrwt>
<rscale>  2 0.68280268E+03</rscale>
<asrwt>0</asrwt>
<pdfrwt beam="1">  1       21 0.43617321E+00 0.68280268E+03</pdfrwt>
<pdfrwt beam="2">  1       21 0.22607957E+00 0.68280268E+03</pdfrwt>
<totfact> 0.25370053E-01</totfact>
</mgrwt>
</event>
<event>
 4    1  0.4732450E-002  0.7681904E+03  0.7818608E-02  0.9607237E-01
         21   -1    0    0  501  502  0.00000000000E+00  0.00000000000E+00  0.68013641939E+03  0.68013641939E+03  0.00000000000E+00 0. -1.
         21   -1    0    0  502  503 -0.00000000000E+00 -0.00000000000E+00 -0.94824312859E+03  0.94824312859E+03  0.00000000000E+00 0.  1.
    9000007    1    1    2  501    0  0.64360250063E+03 -0.12606442612E+03 -0.37142586903E+03  0.85327228628E+03  0.40000000000E+03 0.  1.
   -9000007    1    1    2    0  503 -0.64360250063E+03  0.12606442612E+03  0.10331915983E+03  0.77510726170E+03  0.40000000000E+03 0. -1.
<mgrwt>
<rscale>  2 0.76819035E+03</rscale>
<asrwt>0</asrwt>
<pdfrwt beam="1">  1       21 0.10463637E+00 0.76819035E+03</pdfrwt>
<pdfrwt beam="2">  1       21 0.14588356E+00 0.76819035E+03</pdfrwt>
<totfact> 0.17119147E+02</totfact>
</mgrwt>
</event>
<event>
 4    1  0.4732450E-002  0.4167998E+03  0.7818608E-02  0.1038113E+00
         21   -1    0    0  501  502  0.00000000000E+00  0.00000000000E+00  0.12573051363E+03  0.12573051363E+03  0.00000000000E+00 0.  1.
         21   -1    0    0  502  503 -0.00000000000E+00 -0.00000000000E+00 -0.14620424140E+04  0.14620424140E+04  0.00000000000E+00 0.  1.
    9000007    1    1    2  501    0  0.57171605505E+02 -0.10224216077E+03 -0.48205588564E+03  0.63725970279E+03  0.40000000000E+03 0.  1.
   -9000007    1    1    2    0  503 -0.57171605505E+02  0.10224216077E+03 -0.85425601476E+03  0.95051322488E+03  0.40000000000E+03 0.  1.
<mgrwt>
<rscale>  2 0.41679977E+03</rscale>
<asrwt>0</asrwt>
<pdfrwt beam="1">  1       21 0.19343157E-01 0.41679977E+03</pdfrwt>
<pdfrwt beam="2">  1       21 0.22492959E+00 0.41679977E+03</pdfrwt>
<totfact> 0.19634503E+03</totfact>
</mgrwt>
</event>
<event>
 4    1  0.4732450E-002  0.4250767E+03  0.7818608E-02  0.1035427E+00
         21   -1    0    0  501  502  0.00000000000E+00  0.00000000000E+00  0.13599442106E+03  0.13599442106E+03  0.00000000000E+00 0.  1.
         21   -1    0    0  502  503 -0.00000000000E+00 -0.00000000000E+00 -0.16909662656E+04  0.16909662656E+04  0.00000000000E+00 0.  1.
    9000007    1    1    2  501    0 -0.12976577602E+03  0.62056642548E+02 -0.12003203878E+04  0.12733653116E+04  0.40000000000E+03 0.  1.
   -9000007    1    1    2    0  503  0.12976577602E+03 -0.62056642548E+02 -0.35465145683E+03  0.55359537511E+03  0.40000000000E+03 0.  1.
<mgrwt>
<rscale>  2 0.42507668E+03</rscale>
<asrwt>0</asrwt>
<pdfrwt beam="1">  1       21 0.20922217E-01 0.42507668E+03</pdfrwt>
<pdfrwt beam="2">  1       21 0.26014867E+00 0.42507668E+03</pdfrwt>
<totfact> 0.10203249E+03</totfact>
</mgrwt>
</event>
<event>
 4    1  0.4732450E-002  0.4748001E+03  0.7818608E-02  0.1020574E+00
         21   -1    0    0  501  502  0.00000000000E+00  0.00000000000E+00  0.33956605776E+03  0.33956605776E+03  0.00000000000E+00 0.  1.
         21   -1    0    0  502  503 -0.00000000000E+00 -0.00000000000E+00 -0.68346485643E+03  0.68346485643E+03  0.00000000000E+00 0.  1.
    9000007    1    1    2  501    0  0.17546001374E+03  0.18614228291E+03 -0.85387149686E+02  0.48241696823E+03  0.40000000000E+03 0.  1.
   -9000007    1    1    2    0  503 -0.17546001374E+03 -0.18614228291E+03 -0.25851164898E+03  0.54061394596E+03  0.40000000000E+03 0.  1.
<mgrwt>
<rscale>  2 0.47480013E+03</rscale>
<asrwt>0</asrwt>
<pdfrwt beam="1">  1       21 0.52240932E-01 0.47480013E+03</pdfrwt>
<pdfrwt beam="2">  1       21 0.10514844E+00 0.47480013E+03</pdfrwt>
<totfact> 0.21662894E+03</totfact>
</mgrwt>
</event>
<event>
 4    1  0.4732450E-002  0.4970006E+03  0.7818608E-02  0.1014565E+00
         21   -1    0    0  501  502  0.00000000000E+00  0.00000000000E+00  0.31888238113E+03  0.31888238113E+03  0.00000000000E+00 0.  1.
         21   -1    0    0  502  503 -0.00000000000E+00 -0.00000000000E+00 -0.85656248207E+03  0.85656248207E+03  0.00000000000E+00 0. -1.
    9000007    1    1    2  501    0 -0.23446417800E+03  0.17898651838E+03 -0.87048954506E+02  0.50456629397E+03  0.40000000000E+03 0.  1.
   -9000007    1    1    2    0  503  0.23446417800E+03 -0.17898651838E+03 -0.45063114643E+03  0.67087856923E+03  0.40000000000E+03 0. -1.
<mgrwt>
<rscale>  2 0.49700063E+03</rscale>
<asrwt>0</asrwt>
<pdfrwt beam="1">  1       21 0.49058828E-01 0.49700063E+03</pdfrwt>
<pdfrwt beam="2">  1       21 0.13177884E+00 0.49700063E+03</pdfrwt>
<totfact> 0.13872296E+03</totfact>
</mgrwt>
</event>
<event>
 4    1  0.4732450E-002  0.4708777E+03  0.7818608E-02  0.1021673E+00
         21   -1    0    0  503  502  0.00000000000E+00  0.00000000000E+00  0.18192887639E+03  0.18192887639E+03  0.00000000000E+00 0.  1.
         21   -1    0    0  501  503 -0.00000000000E+00 -0.00000000000E+00 -0.20520083326E+04  0.20520083326E+04  0.00000000000E+00 0. -1.
    9000007    1    1    2  501    0 -0.22660120627E+03  0.10187116321E+03 -0.16468122316E+04  0.17128094951E+04  0.40000000000E+03 0. -1.
   -9000007    1    1    2    0  502  0.22660120627E+03 -0.10187116321E+03 -0.22326722467E+03  0.52112771389E+03  0.40000000000E+03 0.  1.
<mgrwt>
<rscale>  2 0.47087773E+03</rscale>
<asrwt>0</asrwt>
<pdfrwt beam="1">  1       21 0.27989057E-01 0.47087773E+03</pdfrwt>
<pdfrwt beam="2">  1       21 0.31569360E+00 0.47087773E+03</pdfrwt>
<totfact> 0.26154309E+02</totfact>
</mgrwt>
</event>
<event>
 4    1  0.4732450E-002  0.5885595E+03  0.7818608E-02  0.9929430E-01
         21   -1    0    0  501  502  0.00000000000E+00  0.00000000000E+00  0.36862111662E+03  0.36862111662E+03  0.00000000000E+00 0.  1.
         21   -1    0    0  502  503 -0.00000000000E+00 -0.00000000000E+00 -0.14504724538E+04  0.14504724538E+04  0.00000000000E+00 0. -1.
    9000007    1    1    2  501    0 -0.32949518800E+02  0.43048412059E+03 -0.11992570733E+01  0.58856069108E+03  0.40000000000E+03 0.  1.
   -9000007    1    1    2    0  503  0.32949518800E+02 -0.43048412059E+03 -0.10806520801E+04  0.12305328793E+04  0.40000000000E+03 0. -1.
<mgrwt>
<rscale>  2 0.58855947E+03</rscale>
<asrwt>0</asrwt>
<pdfrwt beam="1">  1       21 0.56710939E-01 0.58855947E+03</pdfrwt>
<pdfrwt beam="2">  1       21 0.22314962E+00 0.58855947E+03</pdfrwt>
<totfact> 0.21208320E+02</totfact>
</mgrwt>
</event>
<event>
 4    1  0.4732450E-002  0.4841103E+03  0.7818608E-02  0.1018012E+00
         21   -1    0    0  503  502  0.00000000000E+00  0.00000000000E+00  0.16559511035E+03  0.16559511035E+03  0.00000000000E+00 0.  1.
         21   -1    0    0  501  503 -0.00000000000E+00 -0.00000000000E+00 -0.31421859129E+04  0.31421859129E+04  0.00000000000E+00 0.  1.
    9000007    1    1    2  501    0 -0.25645270066E+03 -0.92708104296E+02 -0.27143947512E+04  0.27572271661E+04  0.40000000000E+03 0.  1.
   -9000007    1    1    2    0  502  0.25645270066E+03  0.92708104296E+02 -0.26219605140E+03  0.55055385717E+03  0.40000000000E+03 0.  1.
<mgrwt>
<rscale>  2 0.48411030E+03</rscale>
<asrwt>0</asrwt>
<pdfrwt beam="1">  1       21 0.25476172E-01 0.48411030E+03</pdfrwt>
<pdfrwt beam="2">  1       21 0.48341320E+00 0.48411030E+03</pdfrwt>
<totfact> 0.25731465E+01</totfact>
</mgrwt>
</event>
<event>
 4    1  0.4732450E-002  0.5890162E+03  0.7818608E-02  0.9928460E-01
         21   -1    0    0  501  502  0.00000000000E+00  0.00000000000E+00  0.71254586653E+03  0.71254586653E+03  0.00000000000E+00 0. -1.
         21   -1    0    0  502  503 -0.00000000000E+00 -0.00000000000E+00 -0.48866356001E+03  0.48866356001E+03  0.00000000000E+00 0. -1.
    9000007    1    1    2  501    0  0.38128035563E+03 -0.20387580741E+03  0.75881266276E+02  0.59388384471E+03  0.40000000000E+03 0. -1.
   -9000007    1    1    2    0  503 -0.38128035563E+03  0.20387580741E+03  0.14800104024E+03  0.60732558183E+03  0.40000000000E+03 0. -1.
<mgrwt>
<rscale>  2 0.58901618E+03</rscale>
<asrwt>0</asrwt>
<pdfrwt beam="1">  1       21 0.10962244E+00 0.58901618E+03</pdfrwt>
<pdfrwt beam="2">  1       21 0.75179010E-01 0.58901618E+03</pdfrwt>
<totfact> 0.83884992E+02</totfact>
</mgrwt>
</event>
<event>
 4    1  0.4732450E-002  0.4872608E+03  0.7818608E-02  0.1017159E+00
         21   -1    0    0  501  502  0.00000000000E+00  0.00000000000E+00  0.31122634382E+03  0.31122634382E+03  0.00000000000E+00 0. -1.
         21   -1    0    0  502  503 -0.00000000000E+00 -0.00000000000E+00 -0.94659365271E+03  0.94659365271E+03  0.00000000000E+00 0. -1.
    9000007    1    1    2  501    0  0.21603591912E+03  0.17536111756E+03 -0.40608490296E+02  0.48894998659E+03  0.40000000000E+03 0. -1.
   -9000007    1    1    2    0  503 -0.21603591912E+03 -0.17536111756E+03 -0.59475881859E+03  0.76887000995E+03  0.40000000000E+03 0. -1.
<mgrwt>
<rscale>  2 0.48726075E+03</rscale>
<asrwt>0</asrwt>
<pdfrwt beam="1">  1       21 0.47880976E-01 0.48726075E+03</pdfrwt>
<pdfrwt beam="2">  1       21 0.14562979E+00 0.48726075E+03</pdfrwt>
<totfact> 0.11242421E+03</totfact>
</mgrwt>
</event>
<event>
 4    1  0.4732450E-002  0.5113907E+03  0.7818608E-02  0.1010848E+00
         21   -1    0    0  501  502  0.00000000000E+00  0.00000000000E+00  0.10515192901E+04  0.10515192901E+04  0.00000000000E+00 0.  1.
         21   -1    0    0  502  503 -0.00000000000E+00 -0.00000000000E+00 -0.27556310159E+03  0.27556310159E+03  0.00000000000E+00 0.  1.
    9000007    1    1    2  501    0 -0.11027875298E+02  0.31843180750E+03  0.59512437378E+03  0.78466136029E+03  0.40000000000E+03 0.  1.
   -9000007    1    1    2    0  503  0.11027875298E+02 -0.31843180750E+03  0.18083181468E+03  0.54242103136E+03  0.40000000000E+03 0.  1.
<mgrwt>
<rscale>  2 0.51139068E+03</rscale>
<asrwt>0</asrwt>
<pdfrwt beam="1">  1       21 0.16177220E+00 0.51139068E+03</pdfrwt>
<pdfrwt beam="2">  1       21 0.42394324E-01 0.51139068E+03</pdfrwt>
<totfact> 0.10771905E+03</totfact>
</mgrwt>
</event>
<event>
 4    1  0.4732450E-002  0.4543343E+03  0.7818608E-02  0.1026437E+00
         21   -1    0    0  501  502  0.00000000000E+00  0.00000000000E+00  0.37376562631E+03  0.37376562631E+03  0.00000000000E+00 0. -1.
         21   -1    0    0  502  503 -0.00000000000E+00 -0.00000000000E+00 -0.56712173708E+03  0.56712173708E+03  0.00000000000E+00 0.  1.
    9000007    1    1    2  501    0 -0.17490730204E+03  0.12580561229E+03 -0.20548161114E+02  0.45479868438E+03  0.40000000000E+03 0. -1.
   -9000007    1    1    2    0  503  0.17490730204E+03 -0.12580561229E+03 -0.17280794966E+03  0.48608867901E+03  0.40000000000E+03 0. -1.
<mgrwt>
<rscale>  2 0.45433426E+03</rscale>
<asrwt>0</asrwt>
<pdfrwt beam="1">  1       21 0.57502405E-01 0.45433426E+03</pdfrwt>
<pdfrwt beam="2">  1       21 0.87249497E-01 0.45433426E+03</pdfrwt>
<totfact> 0.27793321E+03</totfact>
</mgrwt>
</event>
<event>
 4    1  0.4732450E-002  0.4279077E+03  0.7818608E-02  0.1034523E+00
         21   -1    0    0  503  502  0.00000000000E+00  0.00000000000E+00  0.22588716041E+03  0.22588716041E+03  0.00000000000E+00 0. -1.
         21   -1    0    0  501  503 -0.00000000000E+00 -0.00000000000E+00 -0.83737593229E+03  0.83737593229E+03  0.00000000000E+00 0. -1.
    9000007    1    1    2  501    0 -0.15042941733E+03  0.21818065869E+02 -0.21068602974E+03  0.47696293433E+03  0.40000000000E+03 0. -1.
   -9000007    1    1    2    0  502  0.15042941733E+03 -0.21818065869E+02 -0.40080274214E+03  0.58630015837E+03  0.40000000000E+03 0. -1.
<mgrwt>
<rscale>  2 0.42790774E+03</rscale>
<asrwt>0</asrwt>
<pdfrwt beam="1">  1       21 0.34751870E-01 0.42790774E+03</pdfrwt>
<pdfrwt beam="2">  1       21 0.12882707E+00 0.42790774E+03</pdfrwt>
<totfact> 0.30840739E+03</totfact>
</mgrwt>
</event>
<event>
 4    1  0.4732450E-002  0.4163290E+03  0.7818608E-02  0.1038268E+00
         21   -1    0    0  503  502  0.00000000000E+00  0.00000000000E+00  0.10143853478E+04  0.10143853478E+04  0.00000000000E+00 0.  1.
         21   -1    0    0  501  503 -0.00000000000E+00 -0.00000000000E+00 -0.19002967111E+03  0.19002967111E+03  0.00000000000E+00 0.  1.
    9000007    1    1    2  501    0 -0.10836358574E+03 -0.39839775222E+02  0.22096862605E+03  0.47133534570E+03  0.40000000000E+03 0.  1.
   -9000007    1    1    2    0  502  0.10836358574E+03  0.39839775222E+02  0.60338705064E+03  0.73307967322E+03  0.40000000000E+03 0.  1.
<mgrwt>
<rscale>  2 0.41632905E+03</rscale>
<asrwt>0</asrwt>
<pdfrwt beam="1">  1       21 0.15605928E+00 0.41632905E+03</pdfrwt>
<pdfrwt beam="2">  1       21 0.29235334E-01 0.41632905E+03</pdfrwt>
<totfact> 0.26267091E+03</totfact>
</mgrwt>
</event>
<event>
 4    1  0.4732450E-002  0.4508900E+03  0.7818608E-02  0.1027457E+00
         21   -1    0    0  503  502  0.00000000000E+00  0.00000000000E+00  0.24046907341E+03  0.24046907341E+03  0.00000000000E+00 0.  1.
         21   -1    0    0  501  503 -0.00000000000E+00 -0.00000000000E+00 -0.10507052848E+04  0.10507052848E+04  0.00000000000E+00 0.  1.
    9000007    1    1    2  501    0 -0.16627042856E+03 -0.12512378195E+03 -0.69046540281E+03  0.82464797865E+03  0.40000000000E+03 0.  1.
   -9000007    1    1    2    0  502  0.16627042856E+03  0.12512378195E+03 -0.11977080857E+03  0.46652637954E+03  0.40000000000E+03 0.  1.
<mgrwt>
<rscale>  2 0.45089003E+03</rscale>
<asrwt>0</asrwt>
<pdfrwt beam="1">  1       21 0.36995242E-01 0.45089003E+03</pdfrwt>
<pdfrwt beam="2">  1       21 0.16164697E+00 0.45089003E+03</pdfrwt>
<totfact> 0.14639957E+03</totfact>
</mgrwt>
</event>
<event>
 4    1  0.4732450E-002  0.4106169E+03  0.7818608E-02  0.1040164E+00
         21   -1    0    0  501  502  0.00000000000E+00  0.00000000000E+00  0.62093933944E+03  0.62093933944E+03  0.00000000000E+00 0. -1.
         21   -1    0    0  502  503 -0.00000000000E+00 -0.00000000000E+00 -0.37935711959E+03  0.37935711959E+03  0.00000000000E+00 0. -1.
    9000007    1    1    2  501    0 -0.89165638656E+02  0.25606601034E+02 -0.14585198828E+03  0.43575108906E+03  0.40000000000E+03 0. -1.
   -9000007    1    1    2    0  503  0.89165638656E+02 -0.25606601034E+02  0.38743420812E+03  0.56454536997E+03  0.40000000000E+03 0. -1.
<mgrwt>
<rscale>  2 0.41061686E+03</rscale>
<asrwt>0</asrwt>
<pdfrwt beam="1">  1       21 0.95529129E-01 0.41061686E+03</pdfrwt>
<pdfrwt beam="2">  1       21 0.58362634E-01 0.41061686E+03</pdfrwt>
<totfact> 0.22062546E+03</totfact>
</mgrwt>
</event>
<event>
 4    1  0.4732450E-002  0.5871874E+03  0.7818608E-02  0.9932351E-01
         21   -1    0    0  503  502  0.00000000000E+00  0.00000000000E+00  0.64498057891E+03  0.64498057891E+03  0.00000000000E+00 0. -1.
         21   -1    0    0  501  503 -0.00000000000E+00 -0.00000000000E+00 -0.64399916346E+03  0.64399916346E+03  0.00000000000E+00 0. -1.
    9000007    1    1    2  501    0 -0.25763870189E+03 -0.34410942941E+03 -0.26517448394E+03  0.64428759654E+03  0.40000000000E+03 0. -1.
   -9000007    1    1    2    0  502  0.25763870189E+03  0.34410942941E+03  0.26615589939E+03  0.64469214583E+03  0.40000000000E+03 0. -1.
<mgrwt>
<rscale>  2 0.58718736E+03</rscale>
<asrwt>0</asrwt>
<pdfrwt beam="1">  1       21 0.99227782E-01 0.58718736E+03</pdfrwt>
<pdfrwt beam="2">  1       21 0.99076794E-01 0.58718736E+03</pdfrwt>
<totfact> 0.55925955E+02</totfact>
</mgrwt>
</event>
<event>
 4    1  0.4732450E-002  0.4055761E+03  0.7818608E-02  0.1041866E+00
         21   -1    0    0  503  502  0.00000000000E+00  0.00000000000E+00  0.89955504085E+03  0.89955504085E+03  0.00000000000E+00 0.  1.
         21   -1    0    0  501  503 -0.00000000000E+00 -0.00000000000E+00 -0.18286444553E+03  0.18286444553E+03  0.00000000000E+00 0.  1.
    9000007    1    1    2  501    0 -0.66234592626E+02 -0.10244814749E+02  0.36122472717E+03  0.54311626841E+03  0.40000000000E+03 0.  1.
   -9000007    1    1    2    0  502  0.66234592626E+02  0.10244814749E+02  0.35546586816E+03  0.53930321797E+03  0.40000000000E+03 0.  1.
<mgrwt>
<rscale>  2 0.40557611E+03</rscale>
<asrwt>0</asrwt>
<pdfrwt beam="1">  1       21 0.13839308E+00 0.40557611E+03</pdfrwt>
<pdfrwt beam="2">  1       21 0.28132992E-01 0.40557611E+03</pdfrwt>
<totfact> 0.39330285E+03</totfact>
</mgrwt>
</event>
<event>
 4    1  0.4732450E-002  0.4031770E+03  0.7818608E-02  0.1042685E+00
         21   -1    0    0  501  502  0.00000000000E+00  0.00000000000E+00  0.40783263860E+03  0.40783263860E+03  0.00000000000E+00 0. -1.
         21   -1    0    0  502  503 -0.00000000000E+00 -0.00000000000E+00 -0.48835484132E+03  0.48835484132E+03  0.00000000000E+00 0. -1.
    9000007    1    1    2  501    0  0.47868587005E+02  0.16133543781E+02  0.15186737433E+03  0.43083104837E+03  0.40000000000E+03 0. -1.
   -9000007    1    1    2    0  503 -0.47868587005E+02 -0.16133543781E+02 -0.23238957705E+03  0.46535643154E+03  0.40000000000E+03 0. -1.
<mgrwt>
<rscale>  2 0.40317700E+03</rscale>
<asrwt>0</asrwt>
<pdfrwt beam="1">  1       21 0.62743483E-01 0.40317700E+03</pdfrwt>
<pdfrwt beam="2">  1       21 0.75131514E-01 0.40317700E+03</pdfrwt>
<totfact> 0.33074998E+03</totfact>
</mgrwt>
</event>
<event>
 4    1  0.4732450E-002  0.5719777E+03  0.7818608E-02  0.9965312E-01
         21   -1    0    0  503  502  0.00000000000E+00  0.00000000000E+00  0.62878422719E+03  0.62878422719E+03  0.00000000000E+00 0. -1.
         21   -1    0    0  501  503 -0.00000000000E+00 -0.00000000000E+00 -0.92648095701E+03  0.92648095701E+03  0.00000000000E+00 0. -1.
    9000007    1    1    2  501    0  0.36100024488E+03  0.19193036673E+03 -0.66373815117E+03  0.87618877863E+03  0.40000000000E+03 0. -1.
   -9000007    1    1    2    0  502 -0.36100024488E+03 -0.19193036673E+03  0.36604142135E+03  0.67907640558E+03  0.40000000000E+03 0. -1.
<mgrwt>
<rscale>  2 0.57197766E+03</rscale>
<asrwt>0</asrwt>
<pdfrwt beam="1">  1       21 0.96736035E-01 0.57197766E+03</pdfrwt>
<pdfrwt beam="2">  1       21 0.14253553E+00 0.57197766E+03</pdfrwt>
<totfact> 0.23607681E+02</totfact>
</mgrwt>
</event>
<event>
 4    1  0.4732450E-002  0.4186150E+03  0.7818608E-02  0.1037518E+00
         21   -1    0    0  501  502  0.00000000000E+00  0.00000000000E+00  0.16021216416E+03  0.16021216416E+03  0.00000000000E+00 0.  1.
         21   -1    0    0  502  503 -0.00000000000E+00 -0.00000000000E+00 -0.11650988601E+04  0.11650988601E+04  0.00000000000E+00 0.  1.
    9000007    1    1    2  501    0 -0.87061671001E+02 -0.87514582215E+02 -0.33850642703E+03  0.53835410075E+03  0.40000000000E+03 0.  1.
   -9000007    1    1    2    0  503  0.87061671001E+02  0.87514582215E+02 -0.66638026895E+03  0.78695692353E+03  0.40000000000E+03 0.  1.
<mgrwt>
<rscale>  2 0.41861502E+03</rscale>
<asrwt>0</asrwt>
<pdfrwt beam="1">  1       21 0.24648025E-01 0.41861502E+03</pdfrwt>
<pdfrwt beam="2">  1       21 0.17924598E+00 0.41861502E+03</pdfrwt>
<totfact> 0.24781426E+03</totfact>
</mgrwt>
</event>
<event>
 4    1  0.4732450E-002  0.5028199E+03  0.7818608E-02  0.1013045E+00
         21   -1    0    0  501  502  0.00000000000E+00  0.00000000000E+00  0.51093778296E+03  0.51093778296E+03  0.00000000000E+00 0.  1.
         21   -1    0    0  502  503 -0.00000000000E+00 -0.00000000000E+00 -0.72542798387E+03  0.72542798387E+03  0.00000000000E+00 0.  1.
    9000007    1    1    2  501    0  0.28968049045E+03 -0.94409157423E+02  0.24129005894E+03  0.55771746261E+03  0.40000000000E+03 0.  1.
   -9000007    1    1    2    0  503 -0.28968049045E+03  0.94409157423E+02 -0.45578025985E+03  0.67864830422E+03  0.40000000000E+03 0.  1.
<mgrwt>
<rscale>  2 0.50281992E+03</rscale>
<asrwt>0</asrwt>
<pdfrwt beam="1">  1       21 0.78605814E-01 0.50281992E+03</pdfrwt>
<pdfrwt beam="2">  1       21 0.11160430E+00 0.50281992E+03</pdfrwt>
<totfact> 0.74589559E+02</totfact>
</mgrwt>
</event>
<event>
 4    1  0.4732450E-002  0.5190595E+03  0.7818608E-02  0.1008920E+00
         21   -1    0    0  503  502  0.00000000000E+00  0.00000000000E+00  0.18164308521E+03  0.18164308521E+03  0.00000000000E+00 0.  1.
         21   -1    0    0  501  503 -0.00000000000E+00 -0.00000000000E+00 -0.22654134028E+04  0.22654134028E+04  0.00000000000E+00 0. -1.
    9000007    1    1    2  501    0  0.29480856637E+03 -0.15003556150E+03 -0.17608174854E+04  0.18357290043E+04  0.40000000000E+03 0. -1.
   -9000007    1    1    2    0  502 -0.29480856637E+03  0.15003556150E+03 -0.32295283228E+03  0.61132748376E+03  0.40000000000E+03 0.  1.
<mgrwt>
<rscale>  2 0.51905950E+03</rscale>
<asrwt>0</asrwt>
<pdfrwt beam="1">  1       21 0.27945087E-01 0.51905950E+03</pdfrwt>
<pdfrwt beam="2">  1       21 0.34852517E+00 0.51905950E+03</pdfrwt>
<totfact> 0.16099019E+02</totfact>
</mgrwt>
</event>
<event>
 4    1  0.4732450E-002  0.4044011E+03  0.7818608E-02  0.1042266E+00
         21   -1    0    0  503  502  0.00000000000E+00  0.00000000000E+00  0.17295342035E+04  0.17295342035E+04  0.00000000000E+00 0.  1.
         21   -1    0    0  501  503 -0.00000000000E+00 -0.00000000000E+00 -0.19591536458E+03  0.19591536458E+03  0.00000000000E+00 0.  1.
    9000007    1    1    2  501    0  0.51944254421E+02  0.29018408762E+02  0.74346018655E+02  0.41117831181E+03  0.40000000000E+03 0.  1.
   -9000007    1    1    2    0  502 -0.51944254421E+02 -0.29018408762E+02  0.14592728203E+04  0.15142712563E+04  0.40000000000E+03 0.  1.
<mgrwt>
<rscale>  2 0.40440113E+03</rscale>
<asrwt>0</asrwt>
<pdfrwt beam="1">  1       21 0.26608217E+00 0.40440113E+03</pdfrwt>
<pdfrwt beam="2">  1       21 0.30140827E-01 0.40440113E+03</pdfrwt>
<totfact> 0.46733905E+02</totfact>
</mgrwt>
</event>
<event>
 4    1  0.4732450E-002  0.4250197E+03  0.7818608E-02  0.1035445E+00
         21   -1    0    0  503  502  0.00000000000E+00  0.00000000000E+00  0.56532867163E+03  0.56532867163E+03  0.00000000000E+00 0. -1.
         21   -1    0    0  501  503 -0.00000000000E+00 -0.00000000000E+00 -0.32475380777E+03  0.32475380777E+03  0.00000000000E+00 0. -1.
    9000007    1    1    2  501    0 -0.16908671844E+02  0.14267394348E+03  0.63865428422E+02  0.42979128688E+03  0.40000000000E+03 0.  1.
   -9000007    1    1    2    0  502  0.16908671844E+02 -0.14267394348E+03  0.17670943544E+03  0.46029119251E+03  0.40000000000E+03 0.  1.
<mgrwt>
<rscale>  2 0.42501971E+03</rscale>
<asrwt>0</asrwt>
<pdfrwt beam="1">  1       21 0.86973642E-01 0.42501971E+03</pdfrwt>
<pdfrwt beam="2">  1       21 0.49962124E-01 0.42501971E+03</pdfrwt>
<totfact> 0.38276875E+03</totfact>
</mgrwt>
</event>
<event>
 4    1  0.4732450E-002  0.4613832E+03  0.7818608E-02  0.1024381E+00
         21   -1    0    0  503  502  0.00000000000E+00  0.00000000000E+00  0.20208807787E+03  0.20208807787E+03  0.00000000000E+00 0.  1.
         21   -1    0    0  501  503 -0.00000000000E+00 -0.00000000000E+00 -0.10588975439E+04  0.10588975439E+04  0.00000000000E+00 0.  1.
    9000007    1    1    2  501    0  0.16908858831E+03  0.15583158840E+03 -0.47393929047E+03  0.66143244984E+03  0.40000000000E+03 0.  1.
   -9000007    1    1    2    0  502 -0.16908858831E+03 -0.15583158840E+03 -0.38287017553E+03  0.59955317191E+03  0.40000000000E+03 0.  1.
<mgrwt>
<rscale>  2 0.46138318E+03</rscale>
<asrwt>0</asrwt>
<pdfrwt beam="1">  1       21 0.31090473E-01 0.46138318E+03</pdfrwt>
<pdfrwt beam="2">  1       21 0.16290732E+00 0.46138318E+03</pdfrwt>
<totfact> 0.20255426E+03</totfact>
</mgrwt>
</event>
<event>
 4    1  0.4732450E-002  0.4643238E+03  0.7818608E-02  0.1023535E+00
         21   -1    0    0  501  502  0.00000000000E+00  0.00000000000E+00  0.26798535710E+04  0.26798535710E+04  0.00000000000E+00 0.  1.
         21   -1    0    0  502  503 -0.00000000000E+00 -0.00000000000E+00 -0.82201980580E+02  0.82201980580E+02  0.00000000000E+00 0.  1.
    9000007    1    1    2  501    0  0.10499186853E+03 -0.21112391118E+03  0.15003911468E+04  0.15705954895E+04  0.40000000000E+03 0.  1.
   -9000007    1    1    2    0  503 -0.10499186853E+03  0.21112391118E+03  0.10972604436E+04  0.11914600620E+04  0.40000000000E+03 0.  1.
<mgrwt>
<rscale>  2 0.46432381E+03</rscale>
<asrwt>0</asrwt>
<pdfrwt beam="1">  1       21 0.41228510E+00 0.46432381E+03</pdfrwt>
<pdfrwt beam="2">  1       21 0.12646461E-01 0.46432381E+03</pdfrwt>
<totfact> 0.29623402E+02</totfact>
</mgrwt>
</event>
<event>
 4    1  0.4732450E-002  0.4162452E+03  0.7818608E-02  0.1038295E+00
         21   -1    0    0  503  502  0.00000000000E+00  0.00000000000E+00  0.25489108208E+03  0.25489108208E+03  0.00000000000E+00 0. -1.
         21   -1    0    0  501  503 -0.00000000000E+00 -0.00000000000E+00 -0.76362590753E+03  0.76362590753E+03  0.00000000000E+00 0. -1.
    9000007    1    1    2  501    0  0.38540767884E+02  0.10851107823E+03 -0.42315425633E+03  0.59356513504E+03  0.40000000000E+03 0. -1.
   -9000007    1    1    2    0  502 -0.38540767884E+02 -0.10851107823E+03 -0.85580569121E+02  0.42495185457E+03  0.40000000000E+03 0. -1.
<mgrwt>
<rscale>  2 0.41624517E+03</rscale>
<asrwt>0</asrwt>
<pdfrwt beam="1">  1       21 0.39214013E-01 0.41624517E+03</pdfrwt>
<pdfrwt beam="2">  1       21 0.11748091E+00 0.41624517E+03</pdfrwt>
<totfact> 0.30666097E+03</totfact>
</mgrwt>
</event>
<event>
 4    1  0.4732450E-002  0.4709582E+03  0.7818608E-02  0.1021650E+00
         21   -1    0    0  501  502  0.00000000000E+00  0.00000000000E+00  0.62962762661E+03  0.62962762661E+03  0.00000000000E+00 0.  1.
         21   -1    0    0  502  503 -0.00000000000E+00 -0.00000000000E+00 -0.40977019962E+03  0.40977019962E+03  0.00000000000E+00 0. -1.
    9000007    1    1    2  501    0 -0.23052356719E+03 -0.93061686672E+02  0.30459928006E+03  0.56087638030E+03  0.40000000000E+03 0.  1.
   -9000007    1    1    2    0  503  0.23052356719E+03  0.93061686672E+02 -0.84741853070E+02  0.47852144594E+03  0.40000000000E+03 0. -1.
<mgrwt>
<rscale>  2 0.47095816E+03</rscale>
<asrwt>0</asrwt>
<pdfrwt beam="1">  1       21 0.96865789E-01 0.47095816E+03</pdfrwt>
<pdfrwt beam="2">  1       21 0.63041569E-01 0.47095816E+03</pdfrwt>
<totfact> 0.17601178E+03</totfact>
</mgrwt>
</event>
<event>
 4    1  0.4732450E-002  0.5487307E+03  0.7818608E-02  0.1001788E+00
         21   -1    0    0  501  502  0.00000000000E+00  0.00000000000E+00  0.83791074290E+03  0.83791074290E+03  0.00000000000E+00 0.  1.
         21   -1    0    0  502  503 -0.00000000000E+00 -0.00000000000E+00 -0.64878399376E+03  0.64878399376E+03  0.00000000000E+00 0.  1.
    9000007    1    1    2  501    0  0.18822198424E+03 -0.32508139595E+03  0.59105798691E+03  0.80650788790E+03  0.40000000000E+03 0.  1.
   -9000007    1    1    2    0  503 -0.18822198424E+03  0.32508139595E+03 -0.40193123777E+03  0.68018684877E+03  0.40000000000E+03 0.  1.
<mgrwt>
<rscale>  2 0.54873074E+03</rscale>
<asrwt>0</asrwt>
<pdfrwt beam="1">  1       21 0.12890934E+00 0.54873074E+03</pdfrwt>
<pdfrwt beam="2">  1       21 0.99812922E-01 0.54873074E+03</pdfrwt>
<totfact> 0.28805906E+02</totfact>
</mgrwt>
</event>
<event>
 4    1  0.4732450E-002  0.4071434E+03  0.7818608E-02  0.1041334E+00
         21   -1    0    0  501  502  0.00000000000E+00  0.00000000000E+00  0.67700106523E+03  0.67700106523E+03  0.00000000000E+00 0.  1.
         21   -1    0    0  502  503 -0.00000000000E+00 -0.00000000000E+00 -0.51802487951E+03  0.51802487951E+03  0.00000000000E+00 0.  1.
    9000007    1    1    2  501    0  0.64300544748E-01  0.75932283605E+02  0.51338849759E+03  0.65523542738E+03  0.40000000000E+03 0.  1.
   -9000007    1    1    2    0  503 -0.64300544748E-01 -0.75932283605E+02 -0.35441231188E+03  0.53979051737E+03  0.40000000000E+03 0.  1.
<mgrwt>
<rscale>  2 0.40714336E+03</rscale>
<asrwt>0</asrwt>
<pdfrwt beam="1">  1       21 0.10415401E+00 0.40714336E+03</pdfrwt>
<pdfrwt beam="2">  1       21 0.79696135E-01 0.40714336E+03</pdfrwt>
<totfact> 0.89252541E+02</totfact>
</mgrwt>
</event>
<event>
 4    1  0.4732450E-002  0.5119545E+03  0.7818608E-02  0.1010705E+00
         21   -1    0    0  501  502  0.00000000000E+00  0.00000000000E+00  0.97222331152E+03  0.97222331152E+03  0.00000000000E+00 0. -1.
         21   -1    0    0  502  503 -0.00000000000E+00 -0.00000000000E+00 -0.33347755704E+03  0.33347755704E+03  0.00000000000E+00 0. -1.
    9000007    1    1    2  501    0  0.90795033905E+02 -0.30635540744E+03  0.60513429722E+03  0.79264424020E+03  0.40000000000E+03 0. -1.
   -9000007    1    1    2    0  503 -0.90795033905E+02  0.30635540744E+03  0.33611457257E+02  0.51305662836E+03  0.40000000000E+03 0. -1.
<mgrwt>
<rscale>  2 0.51195446E+03</rscale>
<asrwt>0</asrwt>
<pdfrwt beam="1">  1       21 0.14957282E+00 0.51195446E+03</pdfrwt>
<pdfrwt beam="2">  1       21 0.51304240E-01 0.51195446E+03</pdfrwt>
<totfact> 0.89425014E+02</totfact>
</mgrwt>
</event>
<event>
 4    1  0.4732450E-002  0.4292955E+03  0.7818608E-02  0.1034083E+00
         21   -1    0    0  501  502  0.00000000000E+00  0.00000000000E+00  0.28051200087E+03  0.28051200087E+03  0.00000000000E+00 0. -1.
         21   -1    0    0  502  503 -0.00000000000E+00 -0.00000000000E+00 -0.66036807360E+03  0.66036807360E+03  0.00000000000E+00 0. -1.
    9000007    1    1    2  501    0  0.49278247973E+02  0.14787241999E+03 -0.15629917294E+03  0.45686325063E+03  0.40000000000E+03 0. -1.
   -9000007    1    1    2    0  503 -0.49278247973E+02 -0.14787241999E+03 -0.22355689979E+03  0.48401682384E+03  0.40000000000E+03 0. -1.
<mgrwt>
<rscale>  2 0.42929547E+03</rscale>
<asrwt>0</asrwt>
<pdfrwt beam="1">  1       21 0.43155693E-01 0.42929547E+03</pdfrwt>
<pdfrwt beam="2">  1       21 0.10159509E+00 0.42929547E+03</pdfrwt>
<totfact> 0.35866464E+03</totfact>
</mgrwt>
</event>
<event>
 4    1  0.4732450E-002  0.4118454E+03  0.7818608E-02  0.1039754E+00
         21   -1    0    0  503  502  0.00000000000E+00  0.00000000000E+00  0.10216044036E+04  0.10216044036E+04  0.00000000000E+00 0. -1.
         21   -1    0    0  501  503 -0.00000000000E+00 -0.00000000000E+00 -0.59810288686E+03  0.59810288686E+03  0.00000000000E+00 0. -1.
    9000007    1    1    2  501    0 -0.97233960950E+02 -0.12735235500E+02 -0.47658015018E+03  0.62987718559E+03  0.40000000000E+03 0. -1.
   -9000007    1    1    2    0  502  0.97233960950E+02  0.12735235500E+02  0.90008166695E+03  0.98983010490E+03  0.40000000000E+03 0. -1.
<mgrwt>
<rscale>  2 0.41184540E+03</rscale>
<asrwt>0</asrwt>
<pdfrwt beam="1">  1       21 0.15716991E+00 0.41184540E+03</pdfrwt>
<pdfrwt beam="2">  1       21 0.92015829E-01 0.41184540E+03</pdfrwt>
<totfact> 0.21968349E+02</totfact>
</mgrwt>
</event>
<event>
 4    1  0.4732450E-002  0.4972468E+03  0.7818608E-02  0.1014500E+00
         21   -1    0    0  501  502  0.00000000000E+00  0.00000000000E+00  0.35189552577E+03  0.35189552577E+03  0.00000000000E+00 0. -1.
         21   -1    0    0  502  503 -0.00000000000E+00 -0.00000000000E+00 -0.72632281233E+03  0.72632281233E+03  0.00000000000E+00 0. -1.
    9000007    1    1    2  501    0 -0.21550018175E+03 -0.20202491782E+03 -0.89856688696E+02  0.50530052470E+03  0.40000000000E+03 0. -1.
   -9000007    1    1    2    0  503  0.21550018175E+03  0.20202491782E+03 -0.28457059786E+03  0.57291781341E+03  0.40000000000E+03 0. -1.
<mgrwt>
<rscale>  2 0.49724682E+03</rscale>
<asrwt>0</asrwt>
<pdfrwt beam="1">  1       21 0.54137773E-01 0.49724682E+03</pdfrwt>
<pdfrwt beam="2">  1       21 0.11174197E+00 0.49724682E+03</pdfrwt>
<totfact> 0.17117137E+03</totfact>
</mgrwt>
</event>
<event>
 4    1  0.4732450E-002  0.4768357E+03  0.7818608E-02  0.1020008E+00
         21   -1    0    0  503  502  0.00000000000E+00  0.00000000000E+00  0.63277134149E+03  0.63277134149E+03  0.00000000000E+00 0. -1.
         21   -1    0    0  501  503 -0.00000000000E+00 -0.00000000000E+00 -0.37957842090E+03  0.37957842090E+03  0.00000000000E+00 0. -1.
    9000007    1    1    2  501    0 -0.24527186501E+02  0.25840022832E+03  0.96814576067E+01  0.47693394878E+03  0.40000000000E+03 0. -1.
   -9000007    1    1    2    0  502  0.24527186501E+02 -0.25840022832E+03  0.24351146298E+03  0.53541581362E+03  0.40000000000E+03 0. -1.
<mgrwt>
<rscale>  2 0.47683567E+03</rscale>
<asrwt>0</asrwt>
<pdfrwt beam="1">  1       21 0.97349437E-01 0.47683567E+03</pdfrwt>
<pdfrwt beam="2">  1       21 0.58396680E-01 0.47683567E+03</pdfrwt>
<totfact> 0.20534348E+03</totfact>
</mgrwt>
</event>
<event>
 4    1  0.4732450E-002  0.5020756E+03  0.7818608E-02  0.1013239E+00
         21   -1    0    0  501  502  0.00000000000E+00  0.00000000000E+00  0.14527394783E+04  0.14527394783E+04  0.00000000000E+00 0.  1.
         21   -1    0    0  502  503 -0.00000000000E+00 -0.00000000000E+00 -0.31936859548E+03  0.31936859548E+03  0.00000000000E+00 0. -1.
    9000007    1    1    2  501    0 -0.27532204485E+03 -0.12758384949E+03  0.11654618823E+04  0.12690079850E+04  0.40000000000E+03 0.  1.
   -9000007    1    1    2    0  503  0.27532204485E+03  0.12758384949E+03 -0.32090999482E+02  0.50310008873E+03  0.40000000000E+03 0. -1.
<mgrwt>
<rscale>  2 0.50207556E+03</rscale>
<asrwt>0</asrwt>
<pdfrwt beam="1">  1       21 0.22349838E+00 0.50207556E+03</pdfrwt>
<pdfrwt beam="2">  1       21 0.49133631E-01 0.50207556E+03</pdfrwt>
<totfact> 0.29850152E+02</totfact>
</mgrwt>
</event>
<event>
 4    1  0.4732450E-002  0.4176132E+03  0.7818608E-02  0.1037846E+00
         21   -1    0    0  503  502  0.00000000000E+00  0.00000000000E+00  0.29565611453E+03  0.29565611453E+03  0.00000000000E+00 0.  1.
         21   -1    0    0  501  503 -0.00000000000E+00 -0.00000000000E+00 -0.10974158594E+04  0.10974158594E+04  0.00000000000E+00 0.  1.
    9000007    1    1    2  501    0  0.11038361283E+03 -0.47077192052E+02  0.72808258782E+02  0.42391254586E+03  0.40000000000E+03 0.  1.
   -9000007    1    1    2    0  502 -0.11038361283E+03  0.47077192052E+02 -0.87456800362E+03  0.96915942804E+03  0.40000000000E+03 0.  1.
<mgrwt>
<rscale>  2 0.41761322E+03</rscale>
<asrwt>0</asrwt>
<pdfrwt beam="1">  1       21 0.45485556E-01 0.41761322E+03</pdfrwt>
<pdfrwt beam="2">  1       21 0.16883321E+00 0.41761322E+03</pdfrwt>
<totfact> 0.85794429E+02</totfact>
</mgrwt>
</event>
<event>
 4    1  0.4732450E-002  0.4352235E+03  0.7818608E-02  0.1032222E+00
         21   -1    0    0  501  502  0.00000000000E+00  0.00000000000E+00  0.10014279414E+04  0.10014279414E+04  0.00000000000E+00 0.  1.
         21   -1    0    0  502  503 -0.00000000000E+00 -0.00000000000E+00 -0.29711529019E+03  0.29711529019E+03  0.00000000000E+00 0. -1.
    9000007    1    1    2  501    0  0.96792054734E+02  0.14160089127E+03  0.74354401464E+03  0.86155511488E+03  0.40000000000E+03 0.  1.
   -9000007    1    1    2    0  503 -0.96792054734E+02 -0.14160089127E+03 -0.39231363429E+02  0.43698811671E+03  0.40000000000E+03 0. -1.
<mgrwt>
<rscale>  2 0.43522352E+03</rscale>
<asrwt>0</asrwt>
<pdfrwt beam="1">  1       21 0.15406584E+00 0.43522352E+03</pdfrwt>
<pdfrwt beam="2">  1       21 0.45710045E-01 0.43522352E+03</pdfrwt>
<totfact> 0.10871720E+03</totfact>
</mgrwt>
</event>
<event>
 4    1  0.4732450E-002  0.4176309E+03  0.7818608E-02  0.1037840E+00
         21   -1    0    0  503  502  0.00000000000E+00  0.00000000000E+00  0.18087977677E+04  0.18087977677E+04  0.00000000000E+00 0. -1.
         21   -1    0    0  501  503 -0.00000000000E+00 -0.00000000000E+00 -0.10919311260E+03  0.10919311260E+03  0.00000000000E+00 0. -1.
    9000007    1    1    2  501    0  0.91097822008E+02  0.78209764784E+02  0.52188749545E+03  0.66841763770E+03  0.40000000000E+03 0. -1.
   -9000007    1    1    2    0  502 -0.91097822008E+02 -0.78209764784E+02  0.11777171597E+04  0.12495732426E+04  0.40000000000E+03 0. -1.
<mgrwt>
<rscale>  2 0.41763091E+03</rscale>
<asrwt>0</asrwt>
<pdfrwt beam="1">  1       21 0.27827656E+00 0.41763091E+03</pdfrwt>
<pdfrwt beam="2">  1       21 0.16798942E-01 0.41763091E+03</pdfrwt>
<totfact> 0.12052996E+03</totfact>
</mgrwt>
</event>
<event>
 4    1  0.4732450E-002  0.4087712E+03  0.7818608E-02  0.1040784E+00
         21   -1    0    0  503  502  0.00000000000E+00  0.00000000000E+00  0.38066070671E+03  0.38066070671E+03  0.00000000000E+00 0. -1.
         21   -1    0    0  501  503 -0.00000000000E+00 -0.00000000000E+00 -0.12035985863E+04  0.12035985863E+04  0.00000000000E+00 0. -1.
    9000007    1    1    2  501    0  0.62614143326E+02  0.56332639844E+02 -0.10428393575E+04  0.11200927742E+04  0.40000000000E+03 0. -1.
   -9000007    1    1    2    0  502 -0.62614143326E+02 -0.56332639844E+02  0.21990147787E+03  0.46416651885E+03  0.40000000000E+03 0. -1.
<mgrwt>
<rscale>  2 0.40877120E+03</rscale>
<asrwt>0</asrwt>
<pdfrwt beam="1">  1       21 0.58563186E-01 0.40877120E+03</pdfrwt>
<pdfrwt beam="2">  1       21 0.18516901E+00 0.40877120E+03</pdfrwt>
<totfact> 0.38483830E+02</totfact>
</mgrwt>
</event>
<event>
 4    1  0.4732450E-002  0.4751707E+03  0.7818608E-02  0.1020471E+00
         21   -1    0    0  501  502  0.00000000000E+00  0.00000000000E+00  0.45571305712E+03  0.45571305712E+03  0.00000000000E+00 0. -1.
         21   -1    0    0  502  503 -0.00000000000E+00 -0.00000000000E+00 -0.49545970110E+03  0.49545970110E+03  0.00000000000E+00 0.  1.
    9000007    1    1    2  501    0 -0.25451777281E+03  0.31747706856E+02 -0.19381463106E+02  0.47556582581E+03  0.40000000000E+03 0.  1.
   -9000007    1    1    2    0  503  0.25451777281E+03 -0.31747706856E+02 -0.20365180876E+02  0.47560693241E+03  0.40000000000E+03 0. -1.
<mgrwt>
<rscale>  2 0.47517072E+03</rscale>
<asrwt>0</asrwt>
<pdfrwt beam="1">  1       21 0.70109701E-01 0.47517072E+03</pdfrwt>
<pdfrwt beam="2">  1       21 0.76224569E-01 0.47517072E+03</pdfrwt>
<totfact> 0.24336392E+03</totfact>
</mgrwt>
</event>
<event>
 4    1  0.4732450E-002  0.5952918E+03  0.7818608E-02  0.9915223E-01
         21   -1    0    0  501  502  0.00000000000E+00  0.00000000000E+00  0.89534933275E+03  0.89534933275E+03  0.00000000000E+00 0.  1.
         21   -1    0    0  502  503 -0.00000000000E+00 -0.00000000000E+00 -0.40338568310E+03  0.40338568310E+03  0.00000000000E+00 0.  1.
    9000007    1    1    2  501    0 -0.26050864099E+03 -0.35567899309E+03  0.33507620674E+03  0.68311665364E+03  0.40000000000E+03 0.  1.
   -9000007    1    1    2    0  503  0.26050864099E+03  0.35567899309E+03  0.15688744291E+03  0.61561836222E+03  0.40000000000E+03 0.  1.
<mgrwt>
<rscale>  2 0.59529178E+03</rscale>
<asrwt>0</asrwt>
<pdfrwt beam="1">  1       21 0.13774605E+00 0.59529178E+03</pdfrwt>
<pdfrwt beam="2">  1       21 0.62059336E-01 0.59529178E+03</pdfrwt>
<totfact> 0.71654460E+02</totfact>
</mgrwt>
</event>
<event>
 4    1  0.4732450E-002  0.4217899E+03  0.7818608E-02  0.1036485E+00
         21   -1    0    0  501  502  0.00000000000E+00  0.00000000000E+00  0.76426026707E+03  0.76426026707E+03  0.00000000000E+00 0. -1.
         21   -1    0    0  502  503 -0.00000000000E+00 -0.00000000000E+00 -0.23343691751E+03  0.23343691751E+03  0.00000000000E+00 0.  1.
    9000007    1    1    2  501    0  0.11903780684E+03 -0.61129057954E+02  0.23900818382E+03  0.48480065297E+03  0.40000000000E+03 0.  1.
   -9000007    1    1    2    0  503 -0.11903780684E+03  0.61129057954E+02  0.29181516574E+03  0.51289653161E+03  0.40000000000E+03 0.  1.
<mgrwt>
<rscale>  2 0.42178995E+03</rscale>
<asrwt>0</asrwt>
<pdfrwt beam="1">  1       21 0.11757850E+00 0.42178995E+03</pdfrwt>
<pdfrwt beam="2">  1       21 0.35913372E-01 0.42178995E+03</pdfrwt>
<totfact> 0.36532220E+03</totfact>
</mgrwt>
</event>
<event>
 4    1  0.4732450E-002  0.7123266E+03  0.7818608E-02  0.9696381E-01
         21   -1    0    0  503  502  0.00000000000E+00  0.00000000000E+00  0.17676144482E+04  0.17676144482E+04  0.00000000000E+00 0. -1.
         21   -1    0    0  501  503 -0.00000000000E+00 -0.00000000000E+00 -0.54031514619E+03  0.54031514619E+03  0.00000000000E+00 0.  1.
    9000007    1    1    2  501    0  0.33258052540E+03 -0.48662038445E+03 -0.17639055893E+03  0.73384115020E+03  0.40000000000E+03 0.  1.
   -9000007    1    1    2    0  502 -0.33258052540E+03  0.48662038445E+03  0.14036898610E+04  0.15740884442E+04  0.40000000000E+03 0. -1.
<mgrwt>
<rscale>  2 0.71232661E+03</rscale>
<asrwt>0</asrwt>
<pdfrwt beam="1">  1       21 0.27194068E+00 0.71232661E+03</pdfrwt>
<pdfrwt beam="2">  1       21 0.83125408E-01 0.71232661E+03</pdfrwt>
<totfact> 0.41935953E+01</totfact>
</mgrwt>
</event>
<event>
 4    1  0.4732450E-002  0.4017662E+03  0.7818608E-02  0.1043170E+00
         21   -1    0    0  501  502  0.00000000000E+00  0.00000000000E+00  0.23033027067E+03  0.23033027067E+03  0.00000000000E+00 0. -1.
         21   -1    0    0  502  503 -0.00000000000E+00 -0.00000000000E+00 -0.70749136677E+03  0.70749136677E+03  0.00000000000E+00 0. -1.
    9000007    1    1    2  501    0  0.32849649112E+02 -0.18357993386E+02 -0.19298800132E+03  0.44571345506E+03  0.40000000000E+03 0. -1.
   -9000007    1    1    2    0  503 -0.32849649112E+02  0.18357993386E+02 -0.28417309478E+03  0.49210818238E+03  0.40000000000E+03 0. -1.
<mgrwt>
<rscale>  2 0.40176624E+03</rscale>
<asrwt>0</asrwt>
<pdfrwt beam="1">  1       21 0.35435427E-01 0.40176624E+03</pdfrwt>
<pdfrwt beam="2">  1       21 0.10884482E+00 0.40176624E+03</pdfrwt>
<totfact> 0.45830701E+03</totfact>
</mgrwt>
</event>
<event>
 4    1  0.4732450E-002  0.5967017E+03  0.7818608E-02  0.9912273E-01
         21   -1    0    0  503  502  0.00000000000E+00  0.00000000000E+00  0.58144839859E+03  0.58144839859E+03  0.00000000000E+00 0.  1.
         21   -1    0    0  501  503 -0.00000000000E+00 -0.00000000000E+00 -0.61592485522E+03  0.61592485522E+03  0.00000000000E+00 0. -1.
    9000007    1    1    2  501    0 -0.98062216652E+02 -0.43178312395E+03 -0.62816496443E+02  0.59999898057E+03  0.40000000000E+03 0. -1.
   -9000007    1    1    2    0  502  0.98062216652E+02  0.43178312395E+03  0.28340039813E+02  0.59737427323E+03  0.40000000000E+03 0.  1.
<mgrwt>
<rscale>  2 0.59670165E+03</rscale>
<asrwt>0</asrwt>
<pdfrwt beam="1">  1       21 0.89453600E-01 0.59670165E+03</pdfrwt>
<pdfrwt beam="2">  1       21 0.94757669E-01 0.59670165E+03</pdfrwt>
<totfact> 0.79745862E+02</totfact>
</mgrwt>
</event>
<event>
 4    1  0.4732450E-002  0.5340489E+03  0.7818608E-02  0.1005255E+00
         21   -1    0    0  501  502  0.00000000000E+00  0.00000000000E+00  0.49793031359E+03  0.49793031359E+03  0.00000000000E+00 0. -1.
         21   -1    0    0  502  503 -0.00000000000E+00 -0.00000000000E+00 -0.57977172556E+03  0.57977172556E+03  0.00000000000E+00 0. -1.
    9000007    1    1    2  501    0  0.77533120712E+02 -0.34524899704E+03  0.18221785623E+02  0.53435969930E+03  0.40000000000E+03 0. -1.
   -9000007    1    1    2    0  503 -0.77533120712E+02  0.34524899704E+03 -0.10006319760E+03  0.54334233985E+03  0.40000000000E+03 0. -1.
<mgrwt>
<rscale>  2 0.53404893E+03</rscale>
<asrwt>0</asrwt>
<pdfrwt beam="1">  1       21 0.76604664E-01 0.53404893E+03</pdfrwt>
<pdfrwt beam="2">  1       21 0.89195650E-01 0.53404893E+03</pdfrwt>
<totfact> 0.13518325E+03</totfact>
</mgrwt>
</event>
<event>
 4    1  0.4732450E-002  0.4581668E+03  0.7818608E-02  0.1025314E+00
         21   -1    0    0  503  502  0.00000000000E+00  0.00000000000E+00  0.23499775411E+03  0.23499775411E+03  0.00000000000E+00 0.  1.
         21   -1    0    0  501  503 -0.00000000000E+00 -0.00000000000E+00 -0.19918824776E+04  0.19918824776E+04  0.00000000000E+00 0.  1.
    9000007    1    1    2  501    0  0.20091658540E+03  0.97720688806E+02 -0.17053499297E+04  0.17658242240E+04  0.40000000000E+03 0.  1.
   -9000007    1    1    2    0  502 -0.20091658540E+03 -0.97720688806E+02 -0.51534793822E+02  0.46105600775E+03  0.40000000000E+03 0.  1.
<mgrwt>
<rscale>  2 0.45816679E+03</rscale>
<asrwt>0</asrwt>
<pdfrwt beam="1">  1       21 0.36153502E-01 0.45816679E+03</pdfrwt>
<pdfrwt beam="2">  1       21 0.30644345E+00 0.45816679E+03</pdfrwt>
<totfact> 0.17950228E+02</totfact>
</mgrwt>
</event>
<event>
 4    1  0.4732450E-002  0.5193865E+03  0.7818608E-02  0.1008839E+00
         21   -1    0    0  503  502  0.00000000000E+00  0.00000000000E+00  0.61211797832E+03  0.61211797832E+03  0.00000000000E+00 0. -1.
         21   -1    0    0  501  503 -0.00000000000E+00 -0.00000000000E+00 -0.44644677163E+03  0.44644677163E+03  0.00000000000E+00 0. -1.
    9000007    1    1    2  501    0  0.13933840768E+03  0.30057802148E+03  0.22802000112E+02  0.51988678581E+03  0.40000000000E+03 0. -1.
   -9000007    1    1    2    0  502 -0.13933840768E+03 -0.30057802148E+03  0.14286920658E+03  0.53867796413E+03  0.40000000000E+03 0. -1.
<mgrwt>
<rscale>  2 0.51938650E+03</rscale>
<asrwt>0</asrwt>
<pdfrwt beam="1">  1       21 0.94171997E-01 0.51938650E+03</pdfrwt>
<pdfrwt beam="2">  1       21 0.68684118E-01 0.51938650E+03</pdfrwt>
<totfact> 0.15295916E+03</totfact>
</mgrwt>
</event>
<event>
 4    1  0.4732450E-002  0.5161342E+03  0.7818608E-02  0.1009651E+00
         21   -1    0    0  503  502  0.00000000000E+00  0.00000000000E+00  0.13637793141E+04  0.13637793141E+04  0.00000000000E+00 0. -1.
         21   -1    0    0  501  503 -0.00000000000E+00 -0.00000000000E+00 -0.20209084434E+03  0.20209084434E+03  0.00000000000E+00 0.  1.
    9000007    1    1    2  501    0 -0.31665087532E+03  0.78273633247E+02  0.43769942512E+03  0.67673874225E+03  0.40000000000E+03 0.  1.
   -9000007    1    1    2    0  502  0.31665087532E+03 -0.78273633247E+02  0.72398904460E+03  0.88913141616E+03  0.40000000000E+03 0. -1.
<mgrwt>
<rscale>  2 0.51613423E+03</rscale>
<asrwt>0</asrwt>
<pdfrwt beam="1">  1       21 0.20981220E+00 0.51613423E+03</pdfrwt>
<pdfrwt beam="2">  1       21 0.31090900E-01 0.51613423E+03</pdfrwt>
<totfact> 0.93417471E+02</totfact>
</mgrwt>
</event>
<event>
 4    1  0.4732450E-002  0.4814471E+03  0.7818608E-02  0.1018738E+00
         21   -1    0    0  503  502  0.00000000000E+00  0.00000000000E+00  0.29463445804E+03  0.29463445804E+03  0.00000000000E+00 0. -1.
         21   -1    0    0  501  503 -0.00000000000E+00 -0.00000000000E+00 -0.96582486496E+03  0.96582486496E+03  0.00000000000E+00 0.  1.
    9000007    1    1    2  501    0 -0.16799110296E+03 -0.20873495426E+03 -0.60700021376E+03  0.77475192888E+03  0.40000000000E+03 0.  1.
   -9000007    1    1    2    0  502  0.16799110296E+03  0.20873495426E+03 -0.64190193161E+02  0.48570739412E+03  0.40000000000E+03 0. -1.
<mgrwt>
<rscale>  2 0.48144708E+03</rscale>
<asrwt>0</asrwt>
<pdfrwt beam="1">  1       21 0.45328379E-01 0.48144708E+03</pdfrwt>
<pdfrwt beam="2">  1       21 0.14858844E+00 0.48144708E+03</pdfrwt>
<totfact> 0.11977993E+03</totfact>
</mgrwt>
</event>
<event>
 4    1  0.4732450E-002  0.4805295E+03  0.7818608E-02  0.1018990E+00
         21   -1    0    0  501  502  0.00000000000E+00  0.00000000000E+00  0.18932528240E+03  0.18932528240E+03  0.00000000000E+00 0. -1.
         21   -1    0    0  502  503 -0.00000000000E+00 -0.00000000000E+00 -0.13298364035E+04  0.13298364035E+04  0.00000000000E+00 0.  1.
    9000007    1    1    2  501    0  0.10965603251E+03  0.24266059344E+03 -0.35160055685E+03  0.59542552905E+03  0.40000000000E+03 0. -1.
   -9000007    1    1    2    0  503 -0.10965603251E+03 -0.24266059344E+03 -0.78891056429E+03  0.92373615688E+03  0.40000000000E+03 0. -1.
<mgrwt>
<rscale>  2 0.48052951E+03</rscale>
<asrwt>0</asrwt>
<pdfrwt beam="1">  1       21 0.29126967E-01 0.48052951E+03</pdfrwt>
<pdfrwt beam="2">  1       21 0.20459021E+00 0.48052951E+03</pdfrwt>
<totfact> 0.11685131E+03</totfact>
</mgrwt>
</event>
<event>
 4    1  0.4732450E-002  0.4281106E+03  0.7818608E-02  0.1034458E+00
         21   -1    0    0  501  502  0.00000000000E+00  0.00000000000E+00  0.61586284484E+03  0.61586284484E+03  0.00000000000E+00 0. -1.
         21   -1    0    0  502  503 -0.00000000000E+00 -0.00000000000E+00 -0.33081021053E+03  0.33081021053E+03  0.00000000000E+00 0. -1.
    9000007    1    1    2  501    0  0.12856510323E+03  0.82156323712E+02  0.29250828640E+03  0.51849758428E+03  0.40000000000E+03 0. -1.
   -9000007    1    1    2    0  503 -0.12856510323E+03 -0.82156323712E+02 -0.74556520817E+01  0.42817547109E+03  0.40000000000E+03 0. -1.
<mgrwt>
<rscale>  2 0.42811055E+03</rscale>
<asrwt>0</asrwt>
<pdfrwt beam="1">  1       21 0.94748130E-01 0.42811055E+03</pdfrwt>
<pdfrwt beam="2">  1       21 0.50893879E-01 0.42811055E+03</pdfrwt>
<totfact> 0.30009079E+03</totfact>
</mgrwt>
</event>
<event>
 4    1  0.4732450E-002  0.4937268E+03  0.7818608E-02  0.1015429E+00
         21   -1    0    0  503  502  0.00000000000E+00  0.00000000000E+00  0.99387751313E+03  0.99387751313E+03  0.00000000000E+00 0.  1.
         21   -1    0    0  501  503 -0.00000000000E+00 -0.00000000000E+00 -0.10422974201E+04  0.10422974201E+04  0.00000000000E+00 0.  1.
    9000007    1    1    2  501    0 -0.20539834928E+03 -0.20390595634E+03 -0.91448971053E+03  0.10392581737E+04  0.40000000000E+03 0. -1.
   -9000007    1    1    2    0  502  0.20539834928E+03  0.20390595634E+03  0.86606980353E+03  0.99691675956E+03  0.40000000000E+03 0. -1.
<mgrwt>
<rscale>  2 0.49372677E+03</rscale>
<asrwt>0</asrwt>
<pdfrwt beam="1">  1       21 0.15290423E+00 0.49372677E+03</pdfrwt>
<pdfrwt beam="2">  1       21 0.16035345E+00 0.49372677E+03</pdfrwt>
<totfact> 0.54633528E+01</totfact>
</mgrwt>
</event>
<event>
 4    1  0.4732450E-002  0.5346454E+03  0.7818608E-02  0.1005112E+00
         21   -1    0    0  503  502  0.00000000000E+00  0.00000000000E+00  0.44614972833E+03  0.44614972833E+03  0.00000000000E+00 0. -1.
         21   -1    0    0  501  503 -0.00000000000E+00 -0.00000000000E+00 -0.75326056686E+03  0.75326056686E+03  0.00000000000E+00 0. -1.
    9000007    1    1    2  501    0 -0.17651474837E+03 -0.30771457981E+03 -0.38538493337E+03  0.65906544887E+03  0.40000000000E+03 0. -1.
   -9000007    1    1    2    0  502  0.17651474837E+03  0.30771457981E+03  0.78274094840E+02  0.54034484632E+03  0.40000000000E+03 0. -1.
<mgrwt>
<rscale>  2 0.53464541E+03</rscale>
<asrwt>0</asrwt>
<pdfrwt beam="1">  1       21 0.68638420E-01 0.53464541E+03</pdfrwt>
<pdfrwt beam="2">  1       21 0.11588624E+00 0.53464541E+03</pdfrwt>
<totfact> 0.91403909E+02</totfact>
</mgrwt>
</event>
<event>
 4    1  0.4732450E-002  0.4680961E+03  0.7818608E-02  0.1022459E+00
         21   -1    0    0  501  502  0.00000000000E+00  0.00000000000E+00  0.86333682179E+03  0.86333682179E+03  0.00000000000E+00 0.  1.
         21   -1    0    0  502  503 -0.00000000000E+00 -0.00000000000E+00 -0.27492851627E+03  0.27492851627E+03  0.00000000000E+00 0. -1.
    9000007    1    1    2  501    0  0.12068980795E+03  0.21106390883E+03  0.45198294270E+03  0.65069392486E+03  0.40000000000E+03 0.  1.
   -9000007    1    1    2    0  503 -0.12068980795E+03 -0.21106390883E+03  0.13642536282E+03  0.48757141320E+03  0.40000000000E+03 0. -1.
<mgrwt>
<rscale>  2 0.46809615E+03</rscale>
<asrwt>0</asrwt>
<pdfrwt beam="1">  1       21 0.13282105E+00 0.46809615E+03</pdfrwt>
<pdfrwt beam="2">  1       21 0.42296695E-01 0.46809615E+03</pdfrwt>
<totfact> 0.18761781E+03</totfact>
</mgrwt>
</event>
<event>
 4    1  0.4732450E-002  0.4546196E+03  0.7818608E-02  0.1026353E+00
         21   -1    0    0  501  502  0.00000000000E+00  0.00000000000E+00  0.10107342565E+04  0.10107342565E+04  0.00000000000E+00 0.  1.
         21   -1    0    0  502  503 -0.00000000000E+00 -0.00000000000E+00 -0.22632752270E+03  0.22632752270E+03  0.00000000000E+00 0.  1.
    9000007    1    1    2  501    0  0.58511072965E+02  0.20797947549E+03  0.58435930490E+03  0.74037477342E+03  0.40000000000E+03 0.  1.
   -9000007    1    1    2    0  503 -0.58511072965E+02 -0.20797947549E+03  0.20004742887E+03  0.49668700575E+03  0.40000000000E+03 0.  1.
<mgrwt>
<rscale>  2 0.45461963E+03</rscale>
<asrwt>0</asrwt>
<pdfrwt beam="1">  1       21 0.15549757E+00 0.45461963E+03</pdfrwt>
<pdfrwt beam="2">  1       21 0.34819620E-01 0.45461963E+03</pdfrwt>
<totfact> 0.18412935E+03</totfact>
</mgrwt>
</event>
<event>
 4    1  0.4732450E-002  0.4481014E+03  0.7818608E-02  0.1028290E+00
         21   -1    0    0  503  502  0.00000000000E+00  0.00000000000E+00  0.13003458722E+03  0.13003458722E+03  0.00000000000E+00 0.  1.
         21   -1    0    0  501  503 -0.00000000000E+00 -0.00000000000E+00 -0.15442499850E+04  0.15442499850E+04  0.00000000000E+00 0.  1.
    9000007    1    1    2  501    0 -0.12060464584E+02 -0.20161693522E+03 -0.71332219647E+03  0.84239147630E+03  0.40000000000E+03 0. -1.
   -9000007    1    1    2    0  502  0.12060464584E+02  0.20161693522E+03 -0.70089320127E+03  0.83189309587E+03  0.40000000000E+03 0. -1.
<mgrwt>
<rscale>  2 0.44810138E+03</rscale>
<asrwt>0</asrwt>
<pdfrwt beam="1">  1       21 0.20005320E-01 0.44810138E+03</pdfrwt>
<pdfrwt beam="2">  1       21 0.23757693E+00 0.44810138E+03</pdfrwt>
<totfact> 0.15118157E+03</totfact>
</mgrwt>
</event>
<event>
 4    1  0.4732450E-002  0.4249211E+03  0.7818608E-02  0.1035476E+00
         21   -1    0    0  503  502  0.00000000000E+00  0.00000000000E+00  0.16598383360E+04  0.16598383360E+04  0.00000000000E+00 0.  1.
         21   -1    0    0  501  503 -0.00000000000E+00 -0.00000000000E+00 -0.69394442264E+03  0.69394442264E+03  0.00000000000E+00 0.  1.
    9000007    1    1    2  501    0  0.12568265190E+03  0.69005940540E+02 -0.59777214939E+03  0.73340949776E+03  0.40000000000E+03 0.  1.
   -9000007    1    1    2    0  502 -0.12568265190E+03 -0.69005940540E+02  0.15636660627E+04  0.16203732609E+04  0.40000000000E+03 0.  1.
<mgrwt>
<rscale>  2 0.42492111E+03</rscale>
<asrwt>0</asrwt>
<pdfrwt beam="1">  1       21 0.25535974E+00 0.42492111E+03</pdfrwt>
<pdfrwt beam="2">  1       21 0.10676068E+00 0.42492111E+03</pdfrwt>
<totfact> 0.33785843E+01</totfact>
</mgrwt>
</event>
<event>
 4    1  0.4732450E-002  0.4791254E+03  0.7818608E-02  0.1019376E+00
         21   -1    0    0  503  502  0.00000000000E+00  0.00000000000E+00  0.20317070356E+03  0.20317070356E+03  0.00000000000E+00 0.  1.
         21   -1    0    0  501  503 -0.00000000000E+00 -0.00000000000E+00 -0.12176191721E+04  0.12176191721E+04  0.00000000000E+00 0.  1.
    9000007    1    1    2  501    0  0.26230464391E+03  0.27521462107E+02 -0.69790579263E+03  0.84654217407E+03  0.40000000000E+03 0.  1.
   -9000007    1    1    2    0  502 -0.26230464391E+03 -0.27521462107E+02 -0.31654267591E+03  0.57424770158E+03  0.40000000000E+03 0.  1.
<mgrwt>
<rscale>  2 0.47912541E+03</rscale>
<asrwt>0</asrwt>
<pdfrwt beam="1">  1       21 0.31257031E-01 0.47912541E+03</pdfrwt>
<pdfrwt beam="2">  1       21 0.18732603E+00 0.47912541E+03</pdfrwt>
<totfact> 0.13290186E+03</totfact>
</mgrwt>
</event>
<event>
 4    1  0.4732450E-002  0.5300487E+03  0.7818608E-02  0.1006220E+00
         21   -1    0    0  503  502  0.00000000000E+00  0.00000000000E+00  0.43273016466E+03  0.43273016466E+03  0.00000000000E+00 0.  1.
         21   -1    0    0  501  503 -0.00000000000E+00 -0.00000000000E+00 -0.95095884737E+03  0.95095884737E+03  0.00000000000E+00 0.  1.
    9000007    1    1    2  501    0 -0.26808824707E+03  0.22154066517E+03  0.13057554773E+03  0.54589518060E+03  0.40000000000E+03 0.  1.
   -9000007    1    1    2    0  502  0.26808824707E+03 -0.22154066517E+03 -0.64880423044E+03  0.83779383143E+03  0.40000000000E+03 0.  1.
<mgrwt>
<rscale>  2 0.53004865E+03</rscale>
<asrwt>0</asrwt>
<pdfrwt beam="1">  1       21 0.66573872E-01 0.53004865E+03</pdfrwt>
<pdfrwt beam="2">  1       21 0.14630136E+00 0.53004865E+03</pdfrwt>
<totfact> 0.53317868E+02</totfact>
</mgrwt>
</event>
<event>
 4    1  0.4732450E-002  0.4206187E+03  0.7818608E-02  0.1036865E+00
         21   -1    0    0  503  502  0.00000000000E+00  0.00000000000E+00  0.25120040759E+03  0.25120040759E+03  0.00000000000E+00 0. -1.
         21   -1    0    0  501  503 -0.00000000000E+00 -0.00000000000E+00 -0.70436213434E+03  0.70436213434E+03  0.00000000000E+00 0.  1.
    9000007    1    1    2  501    0  0.12895993041E+03 -0.17013440365E+02 -0.23111494374E+03  0.47993149305E+03  0.40000000000E+03 0. -1.
   -9000007    1    1    2    0  502 -0.12895993041E+03  0.17013440365E+02 -0.22204678301E+03  0.47563104887E+03  0.40000000000E+03 0. -1.
<mgrwt>
<rscale>  2 0.42061874E+03</rscale>
<asrwt>0</asrwt>
<pdfrwt beam="1">  1       21 0.38646217E-01 0.42061874E+03</pdfrwt>
<pdfrwt beam="2">  1       21 0.10836340E+00 0.42061874E+03</pdfrwt>
<totfact> 0.38564388E+03</totfact>
</mgrwt>
</event>
<event>
 4    1  0.4732450E-002  0.6756935E+03  0.7818608E-02  0.9759727E-01
         21   -1    0    0  503  502  0.00000000000E+00  0.00000000000E+00  0.16594736663E+04  0.16594736663E+04  0.00000000000E+00 0.  1.
         21   -1    0    0  501  503 -0.00000000000E+00 -0.00000000000E+00 -0.27581064188E+03  0.27581064188E+03  0.00000000000E+00 0.  1.
    9000007    1    1    2  501    0 -0.30913265934E+03 -0.44832882205E+03  0.64356556634E+03  0.93313363027E+03  0.40000000000E+03 0.  1.
   -9000007    1    1    2    0  502  0.30913265934E+03  0.44832882205E+03  0.74009745804E+03  0.10021506779E+04  0.40000000000E+03 0.  1.
<mgrwt>
<rscale>  2 0.67569352E+03</rscale>
<asrwt>0</asrwt>
<pdfrwt beam="1">  1       21 0.25530363E+00 0.67569352E+03</pdfrwt>
<pdfrwt beam="2">  1       21 0.42432407E-01 0.67569352E+03</pdfrwt>
<totfact> 0.23888107E+02</totfact>
</mgrwt>
</event>
<event>
 4    1  0.4732450E-002  0.4562028E+03  0.7818608E-02  0.1025888E+00
         21   -1    0    0  501  502  0.00000000000E+00  0.00000000000E+00  0.40325287150E+03  0.40325287150E+03  0.00000000000E+00 0.  1.
         21   -1    0    0  502  503 -0.00000000000E+00 -0.00000000000E+00 -0.60157024877E+03  0.60157024877E+03  0.00000000000E+00 0.  1.
    9000007    1    1    2  501    0  0.18035976180E+03  0.12486547562E+03  0.90210763351E+02  0.46503657115E+03  0.40000000000E+03 0.  1.
   -9000007    1    1    2    0  503 -0.18035976180E+03 -0.12486547562E+03 -0.28852814063E+03  0.53978654912E+03  0.40000000000E+03 0.  1.
<mgrwt>
<rscale>  2 0.45620284E+03</rscale>
<asrwt>0</asrwt>
<pdfrwt beam="1">  1       21 0.62038904E-01 0.45620284E+03</pdfrwt>
<pdfrwt beam="2">  1       21 0.92549269E-01 0.45620284E+03</pdfrwt>
<totfact> 0.20452219E+03</totfact>
</mgrwt>
</event>
<event>
 4    1  0.4732450E-002  0.4248316E+03  0.7818608E-02  0.1035505E+00
         21   -1    0    0  501  502  0.00000000000E+00  0.00000000000E+00  0.10043412587E+04  0.10043412587E+04  0.00000000000E+00 0.  1.
         21   -1    0    0  502  503 -0.00000000000E+00 -0.00000000000E+00 -0.31064072217E+03  0.31064072217E+03  0.00000000000E+00 0. -1.
    9000007    1    1    2  501    0  0.12030465996E+03  0.77515864697E+02  0.77371965712E+03  0.88268002600E+03  0.40000000000E+03 0.  1.
   -9000007    1    1    2    0  503 -0.12030465996E+03 -0.77515864697E+02 -0.80019120617E+02  0.43230195483E+03  0.40000000000E+03 0. -1.
<mgrwt>
<rscale>  2 0.42483164E+03</rscale>
<asrwt>0</asrwt>
<pdfrwt beam="1">  1       21 0.15451404E+00 0.42483164E+03</pdfrwt>
<pdfrwt beam="2">  1       21 0.47790881E-01 0.42483164E+03</pdfrwt>
<totfact> 0.98671549E+02</totfact>
</mgrwt>
</event>
<event>
 4    1  0.4732450E-002  0.5533138E+03  0.7818608E-02  0.1000730E+00
         21   -1    0    0  503  502  0.00000000000E+00  0.00000000000E+00  0.51177120650E+03  0.51177120650E+03  0.00000000000E+00 0. -1.
         21   -1    0    0  501  503 -0.00000000000E+00 -0.00000000000E+00 -0.60575058824E+03  0.60575058824E+03  0.00000000000E+00 0. -1.
    9000007    1    1    2  501    0 -0.21229893646E+03 -0.31793914060E+03 -0.10925519187E+03  0.56399719192E+03  0.40000000000E+03 0. -1.
   -9000007    1    1    2    0  502  0.21229893646E+03  0.31793914060E+03  0.15275810135E+02  0.55352460281E+03  0.40000000000E+03 0. -1.
<mgrwt>
<rscale>  2 0.55331378E+03</rscale>
<asrwt>0</asrwt>
<pdfrwt beam="1">  1       21 0.78734032E-01 0.55331378E+03</pdfrwt>
<pdfrwt beam="2">  1       21 0.93192398E-01 0.55331378E+03</pdfrwt>
<totfact> 0.11357774E+03</totfact>
</mgrwt>
</event>
<event>
 4    1  0.4732450E-002  0.4258015E+03  0.7818608E-02  0.1035194E+00
         21   -1    0    0  501  502  0.00000000000E+00  0.00000000000E+00  0.15380495738E+04  0.15380495738E+04  0.00000000000E+00 0. -1.
         21   -1    0    0  502  503 -0.00000000000E+00 -0.00000000000E+00 -0.12111694137E+03  0.12111694137E+03  0.00000000000E+00 0. -1.
    9000007    1    1    2  501    0  0.13794923171E+03  0.47717526438E+02  0.84406395779E+03  0.94538400542E+03  0.40000000000E+03 0. -1.
   -9000007    1    1    2    0  503 -0.13794923171E+03 -0.47717526438E+02  0.57286867464E+03  0.71378250976E+03  0.40000000000E+03 0. -1.
<mgrwt>
<rscale>  2 0.42580154E+03</rscale>
<asrwt>0</asrwt>
<pdfrwt beam="1">  1       21 0.23662300E+00 0.42580154E+03</pdfrwt>
<pdfrwt beam="2">  1       21 0.18633377E-01 0.42580154E+03</pdfrwt>
<totfact> 0.17723801E+03</totfact>
</mgrwt>
</event>
<event>
 4    1  0.4732450E-002  0.4019141E+03  0.7818608E-02  0.1043119E+00
         21   -1    0    0  501  502  0.00000000000E+00  0.00000000000E+00  0.38663167197E+03  0.38663167197E+03  0.00000000000E+00 0.  1.
         21   -1    0    0  502  503 -0.00000000000E+00 -0.00000000000E+00 -0.41900900010E+03  0.41900900010E+03  0.00000000000E+00 0.  1.
    9000007    1    1    2  501    0 -0.30717325412E+02  0.24318044185E+02 -0.37821619730E+02  0.40368972773E+03  0.40000000000E+03 0.  1.
   -9000007    1    1    2    0  503  0.30717325412E+02 -0.24318044185E+02  0.54442915981E+01  0.40195094435E+03  0.40000000000E+03 0.  1.
<mgrwt>
<rscale>  2 0.40191407E+03</rscale>
<asrwt>0</asrwt>
<pdfrwt beam="1">  1       21 0.59481796E-01 0.40191407E+03</pdfrwt>
<pdfrwt beam="2">  1       21 0.64462923E-01 0.40191407E+03</pdfrwt>
<totfact> 0.52457815E+03</totfact>
</mgrwt>
</event>
<event>
 4    1  0.4732450E-002  0.1274073E+04  0.7818608E-02  0.9050382E-01
         21   -1    0    0  501  502  0.00000000000E+00  0.00000000000E+00  0.21973138726E+04  0.21973138726E+04  0.00000000000E+00 0.  1.
         21   -1    0    0  502  503 -0.00000000000E+00 -0.00000000000E+00 -0.79235503636E+03  0.79235503636E+03  0.00000000000E+00 0. -1.
    9000007    1    1    2  501    0 -0.45737572650E+03  0.11198527156E+04  0.10912930196E+04  0.16775527158E+04  0.40000000000E+03 0.  1.
   -9000007    1    1    2    0  503  0.45737572650E+03 -0.11198527156E+04  0.31366581662E+03  0.13121161931E+04  0.40000000000E+03 0. -1.
<mgrwt>
<rscale>  2 0.12740733E+04</rscale>
<asrwt>0</asrwt>
<pdfrwt beam="1">  1       21 0.33804828E+00 0.12740733E+04</pdfrwt>
<pdfrwt beam="2">  1       21 0.12190078E+00 0.12740733E+04</pdfrwt>
<totfact> 0.52701678E+00</totfact>
</mgrwt>
</event>
<event>
 4    1  0.4732450E-002  0.5690064E+03  0.7818608E-02  0.9971880E-01
         21   -1    0    0  503  502  0.00000000000E+00  0.00000000000E+00  0.20973387100E+03  0.20973387100E+03  0.00000000000E+00 0. -1.
         21   -1    0    0  501  503 -0.00000000000E+00 -0.00000000000E+00 -0.21144465930E+04  0.21144465930E+04  0.00000000000E+00 0.  1.
    9000007    1    1    2  501    0 -0.21844828175E+03  0.34065915964E+03 -0.15561093249E+04  0.16568779514E+04  0.40000000000E+03 0.  1.
   -9000007    1    1    2    0  502  0.21844828175E+03 -0.34065915964E+03 -0.34860339712E+03  0.66730251260E+03  0.40000000000E+03 0. -1.
<mgrwt>
<rscale>  2 0.56900643E+03</rscale>
<asrwt>0</asrwt>
<pdfrwt beam="1">  1       21 0.32266747E-01 0.56900643E+03</pdfrwt>
<pdfrwt beam="2">  1       21 0.32529950E+00 0.56900643E+03</pdfrwt>
<totfact> 0.16341959E+02</totfact>
</mgrwt>
</event>
<event>
 4    1  0.4732450E-002  0.4183824E+03  0.7818608E-02  0.1037594E+00
         21   -1    0    0  503  502  0.00000000000E+00  0.00000000000E+00  0.11005735973E+04  0.11005735973E+04  0.00000000000E+00 0. -1.
         21   -1    0    0  501  503 -0.00000000000E+00 -0.00000000000E+00 -0.28550596085E+03  0.28550596085E+03  0.00000000000E+00 0. -1.
    9000007    1    1    2  501    0 -0.11574110149E+03 -0.40593377796E+02 -0.53703012628E+02  0.42181493390E+03  0.40000000000E+03 0. -1.
   -9000007    1    1    2    0  502  0.11574110149E+03  0.40593377796E+02  0.86877064910E+03  0.96426462428E+03  0.40000000000E+03 0. -1.
<mgrwt>
<rscale>  2 0.41838239E+03</rscale>
<asrwt>0</asrwt>
<pdfrwt beam="1">  1       21 0.16931901E+00 0.41838239E+03</pdfrwt>
<pdfrwt beam="2">  1       21 0.43923994E-01 0.41838239E+03</pdfrwt>
<totfact> 0.91509262E+02</totfact>
</mgrwt>
</event>
<event>
 4    1  0.4732450E-002  0.4371409E+03  0.7818608E-02  0.1031628E+00
         21   -1    0    0  501  502  0.00000000000E+00  0.00000000000E+00  0.12098648201E+04  0.12098648201E+04  0.00000000000E+00 0.  1.
         21   -1    0    0  502  503 -0.00000000000E+00 -0.00000000000E+00 -0.40249653737E+03  0.40249653737E+03  0.00000000000E+00 0.  1.
    9000007    1    1    2  501    0  0.12808580271E+02 -0.17586387144E+03  0.10320845581E+04  0.11208437429E+04  0.40000000000E+03 0.  1.
   -9000007    1    1    2    0  503 -0.12808580271E+02  0.17586387144E+03 -0.22471627535E+03  0.49151761455E+03  0.40000000000E+03 0.  1.
<mgrwt>
<rscale>  2 0.43714089E+03</rscale>
<asrwt>0</asrwt>
<pdfrwt beam="1">  1       21 0.18613305E+00 0.43714089E+03</pdfrwt>
<pdfrwt beam="2">  1       21 0.61922545E-01 0.43714089E+03</pdfrwt>
<totfact> 0.33040214E+02</totfact>
</mgrwt>
</event>
<event>
 4    1  0.4732450E-002  0.4517672E+03  0.7818608E-02  0.1027196E+00
         21   -1    0    0  503  502  0.00000000000E+00  0.00000000000E+00  0.13050412592E+04  0.13050412592E+04  0.00000000000E+00 0. -1.
         21   -1    0    0  501  503 -0.00000000000E+00 -0.00000000000E+00 -0.17327602857E+03  0.17327602857E+03  0.00000000000E+00 0. -1.
    9000007    1    1    2  501    0  0.20988761176E+03 -0.63854092383E+01  0.33512815444E+03  0.56249841148E+03  0.40000000000E+03 0.  1.
   -9000007    1    1    2    0  502 -0.20988761176E+03  0.63854092383E+01  0.79663707618E+03  0.91581887629E+03  0.40000000000E+03 0.  1.
<mgrwt>
<rscale>  2 0.45176718E+03</rscale>
<asrwt>0</asrwt>
<pdfrwt beam="1">  1       21 0.20077557E+00 0.45176718E+03</pdfrwt>
<pdfrwt beam="2">  1       21 0.26657851E-01 0.45176718E+03</pdfrwt>
<totfact> 0.14935634E+03</totfact>
</mgrwt>
</event>
<event>
 4    1  0.4732450E-002  0.4359339E+03  0.7818608E-02  0.1032002E+00
         21   -1    0    0  503  502  0.00000000000E+00  0.00000000000E+00  0.74995258995E+03  0.74995258995E+03  0.00000000000E+00 0. -1.
         21   -1    0    0  501  503 -0.00000000000E+00 -0.00000000000E+00 -0.32104231768E+03  0.32104231768E+03  0.00000000000E+00 0. -1.
    9000007    1    1    2  501    0 -0.16158937764E+03  0.62667544257E+02 -0.31346042156E+02  0.43705940378E+03  0.40000000000E+03 0. -1.
   -9000007    1    1    2    0  502  0.16158937764E+03 -0.62667544257E+02  0.46025631443E+03  0.63393550385E+03  0.40000000000E+03 0. -1.
<mgrwt>
<rscale>  2 0.43593388E+03</rscale>
<asrwt>0</asrwt>
<pdfrwt beam="1">  1       21 0.11537732E+00 0.43593388E+03</pdfrwt>
<pdfrwt beam="2">  1       21 0.49391126E-01 0.43593388E+03</pdfrwt>
<totfact> 0.19674701E+03</totfact>
</mgrwt>
</event>
<event>
 4    1  0.4732450E-002  0.4656308E+03  0.7818608E-02  0.1023161E+00
         21   -1    0    0  501  502  0.00000000000E+00  0.00000000000E+00  0.42155737313E+03  0.42155737313E+03  0.00000000000E+00 0.  1.
         21   -1    0    0  502  503 -0.00000000000E+00 -0.00000000000E+00 -0.93165473793E+03  0.93165473793E+03  0.00000000000E+00 0.  1.
    9000007    1    1    2  501    0  0.16373242355E+03 -0.17321586080E+03  0.19780174414E+03  0.50590272873E+03  0.40000000000E+03 0.  1.
   -9000007    1    1    2    0  503 -0.16373242355E+03  0.17321586080E+03 -0.70789910893E+03  0.84730938233E+03  0.40000000000E+03 0.  1.
<mgrwt>
<rscale>  2 0.46563080E+03</rscale>
<asrwt>0</asrwt>
<pdfrwt beam="1">  1       21 0.64854981E-01 0.46563080E+03</pdfrwt>
<pdfrwt beam="2">  1       21 0.14333150E+00 0.46563080E+03</pdfrwt>
<totfact> 0.61326897E+02</totfact>
</mgrwt>
</event>
<event>
 4    1  0.4732450E-002  0.7864924E+03  0.7818608E-02  0.9579777E-01
         21   -1    0    0  503  502  0.00000000000E+00  0.00000000000E+00  0.52041573654E+03  0.52041573654E+03  0.00000000000E+00 0. -1.
         21   -1    0    0  501  503 -0.00000000000E+00 -0.00000000000E+00 -0.12142077454E+04  0.12142077454E+04  0.00000000000E+00 0.  1.
    9000007    1    1    2  501    0  0.46805645900E+03 -0.48938065749E+03 -0.47283118072E+03  0.91768164534E+03  0.40000000000E+03 0. -1.
   -9000007    1    1    2    0  502 -0.46805645900E+03  0.48938065749E+03 -0.22096082810E+03  0.81694183655E+03  0.40000000000E+03 0.  1.
<mgrwt>
<rscale>  2 0.78649239E+03</rscale>
<asrwt>0</asrwt>
<pdfrwt beam="1">  1       21 0.80063960E-01 0.78649239E+03</pdfrwt>
<pdfrwt beam="2">  1       21 0.18680119E+00 0.78649239E+03</pdfrwt>
<totfact> 0.15953279E+02</totfact>
</mgrwt>
</event>
<event>
 4    1  0.4732450E-002  0.4474133E+03  0.7818608E-02  0.1028496E+00
         21   -1    0    0  501  502  0.00000000000E+00  0.00000000000E+00  0.23723195105E+04  0.23723195105E+04  0.00000000000E+00 0.  1.
         21   -1    0    0  502  503 -0.00000000000E+00 -0.00000000000E+00 -0.89058117505E+02  0.89058117505E+02  0.00000000000E+00 0.  1.
    9000007    1    1    2  501    0 -0.35746058677E+02  0.19723307056E+03  0.14236645115E+04  0.14923134074E+04  0.40000000000E+03 0.  1.
   -9000007    1    1    2    0  503  0.35746058677E+02 -0.19723307056E+03  0.85959688153E+03  0.96906422056E+03  0.40000000000E+03 0.  1.
<mgrwt>
<rscale>  2 0.44741330E+03</rscale>
<asrwt>0</asrwt>
<pdfrwt beam="1">  1       21 0.36497219E+00 0.44741330E+03</pdfrwt>
<pdfrwt beam="2">  1       21 0.13701251E-01 0.44741330E+03</pdfrwt>
<totfact> 0.51612975E+02</totfact>
</mgrwt>
</event>
<event>
 4    1  0.4732450E-002  0.4654970E+03  0.7818608E-02  0.1023199E+00
         21   -1    0    0  503  502  0.00000000000E+00  0.00000000000E+00  0.25016924887E+03  0.25016924887E+03  0.00000000000E+00 0. -1.
         21   -1    0    0  501  503 -0.00000000000E+00 -0.00000000000E+00 -0.11823442272E+04  0.11823442272E+04  0.00000000000E+00 0. -1.
    9000007    1    1    2  501    0 -0.17592016246E+03  0.16043551006E+03 -0.83648195842E+03  0.95728236337E+03  0.40000000000E+03 0. -1.
   -9000007    1    1    2    0  502  0.17592016246E+03 -0.16043551006E+03 -0.95693019938E+02  0.47523111274E+03  0.40000000000E+03 0. -1.
<mgrwt>
<rscale>  2 0.46549700E+03</rscale>
<asrwt>0</asrwt>
<pdfrwt beam="1">  1       21 0.38487576E-01 0.46549700E+03</pdfrwt>
<pdfrwt beam="2">  1       21 0.18189911E+00 0.46549700E+03</pdfrwt>
<totfact> 0.95702701E+02</totfact>
</mgrwt>
</event>
<event>
 4    1  0.4732450E-002  0.4760310E+03  0.7818608E-02  0.1020232E+00
         21   -1    0    0  503  502  0.00000000000E+00  0.00000000000E+00  0.26345645545E+03  0.26345645545E+03  0.00000000000E+00 0. -1.
         21   -1    0    0  501  503 -0.00000000000E+00 -0.00000000000E+00 -0.86833212087E+03  0.86833212087E+03  0.00000000000E+00 0. -1.
    9000007    1    1    2  501    0  0.14048911132E+03 -0.21649101753E+03 -0.35745282168E+03  0.59529662421E+03  0.40000000000E+03 0.  1.
   -9000007    1    1    2    0  502 -0.14048911132E+03  0.21649101753E+03 -0.24742284374E+03  0.53649195211E+03  0.40000000000E+03 0.  1.
<mgrwt>
<rscale>  2 0.47603104E+03</rscale>
<asrwt>0</asrwt>
<pdfrwt beam="1">  1       21 0.40531763E-01 0.47603104E+03</pdfrwt>
<pdfrwt beam="2">  1       21 0.13358955E+00 0.47603104E+03</pdfrwt>
<totfact> 0.20128382E+03</totfact>
</mgrwt>
</event>
<event>
 4    1  0.4732450E-002  0.5361479E+03  0.7818608E-02  0.1004752E+00
         21   -1    0    0  501  502  0.00000000000E+00  0.00000000000E+00  0.55259130482E+03  0.55259130482E+03  0.00000000000E+00 0. -1.
         21   -1    0    0  502  503 -0.00000000000E+00 -0.00000000000E+00 -0.67660558583E+03  0.67660558583E+03  0.00000000000E+00 0.  1.
    9000007    1    1    2  501    0  0.15692934309E+03  0.32066771525E+03  0.23349343142E+03  0.58478524677E+03  0.40000000000E+03 0.  1.
   -9000007    1    1    2    0  503 -0.15692934309E+03 -0.32066771525E+03 -0.35750771243E+03  0.64441164388E+03  0.40000000000E+03 0.  1.
<mgrwt>
<rscale>  2 0.53614793E+03</rscale>
<asrwt>0</asrwt>
<pdfrwt beam="1">  1       21 0.85014047E-01 0.53614793E+03</pdfrwt>
<pdfrwt beam="2">  1       21 0.10409317E+00 0.53614793E+03</pdfrwt>
<totfact> 0.72985630E+02</totfact>
</mgrwt>
</event>
<event>
 4    1  0.4732450E-002  0.5058846E+03  0.7818608E-02  0.1012254E+00
         21   -1    0    0  501  502  0.00000000000E+00  0.00000000000E+00  0.89725179105E+03  0.89725179105E+03  0.00000000000E+00 0. -1.
         21   -1    0    0  502  503 -0.00000000000E+00 -0.00000000000E+00 -0.53506550075E+03  0.53506550075E+03  0.00000000000E+00 0.  1.
    9000007    1    1    2  501    0  0.10771365429E+03 -0.29037394868E+03  0.67046229232E+03  0.83990412954E+03  0.40000000000E+03 0. -1.
   -9000007    1    1    2    0  503 -0.10771365429E+03  0.29037394868E+03 -0.30827600203E+03  0.59241316226E+03  0.40000000000E+03 0.  1.
<mgrwt>
<rscale>  2 0.50588463E+03</rscale>
<asrwt>0</asrwt>
<pdfrwt beam="1">  1       21 0.13803874E+00 0.50588463E+03</pdfrwt>
<pdfrwt beam="2">  1       21 0.82317770E-01 0.50588463E+03</pdfrwt>
<totfact> 0.38752914E+02</totfact>
</mgrwt>
</event>
<event>
 4    1  0.4732450E-002  0.7073852E+03  0.7818608E-02  0.9704685E-01
         21   -1    0    0  503  502  0.00000000000E+00  0.00000000000E+00  0.42596381290E+03  0.42596381290E+03  0.00000000000E+00 0. -1.
         21   -1    0    0  501  503 -0.00000000000E+00 -0.00000000000E+00 -0.16764980253E+04  0.16764980253E+04  0.00000000000E+00 0.  1.
    9000007    1    1    2  501    0 -0.53025581753E+03 -0.24335677295E+03 -0.12003716419E+04  0.13933003372E+04  0.40000000000E+03 0.  1.
   -9000007    1    1    2    0  502  0.53025581753E+03  0.24335677295E+03 -0.50162570464E+02  0.70916150096E+03  0.40000000000E+03 0. -1.
<mgrwt>
<rscale>  2 0.70738515E+03</rscale>
<asrwt>0</asrwt>
<pdfrwt beam="1">  1       21 0.65532894E-01 0.70738515E+03</pdfrwt>
<pdfrwt beam="2">  1       21 0.25792277E+00 0.70738515E+03</pdfrwt>
<totfact> 0.88653676E+01</totfact>
</mgrwt>
</event>
<event>
 4    1  0.4732450E-002  0.4262693E+03  0.7818608E-02  0.1035045E+00
         21   -1    0    0  501  502  0.00000000000E+00  0.00000000000E+00  0.44859592372E+03  0.44859592372E+03  0.00000000000E+00 0. -1.
         21   -1    0    0  502  503 -0.00000000000E+00 -0.00000000000E+00 -0.88979253743E+03  0.88979253743E+03  0.00000000000E+00 0. -1.
    9000007    1    1    2  501    0  0.33688924564E+02 -0.14342432077E+03  0.27332745265E+03  0.50637276368E+03  0.40000000000E+03 0. -1.
   -9000007    1    1    2    0  503 -0.33688924564E+02  0.14342432077E+03 -0.71452406636E+03  0.83201569747E+03  0.40000000000E+03 0. -1.
<mgrwt>
<rscale>  2 0.42626926E+03</rscale>
<asrwt>0</asrwt>
<pdfrwt beam="1">  1       21 0.69014759E-01 0.42626926E+03</pdfrwt>
<pdfrwt beam="2">  1       21 0.13689116E+00 0.42626926E+03</pdfrwt>
<totfact> 0.61412693E+02</totfact>
</mgrwt>
</event>
<event>
 4    1  0.4732450E-002  0.4160267E+03  0.7818608E-02  0.1038367E+00
         21   -1    0    0  501  502  0.00000000000E+00  0.00000000000E+00  0.75350840810E+03  0.75350840810E+03  0.00000000000E+00 0. -1.
         21   -1    0    0  502  503 -0.00000000000E+00 -0.00000000000E+00 -0.26209567012E+03  0.26209567012E+03  0.00000000000E+00 0. -1.
    9000007    1    1    2  501    0 -0.44431274408E+01  0.11427376920E+03  0.42424472633E+03  0.59419005674E+03  0.40000000000E+03 0. -1.
   -9000007    1    1    2    0  503  0.44431274408E+01 -0.11427376920E+03  0.67168011646E+02  0.42141402148E+03  0.40000000000E+03 0. -1.
<mgrwt>
<rscale>  2 0.41602672E+03</rscale>
<asrwt>0</asrwt>
<pdfrwt beam="1">  1       21 0.11592437E+00 0.41602672E+03</pdfrwt>
<pdfrwt beam="2">  1       21 0.40322411E-01 0.41602672E+03</pdfrwt>
<totfact> 0.29944046E+03</totfact>
</mgrwt>
</event>
<event>
 4    1  0.4732450E-002  0.4607135E+03  0.7818608E-02  0.1024574E+00
         21   -1    0    0  501  502  0.00000000000E+00  0.00000000000E+00  0.89481078930E+03  0.89481078930E+03  0.00000000000E+00 0. -1.
         21   -1    0    0  502  503 -0.00000000000E+00 -0.00000000000E+00 -0.23785671986E+03  0.23785671986E+03  0.00000000000E+00 0. -1.
    9000007    1    1    2  501    0  0.12728967119E+03  0.18987971588E+03  0.29891833206E+03  0.54918952660E+03  0.40000000000E+03 0. -1.
   -9000007    1    1    2    0  503 -0.12728967119E+03 -0.18987971588E+03  0.35803573738E+03  0.58347798256E+03  0.40000000000E+03 0. -1.
<mgrwt>
<rscale>  2 0.46071354E+03</rscale>
<asrwt>0</asrwt>
<pdfrwt beam="1">  1       21 0.13766320E+00 0.46071354E+03</pdfrwt>
<pdfrwt beam="2">  1       21 0.36593342E-01 0.46071354E+03</pdfrwt>
<totfact> 0.23069799E+03</totfact>
</mgrwt>
</event>
<event>
 4    1  0.4732450E-002  0.4438596E+03  0.7818608E-02  0.1029569E+00
         21   -1    0    0  501  502  0.00000000000E+00  0.00000000000E+00  0.90562754545E+03  0.90562754545E+03  0.00000000000E+00 0.  1.
         21   -1    0    0  502  503 -0.00000000000E+00 -0.00000000000E+00 -0.21883620086E+03  0.21883620086E+03  0.00000000000E+00 0.  1.
    9000007    1    1    2  501    0 -0.16255548248E+02  0.19169538022E+03  0.30014627626E+03  0.53581633868E+03  0.40000000000E+03 0.  1.
   -9000007    1    1    2    0  503  0.16255548248E+02 -0.19169538022E+03  0.38664506834E+03  0.58864740763E+03  0.40000000000E+03 0.  1.
<mgrwt>
<rscale>  2 0.44385962E+03</rscale>
<asrwt>0</asrwt>
<pdfrwt beam="1">  1       21 0.13932731E+00 0.44385962E+03</pdfrwt>
<pdfrwt beam="2">  1       21 0.33667108E-01 0.44385962E+03</pdfrwt>
<totfact> 0.26622818E+03</totfact>
</mgrwt>
</event>
<event>
 4    1  0.4732450E-002  0.4883726E+03  0.7818608E-02  0.1016859E+00
         21   -1    0    0  501  502  0.00000000000E+00  0.00000000000E+00  0.89079205647E+03  0.89079205647E+03  0.00000000000E+00 0.  1.
         21   -1    0    0  502  503 -0.00000000000E+00 -0.00000000000E+00 -0.33960360878E+03  0.33960360878E+03  0.00000000000E+00 0.  1.
    9000007    1    1    2  501    0 -0.46633985744E+02  0.27628445950E+03  0.55857624917E+03  0.74196715380E+03  0.40000000000E+03 0.  1.
   -9000007    1    1    2    0  503  0.46633985744E+02 -0.27628445950E+03 -0.73878014788E+01  0.48842851145E+03  0.40000000000E+03 0.  1.
<mgrwt>
<rscale>  2 0.48837264E+03</rscale>
<asrwt>0</asrwt>
<pdfrwt beam="1">  1       21 0.13704493E+00 0.48837264E+03</pdfrwt>
<pdfrwt beam="2">  1       21 0.52246710E-01 0.48837264E+03</pdfrwt>
<totfact> 0.10978042E+03</totfact>
</mgrwt>
</event>
<event>
 4    1  0.4732450E-002  0.4782962E+03  0.7818608E-02  0.1019604E+00
         21   -1    0    0  503  502  0.00000000000E+00  0.00000000000E+00  0.19461391844E+03  0.19461391844E+03  0.00000000000E+00 0.  1.
         21   -1    0    0  501  503 -0.00000000000E+00 -0.00000000000E+00 -0.14217915007E+04  0.14217915007E+04  0.00000000000E+00 0. -1.
    9000007    1    1    2  501    0  0.51188623704E+02  0.25719046372E+03 -0.94997147586E+03  0.10635849824E+04  0.40000000000E+03 0. -1.
   -9000007    1    1    2    0  502 -0.51188623704E+02 -0.25719046372E+03 -0.27720610636E+03  0.55282043670E+03  0.40000000000E+03 0.  1.
<mgrwt>
<rscale>  2 0.47829615E+03</rscale>
<asrwt>0</asrwt>
<pdfrwt beam="1">  1       21 0.29940603E-01 0.47829615E+03</pdfrwt>
<pdfrwt beam="2">  1       21 0.21873715E+00 0.47829615E+03</pdfrwt>
<totfact> 0.89554836E+02</totfact>
</mgrwt>
</event>
<event>
 4    1  0.4732450E-002  0.4067623E+03  0.7818608E-02  0.1041463E+00
         21   -1    0    0  501  502  0.00000000000E+00  0.00000000000E+00  0.17305285384E+03  0.17305285384E+03  0.00000000000E+00 0.  1.
         21   -1    0    0  502  503 -0.00000000000E+00 -0.00000000000E+00 -0.98338723702E+03  0.98338723702E+03  0.00000000000E+00 0.  1.
    9000007    1    1    2  501    0 -0.96431843863E+01  0.73229483358E+02 -0.30884557534E+03  0.51072608867E+03  0.40000000000E+03 0.  1.
   -9000007    1    1    2    0  503  0.96431843863E+01 -0.73229483358E+02 -0.50148880784E+03  0.64571400219E+03  0.40000000000E+03 0.  1.
<mgrwt>
<rscale>  2 0.40676227E+03</rscale>
<asrwt>0</asrwt>
<pdfrwt beam="1">  1       21 0.26623516E-01 0.40676227E+03</pdfrwt>
<pdfrwt beam="2">  1       21 0.15129034E+00 0.40676227E+03</pdfrwt>
<totfact> 0.34502907E+03</totfact>
</mgrwt>
</event>
<event>
 4    1  0.4732450E-002  0.5471113E+03  0.7818608E-02  0.1002165E+00
         21   -1    0    0  501  502  0.00000000000E+00  0.00000000000E+00  0.28113062344E+03  0.28113062344E+03  0.00000000000E+00 0.  1.
         21   -1    0    0  502  503 -0.00000000000E+00 -0.00000000000E+00 -0.13249525381E+04  0.13249525381E+04  0.00000000000E+00 0. -1.
    9000007    1    1    2  501    0  0.15296747397E+03  0.34048750891E+03 -0.16603171338E+03  0.57174935213E+03  0.40000000000E+03 0.  1.
   -9000007    1    1    2    0  503 -0.15296747397E+03 -0.34048750891E+03 -0.87779020126E+03  0.10343338094E+04  0.40000000000E+03 0. -1.
<mgrwt>
<rscale>  2 0.54711132E+03</rscale>
<asrwt>0</asrwt>
<pdfrwt beam="1">  1       21 0.43250865E-01 0.54711132E+03</pdfrwt>
<pdfrwt beam="2">  1       21 0.20383885E+00 0.54711132E+03</pdfrwt>
<totfact> 0.51459140E+02</totfact>
</mgrwt>
</event>
<event>
 4    1  0.4732450E-002  0.5246567E+03  0.7818608E-02  0.1007536E+00
         21   -1    0    0  501  502  0.00000000000E+00  0.00000000000E+00  0.35941843568E+03  0.35941843568E+03  0.00000000000E+00 0. -1.
         21   -1    0    0  502  503 -0.00000000000E+00 -0.00000000000E+00 -0.87605249526E+03  0.87605249526E+03  0.00000000000E+00 0. -1.
    9000007    1    1    2  501    0 -0.33879319953E+03  0.21996710973E+02 -0.47740111189E+03  0.70934935608E+03  0.40000000000E+03 0. -1.
   -9000007    1    1    2    0  503  0.33879319953E+03 -0.21996710973E+02 -0.39232947700E+02  0.52612157486E+03  0.40000000000E+03 0. -1.
<mgrwt>
<rscale>  2 0.52465673E+03</rscale>
<asrwt>0</asrwt>
<pdfrwt beam="1">  1       21 0.55295144E-01 0.52465673E+03</pdfrwt>
<pdfrwt beam="2">  1       21 0.13477731E+00 0.52465673E+03</pdfrwt>
<totfact> 0.10016348E+03</totfact>
</mgrwt>
</event>
<event>
 4    1  0.4732450E-002  0.4786026E+03  0.7818608E-02  0.1019520E+00
         21   -1    0    0  503  502  0.00000000000E+00  0.00000000000E+00  0.52361548682E+03  0.52361548682E+03  0.00000000000E+00 0.  1.
         21   -1    0    0  501  503 -0.00000000000E+00 -0.00000000000E+00 -0.44461877947E+03  0.44461877947E+03  0.00000000000E+00 0. -1.
    9000007    1    1    2  501    0  0.20203557222E+03  0.16805379083E+03 -0.21934142253E+02  0.47910495265E+03  0.40000000000E+03 0.  1.
   -9000007    1    1    2    0  502 -0.20203557222E+03 -0.16805379083E+03  0.10093084960E+03  0.48912931363E+03  0.40000000000E+03 0. -1.
<mgrwt>
<rscale>  2 0.47860260E+03</rscale>
<asrwt>0</asrwt>
<pdfrwt beam="1">  1       21 0.80556229E-01 0.47860260E+03</pdfrwt>
<pdfrwt beam="2">  1       21 0.68402889E-01 0.47860260E+03</pdfrwt>
<totfact> 0.22621640E+03</totfact>
</mgrwt>
</event>
<event>
 4    1  0.4732450E-002  0.4135878E+03  0.7818608E-02  0.1039174E+00
         21   -1    0    0  501  502  0.00000000000E+00  0.00000000000E+00  0.22097652497E+03  0.22097652497E+03  0.00000000000E+00 0.  1.
         21   -1    0    0  502  503 -0.00000000000E+00 -0.00000000000E+00 -0.17905237404E+04  0.17905237404E+04  0.00000000000E+00 0.  1.
    9000007    1    1    2  501    0  0.87619425911E+02  0.58118355360E+02 -0.26998425889E+02  0.41446811943E+03  0.40000000000E+03 0.  1.
   -9000007    1    1    2    0  503 -0.87619425911E+02 -0.58118355360E+02 -0.15425487895E+04  0.15970321459E+04  0.40000000000E+03 0.  1.
<mgrwt>
<rscale>  2 0.41358785E+03</rscale>
<asrwt>0</asrwt>
<pdfrwt beam="1">  1       21 0.33996387E-01 0.41358785E+03</pdfrwt>
<pdfrwt beam="2">  1       21 0.27546520E+00 0.41358785E+03</pdfrwt>
<totfact> 0.32073586E+02</totfact>
</mgrwt>
</event>
<event>
 4    1  0.4732450E-002  0.4844581E+03  0.7818608E-02  0.1017917E+00
         21   -1    0    0  501  502  0.00000000000E+00  0.00000000000E+00  0.38388758455E+03  0.38388758455E+03  0.00000000000E+00 0.  1.
         21   -1    0    0  502  503 -0.00000000000E+00 -0.00000000000E+00 -0.83832211444E+03  0.83832211444E+03  0.00000000000E+00 0. -1.
    9000007    1    1    2  501    0 -0.16347630755E+03 -0.21903224621E+03  0.90742168183E+02  0.49288311910E+03  0.40000000000E+03 0.  1.
   -9000007    1    1    2    0  503  0.16347630755E+03  0.21903224621E+03 -0.54517669808E+03  0.72932657989E+03  0.40000000000E+03 0. -1.
<mgrwt>
<rscale>  2 0.48445808E+03</rscale>
<asrwt>0</asrwt>
<pdfrwt beam="1">  1       21 0.59059628E-01 0.48445808E+03</pdfrwt>
<pdfrwt beam="2">  1       21 0.12897263E+00 0.48445808E+03</pdfrwt>
<totfact> 0.98812184E+02</totfact>
</mgrwt>
</event>
<event>
 4    1  0.4732450E-002  0.6937116E+03  0.7818608E-02  0.9728047E-01
         21   -1    0    0  501  502  0.00000000000E+00  0.00000000000E+00  0.12132769663E+04  0.12132769663E+04  0.00000000000E+00 0.  1.
         21   -1    0    0  502  503 -0.00000000000E+00 -0.00000000000E+00 -0.99125315558E+03  0.99125315558E+03  0.00000000000E+00 0.  1.
    9000007    1    1    2  501    0  0.53101099369E+03 -0.19814933279E+03  0.96472217941E+03  0.11882443844E+04  0.40000000000E+03 0.  1.
   -9000007    1    1    2    0  503 -0.53101099369E+03  0.19814933279E+03 -0.74269836867E+03  0.10162857375E+04  0.40000000000E+03 0.  1.
<mgrwt>
<rscale>  2 0.69371164E+03</rscale>
<asrwt>0</asrwt>
<pdfrwt beam="1">  1       21 0.18665799E+00 0.69371164E+03</pdfrwt>
<pdfrwt beam="2">  1       21 0.15250049E+00 0.69371164E+03</pdfrwt>
<totfact> 0.32294393E+01</totfact>
</mgrwt>
</event>
<event>
 4    1  0.4732450E-002  0.4143122E+03  0.7818608E-02  0.1038934E+00
         21   -1    0    0  503  502  0.00000000000E+00  0.00000000000E+00  0.25288199267E+03  0.25288199267E+03  0.00000000000E+00 0.  1.
         21   -1    0    0  501  503 -0.00000000000E+00 -0.00000000000E+00 -0.68694445373E+03  0.68694445373E+03  0.00000000000E+00 0.  1.
    9000007    1    1    2  501    0 -0.61052784927E+02 -0.89034433277E+02 -0.26821938838E+03  0.49355467089E+03  0.40000000000E+03 0.  1.
   -9000007    1    1    2    0  502  0.61052784927E+02  0.89034433277E+02 -0.16584307269E+03  0.44627177551E+03  0.40000000000E+03 0.  1.
<mgrwt>
<rscale>  2 0.41431217E+03</rscale>
<asrwt>0</asrwt>
<pdfrwt beam="1">  1       21 0.38904922E-01 0.41431217E+03</pdfrwt>
<pdfrwt beam="2">  1       21 0.10568376E+00 0.41431217E+03</pdfrwt>
<totfact> 0.40557811E+03</totfact>
</mgrwt>
</event>
<event>
 4    1  0.4732450E-002  0.4549525E+03  0.7818608E-02  0.1026255E+00
         21   -1    0    0  503  502  0.00000000000E+00  0.00000000000E+00  0.26343127958E+04  0.26343127958E+04  0.00000000000E+00 0. -1.
         21   -1    0    0  501  503 -0.00000000000E+00 -0.00000000000E+00 -0.79487811549E+02  0.79487811549E+02  0.00000000000E+00 0. -1.
    9000007    1    1    2  501    0  0.47129187292E+02 -0.21156702611E+03  0.11317217573E+04  0.12197441956E+04  0.40000000000E+03 0. -1.
   -9000007    1    1    2    0  502 -0.47129187292E+02  0.21156702611E+03  0.14231032269E+04  0.14940564117E+04  0.40000000000E+03 0. -1.
<mgrwt>
<rscale>  2 0.45495249E+03</rscale>
<asrwt>0</asrwt>
<pdfrwt beam="1">  1       21 0.40527882E+00 0.45495249E+03</pdfrwt>
<pdfrwt beam="2">  1       21 0.12228896E-01 0.45495249E+03</pdfrwt>
<totfact> 0.35178887E+02</totfact>
</mgrwt>
</event>
<event>
 4    1  0.4732450E-002  0.4396155E+03  0.7818608E-02  0.1030865E+00
         21   -1    0    0  501  502  0.00000000000E+00  0.00000000000E+00  0.39406029013E+03  0.39406029013E+03  0.00000000000E+00 0. -1.
         21   -1    0    0  502  503 -0.00000000000E+00 -0.00000000000E+00 -0.50370594007E+03  0.50370594007E+03  0.00000000000E+00 0. -1.
    9000007    1    1    2  501    0  0.21491329812E+02 -0.18110750908E+03  0.18032337871E+02  0.43998519556E+03  0.40000000000E+03 0. -1.
   -9000007    1    1    2    0  503 -0.21491329812E+02  0.18110750908E+03 -0.12767798780E+03  0.45778103464E+03  0.40000000000E+03 0. -1.
<mgrwt>
<rscale>  2 0.43961552E+03</rscale>
<asrwt>0</asrwt>
<pdfrwt beam="1">  1       21 0.60624660E-01 0.43961552E+03</pdfrwt>
<pdfrwt beam="2">  1       21 0.77493221E-01 0.43961552E+03</pdfrwt>
<totfact> 0.32785199E+03</totfact>
</mgrwt>
</event>
<event>
 4    1  0.4732450E-002  0.4312195E+03  0.7818608E-02  0.1033475E+00
         21   -1    0    0  503  502  0.00000000000E+00  0.00000000000E+00  0.12192270914E+03  0.12192270914E+03  0.00000000000E+00 0.  1.
         21   -1    0    0  501  503 -0.00000000000E+00 -0.00000000000E+00 -0.17709644109E+04  0.17709644109E+04  0.00000000000E+00 0. -1.
    9000007    1    1    2  501    0 -0.17536653201E+02  0.16013349831E+03 -0.11771307889E+04  0.12536295966E+04  0.40000000000E+03 0. -1.
   -9000007    1    1    2    0  502  0.17536653201E+02 -0.16013349831E+03 -0.47191091287E+03  0.63925752336E+03  0.40000000000E+03 0.  1.
<mgrwt>
<rscale>  2 0.43121952E+03</rscale>
<asrwt>0</asrwt>
<pdfrwt beam="1">  1       21 0.18757342E-01 0.43121952E+03</pdfrwt>
<pdfrwt beam="2">  1       21 0.27245604E+00 0.43121952E+03</pdfrwt>
<totfact> 0.10542971E+03</totfact>
</mgrwt>
</event>
<event>
 4    1  0.4732450E-002  0.4700182E+03  0.7818608E-02  0.1021915E+00
         21   -1    0    0  501  502  0.00000000000E+00  0.00000000000E+00  0.27458526259E+03  0.27458526259E+03  0.00000000000E+00 0. -1.
         21   -1    0    0  502  503 -0.00000000000E+00 -0.00000000000E+00 -0.80658128844E+03  0.80658128844E+03  0.00000000000E+00 0.  1.
    9000007    1    1    2  501    0 -0.17236785704E+03 -0.17665341662E+03 -0.23885829086E+03  0.52722897384E+03  0.40000000000E+03 0. -1.
   -9000007    1    1    2    0  503  0.17236785704E+03  0.17665341662E+03 -0.29313773499E+03  0.55393757719E+03  0.40000000000E+03 0.  1.
<mgrwt>
<rscale>  2 0.47001820E+03</rscale>
<asrwt>0</asrwt>
<pdfrwt beam="1">  1       21 0.42243887E-01 0.47001820E+03</pdfrwt>
<pdfrwt beam="2">  1       21 0.12408943E+00 0.47001820E+03</pdfrwt>
<totfact> 0.22417938E+03</totfact>
</mgrwt>
</event>
<event>
 4    1  0.4732450E-002  0.4006621E+03  0.7818608E-02  0.1043551E+00
         21   -1    0    0  501  502  0.00000000000E+00  0.00000000000E+00  0.40860177805E+03  0.40860177805E+03  0.00000000000E+00 0.  1.
         21   -1    0    0  502  503 -0.00000000000E+00 -0.00000000000E+00 -0.50210867642E+03  0.50210867642E+03  0.00000000000E+00 0.  1.
    9000007    1    1    2  501    0 -0.21998853501E+02  0.67961853648E+01  0.16563273600E+03  0.43354854506E+03  0.40000000000E+03 0.  1.
   -9000007    1    1    2    0  503  0.21998853501E+02 -0.67961853648E+01 -0.25913963436E+03  0.47716190941E+03  0.40000000000E+03 0.  1.
<mgrwt>
<rscale>  2 0.40066212E+03</rscale>
<asrwt>0</asrwt>
<pdfrwt beam="1">  1       21 0.62861812E-01 0.40066212E+03</pdfrwt>
<pdfrwt beam="2">  1       21 0.77247489E-01 0.40066212E+03</pdfrwt>
<totfact> 0.30946328E+03</totfact>
</mgrwt>
</event>
<event>
 4    1  0.4732450E-002  0.4159528E+03  0.7818608E-02  0.1038392E+00
         21   -1    0    0  501  502  0.00000000000E+00  0.00000000000E+00  0.15126164534E+04  0.15126164534E+04  0.00000000000E+00 0.  1.
         21   -1    0    0  502  503 -0.00000000000E+00 -0.00000000000E+00 -0.12613361759E+03  0.12613361759E+03  0.00000000000E+00 0.  1.
    9000007    1    1    2  501    0  0.65526352479E+01 -0.11390240246E+03  0.94333860554E+03  0.10309725598E+04  0.40000000000E+03 0.  1.
   -9000007    1    1    2    0  503 -0.65526352479E+01  0.11390240246E+03  0.44314423028E+03  0.60777751122E+03  0.40000000000E+03 0.  1.
<mgrwt>
<rscale>  2 0.41595275E+03</rscale>
<asrwt>0</asrwt>
<pdfrwt beam="1">  1       21 0.23271021E+00 0.41595275E+03</pdfrwt>
<pdfrwt beam="2">  1       21 0.19405173E-01 0.41595275E+03</pdfrwt>
<totfact> 0.17445707E+03</totfact>
</mgrwt>
</event>
<event>
 4    1  0.4732450E-002  0.6294763E+03  0.7818608E-02  0.9846071E-01
         21   -1    0    0  501  502  0.00000000000E+00  0.00000000000E+00  0.29802577944E+04  0.29802577944E+04  0.00000000000E+00 0. -1.
         21   -1    0    0  502  503 -0.00000000000E+00 -0.00000000000E+00 -0.13334148581E+03  0.13334148581E+03  0.00000000000E+00 0. -1.
    9000007    1    1    2  501    0  0.46949023525E+03 -0.12577469074E+03  0.13396506041E+04  0.14801702925E+04  0.40000000000E+03 0. -1.
   -9000007    1    1    2    0  503 -0.46949023525E+03  0.12577469074E+03  0.15072657045E+04  0.16334289877E+04  0.40000000000E+03 0. -1.
<mgrwt>
<rscale>  2 0.62947625E+03</rscale>
<asrwt>0</asrwt>
<pdfrwt beam="1">  1       21 0.45850115E+00 0.62947625E+03</pdfrwt>
<pdfrwt beam="2">  1       21 0.20514077E-01 0.62947625E+03</pdfrwt>
<totfact> 0.53475642E+01</totfact>
</mgrwt>
</event>
<event>
 4    1  0.4732450E-002  0.5475092E+03  0.7818608E-02  0.1002072E+00
         21   -1    0    0  501  502  0.00000000000E+00  0.00000000000E+00  0.15059230742E+04  0.15059230742E+04  0.00000000000E+00 0.  1.
         21   -1    0    0  502  503 -0.00000000000E+00 -0.00000000000E+00 -0.54285508595E+03  0.54285508595E+03  0.00000000000E+00 0. -1.
    9000007    1    1    2  501    0  0.33729731314E+03 -0.16123552696E+03  0.12967523293E+04  0.14075983007E+04  0.40000000000E+03 0.  1.
   -9000007    1    1    2    0  503 -0.33729731314E+03  0.16123552696E+03 -0.33368434110E+03  0.64117985940E+03  0.40000000000E+03 0. -1.
<mgrwt>
<rscale>  2 0.54750924E+03</rscale>
<asrwt>0</asrwt>
<pdfrwt beam="1">  1       21 0.23168047E+00 0.54750924E+03</pdfrwt>
<pdfrwt beam="2">  1       21 0.83516168E-01 0.54750924E+03</pdfrwt>
<totfact> 0.79507364E+01</totfact>
</mgrwt>
</event>
<event>
 4    1  0.4732450E-002  0.6590030E+03  0.7818608E-02  0.9790031E-01
         21   -1    0    0  501  502  0.00000000000E+00  0.00000000000E+00  0.11212169708E+04  0.11212169708E+04  0.00000000000E+00 0.  1.
         21   -1    0    0  502  503 -0.00000000000E+00 -0.00000000000E+00 -0.57168778586E+03  0.57168778586E+03  0.00000000000E+00 0. -1.
    9000007    1    1    2  501    0  0.24517976711E+03 -0.46278696121E+03  0.75543755726E+03  0.10024823153E+04  0.40000000000E+03 0. -1.
   -9000007    1    1    2    0  503 -0.24517976711E+03  0.46278696121E+03 -0.20590837232E+03  0.69042244131E+03  0.40000000000E+03 0.  1.
<mgrwt>
<rscale>  2 0.65900295E+03</rscale>
<asrwt>0</asrwt>
<pdfrwt beam="1">  1       21 0.17249492E+00 0.65900295E+03</pdfrwt>
<pdfrwt beam="2">  1       21 0.87951967E-01 0.65900295E+03</pdfrwt>
<totfact> 0.16864854E+02</totfact>
</mgrwt>
</event>
<event>
 4    1  0.4732450E-002  0.4037080E+03  0.7818608E-02  0.1042503E+00
         21   -1    0    0  503  502  0.00000000000E+00  0.00000000000E+00  0.92393027701E+03  0.92393027701E+03  0.00000000000E+00 0.  1.
         21   -1    0    0  501  503 -0.00000000000E+00 -0.00000000000E+00 -0.18108651902E+03  0.18108651902E+03  0.00000000000E+00 0.  1.
    9000007    1    1    2  501    0 -0.13508732227E+01 -0.54573888168E+02  0.28252643195E+03  0.49274873808E+03  0.40000000000E+03 0. -1.
   -9000007    1    1    2    0  502  0.13508732227E+01  0.54573888168E+02  0.46031732605E+03  0.61226805795E+03  0.40000000000E+03 0. -1.
<mgrwt>
<rscale>  2 0.40370798E+03</rscale>
<asrwt>0</asrwt>
<pdfrwt beam="1">  1       21 0.14214312E+00 0.40370798E+03</pdfrwt>
<pdfrwt beam="2">  1       21 0.27859465E-01 0.40370798E+03</pdfrwt>
<totfact> 0.37375291E+03</totfact>
</mgrwt>
</event>
<event>
 4    1  0.4732450E-002  0.4608160E+03  0.7818608E-02  0.1024545E+00
         21   -1    0    0  501  502  0.00000000000E+00  0.00000000000E+00  0.52660803118E+03  0.52660803118E+03  0.00000000000E+00 0. -1.
         21   -1    0    0  502  503 -0.00000000000E+00 -0.00000000000E+00 -0.20413516113E+04  0.20413516113E+04  0.00000000000E+00 0. -1.
    9000007    1    1    2  501    0  0.72487801800E+02  0.21701812944E+03  0.39282075846E+03  0.60552415162E+03  0.40000000000E+03 0. -1.
   -9000007    1    1    2    0  503 -0.72487801800E+02 -0.21701812944E+03 -0.19075643386E+04  0.19624354908E+04  0.40000000000E+03 0. -1.
<mgrwt>
<rscale>  2 0.46081596E+03</rscale>
<asrwt>0</asrwt>
<pdfrwt beam="1">  1       21 0.81016620E-01 0.46081596E+03</pdfrwt>
<pdfrwt beam="2">  1       21 0.31405409E+00 0.46081596E+03</pdfrwt>
<totfact> 0.28175851E+01</totfact>
</mgrwt>
</event>
<event>
 4    1  0.4732450E-002  0.5136409E+03  0.7818608E-02  0.1010279E+00
         21   -1    0    0  503  502  0.00000000000E+00  0.00000000000E+00  0.22945255840E+03  0.22945255840E+03  0.00000000000E+00 0. -1.
         21   -1    0    0  501  503 -0.00000000000E+00 -0.00000000000E+00 -0.11558417194E+04  0.11558417194E+04  0.00000000000E+00 0. -1.
    9000007    1    1    2  501    0  0.55907332861E+02  0.31733468185E+03 -0.51322915892E+03  0.72610681015E+03  0.40000000000E+03 0. -1.
   -9000007    1    1    2    0  502 -0.55907332861E+02 -0.31733468185E+03 -0.41316000206E+03  0.65918746762E+03  0.40000000000E+03 0. -1.
<mgrwt>
<rscale>  2 0.51364086E+03</rscale>
<asrwt>0</asrwt>
<pdfrwt beam="1">  1       21 0.35300393E-01 0.51364086E+03</pdfrwt>
<pdfrwt beam="2">  1       21 0.17782181E+00 0.51364086E+03</pdfrwt>
<totfact> 0.11964880E+03</totfact>
</mgrwt>
</event>
<event>
 4    1  0.4732450E-002  0.5213627E+03  0.7818608E-02  0.1008349E+00
         21   -1    0    0  503  502  0.00000000000E+00  0.00000000000E+00  0.16491031151E+04  0.16491031151E+04  0.00000000000E+00 0.  1.
         21   -1    0    0  501  503 -0.00000000000E+00 -0.00000000000E+00 -0.19777761350E+03  0.19777761350E+03  0.00000000000E+00 0.  1.
    9000007    1    1    2  501    0  0.81270998806E+02 -0.32436724440E+03  0.34874847401E+03  0.62725161029E+03  0.40000000000E+03 0.  1.
   -9000007    1    1    2    0  502 -0.81270998806E+02  0.32436724440E+03  0.11025770276E+04  0.12196291183E+04  0.40000000000E+03 0.  1.
<mgrwt>
<rscale>  2 0.52136272E+03</rscale>
<asrwt>0</asrwt>
<pdfrwt beam="1">  1       21 0.25370816E+00 0.52136272E+03</pdfrwt>
<pdfrwt beam="2">  1       21 0.30427326E-01 0.52136272E+03</pdfrwt>
<totfact> 0.51314879E+02</totfact>
</mgrwt>
</event>
<event>
 4    1  0.4732450E-002  0.4545658E+03  0.7818608E-02  0.1026369E+00
         21   -1    0    0  501  502  0.00000000000E+00  0.00000000000E+00  0.12720067913E+04  0.12720067913E+04  0.00000000000E+00 0.  1.
         21   -1    0    0  502  503 -0.00000000000E+00 -0.00000000000E+00 -0.30117362464E+03  0.30117362464E+03  0.00000000000E+00 0.  1.
    9000007    1    1    2  501    0 -0.11361006505E+03  0.18363771680E+03  0.10192729712E+04  0.11160409704E+04  0.40000000000E+03 0.  1.
   -9000007    1    1    2    0  503  0.11361006505E+03 -0.18363771680E+03 -0.48439804584E+02  0.45713944544E+03  0.40000000000E+03 0.  1.
<mgrwt>
<rscale>  2 0.45456579E+03</rscale>
<asrwt>0</asrwt>
<pdfrwt beam="1">  1       21 0.19569335E+00 0.45456579E+03</pdfrwt>
<pdfrwt beam="2">  1       21 0.46334405E-01 0.45456579E+03</pdfrwt>
<totfact> 0.52590702E+02</totfact>
</mgrwt>
</event>
<event>
 4    1  0.4732450E-002  0.4943808E+03  0.7818608E-02  0.1015256E+00
         21   -1    0    0  503  502  0.00000000000E+00  0.00000000000E+00  0.26773160863E+03  0.26773160863E+03  0.00000000000E+00 0.  1.
         21   -1    0    0  501  503 -0.00000000000E+00 -0.00000000000E+00 -0.19299225380E+04  0.19299225380E+04  0.00000000000E+00 0.  1.
    9000007    1    1    2  501    0 -0.15231537207E+03 -0.24741135481E+03 -0.16287678710E+04  0.17021448612E+04  0.40000000000E+03 0.  1.
   -9000007    1    1    2    0  502  0.15231537207E+03  0.24741135481E+03 -0.33423058343E+02  0.49550928537E+03  0.40000000000E+03 0.  1.
<mgrwt>
<rscale>  2 0.49438078E+03</rscale>
<asrwt>0</asrwt>
<pdfrwt beam="1">  1       21 0.41189479E-01 0.49438078E+03</pdfrwt>
<pdfrwt beam="2">  1       21 0.29691115E+00 0.49438078E+03</pdfrwt>
<totfact> 0.15344615E+02</totfact>
</mgrwt>
</event>
<event>
 4    1  0.4732450E-002  0.5599231E+03  0.7818608E-02  0.9992229E-01
         21   -1    0    0  503  502  0.00000000000E+00  0.00000000000E+00  0.10550990907E+04  0.10550990907E+04  0.00000000000E+00 0.  1.
         21   -1    0    0  501  503 -0.00000000000E+00 -0.00000000000E+00 -0.35339596981E+03  0.35339596981E+03  0.00000000000E+00 0.  1.
    9000007    1    1    2  501    0 -0.27753232056E+03  0.27656768406E+03  0.69873429745E+02  0.56426604453E+03  0.40000000000E+03 0.  1.
   -9000007    1    1    2    0  502  0.27753232056E+03 -0.27656768406E+03  0.63182969117E+03  0.84422901600E+03  0.40000000000E+03 0.  1.
<mgrwt>
<rscale>  2 0.55992310E+03</rscale>
<asrwt>0</asrwt>
<pdfrwt beam="1">  1       21 0.16232294E+00 0.55992310E+03</pdfrwt>
<pdfrwt beam="2">  1       21 0.54368611E-01 0.55992310E+03</pdfrwt>
<totfact> 0.61805625E+02</totfact>
</mgrwt>
</event>
<event>
 4    1  0.4732450E-002  0.4701109E+03  0.7818608E-02  0.1021889E+00
         21   -1    0    0  501  502  0.00000000000E+00  0.00000000000E+00  0.12698764512E+03  0.12698764512E+03  0.00000000000E+00 0.  1.
         21   -1    0    0  502  503 -0.00000000000E+00 -0.00000000000E+00 -0.17704420220E+04  0.17704420220E+04  0.00000000000E+00 0.  1.
    9000007    1    1    2  501    0 -0.20176301161E+03  0.14246367511E+03 -0.69806164309E+03  0.84160220362E+03  0.40000000000E+03 0.  1.
   -9000007    1    1    2    0  503  0.20176301161E+03 -0.14246367511E+03 -0.94539273379E+03  0.10558274635E+04  0.40000000000E+03 0.  1.
<mgrwt>
<rscale>  2 0.47011085E+03</rscale>
<asrwt>0</asrwt>
<pdfrwt beam="1">  1       21 0.19536562E-01 0.47011085E+03</pdfrwt>
<pdfrwt beam="2">  1       21 0.27237568E+00 0.47011085E+03</pdfrwt>
<totfact> 0.95768825E+02</totfact>
</mgrwt>
</event>
<event>
 4    1  0.4732450E-002  0.4376788E+03  0.7818608E-02  0.1031461E+00
         21   -1    0    0  503  502  0.00000000000E+00  0.00000000000E+00  0.79192567244E+03  0.79192567244E+03  0.00000000000E+00 0.  1.
         21   -1    0    0  501  503 -0.00000000000E+00 -0.00000000000E+00 -0.26072883063E+03  0.26072883063E+03  0.00000000000E+00 0. -1.
    9000007    1    1    2  501    0  0.17198072583E+03  0.44557840871E+02  0.12413897296E+03  0.45494313474E+03  0.40000000000E+03 0. -1.
   -9000007    1    1    2    0  502 -0.17198072583E+03 -0.44557840871E+02  0.40705786885E+03  0.59771136833E+03  0.40000000000E+03 0.  1.
<mgrwt>
<rscale>  2 0.43767884E+03</rscale>
<asrwt>0</asrwt>
<pdfrwt beam="1">  1       21 0.12183472E+00 0.43767884E+03</pdfrwt>
<pdfrwt beam="2">  1       21 0.40112128E-01 0.43767884E+03</pdfrwt>
<totfact> 0.26470913E+03</totfact>
</mgrwt>
</event>
<event>
 4    1  0.4732450E-002  0.4385510E+03  0.7818608E-02  0.1031192E+00
         21   -1    0    0  503  502  0.00000000000E+00  0.00000000000E+00  0.32569099043E+03  0.32569099043E+03  0.00000000000E+00 0.  1.
         21   -1    0    0  501  503 -0.00000000000E+00 -0.00000000000E+00 -0.13892899459E+04  0.13892899459E+04  0.00000000000E+00 0.  1.
    9000007    1    1    2  501    0 -0.14404866245E+03  0.10759634303E+03 -0.11819946753E+04  0.12607293137E+04  0.40000000000E+03 0. -1.
   -9000007    1    1    2    0  502  0.14404866245E+03 -0.10759634303E+03  0.11839571977E+03  0.45425162261E+03  0.40000000000E+03 0. -1.
<mgrwt>
<rscale>  2 0.43855101E+03</rscale>
<asrwt>0</asrwt>
<pdfrwt beam="1">  1       21 0.50106305E-01 0.43855101E+03</pdfrwt>
<pdfrwt beam="2">  1       21 0.21373692E+00 0.43855101E+03</pdfrwt>
<totfact> 0.34159255E+02</totfact>
</mgrwt>
</event>
<event>
 4    1  0.4732450E-002  0.4150747E+03  0.7818608E-02  0.1038681E+00
         21   -1    0    0  503  502  0.00000000000E+00  0.00000000000E+00  0.24497691585E+03  0.24497691585E+03  0.00000000000E+00 0. -1.
         21   -1    0    0  501  503 -0.00000000000E+00 -0.00000000000E+00 -0.71923855912E+03  0.71923855912E+03  0.00000000000E+00 0. -1.
    9000007    1    1    2  501    0 -0.87104503088E+02 -0.68555309038E+02 -0.30894717878E+03  0.51743152603E+03  0.40000000000E+03 0. -1.
   -9000007    1    1    2    0  502  0.87104503088E+02  0.68555309038E+02 -0.16531446448E+03  0.44678394893E+03  0.40000000000E+03 0. -1.
<mgrwt>
<rscale>  2 0.41507472E+03</rscale>
<asrwt>0</asrwt>
<pdfrwt beam="1">  1       21 0.37688756E-01 0.41507472E+03</pdfrwt>
<pdfrwt beam="2">  1       21 0.11065209E+00 0.41507472E+03</pdfrwt>
<totfact> 0.38626214E+03</totfact>
</mgrwt>
</event>
<event>
 4    1  0.4732450E-002  0.4414685E+03  0.7818608E-02  0.1030297E+00
         21   -1    0    0  503  502  0.00000000000E+00  0.00000000000E+00  0.79855339604E+03  0.79855339604E+03  0.00000000000E+00 0.  1.
         21   -1    0    0  501  503 -0.00000000000E+00 -0.00000000000E+00 -0.25567020638E+03  0.25567020638E+03  0.00000000000E+00 0.  1.
    9000007    1    1    2  501    0 -0.18051747916E+03  0.48040743389E+02  0.15911214766E+03  0.46926660742E+03  0.40000000000E+03 0.  1.
   -9000007    1    1    2    0  502  0.18051747916E+03 -0.48040743389E+02  0.38377104201E+03  0.58495699500E+03  0.40000000000E+03 0.  1.
<mgrwt>
<rscale>  2 0.44146854E+03</rscale>
<asrwt>0</asrwt>
<pdfrwt beam="1">  1       21 0.12285437E+00 0.44146854E+03</pdfrwt>
<pdfrwt beam="2">  1       21 0.39333878E-01 0.44146854E+03</pdfrwt>
<totfact> 0.26939948E+03</totfact>
</mgrwt>
</event>
<event>
 4    1  0.4732450E-002  0.4012804E+03  0.7818608E-02  0.1043337E+00
         21   -1    0    0  501  502  0.00000000000E+00  0.00000000000E+00  0.16324901662E+03  0.16324901662E+03  0.00000000000E+00 0.  1.
         21   -1    0    0  502  503 -0.00000000000E+00 -0.00000000000E+00 -0.12341412663E+04  0.12341412663E+04  0.00000000000E+00 0.  1.
    9000007    1    1    2  501    0 -0.15829646852E+02  0.27845075170E+02 -0.22239155016E+03  0.45878527386E+03  0.40000000000E+03 0.  1.
   -9000007    1    1    2    0  503  0.15829646852E+02 -0.27845075170E+02 -0.84850069954E+03  0.93860500907E+03  0.40000000000E+03 0.  1.
<mgrwt>
<rscale>  2 0.40128036E+03</rscale>
<asrwt>0</asrwt>
<pdfrwt beam="1">  1       21 0.25115234E-01 0.40128036E+03</pdfrwt>
<pdfrwt beam="2">  1       21 0.18986788E+00 0.40128036E+03</pdfrwt>
<totfact> 0.20331601E+03</totfact>
</mgrwt>
</event>
<event>
 4    1  0.4732450E-002  0.4370685E+03  0.7818608E-02  0.1031650E+00
         21   -1    0    0  503  502  0.00000000000E+00  0.00000000000E+00  0.10361233641E+03  0.10361233641E+03  0.00000000000E+00 0. -1.
         21   -1    0    0  501  503 -0.00000000000E+00 -0.00000000000E+00 -0.21225885279E+04  0.21225885279E+04  0.00000000000E+00 0. -1.
    9000007    1    1    2  501    0 -0.17019073371E+03  0.45431150198E+02 -0.60600466234E+03  0.74717503038E+03  0.40000000000E+03 0. -1.
   -9000007    1    1    2    0  502  0.17019073371E+03 -0.45431150198E+02 -0.14129715292E+04  0.14790258339E+04  0.40000000000E+03 0. -1.
<mgrwt>
<rscale>  2 0.43706850E+03</rscale>
<asrwt>0</asrwt>
<pdfrwt beam="1">  1       21 0.15940359E-01 0.43706850E+03</pdfrwt>
<pdfrwt beam="2">  1       21 0.32655208E+00 0.43706850E+03</pdfrwt>
<totfact> 0.67414343E+02</totfact>
</mgrwt>
</event>
<event>
 4    1  0.4732450E-002  0.5401145E+03  0.7818608E-02  0.1003808E+00
         21   -1    0    0  501  502  0.00000000000E+00  0.00000000000E+00  0.13079534736E+04  0.13079534736E+04  0.00000000000E+00 0. -1.
         21   -1    0    0  502  503 -0.00000000000E+00 -0.00000000000E+00 -0.34887949826E+03  0.34887949826E+03  0.00000000000E+00 0. -1.
    9000007    1    1    2  501    0  0.20517576387E+03 -0.29937705742E+03  0.97707060960E+03  0.11164186906E+04  0.40000000000E+03 0. -1.
   -9000007    1    1    2    0  503 -0.20517576387E+03  0.29937705742E+03 -0.17996634211E+02  0.54041428130E+03  0.40000000000E+03 0. -1.
<mgrwt>
<rscale>  2 0.54011454E+03</rscale>
<asrwt>0</asrwt>
<pdfrwt beam="1">  1       21 0.20122361E+00 0.54011454E+03</pdfrwt>
<pdfrwt beam="2">  1       21 0.53673770E-01 0.54011454E+03</pdfrwt>
<totfact> 0.33959279E+02</totfact>
</mgrwt>
</event>
<event>
 4    1  0.4732450E-002  0.4937762E+03  0.7818608E-02  0.1015416E+00
         21   -1    0    0  503  502  0.00000000000E+00  0.00000000000E+00  0.35565758144E+03  0.35565758144E+03  0.00000000000E+00 0.  1.
         21   -1    0    0  501  503 -0.00000000000E+00 -0.00000000000E+00 -0.80584653119E+03  0.80584653119E+03  0.00000000000E+00 0. -1.
    9000007    1    1    2  501    0 -0.28291323914E+03 -0.61441240690E+02 -0.69479251982E+00  0.49377667997E+03  0.40000000000E+03 0.  1.
   -9000007    1    1    2    0  502  0.28291323914E+03  0.61441240690E+02 -0.44949415723E+03  0.66772743266E+03  0.40000000000E+03 0. -1.
<mgrwt>
<rscale>  2 0.49377619E+03</rscale>
<asrwt>0</asrwt>
<pdfrwt beam="1">  1       21 0.54716551E-01 0.49377619E+03</pdfrwt>
<pdfrwt beam="2">  1       21 0.12397639E+00 0.49377619E+03</pdfrwt>
<totfact> 0.12875649E+03</totfact>
</mgrwt>
</event>
<event>
 4    1  0.4732450E-002  0.4160281E+03  0.7818608E-02  0.1038367E+00
         21   -1    0    0  501  502  0.00000000000E+00  0.00000000000E+00  0.58326459182E+03  0.58326459182E+03  0.00000000000E+00 0. -1.
         21   -1    0    0  502  503 -0.00000000000E+00 -0.00000000000E+00 -0.29693313365E+03  0.29693313365E+03  0.00000000000E+00 0. -1.
    9000007    1    1    2  501    0  0.11206080752E+03 -0.22841655729E+02  0.15431827550E+03  0.44372682584E+03  0.40000000000E+03 0.  1.
   -9000007    1    1    2    0  503 -0.11206080752E+03  0.22841655729E+02  0.13201318267E+03  0.43647089962E+03  0.40000000000E+03 0.  1.
<mgrwt>
<rscale>  2 0.41602808E+03</rscale>
<asrwt>0</asrwt>
<pdfrwt beam="1">  1       21 0.89733014E-01 0.41602808E+03</pdfrwt>
<pdfrwt beam="2">  1       21 0.45682021E-01 0.41602808E+03</pdfrwt>
<totfact> 0.43099744E+03</totfact>
</mgrwt>
</event>
<event>
 4    1  0.4732450E-002  0.4687128E+03  0.7818608E-02  0.1022284E+00
         21   -1    0    0  501  502  0.00000000000E+00  0.00000000000E+00  0.62304813885E+03  0.62304813885E+03  0.00000000000E+00 0.  1.
         21   -1    0    0  502  503 -0.00000000000E+00 -0.00000000000E+00 -0.37006153645E+03  0.37006153645E+03  0.00000000000E+00 0.  1.
    9000007    1    1    2  501    0 -0.15799779654E+03  0.18635559342E+03  0.18655032876E+02  0.46908391697E+03  0.40000000000E+03 0.  1.
   -9000007    1    1    2    0  503  0.15799779654E+03 -0.18635559342E+03  0.23433156953E+03  0.52402575832E+03  0.40000000000E+03 0.  1.
<mgrwt>
<rscale>  2 0.46871282E+03</rscale>
<asrwt>0</asrwt>
<pdfrwt beam="1">  1       21 0.95853560E-01 0.46871282E+03</pdfrwt>
<pdfrwt beam="2">  1       21 0.56932544E-01 0.46871282E+03</pdfrwt>
<totfact> 0.22592948E+03</totfact>
</mgrwt>
</event>
<event>
 4    1  0.4732450E-002  0.4040237E+03  0.7818608E-02  0.1042395E+00
         21   -1    0    0  503  502  0.00000000000E+00  0.00000000000E+00  0.21159132808E+03  0.21159132808E+03  0.00000000000E+00 0. -1.
         21   -1    0    0  501  503 -0.00000000000E+00 -0.00000000000E+00 -0.10722600086E+04  0.10722600086E+04  0.00000000000E+00 0. -1.
    9000007    1    1    2  501    0 -0.73511798009E+01 -0.56400984367E+02 -0.77032787512E+03  0.86985064584E+03  0.40000000000E+03 0. -1.
   -9000007    1    1    2    0  502  0.73511798009E+01  0.56400984367E+02 -0.90340805380E+02  0.41400069082E+03  0.40000000000E+03 0. -1.
<mgrwt>
<rscale>  2 0.40402365E+03</rscale>
<asrwt>0</asrwt>
<pdfrwt beam="1">  1       21 0.32552512E-01 0.40402365E+03</pdfrwt>
<pdfrwt beam="2">  1       21 0.16496308E+00 0.40402365E+03</pdfrwt>
<totfact> 0.18276779E+03</totfact>
</mgrwt>
</event>
<event>
 4    1  0.4732450E-002  0.4152745E+03  0.7818608E-02  0.1038615E+00
         21   -1    0    0  501  502  0.00000000000E+00  0.00000000000E+00  0.60074665557E+03  0.60074665557E+03  0.00000000000E+00 0. -1.
         21   -1    0    0  502  503 -0.00000000000E+00 -0.00000000000E+00 -0.29333380784E+03  0.29333380784E+03  0.00000000000E+00 0. -1.
    9000007    1    1    2  501    0  0.27623453354E+02 -0.10811947412E+03  0.88350536872E+02  0.42456883214E+03  0.40000000000E+03 0.  1.
   -9000007    1    1    2    0  503 -0.27623453354E+02  0.10811947412E+03  0.21906231086E+03  0.46951163127E+03  0.40000000000E+03 0.  1.
<mgrwt>
<rscale>  2 0.41527446E+03</rscale>
<asrwt>0</asrwt>
<pdfrwt beam="1">  1       21 0.92422562E-01 0.41527446E+03</pdfrwt>
<pdfrwt beam="2">  1       21 0.45128278E-01 0.41527446E+03</pdfrwt>
<totfact> 0.41237296E+03</totfact>
</mgrwt>
</event>
<event>
 4    1  0.4732450E-002  0.4258522E+03  0.7818608E-02  0.1035178E+00
         21   -1    0    0  501  502  0.00000000000E+00  0.00000000000E+00  0.44363282586E+03  0.44363282586E+03  0.00000000000E+00 0.  1.
         21   -1    0    0  502  503 -0.00000000000E+00 -0.00000000000E+00 -0.40878910244E+03  0.40878910244E+03  0.00000000000E+00 0. -1.
    9000007    1    1    2  501    0  0.64997407011E+02 -0.13086421504E+03  0.18892443721E+02  0.42627107587E+03  0.40000000000E+03 0.  1.
   -9000007    1    1    2    0  503 -0.64997407011E+02  0.13086421504E+03  0.15951279700E+02  0.42615085242E+03  0.40000000000E+03 0. -1.
<mgrwt>
<rscale>  2 0.42585221E+03</rscale>
<asrwt>0</asrwt>
<pdfrwt beam="1">  1       21 0.68251204E-01 0.42585221E+03</pdfrwt>
<pdfrwt beam="2">  1       21 0.62890631E-01 0.42585221E+03</pdfrwt>
<totfact> 0.40524935E+03</totfact>
</mgrwt>
</event>
<event>
 4    1  0.4732450E-002  0.4248019E+03  0.7818608E-02  0.1035515E+00
         21   -1    0    0  503  502  0.00000000000E+00  0.00000000000E+00  0.12917876589E+04  0.12917876589E+04  0.00000000000E+00 0. -1.
         21   -1    0    0  501  503 -0.00000000000E+00 -0.00000000000E+00 -0.30992010034E+03  0.30992010034E+03  0.00000000000E+00 0. -1.
    9000007    1    1    2  501    0  0.14113024204E+03  0.23214836895E+02 -0.10259231764E+03  0.43701471086E+03  0.40000000000E+03 0. -1.
   -9000007    1    1    2    0  502 -0.14113024204E+03 -0.23214836895E+02  0.10844598762E+04  0.11646930484E+04  0.40000000000E+03 0. -1.
<mgrwt>
<rscale>  2 0.42480192E+03</rscale>
<asrwt>0</asrwt>
<pdfrwt beam="1">  1       21 0.19873656E+00 0.42480192E+03</pdfrwt>
<pdfrwt beam="2">  1       21 0.47680016E-01 0.42480192E+03</pdfrwt>
<totfact> 0.47947003E+02</totfact>
</mgrwt>
</event>
<event>
 4    1  0.4732450E-002  0.5019069E+03  0.7818608E-02  0.1013282E+00
         21   -1    0    0  503  502  0.00000000000E+00  0.00000000000E+00  0.32485616068E+03  0.32485616068E+03  0.00000000000E+00 0. -1.
         21   -1    0    0  501  503 -0.00000000000E+00 -0.00000000000E+00 -0.15196161577E+04  0.15196161577E+04  0.00000000000E+00 0.  1.
    9000007    1    1    2  501    0  0.27851196821E+03 -0.11975665676E+03 -0.12427508957E+04  0.13402762260E+04  0.40000000000E+03 0.  1.
   -9000007    1    1    2    0  502 -0.27851196821E+03  0.11975665676E+03  0.47990898610E+02  0.50419609243E+03  0.40000000000E+03 0. -1.
<mgrwt>
<rscale>  2 0.50190694E+03</rscale>
<asrwt>0</asrwt>
<pdfrwt beam="1">  1       21 0.49977870E-01 0.50190694E+03</pdfrwt>
<pdfrwt beam="2">  1       21 0.23378710E+00 0.50190694E+03</pdfrwt>
<totfact> 0.24775888E+02</totfact>
</mgrwt>
</event>
<event>
 4    1  0.4732450E-002  0.4219320E+03  0.7818608E-02  0.1036439E+00
         21   -1    0    0  501  502  0.00000000000E+00  0.00000000000E+00  0.40767361851E+03  0.40767361851E+03  0.00000000000E+00 0. -1.
         21   -1    0    0  502  503 -0.00000000000E+00 -0.00000000000E+00 -0.76889129905E+03  0.76889129905E+03  0.00000000000E+00 0. -1.
    9000007    1    1    2  501    0  0.14625551027E+02 -0.13346420026E+03  0.20607383894E+03  0.46956684997E+03  0.40000000000E+03 0. -1.
   -9000007    1    1    2    0  503 -0.14625551027E+02  0.13346420026E+03 -0.56729151949E+03  0.70699806759E+03  0.40000000000E+03 0. -1.
<mgrwt>
<rscale>  2 0.42193198E+03</rscale>
<asrwt>0</asrwt>
<pdfrwt beam="1">  1       21 0.62719018E-01 0.42193198E+03</pdfrwt>
<pdfrwt beam="2">  1       21 0.11829097E+00 0.42193198E+03</pdfrwt>
<totfact> 0.11091580E+03</totfact>
</mgrwt>
</event>
<event>
 4    1  0.4732450E-002  0.4889889E+03  0.7818608E-02  0.1016694E+00
         21   -1    0    0  503  502  0.00000000000E+00  0.00000000000E+00  0.45803186892E+03  0.45803186892E+03  0.00000000000E+00 0.  1.
         21   -1    0    0  501  503 -0.00000000000E+00 -0.00000000000E+00 -0.12417595256E+04  0.12417595256E+04  0.00000000000E+00 0.  1.
    9000007    1    1    2  501    0 -0.27722184820E+03 -0.47520392011E+02 -0.10389007458E+04  0.11482268506E+04  0.40000000000E+03 0.  1.
   -9000007    1    1    2    0  502  0.27722184820E+03  0.47520392011E+02  0.25517308908E+03  0.55156454397E+03  0.40000000000E+03 0.  1.
<mgrwt>
<rscale>  2 0.48898890E+03</rscale>
<asrwt>0</asrwt>
<pdfrwt beam="1">  1       21 0.70466443E-01 0.48898890E+03</pdfrwt>
<pdfrwt beam="2">  1       21 0.19103992E+00 0.48898890E+03</pdfrwt>
<totfact> 0.22326188E+02</totfact>
</mgrwt>
</event>
<event>
 4    1  0.4732450E-002  0.4783327E+03  0.7818608E-02  0.1019594E+00
         21   -1    0    0  501  502  0.00000000000E+00  0.00000000000E+00  0.93099211894E+03  0.93099211894E+03  0.00000000000E+00 0. -1.
         21   -1    0    0  502  503 -0.00000000000E+00 -0.00000000000E+00 -0.49326455328E+03  0.49326455328E+03  0.00000000000E+00 0. -1.
    9000007    1    1    2  501    0  0.31668658807E+01 -0.26228264056E+03 -0.28557493352E+03  0.55709537355E+03  0.40000000000E+03 0. -1.
   -9000007    1    1    2    0  503 -0.31668658807E+01  0.26228264056E+03  0.72330249918E+03  0.86716129866E+03  0.40000000000E+03 0. -1.
<mgrwt>
<rscale>  2 0.47833274E+03</rscale>
<asrwt>0</asrwt>
<pdfrwt beam="1">  1       21 0.14322956E+00 0.47833274E+03</pdfrwt>
<pdfrwt beam="2">  1       21 0.75886854E-01 0.47833274E+03</pdfrwt>
<totfact> 0.42870722E+02</totfact>
</mgrwt>
</event>
<event>
 4    1  0.4732450E-002  0.4761262E+03  0.7818608E-02  0.1020205E+00
         21   -1    0    0  501  502  0.00000000000E+00  0.00000000000E+00  0.81366363905E+03  0.81366363905E+03  0.00000000000E+00 0.  1.
         21   -1    0    0  502  503 -0.00000000000E+00 -0.00000000000E+00 -0.32662709679E+03  0.32662709679E+03  0.00000000000E+00 0. -1.
    9000007    1    1    2  501    0  0.14114527621E+03 -0.21627345345E+03  0.46211810827E+03  0.66351287979E+03  0.40000000000E+03 0.  1.
   -9000007    1    1    2    0  503 -0.14114527621E+03  0.21627345345E+03  0.24918433988E+02  0.47677785605E+03  0.40000000000E+03 0. -1.
<mgrwt>
<rscale>  2 0.47612624E+03</rscale>
<asrwt>0</asrwt>
<pdfrwt beam="1">  1       21 0.12517902E+00 0.47612624E+03</pdfrwt>
<pdfrwt beam="2">  1       21 0.50250323E-01 0.47612624E+03</pdfrwt>
<totfact> 0.15178157E+03</totfact>
</mgrwt>
</event>
<event>
 4    1  0.4732450E-002  0.4549995E+03  0.7818608E-02  0.1026242E+00
         21   -1    0    0  501  502  0.00000000000E+00  0.00000000000E+00  0.24934040897E+03  0.24934040897E+03  0.00000000000E+00 0.  1.
         21   -1    0    0  502  503 -0.00000000000E+00 -0.00000000000E+00 -0.10066897143E+04  0.10066897143E+04  0.00000000000E+00 0. -1.
    9000007    1    1    2  501    0 -0.12104648919E+03 -0.17992300604E+03 -0.11578547933E+03  0.46950060476E+03  0.40000000000E+03 0.  1.
   -9000007    1    1    2    0  503  0.12104648919E+03  0.17992300604E+03 -0.64156382599E+03  0.78652951850E+03  0.40000000000E+03 0. -1.
<mgrwt>
<rscale>  2 0.45499950E+03</rscale>
<asrwt>0</asrwt>
<pdfrwt beam="1">  1       21 0.38360063E-01 0.45499950E+03</pdfrwt>
<pdfrwt beam="2">  1       21 0.15487534E+00 0.45499950E+03</pdfrwt>
<totfact> 0.15284768E+03</totfact>
</mgrwt>
</event>
<event>
 4    1  0.4732450E-002  0.4575276E+03  0.7818608E-02  0.1025501E+00
         21   -1    0    0  501  502  0.00000000000E+00  0.00000000000E+00  0.72298740050E+03  0.72298740050E+03  0.00000000000E+00 0.  1.
         21   -1    0    0  502  503 -0.00000000000E+00 -0.00000000000E+00 -0.39709572182E+03  0.39709572182E+03  0.00000000000E+00 0.  1.
    9000007    1    1    2  501    0 -0.22097323112E+03  0.22412064234E+02  0.45441716925E+03  0.64484605388E+03  0.40000000000E+03 0.  1.
   -9000007    1    1    2    0  503  0.22097323112E+03 -0.22412064234E+02 -0.12852549057E+03  0.47523706844E+03  0.40000000000E+03 0.  1.
<mgrwt>
<rscale>  2 0.45752756E+03</rscale>
<asrwt>0</asrwt>
<pdfrwt beam="1">  1       21 0.11122883E+00 0.45752756E+03</pdfrwt>
<pdfrwt beam="2">  1       21 0.61091650E-01 0.45752756E+03</pdfrwt>
<totfact> 0.13505512E+03</totfact>
</mgrwt>
</event>
<event>
 4    1  0.4732450E-002  0.4253897E+03  0.7818608E-02  0.1035326E+00
         21   -1    0    0  503  502  0.00000000000E+00  0.00000000000E+00  0.11006747533E+04  0.11006747533E+04  0.00000000000E+00 0. -1.
         21   -1    0    0  501  503 -0.00000000000E+00 -0.00000000000E+00 -0.84487185393E+03  0.84487185393E+03  0.00000000000E+00 0. -1.
    9000007    1    1    2  501    0 -0.73155425078E+02 -0.12491856572E+03 -0.74510957840E+03  0.85798872259E+03  0.40000000000E+03 0. -1.
   -9000007    1    1    2    0  502  0.73155425078E+02  0.12491856572E+03  0.10009124778E+04  0.10875578847E+04  0.40000000000E+03 0. -1.
<mgrwt>
<rscale>  2 0.42538966E+03</rscale>
<asrwt>0</asrwt>
<pdfrwt beam="1">  1       21 0.16933458E+00 0.42538966E+03</pdfrwt>
<pdfrwt beam="2">  1       21 0.12998029E+00 0.42538966E+03</pdfrwt>
<totfact> 0.75163797E+01</totfact>
</mgrwt>
</event>
<event>
 4    1  0.4732450E-002  0.4066937E+03  0.7818608E-02  0.1041486E+00
         21   -1    0    0  503  502  0.00000000000E+00  0.00000000000E+00  0.35358245219E+03  0.35358245219E+03  0.00000000000E+00 0.  1.
         21   -1    0    0  501  503 -0.00000000000E+00 -0.00000000000E+00 -0.80583951112E+03  0.80583951112E+03  0.00000000000E+00 0.  1.
    9000007    1    1    2  501    0 -0.31340192919E+02  0.66464634674E+02 -0.60160445091E+03  0.72617330625E+03  0.40000000000E+03 0.  1.
   -9000007    1    1    2    0  502  0.31340192919E+02 -0.66464634674E+02  0.14934739198E+03  0.43324865706E+03  0.40000000000E+03 0.  1.
<mgrwt>
<rscale>  2 0.40669369E+03</rscale>
<asrwt>0</asrwt>
<pdfrwt beam="1">  1       21 0.54397301E-01 0.40669369E+03</pdfrwt>
<pdfrwt beam="2">  1       21 0.12397531E+00 0.40669369E+03</pdfrwt>
<totfact> 0.13509395E+03</totfact>
</mgrwt>
</event>
<event>
 4    1  0.4732450E-002  0.4060068E+03  0.7818608E-02  0.1041719E+00
         21   -1    0    0  503  502  0.00000000000E+00  0.00000000000E+00  0.14816156569E+04  0.14816156569E+04  0.00000000000E+00 0. -1.
         21   -1    0    0  501  503 -0.00000000000E+00 -0.00000000000E+00 -0.11125800288E+03  0.11125800288E+03  0.00000000000E+00 0. -1.
    9000007    1    1    2  501    0  0.51336361547E+02 -0.46969441194E+02  0.68474638765E+03  0.79606480002E+03  0.40000000000E+03 0. -1.
   -9000007    1    1    2    0  502 -0.51336361547E+02  0.46969441194E+02  0.68561126638E+03  0.79680885977E+03  0.40000000000E+03 0. -1.
<mgrwt>
<rscale>  2 0.40600684E+03</rscale>
<asrwt>0</asrwt>
<pdfrwt beam="1">  1       21 0.22794086E+00 0.40600684E+03</pdfrwt>
<pdfrwt beam="2">  1       21 0.17116617E-01 0.40600684E+03</pdfrwt>
<totfact> 0.23786425E+03</totfact>
</mgrwt>
</event>
<event>
 4    1  0.4732450E-002  0.4922967E+03  0.7818608E-02  0.1015809E+00
         21   -1    0    0  503  502  0.00000000000E+00  0.00000000000E+00  0.22392225927E+03  0.22392225927E+03  0.00000000000E+00 0. -1.
         21   -1    0    0  501  503 -0.00000000000E+00 -0.00000000000E+00 -0.12073306689E+04  0.12073306689E+04  0.00000000000E+00 0.  1.
    9000007    1    1    2  501    0 -0.52398804161E+02  0.28215322449E+03 -0.72197700866E+03  0.87384602637E+03  0.40000000000E+03 0. -1.
   -9000007    1    1    2    0  502  0.52398804161E+02 -0.28215322449E+03 -0.26143140097E+03  0.55740690180E+03  0.40000000000E+03 0.  1.
<mgrwt>
<rscale>  2 0.49229674E+03</rscale>
<asrwt>0</asrwt>
<pdfrwt beam="1">  1       21 0.34449578E-01 0.49229674E+03</pdfrwt>
<pdfrwt beam="2">  1       21 0.18574318E+00 0.49229674E+03</pdfrwt>
<totfact> 0.11147796E+03</totfact>
</mgrwt>
</event>
<event>
 4    1  0.4732450E-002  0.4591304E+03  0.7818608E-02  0.1025034E+00
         21   -1    0    0  501  502  0.00000000000E+00  0.00000000000E+00  0.92149558162E+03  0.92149558162E+03  0.00000000000E+00 0.  1.
         21   -1    0    0  502  503 -0.00000000000E+00 -0.00000000000E+00 -0.32994082310E+03  0.32994082310E+03  0.00000000000E+00 0.  1.
    9000007    1    1    2  501    0  0.19397977824E+03 -0.11477178670E+03  0.64228380378E+03  0.78951200244E+03  0.40000000000E+03 0.  1.
   -9000007    1    1    2    0  503 -0.19397977824E+03  0.11477178670E+03 -0.50729045266E+02  0.46192440228E+03  0.40000000000E+03 0.  1.
<mgrwt>
<rscale>  2 0.45913039E+03</rscale>
<asrwt>0</asrwt>
<pdfrwt beam="1">  1       21 0.14176855E+00 0.45913039E+03</pdfrwt>
<pdfrwt beam="2">  1       21 0.50760127E-01 0.45913039E+03</pdfrwt>
<totfact> 0.10795538E+03</totfact>
</mgrwt>
</event>
<event>
 4    1  0.4732450E-002  0.4568037E+03  0.7818608E-02  0.1025712E+00
         21   -1    0    0  501  502  0.00000000000E+00  0.00000000000E+00  0.50743082911E+03  0.50743082911E+03  0.00000000000E+00 0.  1.
         21   -1    0    0  502  503 -0.00000000000E+00 -0.00000000000E+00 -0.44892909651E+03  0.44892909651E+03  0.00000000000E+00 0.  1.
    9000007    1    1    2  501    0  0.18269515095E+03 -0.12366115417E+03  0.16782474370E+03  0.48665670018E+03  0.40000000000E+03 0. -1.
   -9000007    1    1    2    0  503 -0.18269515095E+03  0.12366115417E+03 -0.10932301110E+03  0.46970322544E+03  0.40000000000E+03 0. -1.
<mgrwt>
<rscale>  2 0.45680368E+03</rscale>
<asrwt>0</asrwt>
<pdfrwt beam="1">  1       21 0.78066281E-01 0.45680368E+03</pdfrwt>
<pdfrwt beam="2">  1       21 0.69066015E-01 0.45680368E+03</pdfrwt>
<totfact> 0.23984875E+03</totfact>
</mgrwt>
</event>
<event>
 4    1  0.4732450E-002  0.4423079E+03  0.7818608E-02  0.1030041E+00
         21   -1    0    0  501  502  0.00000000000E+00  0.00000000000E+00  0.14728805764E+04  0.14728805764E+04  0.00000000000E+00 0. -1.
         21   -1    0    0  502  503 -0.00000000000E+00 -0.00000000000E+00 -0.29007398991E+03  0.29007398991E+03  0.00000000000E+00 0. -1.
    9000007    1    1    2  501    0  0.22919516038E+02  0.18737918969E+03  0.12404109438E+04  0.13169113768E+04  0.40000000000E+03 0. -1.
   -9000007    1    1    2    0  503 -0.22919516038E+02 -0.18737918969E+03 -0.57604357266E+02  0.44604318952E+03  0.40000000000E+03 0. -1.
<mgrwt>
<rscale>  2 0.44230788E+03</rscale>
<asrwt>0</asrwt>
<pdfrwt beam="1">  1       21 0.22659701E+00 0.44230788E+03</pdfrwt>
<pdfrwt beam="2">  1       21 0.44626769E-01 0.44230788E+03</pdfrwt>
<totfact> 0.36020728E+02</totfact>
</mgrwt>
</event>
<event>
 4    1  0.4732450E-002  0.4086015E+03  0.7818608E-02  0.1040841E+00
         21   -1    0    0  503  502  0.00000000000E+00  0.00000000000E+00  0.78057012457E+03  0.78057012457E+03  0.00000000000E+00 0. -1.
         21   -1    0    0  501  503 -0.00000000000E+00 -0.00000000000E+00 -0.46869248297E+03  0.46869248297E+03  0.00000000000E+00 0. -1.
    9000007    1    1    2  501    0  0.59940677273E+02 -0.57985399908E+02 -0.30461736431E+03  0.50965373543E+03  0.40000000000E+03 0. -1.
   -9000007    1    1    2    0  502 -0.59940677273E+02  0.57985399908E+02  0.61649500591E+03  0.73960887211E+03  0.40000000000E+03 0. -1.
<mgrwt>
<rscale>  2 0.40860151E+03</rscale>
<asrwt>0</asrwt>
<pdfrwt beam="1">  1       21 0.12008771E+00 0.40860151E+03</pdfrwt>
<pdfrwt beam="2">  1       21 0.72106536E-01 0.40860151E+03</pdfrwt>
<totfact> 0.78673591E+02</totfact>
</mgrwt>
</event>
<event>
 4    1  0.4732450E-002  0.4220466E+03  0.7818608E-02  0.1036402E+00
         21   -1    0    0  503  502  0.00000000000E+00  0.00000000000E+00  0.14021434135E+03  0.14021434135E+03  0.00000000000E+00 0.  1.
         21   -1    0    0  501  503 -0.00000000000E+00 -0.00000000000E+00 -0.14723095127E+04  0.14723095127E+04  0.00000000000E+00 0.  1.
    9000007    1    1    2  501    0 -0.13262881848E+03 -0.23085851515E+02 -0.96464969063E+03  0.10529351289E+04  0.40000000000E+03 0.  1.
   -9000007    1    1    2    0  502  0.13262881848E+03  0.23085851515E+02 -0.36744548074E+03  0.55958872518E+03  0.40000000000E+03 0.  1.
<mgrwt>
<rscale>  2 0.42204663E+03</rscale>
<asrwt>0</asrwt>
<pdfrwt beam="1">  1       21 0.21571438E-01 0.42204663E+03</pdfrwt>
<pdfrwt beam="2">  1       21 0.22650915E+00 0.42204663E+03</pdfrwt>
<totfact> 0.15551390E+03</totfact>
</mgrwt>
</event>
<event>
 4    1  0.4732450E-002  0.4393992E+03  0.7818608E-02  0.1030931E+00
         21   -1    0    0  503  502  0.00000000000E+00  0.00000000000E+00  0.92797049875E+02  0.92797049875E+02  0.00000000000E+00 0. -1.
         21   -1    0    0  501  503 -0.00000000000E+00 -0.00000000000E+00 -0.23949379341E+04  0.23949379341E+04  0.00000000000E+00 0.  1.
    9000007    1    1    2  501    0  0.49661804505E+02  0.17494399770E+03 -0.16017201734E+04  0.16608971103E+04  0.40000000000E+03 0.  1.
   -9000007    1    1    2    0  502 -0.49661804505E+02 -0.17494399770E+03 -0.70042071075E+03  0.82683787359E+03  0.40000000000E+03 0. -1.
<mgrwt>
<rscale>  2 0.43939925E+03</rscale>
<asrwt>0</asrwt>
<pdfrwt beam="1">  1       21 0.14276469E-01 0.43939925E+03</pdfrwt>
<pdfrwt beam="2">  1       21 0.36845200E+00 0.43939925E+03</pdfrwt>
<totfact> 0.45747572E+02</totfact>
</mgrwt>
</event>
<event>
 4    1  0.4732450E-002  0.4947156E+03  0.7818608E-02  0.1015167E+00
         21   -1    0    0  503  502  0.00000000000E+00  0.00000000000E+00  0.12034268873E+03  0.12034268873E+03  0.00000000000E+00 0. -1.
         21   -1    0    0  501  503 -0.00000000000E+00 -0.00000000000E+00 -0.20978573908E+04  0.20978573908E+04  0.00000000000E+00 0. -1.
    9000007    1    1    2  501    0 -0.26209345225E+03 -0.12669068830E+03 -0.11826821957E+04  0.12819831061E+04  0.40000000000E+03 0. -1.
   -9000007    1    1    2    0  502  0.26209345225E+03  0.12669068830E+03 -0.79483250634E+03  0.93621697343E+03  0.40000000000E+03 0. -1.
<mgrwt>
<rscale>  2 0.49471558E+03</rscale>
<asrwt>0</asrwt>
<pdfrwt beam="1">  1       21 0.18514262E-01 0.49471558E+03</pdfrwt>
<pdfrwt beam="2">  1       21 0.32274725E+00 0.49471558E+03</pdfrwt>
<totfact> 0.51950535E+02</totfact>
</mgrwt>
</event>
<event>
 4    1  0.4732450E-002  0.4797273E+03  0.7818608E-02  0.1019210E+00
         21   -1    0    0  503  502  0.00000000000E+00  0.00000000000E+00  0.44548851910E+03  0.44548851910E+03  0.00000000000E+00 0. -1.
         21   -1    0    0  501  503 -0.00000000000E+00 -0.00000000000E+00 -0.60343002930E+03  0.60343002930E+03  0.00000000000E+00 0. -1.
    9000007    1    1    2  501    0  0.15158261413E+03 -0.21716582261E+03 -0.27791866360E+03  0.55441596928E+03  0.40000000000E+03 0. -1.
   -9000007    1    1    2    0  502 -0.15158261413E+03  0.21716582261E+03  0.11997715340E+03  0.49450257912E+03  0.40000000000E+03 0. -1.
<mgrwt>
<rscale>  2 0.47972730E+03</rscale>
<asrwt>0</asrwt>
<pdfrwt beam="1">  1       21 0.68536695E-01 0.47972730E+03</pdfrwt>
<pdfrwt beam="2">  1       21 0.92835390E-01 0.47972730E+03</pdfrwt>
<totfact> 0.16125365E+03</totfact>
</mgrwt>
</event>
<event>
 4    1  0.4732450E-002  0.4109768E+03  0.7818608E-02  0.1040044E+00
         21   -1    0    0  503  502  0.00000000000E+00  0.00000000000E+00  0.19227233851E+03  0.19227233851E+03  0.00000000000E+00 0.  1.
         21   -1    0    0  501  503 -0.00000000000E+00 -0.00000000000E+00 -0.87940702246E+03  0.87940702246E+03  0.00000000000E+00 0.  1.
    9000007    1    1    2  501    0 -0.92124598822E+02 -0.20370459445E+02 -0.32590321868E+03  0.52451387520E+03  0.40000000000E+03 0.  1.
   -9000007    1    1    2    0  502  0.92124598822E+02  0.20370459445E+02 -0.36123146526E+03  0.54716548578E+03  0.40000000000E+03 0.  1.
<mgrwt>
<rscale>  2 0.41097676E+03</rscale>
<asrwt>0</asrwt>
<pdfrwt beam="1">  1       21 0.29580359E-01 0.41097676E+03</pdfrwt>
<pdfrwt beam="2">  1       21 0.13529339E+00 0.41097676E+03</pdfrwt>
<totfact> 0.37725326E+03</totfact>
</mgrwt>
</event>
<event>
 4    1  0.4732450E-002  0.4841374E+03  0.7818608E-02  0.1018004E+00
         21   -1    0    0  501  502  0.00000000000E+00  0.00000000000E+00  0.79066468253E+03  0.79066468253E+03  0.00000000000E+00 0.  1.
         21   -1    0    0  502  503 -0.00000000000E+00 -0.00000000000E+00 -0.40849539859E+03  0.40849539859E+03  0.00000000000E+00 0.  1.
    9000007    1    1    2  501    0 -0.19581453706E+03  0.18985703705E+03  0.50510602201E+03  0.69965785990E+03  0.40000000000E+03 0.  1.
   -9000007    1    1    2    0  503  0.19581453706E+03 -0.18985703705E+03 -0.12293673807E+03  0.49950222123E+03  0.40000000000E+03 0.  1.
<mgrwt>
<rscale>  2 0.48413741E+03</rscale>
<asrwt>0</asrwt>
<pdfrwt beam="1">  1       21 0.12164072E+00 0.48413741E+03</pdfrwt>
<pdfrwt beam="2">  1       21 0.62845446E-01 0.48413741E+03</pdfrwt>
<totfact> 0.10023385E+03</totfact>
</mgrwt>
</event>
<event>
 4    1  0.4732450E-002  0.4382246E+03  0.7818608E-02  0.1031293E+00
         21   -1    0    0  501  502  0.00000000000E+00  0.00000000000E+00  0.15315541788E+04  0.15315541788E+04  0.00000000000E+00 0.  1.
         21   -1    0    0  502  503 -0.00000000000E+00 -0.00000000000E+00 -0.13233781132E+03  0.13233781132E+03  0.00000000000E+00 0.  1.
    9000007    1    1    2  501    0  0.36665893742E+02 -0.17520400501E+03  0.89023869818E+03  0.99225287648E+03  0.40000000000E+03 0.  1.
   -9000007    1    1    2    0  503 -0.36665893742E+02  0.17520400501E+03  0.50897766934E+03  0.67163911368E+03  0.40000000000E+03 0.  1.
<mgrwt>
<rscale>  2 0.43822464E+03</rscale>
<asrwt>0</asrwt>
<pdfrwt beam="1">  1       21 0.23562371E+00 0.43822464E+03</pdfrwt>
<pdfrwt beam="2">  1       21 0.20359664E-01 0.43822464E+03</pdfrwt>
<totfact> 0.15107190E+03</totfact>
</mgrwt>
</event>
<event>
 4    1  0.4732450E-002  0.5204857E+03  0.7818608E-02  0.1008566E+00
         21   -1    0    0  503  502  0.00000000000E+00  0.00000000000E+00  0.22779113686E+03  0.22779113686E+03  0.00000000000E+00 0. -1.
         21   -1    0    0  501  503 -0.00000000000E+00 -0.00000000000E+00 -0.17149193959E+04  0.17149193959E+04  0.00000000000E+00 0. -1.
    9000007    1    1    2  501    0 -0.17381161741E+03  0.28406854374E+03 -0.12813431718E+04  0.13830205131E+04  0.40000000000E+03 0. -1.
   -9000007    1    1    2    0  502  0.17381161741E+03 -0.28406854374E+03 -0.20578508721E+03  0.55969001957E+03  0.40000000000E+03 0. -1.
<mgrwt>
<rscale>  2 0.52048575E+03</rscale>
<asrwt>0</asrwt>
<pdfrwt beam="1">  1       21 0.35044792E-01 0.52048575E+03</pdfrwt>
<pdfrwt beam="2">  1       21 0.26383374E+00 0.52048575E+03</pdfrwt>
<totfact> 0.33478141E+02</totfact>
</mgrwt>
</event>
<event>
 4    1  0.4732450E-002  0.5318989E+03  0.7818608E-02  0.1005773E+00
         21   -1    0    0  501  502  0.00000000000E+00  0.00000000000E+00  0.76213248432E+03  0.76213248432E+03  0.00000000000E+00 0.  1.
         21   -1    0    0  502  503 -0.00000000000E+00 -0.00000000000E+00 -0.38422233948E+03  0.38422233948E+03  0.00000000000E+00 0. -1.
    9000007    1    1    2  501    0  0.20907335636E+03 -0.28143348314E+03  0.29440831455E+03  0.60794138652E+03  0.40000000000E+03 0.  1.
   -9000007    1    1    2    0  503 -0.20907335636E+03  0.28143348314E+03  0.83501830294E+02  0.53841343727E+03  0.40000000000E+03 0. -1.
<mgrwt>
<rscale>  2 0.53189893E+03</rscale>
<asrwt>0</asrwt>
<pdfrwt beam="1">  1       21 0.11725115E+00 0.53189893E+03</pdfrwt>
<pdfrwt beam="2">  1       21 0.59111129E-01 0.53189893E+03</pdfrwt>
<totfact> 0.12383351E+03</totfact>
</mgrwt>
</event>
