<event>
 6    1  0.9205235E-004  0.4052305E+03  0.7818608E-02  0.1041983E+00
          2   -1    0    0  502    0  0.00000000000E+00  0.00000000000E+00  0.40211515036E+03  0.40211515036E+03  0.00000000000E+00 0. -1.
         -2   -1    0    0    0  501 -0.00000000000E+00 -0.00000000000E+00 -0.75406412449E+03  0.75406412449E+03  0.00000000000E+00 0.  1.
    9000007    2    1    2  502    0 -0.26752436631E+02 -0.51517347380E+02  0.21519299770E+03  0.45974568421E+03  0.40210488427E+03 0.  0.
    9000005    1    3    3    0    0 -0.18486429676E+02  0.17666352262E+03  0.10311517827E+03  0.20539106186E+03  0.99999687468E+00 0.  0.
          4    1    3    3  502    0 -0.82660069549E+01 -0.22818087000E+03  0.11207781942E+03  0.25435462235E+03  0.00000000000E+00 0.  1.
   -9000007    1    1    2    0  501  0.26752436631E+02  0.51517347380E+02 -0.56714197182E+03  0.69643359063E+03  0.40000000000E+03 0.  1.
<mgrwt>
<rscale>  2 0.40523046E+03</rscale>
<asrwt>0</asrwt>
<pdfrwt beam="1">  1        2 0.61863869E-01 0.40523046E+03</pdfrwt>
<pdfrwt beam="2">  1       -2 0.11600987E+00 0.40523046E+03</pdfrwt>
<totfact> 0.47505729E+01</totfact>
</mgrwt>
</event>
<event>
 6    1  0.9205235E-004  0.4861223E+03  0.7818608E-02  0.1017466E+00
          2   -1    0    0  502    0  0.00000000000E+00  0.00000000000E+00  0.14903790498E+04  0.14903790498E+04  0.00000000000E+00 0.  1.
         -2   -1    0    0    0  501 -0.00000000000E+00 -0.00000000000E+00 -0.48962290383E+03  0.48962290383E+03  0.00000000000E+00 0. -1.
    9000007    2    1    2  502    0 -0.72893601178E+01  0.27865125591E+03 -0.31415899662E+03  0.57761060688E+03  0.39653307659E+03 0.  0.
    9000005    1    3    3    0    0  0.24224013172E+02 -0.36132716035E+02 -0.25133711168E+03  0.25507590965E+03  0.99999687468E+00 0.  0.
          4    1    3    3  502    0 -0.31513373290E+02  0.31478397195E+03 -0.62821884946E+02  0.32253469724E+03  0.00000000000E+00 0.  1.
   -9000007    1    1    2    0  501  0.72893601178E+01 -0.27865125591E+03  0.13149151426E+04  0.14023913468E+04  0.40000000000E+03 0.  1.
<mgrwt>
<rscale>  2 0.48612227E+03</rscale>
<asrwt>0</asrwt>
<pdfrwt beam="1">  1        2 0.22928908E+00 0.48612227E+03</pdfrwt>
<pdfrwt beam="2">  1       -2 0.75326601E-01 0.48612227E+03</pdfrwt>
<totfact> 0.21652754E+01</totfact>
</mgrwt>
</event>
<event>
 6    1  0.9205235E-004  0.4010094E+03  0.7818608E-02  0.1043431E+00
          2   -1    0    0  502    0  0.00000000000E+00  0.00000000000E+00  0.15056388924E+04  0.15056388924E+04  0.00000000000E+00 0. -1.
         -2   -1    0    0    0  501 -0.00000000000E+00 -0.00000000000E+00 -0.10856483051E+03  0.10856483051E+03  0.00000000000E+00 0.  1.
    9000007    2    1    2  502    0  0.15039382517E+02  0.24648951755E+02  0.80126571496E+03  0.89599669138E+03  0.39993695897E+03 0.  0.
    9000005    1    3    3    0    0  0.13245266380E+03 -0.41344920829E+02  0.75758810744E+02  0.15809335225E+03  0.99999687468E+00 0.  0.
          4    1    3    3  502    0 -0.11741328128E+03  0.65993872584E+02  0.72550690421E+03  0.73790333913E+03  0.00000000000E+00 0.  1.
   -9000007    1    1    2    0  501 -0.15039382517E+02 -0.24648951755E+02  0.59580834691E+03  0.71820703150E+03  0.40000000000E+03 0.  1.
<mgrwt>
<rscale>  2 0.40100940E+03</rscale>
<asrwt>0</asrwt>
<pdfrwt beam="1">  1        2 0.23163674E+00 0.40100940E+03</pdfrwt>
<pdfrwt beam="2">  1       -2 0.16702283E-01 0.40100940E+03</pdfrwt>
<totfact> 0.38294269E+02</totfact>
</mgrwt>
</event>
<event>
 6    1  0.9205235E-004  0.4954817E+03  0.7818608E-02  0.1014965E+00
          2   -1    0    0  502    0  0.00000000000E+00  0.00000000000E+00  0.10647237822E+04  0.10647237822E+04  0.00000000000E+00 0. -1.
         -2   -1    0    0    0  501 -0.00000000000E+00 -0.00000000000E+00 -0.23075591815E+03  0.23075591815E+03  0.00000000000E+00 0.  1.
    9000007    2    1    2  502    0  0.10001102960E+03  0.27340221664E+03  0.43557038220E+03  0.66028561062E+03  0.40187628897E+03 0.  0.
    9000005    1    3    3    0    0 -0.15857818310E+02 -0.35409303463E+02  0.30191758443E+03  0.30440190038E+03  0.99999687468E+00 0.  0.
          4    1    3    3  502    0  0.11586884791E+03  0.30881152010E+03  0.13365279777E+03  0.35588371024E+03  0.00000000000E+00 0.  1.
   -9000007    1    1    2    0  501 -0.10001102960E+03 -0.27340221664E+03  0.39839748187E+03  0.63519408976E+03  0.40000000000E+03 0. -1.
<mgrwt>
<rscale>  2 0.49548169E+03</rscale>
<asrwt>0</asrwt>
<pdfrwt beam="1">  1        2 0.16380366E+00 0.49548169E+03</pdfrwt>
<pdfrwt beam="2">  1       -2 0.35500911E-01 0.49548169E+03</pdfrwt>
<totfact> 0.17620402E+02</totfact>
</mgrwt>
</event>
<event>
 6    1  0.9205235E-004  0.4667874E+03  0.7818608E-02  0.1022831E+00
          2   -1    0    0  502    0  0.00000000000E+00  0.00000000000E+00  0.44912469516E+03  0.44912469516E+03  0.00000000000E+00 0.  1.
         -2   -1    0    0    0  501 -0.00000000000E+00 -0.00000000000E+00 -0.51183118682E+03  0.51183118682E+03  0.00000000000E+00 0. -1.
    9000007    2    1    2  502    0 -0.23680329882E+03 -0.39612216335E+02  0.78341931393E+02  0.47357555035E+03  0.40061379614E+03 0.  0.
    9000005    1    3    3    0    0 -0.98805750836E+02  0.98361957268E+02 -0.12821714856E+03  0.18941564934E+03  0.99999687468E+00 0.  0.
          4    1    3    3  502    0 -0.13799754798E+03 -0.13797417360E+03  0.20655907995E+03  0.28415990101E+03  0.00000000000E+00 0.  1.
   -9000007    1    1    2    0  501  0.23680329882E+03  0.39612216335E+02 -0.14104842305E+03  0.48738033163E+03  0.40000000000E+03 0.  1.
<mgrwt>
<rscale>  2 0.46678742E+03</rscale>
<asrwt>0</asrwt>
<pdfrwt beam="1">  1        2 0.69096107E-01 0.46678742E+03</pdfrwt>
<pdfrwt beam="2">  1       -2 0.78743259E-01 0.46678742E+03</pdfrwt>
<totfact> 0.10271710E+02</totfact>
</mgrwt>
</event>
<event>
 6    1  0.9205235E-004  0.4943212E+03  0.7818608E-02  0.1015272E+00
         -1   -1    0    0    0  501 -0.00000000000E+00  0.00000000000E+00  0.32982326510E+03  0.32982326510E+03  0.00000000000E+00 0. -1.
          1   -1    0    0  502    0  0.00000000000E+00 -0.00000000000E+00 -0.79084817751E+03  0.79084817751E+03  0.00000000000E+00 0.  1.
    9000007    2    1    2  502    0  0.23493153197E+03 -0.17034988633E+03 -0.37144806268E+03  0.61844049922E+03  0.40035369279E+03 0.  0.
    9000005    1    3    3    0    0  0.19254863354E+03 -0.87138807247E+02  0.23453309925E+02  0.21264807958E+03  0.99999687468E+00 0.  0.
          4    1    3    3  502    0  0.42382898426E+02 -0.83211079079E+02 -0.39490137260E+03  0.40579241965E+03  0.00000000000E+00 0.  1.
   -9000007    1    1    2    0  501 -0.23493153197E+03  0.17034988633E+03 -0.89576849733E+02  0.50223094338E+03  0.40000000000E+03 0.  1.
<mgrwt>
<rscale>  2 0.49432116E+03</rscale>
<asrwt>0</asrwt>
<pdfrwt beam="1">  1        1 0.12166895E+00 0.49432116E+03</pdfrwt>
<pdfrwt beam="2">  1       -1 0.50742040E-01 0.49432116E+03</pdfrwt>
<totfact> 0.91785523E+01</totfact>
</mgrwt>
</event>
<event>
 6    1  0.9205235E-004  0.4668611E+03  0.7818608E-02  0.1022810E+00
         -2   -1    0    0    0  501 -0.00000000000E+00  0.00000000000E+00  0.36349720169E+03  0.36349720169E+03  0.00000000000E+00 0. -1.
          2   -1    0    0  502    0  0.00000000000E+00 -0.00000000000E+00 -0.66179955755E+03  0.66179955755E+03  0.00000000000E+00 0.  1.
    9000007    2    1    2  502    0 -0.10195058497E+03 -0.21854876543E+03  0.80506936243E+01  0.46671849652E+03  0.39950451397E+03 0.  0.
    9000005    1    3    3    0    0  0.44301254808E+01 -0.23367198374E+03 -0.14845373591E+03  0.27687855406E+03  0.99999687468E+00 0.  0.
          4    1    3    3  502    0 -0.10638071045E+03  0.15123218319E+02  0.15650442954E+03  0.18983994246E+03  0.00000000000E+00 0.  1.
   -9000007    1    1    2    0  501  0.10195058497E+03  0.21854876543E+03 -0.30635304949E+03  0.55857826271E+03  0.40000000000E+03 0.  1.
<mgrwt>
<rscale>  2 0.46686114E+03</rscale>
<asrwt>0</asrwt>
<pdfrwt beam="1">  1        2 0.10181532E+00 0.46686114E+03</pdfrwt>
<pdfrwt beam="2">  1       -2 0.55922647E-01 0.46686114E+03</pdfrwt>
<totfact> 0.13605134E+02</totfact>
</mgrwt>
</event>
<event>
 6    1  0.9205235E-004  0.4230264E+03  0.7818608E-02  0.1036086E+00
          2   -1    0    0  502    0  0.00000000000E+00  0.00000000000E+00  0.72916924301E+03  0.72916924301E+03  0.00000000000E+00 0. -1.
         -2   -1    0    0    0  501 -0.00000000000E+00 -0.00000000000E+00 -0.77409443681E+03  0.77409443681E+03  0.00000000000E+00 0.  1.
    9000007    2    1    2  502    0 -0.13051662148E+03 -0.42418870350E+02  0.59869456237E+03  0.73314658510E+03  0.40029337640E+03 0.  0.
    9000005    1    3    3    0    0 -0.16368139194E+03  0.13404427901E+03  0.45981247651E+03  0.50615015593E+03  0.99999687468E+00 0.  0.
          4    1    3    3  502    0  0.33164770461E+02 -0.17646314936E+03  0.13888208586E+03  0.22699642916E+03  0.00000000000E+00 0.  1.
   -9000007    1    1    2    0  501  0.13051662148E+03  0.42418870350E+02 -0.64361975617E+03  0.77011709472E+03  0.40000000000E+03 0.  1.
<mgrwt>
<rscale>  2 0.42302636E+03</rscale>
<asrwt>0</asrwt>
<pdfrwt beam="1">  1        2 0.11217988E+00 0.42302636E+03</pdfrwt>
<pdfrwt beam="2">  1       -2 0.11909145E+00 0.42302636E+03</pdfrwt>
<totfact> 0.22211910E+01</totfact>
</mgrwt>
</event>
<event>
 6    1  0.9205235E-004  0.6706292E+03  0.7818608E-02  0.9768822E-01
          1   -1    0    0  502    0  0.00000000000E+00  0.00000000000E+00  0.11631856520E+04  0.11631856520E+04  0.00000000000E+00 0. -1.
         -1   -1    0    0    0  501 -0.00000000000E+00 -0.00000000000E+00 -0.46457523074E+03  0.46457523074E+03  0.00000000000E+00 0.  1.
    9000007    2    1    2  502    0 -0.39428286490E+03  0.36707783844E+03  0.15824482487E+02  0.67047213047E+03  0.39884501558E+03 0.  0.
    9000005    1    3    3    0    0 -0.25781766150E+03  0.24426340451E+03  0.20234632306E+03  0.40875370557E+03  0.99999687468E+00 0.  0.
          4    1    3    3  502    0 -0.13646520340E+03  0.12281443393E+03 -0.18652184057E+03  0.26171842490E+03  0.00000000000E+00 0.  1.
   -9000007    1    1    2    0  501  0.39428286490E+03 -0.36707783844E+03  0.68278593878E+03  0.95728875227E+03  0.40000000000E+03 0. -1.
<mgrwt>
<rscale>  2 0.67062922E+03</rscale>
<asrwt>0</asrwt>
<pdfrwt beam="1">  1        1 0.17895164E+00 0.67062922E+03</pdfrwt>
<pdfrwt beam="2">  1       -1 0.71473113E-01 0.67062922E+03</pdfrwt>
<totfact> 0.23390031E+01</totfact>
</mgrwt>
</event>
<event>
 6    1  0.9205235E-004  0.4289834E+03  0.7818608E-02  0.1034182E+00
         -2   -1    0    0    0  501 -0.00000000000E+00  0.00000000000E+00  0.30564553683E+03  0.30564553683E+03  0.00000000000E+00 0.  1.
          2   -1    0    0  502    0  0.00000000000E+00 -0.00000000000E+00 -0.72265290926E+03  0.72265290926E+03  0.00000000000E+00 0. -1.
    9000007    2    1    2  502    0  0.72148495783E+02 -0.13647267061E+03 -0.41860023821E+03  0.59954125082E+03  0.40049139409E+03 0.  0.
    9000005    1    3    3    0    0  0.19039561559E+03 -0.21217740758E+03 -0.31635028018E+03  0.42585002347E+03  0.99999687468E+00 0.  0.
          4    1    3    3  502    0 -0.11824711981E+03  0.75704736968E+02 -0.10224995803E+03  0.17369122736E+03  0.00000000000E+00 0.  1.
   -9000007    1    1    2    0  501 -0.72148495783E+02  0.13647267061E+03  0.15928657834E+01  0.42875719526E+03  0.40000000000E+03 0.  1.
<mgrwt>
<rscale>  2 0.42898341E+03</rscale>
<asrwt>0</asrwt>
<pdfrwt beam="1">  1        2 0.11117737E+00 0.42898341E+03</pdfrwt>
<pdfrwt beam="2">  1       -2 0.47022390E-01 0.42898341E+03</pdfrwt>
<totfact> 0.17404930E+02</totfact>
</mgrwt>
</event>
<event>
 6    1  0.9205235E-004  0.4408749E+03  0.7818608E-02  0.1030479E+00
         -2   -1    0    0    0  501 -0.00000000000E+00  0.00000000000E+00  0.97368678884E+03  0.97368678884E+03  0.00000000000E+00 0. -1.
          2   -1    0    0  502    0  0.00000000000E+00 -0.00000000000E+00 -0.21227082915E+03  0.21227082915E+03  0.00000000000E+00 0.  1.
    9000007    2    1    2  502    0  0.18988160554E+03  0.40168874242E+01  0.52386778242E+03  0.68346354237E+03  0.39574461561E+03 0.  0.
    9000005    1    3    3    0    0  0.30777289185E+03 -0.43373357276E+02  0.39310498730E+03  0.50113664016E+03  0.99999687468E+00 0.  0.
          4    1    3    3  502    0 -0.11789128631E+03  0.47390244700E+02  0.13076279513E+03  0.18232690221E+03  0.00000000000E+00 0.  1.
   -9000007    1    1    2    0  501 -0.18988160554E+03 -0.40168874242E+01  0.23754817727E+03  0.50249407562E+03  0.40000000000E+03 0.  1.
<mgrwt>
<rscale>  2 0.44087491E+03</rscale>
<asrwt>0</asrwt>
<pdfrwt beam="1">  1        2 0.32657051E-01 0.44087491E+03</pdfrwt>
<pdfrwt beam="2">  1       -2 0.14979797E+00 0.44087491E+03</pdfrwt>
<totfact> 0.50228960E+01</totfact>
</mgrwt>
</event>
<event>
 6    1  0.9205235E-004  0.7842900E+03  0.7818608E-02  0.9583039E-01
          1   -1    0    0  502    0  0.00000000000E+00  0.00000000000E+00  0.92158880860E+03  0.92158880860E+03  0.00000000000E+00 0.  1.
         -1   -1    0    0    0  501 -0.00000000000E+00 -0.00000000000E+00 -0.67216504056E+03  0.67216504056E+03  0.00000000000E+00 0. -1.
    9000007    2    1    2  502    0 -0.43562385929E+03 -0.51500365883E+03  0.57953882552E+02  0.78650070892E+03  0.40028464526E+03 0.  0.
    9000005    1    3    3    0    0 -0.31968518567E+03 -0.10836415788E+03 -0.69970233694E+02  0.34472923034E+03  0.99999687468E+00 0.  0.
          4    1    3    3  502    0 -0.11593867362E+03 -0.40663950094E+03  0.12792411625E+03  0.44177147858E+03  0.00000000000E+00 0.  1.
   -9000007    1    1    2    0  501  0.43562385929E+03  0.51500365883E+03  0.19146988549E+03  0.80725314025E+03  0.40000000000E+03 0.  1.
<mgrwt>
<rscale>  2 0.78429000E+03</rscale>
<asrwt>0</asrwt>
<pdfrwt beam="1">  1        1 0.14178289E+00 0.78429000E+03</pdfrwt>
<pdfrwt beam="2">  1       -1 0.10341001E+00 0.78429000E+03</pdfrwt>
<totfact> 0.15803636E+01</totfact>
</mgrwt>
</event>
<event>
 6    1  0.9205235E-004  0.4019615E+03  0.7818608E-02  0.1043103E+00
         -2   -1    0    0    0  501 -0.00000000000E+00  0.00000000000E+00  0.14211347030E+03  0.14211347030E+03  0.00000000000E+00 0.  1.
          2   -1    0    0  502    0  0.00000000000E+00 -0.00000000000E+00 -0.11695450934E+04  0.11695450934E+04  0.00000000000E+00 0. -1.
    9000007    2    1    2  502    0  0.15415173518E+02  0.36997412595E+02 -0.40414394857E+03  0.56997536898E+03  0.39991643372E+03 0.  0.
    9000005    1    3    3    0    0  0.15472190957E+02  0.47809382495E+02 -0.48540400865E+03  0.48799915713E+03  0.99999687468E+00 0.  0.
          4    1    3    3  502    0 -0.57017438679E-01 -0.10811969900E+02  0.81260060085E+02  0.81976211849E+02  0.00000000000E+00 0.  1.
   -9000007    1    1    2    0  501 -0.15415173518E+02 -0.36997412595E+02 -0.62328767451E+03  0.74168319471E+03  0.40000000000E+03 0. -1.
<mgrwt>
<rscale>  2 0.40196145E+03</rscale>
<asrwt>0</asrwt>
<pdfrwt beam="1">  1        2 0.17993002E+00 0.40196145E+03</pdfrwt>
<pdfrwt beam="2">  1       -2 0.21863610E-01 0.40196145E+03</pdfrwt>
<totfact> 0.37185102E+02</totfact>
</mgrwt>
</event>
<event>
 6    1  0.9205235E-004  0.4962531E+03  0.7818608E-02  0.1014762E+00
         -2   -1    0    0    0  501 -0.00000000000E+00  0.00000000000E+00  0.12167003910E+04  0.12167003910E+04  0.00000000000E+00 0.  1.
          2   -1    0    0  502    0  0.00000000000E+00 -0.00000000000E+00 -0.20323650064E+03  0.20323650064E+03  0.00000000000E+00 0. -1.
    9000007    2    1    2  502    0  0.22559293375E+03 -0.18824103496E+03  0.55206143914E+03  0.74227983900E+03  0.39985080693E+03 0.  0.
    9000005    1    3    3    0    0 -0.21369619452E+02  0.10758983995E+03  0.14385610558E+03  0.18090830109E+03  0.99999687468E+00 0.  0.
          4    1    3    3  502    0  0.24696255320E+03 -0.29583087490E+03  0.40820533356E+03  0.56137153792E+03  0.00000000000E+00 0.  1.
   -9000007    1    1    2    0  501 -0.22559293375E+03  0.18824103496E+03  0.46140245121E+03  0.67765705263E+03  0.40000000000E+03 0. -1.
<mgrwt>
<rscale>  2 0.49625315E+03</rscale>
<asrwt>0</asrwt>
<pdfrwt beam="1">  1        2 0.31267155E-01 0.49625315E+03</pdfrwt>
<pdfrwt beam="2">  1       -2 0.18718467E+00 0.49625315E+03</pdfrwt>
<totfact> 0.28516371E+01</totfact>
</mgrwt>
</event>
<event>
 6    1  0.9205235E-004  0.4264784E+03  0.7818608E-02  0.1034978E+00
          2   -1    0    0  502    0  0.00000000000E+00  0.00000000000E+00  0.27736585423E+03  0.27736585423E+03  0.00000000000E+00 0.  1.
         -2   -1    0    0    0  501 -0.00000000000E+00 -0.00000000000E+00 -0.90726126141E+03  0.90726126141E+03  0.00000000000E+00 0. -1.
    9000007    2    1    2  502    0 -0.37628575053E+02 -0.14699702400E+03 -0.23808009966E+01  0.42515452516E+03  0.39714816798E+03 0.  0.
    9000005    1    3    3    0    0 -0.78888138549E+02 -0.86623314097E+02 -0.19031780924E+03  0.22349229396E+03  0.99999687468E+00 0.  0.
          4    1    3    3  502    0  0.41259563495E+02 -0.60373709902E+02  0.18793700825E+03  0.20166223121E+03  0.00000000000E+00 0.  1.
   -9000007    1    1    2    0  501  0.37628575053E+02  0.14699702400E+03 -0.62751460618E+03  0.75947259048E+03  0.40000000000E+03 0. -1.
<mgrwt>
<rscale>  2 0.42647839E+03</rscale>
<asrwt>0</asrwt>
<pdfrwt beam="1">  1        2 0.42671669E-01 0.42647839E+03</pdfrwt>
<pdfrwt beam="2">  1       -2 0.13957866E+00 0.42647839E+03</pdfrwt>
<totfact> 0.44965676E+01</totfact>
</mgrwt>
</event>
<event>
 6    1  0.9205235E-004  0.6007206E+03  0.7818608E-02  0.9903912E-01
         -2   -1    0    0    0  501 -0.00000000000E+00  0.00000000000E+00  0.34550042985E+03  0.34550042985E+03  0.00000000000E+00 0. -1.
          2   -1    0    0  502    0  0.00000000000E+00 -0.00000000000E+00 -0.10852681280E+04  0.10852681280E+04  0.00000000000E+00 0.  1.
    9000007    2    1    2  502    0  0.43272493060E+03 -0.11887166912E+03 -0.50833135500E+03  0.78660699411E+03  0.39870848677E+03 0.  0.
    9000005    1    3    3    0    0  0.38980730150E+03  0.73891225216E+02 -0.39026157129E+03  0.55652020582E+03  0.99999687468E+00 0.  0.
          4    1    3    3  502    0  0.42917629101E+02 -0.19276289433E+03 -0.11806978371E+03  0.23008678829E+03  0.00000000000E+00 0.  1.
   -9000007    1    1    2    0  501 -0.43272493060E+03  0.11887166912E+03 -0.23143634316E+03  0.64416156375E+03  0.40000000000E+03 0.  1.
<mgrwt>
<rscale>  2 0.60072057E+03</rscale>
<asrwt>0</asrwt>
<pdfrwt beam="1">  1        2 0.16696433E+00 0.60072057E+03</pdfrwt>
<pdfrwt beam="2">  1       -2 0.53153912E-01 0.60072057E+03</pdfrwt>
<totfact> 0.76417360E+01</totfact>
</mgrwt>
</event>
<event>
 6    1  0.9205235E-004  0.4382427E+03  0.7818608E-02  0.1031287E+00
          1   -1    0    0  502    0  0.00000000000E+00  0.00000000000E+00  0.87120003512E+03  0.87120003512E+03  0.00000000000E+00 0.  1.
         -1   -1    0    0    0  501 -0.00000000000E+00 -0.00000000000E+00 -0.22564068367E+03  0.22564068367E+03  0.00000000000E+00 0. -1.
    9000007    2    1    2  502    0 -0.17694779454E+03  0.31013433181E+02  0.40577600165E+03  0.59707236258E+03  0.39946074602E+03 0.  0.
    9000005    1    3    3    0    0 -0.14064920535E+03  0.20878443205E+03  0.27867074347E+03  0.37554163723E+03  0.99999687468E+00 0.  0.
          4    1    3    3  502    0 -0.36298589194E+02 -0.17777099887E+03  0.12710525817E+03  0.22153072535E+03  0.00000000000E+00 0.  1.
   -9000007    1    1    2    0  501  0.17694779454E+03 -0.31013433181E+02  0.23978334981E+03  0.49976835622E+03  0.40000000000E+03 0. -1.
<mgrwt>
<rscale>  2 0.43824272E+03</rscale>
<asrwt>0</asrwt>
<pdfrwt beam="1">  1        1 0.13403077E+00 0.43824272E+03</pdfrwt>
<pdfrwt beam="2">  1       -1 0.34713952E-01 0.43824272E+03</pdfrwt>
<totfact> 0.15783886E+02</totfact>
</mgrwt>
</event>
<event>
 6    1  0.9205235E-004  0.4892402E+03  0.7818608E-02  0.1016626E+00
         -2   -1    0    0    0  501 -0.00000000000E+00  0.00000000000E+00  0.20706104471E+03  0.20706104471E+03  0.00000000000E+00 0. -1.
          2   -1    0    0  502    0  0.00000000000E+00 -0.00000000000E+00 -0.12663210074E+04  0.12663210074E+04  0.00000000000E+00 0.  1.
    9000007    2    1    2  502    0 -0.23729661421E+03  0.15306150233E+03 -0.31177301631E+03  0.57980819303E+03  0.39904588759E+03 0.  0.
    9000005    1    3    3    0    0 -0.22363159546E+02 -0.77343690437E+02  0.54062940115E+02  0.96984322665E+02  0.99999687468E+00 0.  0.
          4    1    3    3  502    0 -0.21493345467E+03  0.23040519277E+03 -0.36583595642E+03  0.48282387037E+03  0.00000000000E+00 0.  1.
   -9000007    1    1    2    0  501  0.23729661421E+03 -0.15306150233E+03 -0.74748694640E+03  0.89357385909E+03  0.40000000000E+03 0.  1.
<mgrwt>
<rscale>  2 0.48924024E+03</rscale>
<asrwt>0</asrwt>
<pdfrwt beam="1">  1        2 0.19481862E+00 0.48924024E+03</pdfrwt>
<pdfrwt beam="2">  1       -2 0.31855546E-01 0.48924024E+03</pdfrwt>
<totfact> 0.16432082E+02</totfact>
</mgrwt>
</event>
<event>
 6    1  0.9205235E-004  0.6955296E+03  0.7818608E-02  0.9724908E-01
         -2   -1    0    0    0  501 -0.00000000000E+00  0.00000000000E+00  0.18004248844E+04  0.18004248844E+04  0.00000000000E+00 0. -1.
          2   -1    0    0  502    0  0.00000000000E+00 -0.00000000000E+00 -0.27649318608E+03  0.27649318608E+03  0.00000000000E+00 0.  1.
    9000007    2    1    2  502    0 -0.56902321251E+03  0.12022925441E+02  0.93625736320E+03  0.11662627618E+04  0.39957353793E+03 0.  0.
    9000005    1    3    3    0    0 -0.37447810999E+03 -0.18097747234E+03  0.49155293905E+03  0.64390371348E+03  0.99999687468E+00 0.  0.
          4    1    3    3  502    0 -0.19454510252E+03  0.19300039778E+03  0.44470442415E+03  0.52235904828E+03  0.00000000000E+00 0.  1.
   -9000007    1    1    2    0  501  0.56902321251E+03 -0.12022925441E+02  0.58767433510E+03  0.91065530869E+03  0.40000000000E+03 0.  1.
<mgrwt>
<rscale>  2 0.69552961E+03</rscale>
<asrwt>0</asrwt>
<pdfrwt beam="1">  1        2 0.42537414E-01 0.69552961E+03</pdfrwt>
<pdfrwt beam="2">  1       -2 0.27698844E+00 0.69552961E+03</pdfrwt>
<totfact> 0.54977407E+00</totfact>
</mgrwt>
</event>
<event>
 6    1  0.9205235E-004  0.4015125E+03  0.7818608E-02  0.1043257E+00
          1   -1    0    0  502    0  0.00000000000E+00  0.00000000000E+00  0.10142861298E+04  0.10142861298E+04  0.00000000000E+00 0. -1.
         -1   -1    0    0    0  501 -0.00000000000E+00 -0.00000000000E+00 -0.15972704898E+03  0.15972704898E+03  0.00000000000E+00 0.  1.
    9000007    2    1    2  502    0  0.22764296079E+01 -0.27161570901E+02  0.38674617223E+03  0.55790292039E+03  0.40117344600E+03 0.  0.
    9000005    1    3    3    0    0  0.19937649689E+03 -0.31843013496E+02  0.22985683403E+03  0.30594138191E+03  0.99999687468E+00 0.  0.
          4    1    3    3  502    0 -0.19710006729E+03  0.46814425947E+01  0.15688933821E+03  0.25196153848E+03  0.00000000000E+00 0.  1.
   -9000007    1    1    2    0  501 -0.22764296079E+01  0.27161570901E+02  0.46781290861E+03  0.61611025842E+03  0.40000000000E+03 0. -1.
<mgrwt>
<rscale>  2 0.40151253E+03</rscale>
<asrwt>0</asrwt>
<pdfrwt beam="1">  1        1 0.15604402E+00 0.40151253E+03</pdfrwt>
<pdfrwt beam="2">  1       -1 0.24573393E-01 0.40151253E+03</pdfrwt>
<totfact> 0.22173164E+02</totfact>
</mgrwt>
</event>
<event>
 6    1  0.9205235E-004  0.4023142E+03  0.7818608E-02  0.1042981E+00
         -1   -1    0    0    0  501 -0.00000000000E+00  0.00000000000E+00  0.13992148729E+03  0.13992148729E+03  0.00000000000E+00 0.  1.
          1   -1    0    0  502    0  0.00000000000E+00 -0.00000000000E+00 -0.11815201264E+04  0.11815201264E+04  0.00000000000E+00 0. -1.
    9000007    2    1    2  502    0 -0.38159129140E+02 -0.50996199569E+02 -0.61288467797E+03  0.73165148830E+03  0.39449910055E+03 0.  0.
    9000005    1    3    3    0    0 -0.16267941725E+03 -0.13272342403E+03 -0.50744004383E+03  0.54915981113E+03  0.99999687468E+00 0.  0.
          4    1    3    3  502    0  0.12452028811E+03  0.81727224465E+02 -0.10544463414E+03  0.18249167718E+03  0.00000000000E+00 0.  1.
   -9000007    1    1    2    0  501  0.38159129140E+02  0.50996199569E+02 -0.42871396110E+03  0.58979012534E+03  0.40000000000E+03 0. -1.
<mgrwt>
<rscale>  2 0.40231424E+03</rscale>
<asrwt>0</asrwt>
<pdfrwt beam="1">  1        1 0.18177232E+00 0.40231424E+03</pdfrwt>
<pdfrwt beam="2">  1       -1 0.21526383E-01 0.40231424E+03</pdfrwt>
<totfact> 0.20849931E+02</totfact>
</mgrwt>
</event>
<event>
 6    1  0.9205235E-004  0.4586064E+03  0.7818608E-02  0.1025186E+00
         -1   -1    0    0    0  501 -0.00000000000E+00  0.00000000000E+00  0.27251451823E+03  0.27251451823E+03  0.00000000000E+00 0.  1.
          1   -1    0    0  502    0  0.00000000000E+00 -0.00000000000E+00 -0.79123500991E+03  0.79123500991E+03  0.00000000000E+00 0. -1.
    9000007    2    1    2  502    0  0.20728249480E+03  0.83497269540E+02 -0.17617944730E+03  0.49167244089E+03  0.40095481642E+03 0.  0.
    9000005    1    3    3    0    0  0.74560259429E+02  0.24138334668E+03 -0.91278027320E+02  0.26862209628E+03  0.99999687468E+00 0.  0.
          4    1    3    3  502    0  0.13272223537E+03 -0.15788607714E+03 -0.84901419984E+02  0.22305034461E+03  0.00000000000E+00 0.  1.
   -9000007    1    1    2    0  501 -0.20728249480E+03 -0.83497269540E+02 -0.34254104438E+03  0.57207708725E+03  0.40000000000E+03 0.  1.
<mgrwt>
<rscale>  2 0.45860643E+03</rscale>
<asrwt>0</asrwt>
<pdfrwt beam="1">  1        1 0.12172846E+00 0.45860643E+03</pdfrwt>
<pdfrwt beam="2">  1       -1 0.41925312E-01 0.45860643E+03</pdfrwt>
<totfact> 0.13107678E+02</totfact>
</mgrwt>
</event>
<event>
 6    1  0.9205235E-004  0.4207054E+03  0.7818608E-02  0.1036837E+00
         -2   -1    0    0    0  501 -0.00000000000E+00  0.00000000000E+00  0.61841144082E+03  0.61841144082E+03  0.00000000000E+00 0. -1.
          2   -1    0    0  502    0  0.00000000000E+00 -0.00000000000E+00 -0.34823683352E+03  0.34823683352E+03  0.00000000000E+00 0.  1.
    9000007    2    1    2  502    0  0.22906432515E+01  0.12907158476E+03 -0.68797296401E+02  0.42667913398E+03  0.40082077584E+03 0.  0.
    9000005    1    3    3    0    0  0.25800352289E+02  0.34094024636E+02  0.16647056944E+03  0.17187644160E+03  0.99999687468E+00 0.  0.
          4    1    3    3  502    0 -0.23509709037E+02  0.94977560120E+02 -0.23526786584E+03  0.25480269238E+03  0.00000000000E+00 0.  1.
   -9000007    1    1    2    0  501 -0.22906432515E+01 -0.12907158476E+03  0.33897190370E+03  0.53996914035E+03  0.40000000000E+03 0. -1.
<mgrwt>
<rscale>  2 0.42070544E+03</rscale>
<asrwt>0</asrwt>
<pdfrwt beam="1">  1        2 0.53574897E-01 0.42070544E+03</pdfrwt>
<pdfrwt beam="2">  1       -2 0.95140222E-01 0.42070544E+03</pdfrwt>
<totfact> 0.89022387E+01</totfact>
</mgrwt>
</event>
<event>
 6    1  0.9205235E-004  0.5589299E+03  0.7818608E-02  0.9994479E-01
          2   -1    0    0  502    0  0.00000000000E+00  0.00000000000E+00  0.20109538335E+04  0.20109538335E+04  0.00000000000E+00 0.  1.
         -2   -1    0    0    0  501 -0.00000000000E+00 -0.00000000000E+00 -0.35081314393E+03  0.35081314393E+03  0.00000000000E+00 0. -1.
    9000007    2    1    2  502    0 -0.29302767072E+03 -0.25706231366E+03 -0.51117520079E+02  0.56166950535E+03  0.40114010454E+03 0.  0.
    9000005    1    3    3    0    0 -0.35651055860E+03 -0.18418276413E+03 -0.14524616089E+03  0.42675580399E+03  0.99999687468E+00 0.  0.
          4    1    3    3  502    0  0.63482887885E+02 -0.72879549530E+02  0.94128640807E+02  0.13491370136E+03  0.00000000000E+00 0.  1.
   -9000007    1    1    2    0  501  0.29302767072E+03  0.25706231366E+03  0.17112582096E+04  0.18000974720E+04  0.40000000000E+03 0.  1.
<mgrwt>
<rscale>  2 0.55892988E+03</rscale>
<asrwt>0</asrwt>
<pdfrwt beam="1">  1        2 0.30937751E+00 0.55892988E+03</pdfrwt>
<pdfrwt beam="2">  1       -2 0.53971254E-01 0.55892988E+03</pdfrwt>
<totfact> 0.22703906E+01</totfact>
</mgrwt>
</event>
<event>
 6    1  0.9205235E-004  0.4706067E+03  0.7818608E-02  0.1021749E+00
         -1   -1    0    0    0  501 -0.00000000000E+00  0.00000000000E+00  0.16476663087E+03  0.16476663087E+03  0.00000000000E+00 0. -1.
          1   -1    0    0  502    0  0.00000000000E+00 -0.00000000000E+00 -0.14361760127E+04  0.14361760127E+04  0.00000000000E+00 0.  1.
    9000007    2    1    2  502    0  0.15648636810E+03  0.19291462335E+03 -0.83802072957E+03  0.96099752154E+03  0.39941639665E+03 0.  0.
    9000005    1    3    3    0    0  0.72389848120E+02  0.24888068426E+03 -0.81791092962E+03  0.85799835309E+03  0.99999687468E+00 0.  0.
          4    1    3    3  502    0  0.84096519983E+02 -0.55966060913E+02 -0.20109799945E+02  0.10299916845E+03  0.00000000000E+00 0.  1.
   -9000007    1    1    2    0  501 -0.15648636810E+03 -0.19291462335E+03 -0.43338865228E+03  0.63994512204E+03  0.40000000000E+03 0. -1.
<mgrwt>
<rscale>  2 0.47060667E+03</rscale>
<asrwt>0</asrwt>
<pdfrwt beam="1">  1        1 0.22095015E+00 0.47060667E+03</pdfrwt>
<pdfrwt beam="2">  1       -1 0.25348713E-01 0.47060667E+03</pdfrwt>
<totfact> 0.10450107E+02</totfact>
</mgrwt>
</event>
<event>
 6    1  0.9205235E-004  0.4365457E+03  0.7818608E-02  0.1031812E+00
          2   -1    0    0  502    0  0.00000000000E+00  0.00000000000E+00  0.20703156714E+04  0.20703156714E+04  0.00000000000E+00 0.  1.
         -2   -1    0    0    0  501 -0.00000000000E+00 -0.00000000000E+00 -0.12444921396E+03  0.12444921396E+03  0.00000000000E+00 0. -1.
    9000007    2    1    2  502    0  0.17384761531E+03  0.22580289742E+02  0.41270408475E+03  0.60061315986E+03  0.39959810235E+03 0.  0.
    9000005    1    3    3    0    0  0.29441482404E+03  0.68641014160E+01  0.20124422750E+03  0.35668956194E+03  0.99999687468E+00 0.  0.
          4    1    3    3  502    0 -0.12056720873E+03  0.15716188326E+02  0.21145985725E+03  0.24392359793E+03  0.00000000000E+00 0.  1.
   -9000007    1    1    2    0  501 -0.17384761531E+03 -0.22580289742E+02  0.15331623727E+04  0.15941517255E+04  0.40000000000E+03 0.  1.
<mgrwt>
<rscale>  2 0.43654566E+03</rscale>
<asrwt>0</asrwt>
<pdfrwt beam="1">  1        2 0.31851008E+00 0.43654566E+03</pdfrwt>
<pdfrwt beam="2">  1       -2 0.19146035E-01 0.43654566E+03</pdfrwt>
<totfact> 0.15021273E+02</totfact>
</mgrwt>
</event>
<event>
 6    1  0.9205235E-004  0.4518826E+03  0.7818608E-02  0.1027162E+00
          1   -1    0    0  502    0  0.00000000000E+00  0.00000000000E+00  0.22118021074E+04  0.22118021074E+04  0.00000000000E+00 0.  1.
         -1   -1    0    0    0  501 -0.00000000000E+00 -0.00000000000E+00 -0.96810849562E+02  0.96810849562E+02  0.00000000000E+00 0. -1.
    9000007    2    1    2  502    0  0.19316983392E+03 -0.82020044265E+02  0.13064392368E+04  0.13824389759E+04  0.40039002281E+03 0.  0.
    9000005    1    3    3    0    0  0.20048964428E+03  0.10311148247E+03  0.99355258764E+03  0.10188109833E+04  0.99999687468E+00 0.  0.
          4    1    3    3  502    0 -0.73198103636E+01 -0.18513152674E+03  0.31288664915E+03  0.36362799264E+03  0.00000000000E+00 0.  1.
   -9000007    1    1    2    0  501 -0.19316983392E+03  0.82020044265E+02  0.80855202108E+03  0.92617398106E+03  0.40000000000E+03 0. -1.
<mgrwt>
<rscale>  2 0.45188262E+03</rscale>
<asrwt>0</asrwt>
<pdfrwt beam="1">  1        1 0.34027721E+00 0.45188262E+03</pdfrwt>
<pdfrwt beam="2">  1       -1 0.14893979E-01 0.45188262E+03</pdfrwt>
<totfact> 0.76862752E+01</totfact>
</mgrwt>
</event>
<event>
 6    1  0.9205235E-004  0.5284010E+03  0.7818608E-02  0.1006621E+00
         -1   -1    0    0    0  501 -0.00000000000E+00  0.00000000000E+00  0.14077458112E+03  0.14077458112E+03  0.00000000000E+00 0. -1.
          1   -1    0    0  502    0  0.00000000000E+00 -0.00000000000E+00 -0.21798041503E+04  0.21798041503E+04  0.00000000000E+00 0.  1.
    9000007    2    1    2  502    0 -0.34089708541E+03 -0.52618690069E+02 -0.67158078077E+03  0.85466750004E+03  0.40056989545E+03 0.  0.
    9000005    1    3    3    0    0 -0.39840852031E+03 -0.14099479142E+02 -0.67655014346E+03  0.78527017069E+03  0.99999687468E+00 0.  0.
          4    1    3    3  502    0  0.57511434901E+02 -0.38519210928E+02  0.49693626921E+01  0.69397329347E+02  0.00000000000E+00 0.  1.
   -9000007    1    1    2    0  501  0.34089708541E+03  0.52618690069E+02 -0.13674487884E+04  0.14659112314E+04  0.40000000000E+03 0.  1.
<mgrwt>
<rscale>  2 0.52840096E+03</rscale>
<asrwt>0</asrwt>
<pdfrwt beam="1">  1        1 0.33535448E+00 0.52840096E+03</pdfrwt>
<pdfrwt beam="2">  1       -1 0.21657628E-01 0.52840096E+03</pdfrwt>
<totfact> 0.43116974E+01</totfact>
</mgrwt>
</event>
<event>
 6    1  0.9205235E-004  0.4333789E+03  0.7818608E-02  0.1032798E+00
          3   -1    0    0  502    0  0.00000000000E+00  0.00000000000E+00  0.36677432110E+03  0.36677432110E+03  0.00000000000E+00 0.  1.
         -3   -1    0    0    0  501 -0.00000000000E+00 -0.00000000000E+00 -0.51728150296E+03  0.51728150296E+03  0.00000000000E+00 0. -1.
    9000007    2    1    2  502    0 -0.45871357922E+02 -0.15664801817E+03 -0.31177517163E+02  0.43585681475E+03  0.40293466258E+03 0.  0.
    9000005    1    3    3    0    0  0.70405021072E+01 -0.11141115507E+03 -0.21337403553E+03  0.24081422960E+03  0.99999687468E+00 0.  0.
          4    1    3    3  502    0 -0.52911860029E+02 -0.45236863102E+02  0.18219651837E+03  0.19504258515E+03  0.00000000000E+00 0.  1.
   -9000007    1    1    2    0  501  0.45871357922E+02  0.15664801817E+03 -0.11932966470E+03  0.44819900932E+03  0.40000000000E+03 0. -1.
<mgrwt>
<rscale>  2 0.43337889E+03</rscale>
<asrwt>0</asrwt>
<pdfrwt beam="1">  1        3 0.56426819E-01 0.43337889E+03</pdfrwt>
<pdfrwt beam="2">  1       -3 0.79581770E-01 0.43337889E+03</pdfrwt>
<totfact> 0.11822385E+01</totfact>
</mgrwt>
</event>
<event>
 6    1  0.9205235E-004  0.4616751E+03  0.7818608E-02  0.1024297E+00
          2   -1    0    0  502    0  0.00000000000E+00  0.00000000000E+00  0.68642799782E+03  0.68642799782E+03  0.00000000000E+00 0. -1.
         -2   -1    0    0    0  501 -0.00000000000E+00 -0.00000000000E+00 -0.31246531213E+03  0.31246531213E+03  0.00000000000E+00 0.  1.
    9000007    2    1    2  502    0  0.22809708383E+03 -0.33811041919E+02  0.14747755088E+03  0.48462977585E+03  0.39993115085E+03 0.  0.
    9000005    1    3    3    0    0  0.22671978999E+03 -0.16666738053E+03  0.19628303736E+03  0.34308586338E+03  0.99999687468E+00 0.  0.
          4    1    3    3  502    0  0.13772938358E+01  0.13285633861E+03 -0.48805486483E+02  0.14154391247E+03  0.00000000000E+00 0.  1.
   -9000007    1    1    2    0  501 -0.22809708383E+03  0.33811041919E+02  0.22648513482E+03  0.51426353410E+03  0.40000000000E+03 0. -1.
<mgrwt>
<rscale>  2 0.46167513E+03</rscale>
<asrwt>0</asrwt>
<pdfrwt beam="1">  1        2 0.10560431E+00 0.46167513E+03</pdfrwt>
<pdfrwt beam="2">  1       -2 0.48071586E-01 0.46167513E+03</pdfrwt>
<totfact> 0.17706290E+02</totfact>
</mgrwt>
</event>
<event>
 6    1  0.9205235E-004  0.4011877E+03  0.7818608E-02  0.1043369E+00
          2   -1    0    0  502    0  0.00000000000E+00  0.00000000000E+00  0.13910133811E+04  0.13910133811E+04  0.00000000000E+00 0. -1.
         -2   -1    0    0    0  501 -0.00000000000E+00 -0.00000000000E+00 -0.12405186603E+03  0.12405186603E+03  0.00000000000E+00 0.  1.
    9000007    2    1    2  502    0 -0.62406746225E+02  0.27409018099E+02  0.43050081936E+03  0.58538124076E+03  0.39076128942E+03 0.  0.
    9000005    1    3    3    0    0  0.10930719649E+03  0.10436203556E+03  0.47110328773E+02  0.15830312929E+03  0.99999687468E+00 0.  0.
          4    1    3    3  502    0 -0.17171394272E+03 -0.76953017464E+02  0.38339049059E+03  0.42707811147E+03  0.00000000000E+00 0.  1.
   -9000007    1    1    2    0  501  0.62406746225E+02 -0.27409018099E+02  0.83646069573E+03  0.92968400640E+03  0.40000000000E+03 0. -1.
<mgrwt>
<rscale>  2 0.40118774E+03</rscale>
<asrwt>0</asrwt>
<pdfrwt beam="1">  1        2 0.21400205E+00 0.40118774E+03</pdfrwt>
<pdfrwt beam="2">  1       -2 0.19084903E-01 0.40118774E+03</pdfrwt>
<totfact> 0.35255105E+02</totfact>
</mgrwt>
</event>
<event>
 6    1  0.9205235E-004  0.4279555E+03  0.7818608E-02  0.1034508E+00
          2   -1    0    0  502    0  0.00000000000E+00  0.00000000000E+00  0.25598607738E+04  0.25598607738E+04  0.00000000000E+00 0. -1.
         -2   -1    0    0    0  501 -0.00000000000E+00 -0.00000000000E+00 -0.75343731034E+02  0.75343731034E+02  0.00000000000E+00 0.  1.
    9000007    2    1    2  502    0 -0.14201523978E+03 -0.41087905942E+02  0.95061697970E+03  0.10431285180E+04  0.40322192233E+03 0.  0.
    9000005    1    3    3    0    0 -0.84373429509E+02 -0.54768293574E+02  0.97418844809E+03  0.97936845670E+03  0.99999687468E+00 0.  0.
          4    1    3    3  502    0 -0.57641810274E+02  0.13680387632E+02 -0.23571468386E+02  0.63760061318E+02  0.00000000000E+00 0.  1.
   -9000007    1    1    2    0  501  0.14201523978E+03  0.41087905942E+02  0.15339000631E+04  0.15920759869E+04  0.40000000000E+03 0. -1.
<mgrwt>
<rscale>  2 0.42795553E+03</rscale>
<asrwt>0</asrwt>
<pdfrwt beam="1">  1        2 0.39382467E+00 0.42795553E+03</pdfrwt>
<pdfrwt beam="2">  1       -2 0.11591345E-01 0.42795553E+03</pdfrwt>
<totfact> 0.18813414E+02</totfact>
</mgrwt>
</event>
<event>
 6    1  0.9205235E-004  0.5979497E+03  0.7818608E-02  0.9909669E-01
         -2   -1    0    0    0  501 -0.00000000000E+00  0.00000000000E+00  0.28983684342E+03  0.28983684342E+03  0.00000000000E+00 0. -1.
          2   -1    0    0  502    0  0.00000000000E+00 -0.00000000000E+00 -0.21244968028E+04  0.21244968028E+04  0.00000000000E+00 0.  1.
    9000007    2    1    2  502    0  0.29361156182E+03  0.33428312645E+03 -0.16987466141E+04  0.18007984840E+04  0.39897639421E+03 0.  0.
    9000005    1    3    3    0    0 -0.50645055635E+02  0.15211097475E+03 -0.22384539271E+03  0.27533693928E+03  0.99999687468E+00 0.  0.
          4    1    3    3  502    0  0.34425661745E+03  0.18217215170E+03 -0.14749012214E+04  0.15254615447E+04  0.00000000000E+00 0.  1.
   -9000007    1    1    2    0  501 -0.29361156182E+03 -0.33428312645E+03 -0.13591334527E+03  0.61353516222E+03  0.40000000000E+03 0. -1.
<mgrwt>
<rscale>  2 0.59794967E+03</rscale>
<asrwt>0</asrwt>
<pdfrwt beam="1">  1        2 0.32684566E+00 0.59794967E+03</pdfrwt>
<pdfrwt beam="2">  1       -2 0.44590284E-01 0.59794967E+03</pdfrwt>
<totfact> 0.28772165E+01</totfact>
</mgrwt>
</event>
<event>
 6    1  0.9205235E-004  0.4723318E+03  0.7818608E-02  0.1021264E+00
         -1   -1    0    0    0  501 -0.00000000000E+00  0.00000000000E+00  0.74058891755E+03  0.74058891755E+03  0.00000000000E+00 0. -1.
          1   -1    0    0  502    0  0.00000000000E+00 -0.00000000000E+00 -0.43210742722E+03  0.43210742722E+03  0.00000000000E+00 0.  1.
    9000007    2    1    2  502    0 -0.80718058238E+02 -0.23789597244E+03  0.47691647200E+03  0.67121828774E+03  0.39996846113E+03 0.  0.
    9000005    1    3    3    0    0 -0.52214618771E+02  0.82325704165E+02  0.17444892415E+01  0.97508621240E+02  0.99999687468E+00 0.  0.
          4    1    3    3  502    0 -0.28503439467E+02 -0.32022167661E+03  0.47517198276E+03  0.57370966650E+03  0.00000000000E+00 0.  1.
   -9000007    1    1    2    0  501  0.80718058238E+02  0.23789597244E+03 -0.16843498167E+03  0.50147805703E+03  0.40000000000E+03 0. -1.
<mgrwt>
<rscale>  2 0.47233175E+03</rscale>
<asrwt>0</asrwt>
<pdfrwt beam="1">  1        1 0.66478066E-01 0.47233175E+03</pdfrwt>
<pdfrwt beam="2">  1       -1 0.11393676E+00 0.47233175E+03</pdfrwt>
<totfact> 0.40019220E+01</totfact>
</mgrwt>
</event>
<event>
 6    1  0.9205235E-004  0.4184281E+03  0.7818608E-02  0.1037579E+00
          3   -1    0    0  502    0  0.00000000000E+00  0.00000000000E+00  0.38935389856E+03  0.38935389856E+03  0.00000000000E+00 0. -1.
         -3   -1    0    0    0  501 -0.00000000000E+00 -0.00000000000E+00 -0.77889065979E+03  0.77889065979E+03  0.00000000000E+00 0.  1.
    9000007    2    1    2  502    0 -0.11547681323E+03 -0.41592864759E+02  0.18498398963E+03  0.45751327724E+03  0.40004307473E+03 0.  0.
    9000005    1    3    3    0    0  0.14723412054E+03  0.15403057107E+02  0.84941949701E+02  0.17067886580E+03  0.99999687468E+00 0.  0.
          4    1    3    3  502    0 -0.26271093377E+03 -0.56995921866E+02  0.10004203993E+03  0.28683441143E+03  0.00000000000E+00 0.  1.
   -9000007    1    1    2    0  501  0.11547681323E+03  0.41592864759E+02 -0.57452075085E+03  0.71073128111E+03  0.40000000000E+03 0.  1.
<mgrwt>
<rscale>  2 0.41842812E+03</rscale>
<asrwt>0</asrwt>
<pdfrwt beam="1">  1        3 0.59900601E-01 0.41842812E+03</pdfrwt>
<pdfrwt beam="2">  1       -3 0.11982933E+00 0.41842812E+03</pdfrwt>
<totfact> 0.40439280E+00</totfact>
</mgrwt>
</event>
<event>
 6    1  0.9205235E-004  0.4188151E+03  0.7818608E-02  0.1037453E+00
          2   -1    0    0  502    0  0.00000000000E+00  0.00000000000E+00  0.43454045828E+03  0.43454045828E+03  0.00000000000E+00 0.  1.
         -2   -1    0    0    0  501 -0.00000000000E+00 -0.00000000000E+00 -0.47362006178E+03  0.47362006178E+03  0.00000000000E+00 0. -1.
    9000007    2    1    2  502    0 -0.29512520896E+02 -0.12176188834E+03  0.15499403884E+03  0.44624978735E+03  0.39927280686E+03 0.  0.
    9000005    1    3    3    0    0  0.10867309597E+03 -0.10197185202E+03 -0.82818316273E+02  0.17049332507E+03  0.99999687468E+00 0.  0.
          4    1    3    3  502    0 -0.13818561686E+03 -0.19790036321E+02  0.23781235511E+03  0.27575646228E+03  0.00000000000E+00 0.  1.
   -9000007    1    1    2    0  501  0.29512520896E+02  0.12176188834E+03 -0.19407364234E+03  0.46191073271E+03  0.40000000000E+03 0. -1.
<mgrwt>
<rscale>  2 0.41881511E+03</rscale>
<asrwt>0</asrwt>
<pdfrwt beam="1">  1        2 0.66852379E-01 0.41881511E+03</pdfrwt>
<pdfrwt beam="2">  1       -2 0.72864624E-01 0.41881511E+03</pdfrwt>
<totfact> 0.12694771E+02</totfact>
</mgrwt>
</event>
<event>
 6    1  0.9205235E-004  0.4600752E+03  0.7818608E-02  0.1024759E+00
          2   -1    0    0  502    0  0.00000000000E+00  0.00000000000E+00  0.21145151204E+03  0.21145151204E+03  0.00000000000E+00 0. -1.
         -2   -1    0    0    0  501 -0.00000000000E+00 -0.00000000000E+00 -0.10709294331E+04  0.10709294331E+04  0.00000000000E+00 0.  1.
    9000007    2    1    2  502    0 -0.44088300793E+02  0.22293954965E+03 -0.59357301653E+03  0.75101361521E+03  0.40005837477E+03 0.  0.
    9000005    1    3    3    0    0  0.16822183029E+03  0.13256628271E+03 -0.19087058542E+03  0.28688845197E+03  0.99999687468E+00 0.  0.
          4    1    3    3  502    0 -0.21231013109E+03  0.90373266935E+02 -0.40270243110E+03  0.46412516324E+03  0.00000000000E+00 0.  1.
   -9000007    1    1    2    0  501  0.44088300793E+02 -0.22293954965E+03 -0.26590490455E+03  0.53136732994E+03  0.40000000000E+03 0. -1.
<mgrwt>
<rscale>  2 0.46007518E+03</rscale>
<asrwt>0</asrwt>
<pdfrwt beam="1">  1        2 0.32531002E-01 0.46007518E+03</pdfrwt>
<pdfrwt beam="2">  1       -2 0.16475837E+00 0.46007518E+03</pdfrwt>
<totfact> 0.39076054E+01</totfact>
</mgrwt>
</event>
<event>
 6    1  0.9205235E-004  0.4578537E+03  0.7818608E-02  0.1025406E+00
         -1   -1    0    0    0  501 -0.00000000000E+00  0.00000000000E+00  0.39278208721E+03  0.39278208721E+03  0.00000000000E+00 0.  1.
          1   -1    0    0  502    0  0.00000000000E+00 -0.00000000000E+00 -0.78920808834E+03  0.78920808834E+03  0.00000000000E+00 0. -1.
    9000007    2    1    2  502    0 -0.48481429486E+02 -0.21779359513E+03 -0.53443161640E+03  0.70362833663E+03  0.39961379407E+03 0.  0.
    9000005    1    3    3    0    0 -0.21874009477E+03 -0.87156169909E+02 -0.21534537939E+03  0.31908942231E+03  0.99999687468E+00 0.  0.
          4    1    3    3  502    0  0.17025866528E+03 -0.13063742522E+03 -0.31908623701E+03  0.38453891431E+03  0.00000000000E+00 0.  1.
   -9000007    1    1    2    0  501  0.48481429486E+02  0.21779359513E+03  0.13800561527E+03  0.47836183892E+03  0.40000000000E+03 0.  1.
<mgrwt>
<rscale>  2 0.45785373E+03</rscale>
<asrwt>0</asrwt>
<pdfrwt beam="1">  1        1 0.12141663E+00 0.45785373E+03</pdfrwt>
<pdfrwt beam="2">  1       -1 0.60428014E-01 0.45785373E+03</pdfrwt>
<totfact> 0.66172954E+01</totfact>
</mgrwt>
</event>
<event>
 6    1  0.9205235E-004  0.4319193E+03  0.7818608E-02  0.1033255E+00
         -2   -1    0    0    0  501 -0.00000000000E+00  0.00000000000E+00  0.53995883853E+02  0.53995883853E+02  0.00000000000E+00 0. -1.
          2   -1    0    0  502    0  0.00000000000E+00 -0.00000000000E+00 -0.34970938345E+04  0.34970938345E+04  0.00000000000E+00 0.  1.
    9000007    2    1    2  502    0 -0.11683400987E+02  0.16310258676E+03 -0.19155691473E+04  0.19636127261E+04  0.39953826426E+03 0.  0.
    9000005    1    3    3    0    0  0.71716678719E+02 -0.52442853979E+02 -0.10156330430E+03  0.13494309806E+03  0.99999687468E+00 0.  0.
          4    1    3    3  502    0 -0.83400079707E+02  0.21554544074E+03 -0.18140058430E+04  0.18286696281E+04  0.00000000000E+00 0.  1.
   -9000007    1    1    2    0  501  0.11683400987E+02 -0.16310258676E+03 -0.15275288033E+04  0.15874769922E+04  0.40000000000E+03 0. -1.
<mgrwt>
<rscale>  2 0.43191929E+03</rscale>
<asrwt>0</asrwt>
<pdfrwt beam="1">  1        2 0.53801457E+00 0.43191929E+03</pdfrwt>
<pdfrwt beam="2">  1       -2 0.83070570E-02 0.43191929E+03</pdfrwt>
<totfact> 0.86402718E+01</totfact>
</mgrwt>
</event>
<event>
 6    1  0.9205235E-004  0.4207848E+03  0.7818608E-02  0.1036811E+00
         -1   -1    0    0    0  501 -0.00000000000E+00  0.00000000000E+00  0.24679576105E+03  0.24679576105E+03  0.00000000000E+00 0. -1.
          1   -1    0    0  502    0  0.00000000000E+00 -0.00000000000E+00 -0.92767983684E+03  0.92767983684E+03  0.00000000000E+00 0.  1.
    9000007    2    1    2  502    0 -0.22471512780E+02  0.12891347354E+03 -0.60832870475E+02  0.42508441181E+03  0.39984055133E+03 0.  0.
    9000005    1    3    3    0    0  0.13533529995E+03 -0.77634300346E+02  0.78781080290E+01  0.15622353402E+03  0.99999687468E+00 0.  0.
          4    1    3    3  502    0 -0.15780681273E+03  0.20654777389E+03 -0.68710978504E+02  0.26886087779E+03  0.00000000000E+00 0.  1.
   -9000007    1    1    2    0  501  0.22471512780E+02 -0.12891347354E+03 -0.62005120532E+03  0.74939118607E+03  0.40000000000E+03 0.  1.
<mgrwt>
<rscale>  2 0.42078483E+03</rscale>
<asrwt>0</asrwt>
<pdfrwt beam="1">  1        1 0.14271997E+00 0.42078483E+03</pdfrwt>
<pdfrwt beam="2">  1       -1 0.37968579E-01 0.42078483E+03</pdfrwt>
<totfact> 0.12160946E+02</totfact>
</mgrwt>
</event>
<event>
 6    1  0.9205235E-004  0.4311267E+03  0.7818608E-02  0.1033505E+00
          2   -1    0    0  502    0  0.00000000000E+00  0.00000000000E+00  0.46674054041E+03  0.46674054041E+03  0.00000000000E+00 0. -1.
         -2   -1    0    0    0  501 -0.00000000000E+00 -0.00000000000E+00 -0.40365445381E+03  0.40365445381E+03  0.00000000000E+00 0.  1.
    9000007    2    1    2  502    0 -0.12726835357E+02 -0.16094670082E+03 -0.18920739698E+02  0.43131535178E+03  0.39951110804E+03 0.  0.
    9000005    1    3    3    0    0 -0.71294406022E+02 -0.19800251962E+03  0.14350556812E+03  0.25472090252E+03  0.99999687468E+00 0.  0.
          4    1    3    3  502    0  0.58567570665E+02  0.37055818802E+02 -0.16242630781E+03  0.17659444926E+03  0.00000000000E+00 0.  1.
   -9000007    1    1    2    0  501  0.12726835357E+02  0.16094670082E+03  0.82006826295E+02  0.43907964244E+03  0.40000000000E+03 0.  1.
<mgrwt>
<rscale>  2 0.43112675E+03</rscale>
<asrwt>0</asrwt>
<pdfrwt beam="1">  1        2 0.71806237E-01 0.43112675E+03</pdfrwt>
<pdfrwt beam="2">  1       -2 0.62100685E-01 0.43112675E+03</pdfrwt>
<totfact> 0.16493984E+02</totfact>
</mgrwt>
</event>
<event>
 6    1  0.9205235E-004  0.4718773E+03  0.7818608E-02  0.1021392E+00
         -1   -1    0    0    0  501 -0.00000000000E+00  0.00000000000E+00  0.75104055773E+03  0.75104055773E+03  0.00000000000E+00 0.  1.
          1   -1    0    0  502    0  0.00000000000E+00 -0.00000000000E+00 -0.32840983614E+03  0.32840983614E+03  0.00000000000E+00 0. -1.
    9000007    2    1    2  502    0  0.42972888939E+02 -0.24611438076E+03  0.37971469591E+03  0.60588863141E+03  0.40062304699E+03 0.  0.
    9000005    1    3    3    0    0 -0.10657982296E+03 -0.47616240561E+02 -0.35466099636E+02  0.12200577545E+03  0.99999687468E+00 0.  0.
          4    1    3    3  502    0  0.14955271190E+03 -0.19849814020E+03  0.41518079555E+03  0.48388285596E+03  0.00000000000E+00 0.  1.
   -9000007    1    1    2    0  501 -0.42972888939E+02  0.24611438076E+03  0.42916025674E+02  0.47356176246E+03  0.40000000000E+03 0. -1.
<mgrwt>
<rscale>  2 0.47187735E+03</rscale>
<asrwt>0</asrwt>
<pdfrwt beam="1">  1        1 0.50524590E-01 0.47187735E+03</pdfrwt>
<pdfrwt beam="2">  1       -1 0.11554470E+00 0.47187735E+03</pdfrwt>
<totfact> 0.55359723E+01</totfact>
</mgrwt>
</event>
<event>
 6    1  0.9205235E-004  0.4646771E+03  0.7818608E-02  0.1023433E+00
          1   -1    0    0  502    0  0.00000000000E+00  0.00000000000E+00  0.13567297824E+04  0.13567297824E+04  0.00000000000E+00 0. -1.
         -1   -1    0    0    0  501 -0.00000000000E+00 -0.00000000000E+00 -0.29953663864E+03  0.29953663864E+03  0.00000000000E+00 0.  1.
    9000007    2    1    2  502    0  0.10057904062E+02 -0.23641979395E+03  0.10954900151E+04  0.11899380703E+04  0.39982340791E+03 0.  0.
    9000005    1    3    3    0    0 -0.10458746500E+03 -0.62308446121E+02  0.88625473069E+03  0.89457773723E+03  0.99999687468E+00 0.  0.
          4    1    3    3  502    0  0.11464536906E+03 -0.17411134783E+03  0.20923528439E+03  0.29536033302E+03  0.00000000000E+00 0.  1.
   -9000007    1    1    2    0  501 -0.10057904062E+02  0.23641979395E+03 -0.38296871305E+02  0.46632835080E+03  0.40000000000E+03 0.  1.
<mgrwt>
<rscale>  2 0.46467714E+03</rscale>
<asrwt>0</asrwt>
<pdfrwt beam="1">  1        1 0.20872766E+00 0.46467714E+03</pdfrwt>
<pdfrwt beam="2">  1       -1 0.46082560E-01 0.46467714E+03</pdfrwt>
<totfact> 0.41346766E+01</totfact>
</mgrwt>
</event>
<event>
 6    1  0.9205235E-004  0.4728213E+03  0.7818608E-02  0.1021127E+00
          1   -1    0    0  502    0  0.00000000000E+00  0.00000000000E+00  0.43582152823E+03  0.43582152823E+03  0.00000000000E+00 0.  1.
         -1   -1    0    0    0  501 -0.00000000000E+00 -0.00000000000E+00 -0.51715580547E+03  0.51715580547E+03  0.00000000000E+00 0. -1.
    9000007    2    1    2  502    0 -0.23871765694E+03  0.82752326600E+02 -0.83548573260E+02  0.47986110021E+03  0.39931471812E+03 0.  0.
    9000005    1    3    3    0    0 -0.99273853414E+02 -0.12176845193E+03  0.86686585420E+02  0.17943917617E+03  0.99999687468E+00 0.  0.
          4    1    3    3  502    0 -0.13944380353E+03  0.20452077853E+03 -0.17023515868E+03  0.30042192404E+03  0.00000000000E+00 0.  1.
   -9000007    1    1    2    0  501  0.23871765694E+03 -0.82752326600E+02  0.22142960194E+01  0.47311623350E+03  0.40000000000E+03 0.  1.
<mgrwt>
<rscale>  2 0.47282134E+03</rscale>
<asrwt>0</asrwt>
<pdfrwt beam="1">  1        1 0.67049466E-01 0.47282134E+03</pdfrwt>
<pdfrwt beam="2">  1       -1 0.79562431E-01 0.47282134E+03</pdfrwt>
<totfact> 0.87989288E+01</totfact>
</mgrwt>
</event>
<event>
 6    1  0.9205235E-004  0.4976301E+03  0.7818608E-02  0.1014399E+00
         -1   -1    0    0    0  501 -0.00000000000E+00  0.00000000000E+00  0.37159379285E+03  0.37159379285E+03  0.00000000000E+00 0. -1.
          1   -1    0    0  502    0  0.00000000000E+00 -0.00000000000E+00 -0.96887739069E+03  0.96887739069E+03  0.00000000000E+00 0.  1.
    9000007    2    1    2  502    0 -0.26984581282E+03 -0.12181165396E+03  0.75846271604E+02  0.50335789200E+03  0.39995208311E+03 0.  0.
    9000005    1    3    3    0    0 -0.37367267424E+03 -0.10288025146E+03  0.87028003760E+02  0.39722850735E+03  0.99999687468E+00 0.  0.
          4    1    3    3  502    0  0.10382686142E+03 -0.18931402497E+02 -0.11181732156E+02  0.10612938465E+03  0.00000000000E+00 0.  1.
   -9000007    1    1    2    0  501  0.26984581282E+03  0.12181165396E+03 -0.67312986944E+03  0.83711329154E+03  0.40000000000E+03 0.  1.
<mgrwt>
<rscale>  2 0.49763006E+03</rscale>
<asrwt>0</asrwt>
<pdfrwt beam="1">  1        1 0.14905806E+00 0.49763006E+03</pdfrwt>
<pdfrwt beam="2">  1       -1 0.57168276E-01 0.49763006E+03</pdfrwt>
<totfact> 0.52322823E+01</totfact>
</mgrwt>
</event>
<event>
 6    1  0.9205235E-004  0.5138997E+03  0.7818608E-02  0.1010213E+00
         -2   -1    0    0    0  501 -0.00000000000E+00  0.00000000000E+00  0.98008537488E+02  0.98008537488E+02  0.00000000000E+00 0.  1.
          2   -1    0    0  502    0  0.00000000000E+00 -0.00000000000E+00 -0.26946322781E+04  0.26946322781E+04  0.00000000000E+00 0. -1.
    9000007    2    1    2  502    0  0.78504352721E+02  0.31230449712E+03 -0.12939066362E+04  0.13923662402E+04  0.40098919108E+03 0.  0.
    9000005    1    3    3    0    0  0.20029387375E+03  0.32376812153E+02 -0.41480032365E+03  0.46176422807E+03  0.99999687468E+00 0.  0.
          4    1    3    3  502    0 -0.12178952103E+03  0.27992768497E+03 -0.87910631254E+03  0.93060201214E+03  0.00000000000E+00 0.  1.
   -9000007    1    1    2    0  501 -0.78504352721E+02 -0.31230449712E+03 -0.13027171044E+04  0.14002745754E+04  0.40000000000E+03 0.  1.
<mgrwt>
<rscale>  2 0.51389970E+03</rscale>
<asrwt>0</asrwt>
<pdfrwt beam="1">  1        2 0.41455882E+00 0.51389970E+03</pdfrwt>
<pdfrwt beam="2">  1       -2 0.15078236E-01 0.51389970E+03</pdfrwt>
<totfact> 0.10045958E+02</totfact>
</mgrwt>
</event>
<event>
 6    1  0.9205235E-004  0.5651725E+03  0.7818608E-02  0.9980419E-01
          1   -1    0    0  502    0  0.00000000000E+00  0.00000000000E+00  0.62942038293E+03  0.62942038293E+03  0.00000000000E+00 0.  1.
         -1   -1    0    0    0  501 -0.00000000000E+00 -0.00000000000E+00 -0.52604528120E+03  0.52604528120E+03  0.00000000000E+00 0. -1.
    9000007    2    1    2  502    0 -0.39718847611E+03 -0.42366219760E+02 -0.56849287056E+02  0.56790678461E+03  0.39966572588E+03 0.  0.
    9000005    1    3    3    0    0 -0.35487189260E+02 -0.16197317690E+03  0.48279007651E+02  0.17270354139E+03  0.99999687468E+00 0.  0.
          4    1    3    3  502    0 -0.36170128685E+03  0.11960695714E+03 -0.10512829471E+03  0.39520324322E+03  0.00000000000E+00 0.  1.
   -9000007    1    1    2    0  501  0.39718847611E+03  0.42366219760E+02  0.16022438879E+03  0.58755887951E+03  0.40000000000E+03 0.  1.
<mgrwt>
<rscale>  2 0.56517245E+03</rscale>
<asrwt>0</asrwt>
<pdfrwt beam="1">  1        1 0.96833906E-01 0.56517245E+03</pdfrwt>
<pdfrwt beam="2">  1       -1 0.80930043E-01 0.56517245E+03</pdfrwt>
<totfact> 0.50612622E+01</totfact>
</mgrwt>
</event>
<event>
 6    1  0.9205235E-004  0.4203918E+03  0.7818608E-02  0.1036939E+00
         -1   -1    0    0    0  501 -0.00000000000E+00  0.00000000000E+00  0.88482857583E+03  0.88482857583E+03  0.00000000000E+00 0. -1.
          1   -1    0    0  502    0  0.00000000000E+00 -0.00000000000E+00 -0.20006674122E+03  0.20006674122E+03  0.00000000000E+00 0.  1.
    9000007    2    1    2  502    0 -0.73131058446E+02  0.10647275952E+03  0.32026143042E+03  0.52852750267E+03  0.40011165571E+03 0.  0.
    9000005    1    3    3    0    0 -0.96341335670E+02  0.10184534248E+03  0.41126103966E+03  0.43450059779E+03  0.99999687468E+00 0.  0.
          4    1    3    3  502    0  0.23210277223E+02  0.46274170338E+01 -0.90999609247E+02  0.94026904874E+02  0.00000000000E+00 0.  1.
   -9000007    1    1    2    0  501  0.73131058446E+02 -0.10647275952E+03  0.36450040419E+03  0.55636781438E+03  0.40000000000E+03 0. -1.
<mgrwt>
<rscale>  2 0.42039180E+03</rscale>
<asrwt>0</asrwt>
<pdfrwt beam="1">  1        1 0.30779499E-01 0.42039180E+03</pdfrwt>
<pdfrwt beam="2">  1       -1 0.13612747E+00 0.42039180E+03</pdfrwt>
<totfact> 0.70234125E+01</totfact>
</mgrwt>
</event>
<event>
 6    1  0.9205235E-004  0.4232243E+03  0.7818608E-02  0.1036022E+00
         -1   -1    0    0    0  501 -0.00000000000E+00  0.00000000000E+00  0.46802380541E+03  0.46802380541E+03  0.00000000000E+00 0.  1.
          1   -1    0    0  502    0  0.00000000000E+00 -0.00000000000E+00 -0.38297014084E+03  0.38297014084E+03  0.00000000000E+00 0. -1.
    9000007    2    1    2  502    0 -0.13627717450E+03 -0.20734768270E+02  0.31516252028E+02  0.42453450686E+03  0.40029348542E+03 0.  0.
    9000005    1    3    3    0    0 -0.58126226719E+02 -0.11258137481E+03 -0.15637920833E+03  0.20126768488E+03  0.99999687468E+00 0.  0.
          4    1    3    3  502    0 -0.78150947784E+02  0.91846606541E+02  0.18789546036E+03  0.22326682198E+03  0.00000000000E+00 0.  1.
   -9000007    1    1    2    0  501  0.13627717450E+03  0.20734768270E+02  0.53537412539E+02  0.42645943939E+03  0.40000000000E+03 0. -1.
<mgrwt>
<rscale>  2 0.42322429E+03</rscale>
<asrwt>0</asrwt>
<pdfrwt beam="1">  1        1 0.58918483E-01 0.42322429E+03</pdfrwt>
<pdfrwt beam="2">  1       -1 0.72003662E-01 0.42322429E+03</pdfrwt>
<totfact> 0.12882293E+02</totfact>
</mgrwt>
</event>
<event>
 6    1  0.9205235E-004  0.4252651E+03  0.7818608E-02  0.1035366E+00
         -1   -1    0    0    0  501 -0.00000000000E+00  0.00000000000E+00  0.29859855394E+03  0.29859855394E+03  0.00000000000E+00 0.  1.
          1   -1    0    0  502    0  0.00000000000E+00 -0.00000000000E+00 -0.74343632661E+03  0.74343632661E+03  0.00000000000E+00 0. -1.
    9000007    2    1    2  502    0  0.61130669476E+02  0.13176536054E+03 -0.44658483990E+03  0.61647393165E+03  0.39937829209E+03 0.  0.
    9000005    1    3    3    0    0  0.35780168225E+02  0.39110530831E+01 -0.48045461320E+03  0.48180198434E+03  0.99999687468E+00 0.  0.
          4    1    3    3  502    0  0.25350501251E+02  0.12785430745E+03  0.33869773306E+02  0.13467194731E+03  0.00000000000E+00 0.  1.
   -9000007    1    1    2    0  501 -0.61130669476E+02 -0.13176536054E+03  0.17470672320E+01  0.42556094890E+03  0.40000000000E+03 0.  1.
<mgrwt>
<rscale>  2 0.42526510E+03</rscale>
<asrwt>0</asrwt>
<pdfrwt beam="1">  1        1 0.11437482E+00 0.42526510E+03</pdfrwt>
<pdfrwt beam="2">  1       -1 0.45938240E-01 0.42526510E+03</pdfrwt>
<totfact> 0.12254412E+02</totfact>
</mgrwt>
</event>
<event>
 6    1  0.9205235E-004  0.4652310E+03  0.7818608E-02  0.1023275E+00
         -2   -1    0    0    0  501 -0.00000000000E+00  0.00000000000E+00  0.67307595579E+02  0.67307595579E+02  0.00000000000E+00 0. -1.
          2   -1    0    0  502    0  0.00000000000E+00 -0.00000000000E+00 -0.34012630785E+04  0.34012630785E+04  0.00000000000E+00 0.  1.
    9000007    2    1    2  502    0  0.14922600387E+03  0.18544374622E+03 -0.20712877015E+04  0.21228412401E+04  0.39945513518E+03 0.  0.
    9000005    1    3    3    0    0 -0.46369877132E+01  0.28272444013E+03 -0.12298022244E+04  0.12618910895E+04  0.99999687468E+00 0.  0.
          4    1    3    3  502    0  0.15386299158E+03 -0.97280693914E+02 -0.84148547709E+03  0.86095015056E+03  0.00000000000E+00 0.  1.
   -9000007    1    1    2    0  501 -0.14922600387E+03 -0.18544374622E+03 -0.12626677814E+04  0.13457294339E+04  0.40000000000E+03 0. -1.
<mgrwt>
<rscale>  2 0.46523099E+03</rscale>
<asrwt>0</asrwt>
<pdfrwt beam="1">  1        2 0.52327108E+00 0.46523099E+03</pdfrwt>
<pdfrwt beam="2">  1       -2 0.10355018E-01 0.46523099E+03</pdfrwt>
<totfact> 0.69688005E+01</totfact>
</mgrwt>
</event>
<event>
 6    1  0.9205235E-004  0.4313225E+03  0.7818608E-02  0.1033443E+00
         -1   -1    0    0    0  501 -0.00000000000E+00  0.00000000000E+00  0.16826917851E+03  0.16826917851E+03  0.00000000000E+00 0.  1.
          1   -1    0    0  502    0  0.00000000000E+00 -0.00000000000E+00 -0.11495825764E+04  0.11495825764E+04  0.00000000000E+00 0. -1.
    9000007    2    1    2  502    0 -0.81984396562E+01  0.16262420104E+03 -0.36117761234E+03  0.56215192184E+03  0.39881282626E+03 0.  0.
    9000005    1    3    3    0    0  0.19174061920E+03  0.90261952612E+02 -0.22787486768E+03  0.31119068183E+03  0.99999687468E+00 0.  0.
          4    1    3    3  502    0 -0.19993905886E+03  0.72362248427E+02 -0.13330274466E+03  0.25096124001E+03  0.00000000000E+00 0.  1.
   -9000007    1    1    2    0  501  0.81984396562E+01 -0.16262420104E+03 -0.62013578553E+03  0.75569983305E+03  0.40000000000E+03 0.  1.
<mgrwt>
<rscale>  2 0.43132247E+03</rscale>
<asrwt>0</asrwt>
<pdfrwt beam="1">  1        1 0.17685886E+00 0.43132247E+03</pdfrwt>
<pdfrwt beam="2">  1       -1 0.25887566E-01 0.43132247E+03</pdfrwt>
<totfact> 0.16079193E+02</totfact>
</mgrwt>
</event>
<event>
 6    1  0.9205235E-004  0.8144935E+03  0.7818608E-02  0.9539272E-01
          1   -1    0    0  502    0  0.00000000000E+00  0.00000000000E+00  0.20641432018E+04  0.20641432018E+04  0.00000000000E+00 0. -1.
         -1   -1    0    0    0  501 -0.00000000000E+00 -0.00000000000E+00 -0.46722590066E+03  0.46722590066E+03  0.00000000000E+00 0.  1.
    9000007    2    1    2  502    0  0.45724948764E+03  0.54283720077E+03  0.15054301753E+04  0.17115403309E+04  0.39912525767E+03 0.  0.
    9000005    1    3    3    0    0  0.11569704192E+03  0.41220894434E+03  0.99907054859E+03  0.10869429517E+04  0.99999687468E+00 0.  0.
          4    1    3    3  502    0  0.34155244572E+03  0.13062825644E+03  0.50635962668E+03  0.62459737918E+03  0.00000000000E+00 0.  1.
   -9000007    1    1    2    0  501 -0.45724948764E+03 -0.54283720077E+03  0.91487125923E+02  0.81982877157E+03  0.40000000000E+03 0.  1.
<mgrwt>
<rscale>  2 0.81449353E+03</rscale>
<asrwt>0</asrwt>
<pdfrwt beam="1">  1        1 0.31756049E+00 0.81449353E+03</pdfrwt>
<pdfrwt beam="2">  1       -1 0.71880909E-01 0.81449353E+03</pdfrwt>
<totfact> 0.54722099E+00</totfact>
</mgrwt>
</event>
<event>
 6    1  0.9205235E-004  0.4175614E+03  0.7818608E-02  0.1037863E+00
         -2   -1    0    0    0  501 -0.00000000000E+00  0.00000000000E+00  0.47717953193E+03  0.47717953193E+03  0.00000000000E+00 0.  1.
          2   -1    0    0  502    0  0.00000000000E+00 -0.00000000000E+00 -0.78721858912E+03  0.78721858912E+03  0.00000000000E+00 0. -1.
    9000007    2    1    2  502    0  0.27518142854E+02  0.11968851701E+03 -0.61764744675E+03  0.74506632864E+03  0.39818698661E+03 0.  0.
    9000005    1    3    3    0    0 -0.45994016324E+02 -0.12132951734E+03 -0.36863318965E+03  0.39080395318E+03  0.99999687468E+00 0.  0.
          4    1    3    3  502    0  0.73512159179E+02  0.24101803434E+03 -0.24901425710E+03  0.35426237546E+03  0.00000000000E+00 0.  1.
   -9000007    1    1    2    0  501 -0.27518142854E+02 -0.11968851701E+03  0.30760838955E+03  0.51933179241E+03  0.40000000000E+03 0.  1.
<mgrwt>
<rscale>  2 0.41756140E+03</rscale>
<asrwt>0</asrwt>
<pdfrwt beam="1">  1        2 0.12111055E+00 0.41756140E+03</pdfrwt>
<pdfrwt beam="2">  1       -2 0.73412236E-01 0.41756140E+03</pdfrwt>
<totfact> 0.61696813E+01</totfact>
</mgrwt>
</event>
<event>
 6    1  0.9205235E-004  0.4088020E+03  0.7818608E-02  0.1040774E+00
          2   -1    0    0  502    0  0.00000000000E+00  0.00000000000E+00  0.15991297911E+04  0.15991297911E+04  0.00000000000E+00 0.  1.
         -2   -1    0    0    0  501 -0.00000000000E+00 -0.00000000000E+00 -0.12454545158E+03  0.12454545158E+03  0.00000000000E+00 0. -1.
    9000007    2    1    2  502    0 -0.38687751106E+02  0.76854883143E+02  0.10824673111E+04  0.11569661647E+04  0.39928913262E+03 0.  0.
    9000005    1    3    3    0    0 -0.17923620359E+03  0.13305277185E+03  0.85557996869E+03  0.88422097893E+03  0.99999687468E+00 0.  0.
          4    1    3    3  502    0  0.14054845249E+03 -0.56197888708E+02  0.22688734241E+03  0.27274518573E+03  0.00000000000E+00 0.  1.
   -9000007    1    1    2    0  501  0.38687751106E+02 -0.76854883143E+02  0.39211702845E+03  0.56670907805E+03  0.40000000000E+03 0. -1.
<mgrwt>
<rscale>  2 0.40880201E+03</rscale>
<asrwt>0</asrwt>
<pdfrwt beam="1">  1        2 0.24601995E+00 0.40880201E+03</pdfrwt>
<pdfrwt beam="2">  1       -2 0.19160840E-01 0.40880201E+03</pdfrwt>
<totfact> 0.26934619E+02</totfact>
</mgrwt>
</event>
<event>
 6    1  0.9205235E-004  0.4238277E+03  0.7818608E-02  0.1035828E+00
          2   -1    0    0  502    0  0.00000000000E+00  0.00000000000E+00  0.50239652042E+03  0.50239652042E+03  0.00000000000E+00 0.  1.
         -2   -1    0    0    0  501 -0.00000000000E+00 -0.00000000000E+00 -0.36342921570E+03  0.36342921570E+03  0.00000000000E+00 0. -1.
    9000007    2    1    2  502    0 -0.73613993545E+01  0.13907885868E+03  0.14448291015E+02  0.42434855222E+03  0.40058185371E+03 0.  0.
    9000005    1    3    3    0    0 -0.83251312938E+02  0.17915120526E+03  0.16077846931E+03  0.25470895477E+03  0.99999687468E+00 0.  0.
          4    1    3    3  502    0  0.75889913584E+02 -0.40072346576E+02 -0.14633017829E+03  0.16963959745E+03  0.00000000000E+00 0.  1.
   -9000007    1    1    2    0  501  0.73613993545E+01 -0.13907885868E+03  0.12451901370E+03  0.44147718390E+03  0.40000000000E+03 0. -1.
<mgrwt>
<rscale>  2 0.42382765E+03</rscale>
<asrwt>0</asrwt>
<pdfrwt beam="1">  1        2 0.77291773E-01 0.42382765E+03</pdfrwt>
<pdfrwt beam="2">  1       -2 0.55912187E-01 0.42382765E+03</pdfrwt>
<totfact> 0.18894576E+02</totfact>
</mgrwt>
</event>
<event>
 6    1  0.9205235E-004  0.4256370E+03  0.7818608E-02  0.1035247E+00
         -1   -1    0    0    0  501 -0.00000000000E+00  0.00000000000E+00  0.10169535660E+04  0.10169535660E+04  0.00000000000E+00 0. -1.
          1   -1    0    0  502    0  0.00000000000E+00 -0.00000000000E+00 -0.27656025881E+03  0.27656025881E+03  0.00000000000E+00 0.  1.
    9000007    2    1    2  502    0  0.16091236906E+03 -0.16178018451E+02 -0.18764943066E+02  0.42031524046E+03  0.38750259287E+03 0.  0.
    9000005    1    3    3    0    0  0.17817326317E+03  0.71911197043E+02  0.14013437967E+03  0.23781416343E+03  0.99999687468E+00 0.  0.
          4    1    3    3  502    0 -0.17260894118E+02 -0.88089215494E+02 -0.15889932273E+03  0.18250107703E+03  0.00000000000E+00 0.  1.
   -9000007    1    1    2    0  501 -0.16091236906E+03  0.16178018451E+02  0.75915825030E+03  0.87319858439E+03  0.40000000000E+03 0. -1.
<mgrwt>
<rscale>  2 0.42563697E+03</rscale>
<asrwt>0</asrwt>
<pdfrwt beam="1">  1        1 0.42547733E-01 0.42563697E+03</pdfrwt>
<pdfrwt beam="2">  1       -1 0.15645439E+00 0.42563697E+03</pdfrwt>
<totfact> 0.32213807E+01</totfact>
</mgrwt>
</event>
<event>
 6    1  0.9205235E-004  0.6879907E+03  0.7818608E-02  0.9737993E-01
         -2   -1    0    0    0  501 -0.00000000000E+00  0.00000000000E+00  0.39143357489E+03  0.39143357489E+03  0.00000000000E+00 0. -1.
          2   -1    0    0  502    0  0.00000000000E+00 -0.00000000000E+00 -0.14035928225E+04  0.14035928225E+04  0.00000000000E+00 0.  1.
    9000007    2    1    2  502    0 -0.42171464768E+03  0.36862921749E+03 -0.17190662762E+03  0.70886102809E+03  0.39900040660E+03 0.  0.
    9000005    1    3    3    0    0 -0.37553762017E+03  0.19617545061E+03  0.47107050129E+02  0.42630198891E+03  0.99999687468E+00 0.  0.
          4    1    3    3  502    0 -0.46177027514E+02  0.17245376688E+03 -0.21901367775E+03  0.28255903918E+03  0.00000000000E+00 0.  1.
   -9000007    1    1    2    0  501  0.42171464768E+03 -0.36862921749E+03 -0.84025261999E+03  0.10861653693E+04  0.40000000000E+03 0.  1.
<mgrwt>
<rscale>  2 0.68799073E+03</rscale>
<asrwt>0</asrwt>
<pdfrwt beam="1">  1        2 0.21593736E+00 0.68799073E+03</pdfrwt>
<pdfrwt beam="2">  1       -2 0.60220550E-01 0.68799073E+03</pdfrwt>
<totfact> 0.38058723E+01</totfact>
</mgrwt>
</event>
<event>
 6    1  0.9205235E-004  0.4855289E+03  0.7818608E-02  0.1017627E+00
          2   -1    0    0  502    0  0.00000000000E+00  0.00000000000E+00  0.69191450150E+03  0.69191450150E+03  0.00000000000E+00 0. -1.
         -2   -1    0    0    0  501 -0.00000000000E+00 -0.00000000000E+00 -0.39867839432E+03  0.39867839432E+03  0.00000000000E+00 0.  1.
    9000007    2    1    2  502    0 -0.66468095664E+02 -0.26751079359E+03 -0.61385955295E+02  0.48914727100E+03  0.39939552425E+03 0.  0.
    9000005    1    3    3    0    0 -0.15662744744E+03 -0.18928269383E+03  0.11888648392E+03  0.27293788951E+03  0.99999687468E+00 0.  0.
          4    1    3    3  502    0  0.90159351780E+02 -0.78228099754E+02 -0.18027243921E+03  0.21620938149E+03  0.00000000000E+00 0.  1.
   -9000007    1    1    2    0  501  0.66468095664E+02  0.26751079359E+03  0.35462206247E+03  0.60144562482E+03  0.40000000000E+03 0. -1.
<mgrwt>
<rscale>  2 0.48552889E+03</rscale>
<asrwt>0</asrwt>
<pdfrwt beam="1">  1        2 0.10644838E+00 0.48552889E+03</pdfrwt>
<pdfrwt beam="2">  1       -2 0.61335138E-01 0.48552889E+03</pdfrwt>
<totfact> 0.10603653E+02</totfact>
</mgrwt>
</event>
<event>
 6    1  0.9205235E-004  0.4753406E+03  0.7818608E-02  0.1020424E+00
          2   -1    0    0  502    0  0.00000000000E+00  0.00000000000E+00  0.49398173800E+03  0.49398173800E+03  0.00000000000E+00 0.  1.
         -2   -1    0    0    0  501 -0.00000000000E+00 -0.00000000000E+00 -0.50314484143E+03  0.50314484143E+03  0.00000000000E+00 0. -1.
    9000007    2    1    2  502    0  0.10185674423E+03  0.23585864897E+03 -0.15490610416E+03  0.49988909000E+03  0.39986135416E+03 0.  0.
    9000005    1    3    3    0    0  0.53990970897E+02  0.18552562612E+02 -0.25107182239E+03  0.25748258681E+03  0.99999687468E+00 0.  0.
          4    1    3    3  502    0  0.47865773330E+02  0.21730608636E+03  0.96165718232E+02  0.24240650319E+03  0.00000000000E+00 0.  1.
   -9000007    1    1    2    0  501 -0.10185674423E+03 -0.23585864897E+03  0.14574300073E+03  0.49723748944E+03  0.40000000000E+03 0.  1.
<mgrwt>
<rscale>  2 0.47534055E+03</rscale>
<asrwt>0</asrwt>
<pdfrwt beam="1">  1        2 0.75997190E-01 0.47534055E+03</pdfrwt>
<pdfrwt beam="2">  1       -2 0.77406899E-01 0.47534055E+03</pdfrwt>
<totfact> 0.95707526E+01</totfact>
</mgrwt>
</event>
<event>
 6    1  0.9205235E-004  0.5313036E+03  0.7818608E-02  0.1005916E+00
          2   -1    0    0  502    0  0.00000000000E+00  0.00000000000E+00  0.62701921265E+03  0.62701921265E+03  0.00000000000E+00 0.  1.
         -2   -1    0    0    0  501 -0.00000000000E+00 -0.00000000000E+00 -0.50282120191E+03  0.50282120191E+03  0.00000000000E+00 0. -1.
    9000007    2    1    2  502    0 -0.30045656242E+03 -0.18006007054E+03 -0.12069389328E+03  0.54446205867E+03  0.39896884910E+03 0.  0.
    9000005    1    3    3    0    0 -0.13340618881E+03  0.10933439098E+03 -0.12033137587E+03  0.21031371871E+03  0.99999687468E+00 0.  0.
          4    1    3    3  502    0 -0.16705037360E+03 -0.28939446152E+03 -0.36251741715E+00  0.33414833996E+03  0.00000000000E+00 0.  1.
   -9000007    1    1    2    0  501  0.30045656242E+03  0.18006007054E+03  0.24489190403E+03  0.58537835590E+03  0.40000000000E+03 0.  1.
<mgrwt>
<rscale>  2 0.53130363E+03</rscale>
<asrwt>0</asrwt>
<pdfrwt beam="1">  1        2 0.96464494E-01 0.53130363E+03</pdfrwt>
<pdfrwt beam="2">  1       -2 0.77357108E-01 0.53130363E+03</pdfrwt>
<totfact> 0.72101932E+01</totfact>
</mgrwt>
</event>
<event>
 6    1  0.9205235E-004  0.9550945E+03  0.7818608E-02  0.9359216E-01
         -4   -1    0    0    0  501 -0.00000000000E+00  0.00000000000E+00  0.12804094332E+04  0.12804094332E+04  0.00000000000E+00 0. -1.
          4   -1    0    0  502    0  0.00000000000E+00 -0.00000000000E+00 -0.71581902885E+03  0.71581902885E+03  0.00000000000E+00 0.  1.
    9000007    2    1    2  502    0 -0.31246131956E+03  0.80896958498E+03  0.35096807251E+03  0.10176078173E+04  0.40035386382E+03 0.  0.
    9000005    1    3    3    0    0 -0.28070215696E+03  0.27427908955E+03  0.26885601449E+03  0.47571764357E+03  0.99999687468E+00 0.  0.
          4    1    3    3  502    0 -0.31759162595E+02  0.53469049544E+03  0.82112058025E+02  0.54189017374E+03  0.00000000000E+00 0.  1.
   -9000007    1    1    2    0  501  0.31246131956E+03 -0.80896958498E+03  0.21362233183E+03  0.97862064474E+03  0.40000000000E+03 0.  1.
<mgrwt>
<rscale>  2 0.95509448E+03</rscale>
<asrwt>0</asrwt>
<pdfrwt beam="1">  1        4 0.11012600E+00 0.95509448E+03</pdfrwt>
<pdfrwt beam="2">  1       -4 0.19698607E+00 0.95509448E+03</pdfrwt>
<totfact> 0.17447299E-01</totfact>
</mgrwt>
</event>
<event>
 6    1  0.9205235E-004  0.4405874E+03  0.7818608E-02  0.1030567E+00
          1   -1    0    0  502    0  0.00000000000E+00  0.00000000000E+00  0.55044675049E+03  0.55044675049E+03  0.00000000000E+00 0. -1.
         -1   -1    0    0    0  501 -0.00000000000E+00 -0.00000000000E+00 -0.36180008660E+03  0.36180008660E+03  0.00000000000E+00 0.  1.
    9000007    2    1    2  502    0  0.16742486501E+03 -0.79512212623E+02  0.16678830732E+03  0.47085011629E+03  0.39940983360E+03 0.  0.
    9000005    1    3    3    0    0  0.24720467959E+03 -0.16646619832E+01  0.23424085582E+03  0.34056233385E+03  0.99999687468E+00 0.  0.
          4    1    3    3  502    0 -0.79779814582E+02 -0.77847550639E+02 -0.67452548495E+02  0.13028778244E+03  0.00000000000E+00 0.  1.
   -9000007    1    1    2    0  501 -0.16742486501E+03  0.79512212623E+02  0.21858356558E+02  0.44139672080E+03  0.40000000000E+03 0.  1.
<mgrwt>
<rscale>  2 0.44058738E+03</rscale>
<asrwt>0</asrwt>
<pdfrwt beam="1">  1        1 0.84684115E-01 0.44058738E+03</pdfrwt>
<pdfrwt beam="2">  1       -1 0.55661552E-01 0.44058738E+03</pdfrwt>
<totfact> 0.13172876E+02</totfact>
</mgrwt>
</event>
<event>
 6    1  0.9205235E-004  0.5279131E+03  0.7818608E-02  0.1006740E+00
          3   -1    0    0  502    0  0.00000000000E+00  0.00000000000E+00  0.72813891054E+03  0.72813891054E+03  0.00000000000E+00 0. -1.
         -3   -1    0    0    0  501 -0.00000000000E+00 -0.00000000000E+00 -0.53013131340E+03  0.53013131340E+03  0.00000000000E+00 0.  1.
    9000007    2    1    2  502    0  0.22142405583E+03  0.26413410042E+03 -0.23273533753E+03  0.57684898030E+03  0.39974188325E+03 0.  0.
    9000005    1    3    3    0    0  0.14701351718E+03  0.33233810193E+03 -0.48301362808E+02  0.36660006802E+03  0.99999687468E+00 0.  0.
          4    1    3    3  502    0  0.74410538654E+02 -0.68204001503E+02 -0.18443397472E+03  0.21024891228E+03  0.00000000000E+00 0.  1.
   -9000007    1    1    2    0  501 -0.22142405583E+03 -0.26413410042E+03  0.43074293468E+03  0.68142124364E+03  0.40000000000E+03 0. -1.
<mgrwt>
<rscale>  2 0.52791306E+03</rscale>
<asrwt>0</asrwt>
<pdfrwt beam="1">  1        3 0.11202137E+00 0.52791306E+03</pdfrwt>
<pdfrwt beam="2">  1       -3 0.81558663E-01 0.52791306E+03</pdfrwt>
<totfact> 0.24357647E+00</totfact>
</mgrwt>
</event>
<event>
 6    1  0.9205235E-004  0.4393596E+03  0.7818608E-02  0.1030943E+00
          2   -1    0    0  502    0  0.00000000000E+00  0.00000000000E+00  0.29855919180E+04  0.29855919180E+04  0.00000000000E+00 0. -1.
         -2   -1    0    0    0  501 -0.00000000000E+00 -0.00000000000E+00 -0.80574884895E+02  0.80574884895E+02  0.00000000000E+00 0.  1.
    9000007    2    1    2  502    0  0.15881201127E+03 -0.89245897180E+02  0.77062989134E+03  0.88699389649E+03  0.39962689836E+03 0.  0.
    9000005    1    3    3    0    0  0.11284154194E+03  0.15408203568E+03  0.35811980183E+03  0.40586362213E+03  0.99999687468E+00 0.  0.
          4    1    3    3  502    0  0.45970469324E+02 -0.24332793286E+03  0.41251008951E+03  0.48113027436E+03  0.00000000000E+00 0.  1.
   -9000007    1    1    2    0  501 -0.15881201127E+03  0.89245897180E+02  0.21343871418E+04  0.21791729064E+04  0.40000000000E+03 0. -1.
<mgrwt>
<rscale>  2 0.43935960E+03</rscale>
<asrwt>0</asrwt>
<pdfrwt beam="1">  1        2 0.45932175E+00 0.43935960E+03</pdfrwt>
<pdfrwt beam="2">  1       -2 0.12396138E-01 0.43935960E+03</pdfrwt>
<totfact> 0.95295338E+01</totfact>
</mgrwt>
</event>
<event>
 6    1  0.9205235E-004  0.4532485E+03  0.7818608E-02  0.1026758E+00
         -2   -1    0    0    0  501 -0.00000000000E+00  0.00000000000E+00  0.25031353866E+03  0.25031353866E+03  0.00000000000E+00 0. -1.
          2   -1    0    0  502    0  0.00000000000E+00 -0.00000000000E+00 -0.94171221213E+03  0.94171221213E+03  0.00000000000E+00 0.  1.
    9000007    2    1    2  502    0  0.50619845793E+02  0.20719393861E+03 -0.55930449625E+03  0.71985992330E+03  0.39985634003E+03 0.  0.
    9000005    1    3    3    0    0  0.16277065652E+03 -0.47073185099E+02 -0.15766705926E+03  0.23145209645E+03  0.99999687468E+00 0.  0.
          4    1    3    3  502    0 -0.11215081072E+03  0.25426712371E+03 -0.40163743698E+03  0.48840782685E+03  0.00000000000E+00 0.  1.
   -9000007    1    1    2    0  501 -0.50619845793E+02 -0.20719393861E+03 -0.13209417722E+03  0.47216582748E+03  0.40000000000E+03 0.  1.
<mgrwt>
<rscale>  2 0.45324854E+03</rscale>
<asrwt>0</asrwt>
<pdfrwt beam="1">  1        2 0.14487880E+00 0.45324854E+03</pdfrwt>
<pdfrwt beam="2">  1       -2 0.38509774E-01 0.45324854E+03</pdfrwt>
<totfact> 0.18094112E+02</totfact>
</mgrwt>
</event>
<event>
 6    1  0.9205235E-004  0.4131838E+03  0.7818608E-02  0.1039308E+00
         -2   -1    0    0    0  501 -0.00000000000E+00  0.00000000000E+00  0.10906661950E+03  0.10906661950E+03  0.00000000000E+00 0.  1.
          2   -1    0    0  502    0  0.00000000000E+00 -0.00000000000E+00 -0.18685537142E+04  0.18685537142E+04  0.00000000000E+00 0. -1.
    9000007    2    1    2  502    0 -0.14893322712E+02  0.10168747529E+03 -0.48173133436E+03  0.63477933911E+03  0.40039677467E+03 0.  0.
    9000005    1    3    3    0    0 -0.18073664076E+03  0.11518059872E+03 -0.38940891004E+03  0.44449139794E+03  0.99999687468E+00 0.  0.
          4    1    3    3  502    0  0.16584331805E+03 -0.13493123426E+02 -0.92322424326E+02  0.19028794117E+03  0.00000000000E+00 0.  1.
   -9000007    1    1    2    0  501  0.14893322712E+02 -0.10168747529E+03 -0.12777557603E+04  0.13428409946E+04  0.40000000000E+03 0. -1.
<mgrwt>
<rscale>  2 0.41318382E+03</rscale>
<asrwt>0</asrwt>
<pdfrwt beam="1">  1        2 0.28746982E+00 0.41318382E+03</pdfrwt>
<pdfrwt beam="2">  1       -2 0.16779479E-01 0.41318382E+03</pdfrwt>
<totfact> 0.24219549E+02</totfact>
</mgrwt>
</event>
<event>
 6    1  0.9205235E-004  0.4886880E+03  0.7818608E-02  0.1016774E+00
          1   -1    0    0  502    0  0.00000000000E+00  0.00000000000E+00  0.62668708703E+03  0.62668708703E+03  0.00000000000E+00 0. -1.
         -1   -1    0    0    0  501 -0.00000000000E+00 -0.00000000000E+00 -0.44027602055E+03  0.44027602055E+03  0.00000000000E+00 0.  1.
    9000007    2    1    2  502    0  0.97159484565E+02 -0.26379899296E+03  0.28878989382E+03  0.56745204823E+03  0.39946508000E+03 0.  0.
    9000005    1    3    3    0    0 -0.25968035179E+02 -0.96598037692E+01  0.28365844834E+03  0.28501011555E+03  0.99999687468E+00 0.  0.
          4    1    3    3  502    0  0.12312751974E+03 -0.25413918919E+03  0.51314454787E+01  0.28244193268E+03  0.00000000000E+00 0.  1.
   -9000007    1    1    2    0  501 -0.97159484565E+02  0.26379899296E+03 -0.10237882734E+03  0.49951105935E+03  0.40000000000E+03 0.  1.
<mgrwt>
<rscale>  2 0.48868799E+03</rscale>
<asrwt>0</asrwt>
<pdfrwt beam="1">  1        1 0.96413397E-01 0.48868799E+03</pdfrwt>
<pdfrwt beam="2">  1       -1 0.67734773E-01 0.48868799E+03</pdfrwt>
<totfact> 0.74208107E+01</totfact>
</mgrwt>
</event>
<event>
 6    1  0.9205235E-004  0.4111672E+03  0.7818608E-02  0.1039980E+00
         -2   -1    0    0    0  501 -0.00000000000E+00  0.00000000000E+00  0.31971588527E+03  0.31971588527E+03  0.00000000000E+00 0. -1.
          2   -1    0    0  502    0  0.00000000000E+00 -0.00000000000E+00 -0.53590356367E+03  0.53590356367E+03  0.00000000000E+00 0.  1.
    9000007    2    1    2  502    0 -0.92072927414E+02  0.24144365663E+02 -0.58759881922E+02  0.41534239360E+03  0.39999525727E+03 0.  0.
    9000005    1    3    3    0    0 -0.12255977307E+03  0.81942083291E+02  0.14170784506E+03  0.20449331611E+03  0.99999687468E+00 0.  0.
          4    1    3    3  502    0  0.30486845651E+02 -0.57797717628E+02 -0.20046772698E+03  0.21084907749E+03  0.00000000000E+00 0.  1.
   -9000007    1    1    2    0  501  0.92072927414E+02 -0.24144365663E+02 -0.15742779647E+03  0.44027705534E+03  0.40000000000E+03 0. -1.
<mgrwt>
<rscale>  2 0.41116721E+03</rscale>
<asrwt>0</asrwt>
<pdfrwt beam="1">  1        2 0.82446703E-01 0.41116721E+03</pdfrwt>
<pdfrwt beam="2">  1       -2 0.49187059E-01 0.41116721E+03</pdfrwt>
<totfact> 0.22795344E+02</totfact>
</mgrwt>
</event>
<event>
 6    1  0.9205235E-004  0.5602311E+03  0.7818608E-02  0.9991532E-01
          2   -1    0    0  502    0  0.00000000000E+00  0.00000000000E+00  0.20444005338E+04  0.20444005338E+04  0.00000000000E+00 0. -1.
         -2   -1    0    0    0  501 -0.00000000000E+00 -0.00000000000E+00 -0.19688777784E+03  0.19688777784E+03  0.00000000000E+00 0.  1.
    9000007    2    1    2  502    0 -0.17569309128E+03 -0.34816556254E+03  0.14517253080E+04  0.15566460509E+04  0.40441715656E+03 0.  0.
    9000005    1    3    3    0    0  0.12946458410E+03 -0.12562989832E+03  0.55657060463E+03  0.58507759128E+03  0.99999687468E+00 0.  0.
          4    1    3    3  502    0 -0.30515767538E+03 -0.22253566422E+03  0.89515470340E+03  0.97156845961E+03  0.00000000000E+00 0.  1.
   -9000007    1    1    2    0  501  0.17569309128E+03  0.34816556254E+03  0.39578744795E+03  0.68464226076E+03  0.40000000000E+03 0.  1.
<mgrwt>
<rscale>  2 0.56023112E+03</rscale>
<asrwt>0</asrwt>
<pdfrwt beam="1">  1        2 0.31452315E+00 0.56023112E+03</pdfrwt>
<pdfrwt beam="2">  1       -2 0.30290429E-01 0.56023112E+03</pdfrwt>
<totfact> 0.67082848E+01</totfact>
</mgrwt>
</event>
<event>
 6    1  0.9205235E-004  0.4586055E+03  0.7818608E-02  0.1025186E+00
         -2   -1    0    0    0  501 -0.00000000000E+00  0.00000000000E+00  0.96002567069E+02  0.96002567069E+02  0.00000000000E+00 0.  1.
          2   -1    0    0  502    0  0.00000000000E+00 -0.00000000000E+00 -0.23969888807E+04  0.23969888807E+04  0.00000000000E+00 0. -1.
    9000007    2    1    2  502    0 -0.65798517822E+02  0.21442104338E+03 -0.78490752951E+03  0.90907203427E+03  0.40003287967E+03 0.  0.
    9000005    1    3    3    0    0  0.13380635387E+02  0.31657599514E+03 -0.45239859247E+03  0.55232679508E+03  0.99999687468E+00 0.  0.
          4    1    3    3  502    0 -0.79179153209E+02 -0.10215495176E+03 -0.33250893704E+03  0.35674523919E+03  0.00000000000E+00 0.  1.
   -9000007    1    1    2    0  501  0.65798517822E+02 -0.21442104338E+03 -0.15160787841E+04  0.15839194135E+04  0.40000000000E+03 0. -1.
<mgrwt>
<rscale>  2 0.45860547E+03</rscale>
<asrwt>0</asrwt>
<pdfrwt beam="1">  1        2 0.36876748E+00 0.45860547E+03</pdfrwt>
<pdfrwt beam="2">  1       -2 0.14769627E-01 0.45860547E+03</pdfrwt>
<totfact> 0.15445810E+02</totfact>
</mgrwt>
</event>
<event>
 6    1  0.9205235E-004  0.4662697E+03  0.7818608E-02  0.1022978E+00
         -2   -1    0    0    0  501 -0.00000000000E+00  0.00000000000E+00  0.22938182170E+03  0.22938182170E+03  0.00000000000E+00 0.  1.
          2   -1    0    0  502    0  0.00000000000E+00 -0.00000000000E+00 -0.98903792185E+03  0.98903792185E+03  0.00000000000E+00 0. -1.
    9000007    2    1    2  502    0 -0.22541377172E+03 -0.81882336726E+02 -0.25533651058E+03  0.53150320278E+03  0.39972845206E+03 0.  0.
    9000005    1    3    3    0    0 -0.52628387886E+02 -0.20670766027E+03 -0.23501174111E+03  0.31737883118E+03  0.99999687468E+00 0.  0.
          4    1    3    3  502    0 -0.17278538383E+03  0.12482532354E+03 -0.20324769474E+02  0.21412437161E+03  0.00000000000E+00 0.  1.
   -9000007    1    1    2    0  501  0.22541377172E+03  0.81882336726E+02 -0.50431958957E+03  0.68691654076E+03  0.40000000000E+03 0. -1.
<mgrwt>
<rscale>  2 0.46626975E+03</rscale>
<asrwt>0</asrwt>
<pdfrwt beam="1">  1        2 0.15215967E+00 0.46626975E+03</pdfrwt>
<pdfrwt beam="2">  1       -2 0.35289512E-01 0.46626975E+03</pdfrwt>
<totfact> 0.19911736E+02</totfact>
</mgrwt>
</event>
<event>
 6    1  0.9205235E-004  0.4549500E+03  0.7818608E-02  0.1026256E+00
         -2   -1    0    0    0  501 -0.00000000000E+00  0.00000000000E+00  0.59490036546E+03  0.59490036546E+03  0.00000000000E+00 0. -1.
          2   -1    0    0  502    0  0.00000000000E+00 -0.00000000000E+00 -0.34795327554E+03  0.34795327554E+03  0.00000000000E+00 0.  1.
    9000007    2    1    2  502    0  0.61160657234E+02  0.20845778959E+03  0.12780002023E+03  0.47233127144E+03  0.39946052218E+03 0.  0.
    9000005    1    3    3    0    0  0.13209499662E+03  0.24684629393E+03 -0.43181922153E+02  0.28328053119E+03  0.99999687468E+00 0.  0.
          4    1    3    3  502    0 -0.70934339389E+02 -0.38388504333E+02  0.17098194238E+03  0.18905074025E+03  0.00000000000E+00 0.  1.
   -9000007    1    1    2    0  501 -0.61160657234E+02 -0.20845778959E+03  0.11914706970E+03  0.47052236956E+03  0.40000000000E+03 0. -1.
<mgrwt>
<rscale>  2 0.45495002E+03</rscale>
<asrwt>0</asrwt>
<pdfrwt beam="1">  1        2 0.53531273E-01 0.45495002E+03</pdfrwt>
<pdfrwt beam="2">  1       -2 0.91523133E-01 0.45495002E+03</pdfrwt>
<totfact> 0.97182740E+01</totfact>
</mgrwt>
</event>
<event>
 6    1  0.9205235E-004  0.5342502E+03  0.7818608E-02  0.1005207E+00
          1   -1    0    0  502    0  0.00000000000E+00  0.00000000000E+00  0.97966914366E+03  0.97966914366E+03  0.00000000000E+00 0. -1.
         -1   -1    0    0    0  501 -0.00000000000E+00 -0.00000000000E+00 -0.30603966874E+03  0.30603966874E+03  0.00000000000E+00 0.  1.
    9000007    2    1    2  502    0  0.34955917712E+03 -0.57142200026E+02  0.19593837711E+03  0.56901806023E+03  0.39991606108E+03 0.  0.
    9000005    1    3    3    0    0  0.28659921102E+03 -0.15314473343E+03  0.27820891917E+03  0.42777753545E+03  0.99999687468E+00 0.  0.
          4    1    3    3  502    0  0.62959966094E+02  0.96002533400E+02 -0.82270542058E+02  0.14124052478E+03  0.00000000000E+00 0.  1.
   -9000007    1    1    2    0  501 -0.34955917712E+03  0.57142200026E+02  0.47769109781E+03  0.71669075218E+03  0.40000000000E+03 0. -1.
<mgrwt>
<rscale>  2 0.53425020E+03</rscale>
<asrwt>0</asrwt>
<pdfrwt beam="1">  1        1 0.15071833E+00 0.53425020E+03</pdfrwt>
<pdfrwt beam="2">  1       -1 0.47083026E-01 0.53425020E+03</pdfrwt>
<totfact> 0.73777009E+01</totfact>
</mgrwt>
</event>
<event>
 6    1  0.9205235E-004  0.6579323E+03  0.7818608E-02  0.9792008E-01
         -2   -1    0    0    0  501 -0.00000000000E+00  0.00000000000E+00  0.20217358305E+03  0.20217358305E+03  0.00000000000E+00 0.  1.
          2   -1    0    0  502    0  0.00000000000E+00 -0.00000000000E+00 -0.26807742475E+04  0.26807742475E+04  0.00000000000E+00 0. -1.
    9000007    2    1    2  502    0  0.23153175157E+03  0.46833032660E+03 -0.18859814830E+04  0.19974323078E+04  0.39983674566E+03 0.  0.
    9000005    1    3    3    0    0  0.27516811627E+03  0.50581055054E+03 -0.18246310958E+04  0.19133325485E+04  0.99999687468E+00 0.  0.
          4    1    3    3  502    0 -0.43636364700E+02 -0.37480223938E+02 -0.61350387240E+02  0.84099759364E+02  0.00000000000E+00 0.  1.
   -9000007    1    1    2    0  501 -0.23153175157E+03 -0.46833032660E+03 -0.59261918138E+03  0.88551552270E+03  0.40000000000E+03 0.  1.
<mgrwt>
<rscale>  2 0.65793233E+03</rscale>
<asrwt>0</asrwt>
<pdfrwt beam="1">  1        2 0.41242680E+00 0.65793233E+03</pdfrwt>
<pdfrwt beam="2">  1       -2 0.31103628E-01 0.65793233E+03</pdfrwt>
<totfact> 0.27800914E+01</totfact>
</mgrwt>
</event>
<event>
 6    1  0.9205235E-004  0.4017558E+03  0.7818608E-02  0.1043173E+00
          1   -1    0    0  502    0  0.00000000000E+00  0.00000000000E+00  0.96846508805E+03  0.96846508805E+03  0.00000000000E+00 0. -1.
         -1   -1    0    0    0  501 -0.00000000000E+00 -0.00000000000E+00 -0.17284283925E+03  0.17284283925E+03  0.00000000000E+00 0.  1.
    9000007    2    1    2  502    0  0.28699578381E+02  0.89423946714E+01  0.50630723174E+03  0.64673052050E+03  0.40126016625E+03 0.  0.
    9000005    1    3    3    0    0  0.72924016834E+01  0.16808189954E+03  0.44345053941E+03  0.47429324787E+03  0.99999687468E+00 0.  0.
          4    1    3    3  502    0  0.21407176697E+02 -0.15913950487E+03  0.62856692329E+02  0.17243727264E+03  0.00000000000E+00 0.  1.
   -9000007    1    1    2    0  501 -0.28699578381E+02 -0.89423946714E+01  0.28931501705E+03  0.49457740680E+03  0.40000000000E+03 0.  1.
<mgrwt>
<rscale>  2 0.40175578E+03</rscale>
<asrwt>0</asrwt>
<pdfrwt beam="1">  1        1 0.14899463E+00 0.40175578E+03</pdfrwt>
<pdfrwt beam="2">  1       -1 0.26591207E-01 0.40175578E+03</pdfrwt>
<totfact> 0.21034498E+02</totfact>
</mgrwt>
</event>
<event>
 6    1  0.9205235E-004  0.4915069E+03  0.7818608E-02  0.1016020E+00
          2   -1    0    0  502    0  0.00000000000E+00  0.00000000000E+00  0.13123867285E+04  0.13123867285E+04  0.00000000000E+00 0.  1.
         -2   -1    0    0    0  501 -0.00000000000E+00 -0.00000000000E+00 -0.49026218842E+03  0.49026218842E+03  0.00000000000E+00 0. -1.
    9000007    2    1    2  502    0  0.25672289337E+03  0.12518492752E+03 -0.30123207074E+03  0.57647275293E+03  0.40000270545E+03 0.  0.
    9000005    1    3    3    0    0 -0.54487505685E+02 -0.81452189339E+02 -0.13689425548E+03  0.16835790626E+03  0.99999687468E+00 0.  0.
          4    1    3    3  502    0  0.31121039906E+03  0.20663711686E+03 -0.16433781526E+03  0.40811484666E+03  0.00000000000E+00 0.  1.
   -9000007    1    1    2    0  501 -0.25672289337E+03 -0.12518492752E+03  0.11233566108E+04  0.12261761639E+04  0.40000000000E+03 0.  1.
<mgrwt>
<rscale>  2 0.49150686E+03</rscale>
<asrwt>0</asrwt>
<pdfrwt beam="1">  1        2 0.20190565E+00 0.49150686E+03</pdfrwt>
<pdfrwt beam="2">  1       -2 0.75424953E-01 0.49150686E+03</pdfrwt>
<totfact> 0.27101800E+01</totfact>
</mgrwt>
</event>
<event>
 6    1  0.9205235E-004  0.5169264E+03  0.7818608E-02  0.1009453E+00
         -2   -1    0    0    0  501 -0.00000000000E+00  0.00000000000E+00  0.62147956652E+03  0.62147956652E+03  0.00000000000E+00 0. -1.
          2   -1    0    0  502    0  0.00000000000E+00 -0.00000000000E+00 -0.45330245233E+03  0.45330245233E+03  0.00000000000E+00 0.  1.
    9000007    2    1    2  502    0 -0.13308672021E+03 -0.29865044469E+03 -0.37804879309E+02  0.51860511816E+03  0.40077162633E+03 0.  0.
    9000005    1    3    3    0    0  0.11300223924E+03 -0.58082821841E+02  0.85380974120E+02  0.15308177881E+03  0.99999687468E+00 0.  0.
          4    1    3    3  502    0 -0.24608895945E+03 -0.24056762285E+03 -0.12318585343E+03  0.36552333935E+03  0.00000000000E+00 0.  1.
   -9000007    1    1    2    0  501  0.13308672021E+03  0.29865044469E+03  0.20598199350E+03  0.55617690069E+03  0.40000000000E+03 0.  1.
<mgrwt>
<rscale>  2 0.51692643E+03</rscale>
<asrwt>0</asrwt>
<pdfrwt beam="1">  1        2 0.69738838E-01 0.51692643E+03</pdfrwt>
<pdfrwt beam="2">  1       -2 0.95612242E-01 0.51692643E+03</pdfrwt>
<totfact> 0.65097834E+01</totfact>
</mgrwt>
</event>
<event>
 6    1  0.9205235E-004  0.4309999E+03  0.7818608E-02  0.1033545E+00
         -2   -1    0    0    0  501 -0.00000000000E+00  0.00000000000E+00  0.10211197241E+04  0.10211197241E+04  0.00000000000E+00 0.  1.
          2   -1    0    0  502    0  0.00000000000E+00 -0.00000000000E+00 -0.24453540139E+03  0.24453540139E+03  0.00000000000E+00 0. -1.
    9000007    2    1    2  502    0 -0.79405516267E+02 -0.13939525095E+03  0.70853921211E+03  0.82934513358E+03  0.40006157463E+03 0.  0.
    9000005    1    3    3    0    0  0.91479410874E+01 -0.15294683505E+03  0.44871655656E+02  0.15965865042E+03  0.99999687468E+00 0.  0.
          4    1    3    3  502    0 -0.88553457354E+02  0.13551584099E+02  0.66366755645E+03  0.66968648316E+03  0.00000000000E+00 0.  1.
   -9000007    1    1    2    0  501  0.79405516267E+02  0.13939525095E+03  0.68045110647E+02  0.43630999196E+03  0.40000000000E+03 0. -1.
<mgrwt>
<rscale>  2 0.43099989E+03</rscale>
<asrwt>0</asrwt>
<pdfrwt beam="1">  1        2 0.37620831E-01 0.43099989E+03</pdfrwt>
<pdfrwt beam="2">  1       -2 0.15709534E+00 0.43099989E+03</pdfrwt>
<totfact> 0.37922246E+01</totfact>
</mgrwt>
</event>
<event>
 6    1  0.9205235E-004  0.5516156E+03  0.7818608E-02  0.1001121E+00
          1   -1    0    0  502    0  0.00000000000E+00  0.00000000000E+00  0.10727511894E+04  0.10727511894E+04  0.00000000000E+00 0.  1.
         -1   -1    0    0    0  501 -0.00000000000E+00 -0.00000000000E+00 -0.28900405593E+03  0.28900405593E+03  0.00000000000E+00 0. -1.
    9000007    2    1    2  502    0  0.27786450362E+03 -0.25896071579E+03  0.29915717181E+03  0.62752315285E+03  0.40002619817E+03 0.  0.
    9000005    1    3    3    0    0 -0.33282046027E+02 -0.23111480011E+03  0.83751102730E+02  0.24806650846E+03  0.99999687468E+00 0.  0.
          4    1    3    3  502    0  0.31114654964E+03 -0.27845915681E+02  0.21540606908E+03  0.37945664439E+03  0.00000000000E+00 0.  1.
   -9000007    1    1    2    0  501 -0.27786450362E+03  0.25896071579E+03  0.48458996167E+03  0.73423209249E+03  0.40000000000E+03 0.  1.
<mgrwt>
<rscale>  2 0.55161564E+03</rscale>
<asrwt>0</asrwt>
<pdfrwt beam="1">  1        1 0.16503864E+00 0.55161564E+03</pdfrwt>
<pdfrwt beam="2">  1       -1 0.44462163E-01 0.55161564E+03</pdfrwt>
<totfact> 0.69549987E+01</totfact>
</mgrwt>
</event>
<event>
 6    1  0.9205235E-004  0.4655170E+03  0.7818608E-02  0.1023193E+00
         -2   -1    0    0    0  501 -0.00000000000E+00  0.00000000000E+00  0.24606664998E+03  0.24606664998E+03  0.00000000000E+00 0.  1.
          2   -1    0    0  502    0  0.00000000000E+00 -0.00000000000E+00 -0.10327924641E+04  0.10327924641E+04  0.00000000000E+00 0. -1.
    9000007    2    1    2  502    0  0.20405425958E+03 -0.12283762335E+03 -0.63874279621E+03  0.79036531052E+03  0.39994717375E+03 0.  0.
    9000005    1    3    3    0    0  0.21183916929E+03 -0.17931119108E+03 -0.67010032562E+03  0.72530254603E+03  0.99999687468E+00 0.  0.
          4    1    3    3  502    0 -0.77849097010E+01  0.56473567731E+02  0.31357529410E+02  0.65062764482E+02  0.00000000000E+00 0.  1.
   -9000007    1    1    2    0  501 -0.20405425958E+03  0.12283762335E+03 -0.14798301795E+03  0.48849380361E+03  0.40000000000E+03 0. -1.
<mgrwt>
<rscale>  2 0.46551702E+03</rscale>
<asrwt>0</asrwt>
<pdfrwt beam="1">  1        2 0.15889115E+00 0.46551702E+03</pdfrwt>
<pdfrwt beam="2">  1       -2 0.37856407E-01 0.46551702E+03</pdfrwt>
<totfact> 0.16358910E+02</totfact>
</mgrwt>
</event>
<event>
 6    1  0.9205235E-004  0.4464898E+03  0.7818608E-02  0.1028774E+00
          1   -1    0    0  502    0  0.00000000000E+00  0.00000000000E+00  0.11937015334E+04  0.11937015334E+04  0.00000000000E+00 0.  1.
         -1   -1    0    0    0  501 -0.00000000000E+00 -0.00000000000E+00 -0.18337741963E+03  0.18337741963E+03  0.00000000000E+00 0. -1.
    9000007    2    1    2  502    0  0.16661798135E+03 -0.10766299084E+03  0.29942041659E+03  0.53759283762E+03  0.40000075235E+03 0.  0.
    9000005    1    3    3    0    0 -0.12933802185E+03 -0.34999650018E+01  0.11828761647E+03  0.17530982247E+03  0.99999687468E+00 0.  0.
          4    1    3    3  502    0  0.29595600320E+03 -0.10416302584E+03  0.18113280012E+03  0.36228301514E+03  0.00000000000E+00 0.  1.
   -9000007    1    1    2    0  501 -0.16661798135E+03  0.10766299084E+03  0.71090369718E+03  0.83948611541E+03  0.40000000000E+03 0.  1.
<mgrwt>
<rscale>  2 0.44648983E+03</rscale>
<asrwt>0</asrwt>
<pdfrwt beam="1">  1        1 0.18364638E+00 0.44648983E+03</pdfrwt>
<pdfrwt beam="2">  1       -1 0.28211911E-01 0.44648983E+03</pdfrwt>
<totfact> 0.12886917E+02</totfact>
</mgrwt>
</event>
<event>
 6    1  0.9205235E-004  0.5175709E+03  0.7818608E-02  0.1009292E+00
          1   -1    0    0  502    0  0.00000000000E+00  0.00000000000E+00  0.73211275133E+03  0.73211275133E+03  0.00000000000E+00 0. -1.
         -1   -1    0    0    0  501 -0.00000000000E+00 -0.00000000000E+00 -0.42938010731E+03  0.42938010731E+03  0.00000000000E+00 0.  1.
    9000007    2    1    2  502    0  0.32544453448E+03  0.37570413735E+02  0.37479785560E+03  0.63945926228E+03  0.40138389921E+03 0.  0.
    9000005    1    3    3    0    0  0.24012800241E+03  0.16469746045E+03  0.38876443187E+03  0.48572162244E+03  0.99999687468E+00 0.  0.
          4    1    3    3  502    0  0.85316532068E+02 -0.12712704671E+03 -0.13966576278E+02  0.15373763984E+03  0.00000000000E+00 0.  1.
   -9000007    1    1    2    0  501 -0.32544453448E+03 -0.37570413735E+02 -0.72065211580E+02  0.52203359636E+03  0.40000000000E+03 0.  1.
<mgrwt>
<rscale>  2 0.51757089E+03</rscale>
<asrwt>0</asrwt>
<pdfrwt beam="1">  1        1 0.11263273E+00 0.51757089E+03</pdfrwt>
<pdfrwt beam="2">  1       -1 0.66058478E-01 0.51757089E+03</pdfrwt>
<totfact> 0.61793217E+01</totfact>
</mgrwt>
</event>
<event>
 6    1  0.9205235E-004  0.4814688E+03  0.7818608E-02  0.1018732E+00
          2   -1    0    0  502    0  0.00000000000E+00  0.00000000000E+00  0.16439016971E+04  0.16439016971E+04  0.00000000000E+00 0.  1.
         -2   -1    0    0    0  501 -0.00000000000E+00 -0.00000000000E+00 -0.14132077654E+03  0.14132077654E+03  0.00000000000E+00 0. -1.
    9000007    2    1    2  502    0  0.25844217198E+03 -0.69475554628E+02  0.70997827103E+03  0.85794788161E+03  0.40048247563E+03 0.  0.
    9000005    1    3    3    0    0 -0.98898518935E+02  0.11161799600E+02  0.74055833038E+02  0.12405953901E+03  0.99999687468E+00 0.  0.
          4    1    3    3  502    0  0.35734069091E+03 -0.80637354228E+02  0.63592243799E+03  0.73388834261E+03  0.00000000000E+00 0.  1.
   -9000007    1    1    2    0  501 -0.25844217198E+03  0.69475554628E+02  0.79260264950E+03  0.92727459198E+03  0.40000000000E+03 0.  1.
<mgrwt>
<rscale>  2 0.48146883E+03</rscale>
<asrwt>0</asrwt>
<pdfrwt beam="1">  1        2 0.25290794E+00 0.48146883E+03</pdfrwt>
<pdfrwt beam="2">  1       -2 0.21741659E-01 0.48146883E+03</pdfrwt>
<totfact> 0.20264610E+02</totfact>
</mgrwt>
</event>
<event>
 6    1  0.9205235E-004  0.4031673E+03  0.7818608E-02  0.1042688E+00
          2   -1    0    0  502    0  0.00000000000E+00  0.00000000000E+00  0.23543590039E+04  0.23543590039E+04  0.00000000000E+00 0. -1.
         -2   -1    0    0    0  501 -0.00000000000E+00 -0.00000000000E+00 -0.72838973751E+02  0.72838973751E+02  0.00000000000E+00 0.  1.
    9000007    2    1    2  502    0  0.52167713659E+02  0.13647092837E+02  0.14167221520E+04  0.14728484172E+04  0.39909032884E+03 0.  0.
    9000005    1    3    3    0    0  0.96761676949E+02  0.18192655212E+02  0.14240314221E+04  0.14274313595E+04  0.99999687468E+00 0.  0.
          4    1    3    3  502    0 -0.44593963290E+02 -0.45455623745E+01 -0.73092701506E+01  0.45417057691E+02  0.00000000000E+00 0.  1.
   -9000007    1    1    2    0  501 -0.52167713659E+02 -0.13647092837E+02  0.86479787814E+03  0.95434956045E+03  0.40000000000E+03 0. -1.
<mgrwt>
<rscale>  2 0.40316728E+03</rscale>
<asrwt>0</asrwt>
<pdfrwt beam="1">  1        2 0.36220902E+00 0.40316728E+03</pdfrwt>
<pdfrwt beam="2">  1       -2 0.11205998E-01 0.40316728E+03</pdfrwt>
<totfact> 0.25946105E+02</totfact>
</mgrwt>
</event>
<event>
 6    1  0.9205235E-004  0.4347979E+03  0.7818608E-02  0.1032355E+00
         -2   -1    0    0    0  501 -0.00000000000E+00  0.00000000000E+00  0.17898061318E+03  0.17898061318E+03  0.00000000000E+00 0. -1.
          2   -1    0    0  502    0  0.00000000000E+00 -0.00000000000E+00 -0.10605001377E+04  0.10605001377E+04  0.00000000000E+00 0.  1.
    9000007    2    1    2  502    0  0.17037244556E+03  0.46777455731E+01 -0.40155028749E+03  0.59185499475E+03  0.40000131239E+03 0.  0.
    9000005    1    3    3    0    0  0.20735381862E+02 -0.17923056693E+03 -0.93765034762E+02  0.20333822543E+03  0.99999687468E+00 0.  0.
          4    1    3    3  502    0  0.14963706370E+03  0.18390831250E+03 -0.30778525273E+03  0.38851676932E+03  0.00000000000E+00 0.  1.
   -9000007    1    1    2    0  501 -0.17037244556E+03 -0.46777455731E+01 -0.47996923703E+03  0.64762575614E+03  0.40000000000E+03 0.  1.
<mgrwt>
<rscale>  2 0.43479786E+03</rscale>
<asrwt>0</asrwt>
<pdfrwt beam="1">  1        2 0.16315387E+00 0.43479786E+03</pdfrwt>
<pdfrwt beam="2">  1       -2 0.27535479E-01 0.43479786E+03</pdfrwt>
<totfact> 0.28552660E+02</totfact>
</mgrwt>
</event>
<event>
 6    1  0.9205235E-004  0.6174235E+03  0.7818608E-02  0.9869903E-01
         -2   -1    0    0    0  501 -0.00000000000E+00  0.00000000000E+00  0.15185896335E+03  0.15185896335E+03  0.00000000000E+00 0.  1.
          2   -1    0    0  502    0  0.00000000000E+00 -0.00000000000E+00 -0.25693844759E+04  0.25693844759E+04  0.00000000000E+00 0. -1.
    9000007    2    1    2  502    0 -0.42887492470E+03  0.19254533898E+03 -0.10027542327E+04  0.11776809420E+04  0.40051085053E+03 0.  0.
    9000005    1    3    3    0    0  0.73652633547E+02 -0.57870809581E+01 -0.84122533818E+02  0.11196339323E+03  0.99999687468E+00 0.  0.
          4    1    3    3  502    0 -0.50252755825E+03  0.19833241994E+03 -0.91863169887E+03  0.10657175488E+04  0.00000000000E+00 0.  1.
   -9000007    1    1    2    0  501  0.42887492470E+03 -0.19254533898E+03 -0.14147712799E+04  0.15435624973E+04  0.40000000000E+03 0. -1.
<mgrwt>
<rscale>  2 0.61742354E+03</rscale>
<asrwt>0</asrwt>
<pdfrwt beam="1">  1        2 0.39528990E+00 0.61742354E+03</pdfrwt>
<pdfrwt beam="2">  1       -2 0.23362919E-01 0.61742354E+03</pdfrwt>
<totfact> 0.54593406E+01</totfact>
</mgrwt>
</event>
<event>
 6    1  0.9205235E-004  0.4832670E+03  0.7818608E-02  0.1018241E+00
          1   -1    0    0  502    0  0.00000000000E+00  0.00000000000E+00  0.64895605879E+03  0.64895605879E+03  0.00000000000E+00 0. -1.
         -1   -1    0    0    0  501 -0.00000000000E+00 -0.00000000000E+00 -0.44691719028E+03  0.44691719028E+03  0.00000000000E+00 0.  1.
    9000007    2    1    2  502    0 -0.16605037434E+03  0.21491948386E+03  0.34278750805E+03  0.59231263615E+03  0.39945947467E+03 0.  0.
    9000005    1    3    3    0    0  0.11831876503E+03  0.13323659040E+01  0.39029531238E+02  0.12460100184E+03  0.99999687468E+00 0.  0.
          4    1    3    3  502    0 -0.28436913938E+03  0.21358711796E+03  0.30375797681E+03  0.46771163430E+03  0.00000000000E+00 0.  1.
   -9000007    1    1    2    0  501  0.16605037434E+03 -0.21491948386E+03 -0.14074863954E+03  0.50356061293E+03  0.40000000000E+03 0.  1.
<mgrwt>
<rscale>  2 0.48326695E+03</rscale>
<asrwt>0</asrwt>
<pdfrwt beam="1">  1        1 0.99839394E-01 0.48326695E+03</pdfrwt>
<pdfrwt beam="2">  1       -1 0.68756490E-01 0.48326695E+03</pdfrwt>
<totfact> 0.68500717E+01</totfact>
</mgrwt>
</event>
<event>
 6    1  0.9205235E-004  0.4764625E+03  0.7818608E-02  0.1020112E+00
         -1   -1    0    0    0  501 -0.00000000000E+00  0.00000000000E+00  0.16641165108E+03  0.16641165108E+03  0.00000000000E+00 0. -1.
          1   -1    0    0  502    0  0.00000000000E+00 -0.00000000000E+00 -0.14582359471E+04  0.14582359471E+04  0.00000000000E+00 0.  1.
    9000007    2    1    2  502    0 -0.11766645153E+03  0.23146881365E+03 -0.43907519086E+03  0.64760909236E+03  0.39898284145E+03 0.  0.
    9000005    1    3    3    0    0  0.10107331665E+03  0.23398341616E+03 -0.20373754141E+03  0.32630360119E+03  0.99999687468E+00 0.  0.
          4    1    3    3  502    0 -0.21873976818E+03 -0.25146025109E+01 -0.23533764945E+03  0.32130549117E+03  0.00000000000E+00 0.  1.
   -9000007    1    1    2    0  501  0.11766645153E+03 -0.23146881365E+03 -0.85274910511E+03  0.97703850578E+03  0.40000000000E+03 0.  1.
<mgrwt>
<rscale>  2 0.47646248E+03</rscale>
<asrwt>0</asrwt>
<pdfrwt beam="1">  1        1 0.22434399E+00 0.47646248E+03</pdfrwt>
<pdfrwt beam="2">  1       -1 0.25601793E-01 0.47646248E+03</pdfrwt>
<totfact> 0.99183344E+01</totfact>
</mgrwt>
</event>
<event>
 6    1  0.9205235E-004  0.5029034E+03  0.7818608E-02  0.1013024E+00
          2   -1    0    0  502    0  0.00000000000E+00  0.00000000000E+00  0.51221268780E+03  0.51221268780E+03  0.00000000000E+00 0. -1.
         -2   -1    0    0    0  501 -0.00000000000E+00 -0.00000000000E+00 -0.49411815572E+03  0.49411815572E+03  0.00000000000E+00 0.  1.
    9000007    2    1    2  502    0 -0.16208597044E+03 -0.25779351102E+03  0.22532722987E+02  0.50358930588E+03  0.40045612650E+03 0.  0.
    9000005    1    3    3    0    0 -0.21173048266E+03  0.95058361459E+01  0.78502852706E+02  0.22601738005E+03  0.99999687468E+00 0.  0.
          4    1    3    3  502    0  0.49644512219E+02 -0.26729934716E+03 -0.55970129719E+02  0.27757192583E+03  0.00000000000E+00 0.  1.
   -9000007    1    1    2    0  501  0.16208597044E+03  0.25779351102E+03 -0.44381909065E+01  0.50274153764E+03  0.40000000000E+03 0. -1.
<mgrwt>
<rscale>  2 0.50290342E+03</rscale>
<asrwt>0</asrwt>
<pdfrwt beam="1">  1        2 0.78801952E-01 0.50290342E+03</pdfrwt>
<pdfrwt beam="2">  1       -2 0.76018177E-01 0.50290342E+03</pdfrwt>
<totfact> 0.95348498E+01</totfact>
</mgrwt>
</event>
<event>
 6    1  0.9205235E-004  0.4313014E+03  0.7818608E-02  0.1033450E+00
          1   -1    0    0  502    0  0.00000000000E+00  0.00000000000E+00  0.37004788930E+03  0.37004788930E+03  0.00000000000E+00 0.  1.
         -1   -1    0    0    0  501 -0.00000000000E+00 -0.00000000000E+00 -0.52256938035E+03  0.52256938035E+03  0.00000000000E+00 0. -1.
    9000007    2    1    2  502    0  0.17665346708E+02  0.15817894170E+03  0.10639385939E+02  0.43223252419E+03  0.40172019661E+03 0.  0.
    9000005    1    3    3    0    0 -0.17517352512E+03  0.13690809339E+03 -0.52060781656E+02  0.22834385238E+03  0.99999687468E+00 0.  0.
          4    1    3    3  502    0  0.19283887183E+03  0.21270848312E+02  0.62700167595E+02  0.20388867181E+03  0.00000000000E+00 0.  1.
   -9000007    1    1    2    0  501 -0.17665346708E+02 -0.15817894170E+03 -0.16316087699E+03  0.46038474546E+03  0.40000000000E+03 0. -1.
<mgrwt>
<rscale>  2 0.43130143E+03</rscale>
<asrwt>0</asrwt>
<pdfrwt beam="1">  1        1 0.56930445E-01 0.43130143E+03</pdfrwt>
<pdfrwt beam="2">  1       -1 0.80395289E-01 0.43130143E+03</pdfrwt>
<totfact> 0.10712173E+02</totfact>
</mgrwt>
</event>
<event>
 6    1  0.9205235E-004  0.4128031E+03  0.7818608E-02  0.1039434E+00
          1   -1    0    0  502    0  0.00000000000E+00  0.00000000000E+00  0.76760455463E+03  0.76760455463E+03  0.00000000000E+00 0. -1.
         -1   -1    0    0    0  501 -0.00000000000E+00 -0.00000000000E+00 -0.30210755533E+03  0.30210755533E+03  0.00000000000E+00 0.  1.
    9000007    2    1    2  502    0 -0.76836399672E+02 -0.66496588798E+02 -0.42633224780E+02  0.41509622773E+03  0.40020202122E+03 0.  0.
    9000005    1    3    3    0    0 -0.15305158828E+03 -0.17104201622E+03  0.73742976783E+02  0.24107921230E+03  0.99999687468E+00 0.  0.
          4    1    3    3  502    0  0.76215188607E+02  0.10454542742E+03 -0.11637620156E+03  0.17401701543E+03  0.00000000000E+00 0.  1.
   -9000007    1    1    2    0  501  0.76836399672E+02  0.66496588798E+02  0.50813022409E+03  0.65461588223E+03  0.40000000000E+03 0. -1.
<mgrwt>
<rscale>  2 0.41280315E+03</rscale>
<asrwt>0</asrwt>
<pdfrwt beam="1">  1        1 0.11809301E+00 0.41280315E+03</pdfrwt>
<pdfrwt beam="2">  1       -1 0.46478086E-01 0.41280315E+03</pdfrwt>
<totfact> 0.11438231E+02</totfact>
</mgrwt>
</event>
<event>
 6    1  0.9205235E-004  0.4048325E+03  0.7818608E-02  0.1042119E+00
          1   -1    0    0  502    0  0.00000000000E+00  0.00000000000E+00  0.11820133802E+04  0.11820133802E+04  0.00000000000E+00 0.  1.
         -1   -1    0    0    0  501 -0.00000000000E+00 -0.00000000000E+00 -0.16794425682E+03  0.16794425682E+03  0.00000000000E+00 0. -1.
    9000007    2    1    2  502    0 -0.49222588951E+02  0.37490840049E+02  0.78900182628E+03  0.88683377177E+03  0.40015225918E+03 0.  0.
    9000005    1    3    3    0    0 -0.10462006872E+03  0.16657707716E+03  0.19699838873E+03  0.27839297149E+03  0.99999687468E+00 0.  0.
          4    1    3    3  502    0  0.55397479773E+02 -0.12908623712E+03  0.59200343755E+03  0.60844080028E+03  0.00000000000E+00 0.  1.
   -9000007    1    1    2    0  501  0.49222588951E+02 -0.37490840049E+02  0.22506729712E+03  0.46312386527E+03  0.40000000000E+03 0. -1.
<mgrwt>
<rscale>  2 0.40483247E+03</rscale>
<asrwt>0</asrwt>
<pdfrwt beam="1">  1        1 0.18184821E+00 0.40483247E+03</pdfrwt>
<pdfrwt beam="2">  1       -1 0.25837579E-01 0.40483247E+03</pdfrwt>
<totfact> 0.15342502E+02</totfact>
</mgrwt>
</event>
<event>
 6    1  0.9205235E-004  0.4679674E+03  0.7818608E-02  0.1022495E+00
          1   -1    0    0  502    0  0.00000000000E+00  0.00000000000E+00  0.17891231071E+04  0.17891231071E+04  0.00000000000E+00 0. -1.
         -1   -1    0    0    0  501 -0.00000000000E+00 -0.00000000000E+00 -0.18216777004E+03  0.18216777004E+03  0.00000000000E+00 0.  1.
    9000007    2    1    2  502    0 -0.68476363217E+02 -0.23315476169E+03  0.23884953260E+03  0.52534355880E+03  0.39985822529E+03 0.  0.
    9000005    1    3    3    0    0 -0.10850851449E+03 -0.87507604610E+02  0.32345406409E+03  0.35221472166E+03  0.99999687468E+00 0.  0.
          4    1    3    3  502    0  0.40032151274E+02 -0.14564715708E+03 -0.84604531490E+02  0.17312883714E+03  0.00000000000E+00 0.  1.
   -9000007    1    1    2    0  501  0.68476363217E+02  0.23315476169E+03  0.13681058045E+04  0.14459473184E+04  0.40000000000E+03 0. -1.
<mgrwt>
<rscale>  2 0.46796736E+03</rscale>
<asrwt>0</asrwt>
<pdfrwt beam="1">  1        1 0.27524970E+00 0.46796736E+03</pdfrwt>
<pdfrwt beam="2">  1       -1 0.28025812E-01 0.46796736E+03</pdfrwt>
<totfact> 0.51153599E+01</totfact>
</mgrwt>
</event>
<event>
 6    1  0.9205235E-004  0.4774983E+03  0.7818608E-02  0.1019825E+00
         -4   -1    0    0    0  501 -0.00000000000E+00  0.00000000000E+00  0.45954648292E+03  0.45954648292E+03  0.00000000000E+00 0. -1.
          4   -1    0    0  502    0  0.00000000000E+00 -0.00000000000E+00 -0.50093348082E+03  0.50093348082E+03  0.00000000000E+00 0.  1.
    9000007    2    1    2  502    0  0.71938961582E+02 -0.25079087312E+03 -0.67612851003E+02  0.48219231848E+03  0.39983328795E+03 0.  0.
    9000005    1    3    3    0    0 -0.67500265512E+02 -0.30607769347E+03  0.94056872063E+01  0.31357504243E+03  0.99999687468E+00 0.  0.
          4    1    3    3  502    0  0.13943922709E+03  0.55286820354E+02 -0.77018538209E+02  0.16861727606E+03  0.00000000000E+00 0.  1.
   -9000007    1    1    2    0  501 -0.71938961582E+02  0.25079087312E+03  0.26225853097E+02  0.47828764526E+03  0.40000000000E+03 0.  1.
<mgrwt>
<rscale>  2 0.47749827E+03</rscale>
<asrwt>0</asrwt>
<pdfrwt beam="1">  1        4 0.77066689E-01 0.47749827E+03</pdfrwt>
<pdfrwt beam="2">  1       -4 0.70699459E-01 0.47749827E+03</pdfrwt>
<totfact> 0.53702673E+00</totfact>
</mgrwt>
</event>
<event>
 6    1  0.9205235E-004  0.4433841E+03  0.7818608E-02  0.1029714E+00
         -1   -1    0    0    0  501 -0.00000000000E+00  0.00000000000E+00  0.15031976865E+03  0.15031976865E+03  0.00000000000E+00 0. -1.
          1   -1    0    0  502    0  0.00000000000E+00 -0.00000000000E+00 -0.13078141200E+04  0.13078141200E+04  0.00000000000E+00 0.  1.
    9000007    2    1    2  502    0  0.82224030143E+01 -0.19092348111E+03 -0.58035655470E+03  0.73039257483E+03  0.40017521066E+03 0.  0.
    9000005    1    3    3    0    0 -0.92468340050E+02 -0.18717170012E+03 -0.85861523076E+02  0.22573621858E+03  0.99999687468E+00 0.  0.
          4    1    3    3  502    0  0.10069074306E+03 -0.37517809889E+01 -0.49449503163E+03  0.50465635625E+03  0.00000000000E+00 0.  1.
   -9000007    1    1    2    0  501 -0.82224030143E+01  0.19092348111E+03 -0.57713779669E+03  0.72774131387E+03  0.40000000000E+03 0. -1.
<mgrwt>
<rscale>  2 0.44338411E+03</rscale>
<asrwt>0</asrwt>
<pdfrwt beam="1">  1        1 0.20120218E+00 0.44338411E+03</pdfrwt>
<pdfrwt beam="2">  1       -1 0.23126118E-01 0.44338411E+03</pdfrwt>
<totfact> 0.14999713E+02</totfact>
</mgrwt>
</event>
<event>
 6    1  0.9205235E-004  0.4730675E+03  0.7818608E-02  0.1021058E+00
          2   -1    0    0  502    0  0.00000000000E+00  0.00000000000E+00  0.95557462444E+03  0.95557462444E+03  0.00000000000E+00 0.  1.
         -2   -1    0    0    0  501 -0.00000000000E+00 -0.00000000000E+00 -0.24280332030E+03  0.24280332030E+03  0.00000000000E+00 0. -1.
    9000007    2    1    2  502    0  0.14310681018E+03  0.22030823229E+03  0.23982342688E+03  0.52555183724E+03  0.38687747571E+03 0.  0.
    9000005    1    3    3    0    0 -0.35096387073E+01 -0.97534369673E+02 -0.60613665533E+01  0.97790648784E+02  0.99999687468E+00 0.  0.
          4    1    3    3  502    0  0.14661644889E+03  0.31784260196E+03  0.24588479343E+03  0.42776118845E+03  0.00000000000E+00 0.  1.
   -9000007    1    1    2    0  501 -0.14310681018E+03 -0.22030823229E+03  0.47294787726E+03  0.67282610750E+03  0.40000000000E+03 0. -1.
<mgrwt>
<rscale>  2 0.47306746E+03</rscale>
<asrwt>0</asrwt>
<pdfrwt beam="1">  1        2 0.14701148E+00 0.47306746E+03</pdfrwt>
<pdfrwt beam="2">  1       -2 0.37354357E-01 0.47306746E+03</pdfrwt>
<totfact> 0.18756970E+02</totfact>
</mgrwt>
</event>
<event>
 6    1  0.9205235E-004  0.4647302E+03  0.7818608E-02  0.1023418E+00
         -2   -1    0    0    0  501 -0.00000000000E+00  0.00000000000E+00  0.10902948015E+03  0.10902948015E+03  0.00000000000E+00 0. -1.
          2   -1    0    0  502    0  0.00000000000E+00 -0.00000000000E+00 -0.26060036025E+04  0.26060036025E+04  0.00000000000E+00 0.  1.
    9000007    2    1    2  502    0 -0.23417281974E+03 -0.32845366367E+02 -0.19134919832E+04  0.19691328653E+04  0.40014615292E+03 0.  0.
    9000005    1    3    3    0    0 -0.32358955612E+02  0.83996459976E+02 -0.78670013758E+02  0.11955115372E+03  0.99999687468E+00 0.  0.
          4    1    3    3  502    0 -0.20181386413E+03 -0.11684182634E+03 -0.18348219695E+04  0.18495817116E+04  0.00000000000E+00 0.  1.
   -9000007    1    1    2    0  501  0.23417281974E+03  0.32845366367E+02 -0.58348213913E+03  0.74590021737E+03  0.40000000000E+03 0. -1.
<mgrwt>
<rscale>  2 0.46473024E+03</rscale>
<asrwt>0</asrwt>
<pdfrwt beam="1">  1        2 0.40092360E+00 0.46473024E+03</pdfrwt>
<pdfrwt beam="2">  1       -2 0.16773768E-01 0.46473024E+03</pdfrwt>
<totfact> 0.95151471E+01</totfact>
</mgrwt>
</event>
<event>
 6    1  0.9205235E-004  0.4315184E+03  0.7818608E-02  0.1033381E+00
          1   -1    0    0  502    0  0.00000000000E+00  0.00000000000E+00  0.55846905240E+03  0.55846905240E+03  0.00000000000E+00 0. -1.
         -1   -1    0    0    0  501 -0.00000000000E+00 -0.00000000000E+00 -0.34371724744E+03  0.34371724744E+03  0.00000000000E+00 0.  1.
    9000007    2    1    2  502    0  0.11317982328E+02 -0.16829540463E+03  0.18475983957E+03  0.46704154469E+03  0.39438580882E+03 0.  0.
    9000005    1    3    3    0    0  0.39465246442E+02  0.20608661122E+02  0.25850219540E+03  0.26231013631E+03  0.99999687468E+00 0.  0.
          4    1    3    3  502    0 -0.28147264114E+02 -0.18890406575E+03 -0.73742355825E+02  0.20473140838E+03  0.00000000000E+00 0.  1.
   -9000007    1    1    2    0  501 -0.11317982328E+02  0.16829540463E+03  0.29991965388E+02  0.43514475515E+03  0.40000000000E+03 0. -1.
<mgrwt>
<rscale>  2 0.43151845E+03</rscale>
<asrwt>0</asrwt>
<pdfrwt beam="1">  1        1 0.85918316E-01 0.43151845E+03</pdfrwt>
<pdfrwt beam="2">  1       -1 0.52879577E-01 0.43151845E+03</pdfrwt>
<totfact> 0.14249630E+02</totfact>
</mgrwt>
</event>
<event>
 6    1  0.9205235E-004  0.4406005E+03  0.7818608E-02  0.1030563E+00
         -2   -1    0    0    0  501 -0.00000000000E+00  0.00000000000E+00  0.13841088792E+03  0.13841088792E+03  0.00000000000E+00 0. -1.
          2   -1    0    0  502    0  0.00000000000E+00 -0.00000000000E+00 -0.18005330522E+04  0.18005330522E+04  0.00000000000E+00 0.  1.
    9000007    2    1    2  502    0 -0.75768894456E+02  0.16803426568E+03 -0.12871048140E+04  0.13604852529E+04  0.40038092034E+03 0.  0.
    9000005    1    3    3    0    0  0.36869105567E+02  0.23438828210E+03 -0.41012382161E+03  0.47381404240E+03  0.99999687468E+00 0.  0.
          4    1    3    3  502    0 -0.11263800002E+03 -0.66354016422E+02 -0.87698099238E+03  0.88667121051E+03  0.00000000000E+00 0.  1.
   -9000007    1    1    2    0  501  0.75768894456E+02 -0.16803426568E+03 -0.37501735033E+03  0.57845868725E+03  0.40000000000E+03 0. -1.
<mgrwt>
<rscale>  2 0.44060052E+03</rscale>
<asrwt>0</asrwt>
<pdfrwt beam="1">  1        2 0.27700506E+00 0.44060052E+03</pdfrwt>
<pdfrwt beam="2">  1       -2 0.21293984E-01 0.44060052E+03</pdfrwt>
<totfact> 0.17408043E+02</totfact>
</mgrwt>
</event>
<event>
 6    1  0.9205235E-004  0.4239447E+03  0.7818608E-02  0.1035790E+00
          2   -1    0    0  502    0  0.00000000000E+00  0.00000000000E+00  0.66597935528E+03  0.66597935528E+03  0.00000000000E+00 0. -1.
         -2   -1    0    0    0  501 -0.00000000000E+00 -0.00000000000E+00 -0.36121273177E+03  0.36121273177E+03  0.00000000000E+00 0.  1.
    9000007    2    1    2  502    0  0.11361244431E+03 -0.82487222640E+02  0.41065794016E+03  0.59024254723E+03  0.40004298687E+03 0.  0.
    9000005    1    3    3    0    0 -0.18034083898E+02  0.14676773923E+02 -0.74597928411E+02  0.78144013154E+02  0.99999687468E+00 0.  0.
          4    1    3    3  502    0  0.13164652821E+03 -0.97163996563E+02  0.48525586857E+03  0.51209853408E+03  0.00000000000E+00 0.  1.
   -9000007    1    1    2    0  501 -0.11361244431E+03  0.82487222640E+02 -0.10589131665E+03  0.43694953981E+03  0.40000000000E+03 0.  1.
<mgrwt>
<rscale>  2 0.42394472E+03</rscale>
<asrwt>0</asrwt>
<pdfrwt beam="1">  1        2 0.10245836E+00 0.42394472E+03</pdfrwt>
<pdfrwt beam="2">  1       -2 0.55571190E-01 0.42394472E+03</pdfrwt>
<totfact> 0.13729741E+02</totfact>
</mgrwt>
</event>
<event>
 6    1  0.9205235E-004  0.4464783E+03  0.7818608E-02  0.1028777E+00
         -2   -1    0    0    0  501 -0.00000000000E+00  0.00000000000E+00  0.12636403158E+03  0.12636403158E+03  0.00000000000E+00 0. -1.
          2   -1    0    0  502    0  0.00000000000E+00 -0.00000000000E+00 -0.17921529732E+04  0.17921529732E+04  0.00000000000E+00 0.  1.
    9000007    2    1    2  502    0  0.59524414721E+02 -0.19272592244E+03 -0.11623782098E+04  0.12446410503E+04  0.39663812768E+03 0.  0.
    9000005    1    3    3    0    0 -0.98761172318E+02 -0.68890346356E+02 -0.81898565418E+02  0.14562974967E+03  0.99999687468E+00 0.  0.
          4    1    3    3  502    0  0.15828558704E+03 -0.12383557609E+03 -0.10804796444E+04  0.10990113006E+04  0.00000000000E+00 0.  1.
   -9000007    1    1    2    0  501 -0.59524414721E+02  0.19272592244E+03 -0.50341073181E+03  0.67387595448E+03  0.40000000000E+03 0. -1.
<mgrwt>
<rscale>  2 0.44647827E+03</rscale>
<asrwt>0</asrwt>
<pdfrwt beam="1">  1        2 0.27571581E+00 0.44647827E+03</pdfrwt>
<pdfrwt beam="2">  1       -2 0.19440622E-01 0.44647827E+03</pdfrwt>
<totfact> 0.20587409E+02</totfact>
</mgrwt>
</event>
<event>
 6    1  0.9205235E-004  0.6424416E+03  0.7818608E-02  0.9821066E-01
         -1   -1    0    0    0  501 -0.00000000000E+00  0.00000000000E+00  0.33416260524E+03  0.33416260524E+03  0.00000000000E+00 0. -1.
          1   -1    0    0  502    0  0.00000000000E+00 -0.00000000000E+00 -0.12415802137E+04  0.12415802137E+04  0.00000000000E+00 0.  1.
    9000007    2    1    2  502    0 -0.47451991054E+03 -0.16559894469E+03 -0.39695712043E+03  0.75527827624E+03  0.40034755290E+03 0.  0.
    9000005    1    3    3    0    0 -0.46300567430E+03 -0.22882394929E+03 -0.20989837235E+03  0.55748809934E+03  0.99999687468E+00 0.  0.
          4    1    3    3  502    0 -0.11514236246E+02  0.63225004595E+02 -0.18705874809E+03  0.19779017690E+03  0.00000000000E+00 0.  1.
   -9000007    1    1    2    0  501  0.47451991054E+03  0.16559894469E+03 -0.51046048804E+03  0.82046454271E+03  0.40000000000E+03 0.  1.
<mgrwt>
<rscale>  2 0.64244160E+03</rscale>
<asrwt>0</asrwt>
<pdfrwt beam="1">  1        1 0.19101235E+00 0.64244160E+03</pdfrwt>
<pdfrwt beam="2">  1       -1 0.51409630E-01 0.64244160E+03</pdfrwt>
<totfact> 0.39478118E+01</totfact>
</mgrwt>
</event>
<event>
 6    1  0.9205235E-004  0.4295444E+03  0.7818608E-02  0.1034004E+00
          1   -1    0    0  502    0  0.00000000000E+00  0.00000000000E+00  0.11575229026E+04  0.11575229026E+04  0.00000000000E+00 0.  1.
         -1   -1    0    0    0  501 -0.00000000000E+00 -0.00000000000E+00 -0.15982267830E+03  0.15982267830E+03  0.00000000000E+00 0. -1.
    9000007    2    1    2  502    0  0.14828206209E+03 -0.88905932299E+01  0.53577821684E+03  0.68850652871E+03  0.40609891634E+03 0.  0.
    9000005    1    3    3    0    0  0.22760178335E+03 -0.12359605004E+03  0.46464465494E+03  0.53195320351E+03  0.99999687468E+00 0.  0.
          4    1    3    3  502    0 -0.79319721258E+02  0.11470545681E+03  0.71133561902E+02  0.15655332520E+03  0.00000000000E+00 0.  1.
   -9000007    1    1    2    0  501 -0.14828206209E+03  0.88905932299E+01  0.46192200750E+03  0.62883905222E+03  0.40000000000E+03 0.  1.
<mgrwt>
<rscale>  2 0.42954441E+03</rscale>
<asrwt>0</asrwt>
<pdfrwt beam="1">  1        1 0.17808044E+00 0.42954441E+03</pdfrwt>
<pdfrwt beam="2">  1       -1 0.24588105E-01 0.42954441E+03</pdfrwt>
<totfact> 0.17313851E+02</totfact>
</mgrwt>
</event>
<event>
 6    1  0.9205235E-004  0.6097275E+03  0.7818608E-02  0.9885428E-01
         -1   -1    0    0    0  501 -0.00000000000E+00  0.00000000000E+00  0.64627913133E+03  0.64627913133E+03  0.00000000000E+00 0.  1.
          1   -1    0    0  502    0  0.00000000000E+00 -0.00000000000E+00 -0.64690810140E+03  0.64690810140E+03  0.00000000000E+00 0. -1.
    9000007    2    1    2  502    0 -0.37068271209E+03  0.28226099512E+03 -0.21547498215E+03  0.64262151637E+03  0.38659539956E+03 0.  0.
    9000005    1    3    3    0    0  0.78040384167E+02  0.74517862469E+02 -0.64007699557E+02  0.12546393499E+03  0.99999687468E+00 0.  0.
          4    1    3    3  502    0 -0.44872309626E+03  0.20774313265E+03 -0.15146728259E+03  0.51715758137E+03  0.00000000000E+00 0.  1.
   -9000007    1    1    2    0  501  0.37068271209E+03 -0.28226099512E+03  0.21484601208E+03  0.65056571637E+03  0.40000000000E+03 0.  1.
<mgrwt>
<rscale>  2 0.60972745E+03</rscale>
<asrwt>0</asrwt>
<pdfrwt beam="1">  1        1 0.99524323E-01 0.60972745E+03</pdfrwt>
<pdfrwt beam="2">  1       -1 0.99427559E-01 0.60972745E+03</pdfrwt>
<totfact> 0.30827702E+01</totfact>
</mgrwt>
</event>
<event>
 6    1  0.9205235E-004  0.4141605E+03  0.7818608E-02  0.1038984E+00
         -2   -1    0    0    0  501 -0.00000000000E+00  0.00000000000E+00  0.56556991353E+03  0.56556991353E+03  0.00000000000E+00 0.  1.
          2   -1    0    0  502    0  0.00000000000E+00 -0.00000000000E+00 -0.84575350608E+03  0.84575350608E+03  0.00000000000E+00 0. -1.
    9000007    2    1    2  502    0 -0.11956017134E+03 -0.39352624949E+01 -0.70481857459E+03  0.81581944076E+03  0.39304200281E+03 0.  0.
    9000005    1    3    3    0    0 -0.44738779413E+02  0.15691933718E+03 -0.57029024514E+03  0.59317552247E+03  0.99999687468E+00 0.  0.
          4    1    3    3  502    0 -0.74821391928E+02 -0.16085459967E+03 -0.13452832945E+03  0.22264391829E+03  0.00000000000E+00 0.  1.
   -9000007    1    1    2    0  501  0.11956017134E+03  0.39352624949E+01  0.42463498204E+03  0.59550397886E+03  0.40000000000E+03 0.  1.
<mgrwt>
<rscale>  2 0.41416053E+03</rscale>
<asrwt>0</asrwt>
<pdfrwt beam="1">  1        2 0.13011592E+00 0.41416053E+03</pdfrwt>
<pdfrwt beam="2">  1       -2 0.87010756E-01 0.41416053E+03</pdfrwt>
<totfact> 0.38480534E+01</totfact>
</mgrwt>
</event>
<event>
 6    1  0.9205235E-004  0.6955110E+03  0.7818608E-02  0.9724940E-01
          2   -1    0    0  502    0  0.00000000000E+00  0.00000000000E+00  0.40943259437E+04  0.40943259437E+04  0.00000000000E+00 0. -1.
         -2   -1    0    0    0  501 -0.00000000000E+00 -0.00000000000E+00 -0.17174908391E+03  0.17174908391E+03  0.00000000000E+00 0.  1.
    9000007    2    1    2  502    0  0.49029960706E+03  0.28874218464E+03  0.31528693551E+04  0.32286670092E+04  0.39992465816E+03 0.  0.
    9000005    1    3    3    0    0  0.77484694275E+02  0.27111982274E+03  0.13273797050E+04  0.13569995274E+04  0.99999687468E+00 0.  0.
          4    1    3    3  502    0  0.41281491279E+03  0.17622361899E+02  0.18254896500E+04  0.18716674817E+04  0.00000000000E+00 0.  1.
   -9000007    1    1    2    0  501 -0.49029960706E+03 -0.28874218464E+03  0.76970750479E+03  0.10374080185E+04  0.40000000000E+03 0. -1.
<mgrwt>
<rscale>  2 0.69551105E+03</rscale>
<asrwt>0</asrwt>
<pdfrwt beam="1">  1        2 0.62989622E+00 0.69551105E+03</pdfrwt>
<pdfrwt beam="2">  1       -2 0.26422939E-01 0.69551105E+03</pdfrwt>
<totfact> 0.41678386E+00</totfact>
</mgrwt>
</event>
<event>
 6    1  0.9205235E-004  0.4474996E+03  0.7818608E-02  0.1028470E+00
          2   -1    0    0  502    0  0.00000000000E+00  0.00000000000E+00  0.12428225238E+04  0.12428225238E+04  0.00000000000E+00 0.  1.
         -2   -1    0    0    0  501 -0.00000000000E+00 -0.00000000000E+00 -0.17302215417E+03  0.17302215417E+03  0.00000000000E+00 0. -1.
    9000007    2    1    2  502    0  0.43724003722E+02 -0.19541606725E+03  0.72068992749E+03  0.84841421646E+03  0.40039166233E+03 0.  0.
    9000005    1    3    3    0    0  0.30534950687E+02  0.10564447104E+03  0.67435042309E+02  0.12900241238E+03  0.99999687468E+00 0.  0.
          4    1    3    3  502    0  0.13189053036E+02 -0.30106053829E+03  0.65325488518E+03  0.71941180408E+03  0.00000000000E+00 0.  1.
   -9000007    1    1    2    0  501 -0.43724003722E+02  0.19541606725E+03  0.34911044214E+03  0.56743046151E+03  0.40000000000E+03 0. -1.
<mgrwt>
<rscale>  2 0.44749962E+03</rscale>
<asrwt>0</asrwt>
<pdfrwt beam="1">  1        2 0.19120346E+00 0.44749962E+03</pdfrwt>
<pdfrwt beam="2">  1       -2 0.26618794E-01 0.44749962E+03</pdfrwt>
<totfact> 0.23663529E+02</totfact>
</mgrwt>
</event>
<event>
 6    1  0.9205235E-004  0.4164989E+03  0.7818608E-02  0.1038212E+00
          1   -1    0    0  502    0  0.00000000000E+00  0.00000000000E+00  0.17411777740E+04  0.17411777740E+04  0.00000000000E+00 0. -1.
         -1   -1    0    0    0  501 -0.00000000000E+00 -0.00000000000E+00 -0.10175822303E+03  0.10175822303E+03  0.00000000000E+00 0.  1.
    9000007    2    1    2  502    0  0.62350194115E+02 -0.99322069279E+02  0.68576180670E+03  0.80215959771E+03  0.39929731345E+03 0.  0.
    9000005    1    3    3    0    0 -0.10224969289E+03 -0.19897573628E+03  0.36361597276E+03  0.42692378590E+03  0.99999687468E+00 0.  0.
          4    1    3    3  502    0  0.16459988700E+03  0.99653667002E+02  0.32214583394E+03  0.37523581182E+03  0.00000000000E+00 0.  1.
   -9000007    1    1    2    0  501 -0.62350194115E+02  0.99322069279E+02  0.95365774425E+03  0.10407763993E+04  0.40000000000E+03 0. -1.
<mgrwt>
<rscale>  2 0.41649894E+03</rscale>
<asrwt>0</asrwt>
<pdfrwt beam="1">  1        1 0.26787348E+00 0.41649894E+03</pdfrwt>
<pdfrwt beam="2">  1       -1 0.15655112E-01 0.41649894E+03</pdfrwt>
<totfact> 0.14585391E+02</totfact>
</mgrwt>
</event>
<event>
 6    1  0.9205235E-004  0.5585740E+03  0.7818608E-02  0.9995286E-01
          2   -1    0    0  502    0  0.00000000000E+00  0.00000000000E+00  0.11473846131E+04  0.11473846131E+04  0.00000000000E+00 0.  1.
         -2   -1    0    0    0  501 -0.00000000000E+00 -0.00000000000E+00 -0.11192557595E+04  0.11192557595E+04  0.00000000000E+00 0. -1.
    9000007    2    1    2  502    0  0.76508185636E+02  0.38225053896E+03 -0.97201938372E+03  0.11210988092E+04  0.40008984068E+03 0.  0.
    9000005    1    3    3    0    0  0.14887625536E+03  0.42530073099E+03 -0.91339264012E+03  0.10184949515E+04  0.99999687468E+00 0.  0.
          4    1    3    3  502    0 -0.72368069723E+02 -0.43050192025E+02 -0.58626743601E+02  0.10260385770E+03  0.00000000000E+00 0.  1.
   -9000007    1    1    2    0  501 -0.76508185636E+02 -0.38225053896E+03  0.10001482373E+04  0.11455415634E+04  0.40000000000E+03 0.  1.
<mgrwt>
<rscale>  2 0.55857400E+03</rscale>
<asrwt>0</asrwt>
<pdfrwt beam="1">  1        2 0.17652071E+00 0.55857400E+03</pdfrwt>
<pdfrwt beam="2">  1       -2 0.17219319E+00 0.55857400E+03</pdfrwt>
<totfact> 0.44249209E+00</totfact>
</mgrwt>
</event>
<event>
 6    1  0.9205235E-004  0.4731956E+03  0.7818608E-02  0.1021022E+00
          2   -1    0    0  502    0  0.00000000000E+00  0.00000000000E+00  0.28298978521E+03  0.28298978521E+03  0.00000000000E+00 0. -1.
         -2   -1    0    0    0  501 -0.00000000000E+00 -0.00000000000E+00 -0.83360693357E+03  0.83360693357E+03  0.00000000000E+00 0.  1.
    9000007    2    1    2  502    0 -0.12468695830E+03 -0.21975329571E+03 -0.14949620930E+03  0.49632552301E+03  0.40018940473E+03 0.  0.
    9000005    1    3    3    0    0 -0.57388775895E+02  0.79851484438E+01  0.12233949249E+03  0.13537054928E+03  0.99999687468E+00 0.  0.
          4    1    3    3  502    0 -0.67298182406E+02 -0.22773844415E+03 -0.27183570179E+03  0.36095497374E+03  0.00000000000E+00 0.  1.
   -9000007    1    1    2    0  501  0.12468695830E+03  0.21975329571E+03 -0.40112093906E+03  0.62027119577E+03  0.40000000000E+03 0. -1.
<mgrwt>
<rscale>  2 0.47319564E+03</rscale>
<asrwt>0</asrwt>
<pdfrwt beam="1">  1        2 0.43536891E-01 0.47319564E+03</pdfrwt>
<pdfrwt beam="2">  1       -2 0.12824722E+00 0.47319564E+03</pdfrwt>
<totfact> 0.54244967E+01</totfact>
</mgrwt>
</event>
<event>
 6    1  0.9205235E-004  0.4056066E+03  0.7818608E-02  0.1041855E+00
         -2   -1    0    0    0  501 -0.00000000000E+00  0.00000000000E+00  0.31115320116E+03  0.31115320116E+03  0.00000000000E+00 0.  1.
          2   -1    0    0  502    0  0.00000000000E+00 -0.00000000000E+00 -0.65850150691E+03  0.65850150691E+03  0.00000000000E+00 0. -1.
    9000007    2    1    2  502    0  0.57759248132E+01  0.66296929475E+02 -0.38893753364E+03  0.56202950271E+03  0.40022008031E+03 0.  0.
    9000005    1    3    3    0    0 -0.12641625804E+03  0.13852407448E+03 -0.36382151463E+03  0.40931294141E+03  0.99999687468E+00 0.  0.
          4    1    3    3  502    0  0.13219218285E+03 -0.72227145004E+02 -0.25116019007E+02  0.15271656130E+03  0.00000000000E+00 0.  1.
   -9000007    1    1    2    0  501 -0.57759248132E+01 -0.66296929475E+02  0.41589227885E+02  0.40762520536E+03  0.40000000000E+03 0.  1.
<mgrwt>
<rscale>  2 0.40560655E+03</rscale>
<asrwt>0</asrwt>
<pdfrwt beam="1">  1        2 0.10130792E+00 0.40560655E+03</pdfrwt>
<pdfrwt beam="2">  1       -2 0.47869723E-01 0.40560655E+03</pdfrwt>
<totfact> 0.18872931E+02</totfact>
</mgrwt>
</event>
<event>
 6    1  0.9205235E-004  0.4021873E+03  0.7818608E-02  0.1043025E+00
          2   -1    0    0  502    0  0.00000000000E+00  0.00000000000E+00  0.45939300545E+03  0.45939300545E+03  0.00000000000E+00 0.  1.
         -2   -1    0    0    0  501 -0.00000000000E+00 -0.00000000000E+00 -0.37174159232E+03  0.37174159232E+03  0.00000000000E+00 0. -1.
    9000007    2    1    2  502    0  0.41052279623E+02 -0.68790224739E+01 -0.51682516186E+02  0.40552144657E+03  0.40005493440E+03 0.  0.
    9000005    1    3    3    0    0  0.11721395650E+03  0.13237949059E+03  0.84879347359E+02  0.19613501659E+03  0.99999687468E+00 0.  0.
          4    1    3    3  502    0 -0.76161676882E+02 -0.13925851307E+03 -0.13656186354E+03  0.20938642999E+03  0.00000000000E+00 0.  1.
   -9000007    1    1    2    0  501 -0.41052279623E+02  0.68790224739E+01  0.13933392932E+03  0.42561315120E+03  0.40000000000E+03 0.  1.
<mgrwt>
<rscale>  2 0.40218725E+03</rscale>
<asrwt>0</asrwt>
<pdfrwt beam="1">  1        2 0.70675847E-01 0.40218725E+03</pdfrwt>
<pdfrwt beam="2">  1       -2 0.57191014E-01 0.40218725E+03</pdfrwt>
<totfact> 0.19984667E+02</totfact>
</mgrwt>
</event>
<event>
 6    1  0.9205235E-004  0.4376549E+03  0.7818608E-02  0.1031469E+00
          2   -1    0    0  502    0  0.00000000000E+00  0.00000000000E+00  0.56437999334E+03  0.56437999334E+03  0.00000000000E+00 0.  1.
         -2   -1    0    0    0  501 -0.00000000000E+00 -0.00000000000E+00 -0.38440451557E+03  0.38440451557E+03  0.00000000000E+00 0. -1.
    9000007    2    1    2  502    0 -0.16635069176E+03  0.64945508067E+02  0.25226254603E+03  0.50480715374E+03  0.39912829851E+03 0.  0.
    9000005    1    3    3    0    0  0.75374538656E+02  0.13863609398E+03  0.18527688046E+03  0.24337175280E+03  0.99999687468E+00 0.  0.
          4    1    3    3  502    0 -0.24172523042E+03 -0.73690585917E+02  0.66985665569E+02  0.26143540094E+03  0.00000000000E+00 0.  1.
   -9000007    1    1    2    0  501  0.16635069176E+03 -0.64945508067E+02 -0.72287068262E+02  0.44397735517E+03  0.40000000000E+03 0. -1.
<mgrwt>
<rscale>  2 0.43765495E+03</rscale>
<asrwt>0</asrwt>
<pdfrwt beam="1">  1        2 0.86827691E-01 0.43765495E+03</pdfrwt>
<pdfrwt beam="2">  1       -2 0.59139156E-01 0.43765495E+03</pdfrwt>
<totfact> 0.14685865E+02</totfact>
</mgrwt>
</event>
<event>
 6    1  0.9205235E-004  0.4901757E+03  0.7818608E-02  0.1016375E+00
         -3   -1    0    0    0  501 -0.00000000000E+00  0.00000000000E+00  0.29610979818E+03  0.29610979818E+03  0.00000000000E+00 0.  1.
          3   -1    0    0  502    0  0.00000000000E+00 -0.00000000000E+00 -0.86246056646E+03  0.86246056646E+03  0.00000000000E+00 0. -1.
    9000007    2    1    2  502    0  0.97364376434E+02 -0.26623538645E+03 -0.14221679821E+03  0.51030288330E+03  0.39977782857E+03 0.  0.
    9000005    1    3    3    0    0  0.76592125699E+02  0.95817831144E+02 -0.67573538307E+02  0.14005211015E+03  0.99999687468E+00 0.  0.
          4    1    3    3  502    0  0.20772250735E+02 -0.36205321760E+03 -0.74643259904E+02  0.37025077315E+03  0.00000000000E+00 0.  1.
   -9000007    1    1    2    0  501 -0.97364376434E+02  0.26623538645E+03 -0.42413397006E+03  0.64826748134E+03  0.40000000000E+03 0. -1.
<mgrwt>
<rscale>  2 0.49017573E+03</rscale>
<asrwt>0</asrwt>
<pdfrwt beam="1">  1        3 0.13268624E+00 0.49017573E+03</pdfrwt>
<pdfrwt beam="2">  1       -3 0.45555354E-01 0.49017573E+03</pdfrwt>
<totfact> 0.55502588E+00</totfact>
</mgrwt>
</event>
<event>
 6    1  0.9205235E-004  0.5199814E+03  0.7818608E-02  0.1008691E+00
          1   -1    0    0  502    0  0.00000000000E+00  0.00000000000E+00  0.16724393467E+04  0.16724393467E+04  0.00000000000E+00 0.  1.
         -1   -1    0    0    0  501 -0.00000000000E+00 -0.00000000000E+00 -0.17958465103E+03  0.17958465103E+03  0.00000000000E+00 0. -1.
    9000007    2    1    2  502    0 -0.33014823167E+03 -0.39002801604E+02  0.10387413197E+04  0.11615618108E+04  0.39965389719E+03 0.  0.
    9000005    1    3    3    0    0 -0.38759088614E+03  0.69091265857E+02  0.84776420812E+03  0.93472212480E+03  0.99999687468E+00 0.  0.
          4    1    3    3  502    0  0.57442654472E+02 -0.10809406746E+03  0.19097711160E+03  0.22683968597E+03  0.00000000000E+00 0.  1.
   -9000007    1    1    2    0  501  0.33014823167E+03  0.39002801604E+02  0.45411337597E+03  0.69046218697E+03  0.40000000000E+03 0. -1.
<mgrwt>
<rscale>  2 0.51998140E+03</rscale>
<asrwt>0</asrwt>
<pdfrwt beam="1">  1        1 0.25729835E+00 0.51998140E+03</pdfrwt>
<pdfrwt beam="2">  1       -1 0.27628409E-01 0.51998140E+03</pdfrwt>
<totfact> 0.62110225E+01</totfact>
</mgrwt>
</event>
<event>
 6    1  0.9205235E-004  0.8051851E+03  0.7818608E-02  0.9552542E-01
          2   -1    0    0  502    0  0.00000000000E+00  0.00000000000E+00  0.10003364293E+04  0.10003364293E+04  0.00000000000E+00 0. -1.
         -2   -1    0    0    0  501 -0.00000000000E+00 -0.00000000000E+00 -0.84807829758E+03  0.84807829758E+03  0.00000000000E+00 0.  1.
    9000007    2    1    2  502    0  0.23458019522E+03 -0.65839040711E+03  0.52490490617E+03  0.96107521196E+03  0.39954299688E+03 0.  0.
    9000005    1    3    3    0    0  0.33453658631E+03 -0.43990609297E+03  0.28610969759E+03  0.62232777317E+03  0.99999687468E+00 0.  0.
          4    1    3    3  502    0 -0.99956391086E+02 -0.21848431414E+03  0.23879520858E+03  0.33874743879E+03  0.00000000000E+00 0.  1.
   -9000007    1    1    2    0  501 -0.23458019522E+03  0.65839040711E+03 -0.37264677448E+03  0.88733951489E+03  0.40000000000E+03 0.  1.
<mgrwt>
<rscale>  2 0.80518512E+03</rscale>
<asrwt>0</asrwt>
<pdfrwt beam="1">  1        2 0.15389791E+00 0.80518512E+03</pdfrwt>
<pdfrwt beam="2">  1       -2 0.13047358E+00 0.80518512E+03</pdfrwt>
<totfact> 0.10952981E+01</totfact>
</mgrwt>
</event>
<event>
 6    1  0.9205235E-004  0.4248360E+03  0.7818608E-02  0.1035504E+00
          2   -1    0    0  502    0  0.00000000000E+00  0.00000000000E+00  0.94310797365E+03  0.94310797365E+03  0.00000000000E+00 0. -1.
         -2   -1    0    0    0  501 -0.00000000000E+00 -0.00000000000E+00 -0.19147990628E+03  0.19147990628E+03  0.00000000000E+00 0.  1.
    9000007    2    1    2  502    0 -0.12592547881E+03  0.63385485900E+02  0.38980489410E+03  0.57710159781E+03  0.40152640349E+03 0.  0.
    9000005    1    3    3    0    0  0.10895030567E+03  0.12481250896E+03  0.24065254916E+03  0.29216943869E+03  0.99999687468E+00 0.  0.
          4    1    3    3  502    0 -0.23487578448E+03 -0.61427023058E+02  0.14915234494E+03  0.28493215912E+03  0.00000000000E+00 0.  1.
   -9000007    1    1    2    0  501  0.12592547881E+03 -0.63385485900E+02  0.36182317327E+03  0.55748628212E+03  0.40000000000E+03 0. -1.
<mgrwt>
<rscale>  2 0.42483601E+03</rscale>
<asrwt>0</asrwt>
<pdfrwt beam="1">  1        2 0.14509353E+00 0.42483601E+03</pdfrwt>
<pdfrwt beam="2">  1       -2 0.29458448E-01 0.42483601E+03</pdfrwt>
<totfact> 0.29923053E+02</totfact>
</mgrwt>
</event>
<event>
 6    1  0.9205235E-004  0.4078061E+03  0.7818608E-02  0.1041110E+00
          2   -1    0    0  502    0  0.00000000000E+00  0.00000000000E+00  0.64868282734E+03  0.64868282734E+03  0.00000000000E+00 0.  1.
         -2   -1    0    0    0  501 -0.00000000000E+00 -0.00000000000E+00 -0.25929260852E+03  0.25929260852E+03  0.00000000000E+00 0. -1.
    9000007    2    1    2  502    0 -0.75386811782E+02  0.94125306748E+01  0.24315958291E+03  0.47536109721E+03  0.40133505062E+03 0.  0.
    9000005    1    3    3    0    0 -0.21930281577E+02 -0.18272202724E+03  0.35469769144E+02  0.18742300020E+03  0.99999687468E+00 0.  0.
          4    1    3    3  502    0 -0.53456530205E+02  0.19213455791E+03  0.20768981376E+03  0.28793809701E+03  0.00000000000E+00 0.  1.
   -9000007    1    1    2    0  501  0.75386811782E+02 -0.94125306748E+01  0.14623063592E+03  0.43261433865E+03  0.40000000000E+03 0.  1.
<mgrwt>
<rscale>  2 0.40780610E+03</rscale>
<asrwt>0</asrwt>
<pdfrwt beam="1">  1        2 0.99797357E-01 0.40780610E+03</pdfrwt>
<pdfrwt beam="2">  1       -2 0.39891171E-01 0.40780610E+03</pdfrwt>
<totfact> 0.27490695E+02</totfact>
</mgrwt>
</event>
<event>
 6    1  0.9205235E-004  0.5066278E+03  0.7818608E-02  0.1012063E+00
         -2   -1    0    0    0  501 -0.00000000000E+00  0.00000000000E+00  0.14615402698E+03  0.14615402698E+03  0.00000000000E+00 0. -1.
          2   -1    0    0  502    0  0.00000000000E+00 -0.00000000000E+00 -0.17960405722E+04  0.17960405722E+04  0.00000000000E+00 0.  1.
    9000007    2    1    2  502    0 -0.32530800950E+01  0.31236945953E+03 -0.96818192553E+03  0.10923084596E+04  0.39771380181E+03 0.  0.
    9000005    1    3    3    0    0  0.10877167480E+03  0.36346427091E+03 -0.67487367277E+03  0.77420477114E+03  0.99999687468E+00 0.  0.
          4    1    3    3  502    0 -0.11202475489E+03 -0.51094811373E+02 -0.29330825276E+03  0.31810368843E+03  0.00000000000E+00 0.  1.
   -9000007    1    1    2    0  501  0.32530800950E+01 -0.31236945953E+03 -0.68170461965E+03  0.84988613957E+03  0.40000000000E+03 0. -1.
<mgrwt>
<rscale>  2 0.50662785E+03</rscale>
<asrwt>0</asrwt>
<pdfrwt beam="1">  1        2 0.27631394E+00 0.50662785E+03</pdfrwt>
<pdfrwt beam="2">  1       -2 0.22485234E-01 0.50662785E+03</pdfrwt>
<totfact> 0.15761737E+02</totfact>
</mgrwt>
</event>
<event>
 6    1  0.9205235E-004  0.7061475E+03  0.7818608E-02  0.9706777E-01
          2   -1    0    0  502    0  0.00000000000E+00  0.00000000000E+00  0.12293231618E+04  0.12293231618E+04  0.00000000000E+00 0.  1.
         -2   -1    0    0    0  501 -0.00000000000E+00 -0.00000000000E+00 -0.46372604439E+03  0.46372604439E+03  0.00000000000E+00 0. -1.
    9000007    2    1    2  502    0  0.32174213999E+03  0.48489039368E+03  0.83160575904E+02  0.71103274413E+03  0.40001897869E+03 0.  0.
    9000005    1    3    3    0    0  0.49726359418E+02 -0.54883345048E+02  0.76605786550E+02  0.10655674034E+03  0.99999687468E+00 0.  0.
          4    1    3    3  502    0  0.27201578057E+03  0.53977373873E+03  0.65547893535E+01  0.60447600380E+03  0.00000000000E+00 0.  1.
   -9000007    1    1    2    0  501 -0.32174213999E+03 -0.48489039368E+03  0.68243654147E+03  0.98201646201E+03  0.40000000000E+03 0. -1.
<mgrwt>
<rscale>  2 0.70614750E+03</rscale>
<asrwt>0</asrwt>
<pdfrwt beam="1">  1        2 0.18912664E+00 0.70614750E+03</pdfrwt>
<pdfrwt beam="2">  1       -2 0.71342469E-01 0.70614750E+03</pdfrwt>
<totfact> 0.33210383E+01</totfact>
</mgrwt>
</event>
<event>
 6    1  0.9205235E-004  0.4065053E+03  0.7818608E-02  0.1041550E+00
         -1   -1    0    0    0  501 -0.00000000000E+00  0.00000000000E+00  0.10190639105E+04  0.10190639105E+04  0.00000000000E+00 0. -1.
          1   -1    0    0  502    0  0.00000000000E+00 -0.00000000000E+00 -0.16220539537E+03  0.16220539537E+03  0.00000000000E+00 0.  1.
    9000007    2    1    2  502    0  0.12314326944E+02  0.68436368044E+02  0.41860386166E+03  0.58385628258E+03  0.40102841120E+03 0.  0.
    9000005    1    3    3    0    0 -0.49929917529E+02  0.20007322116E+03  0.38138445455E+03  0.43356359702E+03  0.99999687468E+00 0.  0.
          4    1    3    3  502    0  0.62244244474E+02 -0.13163685312E+03  0.37219407109E+02  0.15029268556E+03  0.00000000000E+00 0.  1.
   -9000007    1    1    2    0  501 -0.12314326944E+02 -0.68436368044E+02  0.43825465351E+03  0.59741302333E+03  0.40000000000E+03 0.  1.
<mgrwt>
<rscale>  2 0.40650530E+03</rscale>
<asrwt>0</asrwt>
<pdfrwt beam="1">  1        1 0.24954677E-01 0.40650530E+03</pdfrwt>
<pdfrwt beam="2">  1       -1 0.15677906E+00 0.40650530E+03</pdfrwt>
<totfact> 0.63620693E+01</totfact>
</mgrwt>
</event>
<event>
 6    1  0.9205235E-004  0.5388815E+03  0.7818608E-02  0.1004101E+00
         -1   -1    0    0    0  501 -0.00000000000E+00  0.00000000000E+00  0.91524128979E+02  0.91524128979E+02  0.00000000000E+00 0. -1.
          1   -1    0    0  502    0  0.00000000000E+00 -0.00000000000E+00 -0.39836953432E+04  0.39836953432E+04  0.00000000000E+00 0.  1.
    9000007    2    1    2  502    0 -0.14854511848E+03  0.32884291082E+03 -0.10273209723E+04  0.11601602583E+04  0.40047488364E+03 0.  0.
    9000005    1    3    3    0    0  0.65766977102E+02  0.32663168129E+02 -0.40569630316E+01  0.73550232985E+02  0.99999687468E+00 0.  0.
          4    1    3    3  502    0 -0.21431209558E+03  0.29617974269E+03 -0.10232640093E+04  0.10866100253E+04  0.00000000000E+00 0.  1.
   -9000007    1    1    2    0  501  0.14854511848E+03 -0.32884291082E+03 -0.28648502419E+04  0.29150592139E+04  0.40000000000E+03 0.  1.
<mgrwt>
<rscale>  2 0.53888154E+03</rscale>
<asrwt>0</asrwt>
<pdfrwt beam="1">  1        1 0.61287608E+00 0.53888154E+03</pdfrwt>
<pdfrwt beam="2">  1       -1 0.14080638E-01 0.53888154E+03</pdfrwt>
<totfact> 0.41629315E+00</totfact>
</mgrwt>
</event>
<event>
 6    1  0.9205235E-004  0.5008126E+03  0.7818608E-02  0.1013567E+00
          1   -1    0    0  502    0  0.00000000000E+00  0.00000000000E+00  0.56230371119E+03  0.56230371119E+03  0.00000000000E+00 0. -1.
         -1   -1    0    0    0  501 -0.00000000000E+00 -0.00000000000E+00 -0.46208051487E+03  0.46208051487E+03  0.00000000000E+00 0.  1.
    9000007    2    1    2  502    0 -0.30014387847E+03 -0.93627891959E+01 -0.45236601310E+02  0.50348830332E+03  0.40159695203E+03 0.  0.
    9000005    1    3    3    0    0 -0.29400755476E+03  0.54007997836E+02  0.12327551377E+03  0.32334990084E+03  0.99999687468E+00 0.  0.
          4    1    3    3  502    0 -0.61363237114E+01 -0.63370787032E+02 -0.16851211508E+03  0.18013840248E+03  0.00000000000E+00 0.  1.
   -9000007    1    1    2    0  501  0.30014387847E+03  0.93627891959E+01  0.14545979763E+03  0.52089592274E+03  0.40000000000E+03 0.  1.
<mgrwt>
<rscale>  2 0.50081259E+03</rscale>
<asrwt>0</asrwt>
<pdfrwt beam="1">  1        1 0.86508263E-01 0.50081259E+03</pdfrwt>
<pdfrwt beam="2">  1       -1 0.71089310E-01 0.50081259E+03</pdfrwt>
<totfact> 0.78351774E+01</totfact>
</mgrwt>
</event>
<event>
 6    1  0.9205235E-004  0.4703833E+03  0.7818608E-02  0.1021812E+00
          1   -1    0    0  502    0  0.00000000000E+00  0.00000000000E+00  0.36338483214E+03  0.36338483214E+03  0.00000000000E+00 0. -1.
         -1   -1    0    0    0  501 -0.00000000000E+00 -0.00000000000E+00 -0.61940090349E+03  0.61940090349E+03  0.00000000000E+00 0.  1.
    9000007    2    1    2  502    0 -0.23492356021E+03  0.78292176465E+02 -0.19201148325E+03  0.50800649079E+03  0.39985427463E+03 0.  0.
    9000005    1    3    3    0    0  0.50812998377E+02 -0.85373556854E+02 -0.14441860082E+03  0.17529500070E+03  0.99999687468E+00 0.  0.
          4    1    3    3  502    0 -0.28573655859E+03  0.16366573332E+03 -0.47592882431E+02  0.33271149009E+03  0.00000000000E+00 0.  1.
   -9000007    1    1    2    0  501  0.23492356021E+03 -0.78292176465E+02 -0.64004588105E+02  0.47477924485E+03  0.40000000000E+03 0. -1.
<mgrwt>
<rscale>  2 0.47038331E+03</rscale>
<asrwt>0</asrwt>
<pdfrwt beam="1">  1        1 0.55905360E-01 0.47038331E+03</pdfrwt>
<pdfrwt beam="2">  1       -1 0.95292445E-01 0.47038331E+03</pdfrwt>
<totfact> 0.75650396E+01</totfact>
</mgrwt>
</event>
<event>
 6    1  0.9205235E-004  0.9920314E+03  0.7818608E-02  0.9317328E-01
          1   -1    0    0  502    0  0.00000000000E+00  0.00000000000E+00  0.20744902824E+04  0.20744902824E+04  0.00000000000E+00 0.  1.
         -1   -1    0    0    0  501 -0.00000000000E+00 -0.00000000000E+00 -0.48096702135E+03  0.48096702135E+03  0.00000000000E+00 0. -1.
    9000007    2    1    2  502    0 -0.62867142303E+03 -0.65515386385E+03  0.94599786224E+03  0.13706604918E+04  0.39917901383E+03 0.  0.
    9000005    1    3    3    0    0 -0.16390530851E+03 -0.58285572743E+00  0.29340363421E+03  0.33608329688E+03  0.99999687468E+00 0.  0.
          4    1    3    3  502    0 -0.46476611453E+03 -0.65457100813E+03  0.65259422803E+03  0.10345771950E+04  0.00000000000E+00 0.  1.
   -9000007    1    1    2    0  501  0.62867142303E+03  0.65515386385E+03  0.64752539886E+03  0.11847968120E+04  0.40000000000E+03 0. -1.
<mgrwt>
<rscale>  2 0.99203137E+03</rscale>
<asrwt>0</asrwt>
<pdfrwt beam="1">  1        1 0.31915234E+00 0.99203137E+03</pdfrwt>
<pdfrwt beam="2">  1       -1 0.73994928E-01 0.99203137E+03</pdfrwt>
<totfact> 0.49433464E+00</totfact>
</mgrwt>
</event>
<event>
 6    1  0.9205235E-004  0.4630849E+03  0.7818608E-02  0.1023890E+00
          1   -1    0    0  502    0  0.00000000000E+00  0.00000000000E+00  0.18820580842E+04  0.18820580842E+04  0.00000000000E+00 0.  1.
         -1   -1    0    0    0  501 -0.00000000000E+00 -0.00000000000E+00 -0.11483969878E+03  0.11483969878E+03  0.00000000000E+00 0. -1.
    9000007    2    1    2  502    0 -0.22432250388E+03 -0.62512121494E+02  0.79583935755E+03  0.92088404382E+03  0.40054810955E+03 0.  0.
    9000005    1    3    3    0    0 -0.19297849527E+03  0.14824079477E+03  0.50256261635E+03  0.55837820177E+03  0.99999687468E+00 0.  0.
          4    1    3    3  502    0 -0.31344008609E+02 -0.21075291627E+03  0.29327674120E+03  0.36250584205E+03  0.00000000000E+00 0.  1.
   -9000007    1    1    2    0  501  0.22432250388E+03  0.62512121494E+02  0.97137902785E+03  0.10760137391E+04  0.40000000000E+03 0. -1.
<mgrwt>
<rscale>  2 0.46308491E+03</rscale>
<asrwt>0</asrwt>
<pdfrwt beam="1">  1        1 0.28954737E+00 0.46308491E+03</pdfrwt>
<pdfrwt beam="2">  1       -1 0.17667647E-01 0.46308491E+03</pdfrwt>
<totfact> 0.96041642E+01</totfact>
</mgrwt>
</event>
<event>
 6    1  0.9205235E-004  0.4841833E+03  0.7818608E-02  0.1017992E+00
          1   -1    0    0  502    0  0.00000000000E+00  0.00000000000E+00  0.14627304884E+04  0.14627304884E+04  0.00000000000E+00 0.  1.
         -1   -1    0    0    0  501 -0.00000000000E+00 -0.00000000000E+00 -0.16773187390E+03  0.16773187390E+03  0.00000000000E+00 0. -1.
    9000007    2    1    2  502    0  0.16398453480E+03 -0.21830345499E+03  0.81928405336E+03  0.95160179504E+03  0.39971526129E+03 0.  0.
    9000005    1    3    3    0    0 -0.10474157342E+02 -0.17468359051E+03  0.83018948427E+02  0.19369359968E+03  0.99999687468E+00 0.  0.
          4    1    3    3  502    0  0.17445869214E+03 -0.43619864477E+02  0.73626510494E+03  0.75790819536E+03  0.00000000000E+00 0.  1.
   -9000007    1    1    2    0  501 -0.16398453480E+03  0.21830345499E+03  0.47571456117E+03  0.67886056729E+03  0.40000000000E+03 0. -1.
<mgrwt>
<rscale>  2 0.48418327E+03</rscale>
<asrwt>0</asrwt>
<pdfrwt beam="1">  1        1 0.22503545E+00 0.48418327E+03</pdfrwt>
<pdfrwt beam="2">  1       -1 0.25804905E-01 0.48418327E+03</pdfrwt>
<totfact> 0.97068845E+01</totfact>
</mgrwt>
</event>
<event>
 6    1  0.9205235E-004  0.4067662E+03  0.7818608E-02  0.1041462E+00
         -1   -1    0    0    0  501 -0.00000000000E+00  0.00000000000E+00  0.21439898829E+03  0.21439898829E+03  0.00000000000E+00 0. -1.
          1   -1    0    0  502    0  0.00000000000E+00 -0.00000000000E+00 -0.77368678259E+03  0.77368678259E+03  0.00000000000E+00 0.  1.
    9000007    2    1    2  502    0 -0.68722264872E+02  0.30640675174E+02 -0.30429994296E+03  0.50779377117E+03  0.39949275097E+03 0.  0.
    9000005    1    3    3    0    0  0.54707418375E+01 -0.85226333105E+02  0.69095055021E+02  0.10985710488E+03  0.99999687468E+00 0.  0.
          4    1    3    3  502    0 -0.74193006710E+02  0.11586700828E+03 -0.37339499799E+03  0.39793666628E+03  0.00000000000E+00 0.  1.
   -9000007    1    1    2    0  501  0.68722264872E+02 -0.30640675174E+02 -0.25498785133E+03  0.48029199972E+03  0.40000000000E+03 0. -1.
<mgrwt>
<rscale>  2 0.40676616E+03</rscale>
<asrwt>0</asrwt>
<pdfrwt beam="1">  1        1 0.11902874E+00 0.40676616E+03</pdfrwt>
<pdfrwt beam="2">  1       -1 0.32984460E-01 0.40676616E+03</pdfrwt>
<totfact> 0.20910742E+02</totfact>
</mgrwt>
</event>
<event>
 6    1  0.9205235E-004  0.4118135E+03  0.7818608E-02  0.1039764E+00
         -2   -1    0    0    0  501 -0.00000000000E+00  0.00000000000E+00  0.27077926666E+03  0.27077926666E+03  0.00000000000E+00 0. -1.
          2   -1    0    0  502    0  0.00000000000E+00 -0.00000000000E+00 -0.70520547948E+03  0.70520547948E+03  0.00000000000E+00 0.  1.
    9000007    2    1    2  502    0 -0.80819888673E+02  0.55710812845E+02 -0.53959247933E+02  0.41527924372E+03  0.39988711002E+03 0.  0.
    9000005    1    3    3    0    0 -0.18320454271E+03  0.96340756325E+02  0.96845886413E+02  0.22852914805E+03  0.99999687468E+00 0.  0.
          4    1    3    3  502    0  0.10238465404E+03 -0.40629943479E+02 -0.15080513435E+03  0.18675009567E+03  0.00000000000E+00 0.  1.
   -9000007    1    1    2    0  501  0.80819888673E+02 -0.55710812845E+02 -0.38046696489E+03  0.56070550242E+03  0.40000000000E+03 0.  1.
<mgrwt>
<rscale>  2 0.41181354E+03</rscale>
<asrwt>0</asrwt>
<pdfrwt beam="1">  1        2 0.10849315E+00 0.41181354E+03</pdfrwt>
<pdfrwt beam="2">  1       -2 0.41658349E-01 0.41181354E+03</pdfrwt>
<totfact> 0.22810275E+02</totfact>
</mgrwt>
</event>
<event>
 6    1  0.9205235E-004  0.4245262E+03  0.7818608E-02  0.1035603E+00
          1   -1    0    0  502    0  0.00000000000E+00  0.00000000000E+00  0.10886979577E+04  0.10886979577E+04  0.00000000000E+00 0. -1.
         -1   -1    0    0    0  501 -0.00000000000E+00 -0.00000000000E+00 -0.16556778577E+03  0.16556778577E+03  0.00000000000E+00 0.  1.
    9000007    2    1    2  502    0 -0.12522756852E+03  0.71257103301E+02  0.45272860737E+03  0.62020174779E+03  0.39865711751E+03 0.  0.
    9000005    1    3    3    0    0 -0.18801871109E+03 -0.91455695099E+02  0.37480084764E+03  0.42917578598E+03  0.99999687468E+00 0.  0.
          4    1    3    3  502    0  0.62791142569E+02  0.16271279840E+03  0.77927759734E+02  0.19102596181E+03  0.00000000000E+00 0.  1.
   -9000007    1    1    2    0  501  0.12522756852E+03 -0.71257103301E+02  0.47040156457E+03  0.63406399570E+03  0.40000000000E+03 0.  1.
<mgrwt>
<rscale>  2 0.42452617E+03</rscale>
<asrwt>0</asrwt>
<pdfrwt beam="1">  1        1 0.16749199E+00 0.42452617E+03</pdfrwt>
<pdfrwt beam="2">  1       -1 0.25471968E-01 0.42452617E+03</pdfrwt>
<totfact> 0.18318895E+02</totfact>
</mgrwt>
</event>
<event>
 6    1  0.9205235E-004  0.4890075E+03  0.7818608E-02  0.1016689E+00
         -2   -1    0    0    0  501 -0.00000000000E+00  0.00000000000E+00  0.34987022515E+03  0.34987022515E+03  0.00000000000E+00 0. -1.
          2   -1    0    0  502    0  0.00000000000E+00 -0.00000000000E+00 -0.69576888790E+03  0.69576888790E+03  0.00000000000E+00 0.  1.
    9000007    2    1    2  502    0 -0.24116039820E+03  0.14492791979E+03 -0.24242725114E+03  0.54577035766E+03  0.39991483044E+03 0.  0.
    9000005    1    3    3    0    0 -0.31192987847E+03  0.26570073757E+02 -0.25974455314E+03  0.40678550955E+03  0.99999687468E+00 0.  0.
          4    1    3    3  502    0  0.70769480265E+02  0.11835784603E+03  0.17317302001E+02  0.13898484811E+03  0.00000000000E+00 0.  1.
   -9000007    1    1    2    0  501  0.24116039820E+03 -0.14492791979E+03 -0.10347141161E+03  0.49986875539E+03  0.40000000000E+03 0.  1.
<mgrwt>
<rscale>  2 0.48900754E+03</rscale>
<asrwt>0</asrwt>
<pdfrwt beam="1">  1        2 0.10704137E+00 0.48900754E+03</pdfrwt>
<pdfrwt beam="2">  1       -2 0.53826189E-01 0.48900754E+03</pdfrwt>
<totfact> 0.13813341E+02</totfact>
</mgrwt>
</event>
<event>
 6    1  0.9205235E-004  0.4879577E+03  0.7818608E-02  0.1016971E+00
          1   -1    0    0  502    0  0.00000000000E+00  0.00000000000E+00  0.82298739374E+03  0.82298739374E+03  0.00000000000E+00 0.  1.
         -1   -1    0    0    0  501 -0.00000000000E+00 -0.00000000000E+00 -0.30552496280E+03  0.30552496280E+03  0.00000000000E+00 0. -1.
    9000007    2    1    2  502    0 -0.27678103132E+03 -0.40361481744E+02  0.12869255194E+03  0.50451010708E+03  0.39966471788E+03 0.  0.
    9000005    1    3    3    0    0 -0.16515638912E+03  0.66027808673E+01 -0.13559846968E+03  0.21379470189E+03  0.99999687468E+00 0.  0.
          4    1    3    3  502    0 -0.11162464220E+03 -0.46964262611E+02  0.26429102162E+03  0.29071540519E+03  0.00000000000E+00 0.  1.
   -9000007    1    1    2    0  501  0.27678103132E+03  0.40361481744E+02  0.38876987899E+03  0.62400224945E+03  0.40000000000E+03 0.  1.
<mgrwt>
<rscale>  2 0.48795768E+03</rscale>
<asrwt>0</asrwt>
<pdfrwt beam="1">  1        1 0.12661344E+00 0.48795768E+03</pdfrwt>
<pdfrwt beam="2">  1       -1 0.47003841E-01 0.48795768E+03</pdfrwt>
<totfact> 0.99516707E+01</totfact>
</mgrwt>
</event>
<event>
 6    1  0.9205235E-004  0.4204767E+03  0.7818608E-02  0.1036911E+00
          2   -1    0    0  502    0  0.00000000000E+00  0.00000000000E+00  0.62477601066E+03  0.62477601066E+03  0.00000000000E+00 0.  1.
         -2   -1    0    0    0  501 -0.00000000000E+00 -0.00000000000E+00 -0.28364493069E+03  0.28364493069E+03  0.00000000000E+00 0. -1.
    9000007    2    1    2  502    0  0.12762422594E+03 -0.29743645103E+02  0.19233138235E+03  0.46197500120E+03  0.39907006105E+03 0.  0.
    9000005    1    3    3    0    0  0.21487474118E+03  0.12042073978E+03  0.11607240575E+03  0.27229783755E+03  0.99999687468E+00 0.  0.
          4    1    3    3  502    0 -0.87250515243E+02 -0.15016438488E+03  0.76258976593E+02  0.18967716364E+03  0.00000000000E+00 0.  1.
   -9000007    1    1    2    0  501 -0.12762422594E+03  0.29743645103E+02  0.14879969761E+03  0.44644594015E+03  0.40000000000E+03 0. -1.
<mgrwt>
<rscale>  2 0.42047675E+03</rscale>
<asrwt>0</asrwt>
<pdfrwt beam="1">  1        2 0.96119386E-01 0.42047675E+03</pdfrwt>
<pdfrwt beam="2">  1       -2 0.43637682E-01 0.42047675E+03</pdfrwt>
<totfact> 0.24128869E+02</totfact>
</mgrwt>
</event>
<event>
 6    1  0.9205235E-004  0.5192735E+03  0.7818608E-02  0.1008867E+00
          2   -1    0    0  502    0  0.00000000000E+00  0.00000000000E+00  0.97980989056E+03  0.97980989056E+03  0.00000000000E+00 0.  1.
         -2   -1    0    0    0  501 -0.00000000000E+00 -0.00000000000E+00 -0.28527559361E+03  0.28527559361E+03  0.00000000000E+00 0. -1.
    9000007    2    1    2  502    0 -0.19156645476E+03 -0.27000942002E+03  0.46616131198E+03  0.69784918971E+03  0.40010539775E+03 0.  0.
    9000005    1    3    3    0    0 -0.38890551083E+02 -0.17916843922E+03 -0.15960233628E+02  0.18403677249E+03  0.99999687468E+00 0.  0.
          4    1    3    3  502    0 -0.15267590367E+03 -0.90840980803E+02  0.48212154561E+03  0.51381241723E+03  0.00000000000E+00 0.  1.
   -9000007    1    1    2    0  501  0.19156645476E+03  0.27000942002E+03  0.22837298497E+03  0.56723629446E+03  0.40000000000E+03 0.  1.
<mgrwt>
<rscale>  2 0.51927349E+03</rscale>
<asrwt>0</asrwt>
<pdfrwt beam="1">  1        2 0.15073998E+00 0.51927349E+03</pdfrwt>
<pdfrwt beam="2">  1       -2 0.43888553E-01 0.51927349E+03</pdfrwt>
<totfact> 0.13177369E+02</totfact>
</mgrwt>
</event>
<event>
 6    1  0.9205235E-004  0.4583059E+03  0.7818608E-02  0.1025274E+00
          2   -1    0    0  502    0  0.00000000000E+00  0.00000000000E+00  0.24159178952E+03  0.24159178952E+03  0.00000000000E+00 0.  1.
         -2   -1    0    0    0  501 -0.00000000000E+00 -0.00000000000E+00 -0.87459165926E+03  0.87459165926E+03  0.00000000000E+00 0. -1.
    9000007    2    1    2  502    0 -0.13222183427E+03  0.17496405862E+03 -0.36081130877E+03  0.58497572295E+03  0.40486634911E+03 0.  0.
    9000005    1    3    3    0    0  0.84531133334E+02  0.22191280683E+03 -0.20761503975E+03  0.31542956593E+03  0.99999687468E+00 0.  0.
          4    1    3    3  502    0 -0.21675296760E+03 -0.46948748215E+02 -0.15319626902E+03  0.26954615702E+03  0.00000000000E+00 0.  1.
   -9000007    1    1    2    0  501  0.13222183427E+03 -0.17496405862E+03 -0.27218856096E+03  0.53120772583E+03  0.40000000000E+03 0.  1.
<mgrwt>
<rscale>  2 0.45830589E+03</rscale>
<asrwt>0</asrwt>
<pdfrwt beam="1">  1        2 0.37167968E-01 0.45830589E+03</pdfrwt>
<pdfrwt beam="2">  1       -2 0.13455256E+00 0.45830589E+03</pdfrwt>
<totfact> 0.57297895E+01</totfact>
</mgrwt>
</event>
<event>
 6    1  0.9205235E-004  0.4035068E+03  0.7818608E-02  0.1042572E+00
         -1   -1    0    0    0  501 -0.00000000000E+00  0.00000000000E+00  0.37947016868E+03  0.37947016868E+03  0.00000000000E+00 0. -1.
          1   -1    0    0  502    0  0.00000000000E+00 -0.00000000000E+00 -0.43021234380E+03  0.43021234380E+03  0.00000000000E+00 0.  1.
    9000007    2    1    2  502    0  0.51600055453E+02 -0.19651451433E+02 -0.46249422186E+02  0.40586457071E+03  0.39942245234E+03 0.  0.
    9000005    1    3    3    0    0  0.85176996671E+02 -0.19254000048E+03  0.32332469413E+02  0.21300976766E+03  0.99999687468E+00 0.  0.
          4    1    3    3  502    0 -0.33576941218E+02  0.17288854904E+03 -0.78581891599E+02  0.19285480305E+03  0.00000000000E+00 0.  1.
   -9000007    1    1    2    0  501 -0.51600055453E+02  0.19651451433E+02 -0.44927529309E+01  0.40381794177E+03  0.40000000000E+03 0. -1.
<mgrwt>
<rscale>  2 0.40350679E+03</rscale>
<asrwt>0</asrwt>
<pdfrwt beam="1">  1        1 0.66186515E-01 0.40350679E+03</pdfrwt>
<pdfrwt beam="2">  1       -1 0.58380026E-01 0.40350679E+03</pdfrwt>
<totfact> 0.16810328E+02</totfact>
</mgrwt>
</event>
<event>
 6    1  0.9205235E-004  0.4051516E+03  0.7818608E-02  0.1042010E+00
          2   -1    0    0  502    0  0.00000000000E+00  0.00000000000E+00  0.67031463810E+03  0.67031463810E+03  0.00000000000E+00 0.  1.
         -2   -1    0    0    0  501 -0.00000000000E+00 -0.00000000000E+00 -0.24809708913E+03  0.24809708913E+03  0.00000000000E+00 0. -1.
    9000007    2    1    2  502    0  0.56561777542E+02  0.43262085297E+01  0.26396127347E+03  0.48451888389E+03  0.40232455082E+03 0.  0.
    9000005    1    3    3    0    0 -0.11820375934E+02 -0.15858742035E+03 -0.90897061255E+01  0.15929003086E+03  0.99999687468E+00 0.  0.
          4    1    3    3  502    0  0.68382153477E+02  0.16291362888E+03  0.27305097960E+03  0.32522885303E+03  0.00000000000E+00 0.  1.
   -9000007    1    1    2    0  501 -0.56561777542E+02 -0.43262085297E+01  0.15825627550E+03  0.43389284333E+03  0.40000000000E+03 0. -1.
<mgrwt>
<rscale>  2 0.40515161E+03</rscale>
<asrwt>0</asrwt>
<pdfrwt beam="1">  1        2 0.10312533E+00 0.40515161E+03</pdfrwt>
<pdfrwt beam="2">  1       -2 0.38168783E-01 0.40515161E+03</pdfrwt>
<totfact> 0.28760418E+02</totfact>
</mgrwt>
</event>
<event>
 6    1  0.9205235E-004  0.4790738E+03  0.7818608E-02  0.1019390E+00
         -2   -1    0    0    0  501 -0.00000000000E+00  0.00000000000E+00  0.24647489494E+03  0.24647489494E+03  0.00000000000E+00 0. -1.
          2   -1    0    0  502    0  0.00000000000E+00 -0.00000000000E+00 -0.93304987636E+03  0.93304987636E+03  0.00000000000E+00 0.  1.
    9000007    2    1    2  502    0  0.25915743361E+03 -0.49104650398E+02 -0.31681698049E+03  0.57430181954E+03  0.39984464322E+03 0.  0.
    9000005    1    3    3    0    0  0.59123529371E+01  0.15226205578E+03 -0.71786834495E+02  0.16844298486E+03  0.99999687468E+00 0.  0.
          4    1    3    3  502    0  0.25324508068E+03 -0.20136670618E+03 -0.24503014599E+03  0.40585883468E+03  0.00000000000E+00 0.  1.
   -9000007    1    1    2    0  501 -0.25915743361E+03  0.49104650398E+02 -0.36975800093E+03  0.60522295176E+03  0.40000000000E+03 0.  1.
<mgrwt>
<rscale>  2 0.47907380E+03</rscale>
<asrwt>0</asrwt>
<pdfrwt beam="1">  1        2 0.14354614E+00 0.47907380E+03</pdfrwt>
<pdfrwt beam="2">  1       -2 0.37919214E-01 0.47907380E+03</pdfrwt>
<totfact> 0.18836537E+02</totfact>
</mgrwt>
</event>
<event>
 6    1  0.9205235E-004  0.4387314E+03  0.7818608E-02  0.1031137E+00
         -2   -1    0    0    0  501 -0.00000000000E+00  0.00000000000E+00  0.11821327715E+03  0.11821327715E+03  0.00000000000E+00 0. -1.
          2   -1    0    0  502    0  0.00000000000E+00 -0.00000000000E+00 -0.17270921715E+04  0.17270921715E+04  0.00000000000E+00 0.  1.
    9000007    2    1    2  502    0  0.78752686791E+02 -0.16180506252E+03 -0.58395878798E+03  0.73047627412E+03  0.40025598940E+03 0.  0.
    9000005    1    3    3    0    0  0.19223907273E+03 -0.21941838900E+03 -0.49714214088E+03  0.57641269829E+03  0.99999687468E+00 0.  0.
          4    1    3    3  502    0 -0.11348638594E+03  0.57613326482E+02 -0.86816647100E+02  0.15406357582E+03  0.00000000000E+00 0.  1.
   -9000007    1    1    2    0  501 -0.78752686791E+02  0.16180506252E+03 -0.10249201064E+04  0.11148291745E+04  0.40000000000E+03 0.  1.
<mgrwt>
<rscale>  2 0.43873143E+03</rscale>
<asrwt>0</asrwt>
<pdfrwt beam="1">  1        2 0.26570646E+00 0.43873143E+03</pdfrwt>
<pdfrwt beam="2">  1       -2 0.18186660E-01 0.43873143E+03</pdfrwt>
<totfact> 0.25045975E+02</totfact>
</mgrwt>
</event>
<event>
 6    1  0.9205235E-004  0.5327757E+03  0.7818608E-02  0.1005561E+00
          2   -1    0    0  502    0  0.00000000000E+00  0.00000000000E+00  0.18094897758E+03  0.18094897758E+03  0.00000000000E+00 0.  1.
         -2   -1    0    0    0  501 -0.00000000000E+00 -0.00000000000E+00 -0.15694301734E+04  0.15694301734E+04  0.00000000000E+00 0. -1.
    9000007    2    1    2  502    0  0.35154618904E+03 -0.18166799098E+02 -0.71337133466E+03  0.89032794306E+03  0.39983800402E+03 0.  0.
    9000005    1    3    3    0    0  0.39676796051E+03 -0.89836893636E+02 -0.41900041801E+03  0.58400156869E+03  0.99999687468E+00 0.  0.
          4    1    3    3  502    0 -0.45221771468E+02  0.71670094538E+02 -0.29437091665E+03  0.30632637437E+03  0.00000000000E+00 0.  1.
   -9000007    1    1    2    0  501 -0.35154618904E+03  0.18166799098E+02 -0.67510986115E+03  0.86005120791E+03  0.40000000000E+03 0. -1.
<mgrwt>
<rscale>  2 0.53277572E+03</rscale>
<asrwt>0</asrwt>
<pdfrwt beam="1">  1        2 0.27838305E-01 0.53277572E+03</pdfrwt>
<pdfrwt beam="2">  1       -2 0.24145079E+00 0.53277572E+03</pdfrwt>
<totfact> 0.14743345E+01</totfact>
</mgrwt>
</event>
<event>
 6    1  0.9205235E-004  0.5134438E+03  0.7818608E-02  0.1010328E+00
          2   -1    0    0  502    0  0.00000000000E+00  0.00000000000E+00  0.74115918109E+03  0.74115918109E+03  0.00000000000E+00 0. -1.
         -2   -1    0    0    0  501 -0.00000000000E+00 -0.00000000000E+00 -0.51198693166E+03  0.51198693166E+03  0.00000000000E+00 0.  1.
    9000007    2    1    2  502    0  0.27254132696E+03  0.17154926447E+03 -0.23161641233E+03  0.56319385654E+03  0.39979148633E+03 0.  0.
    9000005    1    3    3    0    0  0.16161480416E+03 -0.11919044997E+03 -0.70932282719E+02  0.21297440460E+03  0.99999687468E+00 0.  0.
          4    1    3    3  502    0  0.11092652280E+03  0.29073971444E+03 -0.16068412961E+03  0.35021945194E+03  0.00000000000E+00 0.  1.
   -9000007    1    1    2    0  501 -0.27254132696E+03 -0.17154926447E+03  0.46078866176E+03  0.68995225621E+03  0.40000000000E+03 0. -1.
<mgrwt>
<rscale>  2 0.51344379E+03</rscale>
<asrwt>0</asrwt>
<pdfrwt beam="1">  1        2 0.11402449E+00 0.51344379E+03</pdfrwt>
<pdfrwt beam="2">  1       -2 0.78767220E-01 0.51344379E+03</pdfrwt>
<totfact> 0.56405041E+01</totfact>
</mgrwt>
</event>
<event>
 6    1  0.9205235E-004  0.4117650E+03  0.7818608E-02  0.1039780E+00
         -2   -1    0    0    0  501 -0.00000000000E+00  0.00000000000E+00  0.32413661920E+03  0.32413661920E+03  0.00000000000E+00 0.  1.
          2   -1    0    0  502    0  0.00000000000E+00 -0.00000000000E+00 -0.52398217736E+03  0.52398217736E+03  0.00000000000E+00 0. -1.
    9000007    2    1    2  502    0  0.14357627518E+02  0.96636356817E+02 -0.82359236314E+02  0.41992752767E+03  0.40001419695E+03 0.  0.
    9000005    1    3    3    0    0  0.14053503459E+03 -0.95302019791E+02  0.14963445601E+02  0.17046253437E+03  0.99999687468E+00 0.  0.
          4    1    3    3  502    0 -0.12617740708E+03  0.19193837661E+03 -0.97322681915E+02  0.24946499331E+03  0.00000000000E+00 0.  1.
   -9000007    1    1    2    0  501 -0.14357627518E+02 -0.96636356817E+02 -0.11748632185E+03  0.42819126888E+03  0.40000000000E+03 0.  1.
<mgrwt>
<rscale>  2 0.41176499E+03</rscale>
<asrwt>0</asrwt>
<pdfrwt beam="1">  1        2 0.80612642E-01 0.41176499E+03</pdfrwt>
<pdfrwt beam="2">  1       -2 0.49867173E-01 0.41176499E+03</pdfrwt>
<totfact> 0.22755720E+02</totfact>
</mgrwt>
</event>
<event>
 6    1  0.9205235E-004  0.6629438E+03  0.7818608E-02  0.9782790E-01
          1   -1    0    0  502    0  0.00000000000E+00  0.00000000000E+00  0.96879345683E+03  0.96879345683E+03  0.00000000000E+00 0.  1.
         -1   -1    0    0    0  501 -0.00000000000E+00 -0.00000000000E+00 -0.46661512581E+03  0.46661512581E+03  0.00000000000E+00 0. -1.
    9000007    2    1    2  502    0  0.10865231500E+03  0.51828109351E+03  0.37045760287E+03  0.75882084431E+03  0.39768029972E+03 0.  0.
    9000005    1    3    3    0    0 -0.55527147850E+02  0.44863178134E+03  0.36395494769E+03  0.58036018412E+03  0.99999687468E+00 0.  0.
          4    1    3    3  502    0  0.16417946285E+03  0.69649312169E+02  0.65026551857E+01  0.17846066018E+03  0.00000000000E+00 0.  1.
   -9000007    1    1    2    0  501 -0.10865231500E+03 -0.51828109351E+03  0.13172072814E+03  0.67658773834E+03  0.40000000000E+03 0. -1.
<mgrwt>
<rscale>  2 0.66294378E+03</rscale>
<asrwt>0</asrwt>
<pdfrwt beam="1">  1        1 0.14904515E+00 0.66294378E+03</pdfrwt>
<pdfrwt beam="2">  1       -1 0.71786943E-01 0.66294378E+03</pdfrwt>
<totfact> 0.32515898E+01</totfact>
</mgrwt>
</event>
<event>
 6    1  0.9205235E-004  0.4680583E+03  0.7818608E-02  0.1022470E+00
          1   -1    0    0  502    0  0.00000000000E+00  0.00000000000E+00  0.10540482472E+04  0.10540482472E+04  0.00000000000E+00 0.  1.
         -1   -1    0    0    0  501 -0.00000000000E+00 -0.00000000000E+00 -0.23622485268E+03  0.23622485268E+03  0.00000000000E+00 0. -1.
    9000007    2    1    2  502    0 -0.19178596561E+03  0.14951606587E+03  0.63247540074E+03  0.78679441180E+03  0.39985422761E+03 0.  0.
    9000005    1    3    3    0    0 -0.29130882077E+03  0.50834708570E+01  0.42210938727E+03  0.51289765602E+03  0.99999687468E+00 0.  0.
          4    1    3    3  502    0  0.99522855161E+02  0.14443259501E+03  0.21036601347E+03  0.27389675578E+03  0.00000000000E+00 0.  1.
   -9000007    1    1    2    0  501  0.19178596561E+03 -0.14951606587E+03  0.18534799378E+03  0.50347868809E+03  0.40000000000E+03 0. -1.
<mgrwt>
<rscale>  2 0.46805833E+03</rscale>
<asrwt>0</asrwt>
<pdfrwt beam="1">  1        1 0.16216127E+00 0.46805833E+03</pdfrwt>
<pdfrwt beam="2">  1       -1 0.36342286E-01 0.46805833E+03</pdfrwt>
<totfact> 0.10452201E+02</totfact>
</mgrwt>
</event>
<event>
 6    1  0.9205235E-004  0.5173241E+03  0.7818608E-02  0.1009353E+00
         -1   -1    0    0    0  501 -0.00000000000E+00  0.00000000000E+00  0.27366764463E+03  0.27366764463E+03  0.00000000000E+00 0.  1.
          1   -1    0    0  502    0  0.00000000000E+00 -0.00000000000E+00 -0.11944618537E+04  0.11944618537E+04  0.00000000000E+00 0. -1.
    9000007    2    1    2  502    0  0.29233728844E+03  0.14948445734E+03 -0.77282043628E+03  0.92988891028E+03  0.39954382179E+03 0.  0.
    9000005    1    3    3    0    0  0.14558794470E+03  0.11547575981E+03 -0.75577989461E+03  0.77828963107E+03  0.99999687468E+00 0.  0.
          4    1    3    3  502    0  0.14674934374E+03  0.34008697529E+02 -0.17040541672E+02  0.15159927921E+03  0.00000000000E+00 0.  1.
   -9000007    1    1    2    0  501 -0.29233728844E+03 -0.14948445734E+03 -0.14797377280E+03  0.53824058806E+03  0.40000000000E+03 0.  1.
<mgrwt>
<rscale>  2 0.51732414E+03</rscale>
<asrwt>0</asrwt>
<pdfrwt beam="1">  1        1 0.18376336E+00 0.51732414E+03</pdfrwt>
<pdfrwt beam="2">  1       -1 0.42102714E-01 0.51732414E+03</pdfrwt>
<totfact> 0.62906293E+01</totfact>
</mgrwt>
</event>
<event>
 6    1  0.9205235E-004  0.4469211E+03  0.7818608E-02  0.1028644E+00
         -2   -1    0    0    0  501 -0.00000000000E+00  0.00000000000E+00  0.49327673885E+02  0.49327673885E+02  0.00000000000E+00 0.  1.
          2   -1    0    0  502    0  0.00000000000E+00 -0.00000000000E+00 -0.40498368587E+04  0.40498368587E+04  0.00000000000E+00 0. -1.
    9000007    2    1    2  502    0  0.88681847076E+02 -0.17944951277E+03 -0.19733157309E+04  0.20232117640E+04  0.39917949685E+03 0.  0.
    9000005    1    3    3    0    0  0.10057189677E+02 -0.16306072995E+03 -0.19197136466E+04  0.19266529095E+04  0.99999687468E+00 0.  0.
          4    1    3    3  502    0  0.78624657399E+02 -0.16388782817E+02 -0.53602084332E+02  0.96558854582E+02  0.00000000000E+00 0.  1.
   -9000007    1    1    2    0  501 -0.88681847076E+02  0.17944951277E+03 -0.20271934539E+04  0.20759527686E+04  0.40000000000E+03 0. -1.
<mgrwt>
<rscale>  2 0.44692109E+03</rscale>
<asrwt>0</asrwt>
<pdfrwt beam="1">  1        2 0.62305165E+00 0.44692109E+03</pdfrwt>
<pdfrwt beam="2">  1       -2 0.75888750E-02 0.44692109E+03</pdfrwt>
<totfact> 0.39395306E+01</totfact>
</mgrwt>
</event>
<event>
 6    1  0.9205235E-004  0.4527860E+03  0.7818608E-02  0.1026894E+00
         -1   -1    0    0    0  501 -0.00000000000E+00  0.00000000000E+00  0.16575901862E+03  0.16575901862E+03  0.00000000000E+00 0.  1.
          1   -1    0    0  502    0  0.00000000000E+00 -0.00000000000E+00 -0.13823135734E+04  0.13823135734E+04  0.00000000000E+00 0. -1.
    9000007    2    1    2  502    0 -0.39184834294E+02 -0.20931011436E+03 -0.35672556185E+03  0.57614045843E+03  0.39917230134E+03 0.  0.
    9000005    1    3    3    0    0  0.85216829150E+02  0.81044413858E+02 -0.17758750608E+03  0.21299865563E+03  0.99999687468E+00 0.  0.
          4    1    3    3  502    0 -0.12440166344E+03 -0.29035452822E+03 -0.17913805576E+03  0.36314180281E+03  0.00000000000E+00 0.  1.
   -9000007    1    1    2    0  501  0.39184834294E+02  0.20931011436E+03 -0.85982899297E+03  0.97193213362E+03  0.40000000000E+03 0. -1.
<mgrwt>
<rscale>  2 0.45278601E+03</rscale>
<asrwt>0</asrwt>
<pdfrwt beam="1">  1        1 0.21266362E+00 0.45278601E+03</pdfrwt>
<pdfrwt beam="2">  1       -1 0.25501388E-01 0.45278601E+03</pdfrwt>
<totfact> 0.11288596E+02</totfact>
</mgrwt>
</event>
<event>
 6    1  0.9205235E-004  0.4362532E+03  0.7818608E-02  0.1031903E+00
         -2   -1    0    0    0  501 -0.00000000000E+00  0.00000000000E+00  0.62507316151E+03  0.62507316151E+03  0.00000000000E+00 0.  1.
          2   -1    0    0  502    0  0.00000000000E+00 -0.00000000000E+00 -0.30924270354E+03  0.30924270354E+03  0.00000000000E+00 0. -1.
    9000007    2    1    2  502    0 -0.85552872734E+01 -0.17494783643E+03  0.21579305581E+03  0.48633436963E+03  0.39909214191E+03 0.  0.
    9000005    1    3    3    0    0 -0.34006482178E+02  0.19199652884E+02 -0.10414608790E+03  0.11123162823E+03  0.99999687468E+00 0.  0.
          4    1    3    3  502    0  0.25451194905E+02 -0.19414748932E+03  0.31993914371E+03  0.37510274140E+03  0.00000000000E+00 0.  1.
   -9000007    1    1    2    0  501  0.85552872734E+01  0.17494783643E+03  0.10003740216E+03  0.44798149543E+03  0.40000000000E+03 0. -1.
<mgrwt>
<rscale>  2 0.43625321E+03</rscale>
<asrwt>0</asrwt>
<pdfrwt beam="1">  1        2 0.47575801E-01 0.43625321E+03</pdfrwt>
<pdfrwt beam="2">  1       -2 0.96165101E-01 0.43625321E+03</pdfrwt>
<totfact> 0.98814943E+01</totfact>
</mgrwt>
</event>
<event>
 6    1  0.9205235E-004  0.5685001E+03  0.7818608E-02  0.9973003E-01
         -2   -1    0    0    0  501 -0.00000000000E+00  0.00000000000E+00  0.55282073911E+03  0.55282073911E+03  0.00000000000E+00 0.  1.
          2   -1    0    0  502    0  0.00000000000E+00 -0.00000000000E+00 -0.96191826735E+03  0.96191826735E+03  0.00000000000E+00 0. -1.
    9000007    2    1    2  502    0 -0.60684969011E+02  0.40000319455E+03  0.26987367518E+03  0.62891333728E+03  0.39876680420E+03 0.  0.
    9000005    1    3    3    0    0  0.97570249582E+02  0.15977812738E+03 -0.54858891232E+02  0.19508844541E+03  0.99999687468E+00 0.  0.
          4    1    3    3  502    0 -0.15825521859E+03  0.24022506717E+03  0.32473256642E+03  0.43382489186E+03  0.00000000000E+00 0.  1.
   -9000007    1    1    2    0  501  0.60684969011E+02 -0.40000319455E+03 -0.67897120343E+03  0.88582566919E+03  0.40000000000E+03 0. -1.
<mgrwt>
<rscale>  2 0.56850007E+03</rscale>
<asrwt>0</asrwt>
<pdfrwt beam="1">  1        2 0.14798742E+00 0.56850007E+03</pdfrwt>
<pdfrwt beam="2">  1       -2 0.85049345E-01 0.56850007E+03</pdfrwt>
<totfact> 0.33228232E+01</totfact>
</mgrwt>
</event>
<event>
 6    1  0.9205235E-004  0.6305574E+03  0.7818608E-02  0.9843962E-01
         -1   -1    0    0    0  501 -0.00000000000E+00  0.00000000000E+00  0.44368846735E+03  0.44368846735E+03  0.00000000000E+00 0. -1.
          1   -1    0    0  502    0  0.00000000000E+00 -0.00000000000E+00 -0.11633482305E+04  0.11633482305E+04  0.00000000000E+00 0.  1.
    9000007    2    1    2  502    0  0.24803468451E+03  0.41981158091E+03 -0.74487428675E+03  0.97584834211E+03  0.39959894340E+03 0.  0.
    9000005    1    3    3    0    0  0.31564915321E+03  0.26800008329E+03 -0.33185473187E+03  0.53064771330E+03  0.99999687468E+00 0.  0.
          4    1    3    3  502    0 -0.67614468709E+02  0.15181149762E+03 -0.41301955487E+03  0.44520062881E+03  0.00000000000E+00 0.  1.
   -9000007    1    1    2    0  501 -0.24803468451E+03 -0.41981158091E+03  0.25214523615E+02  0.63118835571E+03  0.40000000000E+03 0. -1.
<mgrwt>
<rscale>  2 0.63055737E+03</rscale>
<asrwt>0</asrwt>
<pdfrwt beam="1">  1        1 0.17897665E+00 0.63055737E+03</pdfrwt>
<pdfrwt beam="2">  1       -1 0.68259766E-01 0.63055737E+03</pdfrwt>
<totfact> 0.25827550E+01</totfact>
</mgrwt>
</event>
<event>
 6    1  0.9205235E-004  0.4652504E+03  0.7818608E-02  0.1023269E+00
          2   -1    0    0  502    0  0.00000000000E+00  0.00000000000E+00  0.26170191498E+04  0.26170191498E+04  0.00000000000E+00 0. -1.
         -2   -1    0    0    0  501 -0.00000000000E+00 -0.00000000000E+00 -0.83323128113E+02  0.83323128113E+02  0.00000000000E+00 0.  1.
    9000007    2    1    2  502    0  0.58404221118E+02 -0.23082116625E+03  0.11505136402E+04  0.12409304223E+04  0.39942109718E+03 0.  0.
    9000005    1    3    3    0    0  0.63631591687E+02  0.10336118215E+03  0.20692827980E+03  0.23990170156E+03  0.99999687468E+00 0.  0.
          4    1    3    3  502    0 -0.52273705686E+01 -0.33418234840E+03  0.94358536039E+03  0.10010287207E+04  0.00000000000E+00 0.  1.
   -9000007    1    1    2    0  501 -0.58404221118E+02  0.23082116625E+03  0.13831823815E+04  0.14594118556E+04  0.40000000000E+03 0. -1.
<mgrwt>
<rscale>  2 0.46525041E+03</rscale>
<asrwt>0</asrwt>
<pdfrwt beam="1">  1        2 0.40261827E+00 0.46525041E+03</pdfrwt>
<pdfrwt beam="2">  1       -2 0.12818945E-01 0.46525041E+03</pdfrwt>
<totfact> 0.14707832E+02</totfact>
</mgrwt>
</event>
<event>
 6    1  0.9205235E-004  0.6201811E+03  0.7818608E-02  0.9864399E-01
          2   -1    0    0  502    0  0.00000000000E+00  0.00000000000E+00  0.84350478548E+03  0.84350478548E+03  0.00000000000E+00 0. -1.
         -2   -1    0    0    0  501 -0.00000000000E+00 -0.00000000000E+00 -0.45625379511E+03  0.45625379511E+03  0.00000000000E+00 0.  1.
    9000007    2    1    2  502    0  0.34947087264E+03  0.32029867903E+03  0.17779618554E+03  0.64508885480E+03  0.39975869268E+03 0.  0.
    9000005    1    3    3    0    0  0.20614344599E+03  0.18455820862E+02  0.22717177308E+03  0.30731702219E+03  0.99999687468E+00 0.  0.
          4    1    3    3  502    0  0.14332742665E+03  0.30184285817E+03 -0.49375587538E+02  0.33777183261E+03  0.00000000000E+00 0.  1.
   -9000007    1    1    2    0  501 -0.34947087264E+03 -0.32029867903E+03  0.20945480483E+03  0.65466972580E+03  0.40000000000E+03 0. -1.
<mgrwt>
<rscale>  2 0.62018113E+03</rscale>
<asrwt>0</asrwt>
<pdfrwt beam="1">  1        2 0.12976997E+00 0.62018113E+03</pdfrwt>
<pdfrwt beam="2">  1       -2 0.70192892E-01 0.62018113E+03</pdfrwt>
<totfact> 0.60742897E+01</totfact>
</mgrwt>
</event>
<event>
 6    1  0.9205235E-004  0.7855585E+03  0.7818608E-02  0.9581159E-01
         -2   -1    0    0    0  501 -0.00000000000E+00  0.00000000000E+00  0.35572928035E+03  0.35572928035E+03  0.00000000000E+00 0. -1.
          2   -1    0    0  502    0  0.00000000000E+00 -0.00000000000E+00 -0.20861704080E+04  0.20861704080E+04  0.00000000000E+00 0.  1.
    9000007    2    1    2  502    0 -0.29100587146E+03  0.61123573877E+03 -0.36341592337E+03  0.86486086363E+03  0.39701339336E+03 0.  0.
    9000005    1    3    3    0    0 -0.13407647195E+03  0.60322299074E+03 -0.34200806922E+03  0.70627543940E+03  0.99999687468E+00 0.  0.
          4    1    3    3  502    0 -0.15692939950E+03  0.80127480306E+01 -0.21407854150E+02  0.15858542423E+03  0.00000000000E+00 0.  1.
   -9000007    1    1    2    0  501  0.29100587146E+03 -0.61123573877E+03 -0.13670252043E+04  0.15770388247E+04  0.40000000000E+03 0.  1.
<mgrwt>
<rscale>  2 0.78555854E+03</rscale>
<asrwt>0</asrwt>
<pdfrwt beam="1">  1        2 0.32094929E+00 0.78555854E+03</pdfrwt>
<pdfrwt beam="2">  1       -2 0.54727582E-01 0.78555854E+03</pdfrwt>
<totfact> 0.19371054E+01</totfact>
</mgrwt>
</event>
<event>
 6    1  0.9205235E-004  0.4661974E+03  0.7818608E-02  0.1022999E+00
         -4   -1    0    0    0  501 -0.00000000000E+00  0.00000000000E+00  0.26242689598E+04  0.26242689598E+04  0.00000000000E+00 0.  1.
          4   -1    0    0  502    0  0.00000000000E+00 -0.00000000000E+00 -0.96625953714E+02  0.96625953714E+02  0.00000000000E+00 0. -1.
    9000007    2    1    2  502    0 -0.14178258377E+03 -0.19330077241E+03  0.17777601696E+04  0.18378367285E+04  0.39968128591E+03 0.  0.
    9000005    1    3    3    0    0 -0.94669572632E+02 -0.22879149332E+02  0.67599667683E+02  0.11856010510E+03  0.99999687468E+00 0.  0.
          4    1    3    3  502    0 -0.47113011141E+02 -0.17042162307E+03  0.17101605019E+04  0.17192766234E+04  0.00000000000E+00 0.  1.
   -9000007    1    1    2    0  501  0.14178258377E+03  0.19330077241E+03  0.74988283647E+03  0.88305818501E+03  0.40000000000E+03 0. -1.
<mgrwt>
<rscale>  2 0.46619740E+03</rscale>
<asrwt>0</asrwt>
<pdfrwt beam="1">  1        4 0.14865533E-01 0.46619740E+03</pdfrwt>
<pdfrwt beam="2">  1       -4 0.40373363E+00 0.46619740E+03</pdfrwt>
<totfact> 0.54903121E-01</totfact>
</mgrwt>
</event>
<event>
 6    1  0.9205235E-004  0.8290663E+03  0.7818608E-02  0.9518872E-01
          2   -1    0    0  502    0  0.00000000000E+00  0.00000000000E+00  0.18359987738E+04  0.18359987738E+04  0.00000000000E+00 0. -1.
         -2   -1    0    0    0  501 -0.00000000000E+00 -0.00000000000E+00 -0.41701371518E+03  0.41701371518E+03  0.00000000000E+00 0.  1.
    9000007    2    1    2  502    0  0.61841047219E+02 -0.72358601538E+03  0.10696857705E+04  0.13533397543E+04  0.39987473817E+03 0.  0.
    9000005    1    3    3    0    0 -0.73985063349E+01 -0.62347492789E+02  0.41685306978E+03  0.42155596252E+03  0.99999687468E+00 0.  0.
          4    1    3    3  502    0  0.69239553554E+02 -0.66123852260E+03  0.65283270072E+03  0.93178379181E+03  0.00000000000E+00 0.  1.
   -9000007    1    1    2    0  501 -0.61841047219E+02  0.72358601538E+03  0.34929928810E+03  0.89967273464E+03  0.40000000000E+03 0. -1.
<mgrwt>
<rscale>  2 0.82906630E+03</rscale>
<asrwt>0</asrwt>
<pdfrwt beam="1">  1        2 0.28246135E+00 0.82906630E+03</pdfrwt>
<pdfrwt beam="2">  1       -2 0.64155957E-01 0.82906630E+03</pdfrwt>
<totfact> 0.18878896E+01</totfact>
</mgrwt>
</event>
<event>
 6    1  0.9205235E-004  0.4479717E+03  0.7818608E-02  0.1028329E+00
         -3   -1    0    0    0  501 -0.00000000000E+00  0.00000000000E+00  0.56385401956E+03  0.56385401956E+03  0.00000000000E+00 0.  1.
          3   -1    0    0  502    0  0.00000000000E+00 -0.00000000000E+00 -0.38562520289E+03  0.38562520289E+03  0.00000000000E+00 0. -1.
    9000007    2    1    2  502    0 -0.17004293137E+03  0.10592158003E+03 -0.42566437615E+02  0.45059594558E+03  0.40136121504E+03 0.  0.
    9000005    1    3    3    0    0 -0.27016792978E+03  0.17089372469E+03  0.10769311711E+02  0.31986302301E+03  0.99999687468E+00 0.  0.
          4    1    3    3  502    0  0.10012499841E+03 -0.64972144663E+02 -0.53335749326E+02  0.13073292257E+03  0.00000000000E+00 0.  1.
   -9000007    1    1    2    0  501  0.17004293137E+03 -0.10592158003E+03  0.22079525428E+03  0.49888327687E+03  0.40000000000E+03 0. -1.
<mgrwt>
<rscale>  2 0.44797171E+03</rscale>
<asrwt>0</asrwt>
<pdfrwt beam="1">  1        3 0.59326954E-01 0.44797171E+03</pdfrwt>
<pdfrwt beam="2">  1       -3 0.86746773E-01 0.44797171E+03</pdfrwt>
<totfact> 0.87828656E+00</totfact>
</mgrwt>
</event>
<event>
 6    1  0.9205235E-004  0.4335377E+03  0.7818608E-02  0.1032748E+00
          2   -1    0    0  502    0  0.00000000000E+00  0.00000000000E+00  0.49626277249E+03  0.49626277249E+03  0.00000000000E+00 0.  1.
         -2   -1    0    0    0  501 -0.00000000000E+00 -0.00000000000E+00 -0.39610784728E+03  0.39610784728E+03  0.00000000000E+00 0. -1.
    9000007    2    1    2  502    0  0.49818950579E+02  0.16133153095E+03 -0.43417932508E+02  0.43507098475E+03  0.39861241099E+03 0.  0.
    9000005    1    3    3    0    0  0.67924896809E+02  0.27461059045E+03 -0.10873054705E+03  0.30306451434E+03  0.99999687468E+00 0.  0.
          4    1    3    3  502    0 -0.18105946230E+02 -0.11327905951E+03  0.65312614546E+02  0.13200647041E+03  0.00000000000E+00 0.  1.
   -9000007    1    1    2    0  501 -0.49818950579E+02 -0.16133153095E+03  0.14357285773E+03  0.45729963502E+03  0.40000000000E+03 0.  1.
<mgrwt>
<rscale>  2 0.43353766E+03</rscale>
<asrwt>0</asrwt>
<pdfrwt beam="1">  1        2 0.76348119E-01 0.43353766E+03</pdfrwt>
<pdfrwt beam="2">  1       -2 0.60939669E-01 0.43353766E+03</pdfrwt>
<totfact> 0.16005398E+02</totfact>
</mgrwt>
</event>
<event>
 6    1  0.9205235E-004  0.4136391E+03  0.7818608E-02  0.1039157E+00
          2   -1    0    0  502    0  0.00000000000E+00  0.00000000000E+00  0.15827080947E+04  0.15827080947E+04  0.00000000000E+00 0.  1.
         -2   -1    0    0    0  501 -0.00000000000E+00 -0.00000000000E+00 -0.12563550310E+03  0.12563550310E+03  0.00000000000E+00 0. -1.
    9000007    2    1    2  502    0 -0.37523136723E+02 -0.94646834643E+02  0.10489516236E+04  0.11278879719E+04  0.40182802223E+03 0.  0.
    9000005    1    3    3    0    0  0.16726587175E+03  0.36350795115E+02  0.45281239120E+03  0.48408606030E+03  0.99999687468E+00 0.  0.
          4    1    3    3  502    0 -0.20478900848E+03 -0.13099762976E+03  0.59613923240E+03  0.64380191162E+03  0.00000000000E+00 0.  1.
   -9000007    1    1    2    0  501  0.37523136723E+02  0.94646834643E+02  0.40812096798E+03  0.58045562587E+03  0.40000000000E+03 0. -1.
<mgrwt>
<rscale>  2 0.41363912E+03</rscale>
<asrwt>0</asrwt>
<pdfrwt beam="1">  1        2 0.24349354E+00 0.41363912E+03</pdfrwt>
<pdfrwt beam="2">  1       -2 0.19328540E-01 0.41363912E+03</pdfrwt>
<totfact> 0.27063831E+02</totfact>
</mgrwt>
</event>
<event>
 6    1  0.9205235E-004  0.4040581E+03  0.7818608E-02  0.1042383E+00
         -2   -1    0    0    0  501 -0.00000000000E+00  0.00000000000E+00  0.41533194912E+03  0.41533194912E+03  0.00000000000E+00 0.  1.
          2   -1    0    0  502    0  0.00000000000E+00 -0.00000000000E+00 -0.42015908925E+03  0.42015908925E+03  0.00000000000E+00 0. -1.
    9000007    2    1    2  502    0 -0.55739842124E+01  0.63357398003E+02 -0.10843611487E+03  0.41742399969E+03  0.39804418766E+03 0.  0.
    9000005    1    3    3    0    0  0.17305801248E+03  0.76187183149E+02 -0.14038453830E+03  0.23550452468E+03  0.99999687468E+00 0.  0.
          4    1    3    3  502    0 -0.17863199669E+03 -0.12829785146E+02  0.31948423435E+02  0.18191947501E+03  0.00000000000E+00 0.  1.
   -9000007    1    1    2    0  501  0.55739842124E+01 -0.63357398003E+02  0.10360897474E+03  0.41806703868E+03  0.40000000000E+03 0.  1.
<mgrwt>
<rscale>  2 0.40405810E+03</rscale>
<asrwt>0</asrwt>
<pdfrwt beam="1">  1        2 0.64639860E-01 0.40405810E+03</pdfrwt>
<pdfrwt beam="2">  1       -2 0.63897223E-01 0.40405810E+03</pdfrwt>
<totfact> 0.17502684E+02</totfact>
</mgrwt>
</event>
<event>
 6    1  0.9205235E-004  0.5424190E+03  0.7818608E-02  0.1003264E+00
         -2   -1    0    0    0  501 -0.00000000000E+00  0.00000000000E+00  0.70574208133E+03  0.70574208133E+03  0.00000000000E+00 0. -1.
          2   -1    0    0  502    0  0.00000000000E+00 -0.00000000000E+00 -0.46503145051E+03  0.46503145051E+03  0.00000000000E+00 0.  1.
    9000007    2    1    2  502    0  0.29537565090E+03 -0.21726537295E+03  0.30865649403E+03  0.62390274477E+03  0.39941805943E+03 0.  0.
    9000005    1    3    3    0    0  0.25742427721E+03  0.54647061718E+02  0.19118552105E+03  0.32527905451E+03  0.99999687468E+00 0.  0.
          4    1    3    3  502    0  0.37951373694E+02 -0.27191243467E+03  0.11747097297E+03  0.29862369026E+03  0.00000000000E+00 0.  1.
   -9000007    1    1    2    0  501 -0.29537565090E+03  0.21726537295E+03 -0.67945863211E+02  0.54687078707E+03  0.40000000000E+03 0.  1.
<mgrwt>
<rscale>  2 0.54241895E+03</rscale>
<asrwt>0</asrwt>
<pdfrwt beam="1">  1        2 0.71543300E-01 0.54241895E+03</pdfrwt>
<pdfrwt beam="2">  1       -2 0.10857570E+00 0.54241895E+03</pdfrwt>
<totfact> 0.46691069E+01</totfact>
</mgrwt>
</event>
<event>
 6    1  0.9205235E-004  0.5838647E+03  0.7818608E-02  0.9939459E-01
         -1   -1    0    0    0  501 -0.00000000000E+00  0.00000000000E+00  0.28425513330E+03  0.28425513330E+03  0.00000000000E+00 0.  1.
          1   -1    0    0  502    0  0.00000000000E+00 -0.00000000000E+00 -0.11996263936E+04  0.11996263936E+04  0.00000000000E+00 0. -1.
    9000007    2    1    2  502    0  0.41764710101E+03 -0.79486620811E+02 -0.47061923058E+03  0.75002078274E+03  0.40037668573E+03 0.  0.
    9000005    1    3    3    0    0  0.11887119172E+03 -0.10456656158E+03 -0.41620016812E+03  0.44529552655E+03  0.99999687468E+00 0.  0.
          4    1    3    3  502    0  0.29877590929E+03  0.25079940771E+02 -0.54419062458E+02  0.30472525619E+03  0.00000000000E+00 0.  1.
   -9000007    1    1    2    0  501 -0.41764710101E+03  0.79486620811E+02 -0.44475202970E+03  0.73386074415E+03  0.40000000000E+03 0.  1.
<mgrwt>
<rscale>  2 0.58386466E+03</rscale>
<asrwt>0</asrwt>
<pdfrwt beam="1">  1        1 0.18455791E+00 0.58386466E+03</pdfrwt>
<pdfrwt beam="2">  1       -1 0.43731558E-01 0.58386466E+03</pdfrwt>
<totfact> 0.57663637E+01</totfact>
</mgrwt>
</event>
<event>
 6    1  0.9205235E-004  0.5609108E+03  0.7818608E-02  0.9989996E-01
         -2   -1    0    0    0  501 -0.00000000000E+00  0.00000000000E+00  0.88656048268E+03  0.88656048268E+03  0.00000000000E+00 0. -1.
          2   -1    0    0  502    0  0.00000000000E+00 -0.00000000000E+00 -0.51467256804E+03  0.51467256804E+03  0.00000000000E+00 0.  1.
    9000007    2    1    2  502    0 -0.15052549714E+03 -0.36266697060E+03 -0.20435425850E+03  0.59734232497E+03  0.40108843586E+03 0.  0.
    9000005    1    3    3    0    0 -0.18695277765E+03  0.22004689883E+01 -0.23353606728E+02  0.18842126758E+03  0.99999687468E+00 0.  0.
          4    1    3    3  502    0  0.36427280514E+02 -0.36486743959E+03 -0.18100065177E+03  0.40892105739E+03  0.00000000000E+00 0.  1.
   -9000007    1    1    2    0  501  0.15052549714E+03  0.36266697060E+03  0.57624217314E+03  0.80389072575E+03  0.40000000000E+03 0. -1.
<mgrwt>
<rscale>  2 0.56091080E+03</rscale>
<asrwt>0</asrwt>
<pdfrwt beam="1">  1        2 0.79180395E-01 0.56091080E+03</pdfrwt>
<pdfrwt beam="2">  1       -2 0.13639392E+00 0.56091080E+03</pdfrwt>
<totfact> 0.23598975E+01</totfact>
</mgrwt>
</event>
<event>
 6    1  0.9205235E-004  0.5547156E+03  0.7818608E-02  0.1000408E+00
          2   -1    0    0  502    0  0.00000000000E+00  0.00000000000E+00  0.48735323885E+03  0.48735323885E+03  0.00000000000E+00 0. -1.
         -2   -1    0    0    0  501 -0.00000000000E+00 -0.00000000000E+00 -0.84016146138E+03  0.84016146138E+03  0.00000000000E+00 0.  1.
    9000007    2    1    2  502    0  0.14258999374E+03  0.35652824908E+03  0.15441421778E+03  0.57603688774E+03  0.40066250970E+03 0.  0.
    9000005    1    3    3    0    0  0.14995947109E+03  0.44303585396E+03  0.12215414020E+03  0.48341622318E+03  0.99999687468E+00 0.  0.
          4    1    3    3  502    0 -0.73694773512E+01 -0.86507604885E+02  0.32260077581E+02  0.92620664568E+02  0.00000000000E+00 0.  1.
   -9000007    1    1    2    0  501 -0.14258999374E+03 -0.35652824908E+03 -0.50722244030E+03  0.75147781248E+03  0.40000000000E+03 0.  1.
<mgrwt>
<rscale>  2 0.55471561E+03</rscale>
<asrwt>0</asrwt>
<pdfrwt beam="1">  1        2 0.74977422E-01 0.55471561E+03</pdfrwt>
<pdfrwt beam="2">  1       -2 0.12925561E+00 0.55471561E+03</pdfrwt>
<totfact> 0.28807466E+01</totfact>
</mgrwt>
</event>
<event>
 6    1  0.9205235E-004  0.4850962E+03  0.7818608E-02  0.1017744E+00
          1   -1    0    0  502    0  0.00000000000E+00  0.00000000000E+00  0.14219640225E+04  0.14219640225E+04  0.00000000000E+00 0.  1.
         -1   -1    0    0    0  501 -0.00000000000E+00 -0.00000000000E+00 -0.18999681927E+03  0.18999681927E+03  0.00000000000E+00 0. -1.
    9000007    2    1    2  502    0  0.30248460823E+01  0.27436287429E+03  0.32654780965E+03  0.58479560933E+03  0.40008536116E+03 0.  0.
    9000005    1    3    3    0    0  0.14803115640E+03  0.30273493665E+03  0.21618925943E+03  0.40037540012E+03  0.99999687468E+00 0.  0.
          4    1    3    3  502    0 -0.14500631032E+03 -0.28372062366E+02  0.11035855022E+03  0.18442020920E+03  0.00000000000E+00 0.  1.
   -9000007    1    1    2    0  501 -0.30248460823E+01 -0.27436287429E+03  0.90541939357E+03  0.10271652324E+04  0.40000000000E+03 0.  1.
<mgrwt>
<rscale>  2 0.48509616E+03</rscale>
<asrwt>0</asrwt>
<pdfrwt beam="1">  1        1 0.21876369E+00 0.48509616E+03</pdfrwt>
<pdfrwt beam="2">  1       -1 0.29230281E-01 0.48509616E+03</pdfrwt>
<totfact> 0.83606618E+01</totfact>
</mgrwt>
</event>
<event>
 6    1  0.9205235E-004  0.4236147E+03  0.7818608E-02  0.1035896E+00
          2   -1    0    0  502    0  0.00000000000E+00  0.00000000000E+00  0.70978955940E+03  0.70978955940E+03  0.00000000000E+00 0. -1.
         -2   -1    0    0    0  501 -0.00000000000E+00 -0.00000000000E+00 -0.25678963311E+03  0.25678963311E+03  0.00000000000E+00 0.  1.
    9000007    2    1    2  502    0  0.13847949492E+03 -0.11116311919E+02  0.28667712384E+03  0.51164687060E+03  0.40037308097E+03 0.  0.
    9000005    1    3    3    0    0  0.11171741202E+03  0.18376458151E+03  0.88929306432E+02  0.23272220157E+03  0.99999687468E+00 0.  0.
          4    1    3    3  502    0  0.26762082893E+02 -0.19488089343E+03  0.19774781741E+03  0.27892466903E+03  0.00000000000E+00 0.  1.
   -9000007    1    1    2    0  501 -0.13847949492E+03  0.11116311919E+02  0.16632280246E+03  0.45493232191E+03  0.40000000000E+03 0.  1.
<mgrwt>
<rscale>  2 0.42361466E+03</rscale>
<asrwt>0</asrwt>
<pdfrwt beam="1">  1        2 0.10919839E+00 0.42361466E+03</pdfrwt>
<pdfrwt beam="2">  1       -2 0.39506098E-01 0.42361466E+03</pdfrwt>
<totfact> 0.25053708E+02</totfact>
</mgrwt>
</event>
<event>
 6    1  0.9205235E-004  0.4776823E+03  0.7818608E-02  0.1019774E+00
         -1   -1    0    0    0  501 -0.00000000000E+00  0.00000000000E+00  0.38480849996E+03  0.38480849996E+03  0.00000000000E+00 0. -1.
          1   -1    0    0  502    0  0.00000000000E+00 -0.00000000000E+00 -0.59339634564E+03  0.59339634564E+03  0.00000000000E+00 0.  1.
    9000007    2    1    2  502    0  0.80673601640E+02  0.24754094877E+03 -0.91301714685E+02  0.48673685290E+03  0.40098878981E+03 0.  0.
    9000005    1    3    3    0    0 -0.16360026987E+03  0.11687674572E+03 -0.36901106025E+02  0.20442092263E+03  0.99999687468E+00 0.  0.
          4    1    3    3  502    0  0.24427387151E+03  0.13066420305E+03 -0.54400608660E+02  0.28231593027E+03  0.00000000000E+00 0.  1.
   -9000007    1    1    2    0  501 -0.80673601640E+02 -0.24754094877E+03 -0.11728613100E+03  0.49146799269E+03  0.40000000000E+03 0. -1.
<mgrwt>
<rscale>  2 0.47768233E+03</rscale>
<asrwt>0</asrwt>
<pdfrwt beam="1">  1        1 0.91291746E-01 0.47768233E+03</pdfrwt>
<pdfrwt beam="2">  1       -1 0.59201307E-01 0.47768233E+03</pdfrwt>
<totfact> 0.10485455E+02</totfact>
</mgrwt>
</event>
<event>
 6    1  0.9205235E-004  0.5183842E+03  0.7818608E-02  0.1009089E+00
          2   -1    0    0  502    0  0.00000000000E+00  0.00000000000E+00  0.20077298067E+03  0.20077298067E+03  0.00000000000E+00 0. -1.
         -2   -1    0    0    0  501 -0.00000000000E+00 -0.00000000000E+00 -0.15463536803E+04  0.15463536803E+04  0.00000000000E+00 0.  1.
    9000007    2    1    2  502    0 -0.21160278970E+03  0.25295727247E+03 -0.99306574803E+03  0.11202056824E+04  0.39989757263E+03 0.  0.
    9000005    1    3    3    0    0 -0.14624128015E+03  0.30353969456E+03 -0.98028842318E+03  0.10365757333E+04  0.99999687468E+00 0.  0.
          4    1    3    3  502    0 -0.65361509550E+02 -0.50582422088E+02 -0.12777324843E+02  0.83629949092E+02  0.00000000000E+00 0.  1.
   -9000007    1    1    2    0  501  0.21160278970E+03 -0.25295727247E+03 -0.35251495158E+03  0.62692097859E+03  0.40000000000E+03 0. -1.
<mgrwt>
<rscale>  2 0.51838418E+03</rscale>
<asrwt>0</asrwt>
<pdfrwt beam="1">  1        2 0.30888151E-01 0.51838418E+03</pdfrwt>
<pdfrwt beam="2">  1       -2 0.23790056E+00 0.51838418E+03</pdfrwt>
<totfact> 0.13806979E+01</totfact>
</mgrwt>
</event>
<event>
 6    1  0.9205235E-004  0.5170865E+03  0.7818608E-02  0.1009413E+00
          2   -1    0    0  502    0  0.00000000000E+00  0.00000000000E+00  0.17757556520E+03  0.17757556520E+03  0.00000000000E+00 0.  1.
         -2   -1    0    0    0  501 -0.00000000000E+00 -0.00000000000E+00 -0.15204388000E+04  0.15204388000E+04  0.00000000000E+00 0. -1.
    9000007    2    1    2  502    0  0.63286205718E+02  0.32101763262E+03 -0.58828801761E+03  0.78344275910E+03  0.40080207190E+03 0.  0.
    9000005    1    3    3    0    0  0.59702505509E+02  0.38251873838E+02 -0.47262448595E+03  0.47791474107E+03  0.99999687468E+00 0.  0.
          4    1    3    3  502    0  0.35837002085E+01  0.28276575878E+03 -0.11566353166E+03  0.30552801803E+03  0.00000000000E+00 0.  1.
   -9000007    1    1    2    0  501 -0.63286205718E+02 -0.32101763262E+03 -0.75457521718E+03  0.91457160609E+03  0.40000000000E+03 0.  1.
<mgrwt>
<rscale>  2 0.51708647E+03</rscale>
<asrwt>0</asrwt>
<pdfrwt beam="1">  1        2 0.27319317E-01 0.51708647E+03</pdfrwt>
<pdfrwt beam="2">  1       -2 0.23391367E+00 0.51708647E+03</pdfrwt>
<totfact> 0.16765526E+01</totfact>
</mgrwt>
</event>
<event>
 6    1  0.9205235E-004  0.3994303E+03  0.7818608E-02  0.1043977E+00
         -2   -1    0    0    0  501 -0.00000000000E+00  0.00000000000E+00  0.74013950908E+03  0.74013950908E+03  0.00000000000E+00 0.  1.
          2   -1    0    0  502    0  0.00000000000E+00 -0.00000000000E+00 -0.32484273726E+03  0.32484273726E+03  0.00000000000E+00 0. -1.
    9000007    2    1    2  502    0 -0.53553156182E+01 -0.21632967465E+01  0.51628933870E+03  0.65238939881E+03  0.39877799233E+03 0.  0.
    9000005    1    3    3    0    0  0.13372129895E+03  0.68033926896E+02  0.45941454620E+02  0.15691277273E+03  0.99999687468E+00 0.  0.
          4    1    3    3  502    0 -0.13907661457E+03 -0.70197223643E+02  0.47034788408E+03  0.49547662608E+03  0.00000000000E+00 0.  1.
   -9000007    1    1    2    0  501  0.53553156182E+01  0.21632967465E+01 -0.10099256688E+03  0.41259284752E+03  0.40000000000E+03 0. -1.
<mgrwt>
<rscale>  2 0.39943029E+03</rscale>
<asrwt>0</asrwt>
<pdfrwt beam="1">  1        2 0.49975806E-01 0.39943029E+03</pdfrwt>
<pdfrwt beam="2">  1       -2 0.11386762E+00 0.39943029E+03</pdfrwt>
<totfact> 0.62891948E+01</totfact>
</mgrwt>
</event>
<event>
 6    1  0.9205235E-004  0.5384334E+03  0.7818608E-02  0.1004207E+00
         -2   -1    0    0    0  501 -0.00000000000E+00  0.00000000000E+00  0.12177682720E+04  0.12177682720E+04  0.00000000000E+00 0. -1.
          2   -1    0    0  502    0  0.00000000000E+00 -0.00000000000E+00 -0.24515130277E+03  0.24515130277E+03  0.00000000000E+00 0.  1.
    9000007    2    1    2  502    0 -0.23175474862E+03  0.27349689123E+03  0.36312137116E+03  0.65051838256E+03  0.40349253133E+03 0.  0.
    9000005    1    3    3    0    0 -0.29745919790E+03  0.69567833035E+02  0.12465899497E+03  0.32994321152E+03  0.99999687468E+00 0.  0.
          4    1    3    3  502    0  0.65704449276E+02  0.20392905820E+03  0.23846237619E+03  0.32057517104E+03  0.00000000000E+00 0.  1.
   -9000007    1    1    2    0  501  0.23175474862E+03 -0.27349689123E+03  0.60949559804E+03  0.81240119218E+03  0.40000000000E+03 0.  1.
<mgrwt>
<rscale>  2 0.53843340E+03</rscale>
<asrwt>0</asrwt>
<pdfrwt beam="1">  1        2 0.37715586E-01 0.53843340E+03</pdfrwt>
<pdfrwt beam="2">  1       -2 0.18734896E+00 0.53843340E+03</pdfrwt>
<totfact> 0.22985282E+01</totfact>
</mgrwt>
</event>
<event>
 6    1  0.9205235E-004  0.4711446E+03  0.7818608E-02  0.1021598E+00
          2   -1    0    0  502    0  0.00000000000E+00  0.00000000000E+00  0.14730494829E+04  0.14730494829E+04  0.00000000000E+00 0.  1.
         -2   -1    0    0    0  501 -0.00000000000E+00 -0.00000000000E+00 -0.15673545346E+03  0.15673545346E+03  0.00000000000E+00 0. -1.
    9000007    2    1    2  502    0 -0.21687599412E+03  0.12245696890E+03  0.49807003697E+03  0.68556349132E+03  0.39986576854E+03 0.  0.
    9000005    1    3    3    0    0  0.10589434632E+03  0.69274311130E+02  0.63357521207E+02  0.14151932113E+03  0.99999687468E+00 0.  0.
          4    1    3    3  502    0 -0.32277034045E+03  0.53182657771E+02  0.43471251576E+03  0.54404417019E+03  0.00000000000E+00 0.  1.
   -9000007    1    1    2    0  501  0.21687599412E+03 -0.12245696890E+03  0.81824399244E+03  0.94422144501E+03  0.40000000000E+03 0. -1.
<mgrwt>
<rscale>  2 0.47114458E+03</rscale>
<asrwt>0</asrwt>
<pdfrwt beam="1">  1        2 0.22662299E+00 0.47114458E+03</pdfrwt>
<pdfrwt beam="2">  1       -2 0.24113148E-01 0.47114458E+03</pdfrwt>
<totfact> 0.20934173E+02</totfact>
</mgrwt>
</event>
<event>
 6    1  0.9205235E-004  0.5206330E+03  0.7818608E-02  0.1008529E+00
          2   -1    0    0  502    0  0.00000000000E+00  0.00000000000E+00  0.16986549645E+04  0.16986549645E+04  0.00000000000E+00 0.  1.
         -2   -1    0    0    0  501 -0.00000000000E+00 -0.00000000000E+00 -0.28380907658E+03  0.28380907658E+03  0.00000000000E+00 0. -1.
    9000007    2    1    2  502    0  0.20994434415E+03 -0.25867772529E+03  0.51649577340E+02  0.52325364694E+03  0.40016984768E+03 0.  0.
    9000005    1    3    3    0    0  0.99370231053E+01 -0.13501736341E+03 -0.15810300398E+03  0.20814896759E+03  0.99999687468E+00 0.  0.
          4    1    3    3  502    0  0.20000732105E+03 -0.12366036188E+03  0.20975258132E+03  0.31510467934E+03  0.00000000000E+00 0.  1.
   -9000007    1    1    2    0  501 -0.20994434415E+03  0.25867772529E+03  0.13631963106E+04  0.14592103941E+04  0.40000000000E+03 0.  1.
<mgrwt>
<rscale>  2 0.52063302E+03</rscale>
<asrwt>0</asrwt>
<pdfrwt beam="1">  1        2 0.26133153E+00 0.52063302E+03</pdfrwt>
<pdfrwt beam="2">  1       -2 0.43662936E-01 0.52063302E+03</pdfrwt>
<totfact> 0.51621601E+01</totfact>
</mgrwt>
</event>
<event>
 6    1  0.9205235E-004  0.4280263E+03  0.7818608E-02  0.1034485E+00
         -2   -1    0    0    0  501 -0.00000000000E+00  0.00000000000E+00  0.11422756692E+03  0.11422756692E+03  0.00000000000E+00 0.  1.
          2   -1    0    0  502    0  0.00000000000E+00 -0.00000000000E+00 -0.27615072127E+04  0.27615072127E+04  0.00000000000E+00 0. -1.
    9000007    2    1    2  502    0 -0.71612490389E+02  0.13512192706E+03 -0.39230229894E+03  0.58045503225E+03  0.39955058098E+03 0.  0.
    9000005    1    3    3    0    0  0.47541851757E+02 -0.11091410232E+03 -0.26097343244E+02  0.12346755476E+03  0.99999687468E+00 0.  0.
          4    1    3    3  502    0 -0.11915434215E+03  0.24603602938E+03 -0.36620495570E+03  0.45698747749E+03  0.00000000000E+00 0.  1.
   -9000007    1    1    2    0  501  0.71612490389E+02 -0.13512192706E+03 -0.22549773469E+04  0.22952797474E+04  0.40000000000E+03 0. -1.
<mgrwt>
<rscale>  2 0.42802632E+03</rscale>
<asrwt>0</asrwt>
<pdfrwt beam="1">  1        2 0.42484720E+00 0.42802632E+03</pdfrwt>
<pdfrwt beam="2">  1       -2 0.17573474E-01 0.42802632E+03</pdfrwt>
<totfact> 0.72206990E+01</totfact>
</mgrwt>
</event>
<event>
 6    1  0.9205235E-004  0.9231358E+03  0.7818608E-02  0.9397114E-01
          2   -1    0    0  502    0  0.00000000000E+00  0.00000000000E+00  0.83073249236E+03  0.83073249236E+03  0.00000000000E+00 0. -1.
         -2   -1    0    0    0  501 -0.00000000000E+00 -0.00000000000E+00 -0.15735486680E+04  0.15735486680E+04  0.00000000000E+00 0.  1.
    9000007    2    1    2  502    0  0.67808179753E+03  0.48139218481E+03 -0.10807492992E+04  0.14215644383E+04  0.40161305366E+03 0.  0.
    9000005    1    3    3    0    0  0.53138396551E+03  0.30776758500E+03 -0.48051733015E+03  0.77973566659E+03  0.99999687468E+00 0.  0.
          4    1    3    3  502    0  0.14669783202E+03  0.17362459981E+03 -0.60023196902E+03  0.64182877172E+03  0.00000000000E+00 0.  1.
   -9000007    1    1    2    0  501 -0.67808179753E+03 -0.48139218481E+03  0.33793312356E+03  0.98271672202E+03  0.40000000000E+03 0. -1.
<mgrwt>
<rscale>  2 0.92313576E+03</rscale>
<asrwt>0</asrwt>
<pdfrwt beam="1">  1        2 0.12780500E+00 0.92313576E+03</pdfrwt>
<pdfrwt beam="2">  1       -2 0.24208441E+00 0.92313576E+03</pdfrwt>
<totfact> 0.23679582E+00</totfact>
</mgrwt>
</event>
<event>
 6    1  0.9205235E-004  0.5407267E+03  0.7818608E-02  0.1003663E+00
          2   -1    0    0  502    0  0.00000000000E+00  0.00000000000E+00  0.82438564103E+03  0.82438564103E+03  0.00000000000E+00 0. -1.
         -2   -1    0    0    0  501 -0.00000000000E+00 -0.00000000000E+00 -0.39767473113E+03  0.39767473113E+03  0.00000000000E+00 0.  1.
    9000007    2    1    2  502    0  0.36103608157E+03 -0.45880393034E+02  0.41426791990E+03  0.68112886942E+03  0.39983317101E+03 0.  0.
    9000005    1    3    3    0    0  0.40417991310E+03  0.88587446144E+01  0.44821481639E+03  0.60360367886E+03  0.99999687468E+00 0.  0.
          4    1    3    3  502    0 -0.43143831530E+02 -0.54739137649E+02 -0.33946896492E+02  0.77525190558E+02  0.00000000000E+00 0.  1.
   -9000007    1    1    2    0  501 -0.36103608157E+03  0.45880393034E+02  0.12442989998E+02  0.54093150274E+03  0.40000000000E+03 0.  1.
<mgrwt>
<rscale>  2 0.54072668E+03</rscale>
<asrwt>0</asrwt>
<pdfrwt beam="1">  1        2 0.12682856E+00 0.54072668E+03</pdfrwt>
<pdfrwt beam="2">  1       -2 0.61180728E-01 0.54072668E+03</pdfrwt>
<totfact> 0.84727592E+01</totfact>
</mgrwt>
</event>
<event>
 6    1  0.9205235E-004  0.4731068E+03  0.7818608E-02  0.1021047E+00
          1   -1    0    0  502    0  0.00000000000E+00  0.00000000000E+00  0.11192728610E+04  0.11192728610E+04  0.00000000000E+00 0.  1.
         -1   -1    0    0    0  501 -0.00000000000E+00 -0.00000000000E+00 -0.27373474737E+03  0.27373474737E+03  0.00000000000E+00 0. -1.
    9000007    2    1    2  502    0 -0.24746017981E+03 -0.47817510248E+02  0.78452307303E+03  0.91630446171E+03  0.40076721368E+03 0.  0.
    9000005    1    3    3    0    0 -0.20462131956E+03 -0.97344246688E+02  0.13557189274E+03  0.26405780594E+03  0.99999687468E+00 0.  0.
          4    1    3    3  502    0 -0.42838860250E+02  0.49526736441E+02  0.64895118029E+03  0.65224665577E+03  0.00000000000E+00 0.  1.
   -9000007    1    1    2    0  501  0.24746017981E+03  0.47817510248E+02  0.61015040633E+02  0.47670314669E+03  0.40000000000E+03 0. -1.
<mgrwt>
<rscale>  2 0.47310678E+03</rscale>
<asrwt>0</asrwt>
<pdfrwt beam="1">  1        1 0.17219582E+00 0.47310678E+03</pdfrwt>
<pdfrwt beam="2">  1       -1 0.42113039E-01 0.47310678E+03</pdfrwt>
<totfact> 0.71732191E+01</totfact>
</mgrwt>
</event>
<event>
 6    1  0.9205235E-004  0.4250796E+03  0.7818608E-02  0.1035426E+00
          1   -1    0    0  502    0  0.00000000000E+00  0.00000000000E+00  0.12374433335E+04  0.12374433335E+04  0.00000000000E+00 0. -1.
         -1   -1    0    0    0  501 -0.00000000000E+00 -0.00000000000E+00 -0.16933680347E+03  0.16933680347E+03  0.00000000000E+00 0.  1.
    9000007    2    1    2  502    0 -0.12935278338E+02 -0.14312462079E+03  0.27310159276E+03  0.50528979937E+03  0.40010164069E+03 0.  0.
    9000005    1    3    3    0    0 -0.20583551060E+03 -0.58889874156E+02  0.12496542171E+03  0.24789842944E+03  0.99999687468E+00 0.  0.
          4    1    3    3  502    0  0.19290023226E+03 -0.84234746633E+02  0.14813617105E+03  0.25739136994E+03  0.00000000000E+00 0.  1.
   -9000007    1    1    2    0  501  0.12935278338E+02  0.14312462079E+03  0.79500493732E+03  0.90149033764E+03  0.40000000000E+03 0. -1.
<mgrwt>
<rscale>  2 0.42507956E+03</rscale>
<asrwt>0</asrwt>
<pdfrwt beam="1">  1        1 0.19037589E+00 0.42507956E+03</pdfrwt>
<pdfrwt beam="2">  1       -1 0.26051817E-01 0.42507956E+03</pdfrwt>
<totfact> 0.13781486E+02</totfact>
</mgrwt>
</event>
<event>
 6    1  0.9205235E-004  0.5347760E+03  0.7818608E-02  0.1005080E+00
         -2   -1    0    0    0  501 -0.00000000000E+00  0.00000000000E+00  0.20893747347E+03  0.20893747347E+03  0.00000000000E+00 0.  1.
          2   -1    0    0  502    0  0.00000000000E+00 -0.00000000000E+00 -0.20520849789E+04  0.20520849789E+04  0.00000000000E+00 0. -1.
    9000007    2    1    2  502    0 -0.21569516065E+03 -0.28235589714E+03 -0.15736551524E+04  0.16619603660E+04  0.39934003611E+03 0.  0.
    9000005    1    3    3    0    0 -0.27636466639E+03 -0.34848980000E+03 -0.13130343140E+04  0.13863198330E+04  0.99999687468E+00 0.  0.
          4    1    3    3  502    0  0.60669505745E+02  0.66133902856E+02 -0.26062083837E+03  0.27564053299E+03  0.00000000000E+00 0.  1.
   -9000007    1    1    2    0  501  0.21569516065E+03  0.28235589714E+03 -0.26949235298E+03  0.59906208635E+03  0.40000000000E+03 0.  1.
<mgrwt>
<rscale>  2 0.53477600E+03</rscale>
<asrwt>0</asrwt>
<pdfrwt beam="1">  1        2 0.31570538E+00 0.53477600E+03</pdfrwt>
<pdfrwt beam="2">  1       -2 0.32144227E-01 0.53477600E+03</pdfrwt>
<totfact> 0.59744102E+01</totfact>
</mgrwt>
</event>
<event>
 6    1  0.9205235E-004  0.4631840E+03  0.7818608E-02  0.1023862E+00
         -2   -1    0    0    0  501 -0.00000000000E+00  0.00000000000E+00  0.21012945939E+03  0.21012945939E+03  0.00000000000E+00 0.  1.
          2   -1    0    0  502    0  0.00000000000E+00 -0.00000000000E+00 -0.10391949747E+04  0.10391949747E+04  0.00000000000E+00 0. -1.
    9000007    2    1    2  502    0  0.18655092245E+03  0.14053866622E+03 -0.49720594258E+03  0.67951469444E+03  0.39996763276E+03 0.  0.
    9000005    1    3    3    0    0 -0.60936633001E+02 -0.47926170894E+02 -0.30306940318E+03  0.31282943313E+03  0.99999687468E+00 0.  0.
          4    1    3    3  502    0  0.24748755545E+03  0.18846483712E+03 -0.19413653940E+03  0.36668526131E+03  0.00000000000E+00 0.  1.
   -9000007    1    1    2    0  501 -0.18655092245E+03 -0.14053866622E+03 -0.33185957272E+03  0.56980973963E+03  0.40000000000E+03 0.  1.
<mgrwt>
<rscale>  2 0.46318400E+03</rscale>
<asrwt>0</asrwt>
<pdfrwt beam="1">  1        2 0.15987615E+00 0.46318400E+03</pdfrwt>
<pdfrwt beam="2">  1       -2 0.32327609E-01 0.46318400E+03</pdfrwt>
<totfact> 0.21850367E+02</totfact>
</mgrwt>
</event>
<event>
 6    1  0.9205235E-004  0.4242743E+03  0.7818608E-02  0.1035684E+00
          2   -1    0    0  502    0  0.00000000000E+00  0.00000000000E+00  0.50022151085E+03  0.50022151085E+03  0.00000000000E+00 0. -1.
         -2   -1    0    0    0  501 -0.00000000000E+00 -0.00000000000E+00 -0.46842426395E+03  0.46842426395E+03  0.00000000000E+00 0.  1.
    9000007    2    1    2  502    0  0.12227124626E+03  0.72338037451E+02  0.24905726251E+03  0.49179678014E+03  0.39956414206E+03 0.  0.
    9000005    1    3    3    0    0  0.22331077656E+03  0.78496991222E+02  0.29700139261E+03  0.37978982051E+03  0.99999687468E+00 0.  0.
          4    1    3    3  502    0 -0.10103953030E+03 -0.61589537702E+01 -0.47944130092E+02  0.11200695963E+03  0.00000000000E+00 0.  1.
   -9000007    1    1    2    0  501 -0.12227124626E+03 -0.72338037451E+02 -0.21726001561E+03  0.47684899466E+03  0.40000000000E+03 0.  1.
<mgrwt>
<rscale>  2 0.42427434E+03</rscale>
<asrwt>0</asrwt>
<pdfrwt beam="1">  1        2 0.76957156E-01 0.42427434E+03</pdfrwt>
<pdfrwt beam="2">  1       -2 0.72065271E-01 0.42427434E+03</pdfrwt>
<totfact> 0.11087639E+02</totfact>
</mgrwt>
</event>
<event>
 6    1  0.9205235E-004  0.7506450E+03  0.7818608E-02  0.9634339E-01
          2   -1    0    0  502    0  0.00000000000E+00  0.00000000000E+00  0.18719760576E+04  0.18719760576E+04  0.00000000000E+00 0.  1.
         -2   -1    0    0    0  501 -0.00000000000E+00 -0.00000000000E+00 -0.30997776587E+03  0.30997776587E+03  0.00000000000E+00 0. -1.
    9000007    2    1    2  502    0 -0.63154112052E+03  0.65061346919E+02  0.59561261541E+03  0.95844312015E+03  0.40097588599E+03 0.  0.
    9000005    1    3    3    0    0 -0.17347105571E+03  0.68264563342E+02 -0.23919744306E+02  0.18795055716E+03  0.99999687468E+00 0.  0.
          4    1    3    3  502    0 -0.45807006481E+03 -0.32032164228E+01  0.61953235972E+03  0.77049256298E+03  0.00000000000E+00 0.  1.
   -9000007    1    1    2    0  501  0.63154112052E+03 -0.65061346919E+02  0.96638567631E+03  0.12235107033E+04  0.40000000000E+03 0. -1.
<mgrwt>
<rscale>  2 0.75064496E+03</rscale>
<asrwt>0</asrwt>
<pdfrwt beam="1">  1        2 0.28799631E+00 0.75064496E+03</pdfrwt>
<pdfrwt beam="2">  1       -2 0.47688888E-01 0.75064496E+03</pdfrwt>
<totfact> 0.33758688E+01</totfact>
</mgrwt>
</event>
<event>
 6    1  0.9205235E-004  0.5382916E+03  0.7818608E-02  0.1004241E+00
         -1   -1    0    0    0  501 -0.00000000000E+00  0.00000000000E+00  0.14731294263E+03  0.14731294263E+03  0.00000000000E+00 0. -1.
          1   -1    0    0  502    0  0.00000000000E+00 -0.00000000000E+00 -0.26998484095E+04  0.26998484095E+04  0.00000000000E+00 0.  1.
    9000007    2    1    2  502    0  0.28105689227E+03 -0.22544895284E+03 -0.20178756543E+04  0.20884246902E+04  0.39984412360E+03 0.  0.
    9000005    1    3    3    0    0 -0.57768374789E+02 -0.18873973889E+03 -0.72774946328E+03  0.75404254221E+03  0.99999687468E+00 0.  0.
          4    1    3    3  502    0  0.33882526706E+03 -0.36709213954E+02 -0.12901261911E+04  0.13343821480E+04  0.00000000000E+00 0.  1.
   -9000007    1    1    2    0  501 -0.28105689227E+03  0.22544895284E+03 -0.53465981251E+03  0.75873666192E+03  0.40000000000E+03 0. -1.
<mgrwt>
<rscale>  2 0.53829161E+03</rscale>
<asrwt>0</asrwt>
<pdfrwt beam="1">  1        1 0.41536128E+00 0.53829161E+03</pdfrwt>
<pdfrwt beam="2">  1       -1 0.22663530E-01 0.53829161E+03</pdfrwt>
<totfact> 0.17772357E+01</totfact>
</mgrwt>
</event>
<event>
 6    1  0.9205235E-004  0.4126700E+03  0.7818608E-02  0.1039479E+00
         -1   -1    0    0    0  501 -0.00000000000E+00  0.00000000000E+00  0.37839073983E+03  0.37839073983E+03  0.00000000000E+00 0.  1.
          1   -1    0    0  502    0  0.00000000000E+00 -0.00000000000E+00 -0.58164071383E+03  0.58164071383E+03  0.00000000000E+00 0. -1.
    9000007    2    1    2  502    0 -0.49080666313E+02  0.87700376421E+02 -0.32998443200E+03  0.52856663391E+03  0.40049056580E+03 0.  0.
    9000005    1    3    3    0    0  0.70991368882E+02  0.22135548132E+03 -0.20210940278E+03  0.30803771563E+03  0.99999687468E+00 0.  0.
          4    1    3    3  502    0 -0.12007203520E+03 -0.13365510490E+03 -0.12787502922E+03  0.22052891828E+03  0.00000000000E+00 0.  1.
   -9000007    1    1    2    0  501  0.49080666313E+02 -0.87700376421E+02  0.12673445800E+03  0.43146481974E+03  0.40000000000E+03 0.  1.
<mgrwt>
<rscale>  2 0.41266997E+03</rscale>
<asrwt>0</asrwt>
<pdfrwt beam="1">  1        1 0.89483187E-01 0.41266997E+03</pdfrwt>
<pdfrwt beam="2">  1       -1 0.58213960E-01 0.41266997E+03</pdfrwt>
<totfact> 0.11225127E+02</totfact>
</mgrwt>
</event>
<event>
 6    1  0.9205235E-004  0.4164404E+03  0.7818608E-02  0.1038231E+00
          2   -1    0    0  502    0  0.00000000000E+00  0.00000000000E+00  0.85784774076E+03  0.85784774076E+03  0.00000000000E+00 0.  1.
         -2   -1    0    0    0  501 -0.00000000000E+00 -0.00000000000E+00 -0.22573525241E+03  0.22573525241E+03  0.00000000000E+00 0. -1.
    9000007    2    1    2  502    0 -0.55034282571E+02 -0.10526875938E+03  0.49058222812E+03  0.64296853753E+03  0.39828047121E+03 0.  0.
    9000005    1    3    3    0    0  0.95742658861E+02 -0.15190349817E+03  0.68222959727E+02  0.19208514182E+03  0.99999687468E+00 0.  0.
          4    1    3    3  502    0 -0.15077694143E+03  0.46634738783E+02  0.42235926839E+03  0.45088339570E+03  0.00000000000E+00 0.  1.
   -9000007    1    1    2    0  501  0.55034282571E+02  0.10526875938E+03  0.14153026024E+03  0.44061445565E+03  0.40000000000E+03 0. -1.
<mgrwt>
<rscale>  2 0.41644038E+03</rscale>
<asrwt>0</asrwt>
<pdfrwt beam="1">  1        2 0.13197657E+00 0.41644038E+03</pdfrwt>
<pdfrwt beam="2">  1       -2 0.34728501E-01 0.41644038E+03</pdfrwt>
<totfact> 0.25105296E+02</totfact>
</mgrwt>
</event>
<event>
 6    1  0.9205235E-004  0.4905683E+03  0.7818608E-02  0.1016270E+00
          2   -1    0    0  502    0  0.00000000000E+00  0.00000000000E+00  0.15827196132E+04  0.15827196132E+04  0.00000000000E+00 0.  1.
         -2   -1    0    0    0  501 -0.00000000000E+00 -0.00000000000E+00 -0.18154900787E+03  0.18154900787E+03  0.00000000000E+00 0. -1.
    9000007    2    1    2  502    0 -0.54760227377E+02  0.27778431808E+03  0.10567529424E+04  0.11652808612E+04  0.40123546012E+03 0.  0.
    9000005    1    3    3    0    0 -0.14669612418E+03  0.12868217027E+03  0.16223012814E+03  0.25376853285E+03  0.99999687468E+00 0.  0.
          4    1    3    3  502    0  0.91935896805E+02  0.14910214781E+03  0.89452281423E+03  0.91151232838E+03  0.00000000000E+00 0.  1.
   -9000007    1    1    2    0  501  0.54760227377E+02 -0.27778431808E+03  0.34441766295E+03  0.59898775983E+03  0.40000000000E+03 0. -1.
<mgrwt>
<rscale>  2 0.49056829E+03</rscale>
<asrwt>0</asrwt>
<pdfrwt beam="1">  1        2 0.24349532E+00 0.49056829E+03</pdfrwt>
<pdfrwt beam="2">  1       -2 0.27930618E-01 0.49056829E+03</pdfrwt>
<totfact> 0.13961237E+02</totfact>
</mgrwt>
</event>
<event>
 6    1  0.9205235E-004  0.1005926E+04  0.7818608E-02  0.9302069E-01
         -2   -1    0    0    0  501 -0.00000000000E+00  0.00000000000E+00  0.71692068670E+03  0.71692068670E+03  0.00000000000E+00 0. -1.
          2   -1    0    0  502    0  0.00000000000E+00 -0.00000000000E+00 -0.18999197058E+04  0.18999197058E+04  0.00000000000E+00 0.  1.
    9000007    2    1    2  502    0 -0.87087621362E+02 -0.91848136902E+03  0.71794238250E+02  0.10088296967E+04  0.40173457074E+03 0.  0.
    9000005    1    3    3    0    0  0.23993720822E+02 -0.88906168918E+03  0.83636910826E+02  0.89330986710E+03  0.99999687468E+00 0.  0.
          4    1    3    3  502    0 -0.11108134218E+03 -0.29419679832E+02 -0.11842672577E+02  0.11551982963E+03  0.00000000000E+00 0.  1.
   -9000007    1    1    2    0  501  0.87087621362E+02  0.91848136902E+03 -0.12547932574E+04  0.16080106958E+04  0.40000000000E+03 0.  1.
<mgrwt>
<rscale>  2 0.10059261E+04</rscale>
<asrwt>0</asrwt>
<pdfrwt beam="1">  1        2 0.29229533E+00 0.10059261E+04</pdfrwt>
<pdfrwt beam="2">  1       -2 0.11029549E+00 0.10059261E+04</pdfrwt>
<totfact> 0.49460943E+00</totfact>
</mgrwt>
</event>
<event>
 6    1  0.9205235E-004  0.5174888E+03  0.7818608E-02  0.1009312E+00
         -2   -1    0    0    0  501 -0.00000000000E+00  0.00000000000E+00  0.27095151066E+03  0.27095151066E+03  0.00000000000E+00 0.  1.
          2   -1    0    0  502    0  0.00000000000E+00 -0.00000000000E+00 -0.98835031176E+03  0.98835031176E+03  0.00000000000E+00 0. -1.
    9000007    2    1    2  502    0  0.82581522109E+02  0.31729527423E+03 -0.35829430932E+03  0.62965745068E+03  0.40074642140E+03 0.  0.
    9000005    1    3    3    0    0  0.21270505404E+02  0.29803189672E+03 -0.43616451903E+03  0.52869266452E+03  0.99999687468E+00 0.  0.
          4    1    3    3  502    0  0.61311016705E+02  0.19263377512E+02  0.77870209717E+02  0.10096478616E+03  0.00000000000E+00 0.  1.
   -9000007    1    1    2    0  501 -0.82581522109E+02 -0.31729527423E+03 -0.35910449179E+03  0.62964437174E+03  0.40000000000E+03 0.  1.
<mgrwt>
<rscale>  2 0.51748882E+03</rscale>
<asrwt>0</asrwt>
<pdfrwt beam="1">  1        2 0.15205390E+00 0.51748882E+03</pdfrwt>
<pdfrwt beam="2">  1       -2 0.41684848E-01 0.51748882E+03</pdfrwt>
<totfact> 0.14401482E+02</totfact>
</mgrwt>
</event>
<event>
 6    1  0.9205235E-004  0.4124878E+03  0.7818608E-02  0.1039539E+00
          2   -1    0    0  502    0  0.00000000000E+00  0.00000000000E+00  0.28695598521E+04  0.28695598521E+04  0.00000000000E+00 0.  1.
         -2   -1    0    0    0  501 -0.00000000000E+00 -0.00000000000E+00 -0.59293986964E+02  0.59293986964E+02  0.00000000000E+00 0. -1.
    9000007    2    1    2  502    0 -0.97737642743E+01 -0.10080774558E+03  0.14088983392E+04  0.14680018032E+04  0.39972119767E+03 0.  0.
    9000005    1    3    3    0    0  0.15553971267E+03  0.28520245328E+02  0.29709391215E+03  0.33655876045E+03  0.99999687468E+00 0.  0.
          4    1    3    3  502    0 -0.16531347694E+03 -0.12932799091E+03  0.11118044270E+04  0.11314430427E+04  0.00000000000E+00 0.  1.
   -9000007    1    1    2    0  501  0.97737642743E+01  0.10080774558E+03  0.14013675260E+04  0.14608520359E+04  0.40000000000E+03 0. -1.
<mgrwt>
<rscale>  2 0.41248783E+03</rscale>
<asrwt>0</asrwt>
<pdfrwt beam="1">  1        2 0.44147064E+00 0.41248783E+03</pdfrwt>
<pdfrwt beam="2">  1       -2 0.91221541E-02 0.41248783E+03</pdfrwt>
<totfact> 0.18458389E+02</totfact>
</mgrwt>
</event>
<event>
 6    1  0.9205235E-004  0.4365780E+03  0.7818608E-02  0.1031802E+00
          1   -1    0    0  502    0  0.00000000000E+00  0.00000000000E+00  0.14711089894E+03  0.14711089894E+03  0.00000000000E+00 0. -1.
         -1   -1    0    0    0  501 -0.00000000000E+00 -0.00000000000E+00 -0.12959616784E+04  0.12959616784E+04  0.00000000000E+00 0.  1.
    9000007    2    1    2  502    0  0.16768389983E+03  0.59213887766E+02 -0.56139734715E+03  0.71045691418E+03  0.39743914094E+03 0.  0.
    9000005    1    3    3    0    0  0.80775974206E+02 -0.21480983218E+02  0.43370184816E+02  0.94170927433E+02  0.99999687468E+00 0.  0.
          4    1    3    3  502    0  0.86907925626E+02  0.80694870984E+02 -0.60476753196E+03  0.61628598674E+03  0.00000000000E+00 0.  1.
   -9000007    1    1    2    0  501 -0.16768389983E+03 -0.59213887766E+02 -0.58745343230E+03  0.73261566315E+03  0.40000000000E+03 0. -1.
<mgrwt>
<rscale>  2 0.43657803E+03</rscale>
<asrwt>0</asrwt>
<pdfrwt beam="1">  1        1 0.22632445E-01 0.43657803E+03</pdfrwt>
<pdfrwt beam="2">  1       -1 0.19937873E+00 0.43657803E+03</pdfrwt>
<totfact> 0.35841074E+01</totfact>
</mgrwt>
</event>
<event>
 6    1  0.9205235E-004  0.6407200E+03  0.7818608E-02  0.9824350E-01
         -2   -1    0    0    0  501 -0.00000000000E+00  0.00000000000E+00  0.71073601243E+03  0.71073601243E+03  0.00000000000E+00 0. -1.
          2   -1    0    0  502    0  0.00000000000E+00 -0.00000000000E+00 -0.74659468586E+03  0.74659468586E+03  0.00000000000E+00 0.  1.
    9000007    2    1    2  502    0  0.43559860861E+03  0.24536805069E+03  0.32873397225E+03  0.72052717942E+03  0.40142466747E+03 0.  0.
    9000005    1    3    3    0    0  0.29474734070E+03  0.18464128911E+02  0.34356339759E+03  0.45304936493E+03  0.99999687468E+00 0.  0.
          4    1    3    3  502    0  0.14085126791E+03  0.22690392178E+03 -0.14829425339E+02  0.26747781449E+03  0.00000000000E+00 0.  1.
   -9000007    1    1    2    0  501 -0.43559860861E+03 -0.24536805069E+03 -0.36459264568E+03  0.73680351886E+03  0.40000000000E+03 0.  1.
<mgrwt>
<rscale>  2 0.64072000E+03</rscale>
<asrwt>0</asrwt>
<pdfrwt beam="1">  1        2 0.11486072E+00 0.64072000E+03</pdfrwt>
<pdfrwt beam="2">  1       -2 0.10934400E+00 0.64072000E+03</pdfrwt>
<totfact> 0.25769414E+01</totfact>
</mgrwt>
</event>
<event>
 6    1  0.9205235E-004  0.5054632E+03  0.7818608E-02  0.1012363E+00
          2   -1    0    0  502    0  0.00000000000E+00  0.00000000000E+00  0.17901845226E+04  0.17901845226E+04  0.00000000000E+00 0. -1.
         -2   -1    0    0    0  501 -0.00000000000E+00 -0.00000000000E+00 -0.15701032470E+03  0.15701032470E+03  0.00000000000E+00 0.  1.
    9000007    2    1    2  502    0 -0.21181081577E+02  0.30792284828E+03  0.11106517444E+04  0.12203559153E+04  0.40056977405E+03 0.  0.
    9000005    1    3    3    0    0 -0.18249692546E+03  0.38918386418E+02  0.50352458748E+03  0.53698955184E+03  0.99999687468E+00 0.  0.
          4    1    3    3  502    0  0.16131584388E+03  0.26900446186E+03  0.60712715694E+03  0.68336636344E+03  0.00000000000E+00 0.  1.
   -9000007    1    1    2    0  501  0.21181081577E+02 -0.30792284828E+03  0.52252245349E+03  0.72683893202E+03  0.40000000000E+03 0.  1.
<mgrwt>
<rscale>  2 0.50546324E+03</rscale>
<asrwt>0</asrwt>
<pdfrwt beam="1">  1        2 0.27541299E+00 0.50546324E+03</pdfrwt>
<pdfrwt beam="2">  1       -2 0.24155436E-01 0.50546324E+03</pdfrwt>
<totfact> 0.13983332E+02</totfact>
</mgrwt>
</event>
<event>
 6    1  0.9205235E-004  0.4973537E+03  0.7818608E-02  0.1014472E+00
          2   -1    0    0  502    0  0.00000000000E+00  0.00000000000E+00  0.10861636350E+04  0.10861636350E+04  0.00000000000E+00 0.  1.
         -2   -1    0    0    0  501 -0.00000000000E+00 -0.00000000000E+00 -0.25637239705E+03  0.25637239705E+03  0.00000000000E+00 0. -1.
    9000007    2    1    2  502    0 -0.19458389096E+03 -0.22256577505E+03  0.19052848303E+03  0.53256363458E+03  0.39990562285E+03 0.  0.
    9000005    1    3    3    0    0 -0.29899670885E+03 -0.24801110542E+03  0.13260924028E+03  0.41048112126E+03  0.99999687468E+00 0.  0.
          4    1    3    3  502    0  0.10441281789E+03  0.25445330368E+02  0.57919242752E+02  0.12208251332E+03  0.00000000000E+00 0.  1.
   -9000007    1    1    2    0  501  0.19458389096E+03  0.22256577505E+03  0.63926275489E+03  0.80997239745E+03  0.40000000000E+03 0. -1.
<mgrwt>
<rscale>  2 0.49735366E+03</rscale>
<asrwt>0</asrwt>
<pdfrwt beam="1">  1        2 0.16710209E+00 0.49735366E+03</pdfrwt>
<pdfrwt beam="2">  1       -2 0.39441908E-01 0.49735366E+03</pdfrwt>
<totfact> 0.13975579E+02</totfact>
</mgrwt>
</event>
<event>
 6    1  0.9205235E-004  0.4641396E+03  0.7818608E-02  0.1023587E+00
         -2   -1    0    0    0  501 -0.00000000000E+00  0.00000000000E+00  0.34829849232E+03  0.34829849232E+03  0.00000000000E+00 0.  1.
          2   -1    0    0  502    0  0.00000000000E+00 -0.00000000000E+00 -0.10940165111E+04  0.10940165111E+04  0.00000000000E+00 0. -1.
    9000007    2    1    2  502    0  0.18951467517E+03 -0.13831865679E+03  0.10239727323E+03  0.47569852752E+03  0.40094391702E+03 0.  0.
    9000005    1    3    3    0    0  0.11189704889E+03 -0.18913456153E+03 -0.10865765546E+03  0.24515366202E+03  0.99999687468E+00 0.  0.
          4    1    3    3  502    0  0.77617626278E+02  0.50815904737E+02  0.21105492869E+03  0.23054486550E+03  0.00000000000E+00 0.  1.
   -9000007    1    1    2    0  501 -0.18951467517E+03  0.13831865679E+03 -0.84811529198E+03  0.96661647586E+03  0.40000000000E+03 0. -1.
<mgrwt>
<rscale>  2 0.46413957E+03</rscale>
<asrwt>0</asrwt>
<pdfrwt beam="1">  1        2 0.16831023E+00 0.46413957E+03</pdfrwt>
<pdfrwt beam="2">  1       -2 0.53584384E-01 0.46413957E+03</pdfrwt>
<totfact> 0.75440844E+01</totfact>
</mgrwt>
</event>
<event>
 6    1  0.9205235E-004  0.4058735E+03  0.7818608E-02  0.1041765E+00
         -2   -1    0    0    0  501 -0.00000000000E+00  0.00000000000E+00  0.32772663756E+03  0.32772663756E+03  0.00000000000E+00 0.  1.
          2   -1    0    0  502    0  0.00000000000E+00 -0.00000000000E+00 -0.50309541184E+03  0.50309541184E+03  0.00000000000E+00 0. -1.
    9000007    2    1    2  502    0  0.35394690315E+02 -0.58601194248E+02 -0.75401072597E+02  0.41287417532E+03  0.40011608169E+03 0.  0.
    9000005    1    3    3    0    0  0.82926877783E+02 -0.22125391094E+03 -0.50115854449E+02  0.24154245802E+03  0.99999687468E+00 0.  0.
          4    1    3    3  502    0 -0.47532187468E+02  0.16265271670E+03 -0.25285218148E+02  0.17133171729E+03  0.00000000000E+00 0.  1.
   -9000007    1    1    2    0  501 -0.35394690315E+02  0.58601194248E+02 -0.99967701689E+02  0.41794787408E+03  0.40000000000E+03 0. -1.
<mgrwt>
<rscale>  2 0.40587352E+03</rscale>
<asrwt>0</asrwt>
<pdfrwt beam="1">  1        2 0.77399294E-01 0.40587352E+03</pdfrwt>
<pdfrwt beam="2">  1       -2 0.50419483E-01 0.40587352E+03</pdfrwt>
<totfact> 0.23326144E+02</totfact>
</mgrwt>
</event>
<event>
 6    1  0.9205235E-004  0.4119938E+03  0.7818608E-02  0.1039704E+00
         -2   -1    0    0    0  501 -0.00000000000E+00  0.00000000000E+00  0.13657640875E+03  0.13657640875E+03  0.00000000000E+00 0. -1.
          2   -1    0    0  502    0  0.00000000000E+00 -0.00000000000E+00 -0.14229371764E+04  0.14229371764E+04  0.00000000000E+00 0.  1.
    9000007    2    1    2  502    0 -0.48657491494E+01  0.10013260229E+03 -0.36523675460E+03  0.55029623445E+03  0.39922154899E+03 0.  0.
    9000005    1    3    3    0    0  0.40961491610E+02  0.21922418376E+03 -0.35888223353E+03  0.42253348279E+03  0.99999687468E+00 0.  0.
          4    1    3    3  502    0 -0.45827240760E+02 -0.11909158147E+03 -0.63545210690E+01  0.12776275166E+03  0.00000000000E+00 0.  1.
   -9000007    1    1    2    0  501  0.48657491494E+01 -0.10013260229E+03 -0.92112401306E+03  0.10092173507E+04  0.40000000000E+03 0.  1.
<mgrwt>
<rscale>  2 0.41199375E+03</rscale>
<asrwt>0</asrwt>
<pdfrwt beam="1">  1        2 0.21891342E+00 0.41199375E+03</pdfrwt>
<pdfrwt beam="2">  1       -2 0.21011754E-01 0.41199375E+03</pdfrwt>
<totfact> 0.28624330E+02</totfact>
</mgrwt>
</event>
<event>
 6    1  0.9205235E-004  0.6223810E+03  0.7818608E-02  0.9860031E-01
          2   -1    0    0  502    0  0.00000000000E+00  0.00000000000E+00  0.12598682012E+04  0.12598682012E+04  0.00000000000E+00 0. -1.
         -2   -1    0    0    0  501 -0.00000000000E+00 -0.00000000000E+00 -0.38712749740E+03  0.38712749740E+03  0.00000000000E+00 0.  1.
    9000007    2    1    2  502    0  0.30298882594E+03 -0.36818927710E+03  0.62791699717E+02  0.62553450911E+03  0.39998131472E+03 0.  0.
    9000005    1    3    3    0    0  0.25690111343E+03 -0.44997825707E+03  0.93990294394E+02  0.52660591466E+03  0.99999687468E+00 0.  0.
          4    1    3    3  502    0  0.46087712508E+02  0.81788979978E+02 -0.31198594677E+02  0.98928594450E+02  0.00000000000E+00 0.  1.
   -9000007    1    1    2    0  501 -0.30298882594E+03  0.36818927710E+03  0.80994900406E+03  0.10214611895E+04  0.40000000000E+03 0.  1.
<mgrwt>
<rscale>  2 0.62238099E+03</rscale>
<asrwt>0</asrwt>
<pdfrwt beam="1">  1        2 0.19382588E+00 0.62238099E+03</pdfrwt>
<pdfrwt beam="2">  1       -2 0.59558077E-01 0.62238099E+03</pdfrwt>
<totfact> 0.47411968E+01</totfact>
</mgrwt>
</event>
<event>
 6    1  0.9205235E-004  0.6493970E+03  0.7818608E-02  0.9807911E-01
         -2   -1    0    0    0  501 -0.00000000000E+00  0.00000000000E+00  0.21078123951E+03  0.21078123951E+03  0.00000000000E+00 0.  1.
          2   -1    0    0  502    0  0.00000000000E+00 -0.00000000000E+00 -0.33800063949E+04  0.33800063949E+04  0.00000000000E+00 0. -1.
    9000007    2    1    2  502    0 -0.27018735312E+03 -0.43391822676E+03 -0.43818893561E+03  0.78368146130E+03  0.40107462671E+03 0.  0.
    9000005    1    3    3    0    0 -0.14171115267E+03 -0.39001890574E+02 -0.31962097191E+03  0.35179790212E+03  0.99999687468E+00 0.  0.
          4    1    3    3  502    0 -0.12847620045E+03 -0.39491633619E+03 -0.11856796370E+03  0.43188355918E+03  0.00000000000E+00 0.  1.
   -9000007    1    1    2    0  501  0.27018735312E+03  0.43391822676E+03 -0.27310362198E+04  0.28071061731E+04  0.40000000000E+03 0. -1.
<mgrwt>
<rscale>  2 0.64939698E+03</rscale>
<asrwt>0</asrwt>
<pdfrwt beam="1">  1        2 0.52000097E+00 0.64939698E+03</pdfrwt>
<pdfrwt beam="2">  1       -2 0.32427884E-01 0.64939698E+03</pdfrwt>
<totfact> 0.95713073E+00</totfact>
</mgrwt>
</event>
<event>
 6    1  0.9205235E-004  0.5741609E+03  0.7818608E-02  0.9960513E-01
          2   -1    0    0  502    0  0.00000000000E+00  0.00000000000E+00  0.19896400874E+04  0.19896400874E+04  0.00000000000E+00 0. -1.
         -2   -1    0    0    0  501 -0.00000000000E+00 -0.00000000000E+00 -0.20858701923E+03  0.20858701923E+03  0.00000000000E+00 0.  1.
    9000007    2    1    2  502    0 -0.14797064447E+03 -0.38345786634E+03  0.39285979554E+03  0.69622317553E+03  0.40181170256E+03 0.  0.
    9000005    1    3    3    0    0 -0.15818646488E+03 -0.17914234646E+03  0.42650972167E+03  0.48890334488E+03  0.99999687468E+00 0.  0.
          4    1    3    3  502    0  0.10215820414E+02 -0.20431551988E+03 -0.33649926132E+02  0.20731983065E+03  0.00000000000E+00 0.  1.
   -9000007    1    1    2    0  501  0.14797064447E+03  0.38345786634E+03  0.13881932727E+04  0.15020039311E+04  0.40000000000E+03 0. -1.
<mgrwt>
<rscale>  2 0.57416093E+03</rscale>
<asrwt>0</asrwt>
<pdfrwt beam="1">  1        2 0.30609846E+00 0.57416093E+03</pdfrwt>
<pdfrwt beam="2">  1       -2 0.32090312E-01 0.57416093E+03</pdfrwt>
<totfact> 0.64372446E+01</totfact>
</mgrwt>
</event>
<event>
 6    1  0.9205235E-004  0.4327433E+03  0.7818608E-02  0.1032997E+00
         -1   -1    0    0    0  501 -0.00000000000E+00  0.00000000000E+00  0.98466933295E+03  0.98466933295E+03  0.00000000000E+00 0.  1.
          1   -1    0    0  502    0  0.00000000000E+00 -0.00000000000E+00 -0.19107161387E+03  0.19107161387E+03  0.00000000000E+00 0. -1.
    9000007    2    1    2  502    0  0.44627789815E+02  0.16037998519E+03  0.35623045215E+03  0.56010834091E+03  0.39888324012E+03 0.  0.
    9000005    1    3    3    0    0  0.15040450121E+02  0.16753631997E+03 -0.31540436282E+02  0.17114447921E+03  0.99999687468E+00 0.  0.
          4    1    3    3  502    0  0.29587339695E+02 -0.71563347808E+01  0.38777088843E+03  0.38896386171E+03  0.00000000000E+00 0.  1.
   -9000007    1    1    2    0  501 -0.44627789815E+02 -0.16037998519E+03  0.43736726694E+03  0.61563260591E+03  0.40000000000E+03 0.  1.
<mgrwt>
<rscale>  2 0.43274330E+03</rscale>
<asrwt>0</asrwt>
<pdfrwt beam="1">  1        1 0.29395633E-01 0.43274330E+03</pdfrwt>
<pdfrwt beam="2">  1       -1 0.15148759E+00 0.43274330E+03</pdfrwt>
<totfact> 0.56317502E+01</totfact>
</mgrwt>
</event>
<event>
 6    1  0.9205235E-004  0.4023189E+03  0.7818608E-02  0.1042980E+00
          2   -1    0    0  502    0  0.00000000000E+00  0.00000000000E+00  0.21027796453E+04  0.21027796453E+04  0.00000000000E+00 0. -1.
         -2   -1    0    0    0  501 -0.00000000000E+00 -0.00000000000E+00 -0.13310944752E+03  0.13310944752E+03  0.00000000000E+00 0.  1.
    9000007    2    1    2  502    0  0.37088924314E+01  0.41199622559E+02  0.25910542460E+03  0.47869160590E+03  0.40037341035E+03 0.  0.
    9000005    1    3    3    0    0  0.11443470192E+03 -0.52805680020E+02  0.30199776139E+03  0.32724209498E+03  0.99999687468E+00 0.  0.
          4    1    3    3  502    0 -0.11072580949E+03  0.94005302579E+02 -0.42892336793E+02  0.15144951091E+03  0.00000000000E+00 0.  1.
   -9000007    1    1    2    0  501 -0.37088924314E+01 -0.41199622559E+02  0.17105647732E+04  0.17571974869E+04  0.40000000000E+03 0. -1.
<mgrwt>
<rscale>  2 0.40231894E+03</rscale>
<asrwt>0</asrwt>
<pdfrwt beam="1">  1        2 0.32350453E+00 0.40231894E+03</pdfrwt>
<pdfrwt beam="2">  1       -2 0.20478378E-01 0.40231894E+03</pdfrwt>
<totfact> 0.12924175E+02</totfact>
</mgrwt>
</event>
<event>
 6    1  0.9205235E-004  0.4021509E+03  0.7818608E-02  0.1043037E+00
          2   -1    0    0  502    0  0.00000000000E+00  0.00000000000E+00  0.94857347500E+03  0.94857347500E+03  0.00000000000E+00 0. -1.
         -2   -1    0    0    0  501 -0.00000000000E+00 -0.00000000000E+00 -0.18467695293E+03  0.18467695293E+03  0.00000000000E+00 0.  1.
    9000007    2    1    2  502    0 -0.90322329261E+01  0.49434896422E+02  0.22405335980E+03  0.45948783616E+03  0.39799971523E+03 0.  0.
    9000005    1    3    3    0    0 -0.16548678235E+03 -0.72395857218E+02  0.18271612265E+03  0.25693037334E+03  0.99999687468E+00 0.  0.
          4    1    3    3  502    0  0.15645454943E+03  0.12183075364E+03  0.41337237149E+02  0.20255746282E+03  0.00000000000E+00 0.  1.
   -9000007    1    1    2    0  501  0.90322329261E+01 -0.49434896422E+02  0.53984316228E+03  0.67376259177E+03  0.40000000000E+03 0. -1.
<mgrwt>
<rscale>  2 0.40215085E+03</rscale>
<asrwt>0</asrwt>
<pdfrwt beam="1">  1        2 0.14593438E+00 0.40215085E+03</pdfrwt>
<pdfrwt beam="2">  1       -2 0.28411839E-01 0.40215085E+03</pdfrwt>
<totfact> 0.31769128E+02</totfact>
</mgrwt>
</event>
<event>
 6    1  0.9205235E-004  0.4485537E+03  0.7818608E-02  0.1028154E+00
          2   -1    0    0  502    0  0.00000000000E+00  0.00000000000E+00  0.11979423582E+04  0.11979423582E+04  0.00000000000E+00 0.  1.
         -2   -1    0    0    0  501 -0.00000000000E+00 -0.00000000000E+00 -0.17746631327E+03  0.17746631327E+03  0.00000000000E+00 0. -1.
    9000007    2    1    2  502    0 -0.17305402778E+03  0.10754257852E+03  0.66906954095E+03  0.80532128013E+03  0.39921824969E+03 0.  0.
    9000005    1    3    3    0    0 -0.22493809270E+03  0.15470325781E+03  0.68146823769E+03  0.73411865697E+03  0.99999687468E+00 0.  0.
          4    1    3    3  502    0  0.51884064924E+02 -0.47160679294E+02 -0.12398696747E+02  0.71202623165E+02  0.00000000000E+00 0.  1.
   -9000007    1    1    2    0  501  0.17305402778E+03 -0.10754257852E+03  0.35140650397E+03  0.57008739133E+03  0.40000000000E+03 0.  1.
<mgrwt>
<rscale>  2 0.44855375E+03</rscale>
<asrwt>0</asrwt>
<pdfrwt beam="1">  1        2 0.18429882E+00 0.44855375E+03</pdfrwt>
<pdfrwt beam="2">  1       -2 0.27302511E-01 0.44855375E+03</pdfrwt>
<totfact> 0.23990697E+02</totfact>
</mgrwt>
</event>
<event>
 6    1  0.9205235E-004  0.4531432E+03  0.7818608E-02  0.1026789E+00
          1   -1    0    0  502    0  0.00000000000E+00  0.00000000000E+00  0.92883976184E+03  0.92883976184E+03  0.00000000000E+00 0. -1.
         -1   -1    0    0    0  501 -0.00000000000E+00 -0.00000000000E+00 -0.30172244574E+03  0.30172244574E+03  0.00000000000E+00 0.  1.
    9000007    2    1    2  502    0  0.13422088293E+03 -0.16424126442E+03 -0.43564077664E+01  0.45354901446E+03  0.40087066727E+03 0.  0.
    9000005    1    3    3    0    0  0.14346120767E+03 -0.27884775497E+03  0.63622578889E+02  0.31997815722E+03  0.99999687468E+00 0.  0.
          4    1    3    3  502    0 -0.92403247386E+01  0.11460649055E+03 -0.67978986656E+02  0.13357085724E+03  0.00000000000E+00 0.  1.
   -9000007    1    1    2    0  501 -0.13422088293E+03  0.16424126442E+03  0.63147372387E+03  0.77701319313E+03  0.40000000000E+03 0. -1.
<mgrwt>
<rscale>  2 0.45314323E+03</rscale>
<asrwt>0</asrwt>
<pdfrwt beam="1">  1        1 0.14289842E+00 0.45314323E+03</pdfrwt>
<pdfrwt beam="2">  1       -1 0.46418838E-01 0.45314323E+03</pdfrwt>
<totfact> 0.83892345E+01</totfact>
</mgrwt>
</event>
<event>
 6    1  0.9205235E-004  0.4199808E+03  0.7818608E-02  0.1037073E+00
          2   -1    0    0  502    0  0.00000000000E+00  0.00000000000E+00  0.73104459527E+03  0.73104459527E+03  0.00000000000E+00 0. -1.
         -2   -1    0    0    0  501 -0.00000000000E+00 -0.00000000000E+00 -0.24127682129E+03  0.24127682129E+03  0.00000000000E+00 0.  1.
    9000007    2    1    2  502    0  0.12578951365E+03  0.25189310587E+02  0.24428507992E+03  0.48578338496E+03  0.39981594980E+03 0.  0.
    9000005    1    3    3    0    0  0.18048985125E+03 -0.12199141901E+02  0.33066657093E+03  0.37691747982E+03  0.99999687468E+00 0.  0.
          4    1    3    3  502    0 -0.54700337601E+02  0.37388452488E+02 -0.86381491007E+02  0.10886590514E+03  0.00000000000E+00 0.  1.
   -9000007    1    1    2    0  501 -0.12578951365E+03 -0.25189310587E+02  0.24548269406E+03  0.48653803160E+03  0.40000000000E+03 0.  1.
<mgrwt>
<rscale>  2 0.41998081E+03</rscale>
<asrwt>0</asrwt>
<pdfrwt beam="1">  1        2 0.11246840E+00 0.41998081E+03</pdfrwt>
<pdfrwt beam="2">  1       -2 0.37119511E-01 0.41998081E+03</pdfrwt>
<totfact> 0.27216382E+02</totfact>
</mgrwt>
</event>
<event>
 6    1  0.9205235E-004  0.4751759E+03  0.7818608E-02  0.1020469E+00
          1   -1    0    0  502    0  0.00000000000E+00  0.00000000000E+00  0.45172089826E+03  0.45172089826E+03  0.00000000000E+00 0.  1.
         -1   -1    0    0    0  501 -0.00000000000E+00 -0.00000000000E+00 -0.56941079211E+03  0.56941079211E+03  0.00000000000E+00 0. -1.
    9000007    2    1    2  502    0 -0.14863001531E+03 -0.20912907787E+03  0.11961251513E+03  0.48996478067E+03  0.39991559092E+03 0.  0.
    9000005    1    3    3    0    0 -0.10496070633E+03  0.10117928040E+02 -0.12168916506E+03  0.16102290281E+03  0.99999687468E+00 0.  0.
          4    1    3    3  502    0 -0.43669308983E+02 -0.21924700591E+03  0.24130168019E+03  0.32894187786E+03  0.00000000000E+00 0.  1.
   -9000007    1    1    2    0  501  0.14863001531E+03  0.20912907787E+03 -0.23730240897E+03  0.53116690971E+03  0.40000000000E+03 0. -1.
<mgrwt>
<rscale>  2 0.47517585E+03</rscale>
<asrwt>0</asrwt>
<pdfrwt beam="1">  1        1 0.69495523E-01 0.47517585E+03</pdfrwt>
<pdfrwt beam="2">  1       -1 0.87601661E-01 0.47517585E+03</pdfrwt>
<totfact> 0.68322460E+01</totfact>
</mgrwt>
</event>
<event>
 6    1  0.9205235E-004  0.4714247E+03  0.7818608E-02  0.1021519E+00
         -2   -1    0    0    0  501 -0.00000000000E+00  0.00000000000E+00  0.11165116236E+03  0.11165116236E+03  0.00000000000E+00 0. -1.
          2   -1    0    0  502    0  0.00000000000E+00 -0.00000000000E+00 -0.20115119423E+04  0.20115119423E+04  0.00000000000E+00 0.  1.
    9000007    2    1    2  502    0  0.10836106761E+03 -0.22475796644E+03 -0.10584019075E+04  0.11586366413E+04  0.39995750321E+03 0.  0.
    9000005    1    3    3    0    0  0.34438069900E+02  0.40480825917E+02  0.11061681903E+02  0.54295844460E+02  0.99999687468E+00 0.  0.
          4    1    3    3  502    0  0.73922997712E+02 -0.26523879236E+03 -0.10694635894E+04  0.11043407969E+04  0.00000000000E+00 0.  1.
   -9000007    1    1    2    0  501 -0.10836106761E+03  0.22475796644E+03 -0.84145887241E+03  0.96452646330E+03  0.40000000000E+03 0. -1.
<mgrwt>
<rscale>  2 0.47142472E+03</rscale>
<asrwt>0</asrwt>
<pdfrwt beam="1">  1        2 0.30946335E+00 0.47142472E+03</pdfrwt>
<pdfrwt beam="2">  1       -2 0.17177103E-01 0.47142472E+03</pdfrwt>
<totfact> 0.19349516E+02</totfact>
</mgrwt>
</event>
<event>
 6    1  0.9205235E-004  0.4828316E+03  0.7818608E-02  0.1018360E+00
          1   -1    0    0  502    0  0.00000000000E+00  0.00000000000E+00  0.91204627684E+03  0.91204627684E+03  0.00000000000E+00 0.  1.
         -1   -1    0    0    0  501 -0.00000000000E+00 -0.00000000000E+00 -0.26397615933E+03  0.26397615933E+03  0.00000000000E+00 0. -1.
    9000007    2    1    2  502    0  0.16350671064E+03  0.21382506725E+03  0.42917647050E+03  0.64652264155E+03  0.40167583870E+03 0.  0.
    9000005    1    3    3    0    0  0.30575626499E+02  0.26879410311E+03  0.10199943172E+03  0.28911939207E+03  0.99999687468E+00 0.  0.
          4    1    3    3  502    0  0.13293108414E+03 -0.54969035862E+02  0.32717703879E+03  0.35740324949E+03  0.00000000000E+00 0.  1.
   -9000007    1    1    2    0  501 -0.16350671064E+03 -0.21382506725E+03  0.21889364701E+03  0.52949979463E+03  0.40000000000E+03 0. -1.
<mgrwt>
<rscale>  2 0.48283162E+03</rscale>
<asrwt>0</asrwt>
<pdfrwt beam="1">  1        1 0.14031481E+00 0.48283162E+03</pdfrwt>
<pdfrwt beam="2">  1       -1 0.40611717E-01 0.48283162E+03</pdfrwt>
<totfact> 0.11003534E+02</totfact>
</mgrwt>
</event>
<event>
 6    1  0.9205235E-004  0.4432765E+03  0.7818608E-02  0.1029746E+00
          2   -1    0    0  502    0  0.00000000000E+00  0.00000000000E+00  0.38727756403E+03  0.38727756403E+03  0.00000000000E+00 0.  1.
         -2   -1    0    0    0  501 -0.00000000000E+00 -0.00000000000E+00 -0.51257769565E+03  0.51257769565E+03  0.00000000000E+00 0. -1.
    9000007    2    1    2  502    0 -0.19080442686E+03  0.14423357832E+02 -0.17291865701E+02  0.44347806035E+03  0.39969916041E+03 0.  0.
    9000005    1    3    3    0    0  0.82310268780E+02 -0.97998516268E+02 -0.66228075937E+02  0.14410360014E+03  0.99999687468E+00 0.  0.
          4    1    3    3  502    0 -0.27311469564E+03  0.11242187410E+03  0.48936210237E+02  0.29937446021E+03  0.00000000000E+00 0.  1.
   -9000007    1    1    2    0  501  0.19080442686E+03 -0.14423357832E+02 -0.10800826592E+03  0.45637719933E+03  0.40000000000E+03 0. -1.
<mgrwt>
<rscale>  2 0.44327648E+03</rscale>
<asrwt>0</asrwt>
<pdfrwt beam="1">  1        2 0.59581163E-01 0.44327648E+03</pdfrwt>
<pdfrwt beam="2">  1       -2 0.78858107E-01 0.44327648E+03</pdfrwt>
<totfact> 0.12100669E+02</totfact>
</mgrwt>
</event>
<event>
 6    1  0.9205235E-004  0.4216551E+03  0.7818608E-02  0.1036529E+00
         -2   -1    0    0    0  501 -0.00000000000E+00  0.00000000000E+00  0.57907764453E+02  0.57907764453E+02  0.00000000000E+00 0.  1.
          2   -1    0    0  502    0  0.00000000000E+00 -0.00000000000E+00 -0.34458975953E+04  0.34458975953E+04  0.00000000000E+00 0. -1.
    9000007    2    1    2  502    0  0.45298099517E+01 -0.13273106258E+03 -0.11162489631E+04  0.11932979211E+04  0.40038747057E+03 0.  0.
    9000005    1    3    3    0    0 -0.75407669551E+01 -0.25564025634E+03 -0.46736961247E+03  0.53277026802E+03  0.99999687468E+00 0.  0.
          4    1    3    3  502    0  0.12070576907E+02  0.12290919376E+03 -0.64887935064E+03  0.66052765304E+03  0.00000000000E+00 0.  1.
   -9000007    1    1    2    0  501 -0.45298099517E+01  0.13273106258E+03 -0.22717408678E+04  0.23105074387E+04  0.40000000000E+03 0. -1.
<mgrwt>
<rscale>  2 0.42165513E+03</rscale>
<asrwt>0</asrwt>
<pdfrwt beam="1">  1        2 0.53013806E+00 0.42165513E+03</pdfrwt>
<pdfrwt beam="2">  1       -2 0.89088874E-02 0.42165513E+03</pdfrwt>
<totfact> 0.83833055E+01</totfact>
</mgrwt>
</event>
<event>
 6    1  0.9205235E-004  0.4496069E+03  0.7818608E-02  0.1027839E+00
         -3   -1    0    0    0  501 -0.00000000000E+00  0.00000000000E+00  0.41404929668E+03  0.41404929668E+03  0.00000000000E+00 0. -1.
          3   -1    0    0  502    0  0.00000000000E+00 -0.00000000000E+00 -0.53624405391E+03  0.53624405391E+03  0.00000000000E+00 0.  1.
    9000007    2    1    2  502    0 -0.19658229209E+03  0.58609772587E+02 -0.20330165369E+03  0.49350233529E+03  0.40016657724E+03 0.  0.
    9000005    1    3    3    0    0 -0.12173471164E+03 -0.89126564405E+02  0.75887956832E+02  0.16888714127E+03  0.99999687468E+00 0.  0.
          4    1    3    3  502    0 -0.74847580447E+02  0.14773633699E+03 -0.27918961052E+03  0.32461519402E+03  0.00000000000E+00 0.  1.
   -9000007    1    1    2    0  501  0.19658229209E+03 -0.58609772587E+02  0.81106896457E+02  0.45679101530E+03  0.40000000000E+03 0. -1.
<mgrwt>
<rscale>  2 0.44960687E+03</rscale>
<asrwt>0</asrwt>
<pdfrwt beam="1">  1        3 0.82499086E-01 0.44960687E+03</pdfrwt>
<pdfrwt beam="2">  1       -3 0.63699891E-01 0.44960687E+03</pdfrwt>
<totfact> 0.84639502E+00</totfact>
</mgrwt>
</event>
<event>
 6    1  0.9205235E-004  0.4301758E+03  0.7818608E-02  0.1033804E+00
          1   -1    0    0  502    0  0.00000000000E+00  0.00000000000E+00  0.13403882400E+03  0.13403882400E+03  0.00000000000E+00 0.  1.
         -1   -1    0    0    0  501 -0.00000000000E+00 -0.00000000000E+00 -0.14382546395E+04  0.14382546395E+04  0.00000000000E+00 0. -1.
    9000007    2    1    2  502    0  0.11240472365E+03 -0.11119218640E+03 -0.80962450407E+03  0.91684011690E+03  0.40013177599E+03 0.  0.
    9000005    1    3    3    0    0 -0.97261160899E+02 -0.17213718789E+03 -0.50261702917E+03  0.54010723276E+03  0.99999687468E+00 0.  0.
          4    1    3    3  502    0  0.20966588455E+03  0.60945001492E+02 -0.30700747490E+03  0.37673288414E+03  0.00000000000E+00 0.  1.
   -9000007    1    1    2    0  501 -0.11240472365E+03  0.11119218640E+03 -0.49459131138E+03  0.65545334656E+03  0.40000000000E+03 0.  1.
<mgrwt>
<rscale>  2 0.43017582E+03</rscale>
<asrwt>0</asrwt>
<pdfrwt beam="1">  1        1 0.20621357E-01 0.43017582E+03</pdfrwt>
<pdfrwt beam="2">  1       -1 0.22126995E+00 0.43017582E+03</pdfrwt>
<totfact> 0.28969016E+01</totfact>
</mgrwt>
</event>
<event>
 6    1  0.9205235E-004  0.6510465E+03  0.7818608E-02  0.9804818E-01
          1   -1    0    0  502    0  0.00000000000E+00  0.00000000000E+00  0.42770903280E+03  0.42770903280E+03  0.00000000000E+00 0.  1.
         -1   -1    0    0    0  501 -0.00000000000E+00 -0.00000000000E+00 -0.99387700688E+03  0.99387700688E+03  0.00000000000E+00 0. -1.
    9000007    2    1    2  502    0 -0.10208394740E+03  0.50330165292E+03 -0.32134010133E+03  0.72611902147E+03  0.40031948050E+03 0.  0.
    9000005    1    3    3    0    0 -0.24827578592E+03  0.31186919935E+03 -0.26522381526E+03  0.47879842894E+03  0.99999687468E+00 0.  0.
          4    1    3    3  502    0  0.14619183852E+03  0.19143245356E+03 -0.56116286065E+02  0.24732059253E+03  0.00000000000E+00 0.  1.
   -9000007    1    1    2    0  501  0.10208394740E+03 -0.50330165292E+03 -0.24482787275E+03  0.69546701821E+03  0.40000000000E+03 0. -1.
<mgrwt>
<rscale>  2 0.65104647E+03</rscale>
<asrwt>0</asrwt>
<pdfrwt beam="1">  1        1 0.65801390E-01 0.65104647E+03</pdfrwt>
<pdfrwt beam="2">  1       -1 0.15290415E+00 0.65104647E+03</pdfrwt>
<totfact> 0.18856491E+01</totfact>
</mgrwt>
</event>
<event>
 6    1  0.9205235E-004  0.4746837E+03  0.7818608E-02  0.1020607E+00
          2   -1    0    0  502    0  0.00000000000E+00  0.00000000000E+00  0.74686685768E+03  0.74686685768E+03  0.00000000000E+00 0. -1.
         -2   -1    0    0    0  501 -0.00000000000E+00 -0.00000000000E+00 -0.30178610278E+03  0.30178610278E+03  0.00000000000E+00 0.  1.
    9000007    2    1    2  502    0 -0.11776093778E+03  0.22680479600E+03  0.21334463450E+03  0.52043928830E+03  0.40004133010E+03 0.  0.
    9000005    1    3    3    0    0 -0.19690717662E+02  0.27039522807E+03  0.28346341316E+03  0.39224203029E+03  0.99999687468E+00 0.  0.
          4    1    3    3  502    0 -0.98070220117E+02 -0.43590432073E+02 -0.70118778663E+02  0.12819725802E+03  0.00000000000E+00 0.  1.
   -9000007    1    1    2    0  501  0.11776093778E+03 -0.22680479600E+03  0.23173612041E+03  0.52821367216E+03  0.40000000000E+03 0.  1.
<mgrwt>
<rscale>  2 0.47468367E+03</rscale>
<asrwt>0</asrwt>
<pdfrwt beam="1">  1        2 0.11490259E+00 0.47468367E+03</pdfrwt>
<pdfrwt beam="2">  1       -2 0.46428631E-01 0.47468367E+03</pdfrwt>
<totfact> 0.17058432E+02</totfact>
</mgrwt>
</event>
<event>
 6    1  0.9205235E-004  0.5312932E+03  0.7818608E-02  0.1005919E+00
         -1   -1    0    0    0  501 -0.00000000000E+00  0.00000000000E+00  0.14115146500E+04  0.14115146500E+04  0.00000000000E+00 0.  1.
          1   -1    0    0  502    0  0.00000000000E+00 -0.00000000000E+00 -0.26633218793E+03  0.26633218793E+03  0.00000000000E+00 0. -1.
    9000007    2    1    2  502    0  0.12872584445E+02  0.34744176285E+03  0.99238723822E+03  0.11262782906E+04  0.40347103403E+03 0.  0.
    9000005    1    3    3    0    0  0.11065975431E+03  0.29104725861E+03  0.32758018338E+03  0.45195560015E+03  0.99999687468E+00 0.  0.
          4    1    3    3  502    0 -0.97787169864E+02  0.56394504242E+02  0.66480705484E+03  0.67432269046E+03  0.00000000000E+00 0.  1.
   -9000007    1    1    2    0  501 -0.12872584445E+02 -0.34744176285E+03  0.15279522388E+03  0.55156854737E+03  0.40000000000E+03 0. -1.
<mgrwt>
<rscale>  2 0.53129321E+03</rscale>
<asrwt>0</asrwt>
<pdfrwt beam="1">  1        1 0.40974183E-01 0.53129321E+03</pdfrwt>
<pdfrwt beam="2">  1       -1 0.21715610E+00 0.53129321E+03</pdfrwt>
<totfact> 0.12504654E+01</totfact>
</mgrwt>
</event>
<event>
 6    1  0.9205235E-004  0.4382263E+03  0.7818608E-02  0.1031292E+00
         -3   -1    0    0    0  501 -0.00000000000E+00  0.00000000000E+00  0.19294290455E+03  0.19294290455E+03  0.00000000000E+00 0. -1.
          3   -1    0    0  502    0  0.00000000000E+00 -0.00000000000E+00 -0.10779267459E+04  0.10779267459E+04  0.00000000000E+00 0.  1.
    9000007    2    1    2  502    0 -0.15937036730E+03  0.80935749569E+02 -0.26669610656E+03  0.51309050550E+03  0.40023186286E+03 0.  0.
    9000005    1    3    3    0    0 -0.22422020754E+03 -0.63681536584E+02 -0.26722379338E+03  0.35459779372E+03  0.99999687468E+00 0.  0.
          4    1    3    3  502    0  0.64849840239E+02  0.14461728615E+03  0.52768682057E+00  0.15849271178E+03  0.00000000000E+00 0.  1.
   -9000007    1    1    2    0  501  0.15937036730E+03 -0.80935749569E+02 -0.61828773484E+03  0.75777914499E+03  0.40000000000E+03 0.  1.
<mgrwt>
<rscale>  2 0.43822626E+03</rscale>
<asrwt>0</asrwt>
<pdfrwt beam="1">  1        3 0.16583489E+00 0.43822626E+03</pdfrwt>
<pdfrwt beam="2">  1       -3 0.29683524E-01 0.43822626E+03</pdfrwt>
<totfact> 0.72243446E+00</totfact>
</mgrwt>
</event>
<event>
 6    1  0.9205235E-004  0.4733327E+03  0.7818608E-02  0.1020984E+00
         -2   -1    0    0    0  501 -0.00000000000E+00  0.00000000000E+00  0.46838258981E+03  0.46838258981E+03  0.00000000000E+00 0.  1.
          2   -1    0    0  502    0  0.00000000000E+00 -0.00000000000E+00 -0.48007822324E+03  0.48007822324E+03  0.00000000000E+00 0. -1.
    9000007    2    1    2  502    0  0.23352749970E+03 -0.10140739815E+03  0.22725710206E+02  0.47306268262E+03  0.39806191763E+03 0.  0.
    9000005    1    3    3    0    0 -0.74179045944E+02 -0.70331020652E+02  0.11153282917E+03  0.15129294531E+03  0.99999687468E+00 0.  0.
          4    1    3    3  502    0  0.30770654564E+03 -0.31076377494E+02 -0.88807118967E+02  0.32176973731E+03  0.00000000000E+00 0.  1.
   -9000007    1    1    2    0  501 -0.23352749970E+03  0.10140739815E+03 -0.34421343638E+02  0.47539813043E+03  0.40000000000E+03 0.  1.
<mgrwt>
<rscale>  2 0.47333272E+03</rscale>
<asrwt>0</asrwt>
<pdfrwt beam="1">  1        2 0.73858188E-01 0.47333272E+03</pdfrwt>
<pdfrwt beam="2">  1       -2 0.72058860E-01 0.47333272E+03</pdfrwt>
<totfact> 0.11575761E+02</totfact>
</mgrwt>
</event>
<event>
 6    1  0.9205235E-004  0.4520654E+03  0.7818608E-02  0.1027108E+00
         -2   -1    0    0    0  501 -0.00000000000E+00  0.00000000000E+00  0.16593758271E+03  0.16593758271E+03  0.00000000000E+00 0. -1.
          2   -1    0    0  502    0  0.00000000000E+00 -0.00000000000E+00 -0.12326566687E+04  0.12326566687E+04  0.00000000000E+00 0.  1.
    9000007    2    1    2  502    0  0.10375966491E+03  0.18281362606E+03 -0.51279048907E+03  0.68373497827E+03  0.40044043864E+03 0.  0.
    9000005    1    3    3    0    0 -0.66747705517E+02 -0.82177494629E+02 -0.35226772566E+02  0.11158101234E+03  0.99999687468E+00 0.  0.
          4    1    3    3  502    0  0.17050737043E+03  0.26499112069E+03 -0.47756371650E+03  0.57215396593E+03  0.00000000000E+00 0.  1.
   -9000007    1    1    2    0  501 -0.10375966491E+03 -0.18281362606E+03 -0.55392859697E+03  0.71485927319E+03  0.40000000000E+03 0.  1.
<mgrwt>
<rscale>  2 0.45206536E+03</rscale>
<asrwt>0</asrwt>
<pdfrwt beam="1">  1        2 0.18963949E+00 0.45206536E+03</pdfrwt>
<pdfrwt beam="2">  1       -2 0.25528859E-01 0.45206536E+03</pdfrwt>
<totfact> 0.25846264E+02</totfact>
</mgrwt>
</event>
<event>
 6    1  0.9205235E-004  0.4815468E+03  0.7818608E-02  0.1018711E+00
          2   -1    0    0  502    0  0.00000000000E+00  0.00000000000E+00  0.83365918009E+03  0.83365918009E+03  0.00000000000E+00 0.  1.
         -2   -1    0    0    0  501 -0.00000000000E+00 -0.00000000000E+00 -0.33122668676E+03  0.33122668676E+03  0.00000000000E+00 0. -1.
    9000007    2    1    2  502    0  0.25446430130E+03 -0.83842299223E+02  0.48440498144E+03  0.68311143523E+03  0.40026420665E+03 0.  0.
    9000005    1    3    3    0    0 -0.70303227644E+02 -0.91621785543E+02  0.21320454866E+02  0.11744214402E+03  0.99999687468E+00 0.  0.
          4    1    3    3  502    0  0.32476752895E+03  0.77794863197E+01  0.46308452657E+03  0.56566929121E+03  0.00000000000E+00 0.  1.
   -9000007    1    1    2    0  501 -0.25446430130E+03  0.83842299223E+02  0.18027511893E+02  0.48177443162E+03  0.40000000000E+03 0. -1.
<mgrwt>
<rscale>  2 0.48154678E+03</rscale>
<asrwt>0</asrwt>
<pdfrwt beam="1">  1        2 0.12825526E+00 0.48154678E+03</pdfrwt>
<pdfrwt beam="2">  1       -2 0.50957952E-01 0.48154678E+03</pdfrwt>
<totfact> 0.12256972E+02</totfact>
</mgrwt>
</event>
<event>
 6    1  0.9205235E-004  0.4844429E+03  0.7818608E-02  0.1017921E+00
         -1   -1    0    0    0  501 -0.00000000000E+00  0.00000000000E+00  0.69562088904E+03  0.69562088904E+03  0.00000000000E+00 0. -1.
          1   -1    0    0  502    0  0.00000000000E+00 -0.00000000000E+00 -0.75716255592E+03  0.75716255592E+03  0.00000000000E+00 0.  1.
    9000007    2    1    2  502    0 -0.15615109164E+03  0.22531386779E+03  0.51011031607E+03  0.70315987807E+03  0.39883803370E+03 0.  0.
    9000005    1    3    3    0    0 -0.16718793871E+02  0.25521600008E+03  0.11003615862E+03  0.27843074716E+03  0.99999687468E+00 0.  0.
          4    1    3    3  502    0 -0.13943229777E+03 -0.29902132298E+02  0.40007415745E+03  0.42472913091E+03  0.00000000000E+00 0.  1.
   -9000007    1    1    2    0  501  0.15615109164E+03 -0.22531386779E+03 -0.57165198295E+03  0.74962356690E+03  0.40000000000E+03 0.  1.
<mgrwt>
<rscale>  2 0.48444291E+03</rscale>
<asrwt>0</asrwt>
<pdfrwt beam="1">  1        1 0.11648655E+00 0.48444291E+03</pdfrwt>
<pdfrwt beam="2">  1       -1 0.10701860E+00 0.48444291E+03</pdfrwt>
<totfact> 0.20958053E+01</totfact>
</mgrwt>
</event>
<event>
 6    1  0.9205235E-004  0.7344360E+03  0.7818608E-02  0.9660089E-01
          1   -1    0    0  502    0  0.00000000000E+00  0.00000000000E+00  0.59615456696E+03  0.59615456696E+03  0.00000000000E+00 0.  1.
         -1   -1    0    0    0  501 -0.00000000000E+00 -0.00000000000E+00 -0.97893418252E+03  0.97893418252E+03  0.00000000000E+00 0. -1.
    9000007    2    1    2  502    0  0.50864542419E+03  0.34821365986E+03 -0.40802983156E+03  0.83982655552E+03  0.39855662013E+03 0.  0.
    9000005    1    3    3    0    0  0.43156143533E+03  0.43039588124E+03 -0.39523165813E+03  0.72642614947E+03  0.99999687468E+00 0.  0.
          4    1    3    3  502    0  0.77083988856E+02 -0.82182221377E+02 -0.12798173430E+02  0.11340040605E+03  0.00000000000E+00 0.  1.
   -9000007    1    1    2    0  501 -0.50864542419E+03 -0.34821365986E+03  0.25250215998E+02  0.73526219396E+03  0.40000000000E+03 0. -1.
<mgrwt>
<rscale>  2 0.73443604E+03</rscale>
<asrwt>0</asrwt>
<pdfrwt beam="1">  1        1 0.91716088E-01 0.73443604E+03</pdfrwt>
<pdfrwt beam="2">  1       -1 0.15060526E+00 0.73443604E+03</pdfrwt>
<totfact> 0.12302340E+01</totfact>
</mgrwt>
</event>
<event>
 6    1  0.9205235E-004  0.5053257E+03  0.7818608E-02  0.1012398E+00
         -1   -1    0    0    0  501 -0.00000000000E+00  0.00000000000E+00  0.13727922791E+04  0.13727922791E+04  0.00000000000E+00 0. -1.
          1   -1    0    0  502    0  0.00000000000E+00 -0.00000000000E+00 -0.19513797943E+03  0.19513797943E+03  0.00000000000E+00 0.  1.
    9000007    2    1    2  502    0  0.16216901835E+03 -0.26258625363E+03  0.75849064368E+03  0.91146357878E+03  0.40025925072E+03 0.  0.
    9000005    1    3    3    0    0  0.16951988459E+03 -0.29528733320E+03  0.79321327258E+03  0.86320327629E+03  0.99999687468E+00 0.  0.
          4    1    3    3  502    0 -0.73508662416E+01  0.32701079568E+02 -0.34722628893E+02  0.48260302492E+02  0.00000000000E+00 0.  1.
   -9000007    1    1    2    0  501 -0.16216901835E+03  0.26258625363E+03  0.41916365596E+03  0.65646667972E+03  0.40000000000E+03 0.  1.
<mgrwt>
<rscale>  2 0.50532568E+03</rscale>
<asrwt>0</asrwt>
<pdfrwt beam="1">  1        1 0.30021228E-01 0.50532568E+03</pdfrwt>
<pdfrwt beam="2">  1       -1 0.21119881E+00 0.50532568E+03</pdfrwt>
<totfact> 0.20506664E+01</totfact>
</mgrwt>
</event>
<event>
 6    1  0.9205235E-004  0.6829368E+03  0.7818608E-02  0.9746866E-01
         -4   -1    0    0    0  501 -0.00000000000E+00  0.00000000000E+00  0.26060492938E+03  0.26060492938E+03  0.00000000000E+00 0. -1.
          4   -1    0    0  502    0  0.00000000000E+00 -0.00000000000E+00 -0.18906633444E+04  0.18906633444E+04  0.00000000000E+00 0.  1.
    9000007    2    1    2  502    0  0.55307317625E+03 -0.21391460569E+02 -0.10636489144E+04  0.12640438065E+04  0.40013772481E+03 0.  0.
    9000005    1    3    3    0    0  0.46754735258E+03 -0.14383442252E+03 -0.58466498589E+03  0.76231424867E+03  0.99999687468E+00 0.  0.
          4    1    3    3  502    0  0.85525823673E+02  0.12244296195E+03 -0.47898392852E+03  0.50172955785E+03  0.00000000000E+00 0.  1.
   -9000007    1    1    2    0  501 -0.55307317625E+03  0.21391460569E+02 -0.56640950058E+03  0.88722446721E+03  0.40000000000E+03 0. -1.
<mgrwt>
<rscale>  2 0.68293677E+03</rscale>
<asrwt>0</asrwt>
<pdfrwt beam="1">  1        4 0.29087128E+00 0.68293677E+03</pdfrwt>
<pdfrwt beam="2">  1       -4 0.40093067E-01 0.68293677E+03</pdfrwt>
<totfact> 0.43310672E-01</totfact>
</mgrwt>
</event>
<event>
 6    1  0.9205235E-004  0.4120806E+03  0.7818608E-02  0.1039675E+00
         -2   -1    0    0    0  501 -0.00000000000E+00  0.00000000000E+00  0.11454917169E+04  0.11454917169E+04  0.00000000000E+00 0.  1.
          2   -1    0    0  502    0  0.00000000000E+00 -0.00000000000E+00 -0.14923659945E+03  0.14923659945E+03  0.00000000000E+00 0. -1.
    9000007    2    1    2  502    0 -0.25072768562E+02  0.94329046804E+02  0.44570498674E+03  0.60724590987E+03  0.40070942970E+03 0.  0.
    9000005    1    3    3    0    0 -0.65822069048E+02  0.21992768841E+03  0.12719601882E+03  0.26245106230E+03  0.99999687468E+00 0.  0.
          4    1    3    3  502    0  0.40749300486E+02 -0.12559864161E+03  0.31850896792E+03  0.34479484757E+03  0.00000000000E+00 0.  1.
   -9000007    1    1    2    0  501  0.25072768562E+02 -0.94329046804E+02  0.55055013073E+03  0.68748240650E+03  0.40000000000E+03 0. -1.
<mgrwt>
<rscale>  2 0.41208057E+03</rscale>
<asrwt>0</asrwt>
<pdfrwt beam="1">  1        2 0.22959478E-01 0.41208057E+03</pdfrwt>
<pdfrwt beam="2">  1       -2 0.17622949E+00 0.41208057E+03</pdfrwt>
<totfact> 0.48357923E+01</totfact>
</mgrwt>
</event>
<event>
 6    1  0.9205235E-004  0.4665161E+03  0.7818608E-02  0.1022908E+00
         -1   -1    0    0    0  501 -0.00000000000E+00  0.00000000000E+00  0.37172962011E+03  0.37172962011E+03  0.00000000000E+00 0.  1.
          1   -1    0    0  502    0  0.00000000000E+00 -0.00000000000E+00 -0.78578455810E+03  0.78578455810E+03  0.00000000000E+00 0. -1.
    9000007    2    1    2  502    0  0.11414597353E+03  0.21720121026E+03  0.86071309272E+02  0.47170667444E+03  0.39356479444E+03 0.  0.
    9000005    1    3    3    0    0 -0.14232800664E+03  0.69003602757E+02  0.75588633502E+02  0.17530944121E+03  0.99999687468E+00 0.  0.
          4    1    3    3  502    0  0.25647398018E+03  0.14819760751E+03  0.10482675770E+02  0.29639723323E+03  0.00000000000E+00 0.  1.
   -9000007    1    1    2    0  501 -0.11414597353E+03 -0.21720121026E+03 -0.50012624727E+03  0.68580750376E+03  0.40000000000E+03 0. -1.
<mgrwt>
<rscale>  2 0.46651615E+03</rscale>
<asrwt>0</asrwt>
<pdfrwt beam="1">  1        1 0.12088993E+00 0.46651615E+03</pdfrwt>
<pdfrwt beam="2">  1       -1 0.57189174E-01 0.46651615E+03</pdfrwt>
<totfact> 0.74064232E+01</totfact>
</mgrwt>
</event>
<event>
 6    1  0.9205235E-004  0.4765819E+03  0.7818608E-02  0.1020079E+00
         -2   -1    0    0    0  501 -0.00000000000E+00  0.00000000000E+00  0.89502850812E+03  0.89502850812E+03  0.00000000000E+00 0.  1.
          2   -1    0    0  502    0  0.00000000000E+00 -0.00000000000E+00 -0.39235098708E+03  0.39235098708E+03  0.00000000000E+00 0. -1.
    9000007    2    1    2  502    0 -0.23954238407E+03 -0.98830819045E+02  0.63388655799E+03  0.79304772813E+03  0.39995555518E+03 0.  0.
    9000005    1    3    3    0    0  0.99304900604E+02 -0.82009790174E+02  0.11255829343E+03  0.17104805869E+03  0.99999687468E+00 0.  0.
          4    1    3    3  502    0 -0.33884728468E+03 -0.16821028871E+02  0.52132826456E+03  0.62199966943E+03  0.00000000000E+00 0.  1.
   -9000007    1    1    2    0  501  0.23954238407E+03  0.98830819045E+02 -0.13120903695E+03  0.49433176707E+03  0.40000000000E+03 0. -1.
<mgrwt>
<rscale>  2 0.47658190E+03</rscale>
<asrwt>0</asrwt>
<pdfrwt beam="1">  1        2 0.60361691E-01 0.47658190E+03</pdfrwt>
<pdfrwt beam="2">  1       -2 0.13769669E+00 0.47658190E+03</pdfrwt>
<totfact> 0.31607588E+01</totfact>
</mgrwt>
</event>
<event>
 6    1  0.9205235E-004  0.5182150E+03  0.7818608E-02  0.1009131E+00
         -2   -1    0    0    0  501 -0.00000000000E+00  0.00000000000E+00  0.15579491581E+03  0.15579491581E+03  0.00000000000E+00 0. -1.
          2   -1    0    0  502    0  0.00000000000E+00 -0.00000000000E+00 -0.17289885096E+04  0.17289885096E+04  0.00000000000E+00 0.  1.
    9000007    2    1    2  502    0 -0.32867081165E+03  0.49838477510E+01 -0.73530887746E+03  0.89984680866E+03  0.40124281005E+03 0.  0.
    9000005    1    3    3    0    0 -0.40678070866E+03  0.14643058166E+02 -0.46344834817E+03  0.61682277479E+03  0.99999687468E+00 0.  0.
          4    1    3    3  502    0  0.78109897017E+02 -0.96592104147E+01 -0.27186052930E+03  0.28302403387E+03  0.00000000000E+00 0.  1.
   -9000007    1    1    2    0  501  0.32867081165E+03 -0.49838477510E+01 -0.83788471635E+03  0.98493661677E+03  0.40000000000E+03 0.  1.
<mgrwt>
<rscale>  2 0.51821499E+03</rscale>
<asrwt>0</asrwt>
<pdfrwt beam="1">  1        2 0.26599823E+00 0.51821499E+03</pdfrwt>
<pdfrwt beam="2">  1       -2 0.23968449E-01 0.51821499E+03</pdfrwt>
<totfact> 0.15271239E+02</totfact>
</mgrwt>
</event>
<event>
 6    1  0.9205235E-004  0.5191131E+03  0.7818608E-02  0.1008907E+00
         -2   -1    0    0    0  501 -0.00000000000E+00  0.00000000000E+00  0.23935700475E+03  0.23935700475E+03  0.00000000000E+00 0. -1.
          2   -1    0    0  502    0  0.00000000000E+00 -0.00000000000E+00 -0.15276727158E+04  0.15276727158E+04  0.00000000000E+00 0.  1.
    9000007    2    1    2  502    0  0.23740165794E+03  0.23096391540E+03 -0.19083284622E+03  0.55287465796E+03  0.39943627127E+03 0.  0.
    9000005    1    3    3    0    0  0.26887995352E+03  0.68624962532E+02  0.27642202577E+02  0.27887435566E+03  0.99999687468E+00 0.  0.
          4    1    3    3  502    0 -0.31478295583E+02  0.16233895287E+03 -0.21847504880E+03  0.27400030230E+03  0.00000000000E+00 0.  1.
   -9000007    1    1    2    0  501 -0.23740165794E+03 -0.23096391540E+03 -0.10974828648E+04  0.12141550626E+04  0.40000000000E+03 0.  1.
<mgrwt>
<rscale>  2 0.51911314E+03</rscale>
<asrwt>0</asrwt>
<pdfrwt beam="1">  1        2 0.23502657E+00 0.51911314E+03</pdfrwt>
<pdfrwt beam="2">  1       -2 0.36824154E-01 0.51911314E+03</pdfrwt>
<totfact> 0.89008640E+01</totfact>
</mgrwt>
</event>
<event>
 6    1  0.9205235E-004  0.6172154E+03  0.7818608E-02  0.9870320E-01
          2   -1    0    0  502    0  0.00000000000E+00  0.00000000000E+00  0.27583961088E+03  0.27583961088E+03  0.00000000000E+00 0. -1.
         -2   -1    0    0    0  501 -0.00000000000E+00 -0.00000000000E+00 -0.16022867312E+04  0.16022867312E+04  0.00000000000E+00 0.  1.
    9000007    2    1    2  502    0 -0.29158216334E+03 -0.36825995899E+03 -0.10123863153E+04  0.11858332361E+04  0.40079777570E+03 0.  0.
    9000005    1    3    3    0    0 -0.15502561225E+03  0.55277532219E+02 -0.36335541851E+03  0.39889435465E+03  0.99999687468E+00 0.  0.
          4    1    3    3  502    0 -0.13655655110E+03 -0.42353749121E+03 -0.64903089677E+03  0.78693888140E+03  0.00000000000E+00 0.  1.
   -9000007    1    1    2    0  501  0.29158216334E+03  0.36825995899E+03 -0.31406080504E+03  0.69229310601E+03  0.40000000000E+03 0. -1.
<mgrwt>
<rscale>  2 0.61721540E+03</rscale>
<asrwt>0</asrwt>
<pdfrwt beam="1">  1        2 0.42436863E-01 0.61721540E+03</pdfrwt>
<pdfrwt beam="2">  1       -2 0.24650565E+00 0.61721540E+03</pdfrwt>
<totfact> 0.84890237E+00</totfact>
</mgrwt>
</event>
<event>
 6    1  0.9205235E-004  0.4267467E+03  0.7818608E-02  0.1034893E+00
          1   -1    0    0  502    0  0.00000000000E+00  0.00000000000E+00  0.83982297200E+03  0.83982297200E+03  0.00000000000E+00 0.  1.
         -1   -1    0    0    0  501 -0.00000000000E+00 -0.00000000000E+00 -0.24808703728E+03  0.24808703728E+03  0.00000000000E+00 0. -1.
    9000007    2    1    2  502    0  0.13999187131E+03  0.49460565669E+02  0.10288909338E+03  0.43905308679E+03  0.40017168302E+03 0.  0.
    9000005    1    3    3    0    0  0.18573487359E+03  0.13757767577E+03 -0.68418940889E+02  0.24105437478E+03  0.99999687468E+00 0.  0.
          4    1    3    3  502    0 -0.45743002281E+02 -0.88117110098E+02  0.17130803427E+03  0.19799871200E+03  0.00000000000E+00 0.  1.
   -9000007    1    1    2    0  501 -0.13999187131E+03 -0.49460565669E+02  0.48884684134E+03  0.64885692250E+03  0.40000000000E+03 0.  1.
<mgrwt>
<rscale>  2 0.42674670E+03</rscale>
<asrwt>0</asrwt>
<pdfrwt beam="1">  1        1 0.12920353E+00 0.42674670E+03</pdfrwt>
<pdfrwt beam="2">  1       -1 0.38167237E-01 0.42674670E+03</pdfrwt>
<totfact> 0.14176165E+02</totfact>
</mgrwt>
</event>
<event>
 6    1  0.9205235E-004  0.5012311E+03  0.7818608E-02  0.1013458E+00
          2   -1    0    0  502    0  0.00000000000E+00  0.00000000000E+00  0.66531958837E+03  0.66531958837E+03  0.00000000000E+00 0. -1.
         -2   -1    0    0    0  501 -0.00000000000E+00 -0.00000000000E+00 -0.37777121926E+03  0.37777121926E+03  0.00000000000E+00 0.  1.
    9000007    2    1    2  502    0  0.27805722839E+03 -0.11688659639E+03  0.15455157245E+03  0.52476036612E+03  0.40063568816E+03 0.  0.
    9000005    1    3    3    0    0  0.19644700124E+03 -0.92144659956E+02  0.29152212753E+03  0.36341190609E+03  0.99999687468E+00 0.  0.
          4    1    3    3  502    0  0.81610227153E+02 -0.24741936439E+02 -0.13697055508E+03  0.16134846003E+03  0.00000000000E+00 0.  1.
   -9000007    1    1    2    0  501 -0.27805722839E+03  0.11688659639E+03  0.13299679666E+03  0.51833044151E+03  0.40000000000E+03 0. -1.
<mgrwt>
<rscale>  2 0.50123113E+03</rscale>
<asrwt>0</asrwt>
<pdfrwt beam="1">  1        2 0.10235686E+00 0.50123113E+03</pdfrwt>
<pdfrwt beam="2">  1       -2 0.58118649E-01 0.50123113E+03</pdfrwt>
<totfact> 0.12442512E+02</totfact>
</mgrwt>
</event>
<event>
 6    1  0.9205235E-004  0.5926016E+03  0.7818608E-02  0.9920875E-01
         -1   -1    0    0    0  501 -0.00000000000E+00  0.00000000000E+00  0.89112971565E+03  0.89112971565E+03  0.00000000000E+00 0. -1.
          1   -1    0    0  502    0  0.00000000000E+00 -0.00000000000E+00 -0.45291809554E+03  0.45291809554E+03  0.00000000000E+00 0.  1.
    9000007    2    1    2  502    0 -0.30187610745E+03 -0.31613005891E+03  0.46135171064E+03  0.75108671450E+03  0.40027297361E+03 0.  0.
    9000005    1    3    3    0    0 -0.11443114639E+03 -0.36585089551E+03  0.38315578048E+03  0.54198774628E+03  0.99999687468E+00 0.  0.
          4    1    3    3  502    0 -0.18744496106E+03  0.49720836602E+02  0.78195930156E+02  0.20909896822E+03  0.00000000000E+00 0.  1.
   -9000007    1    1    2    0  501  0.30187610745E+03  0.31613005891E+03 -0.23140090532E+02  0.59296109669E+03  0.40000000000E+03 0.  1.
<mgrwt>
<rscale>  2 0.59260156E+03</rscale>
<asrwt>0</asrwt>
<pdfrwt beam="1">  1        1 0.69679707E-01 0.59260156E+03</pdfrwt>
<pdfrwt beam="2">  1       -1 0.13709688E+00 0.59260156E+03</pdfrwt>
<totfact> 0.23452909E+01</totfact>
</mgrwt>
</event>
<event>
 6    1  0.9205235E-004  0.4034000E+03  0.7818608E-02  0.1042609E+00
         -2   -1    0    0    0  501 -0.00000000000E+00  0.00000000000E+00  0.13862803660E+03  0.13862803660E+03  0.00000000000E+00 0. -1.
          2   -1    0    0  502    0  0.00000000000E+00 -0.00000000000E+00 -0.12044376225E+04  0.12044376225E+04  0.00000000000E+00 0.  1.
    9000007    2    1    2  502    0 -0.27892088039E+02  0.44855363186E+02 -0.42583399277E+03  0.58652171987E+03  0.39985393120E+03 0.  0.
    9000005    1    3    3    0    0  0.99022735456E+02  0.16307072255E+03 -0.95336948436E+02  0.21327844809E+03  0.99999687468E+00 0.  0.
          4    1    3    3  502    0 -0.12691482349E+03 -0.11821535937E+03 -0.33049704433E+03  0.37324327177E+03  0.00000000000E+00 0.  1.
   -9000007    1    1    2    0  501  0.27892088039E+02 -0.44855363186E+02 -0.63997559310E+03  0.75654393920E+03  0.40000000000E+03 0.  1.
<mgrwt>
<rscale>  2 0.40339998E+03</rscale>
<asrwt>0</asrwt>
<pdfrwt beam="1">  1        2 0.18529811E+00 0.40339998E+03</pdfrwt>
<pdfrwt beam="2">  1       -2 0.21327389E-01 0.40339998E+03</pdfrwt>
<totfact> 0.37058804E+02</totfact>
</mgrwt>
</event>
<event>
 6    1  0.9205235E-004  0.5181130E+03  0.7818608E-02  0.1009156E+00
         -1   -1    0    0    0  501 -0.00000000000E+00  0.00000000000E+00  0.60080370503E+03  0.60080370503E+03  0.00000000000E+00 0. -1.
          1   -1    0    0  502    0  0.00000000000E+00 -0.00000000000E+00 -0.50869209284E+03  0.50869209284E+03  0.00000000000E+00 0.  1.
    9000007    2    1    2  502    0 -0.32113061484E+03  0.47714048444E+02 -0.14718538524E+03  0.54146009901E+03  0.40757085149E+03 0.  0.
    9000005    1    3    3    0    0 -0.49624752384E+02  0.19153515495E+03 -0.12363530285E+03  0.23331313666E+03  0.99999687468E+00 0.  0.
          4    1    3    3  502    0 -0.27150586245E+03 -0.14382110651E+03 -0.23550082386E+02  0.30814696235E+03  0.00000000000E+00 0.  1.
   -9000007    1    1    2    0  501  0.32113061484E+03 -0.47714048444E+02  0.23929699743E+03  0.56803569886E+03  0.40000000000E+03 0. -1.
<mgrwt>
<rscale>  2 0.51811301E+03</rscale>
<asrwt>0</asrwt>
<pdfrwt beam="1">  1        1 0.78260323E-01 0.51811301E+03</pdfrwt>
<pdfrwt beam="2">  1       -1 0.92431339E-01 0.51811301E+03</pdfrwt>
<totfact> 0.51511088E+01</totfact>
</mgrwt>
</event>
<event>
 6    1  0.9205235E-004  0.8082758E+03  0.7818608E-02  0.9548115E-01
         -1   -1    0    0    0  501 -0.00000000000E+00  0.00000000000E+00  0.47460604992E+03  0.47460604992E+03  0.00000000000E+00 0. -1.
          1   -1    0    0  502    0  0.00000000000E+00 -0.00000000000E+00 -0.14930067020E+04  0.14930067020E+04  0.00000000000E+00 0.  1.
    9000007    2    1    2  502    0  0.19769553823E+03 -0.67397697468E+03 -0.78398130435E+03  0.11260184798E+04  0.39995305113E+03 0.  0.
    9000005    1    3    3    0    0 -0.10012177090E+03 -0.36431776370E+03 -0.39196618298E+03  0.54441738634E+03  0.99999687468E+00 0.  0.
          4    1    3    3  502    0  0.29781730913E+03 -0.30965921098E+03 -0.39201512138E+03  0.58160109349E+03  0.00000000000E+00 0.  1.
   -9000007    1    1    2    0  501 -0.19769553823E+03  0.67397697468E+03 -0.23441934775E+03  0.84159427210E+03  0.40000000000E+03 0. -1.
<mgrwt>
<rscale>  2 0.80827576E+03</rscale>
<asrwt>0</asrwt>
<pdfrwt beam="1">  1        1 0.22969333E+00 0.80827576E+03</pdfrwt>
<pdfrwt beam="2">  1       -1 0.73016317E-01 0.80827576E+03</pdfrwt>
<totfact> 0.12867726E+01</totfact>
</mgrwt>
</event>
<event>
 6    1  0.9205235E-004  0.4599791E+03  0.7818608E-02  0.1024787E+00
         -2   -1    0    0    0  501 -0.00000000000E+00  0.00000000000E+00  0.34945149993E+03  0.34945149993E+03  0.00000000000E+00 0. -1.
          2   -1    0    0  502    0  0.00000000000E+00 -0.00000000000E+00 -0.60807265576E+03  0.60807265576E+03  0.00000000000E+00 0.  1.
    9000007    2    1    2  502    0 -0.20888063693E+03 -0.96968421492E+02 -0.16017723681E+03  0.48558644747E+03  0.39636278272E+03 0.  0.
    9000005    1    3    3    0    0 -0.26611884088E+03  0.55861105411E+02 -0.23892583104E+02  0.27296804958E+03  0.99999687468E+00 0.  0.
          4    1    3    3  502    0  0.57238203954E+02 -0.15282952690E+03 -0.13628465370E+03  0.21261839789E+03  0.00000000000E+00 0.  1.
   -9000007    1    1    2    0  501  0.20888063693E+03  0.96968421492E+02 -0.98443919021E+02  0.47193770822E+03  0.40000000000E+03 0.  1.
<mgrwt>
<rscale>  2 0.45997909E+03</rscale>
<asrwt>0</asrwt>
<pdfrwt beam="1">  1        2 0.93549639E-01 0.45997909E+03</pdfrwt>
<pdfrwt beam="2">  1       -2 0.53761770E-01 0.45997909E+03</pdfrwt>
<totfact> 0.16351845E+02</totfact>
</mgrwt>
</event>
<event>
 6    1  0.9205235E-004  0.4896246E+03  0.7818608E-02  0.1016523E+00
          4   -1    0    0  502    0  0.00000000000E+00  0.00000000000E+00  0.44603319904E+03  0.44603319904E+03  0.00000000000E+00 0. -1.
         -4   -1    0    0    0  501 -0.00000000000E+00 -0.00000000000E+00 -0.62484273237E+03  0.62484273237E+03  0.00000000000E+00 0.  1.
    9000007    2    1    2  502    0 -0.50126988121E+02 -0.27748036472E+03 -0.28965547900E+03  0.56908425012E+03  0.40056025699E+03 0.  0.
    9000005    1    3    3    0    0 -0.21972979133E+03 -0.18673628560E+03 -0.22632932609E+03  0.36657548390E+03  0.99999687468E+00 0.  0.
          4    1    3    3  502    0  0.16960280321E+03 -0.90744079123E+02 -0.63326152909E+02  0.20250876622E+03  0.00000000000E+00 0.  1.
   -9000007    1    1    2    0  501  0.50126988121E+02  0.27748036472E+03  0.11084594567E+03  0.50179168129E+03  0.40000000000E+03 0. -1.
<mgrwt>
<rscale>  2 0.48962457E+03</rscale>
<asrwt>0</asrwt>
<pdfrwt beam="1">  1        4 0.68620492E-01 0.48962457E+03</pdfrwt>
<pdfrwt beam="2">  1       -4 0.96129651E-01 0.48962457E+03</pdfrwt>
<totfact> 0.34525346E+00</totfact>
</mgrwt>
</event>
<event>
 6    1  0.9205235E-004  0.4277870E+03  0.7818608E-02  0.1034561E+00
         -2   -1    0    0    0  501 -0.00000000000E+00  0.00000000000E+00  0.84406243319E+02  0.84406243319E+02  0.00000000000E+00 0.  1.
          2   -1    0    0  502    0  0.00000000000E+00 -0.00000000000E+00 -0.21752873429E+04  0.21752873429E+04  0.00000000000E+00 0. -1.
    9000007    2    1    2  502    0 -0.11033447024E+03 -0.11756613342E+03 -0.97272277580E+03  0.10612472887E+04  0.39250569183E+03 0.  0.
    9000005    1    3    3    0    0 -0.37771203975E+02 -0.50601114063E+02 -0.95955673168E+03  0.96163260027E+03  0.99999687468E+00 0.  0.
          4    1    3    3  502    0 -0.72563266267E+02 -0.66965019360E+02 -0.13166044120E+02  0.99614688409E+02  0.00000000000E+00 0.  1.
   -9000007    1    1    2    0  501  0.11033447024E+03  0.11756613342E+03 -0.11181583238E+04  0.11984462976E+04  0.40000000000E+03 0. -1.
<mgrwt>
<rscale>  2 0.42778705E+03</rscale>
<asrwt>0</asrwt>
<pdfrwt beam="1">  1        2 0.33465957E+00 0.42778705E+03</pdfrwt>
<pdfrwt beam="2">  1       -2 0.12985577E-01 0.42778705E+03</pdfrwt>
<totfact> 0.25401242E+02</totfact>
</mgrwt>
</event>
<event>
 6    1  0.9205235E-004  0.4177564E+03  0.7818608E-02  0.1037799E+00
         -2   -1    0    0    0  501 -0.00000000000E+00  0.00000000000E+00  0.71925839637E+03  0.71925839637E+03  0.00000000000E+00 0. -1.
          2   -1    0    0  502    0  0.00000000000E+00 -0.00000000000E+00 -0.28096833779E+03  0.28096833779E+03  0.00000000000E+00 0.  1.
    9000007    2    1    2  502    0  0.46741911417E+02  0.11144003348E+03  0.40381543979E+03  0.58095094583E+03  0.39979170164E+03 0.  0.
    9000005    1    3    3    0    0  0.47330774973E+02  0.23731199901E+03  0.38347640048E+03  0.45344496563E+03  0.99999687468E+00 0.  0.
          4    1    3    3  502    0 -0.58886355576E+00 -0.12587196553E+03  0.20339039311E+02  0.12750598020E+03  0.00000000000E+00 0.  1.
   -9000007    1    1    2    0  501 -0.46741911417E+02 -0.11144003348E+03  0.34474618795E+02  0.41927578834E+03  0.40000000000E+03 0.  1.
<mgrwt>
<rscale>  2 0.41775635E+03</rscale>
<asrwt>0</asrwt>
<pdfrwt beam="1">  1        2 0.43225898E-01 0.41775635E+03</pdfrwt>
<pdfrwt beam="2">  1       -2 0.11065514E+00 0.41775635E+03</pdfrwt>
<totfact> 0.78853415E+01</totfact>
</mgrwt>
</event>
<event>
 6    1  0.9205235E-004  0.5451866E+03  0.7818608E-02  0.1002614E+00
          2   -1    0    0  502    0  0.00000000000E+00  0.00000000000E+00  0.14684531669E+04  0.14684531669E+04  0.00000000000E+00 0. -1.
         -2   -1    0    0    0  501 -0.00000000000E+00 -0.00000000000E+00 -0.28257114598E+03  0.28257114598E+03  0.00000000000E+00 0.  1.
    9000007    2    1    2  502    0 -0.26677067462E+03  0.25740090290E+03  0.12648460011E+03  0.55949390502E+03  0.39951628007E+03 0.  0.
    9000005    1    3    3    0    0 -0.14221990660E+03  0.33235388737E+03  0.18094576572E+03  0.40426226439E+03  0.99999687468E+00 0.  0.
          4    1    3    3  502    0 -0.12455076802E+03 -0.74952984476E+02 -0.54461165602E+02  0.15523164063E+03  0.00000000000E+00 0.  1.
   -9000007    1    1    2    0  501  0.26677067462E+03 -0.25740090290E+03  0.10593974208E+04  0.11915304078E+04  0.40000000000E+03 0. -1.
<mgrwt>
<rscale>  2 0.54518656E+03</rscale>
<asrwt>0</asrwt>
<pdfrwt beam="1">  1        2 0.22591587E+00 0.54518656E+03</pdfrwt>
<pdfrwt beam="2">  1       -2 0.43472485E-01 0.54518656E+03</pdfrwt>
<totfact> 0.69288529E+01</totfact>
</mgrwt>
</event>
<event>
 6    1  0.9205235E-004  0.7471915E+03  0.7818608E-02  0.9639767E-01
          2   -1    0    0  502    0  0.00000000000E+00  0.00000000000E+00  0.20649908222E+04  0.20649908222E+04  0.00000000000E+00 0. -1.
         -2   -1    0    0    0  501 -0.00000000000E+00 -0.00000000000E+00 -0.31800146374E+03  0.31800146374E+03  0.00000000000E+00 0.  1.
    9000007    2    1    2  502    0 -0.60911640890E+03 -0.16529889765E+03  0.13346307844E+04  0.15295368865E+04  0.39987151860E+03 0.  0.
    9000005    1    3    3    0    0 -0.64529989750E+03 -0.99481372632E+02  0.12791738368E+04  0.14361738077E+04  0.99999687468E+00 0.  0.
          4    1    3    3  502    0  0.36183488601E+02 -0.65817525016E+02  0.55456947612E+02  0.93363078811E+02  0.00000000000E+00 0.  1.
   -9000007    1    1    2    0  501  0.60911640890E+03  0.16529889765E+03  0.41235857399E+03  0.85345539936E+03  0.40000000000E+03 0. -1.
<mgrwt>
<rscale>  2 0.74719150E+03</rscale>
<asrwt>0</asrwt>
<pdfrwt beam="1">  1        2 0.31769089E+00 0.74719150E+03</pdfrwt>
<pdfrwt beam="2">  1       -2 0.48923303E-01 0.74719150E+03</pdfrwt>
<totfact> 0.25167279E+01</totfact>
</mgrwt>
</event>
<event>
 6    1  0.9205235E-004  0.5063541E+03  0.7818608E-02  0.1012134E+00
         -2   -1    0    0    0  501 -0.00000000000E+00  0.00000000000E+00  0.18746334547E+03  0.18746334547E+03  0.00000000000E+00 0. -1.
          2   -1    0    0  502    0  0.00000000000E+00 -0.00000000000E+00 -0.14475735220E+04  0.14475735220E+04  0.00000000000E+00 0.  1.
    9000007    2    1    2  502    0  0.30396868631E+03 -0.56896665822E+02 -0.43891442563E+03  0.67067352612E+03  0.40189913258E+03 0.  0.
    9000005    1    3    3    0    0  0.40550341350E+02  0.16048791455E+03 -0.14716177378E+03  0.22149105751E+03  0.99999687468E+00 0.  0.
          4    1    3    3  502    0  0.26341834496E+03 -0.21738458037E+03 -0.29175265185E+03  0.44918246861E+03  0.00000000000E+00 0.  1.
   -9000007    1    1    2    0  501 -0.30396868631E+03  0.56896665822E+02 -0.82119575090E+03  0.96436334135E+03  0.40000000000E+03 0.  1.
<mgrwt>
<rscale>  2 0.50635414E+03</rscale>
<asrwt>0</asrwt>
<pdfrwt beam="1">  1        2 0.22270361E+00 0.50635414E+03</pdfrwt>
<pdfrwt beam="2">  1       -2 0.28840516E-01 0.50635414E+03</pdfrwt>
<totfact> 0.15585432E+02</totfact>
</mgrwt>
</event>
<event>
 6    1  0.9205235E-004  0.4279040E+03  0.7818608E-02  0.1034524E+00
          1   -1    0    0  502    0  0.00000000000E+00  0.00000000000E+00  0.87781366526E+03  0.87781366526E+03  0.00000000000E+00 0. -1.
         -1   -1    0    0    0  501 -0.00000000000E+00 -0.00000000000E+00 -0.21863265509E+03  0.21863265509E+03  0.00000000000E+00 0.  1.
    9000007    2    1    2  502    0  0.14221045763E+03  0.54688897774E+02  0.44699837029E+03  0.61870563496E+03  0.39971793792E+03 0.  0.
    9000005    1    3    3    0    0 -0.43790512339E+02  0.12373976390E+03  0.39115449419E+03  0.41259177944E+03  0.99999687468E+00 0.  0.
          4    1    3    3  502    0  0.18600096997E+03 -0.69050866124E+02  0.55843876097E+02  0.20611385552E+03  0.00000000000E+00 0.  1.
   -9000007    1    1    2    0  501 -0.14221045763E+03 -0.54688897774E+02  0.21218263988E+03  0.47774068538E+03  0.40000000000E+03 0. -1.
<mgrwt>
<rscale>  2 0.42790404E+03</rscale>
<asrwt>0</asrwt>
<pdfrwt beam="1">  1        1 0.13504825E+00 0.42790404E+03</pdfrwt>
<pdfrwt beam="2">  1       -1 0.33635794E-01 0.42790404E+03</pdfrwt>
<totfact> 0.16497019E+02</totfact>
</mgrwt>
</event>
<event>
 6    1  0.9205235E-004  0.4626205E+03  0.7818608E-02  0.1024024E+00
          1   -1    0    0  502    0  0.00000000000E+00  0.00000000000E+00  0.13314787948E+04  0.13314787948E+04  0.00000000000E+00 0. -1.
         -1   -1    0    0    0  501 -0.00000000000E+00 -0.00000000000E+00 -0.17297735861E+03  0.17297735861E+03  0.00000000000E+00 0.  1.
    9000007    2    1    2  502    0 -0.22010759985E+03 -0.73998142409E+02  0.77947290179E+03  0.90647144583E+03  0.40023667610E+03 0.  0.
    9000005    1    3    3    0    0 -0.10554894551E+03 -0.70387129300E+02  0.78160628708E+03  0.79183604103E+03  0.99999687468E+00 0.  0.
          4    1    3    3  502    0 -0.11455865435E+03 -0.36110131091E+01 -0.21333852992E+01  0.11463540480E+03  0.00000000000E+00 0.  1.
   -9000007    1    1    2    0  501  0.22010759985E+03  0.73998142409E+02  0.37902853436E+03  0.59798470754E+03  0.40000000000E+03 0.  1.
<mgrwt>
<rscale>  2 0.46262053E+03</rscale>
<asrwt>0</asrwt>
<pdfrwt beam="1">  1        1 0.20484289E+00 0.46262053E+03</pdfrwt>
<pdfrwt beam="2">  1       -1 0.26611902E-01 0.46262053E+03</pdfrwt>
<totfact> 0.11367577E+02</totfact>
</mgrwt>
</event>
<event>
 6    1  0.9205235E-004  0.4004558E+03  0.7818608E-02  0.1043622E+00
         -1   -1    0    0    0  501 -0.00000000000E+00  0.00000000000E+00  0.16189895643E+03  0.16189895643E+03  0.00000000000E+00 0.  1.
          1   -1    0    0  502    0  0.00000000000E+00 -0.00000000000E+00 -0.12022480478E+04  0.12022480478E+04  0.00000000000E+00 0. -1.
    9000007    2    1    2  502    0 -0.18501432931E+02 -0.10005955190E+02 -0.23383864675E+03  0.46364629938E+03  0.39980614809E+03 0.  0.
    9000005    1    3    3    0    0  0.17321225725E+03  0.47457683644E+01 -0.20627839020E+03  0.26940078440E+03  0.99999687468E+00 0.  0.
          4    1    3    3  502    0 -0.19171369018E+03 -0.14751723555E+02 -0.27560256552E+02  0.19424551498E+03  0.00000000000E+00 0.  1.
   -9000007    1    1    2    0  501  0.18501432931E+02  0.10005955190E+02 -0.80651044467E+03  0.90050070490E+03  0.40000000000E+03 0. -1.
<mgrwt>
<rscale>  2 0.40045584E+03</rscale>
<asrwt>0</asrwt>
<pdfrwt beam="1">  1        1 0.18496124E+00 0.40045584E+03</pdfrwt>
<pdfrwt beam="2">  1       -1 0.24907531E-01 0.40045584E+03</pdfrwt>
<totfact> 0.15798308E+02</totfact>
</mgrwt>
</event>
<event>
 6    1  0.9205235E-004  0.4503033E+03  0.7818608E-02  0.1027632E+00
         -1   -1    0    0    0  501 -0.00000000000E+00  0.00000000000E+00  0.55514320385E+03  0.55514320385E+03  0.00000000000E+00 0. -1.
          1   -1    0    0  502    0  0.00000000000E+00 -0.00000000000E+00 -0.39651532098E+03  0.39651532098E+03  0.00000000000E+00 0.  1.
    9000007    2    1    2  502    0  0.54269232050E+02 -0.19984567819E+03 -0.54293115175E+02  0.45344291283E+03  0.39972401504E+03 0.  0.
    9000005    1    3    3    0    0  0.39528223579E+02 -0.30657173536E+03  0.38180367620E+02  0.31146018983E+03  0.99999687468E+00 0.  0.
          4    1    3    3  502    0  0.14741008472E+02  0.10672605717E+03 -0.92473482796E+02  0.14198272300E+03  0.00000000000E+00 0.  1.
   -9000007    1    1    2    0  501 -0.54269232050E+02  0.19984567819E+03  0.21292099805E+03  0.49821561201E+03  0.40000000000E+03 0. -1.
<mgrwt>
<rscale>  2 0.45030330E+03</rscale>
<asrwt>0</asrwt>
<pdfrwt beam="1">  1        1 0.61002357E-01 0.45030330E+03</pdfrwt>
<pdfrwt beam="2">  1       -1 0.85406647E-01 0.45030330E+03</pdfrwt>
<totfact> 0.85940235E+01</totfact>
</mgrwt>
</event>
<event>
 6    1  0.9205235E-004  0.5512209E+03  0.7818608E-02  0.1001212E+00
          2   -1    0    0  502    0  0.00000000000E+00  0.00000000000E+00  0.12898604461E+04  0.12898604461E+04  0.00000000000E+00 0. -1.
         -2   -1    0    0    0  501 -0.00000000000E+00 -0.00000000000E+00 -0.31081520910E+03  0.31081520910E+03  0.00000000000E+00 0.  1.
    9000007    2    1    2  502    0 -0.21257299133E+03 -0.31391830394E+03  0.88339462659E+03  0.10413179723E+04  0.40028124481E+03 0.  0.
    9000005    1    3    3    0    0 -0.10288761794E+03 -0.22347277396E+03  0.86338168303E+03  0.89774989458E+03  0.99999687468E+00 0.  0.
          4    1    3    3  502    0 -0.10968537340E+03 -0.90445529982E+02  0.20012943563E+02  0.14356807772E+03  0.00000000000E+00 0.  1.
   -9000007    1    1    2    0  501  0.21257299133E+03  0.31391830394E+03  0.95650610443E+02  0.55935768295E+03  0.40000000000E+03 0.  1.
<mgrwt>
<rscale>  2 0.55122091E+03</rscale>
<asrwt>0</asrwt>
<pdfrwt beam="1">  1        2 0.19844007E+00 0.55122091E+03</pdfrwt>
<pdfrwt beam="2">  1       -2 0.47817725E-01 0.55122091E+03</pdfrwt>
<totfact> 0.72163133E+01</totfact>
</mgrwt>
</event>
<event>
 6    1  0.9205235E-004  0.6246862E+03  0.7818608E-02  0.9855473E-01
         -2   -1    0    0    0  501 -0.00000000000E+00  0.00000000000E+00  0.22989132127E+03  0.22989132127E+03  0.00000000000E+00 0.  1.
          2   -1    0    0  502    0  0.00000000000E+00 -0.00000000000E+00 -0.16984334841E+04  0.16984334841E+04  0.00000000000E+00 0. -1.
    9000007    2    1    2  502    0  0.32710905327E+03 -0.35144282832E+03 -0.71100847908E+03  0.94630154888E+03  0.39930085120E+03 0.  0.
    9000005    1    3    3    0    0  0.30590848459E+02 -0.29114205103E+03 -0.20735832182E+03  0.35874498952E+03  0.99999687468E+00 0.  0.
          4    1    3    3  502    0  0.29651820481E+03 -0.60300777295E+02 -0.50365015727E+03  0.58755655936E+03  0.00000000000E+00 0.  1.
   -9000007    1    1    2    0  501 -0.32710905327E+03  0.35144282832E+03 -0.75753368379E+03  0.98202325654E+03  0.40000000000E+03 0. -1.
<mgrwt>
<rscale>  2 0.62468622E+03</rscale>
<asrwt>0</asrwt>
<pdfrwt beam="1">  1        2 0.26129746E+00 0.62468622E+03</pdfrwt>
<pdfrwt beam="2">  1       -2 0.35367896E-01 0.62468622E+03</pdfrwt>
<totfact> 0.76513480E+01</totfact>
</mgrwt>
</event>
<event>
 6    1  0.9205235E-004  0.4755395E+03  0.7818608E-02  0.1020368E+00
         -1   -1    0    0    0  501 -0.00000000000E+00  0.00000000000E+00  0.15919833643E+03  0.15919833643E+03  0.00000000000E+00 0. -1.
          1   -1    0    0  502    0  0.00000000000E+00 -0.00000000000E+00 -0.15283989596E+04  0.15283989596E+04  0.00000000000E+00 0.  1.
    9000007    2    1    2  502    0  0.16768658419E+03  0.19396883333E+03 -0.90937456310E+03  0.10263993647E+04  0.40098735777E+03 0.  0.
    9000005    1    3    3    0    0  0.11722355753E+03 -0.27914128271E+02 -0.38830070834E+02  0.12660701162E+03  0.99999687468E+00 0.  0.
          4    1    3    3  502    0  0.50463026660E+02  0.22188296160E+03 -0.87054449227E+03  0.89979235312E+03  0.00000000000E+00 0.  1.
   -9000007    1    1    2    0  501 -0.16768658419E+03 -0.19396883333E+03 -0.45982606002E+03  0.66119793125E+03  0.40000000000E+03 0. -1.
<mgrwt>
<rscale>  2 0.47553947E+03</rscale>
<asrwt>0</asrwt>
<pdfrwt beam="1">  1        1 0.23513831E+00 0.47553947E+03</pdfrwt>
<pdfrwt beam="2">  1       -1 0.24492051E-01 0.47553947E+03</pdfrwt>
<totfact> 0.95845162E+01</totfact>
</mgrwt>
</event>
<event>
 6    1  0.9205235E-004  0.4961728E+03  0.7818608E-02  0.1014783E+00
         -1   -1    0    0    0  501 -0.00000000000E+00  0.00000000000E+00  0.50700770431E+03  0.50700770431E+03  0.00000000000E+00 0. -1.
          1   -1    0    0  502    0  0.00000000000E+00 -0.00000000000E+00 -0.83352545602E+03  0.83352545602E+03  0.00000000000E+00 0.  1.
    9000007    2    1    2  502    0 -0.23097964819E+03 -0.17697849613E+03 -0.59661049970E+03  0.77695257294E+03  0.40377992307E+03 0.  0.
    9000005    1    3    3    0    0  0.54546453917E+02 -0.18928542077E+03 -0.15377396664E+03  0.24990341927E+03  0.99999687468E+00 0.  0.
          4    1    3    3  502    0 -0.28552610211E+03  0.12306924633E+02 -0.44283653306E+03  0.52704915367E+03  0.00000000000E+00 0.  1.
   -9000007    1    1    2    0  501  0.23097964819E+03  0.17697849613E+03  0.27009274798E+03  0.56358058739E+03  0.40000000000E+03 0. -1.
<mgrwt>
<rscale>  2 0.49617276E+03</rscale>
<asrwt>0</asrwt>
<pdfrwt beam="1">  1        1 0.12823469E+00 0.49617276E+03</pdfrwt>
<pdfrwt beam="2">  1       -1 0.78001185E-01 0.49617276E+03</pdfrwt>
<totfact> 0.36030063E+01</totfact>
</mgrwt>
</event>
<event>
 6    1  0.9205235E-004  0.5364397E+03  0.7818608E-02  0.1004682E+00
         -2   -1    0    0    0  501 -0.00000000000E+00  0.00000000000E+00  0.20037821835E+03  0.20037821835E+03  0.00000000000E+00 0. -1.
          2   -1    0    0  502    0  0.00000000000E+00 -0.00000000000E+00 -0.14363856398E+04  0.14363856398E+04  0.00000000000E+00 0.  1.
    9000007    2    1    2  502    0  0.35606253885E+03 -0.30326511195E+02 -0.60698349905E+03  0.81010109510E+03  0.40016819878E+03 0.  0.
    9000005    1    3    3    0    0  0.34485667093E+03 -0.17708407015E+03 -0.46748949875E+03  0.60731566983E+03  0.99999687468E+00 0.  0.
          4    1    3    3  502    0  0.11205867922E+02  0.14675755895E+03 -0.13949400030E+03  0.20278542527E+03  0.00000000000E+00 0.  1.
   -9000007    1    1    2    0  501 -0.35606253885E+03  0.30326511195E+02 -0.62902392237E+03  0.82666276302E+03  0.40000000000E+03 0. -1.
<mgrwt>
<rscale>  2 0.53643967E+03</rscale>
<asrwt>0</asrwt>
<pdfrwt beam="1">  1        2 0.22098240E+00 0.53643967E+03</pdfrwt>
<pdfrwt beam="2">  1       -2 0.30827419E-01 0.53643967E+03</pdfrwt>
<totfact> 0.13934273E+02</totfact>
</mgrwt>
</event>
<event>
 6    1  0.9205235E-004  0.4380818E+03  0.7818608E-02  0.1031337E+00
         -2   -1    0    0    0  501 -0.00000000000E+00  0.00000000000E+00  0.78653054758E+02  0.78653054758E+02  0.00000000000E+00 0.  1.
          2   -1    0    0  502    0  0.00000000000E+00 -0.00000000000E+00 -0.24404628850E+04  0.24404628850E+04  0.00000000000E+00 0. -1.
    9000007    2    1    2  502    0  0.14402038354E+03  0.10468312023E+03 -0.11983625293E+04  0.12760109367E+04  0.40053805367E+03 0.  0.
    9000005    1    3    3    0    0  0.14767200488E+02  0.15099896141E+03 -0.10915805932E+04  0.11020743840E+04  0.99999687468E+00 0.  0.
          4    1    3    3  502    0  0.12925318305E+03 -0.46315841178E+02 -0.10678193611E+03  0.17393655266E+03  0.00000000000E+00 0.  1.
   -9000007    1    1    2    0  501 -0.14402038354E+03 -0.10468312023E+03 -0.11634473010E+04  0.12431050031E+04  0.40000000000E+03 0.  1.
<mgrwt>
<rscale>  2 0.43808181E+03</rscale>
<asrwt>0</asrwt>
<pdfrwt beam="1">  1        2 0.37545576E+00 0.43808181E+03</pdfrwt>
<pdfrwt beam="2">  1       -2 0.12100472E-01 0.43808181E+03</pdfrwt>
<totfact> 0.20402653E+02</totfact>
</mgrwt>
</event>
<event>
 6    1  0.9205235E-004  0.4111045E+03  0.7818608E-02  0.1040001E+00
          2   -1    0    0  502    0  0.00000000000E+00  0.00000000000E+00  0.29863551343E+04  0.29863551343E+04  0.00000000000E+00 0.  1.
         -2   -1    0    0    0  501 -0.00000000000E+00 -0.00000000000E+00 -0.58695075701E+02  0.58695075701E+02  0.00000000000E+00 0. -1.
    9000007    2    1    2  502    0  0.34632181768E+02  0.88573475098E+02  0.11755451303E+04  0.12453415195E+04  0.39990561192E+03 0.  0.
    9000005    1    3    3    0    0 -0.30629120635E+02  0.20967191701E+03  0.35568722166E+03  0.41402277167E+03  0.99999687468E+00 0.  0.
          4    1    3    3  502    0  0.65261302403E+02 -0.12109844191E+03  0.81985790863E+03  0.83131874787E+03  0.00000000000E+00 0.  1.
   -9000007    1    1    2    0  501 -0.34632181768E+02 -0.88573475098E+02  0.17521149283E+04  0.17997086905E+04  0.40000000000E+03 0.  1.
<mgrwt>
<rscale>  2 0.41110448E+03</rscale>
<asrwt>0</asrwt>
<pdfrwt beam="1">  1        2 0.45943913E+00 0.41110448E+03</pdfrwt>
<pdfrwt beam="2">  1       -2 0.90300139E-02 0.41110448E+03</pdfrwt>
<totfact> 0.15999037E+02</totfact>
</mgrwt>
</event>
<event>
 6    1  0.9205235E-004  0.4726529E+03  0.7818608E-02  0.1021174E+00
          2   -1    0    0  502    0  0.00000000000E+00  0.00000000000E+00  0.71331231064E+03  0.71331231064E+03  0.00000000000E+00 0. -1.
         -2   -1    0    0    0  501 -0.00000000000E+00 -0.00000000000E+00 -0.33453519291E+03  0.33453519291E+03  0.00000000000E+00 0.  1.
    9000007    2    1    2  502    0  0.15880618250E+03 -0.19548249469E+03  0.32172433640E+03  0.57173005040E+03  0.39991985768E+03 0.  0.
    9000005    1    3    3    0    0  0.18703427577E+03 -0.29915401132E+03  0.29770519365E+03  0.46163224013E+03  0.99999687468E+00 0.  0.
          4    1    3    3  502    0 -0.28228093272E+02  0.10367151663E+03  0.24019142744E+02  0.11009781027E+03  0.00000000000E+00 0.  1.
   -9000007    1    1    2    0  501 -0.15880618250E+03  0.19548249469E+03  0.57052781331E+02  0.47611745315E+03  0.40000000000E+03 0. -1.
<mgrwt>
<rscale>  2 0.47265289E+03</rscale>
<asrwt>0</asrwt>
<pdfrwt beam="1">  1        2 0.10974036E+00 0.47265289E+03</pdfrwt>
<pdfrwt beam="2">  1       -2 0.51466953E-01 0.47265289E+03</pdfrwt>
<totfact> 0.14694842E+02</totfact>
</mgrwt>
</event>
<event>
 6    1  0.9205235E-004  0.5846732E+03  0.7818608E-02  0.9937725E-01
         -1   -1    0    0    0  501 -0.00000000000E+00  0.00000000000E+00  0.10007395324E+04  0.10007395324E+04  0.00000000000E+00 0. -1.
          1   -1    0    0  502    0  0.00000000000E+00 -0.00000000000E+00 -0.34960063652E+03  0.34960063652E+03  0.00000000000E+00 0.  1.
    9000007    2    1    2  502    0  0.39455754098E+03  0.16118286226E+03  0.22345544149E+03  0.62606901431E+03  0.40046786152E+03 0.  0.
    9000005    1    3    3    0    0 -0.37271285236E+02 -0.46898577162E+02  0.12226735948E+03  0.13615774833E+03  0.99999687468E+00 0.  0.
          4    1    3    3  502    0  0.43182882622E+03  0.20808143942E+03  0.10118808201E+03  0.48991126597E+03  0.00000000000E+00 0.  1.
   -9000007    1    1    2    0  501 -0.39455754098E+03 -0.16118286226E+03  0.42768345436E+03  0.72427115459E+03  0.40000000000E+03 0.  1.
<mgrwt>
<rscale>  2 0.58467322E+03</rscale>
<asrwt>0</asrwt>
<pdfrwt beam="1">  1        1 0.53784714E-01 0.58467322E+03</pdfrwt>
<pdfrwt beam="2">  1       -1 0.15395993E+00 0.58467322E+03</pdfrwt>
<totfact> 0.24331694E+01</totfact>
</mgrwt>
</event>
<event>
 6    1  0.9205235E-004  0.4570526E+03  0.7818608E-02  0.1025640E+00
         -1   -1    0    0    0  501 -0.00000000000E+00  0.00000000000E+00  0.37656606576E+03  0.37656606576E+03  0.00000000000E+00 0. -1.
          1   -1    0    0  502    0  0.00000000000E+00 -0.00000000000E+00 -0.80984521146E+03  0.80984521146E+03  0.00000000000E+00 0.  1.
    9000007    2    1    2  502    0  0.22028203395E+03 -0.15361633751E+02 -0.54962521671E+03  0.71492791324E+03  0.40034221362E+03 0.  0.
    9000005    1    3    3    0    0 -0.43968640755E+02 -0.14575057862E+03 -0.26279764232E+03  0.30371050910E+03  0.99999687468E+00 0.  0.
          4    1    3    3  502    0  0.26425067471E+03  0.13038894487E+03 -0.28682757439E+03  0.41121740413E+03  0.00000000000E+00 0.  1.
   -9000007    1    1    2    0  501 -0.22028203395E+03  0.15361633751E+02  0.11634607101E+03  0.47148336399E+03  0.40000000000E+03 0. -1.
<mgrwt>
<rscale>  2 0.45705257E+03</rscale>
<asrwt>0</asrwt>
<pdfrwt beam="1">  1        1 0.12459157E+00 0.45705257E+03</pdfrwt>
<pdfrwt beam="2">  1       -1 0.57933241E-01 0.45705257E+03</pdfrwt>
<totfact> 0.68982808E+01</totfact>
</mgrwt>
</event>
<event>
 6    1  0.9205235E-004  0.7334468E+03  0.7818608E-02  0.9661684E-01
          2   -1    0    0  502    0  0.00000000000E+00  0.00000000000E+00  0.26721438154E+04  0.26721438154E+04  0.00000000000E+00 0.  1.
         -2   -1    0    0    0  501 -0.00000000000E+00 -0.00000000000E+00 -0.20251938412E+03  0.20251938412E+03  0.00000000000E+00 0. -1.
    9000007    2    1    2  502    0  0.51088858768E+03 -0.34016287294E+03  0.11254100890E+04  0.13437712611E+04  0.40305756980E+03 0.  0.
    9000005    1    3    3    0    0  0.30699632915E+03 -0.25003539661E+03  0.32301035551E+03  0.51098056268E+03  0.99999687468E+00 0.  0.
          4    1    3    3  502    0  0.20389225853E+03 -0.90127476328E+02  0.80239973344E+03  0.83279069838E+03  0.00000000000E+00 0.  1.
   -9000007    1    1    2    0  501 -0.51088858768E+03  0.34016287294E+03  0.13442143423E+04  0.15308919385E+04  0.40000000000E+03 0. -1.
<mgrwt>
<rscale>  2 0.73344682E+03</rscale>
<asrwt>0</asrwt>
<pdfrwt beam="1">  1        2 0.41109902E+00 0.73344682E+03</pdfrwt>
<pdfrwt beam="2">  1       -2 0.31156830E-01 0.73344682E+03</pdfrwt>
<totfact> 0.27688862E+01</totfact>
</mgrwt>
</event>
<event>
 6    1  0.9205235E-004  0.4095015E+03  0.7818608E-02  0.1040538E+00
         -2   -1    0    0    0  501 -0.00000000000E+00  0.00000000000E+00  0.12027763059E+03  0.12027763059E+03  0.00000000000E+00 0. -1.
          2   -1    0    0  502    0  0.00000000000E+00 -0.00000000000E+00 -0.14029515191E+04  0.14029515191E+04  0.00000000000E+00 0.  1.
    9000007    2    1    2  502    0 -0.95954295103E+01  0.81774617054E+02 -0.70318004906E+03  0.81429172636E+03  0.40228059107E+03 0.  0.
    9000005    1    3    3    0    0  0.11336178617E+03  0.20562860412E+03 -0.43492745542E+03  0.49426400725E+03  0.99999687468E+00 0.  0.
          4    1    3    3  502    0 -0.12295721568E+03 -0.12385398706E+03 -0.26825259364E+03  0.32002771911E+03  0.00000000000E+00 0.  1.
   -9000007    1    1    2    0  501  0.95954295103E+01 -0.81774617054E+02 -0.57949383949E+03  0.70893742338E+03  0.40000000000E+03 0.  1.
<mgrwt>
<rscale>  2 0.40950153E+03</rscale>
<asrwt>0</asrwt>
<pdfrwt beam="1">  1        2 0.21583869E+00 0.40950153E+03</pdfrwt>
<pdfrwt beam="2">  1       -2 0.18504251E-01 0.40950153E+03</pdfrwt>
<totfact> 0.36583005E+02</totfact>
</mgrwt>
</event>
<event>
 6    1  0.9205235E-004  0.4059263E+03  0.7818608E-02  0.1041747E+00
         -2   -1    0    0    0  501 -0.00000000000E+00  0.00000000000E+00  0.29422975637E+03  0.29422975637E+03  0.00000000000E+00 0.  1.
          2   -1    0    0  502    0  0.00000000000E+00 -0.00000000000E+00 -0.74677724292E+03  0.74677724292E+03  0.00000000000E+00 0. -1.
    9000007    2    1    2  502    0  0.47645611654E+00 -0.65161218122E+02 -0.48683763720E+03  0.63428593297E+03  0.40132474185E+03 0.  0.
    9000005    1    3    3    0    0 -0.18985452004E+03 -0.94587162126E+02 -0.28543261520E+03  0.35561812079E+03  0.99999687468E+00 0.  0.
          4    1    3    3  502    0  0.19033097615E+03  0.29425944003E+02 -0.20140502200E+03  0.27866781219E+03  0.00000000000E+00 0.  1.
   -9000007    1    1    2    0  501 -0.47645611654E+00  0.65161218122E+02  0.34290150643E+02  0.40672106632E+03  0.40000000000E+03 0.  1.
<mgrwt>
<rscale>  2 0.40592626E+03</rscale>
<asrwt>0</asrwt>
<pdfrwt beam="1">  1        2 0.11488881E+00 0.40592626E+03</pdfrwt>
<pdfrwt beam="2">  1       -2 0.45266116E-01 0.40592626E+03</pdfrwt>
<totfact> 0.18048190E+02</totfact>
</mgrwt>
</event>
<event>
 6    1  0.9205235E-004  0.4651483E+03  0.7818608E-02  0.1023299E+00
          2   -1    0    0  502    0  0.00000000000E+00  0.00000000000E+00  0.26135273470E+04  0.26135273470E+04  0.00000000000E+00 0.  1.
         -2   -1    0    0    0  501 -0.00000000000E+00 -0.00000000000E+00 -0.85295357220E+02  0.85295357220E+02  0.00000000000E+00 0. -1.
    9000007    2    1    2  502    0  0.23150317555E+03 -0.40500512268E+02  0.14987613300E+04  0.15696443077E+04  0.40281970738E+03 0.  0.
    9000005    1    3    3    0    0  0.32626045335E+03 -0.59758217365E+02  0.82825927769E+03  0.89220589498E+03  0.99999687468E+00 0.  0.
          4    1    3    3  502    0 -0.94757277793E+02  0.19257705098E+02  0.67050205228E+03  0.67743841271E+03  0.00000000000E+00 0.  1.
   -9000007    1    1    2    0  501 -0.23150317555E+03  0.40500512268E+02  0.10294706598E+04  0.11291783965E+04  0.40000000000E+03 0.  1.
<mgrwt>
<rscale>  2 0.46514827E+03</rscale>
<asrwt>0</asrwt>
<pdfrwt beam="1">  1        2 0.40208107E+00 0.46514827E+03</pdfrwt>
<pdfrwt beam="2">  1       -2 0.13122365E-01 0.46514827E+03</pdfrwt>
<totfact> 0.14215105E+02</totfact>
</mgrwt>
</event>
<event>
 6    1  0.9205235E-004  0.5809548E+03  0.7818608E-02  0.9945726E-01
         -2   -1    0    0    0  501 -0.00000000000E+00  0.00000000000E+00  0.54684120913E+03  0.54684120913E+03  0.00000000000E+00 0. -1.
          2   -1    0    0  502    0  0.00000000000E+00 -0.00000000000E+00 -0.61752528296E+03  0.61752528296E+03  0.00000000000E+00 0.  1.
    9000007    2    1    2  502    0  0.34599932297E+03 -0.23809236491E+03 -0.48799592653E+02  0.58395074778E+03  0.40275745785E+03 0.  0.
    9000005    1    3    3    0    0 -0.41363028515E+02 -0.11399076153E+03  0.93387300077E+02  0.15305875228E+03  0.99999687468E+00 0.  0.
          4    1    3    3  502    0  0.38736235149E+03 -0.12410160339E+03 -0.14218689273E+03  0.43089199549E+03  0.00000000000E+00 0.  1.
   -9000007    1    1    2    0  501 -0.34599932297E+03  0.23809236491E+03 -0.21884481182E+02  0.58041574431E+03  0.40000000000E+03 0.  1.
<mgrwt>
<rscale>  2 0.58095480E+03</rscale>
<asrwt>0</asrwt>
<pdfrwt beam="1">  1        2 0.95003889E-01 0.58095480E+03</pdfrwt>
<pdfrwt beam="2">  1       -2 0.84129417E-01 0.58095480E+03</pdfrwt>
<totfact> 0.60574755E+01</totfact>
</mgrwt>
</event>
<event>
 6    1  0.9205235E-004  0.4396904E+03  0.7818608E-02  0.1030842E+00
          3   -1    0    0  502    0  0.00000000000E+00  0.00000000000E+00  0.17308643806E+04  0.17308643806E+04  0.00000000000E+00 0.  1.
         -3   -1    0    0    0  501 -0.00000000000E+00 -0.00000000000E+00 -0.11274843952E+03  0.11274843952E+03  0.00000000000E+00 0. -1.
    9000007    2    1    2  502    0  0.16753961139E+03 -0.73164063116E+02  0.89799456670E+03  0.99981349839E+03  0.39976278996E+03 0.  0.
    9000005    1    3    3    0    0  0.15593035135E+02  0.15893413382E+03  0.27844956079E+03  0.32099588710E+03  0.99999687468E+00 0.  0.
          4    1    3    3  502    0  0.15194657625E+03 -0.23209819694E+03  0.61954500590E+03  0.67881761129E+03  0.00000000000E+00 0.  1.
   -9000007    1    1    2    0  501 -0.16753961139E+03  0.73164063116E+02  0.72012137439E+03  0.84379932174E+03  0.40000000000E+03 0. -1.
<mgrwt>
<rscale>  2 0.43969037E+03</rscale>
<asrwt>0</asrwt>
<pdfrwt beam="1">  1        3 0.26628681E+00 0.43969037E+03</pdfrwt>
<pdfrwt beam="2">  1       -3 0.17345915E-01 0.43969037E+03</pdfrwt>
<totfact> 0.47806782E+00</totfact>
</mgrwt>
</event>
<event>
 6    1  0.9205235E-004  0.4391290E+03  0.7818608E-02  0.1031014E+00
         -2   -1    0    0    0  501 -0.00000000000E+00  0.00000000000E+00  0.31974284482E+03  0.31974284482E+03  0.00000000000E+00 0.  1.
          2   -1    0    0  502    0  0.00000000000E+00 -0.00000000000E+00 -0.19529727655E+04  0.19529727655E+04  0.00000000000E+00 0. -1.
    9000007    2    1    2  502    0 -0.38527246602E+02 -0.17565596571E+03 -0.17616837160E+04  0.18157257368E+04  0.40123692394E+03 0.  0.
    9000005    1    3    3    0    0 -0.12385949376E+03 -0.14190439307E+03 -0.16868010800E+04  0.16972851600E+04  0.99999687468E+00 0.  0.
          4    1    3    3  502    0  0.85332247155E+02 -0.33751572646E+02 -0.74882636029E+02  0.11844057683E+03  0.00000000000E+00 0.  1.
   -9000007    1    1    2    0  501  0.38527246602E+02  0.17565596571E+03  0.12845379525E+03  0.45698987356E+03  0.40000000000E+03 0. -1.
<mgrwt>
<rscale>  2 0.43912898E+03</rscale>
<asrwt>0</asrwt>
<pdfrwt beam="1">  1        2 0.30045735E+00 0.43912898E+03</pdfrwt>
<pdfrwt beam="2">  1       -2 0.49191207E-01 0.43912898E+03</pdfrwt>
<totfact> 0.30192032E+01</totfact>
</mgrwt>
</event>
<event>
 6    1  0.9205235E-004  0.4635436E+03  0.7818608E-02  0.1023758E+00
          2   -1    0    0  502    0  0.00000000000E+00  0.00000000000E+00  0.11353343440E+04  0.11353343440E+04  0.00000000000E+00 0. -1.
         -2   -1    0    0    0  501 -0.00000000000E+00 -0.00000000000E+00 -0.18964876275E+03  0.18964876275E+03  0.00000000000E+00 0.  1.
    9000007    2    1    2  502    0 -0.10242582430E+03 -0.21075783656E+03  0.50282009492E+03  0.68385928553E+03  0.39990693842E+03 0.  0.
    9000005    1    3    3    0    0  0.13296695776E+03 -0.91722061380E+02  0.33308445863E+03  0.37018833716E+03  0.99999687468E+00 0.  0.
          4    1    3    3  502    0 -0.23539278206E+03 -0.11903577518E+03  0.16973563629E+03  0.31367094836E+03  0.00000000000E+00 0.  1.
   -9000007    1    1    2    0  501  0.10242582430E+03  0.21075783656E+03  0.44286548632E+03  0.64112382122E+03  0.40000000000E+03 0. -1.
<mgrwt>
<rscale>  2 0.46354362E+03</rscale>
<asrwt>0</asrwt>
<pdfrwt beam="1">  1        2 0.17466682E+00 0.46354362E+03</pdfrwt>
<pdfrwt beam="2">  1       -2 0.29176733E-01 0.46354362E+03</pdfrwt>
<totfact> 0.23100698E+02</totfact>
</mgrwt>
</event>
<event>
 6    1  0.9205235E-004  0.5143380E+03  0.7818608E-02  0.1010103E+00
          2   -1    0    0  502    0  0.00000000000E+00  0.00000000000E+00  0.20653132754E+03  0.20653132754E+03  0.00000000000E+00 0. -1.
         -2   -1    0    0    0  501 -0.00000000000E+00 -0.00000000000E+00 -0.14600041979E+04  0.14600041979E+04  0.00000000000E+00 0.  1.
    9000007    2    1    2  502    0 -0.28768416352E+03  0.14875758815E+03 -0.91823497871E+03  0.10523080090E+04  0.39913114589E+03 0.  0.
    9000005    1    3    3    0    0 -0.34539385442E+03  0.13838244508E+03 -0.46617793242E+03  0.59646414850E+03  0.99999687468E+00 0.  0.
          4    1    3    3  502    0  0.57709690899E+02  0.10375143078E+02 -0.45205704629E+03  0.45584386046E+03  0.00000000000E+00 0.  1.
   -9000007    1    1    2    0  501  0.28768416352E+03 -0.14875758815E+03 -0.33523789161E+03  0.61422751643E+03  0.40000000000E+03 0. -1.
<mgrwt>
<rscale>  2 0.51433803E+03</rscale>
<asrwt>0</asrwt>
<pdfrwt beam="1">  1        2 0.31774050E-01 0.51433803E+03</pdfrwt>
<pdfrwt beam="2">  1       -2 0.22461603E+00 0.51433803E+03</pdfrwt>
<totfact> 0.16132942E+01</totfact>
</mgrwt>
</event>
<event>
 6    1  0.9205235E-004  0.4279176E+03  0.7818608E-02  0.1034520E+00
         -2   -1    0    0    0  501 -0.00000000000E+00  0.00000000000E+00  0.26827732845E+03  0.26827732845E+03  0.00000000000E+00 0.  1.
          2   -1    0    0  502    0  0.00000000000E+00 -0.00000000000E+00 -0.77587205016E+03  0.77587205016E+03  0.00000000000E+00 0. -1.
    9000007    2    1    2  502    0 -0.11064939829E+03 -0.98302375287E+02 -0.73483650662E+02  0.43557804480E+03  0.40301580597E+03 0.  0.
    9000005    1    3    3    0    0 -0.12469628633E+03 -0.23366944184E+03 -0.12131600044E+03  0.29132309183E+03  0.99999687468E+00 0.  0.
          4    1    3    3  502    0  0.14046888037E+02  0.13536706655E+03  0.47832349781E+02  0.14425495297E+03  0.00000000000E+00 0.  1.
   -9000007    1    1    2    0  501  0.11064939829E+03  0.98302375287E+02 -0.43411107105E+03  0.60857133381E+03  0.40000000000E+03 0. -1.
<mgrwt>
<rscale>  2 0.42791765E+03</rscale>
<asrwt>0</asrwt>
<pdfrwt beam="1">  1        2 0.11936493E+00 0.42791765E+03</pdfrwt>
<pdfrwt beam="2">  1       -2 0.41273436E-01 0.42791765E+03</pdfrwt>
<totfact> 0.20561185E+02</totfact>
</mgrwt>
</event>
<event>
 6    1  0.9205235E-004  0.4970585E+03  0.7818608E-02  0.1014550E+00
          1   -1    0    0  502    0  0.00000000000E+00  0.00000000000E+00  0.42103054240E+03  0.42103054240E+03  0.00000000000E+00 0. -1.
         -1   -1    0    0    0  501 -0.00000000000E+00 -0.00000000000E+00 -0.59207161699E+03  0.59207161699E+03  0.00000000000E+00 0.  1.
    9000007    2    1    2  502    0  0.26561093483E+03 -0.12919790978E+03 -0.13321895879E+03  0.51443214723E+03  0.39956460620E+03 0.  0.
    9000005    1    3    3    0    0  0.31105599213E+03  0.42420801622E+02 -0.48287680283E+02  0.31762880019E+03  0.99999687468E+00 0.  0.
          4    1    3    3  502    0 -0.45445057300E+02 -0.17161871140E+03 -0.84931278510E+02  0.19680334704E+03  0.00000000000E+00 0.  1.
   -9000007    1    1    2    0  501 -0.26561093483E+03  0.12919790978E+03 -0.37822115790E+02  0.49867001217E+03  0.40000000000E+03 0. -1.
<mgrwt>
<rscale>  2 0.49705849E+03</rscale>
<asrwt>0</asrwt>
<pdfrwt beam="1">  1        1 0.64773930E-01 0.49705849E+03</pdfrwt>
<pdfrwt beam="2">  1       -1 0.91087941E-01 0.49705849E+03</pdfrwt>
<totfact> 0.68724231E+01</totfact>
</mgrwt>
</event>
<event>
 6    1  0.9205235E-004  0.4859972E+03  0.7818608E-02  0.1017500E+00
          2   -1    0    0  502    0  0.00000000000E+00  0.00000000000E+00  0.12030695139E+04  0.12030695139E+04  0.00000000000E+00 0.  1.
         -2   -1    0    0    0  501 -0.00000000000E+00 -0.00000000000E+00 -0.34993098960E+03  0.34993098960E+03  0.00000000000E+00 0. -1.
    9000007    2    1    2  502    0  0.27447043116E+03 -0.29235693130E+02 -0.87890962137E+02  0.49388519454E+03  0.40001127587E+03 0.  0.
    9000005    1    3    3    0    0  0.26352971655E+03 -0.17234845705E+03  0.18186075495E+02  0.31541026536E+03  0.99999687468E+00 0.  0.
          4    1    3    3  502    0  0.10940714605E+02  0.14311276392E+03 -0.10607703763E+03  0.17847492918E+03  0.00000000000E+00 0.  1.
   -9000007    1    1    2    0  501 -0.27447043116E+03  0.29235693130E+02  0.94102948648E+03  0.10591153090E+04  0.40000000000E+03 0.  1.
<mgrwt>
<rscale>  2 0.48599717E+03</rscale>
<asrwt>0</asrwt>
<pdfrwt beam="1">  1        2 0.18508762E+00 0.48599717E+03</pdfrwt>
<pdfrwt beam="2">  1       -2 0.53835537E-01 0.48599717E+03</pdfrwt>
<totfact> 0.64205383E+01</totfact>
</mgrwt>
</event>
<event>
 6    1  0.9205235E-004  0.4531988E+03  0.7818608E-02  0.1026772E+00
          3   -1    0    0  502    0  0.00000000000E+00  0.00000000000E+00  0.17829798828E+03  0.17829798828E+03  0.00000000000E+00 0. -1.
         -3   -1    0    0    0  501 -0.00000000000E+00 -0.00000000000E+00 -0.17915950480E+04  0.17915950480E+04  0.00000000000E+00 0.  1.
    9000007    2    1    2  502    0  0.33534201954E+01  0.21264172153E+03 -0.21832788270E+03  0.50320740126E+03  0.40040339304E+03 0.  0.
    9000005    1    3    3    0    0 -0.18961619843E+03  0.52420210378E+02 -0.56374887111E+02  0.20464923418E+03  0.99999687468E+00 0.  0.
          4    1    3    3  502    0  0.19296961862E+03  0.16022151115E+03 -0.16195299559E+03  0.29855816708E+03  0.00000000000E+00 0.  1.
   -9000007    1    1    2    0  501 -0.33534201954E+01 -0.21264172153E+03 -0.13949691770E+04  0.14666856350E+04  0.40000000000E+03 0.  1.
<mgrwt>
<rscale>  2 0.45319877E+03</rscale>
<asrwt>0</asrwt>
<pdfrwt beam="1">  1        3 0.27430460E-01 0.45319877E+03</pdfrwt>
<pdfrwt beam="2">  1       -3 0.27563001E+00 0.45319877E+03</pdfrwt>
<totfact> 0.18180067E+00</totfact>
</mgrwt>
</event>
<event>
 6    1  0.9205235E-004  0.4300119E+03  0.7818608E-02  0.1033856E+00
          1   -1    0    0  502    0  0.00000000000E+00  0.00000000000E+00  0.74257135293E+03  0.74257135293E+03  0.00000000000E+00 0. -1.
         -1   -1    0    0    0  501 -0.00000000000E+00 -0.00000000000E+00 -0.45416446759E+03  0.45416446759E+03  0.00000000000E+00 0.  1.
    9000007    2    1    2  502    0 -0.11533530530E+03  0.10466187880E+03 -0.25781516378E+03  0.50203094183E+03  0.40163424450E+03 0.  0.
    9000005    1    3    3    0    0 -0.17699002291E+03 -0.80223107335E+02 -0.21189680373E+02  0.19547689814E+03  0.99999687468E+00 0.  0.
          4    1    3    3  502    0  0.61654717614E+02  0.18488498614E+03 -0.23662548341E+03  0.30655404369E+03  0.00000000000E+00 0.  1.
   -9000007    1    1    2    0  501  0.11533530530E+03 -0.10466187880E+03  0.54622204912E+03  0.69470487869E+03  0.40000000000E+03 0. -1.
<mgrwt>
<rscale>  2 0.43001188E+03</rscale>
<asrwt>0</asrwt>
<pdfrwt beam="1">  1        1 0.11424175E+00 0.43001188E+03</pdfrwt>
<pdfrwt beam="2">  1       -1 0.69871457E-01 0.43001188E+03</pdfrwt>
<totfact> 0.54682285E+01</totfact>
</mgrwt>
</event>
<event>
 6    1  0.9205235E-004  0.4498306E+03  0.7818608E-02  0.1027773E+00
          4   -1    0    0  502    0  0.00000000000E+00  0.00000000000E+00  0.18056797217E+03  0.18056797217E+03  0.00000000000E+00 0. -1.
         -4   -1    0    0    0  501 -0.00000000000E+00 -0.00000000000E+00 -0.11626758950E+04  0.11626758950E+04  0.00000000000E+00 0.  1.
    9000007    2    1    2  502    0  0.15011561405E+03  0.13897608262E+03 -0.61937419874E+03  0.76581438776E+03  0.40124584649E+03 0.  0.
    9000005    1    3    3    0    0  0.48403888079E+02  0.14847760689E+03 -0.19592809569E+02  0.15739572520E+03  0.99999687468E+00 0.  0.
          4    1    3    3  502    0  0.10171172597E+03 -0.95015242770E+01 -0.59978138917E+03  0.60841866256E+03  0.00000000000E+00 0.  1.
   -9000007    1    1    2    0  501 -0.15011561405E+03 -0.13897608262E+03 -0.36273372414E+03  0.57742947946E+03  0.40000000000E+03 0. -1.
<mgrwt>
<rscale>  2 0.44983058E+03</rscale>
<asrwt>0</asrwt>
<pdfrwt beam="1">  1        4 0.27779688E-01 0.44983058E+03</pdfrwt>
<pdfrwt beam="2">  1       -4 0.17887322E+00 0.44983058E+03</pdfrwt>
<totfact> 0.44929243E+00</totfact>
</mgrwt>
</event>
<event>
 6    1  0.9205235E-004  0.4652646E+03  0.7818608E-02  0.1023265E+00
          2   -1    0    0  502    0  0.00000000000E+00  0.00000000000E+00  0.14270759808E+04  0.14270759808E+04  0.00000000000E+00 0.  1.
         -2   -1    0    0    0  501 -0.00000000000E+00 -0.00000000000E+00 -0.26758390705E+03  0.26758390705E+03  0.00000000000E+00 0. -1.
    9000007    2    1    2  502    0  0.19097955282E+03  0.14379980720E+03  0.21589558322E+02  0.46503648665E+03  0.39829794218E+03 0.  0.
    9000005    1    3    3    0    0  0.23992127214E+01 -0.76533336019E+02 -0.11996179815E+03  0.14231985369E+03  0.99999687468E+00 0.  0.
          4    1    3    3  502    0  0.18858034010E+03  0.22033314322E+03  0.14155135648E+03  0.32271663297E+03  0.00000000000E+00 0.  1.
   -9000007    1    1    2    0  501 -0.19097955282E+03 -0.14379980720E+03  0.11379025154E+04  0.12296234012E+04  0.40000000000E+03 0.  1.
<mgrwt>
<rscale>  2 0.46526458E+03</rscale>
<asrwt>0</asrwt>
<pdfrwt beam="1">  1        2 0.21955015E+00 0.46526458E+03</pdfrwt>
<pdfrwt beam="2">  1       -2 0.41166756E-01 0.46526458E+03</pdfrwt>
<totfact> 0.82189966E+01</totfact>
</mgrwt>
</event>
<event>
 6    1  0.9205235E-004  0.4136072E+03  0.7818608E-02  0.1039167E+00
         -3   -1    0    0    0  501 -0.00000000000E+00  0.00000000000E+00  0.19609694433E+03  0.19609694433E+03  0.00000000000E+00 0. -1.
          3   -1    0    0  502    0  0.00000000000E+00 -0.00000000000E+00 -0.87562935807E+03  0.87562935807E+03  0.00000000000E+00 0.  1.
    9000007    2    1    2  502    0 -0.37732175534E+02  0.98652036043E+02 -0.37232898010E+03  0.55643037680E+03  0.39978738540E+03 0.  0.
    9000005    1    3    3    0    0 -0.13770074214E+03  0.16823487838E+03 -0.66673172365E+02  0.22740004529E+03  0.99999687468E+00 0.  0.
          4    1    3    3  502    0  0.99968566604E+02 -0.69582842340E+02 -0.30565580773E+03  0.32903033152E+03  0.00000000000E+00 0.  1.
   -9000007    1    1    2    0  501  0.37732175534E+02 -0.98652036043E+02 -0.30720343365E+03  0.51529592559E+03  0.40000000000E+03 0. -1.
<mgrwt>
<rscale>  2 0.41360718E+03</rscale>
<asrwt>0</asrwt>
<pdfrwt beam="1">  1        3 0.13471221E+00 0.41360718E+03</pdfrwt>
<pdfrwt beam="2">  1       -3 0.30168760E-01 0.41360718E+03</pdfrwt>
<totfact> 0.11919748E+01</totfact>
</mgrwt>
</event>
<event>
 6    1  0.9205235E-004  0.4518154E+03  0.7818608E-02  0.1027182E+00
         -1   -1    0    0    0  501 -0.00000000000E+00  0.00000000000E+00  0.28028059837E+03  0.28028059837E+03  0.00000000000E+00 0.  1.
          1   -1    0    0  502    0  0.00000000000E+00 -0.00000000000E+00 -0.79795340622E+03  0.79795340622E+03  0.00000000000E+00 0. -1.
    9000007    2    1    2  502    0  0.20864250868E+03 -0.26049401297E+02 -0.41803968375E+03  0.61548458303E+03  0.39981724202E+03 0.  0.
    9000005    1    3    3    0    0  0.20489367523E+03 -0.12287696110E+03 -0.62471414654E+02  0.24694907038E+03  0.99999687468E+00 0.  0.
          4    1    3    3  502    0  0.37488334478E+01  0.96827559806E+02 -0.35556826910E+03  0.36853551264E+03  0.00000000000E+00 0.  1.
   -9000007    1    1    2    0  501 -0.20864250868E+03  0.26049401297E+02 -0.99633124105E+02  0.46274942156E+03  0.40000000000E+03 0.  1.
<mgrwt>
<rscale>  2 0.45181541E+03</rscale>
<asrwt>0</asrwt>
<pdfrwt beam="1">  1        1 0.12276206E+00 0.45181541E+03</pdfrwt>
<pdfrwt beam="2">  1       -1 0.43120093E-01 0.45181541E+03</pdfrwt>
<totfact> 0.12299486E+02</totfact>
</mgrwt>
</event>
<event>
 6    1  0.9205235E-004  0.4821663E+03  0.7818608E-02  0.1018542E+00
         -1   -1    0    0    0  501 -0.00000000000E+00  0.00000000000E+00  0.83227843889E+02  0.83227843889E+02  0.00000000000E+00 0. -1.
          1   -1    0    0  502    0  0.00000000000E+00 -0.00000000000E+00 -0.27964761282E+04  0.27964761282E+04  0.00000000000E+00 0.  1.
    9000007    2    1    2  502    0  0.16131817706E+03  0.21466431349E+03 -0.13095878783E+04  0.13956666218E+04  0.40094960582E+03 0.  0.
    9000005    1    3    3    0    0  0.89606602892E+02 -0.34842895393E+02 -0.47660367044E+02  0.10731207398E+03  0.99999687468E+00 0.  0.
          4    1    3    3  502    0  0.71711574172E+02  0.24950720888E+03 -0.12619275113E+04  0.12883545478E+04  0.00000000000E+00 0.  1.
   -9000007    1    1    2    0  501 -0.16131817706E+03 -0.21466431349E+03 -0.14036604060E+04  0.14840373503E+04  0.40000000000E+03 0.  1.
<mgrwt>
<rscale>  2 0.48216626E+03</rscale>
<asrwt>0</asrwt>
<pdfrwt beam="1">  1        1 0.43022709E+00 0.48216626E+03</pdfrwt>
<pdfrwt beam="2">  1       -1 0.12804284E-01 0.48216626E+03</pdfrwt>
<totfact> 0.39169906E+01</totfact>
</mgrwt>
</event>
<event>
 6    1  0.9205235E-004  0.4146487E+03  0.7818608E-02  0.1038822E+00
         -2   -1    0    0    0  501 -0.00000000000E+00  0.00000000000E+00  0.65119789441E+03  0.65119789441E+03  0.00000000000E+00 0. -1.
          2   -1    0    0  502    0  0.00000000000E+00 -0.00000000000E+00 -0.27838069059E+03  0.27838069059E+03  0.00000000000E+00 0.  1.
    9000007    2    1    2  502    0 -0.91487279939E+02  0.48921737342E+02  0.29254228378E+03  0.50861858504E+03  0.40292507799E+03 0.  0.
    9000005    1    3    3    0    0  0.43186903190E+02  0.49478749291E+02  0.35438665211E+03  0.36042218914E+03  0.99999687468E+00 0.  0.
          4    1    3    3  502    0 -0.13467418313E+03 -0.55701194914E+00 -0.61844368329E+02  0.14819639590E+03  0.00000000000E+00 0.  1.
   -9000007    1    1    2    0  501  0.91487279939E+02 -0.48921737342E+02  0.80274920041E+02  0.42095999996E+03  0.40000000000E+03 0.  1.
<mgrwt>
<rscale>  2 0.41464872E+03</rscale>
<asrwt>0</asrwt>
<pdfrwt beam="1">  1        2 0.42827799E-01 0.41464872E+03</pdfrwt>
<pdfrwt beam="2">  1       -2 0.10018429E+00 0.41464872E+03</pdfrwt>
<totfact> 0.10093021E+02</totfact>
</mgrwt>
</event>
<event>
 6    1  0.9205235E-004  0.1207180E+04  0.7818608E-02  0.9106595E-01
         -1   -1    0    0    0  501 -0.00000000000E+00  0.00000000000E+00  0.20560795311E+04  0.20560795311E+04  0.00000000000E+00 0.  1.
          1   -1    0    0  502    0  0.00000000000E+00 -0.00000000000E+00 -0.76388486899E+03  0.76388486899E+03  0.00000000000E+00 0. -1.
    9000007    2    1    2  502    0  0.10406049515E+04 -0.46301233010E+03  0.10248457552E+04  0.15835524457E+04  0.40011303842E+03 0.  0.
    9000005    1    3    3    0    0  0.49131485110E+01  0.50014614503E+02  0.29769588136E+02  0.58419423686E+02  0.99999687468E+00 0.  0.
          4    1    3    3  502    0  0.10356918030E+04 -0.51302694460E+03  0.99507616705E+03  0.15251330220E+04  0.00000000000E+00 0.  1.
   -9000007    1    1    2    0  501 -0.10406049515E+04  0.46301233010E+03  0.26734890694E+03  0.12364119544E+04  0.40000000000E+03 0. -1.
<mgrwt>
<rscale>  2 0.12071803E+04</rscale>
<asrwt>0</asrwt>
<pdfrwt beam="1">  1        1 0.11752075E+00 0.12071803E+04</pdfrwt>
<pdfrwt beam="2">  1       -1 0.31631992E+00 0.12071803E+04</pdfrwt>
<totfact> 0.60795105E-01</totfact>
</mgrwt>
</event>
<event>
 6    1  0.9205235E-004  0.5866086E+03  0.7818608E-02  0.9933585E-01
          1   -1    0    0  502    0  0.00000000000E+00  0.00000000000E+00  0.27659896742E+04  0.27659896742E+04  0.00000000000E+00 0.  1.
         -1   -1    0    0    0  501 -0.00000000000E+00 -0.00000000000E+00 -0.13267038321E+03  0.13267038321E+03  0.00000000000E+00 0. -1.
    9000007    2    1    2  502    0  0.65115482007E+02  0.42455304093E+03  0.16776849432E+04  0.17771778608E+04  0.39906023340E+03 0.  0.
    9000005    1    3    3    0    0 -0.11375901456E+03  0.18752193433E+03  0.11584169317E+04  0.11789980394E+04  0.99999687468E+00 0.  0.
          4    1    3    3  502    0  0.17887449657E+03  0.23703110660E+03  0.51926801144E+03  0.59817982140E+03  0.00000000000E+00 0.  1.
   -9000007    1    1    2    0  501 -0.65115482007E+02 -0.42455304093E+03  0.95563434781E+03  0.11214821966E+04  0.40000000000E+03 0.  1.
<mgrwt>
<rscale>  2 0.58660859E+03</rscale>
<asrwt>0</asrwt>
<pdfrwt beam="1">  1        1 0.42553683E+00 0.58660859E+03</pdfrwt>
<pdfrwt beam="2">  1       -1 0.20410830E-01 0.58660859E+03</pdfrwt>
<totfact> 0.18861260E+01</totfact>
</mgrwt>
</event>
<event>
 6    1  0.9205235E-004  0.4117529E+03  0.7818608E-02  0.1039784E+00
          1   -1    0    0  502    0  0.00000000000E+00  0.00000000000E+00  0.12377774526E+04  0.12377774526E+04  0.00000000000E+00 0. -1.
         -1   -1    0    0    0  501 -0.00000000000E+00 -0.00000000000E+00 -0.24614413240E+03  0.24614413240E+03  0.00000000000E+00 0.  1.
    9000007    2    1    2  502    0 -0.92762293843E+02 -0.37812805431E+02  0.98954590507E+03  0.10715637201E+04  0.39876441250E+03 0.  0.
    9000005    1    3    3    0    0  0.15720993141E+03 -0.29734615034E+02  0.42397806565E+03  0.45316388869E+03  0.99999687468E+00 0.  0.
          4    1    3    3  502    0 -0.24997222525E+03 -0.80781903970E+01  0.56556783942E+03  0.61839983146E+03  0.00000000000E+00 0.  1.
   -9000007    1    1    2    0  501  0.92762293843E+02  0.37812805431E+02  0.20874151442E+01  0.41235786486E+03  0.40000000000E+03 0.  1.
<mgrwt>
<rscale>  2 0.41175291E+03</rscale>
<asrwt>0</asrwt>
<pdfrwt beam="1">  1        1 0.19042730E+00 0.41175291E+03</pdfrwt>
<pdfrwt beam="2">  1       -1 0.37868329E-01 0.41175291E+03</pdfrwt>
<totfact> 0.72121201E+01</totfact>
</mgrwt>
</event>
<event>
 6    1  0.9205235E-004  0.4452065E+03  0.7818608E-02  0.1029161E+00
          1   -1    0    0  502    0  0.00000000000E+00  0.00000000000E+00  0.40098409351E+03  0.40098409351E+03  0.00000000000E+00 0.  1.
         -1   -1    0    0    0  501 -0.00000000000E+00 -0.00000000000E+00 -0.98559801114E+03  0.98559801114E+03  0.00000000000E+00 0. -1.
    9000007    2    1    2  502    0 -0.45747131490E+02 -0.19218900040E+03 -0.78148322127E+03  0.89894808755E+03  0.39794751800E+03 0.  0.
    9000005    1    3    3    0    0  0.16851471930E+03 -0.33188763879E+02 -0.23798897641E+03  0.29349353921E+03  0.99999687468E+00 0.  0.
          4    1    3    3  502    0 -0.21426185079E+03 -0.15900023652E+03 -0.54349424485E+03  0.60545454834E+03  0.00000000000E+00 0.  1.
   -9000007    1    1    2    0  501  0.45747131490E+02  0.19218900040E+03  0.19686930365E+03  0.48763401710E+03  0.40000000000E+03 0.  1.
<mgrwt>
<rscale>  2 0.44520651E+03</rscale>
<asrwt>0</asrwt>
<pdfrwt beam="1">  1        1 0.61689861E-01 0.44520651E+03</pdfrwt>
<pdfrwt beam="2">  1       -1 0.15163046E+00 0.44520651E+03</pdfrwt>
<totfact> 0.21641388E+01</totfact>
</mgrwt>
</event>
<event>
 6    1  0.9205235E-004  0.5071588E+03  0.7818608E-02  0.1011927E+00
          2   -1    0    0  502    0  0.00000000000E+00  0.00000000000E+00  0.83222962178E+03  0.83222962178E+03  0.00000000000E+00 0. -1.
         -2   -1    0    0    0  501 -0.00000000000E+00 -0.00000000000E+00 -0.34872254685E+03  0.34872254685E+03  0.00000000000E+00 0.  1.
    9000007    2    1    2  502    0 -0.14451692889E+03  0.27559667620E+03  0.44104169207E+03  0.67238360943E+03  0.40092801526E+03 0.  0.
    9000005    1    3    3    0    0 -0.26237959215E+03  0.28480208763E+03  0.36260624891E+03  0.53050878526E+03  0.99999687468E+00 0.  0.
          4    1    3    3  502    0  0.11786266326E+03 -0.92054114276E+01  0.78435443154E+02  0.14187482417E+03  0.00000000000E+00 0.  1.
   -9000007    1    1    2    0  501  0.14451692889E+03 -0.27559667620E+03  0.42465382866E+02  0.50856855920E+03  0.40000000000E+03 0.  1.
<mgrwt>
<rscale>  2 0.50715879E+03</rscale>
<asrwt>0</asrwt>
<pdfrwt beam="1">  1        2 0.12803533E+00 0.50715879E+03</pdfrwt>
<pdfrwt beam="2">  1       -2 0.53649623E-01 0.50715879E+03</pdfrwt>
<totfact> 0.11032720E+02</totfact>
</mgrwt>
</event>
<event>
 6    1  0.9205235E-004  0.4978437E+03  0.7818608E-02  0.1014343E+00
         -1   -1    0    0    0  501 -0.00000000000E+00  0.00000000000E+00  0.56435006228E+03  0.56435006228E+03  0.00000000000E+00 0. -1.
          1   -1    0    0  502    0  0.00000000000E+00 -0.00000000000E+00 -0.46709821329E+03  0.46709821329E+03  0.00000000000E+00 0.  1.
    9000007    2    1    2  502    0 -0.16844056801E+03  0.24402491329E+03 -0.77475529334E+02  0.50376462034E+03  0.39981989921E+03 0.  0.
    9000005    1    3    3    0    0  0.10215301220E+03  0.16852071153E+03 -0.10175506668E+03  0.22178719914E+03  0.99999687468E+00 0.  0.
          4    1    3    3  502    0 -0.27059358020E+03  0.75504201764E+02  0.24279537344E+02  0.28197742120E+03  0.00000000000E+00 0.  1.
   -9000007    1    1    2    0  501  0.16844056801E+03 -0.24402491329E+03  0.17472737833E+03  0.52768365523E+03  0.40000000000E+03 0. -1.
<mgrwt>
<rscale>  2 0.49784370E+03</rscale>
<asrwt>0</asrwt>
<pdfrwt beam="1">  1        1 0.71861263E-01 0.49784370E+03</pdfrwt>
<pdfrwt beam="2">  1       -1 0.86823087E-01 0.49784370E+03</pdfrwt>
<totfact> 0.66428082E+01</totfact>
</mgrwt>
</event>
<event>
 6    1  0.9205235E-004  0.4144953E+03  0.7818608E-02  0.1038873E+00
         -1   -1    0    0    0  501 -0.00000000000E+00  0.00000000000E+00  0.86026534541E+03  0.86026534541E+03  0.00000000000E+00 0.  1.
          1   -1    0    0  502    0  0.00000000000E+00 -0.00000000000E+00 -0.28067937468E+03  0.28067937468E+03  0.00000000000E+00 0. -1.
    9000007    2    1    2  502    0 -0.47023365937E+01  0.10743456969E+03  0.59633275180E+03  0.72640310166E+03  0.40060506300E+03 0.  0.
    9000005    1    3    3    0    0  0.52407225598E+02  0.24197191952E+03  0.25661982388E+03  0.35658331583E+03  0.99999687468E+00 0.  0.
          4    1    3    3  502    0 -0.57109562192E+02 -0.13453734983E+03  0.33971292793E+03  0.36981978583E+03  0.00000000000E+00 0.  1.
   -9000007    1    1    2    0  501  0.47023365937E+01 -0.10743456969E+03 -0.16746781065E+02  0.41454161843E+03  0.40000000000E+03 0. -1.
<mgrwt>
<rscale>  2 0.41449528E+03</rscale>
<asrwt>0</asrwt>
<pdfrwt beam="1">  1        1 0.43181443E-01 0.41449528E+03</pdfrwt>
<pdfrwt beam="2">  1       -1 0.13234851E+00 0.41449528E+03</pdfrwt>
<totfact> 0.48963166E+01</totfact>
</mgrwt>
</event>
<event>
 6    1  0.9205235E-004  0.4885126E+03  0.7818608E-02  0.1016822E+00
          2   -1    0    0  502    0  0.00000000000E+00  0.00000000000E+00  0.24866238743E+04  0.24866238743E+04  0.00000000000E+00 0.  1.
         -2   -1    0    0    0  501 -0.00000000000E+00 -0.00000000000E+00 -0.11821146153E+03  0.11821146153E+03  0.00000000000E+00 0. -1.
    9000007    2    1    2  502    0 -0.33705198752E+02 -0.27865162126E+03  0.17488508175E+04  0.18157603477E+04  0.39965446602E+03 0.  0.
    9000005    1    3    3    0    0 -0.14927972944E+03 -0.36234274822E+02  0.25294268148E+03  0.29593641277E+03  0.99999687468E+00 0.  0.
          4    1    3    3  502    0  0.11557453069E+03 -0.24241734643E+03  0.14959081360E+04  0.15198239350E+04  0.00000000000E+00 0.  1.
   -9000007    1    1    2    0  501  0.33705198752E+02  0.27865162126E+03  0.61956159529E+03  0.78907498808E+03  0.40000000000E+03 0. -1.
<mgrwt>
<rscale>  2 0.48851261E+03</rscale>
<asrwt>0</asrwt>
<pdfrwt beam="1">  1        2 0.38255748E+00 0.48851261E+03</pdfrwt>
<pdfrwt beam="2">  1       -2 0.18186381E-01 0.48851261E+03</pdfrwt>
<totfact> 0.96292491E+01</totfact>
</mgrwt>
</event>
<event>
 6    1  0.9205235E-004  0.5183501E+03  0.7818608E-02  0.1009097E+00
          2   -1    0    0  502    0  0.00000000000E+00  0.00000000000E+00  0.10383006410E+04  0.10383006410E+04  0.00000000000E+00 0. -1.
         -2   -1    0    0    0  501 -0.00000000000E+00 -0.00000000000E+00 -0.28825625226E+03  0.28825625226E+03  0.00000000000E+00 0.  1.
    9000007    2    1    2  502    0 -0.19455961864E+03 -0.26551283189E+03  0.16311663401E+03  0.54371929939E+03  0.40084053081E+03 0.  0.
    9000005    1    3    3    0    0 -0.25528717971E+03 -0.15254606542E+03  0.25024283978E+03  0.38866994360E+03  0.99999687468E+00 0.  0.
          4    1    3    3  502    0  0.60727561072E+02 -0.11296676647E+03 -0.87126205772E+02  0.15504935579E+03  0.00000000000E+00 0.  1.
   -9000007    1    1    2    0  501  0.19455961864E+03  0.26551283189E+03  0.58692775476E+03  0.78283759389E+03  0.40000000000E+03 0. -1.
<mgrwt>
<rscale>  2 0.51835014E+03</rscale>
<asrwt>0</asrwt>
<pdfrwt beam="1">  1        2 0.15973856E+00 0.51835014E+03</pdfrwt>
<pdfrwt beam="2">  1       -2 0.44347116E-01 0.51835014E+03</pdfrwt>
<totfact> 0.11864500E+02</totfact>
</mgrwt>
</event>
<event>
 6    1  0.9205235E-004  0.4359125E+03  0.7818608E-02  0.1032008E+00
         -1   -1    0    0    0  501 -0.00000000000E+00  0.00000000000E+00  0.10144109992E+04  0.10144109992E+04  0.00000000000E+00 0. -1.
          1   -1    0    0  502    0  0.00000000000E+00 -0.00000000000E+00 -0.19718737783E+03  0.19718737783E+03  0.00000000000E+00 0.  1.
    9000007    2    1    2  502    0  0.20967550312E+02  0.17165193181E+03  0.54424401103E+03  0.69737868516E+03  0.40028922432E+03 0.  0.
    9000005    1    3    3    0    0  0.81814425461E+02 -0.43852229212E+02  0.44123196275E+03  0.45089163129E+03  0.99999687468E+00 0.  0.
          4    1    3    3  502    0 -0.60846875150E+02  0.21550416102E+03  0.10301204828E+03  0.24648705387E+03  0.00000000000E+00 0.  1.
   -9000007    1    1    2    0  501 -0.20967550312E+02 -0.17165193181E+03  0.27297961035E+03  0.51421969189E+03  0.40000000000E+03 0.  1.
<mgrwt>
<rscale>  2 0.43591251E+03</rscale>
<asrwt>0</asrwt>
<pdfrwt beam="1">  1        1 0.30336520E-01 0.43591251E+03</pdfrwt>
<pdfrwt beam="2">  1       -1 0.15606323E+00 0.43591251E+03</pdfrwt>
<totfact> 0.49909476E+01</totfact>
</mgrwt>
</event>
<event>
 6    1  0.9205235E-004  0.4720868E+03  0.7818608E-02  0.1021333E+00
         -2   -1    0    0    0  501 -0.00000000000E+00  0.00000000000E+00  0.25986596196E+03  0.25986596196E+03  0.00000000000E+00 0. -1.
          2   -1    0    0  502    0  0.00000000000E+00 -0.00000000000E+00 -0.98604385091E+03  0.98604385091E+03  0.00000000000E+00 0.  1.
    9000007    2    1    2  502    0  0.23253224068E+03  0.73217635269E+02 -0.59030894578E+03  0.75816763221E+03  0.40856020609E+03 0.  0.
    9000005    1    3    3    0    0  0.66342410535E+02 -0.73272694702E+01  0.55287421690E+02  0.86675851910E+02  0.99999687468E+00 0.  0.
          4    1    3    3  502    0  0.16618983014E+03  0.80544904740E+02 -0.64559636747E+03  0.67149178030E+03  0.00000000000E+00 0.  1.
   -9000007    1    1    2    0  501 -0.23253224068E+03 -0.73217635269E+02 -0.13586894317E+03  0.48774218065E+03  0.40000000000E+03 0. -1.
<mgrwt>
<rscale>  2 0.47208677E+03</rscale>
<asrwt>0</asrwt>
<pdfrwt beam="1">  1        2 0.15169905E+00 0.47208677E+03</pdfrwt>
<pdfrwt beam="2">  1       -2 0.39979380E-01 0.47208677E+03</pdfrwt>
<totfact> 0.15741821E+02</totfact>
</mgrwt>
</event>
<event>
 6    1  0.9205235E-004  0.5767951E+03  0.7818608E-02  0.9954754E-01
          2   -1    0    0  502    0  0.00000000000E+00  0.00000000000E+00  0.13590615268E+04  0.13590615268E+04  0.00000000000E+00 0. -1.
         -2   -1    0    0    0  501 -0.00000000000E+00 -0.00000000000E+00 -0.26045121688E+03  0.26045121688E+03  0.00000000000E+00 0.  1.
    9000007    2    1    2  502    0 -0.20099949930E+03  0.36092758164E+03  0.35236661775E+03  0.67741446536E+03  0.40504148760E+03 0.  0.
    9000005    1    3    3    0    0 -0.12785175632E+03  0.26398936390E+03  0.43918717162E+03  0.52813144913E+03  0.99999687468E+00 0.  0.
          4    1    3    3  502    0 -0.73147742979E+02  0.96938217736E+02 -0.86820553879E+02  0.14928301624E+03  0.00000000000E+00 0.  1.
   -9000007    1    1    2    0  501  0.20099949930E+03 -0.36092758164E+03  0.74624369219E+03  0.94209827833E+03  0.40000000000E+03 0. -1.
<mgrwt>
<rscale>  2 0.57679514E+03</rscale>
<asrwt>0</asrwt>
<pdfrwt beam="1">  1        2 0.20908638E+00 0.57679514E+03</pdfrwt>
<pdfrwt beam="2">  1       -2 0.40069419E-01 0.57679514E+03</pdfrwt>
<totfact> 0.93179622E+01</totfact>
</mgrwt>
</event>
<event>
 6    1  0.9205235E-004  0.4250227E+03  0.7818608E-02  0.1035444E+00
          2   -1    0    0  502    0  0.00000000000E+00  0.00000000000E+00  0.17090806072E+04  0.17090806072E+04  0.00000000000E+00 0. -1.
         -2   -1    0    0    0  501 -0.00000000000E+00 -0.00000000000E+00 -0.26454846479E+03  0.26454846479E+03  0.00000000000E+00 0.  1.
    9000007    2    1    2  502    0  0.10148631485E+03  0.10133209696E+03  0.14870056950E+04  0.15465791117E+04  0.40019163622E+03 0.  0.
    9000005    1    3    3    0    0 -0.23302297456E+02  0.79134528597E+02  0.13748833081E+04  0.13773563016E+04  0.99999687468E+00 0.  0.
          4    1    3    3  502    0  0.12478861230E+03  0.22197568361E+02  0.11212238691E+03  0.16922281007E+03  0.00000000000E+00 0.  1.
   -9000007    1    1    2    0  501 -0.10148631485E+03 -0.10133209696E+03 -0.42473552552E+02  0.42704996036E+03  0.40000000000E+03 0.  1.
<mgrwt>
<rscale>  2 0.42502273E+03</rscale>
<asrwt>0</asrwt>
<pdfrwt beam="1">  1        2 0.26293547E+00 0.42502273E+03</pdfrwt>
<pdfrwt beam="2">  1       -2 0.40699765E-01 0.42502273E+03</pdfrwt>
<totfact> 0.59456619E+01</totfact>
</mgrwt>
</event>
<event>
 6    1  0.9205235E-004  0.5026636E+03  0.7818608E-02  0.1013086E+00
          2   -1    0    0  502    0  0.00000000000E+00  0.00000000000E+00  0.11040438647E+04  0.11040438647E+04  0.00000000000E+00 0.  1.
         -2   -1    0    0    0  501 -0.00000000000E+00 -0.00000000000E+00 -0.40141095186E+03  0.40141095186E+03  0.00000000000E+00 0. -1.
    9000007    2    1    2  502    0  0.77208163788E+02 -0.29493429986E+03 -0.14231057676E+03  0.52215585774E+03  0.39930827404E+03 0.  0.
    9000005    1    3    3    0    0  0.12609777869E+02 -0.38407832699E+03 -0.14828772251E+03  0.41190462052E+03  0.99999687468E+00 0.  0.
          4    1    3    3  502    0  0.64598385919E+02  0.89144027134E+02  0.59771457418E+01  0.11025123722E+03  0.00000000000E+00 0.  1.
   -9000007    1    1    2    0  501 -0.77208163788E+02  0.29493429986E+03  0.84494348957E+03  0.98329895879E+03  0.40000000000E+03 0.  1.
<mgrwt>
<rscale>  2 0.50266364E+03</rscale>
<asrwt>0</asrwt>
<pdfrwt beam="1">  1        2 0.16985290E+00 0.50266364E+03</pdfrwt>
<pdfrwt beam="2">  1       -2 0.61755531E-01 0.50266364E+03</pdfrwt>
<totfact> 0.55094304E+01</totfact>
</mgrwt>
</event>
<event>
 6    1  0.9205235E-004  0.4077612E+03  0.7818608E-02  0.1041125E+00
         -2   -1    0    0    0  501 -0.00000000000E+00  0.00000000000E+00  0.24939746715E+03  0.24939746715E+03  0.00000000000E+00 0.  1.
          2   -1    0    0  502    0  0.00000000000E+00 -0.00000000000E+00 -0.67630838897E+03  0.67630838897E+03  0.00000000000E+00 0. -1.
    9000007    2    1    2  502    0 -0.64071209258E+02  0.46874090951E+02 -0.15821830680E+03  0.43734326375E+03  0.39991723829E+03 0.  0.
    9000005    1    3    3    0    0  0.36537275494E+02  0.18007164990E+03  0.29550443817E+02  0.18610481004E+03  0.99999687468E+00 0.  0.
          4    1    3    3  502    0 -0.10060848475E+03 -0.13319755895E+03 -0.18776875061E+03  0.25123845371E+03  0.00000000000E+00 0.  1.
   -9000007    1    1    2    0  501  0.64071209258E+02 -0.46874090951E+02 -0.26869261502E+03  0.48836259237E+03  0.40000000000E+03 0.  1.
<mgrwt>
<rscale>  2 0.40776120E+03</rscale>
<asrwt>0</asrwt>
<pdfrwt beam="1">  1        2 0.10404744E+00 0.40776120E+03</pdfrwt>
<pdfrwt beam="2">  1       -2 0.38368841E-01 0.40776120E+03</pdfrwt>
<totfact> 0.28160820E+02</totfact>
</mgrwt>
</event>
<event>
 6    1  0.9205235E-004  0.4125898E+03  0.7818608E-02  0.1039505E+00
         -1   -1    0    0    0  501 -0.00000000000E+00  0.00000000000E+00  0.24978358020E+03  0.24978358020E+03  0.00000000000E+00 0.  1.
          1   -1    0    0  502    0  0.00000000000E+00 -0.00000000000E+00 -0.68151611761E+03  0.68151611761E+03  0.00000000000E+00 0. -1.
    9000007    2    1    2  502    0  0.94158736037E+02  0.36313204109E+02 -0.21712199696E+03  0.46628120309E+03  0.40011458662E+03 0.  0.
    9000005    1    3    3    0    0 -0.84830203218E+02 -0.13729555790E+02 -0.26145235978E+03  0.27521446276E+03  0.99999687468E+00 0.  0.
          4    1    3    3  502    0  0.17898893926E+03  0.50042759899E+02  0.44330362821E+02  0.19106674033E+03  0.00000000000E+00 0.  1.
   -9000007    1    1    2    0  501 -0.94158736037E+02 -0.36313204109E+02 -0.21461054045E+03  0.46501849472E+03  0.40000000000E+03 0.  1.
<mgrwt>
<rscale>  2 0.41258981E+03</rscale>
<asrwt>0</asrwt>
<pdfrwt beam="1">  1        1 0.10484863E+00 0.41258981E+03</pdfrwt>
<pdfrwt beam="2">  1       -1 0.38428243E-01 0.41258981E+03</pdfrwt>
<totfact> 0.19319771E+02</totfact>
</mgrwt>
</event>
<event>
 6    1  0.9205235E-004  0.8168554E+03  0.7818608E-02  0.9535935E-01
         -2   -1    0    0    0  501 -0.00000000000E+00  0.00000000000E+00  0.19544926791E+04  0.19544926791E+04  0.00000000000E+00 0.  1.
          2   -1    0    0  502    0  0.00000000000E+00 -0.00000000000E+00 -0.40908827696E+03  0.40908827696E+03  0.00000000000E+00 0. -1.
    9000007    2    1    2  502    0  0.71061596236E+03 -0.52554346950E+02  0.29173219658E+03  0.86710810154E+03  0.39878788835E+03 0.  0.
    9000005    1    3    3    0    0  0.49386374535E+03  0.72124829059E+02  0.35094917518E+03  0.61013909356E+03  0.99999687468E+00 0.  0.
          4    1    3    3  502    0  0.21675221701E+03 -0.12467917601E+03 -0.59216978598E+02  0.25696900798E+03  0.00000000000E+00 0.  1.
   -9000007    1    1    2    0  501 -0.71061596236E+03  0.52554346950E+02  0.12536722056E+04  0.14964728545E+04  0.40000000000E+03 0.  1.
<mgrwt>
<rscale>  2 0.81685538E+03</rscale>
<asrwt>0</asrwt>
<pdfrwt beam="1">  1        2 0.62936659E-01 0.81685538E+03</pdfrwt>
<pdfrwt beam="2">  1       -2 0.30069118E+00 0.81685538E+03</pdfrwt>
<totfact> 0.25159977E+00</totfact>
</mgrwt>
</event>
<event>
 6    1  0.9205235E-004  0.4378555E+03  0.7818608E-02  0.1031407E+00
         -1   -1    0    0    0  501 -0.00000000000E+00  0.00000000000E+00  0.49342738482E+02  0.49342738482E+02  0.00000000000E+00 0. -1.
          1   -1    0    0  502    0  0.00000000000E+00 -0.00000000000E+00 -0.41179115646E+04  0.41179115646E+04  0.00000000000E+00 0.  1.
    9000007    2    1    2  502    0 -0.15174202026E+03 -0.92831856286E+02 -0.15395691109E+04  0.16006450703E+04  0.40018520658E+03 0.  0.
    9000005    1    3    3    0    0  0.55202475253E+02  0.11464262106E+03 -0.69832748073E+03  0.70982569281E+03  0.99999687468E+00 0.  0.
          4    1    3    3  502    0 -0.20694449551E+03 -0.20747447734E+03 -0.84124163019E+03  0.89081937750E+03  0.00000000000E+00 0.  1.
   -9000007    1    1    2    0  501  0.15174202026E+03  0.92831856286E+02 -0.25289997152E+04  0.25666092328E+04  0.40000000000E+03 0.  1.
<mgrwt>
<rscale>  2 0.43785555E+03</rscale>
<asrwt>0</asrwt>
<pdfrwt beam="1">  1        1 0.63352475E+00 0.43785555E+03</pdfrwt>
<pdfrwt beam="2">  1       -1 0.75911918E-02 0.43785555E+03</pdfrwt>
<totfact> 0.86862655E+00</totfact>
</mgrwt>
</event>
<event>
 6    1  0.9205235E-004  0.5496795E+03  0.7818608E-02  0.1001568E+00
          2   -1    0    0  502    0  0.00000000000E+00  0.00000000000E+00  0.16736749781E+04  0.16736749781E+04  0.00000000000E+00 0.  1.
         -2   -1    0    0    0  501 -0.00000000000E+00 -0.00000000000E+00 -0.18234103896E+03  0.18234103896E+03  0.00000000000E+00 0. -1.
    9000007    2    1    2  502    0 -0.31075130751E+03 -0.21627387013E+03  0.83669497797E+03  0.10005086053E+04  0.39701161338E+03 0.  0.
    9000005    1    3    3    0    0 -0.10864356261E+02  0.10622294104E+03  0.13592648943E+03  0.17285357377E+03  0.99999687468E+00 0.  0.
          4    1    3    3  502    0 -0.29988695125E+03 -0.32249681118E+03  0.70076848854E+03  0.82765503156E+03  0.00000000000E+00 0.  1.
   -9000007    1    1    2    0  501  0.31075130751E+03  0.21627387013E+03  0.65463896113E+03  0.85550741169E+03  0.40000000000E+03 0. -1.
<mgrwt>
<rscale>  2 0.54967948E+03</rscale>
<asrwt>0</asrwt>
<pdfrwt beam="1">  1        2 0.25748845E+00 0.54967948E+03</pdfrwt>
<pdfrwt beam="2">  1       -2 0.28052469E-01 0.54967948E+03</pdfrwt>
<totfact> 0.12269013E+02</totfact>
</mgrwt>
</event>
<event>
 6    1  0.9205235E-004  0.6228637E+03  0.7818608E-02  0.9859074E-01
          2   -1    0    0  502    0  0.00000000000E+00  0.00000000000E+00  0.21848027412E+04  0.21848027412E+04  0.00000000000E+00 0. -1.
         -2   -1    0    0    0  501 -0.00000000000E+00 -0.00000000000E+00 -0.29905275267E+03  0.29905275267E+03  0.00000000000E+00 0.  1.
    9000007    2    1    2  502    0  0.26791197381E+03  0.39418289868E+03  0.15190851090E+03  0.64174712223E+03  0.40200272372E+03 0.  0.
    9000005    1    3    3    0    0  0.87731129854E+02  0.32442607513E+02  0.21336600722E+03  0.23297065686E+03  0.99999687468E+00 0.  0.
          4    1    3    3  502    0  0.18018084396E+03  0.36174029116E+03 -0.61457496322E+02  0.40877646536E+03  0.00000000000E+00 0.  1.
   -9000007    1    1    2    0  501 -0.26791197381E+03 -0.39418289868E+03  0.17338414776E+04  0.18421083716E+04  0.40000000000E+03 0. -1.
<mgrwt>
<rscale>  2 0.62286375E+03</rscale>
<asrwt>0</asrwt>
<pdfrwt beam="1">  1        2 0.33612349E+00 0.62286375E+03</pdfrwt>
<pdfrwt beam="2">  1       -2 0.46008117E-01 0.62286375E+03</pdfrwt>
<totfact> 0.24955510E+01</totfact>
</mgrwt>
</event>
<event>
 6    1  0.9205235E-004  0.4070466E+03  0.7818608E-02  0.1041367E+00
          2   -1    0    0  502    0  0.00000000000E+00  0.00000000000E+00  0.26250130443E+04  0.26250130443E+04  0.00000000000E+00 0. -1.
         -2   -1    0    0    0  501 -0.00000000000E+00 -0.00000000000E+00 -0.63416646354E+02  0.63416646354E+02  0.00000000000E+00 0.  1.
    9000007    2    1    2  502    0  0.46554405924E+02 -0.60762009758E+02  0.13722996793E+04  0.14313354144E+04  0.39956892273E+03 0.  0.
    9000005    1    3    3    0    0  0.13871495087E+03  0.96454876812E+02  0.10278897116E+04  0.10416830805E+04  0.99999687468E+00 0.  0.
          4    1    3    3  502    0 -0.92160544949E+02 -0.15721688657E+03  0.34440996767E+03  0.38965233388E+03  0.00000000000E+00 0.  1.
   -9000007    1    1    2    0  501 -0.46554405924E+02  0.60762009758E+02  0.11892967186E+04  0.12570942763E+04  0.40000000000E+03 0.  1.
<mgrwt>
<rscale>  2 0.40704657E+03</rscale>
<asrwt>0</asrwt>
<pdfrwt beam="1">  1        2 0.40384808E+00 0.40704657E+03</pdfrwt>
<pdfrwt beam="2">  1       -2 0.97564092E-02 0.40704657E+03</pdfrwt>
<totfact> 0.22941766E+02</totfact>
</mgrwt>
</event>
<event>
 6    1  0.9205235E-004  0.4853856E+03  0.7818608E-02  0.1017665E+00
         -1   -1    0    0    0  501 -0.00000000000E+00  0.00000000000E+00  0.52787118540E+03  0.52787118540E+03  0.00000000000E+00 0. -1.
          1   -1    0    0  502    0  0.00000000000E+00 -0.00000000000E+00 -0.44878381592E+03  0.44878381592E+03  0.00000000000E+00 0.  1.
    9000007    2    1    2  502    0 -0.89074675648E+02 -0.26012611455E+03  0.75729499595E+02  0.49125705262E+03  0.39999830166E+03 0.  0.
    9000005    1    3    3    0    0  0.83990662743E+02 -0.43284852529E+02  0.17311359388E+03  0.19722405093E+03  0.99999687468E+00 0.  0.
          4    1    3    3  502    0 -0.17306533839E+03 -0.21684126202E+03 -0.97384094281E+02  0.29403300169E+03  0.00000000000E+00 0.  1.
   -9000007    1    1    2    0  501  0.89074675648E+02  0.26012611455E+03  0.33578698860E+01  0.48539794870E+03  0.40000000000E+03 0. -1.
<mgrwt>
<rscale>  2 0.48538563E+03</rscale>
<asrwt>0</asrwt>
<pdfrwt beam="1">  1        1 0.69043664E-01 0.48538563E+03</pdfrwt>
<pdfrwt beam="2">  1       -1 0.81210952E-01 0.48538563E+03</pdfrwt>
<totfact> 0.80940242E+01</totfact>
</mgrwt>
</event>
<event>
 6    1  0.9205235E-004  0.7396225E+03  0.7818608E-02  0.9651773E-01
         -1   -1    0    0    0  501 -0.00000000000E+00  0.00000000000E+00  0.57433368885E+03  0.57433368885E+03  0.00000000000E+00 0. -1.
          1   -1    0    0  502    0  0.00000000000E+00 -0.00000000000E+00 -0.10303978772E+04  0.10303978772E+04  0.00000000000E+00 0.  1.
    9000007    2    1    2  502    0 -0.19674004187E+03 -0.59016150553E+03 -0.73985282614E+01  0.73968930048E+03  0.40011033020E+03 0.  0.
    9000005    1    3    3    0    0  0.95369498427E+02 -0.33746444143E+03  0.28165403356E+02  0.35181228006E+03  0.99999687468E+00 0.  0.
          4    1    3    3  502    0 -0.29210954029E+03 -0.25269706410E+03 -0.35563931618E+02  0.38787702042E+03  0.00000000000E+00 0.  1.
   -9000007    1    1    2    0  501  0.19674004187E+03  0.59016150553E+03 -0.44866566009E+03  0.86504226558E+03  0.40000000000E+03 0.  1.
<mgrwt>
<rscale>  2 0.73962246E+03</rscale>
<asrwt>0</asrwt>
<pdfrwt beam="1">  1        1 0.15852275E+00 0.73962246E+03</pdfrwt>
<pdfrwt beam="2">  1       -1 0.88359031E-01 0.73962246E+03</pdfrwt>
<totfact> 0.18585824E+01</totfact>
</mgrwt>
</event>
<event>
 6    1  0.9205235E-004  0.4071898E+03  0.7818608E-02  0.1041318E+00
          2   -1    0    0  502    0  0.00000000000E+00  0.00000000000E+00  0.10619845094E+04  0.10619845094E+04  0.00000000000E+00 0. -1.
         -2   -1    0    0    0  501 -0.00000000000E+00 -0.00000000000E+00 -0.24640510786E+03  0.24640510786E+03  0.00000000000E+00 0.  1.
    9000007    2    1    2  502    0 -0.71420813588E+02  0.11626330799E+02  0.12251786171E+02  0.40807225000E+03  0.40141842356E+03 0.  0.
    9000005    1    3    3    0    0 -0.14132697285E+03  0.14972712437E+03  0.10133645331E+03  0.22948115781E+03  0.99999687468E+00 0.  0.
          4    1    3    3  502    0  0.69906159263E+02 -0.13810079357E+03 -0.89084667140E+02  0.17859109219E+03  0.00000000000E+00 0.  1.
   -9000007    1    1    2    0  501  0.71420813588E+02 -0.11626330799E+02  0.80332761533E+03  0.90031736723E+03  0.40000000000E+03 0. -1.
<mgrwt>
<rscale>  2 0.40718977E+03</rscale>
<asrwt>0</asrwt>
<pdfrwt beam="1">  1        2 0.16338223E+00 0.40718977E+03</pdfrwt>
<pdfrwt beam="2">  1       -2 0.37908478E-01 0.40718977E+03</pdfrwt>
<totfact> 0.15758662E+02</totfact>
</mgrwt>
</event>
<event>
 6    1  0.9205235E-004  0.4708093E+03  0.7818608E-02  0.1021692E+00
         -2   -1    0    0    0  501 -0.00000000000E+00  0.00000000000E+00  0.23240559438E+03  0.23240559438E+03  0.00000000000E+00 0. -1.
          2   -1    0    0  502    0  0.00000000000E+00 -0.00000000000E+00 -0.96232367814E+03  0.96232367814E+03  0.00000000000E+00 0.  1.
    9000007    2    1    2  502    0  0.24261794295E+03 -0.54136387220E+02 -0.30853048376E+03  0.56277854335E+03  0.39966788060E+03 0.  0.
    9000005    1    3    3    0    0  0.78178520379E+02  0.56592172531E+02  0.80804819203E+02  0.12587682011E+03  0.99999687468E+00 0.  0.
          4    1    3    3  502    0  0.16443942257E+03 -0.11072855975E+03 -0.38933530297E+03  0.43690172325E+03  0.00000000000E+00 0.  1.
   -9000007    1    1    2    0  501 -0.24261794295E+03  0.54136387220E+02 -0.42138760000E+03  0.63195072917E+03  0.40000000000E+03 0. -1.
<mgrwt>
<rscale>  2 0.47080928E+03</rscale>
<asrwt>0</asrwt>
<pdfrwt beam="1">  1        2 0.14804980E+00 0.47080928E+03</pdfrwt>
<pdfrwt beam="2">  1       -2 0.35754706E-01 0.47080928E+03</pdfrwt>
<totfact> 0.20189467E+02</totfact>
</mgrwt>
</event>
<event>
 6    1  0.9205235E-004  0.6072324E+03  0.7818608E-02  0.9890514E-01
          2   -1    0    0  502    0  0.00000000000E+00  0.00000000000E+00  0.15751136671E+04  0.15751136671E+04  0.00000000000E+00 0. -1.
         -2   -1    0    0    0  501 -0.00000000000E+00 -0.00000000000E+00 -0.23729851971E+03  0.23729851971E+03  0.00000000000E+00 0.  1.
    9000007    2    1    2  502    0  0.44395890191E+03 -0.10959696592E+03  0.77380709193E+03  0.98342721219E+03  0.39904970196E+03 0.  0.
    9000005    1    3    3    0    0  0.41833526124E+03 -0.11861755632E+03  0.82096213333E+03  0.92900717964E+03  0.99999687468E+00 0.  0.
          4    1    3    3  502    0  0.25623640667E+02  0.90205903959E+01 -0.47155041408E+02  0.54420032546E+02  0.00000000000E+00 0.  1.
   -9000007    1    1    2    0  501 -0.44395890191E+03  0.10959696592E+03  0.56400805545E+03  0.82898497462E+03  0.40000000000E+03 0.  1.
<mgrwt>
<rscale>  2 0.60723236E+03</rscale>
<asrwt>0</asrwt>
<pdfrwt beam="1">  1        2 0.24232517E+00 0.60723236E+03</pdfrwt>
<pdfrwt beam="2">  1       -2 0.36507466E-01 0.60723236E+03</pdfrwt>
<totfact> 0.84277688E+01</totfact>
</mgrwt>
</event>
<event>
 6    1  0.9205235E-004  0.4172233E+03  0.7818608E-02  0.1037974E+00
         -4   -1    0    0    0  501 -0.00000000000E+00  0.00000000000E+00  0.20733302444E+03  0.20733302444E+03  0.00000000000E+00 0. -1.
          4   -1    0    0  502    0  0.00000000000E+00 -0.00000000000E+00 -0.11706296734E+04  0.11706296734E+04  0.00000000000E+00 0.  1.
    9000007    2    1    2  502    0  0.12027537133E+03  0.23366868052E+02 -0.84710043623E+03  0.94378101316E+03  0.39765723466E+03 0.  0.
    9000005    1    3    3    0    0  0.15635990707E+03 -0.15800470359E+03 -0.55737425194E+03  0.60006746588E+03  0.99999687468E+00 0.  0.
          4    1    3    3  502    0 -0.36084535740E+02  0.18137157164E+03 -0.28972618429E+03  0.34371354728E+03  0.00000000000E+00 0.  1.
   -9000007    1    1    2    0  501 -0.12027537133E+03 -0.23366868052E+02 -0.11619621277E+03  0.43418168471E+03  0.40000000000E+03 0.  1.
<mgrwt>
<rscale>  2 0.41722333E+03</rscale>
<asrwt>0</asrwt>
<pdfrwt beam="1">  1        4 0.18009688E+00 0.41722333E+03</pdfrwt>
<pdfrwt beam="2">  1       -4 0.31897388E-01 0.41722333E+03</pdfrwt>
<totfact> 0.33684532E+00</totfact>
</mgrwt>
</event>
<event>
 6    1  0.9205235E-004  0.4539075E+03  0.7818608E-02  0.1026563E+00
         -2   -1    0    0    0  501 -0.00000000000E+00  0.00000000000E+00  0.25770133564E+03  0.25770133564E+03  0.00000000000E+00 0.  1.
          2   -1    0    0  502    0  0.00000000000E+00 -0.00000000000E+00 -0.95475658129E+03  0.95475658129E+03  0.00000000000E+00 0. -1.
    9000007    2    1    2  502    0  0.14876732182E+03 -0.15459784834E+03 -0.10406252178E+03  0.46568313072E+03  0.39999944881E+03 0.  0.
    9000005    1    3    3    0    0  0.11953088096E+03 -0.27562122103E+03  0.45521505200E+01  0.30046033191E+03  0.99999687468E+00 0.  0.
          4    1    3    3  502    0  0.29236440856E+02  0.12102337268E+03 -0.10861467230E+03  0.16522279881E+03  0.00000000000E+00 0.  1.
   -9000007    1    1    2    0  501 -0.14876732182E+03  0.15459784834E+03 -0.59299272388E+03  0.74677478621E+03  0.40000000000E+03 0. -1.
<mgrwt>
<rscale>  2 0.45390747E+03</rscale>
<asrwt>0</asrwt>
<pdfrwt beam="1">  1        2 0.14688563E+00 0.45390747E+03</pdfrwt>
<pdfrwt beam="2">  1       -2 0.39646359E-01 0.45390747E+03</pdfrwt>
<totfact> 0.16779630E+02</totfact>
</mgrwt>
</event>
<event>
 6    1  0.9205235E-004  0.4341644E+03  0.7818608E-02  0.1032552E+00
         -2   -1    0    0    0  501 -0.00000000000E+00  0.00000000000E+00  0.10355004333E+03  0.10355004333E+03  0.00000000000E+00 0.  1.
          2   -1    0    0  502    0  0.00000000000E+00 -0.00000000000E+00 -0.18207845722E+04  0.18207845722E+04  0.00000000000E+00 0. -1.
    9000007    2    1    2  502    0 -0.29285672136E+02 -0.16728591230E+03 -0.87244330417E+03  0.97432701536E+03  0.39914106132E+03 0.  0.
    9000005    1    3    3    0    0  0.89820090194E+01 -0.32154873673E+02 -0.82560091090E+03  0.82627627126E+03  0.99999687468E+00 0.  0.
          4    1    3    3  502    0 -0.38267681156E+02 -0.13513103862E+03 -0.46842393270E+02  0.14805074410E+03  0.00000000000E+00 0.  1.
   -9000007    1    1    2    0  501  0.29285672136E+02  0.16728591230E+03 -0.84479122471E+03  0.95000760018E+03  0.40000000000E+03 0. -1.
<mgrwt>
<rscale>  2 0.43416438E+03</rscale>
<asrwt>0</asrwt>
<pdfrwt beam="1">  1        2 0.28012069E+00 0.43416438E+03</pdfrwt>
<pdfrwt beam="2">  1       -2 0.15930777E-01 0.43416438E+03</pdfrwt>
<totfact> 0.27959328E+02</totfact>
</mgrwt>
</event>
<event>
 6    1  0.9205235E-004  0.5909183E+03  0.7818608E-02  0.9924429E-01
          2   -1    0    0  502    0  0.00000000000E+00  0.00000000000E+00  0.65121851252E+03  0.65121851252E+03  0.00000000000E+00 0.  1.
         -2   -1    0    0    0  501 -0.00000000000E+00 -0.00000000000E+00 -0.56724982135E+03  0.56724982135E+03  0.00000000000E+00 0. -1.
    9000007    2    1    2  502    0  0.59062625043E+02  0.43016136479E+03 -0.10050984901E+03  0.59995436861E+03  0.40164140877E+03 0.  0.
    9000005    1    3    3    0    0  0.19395401450E+03  0.39883350644E+03 -0.29876660417E+02  0.44449965177E+03  0.99999687468E+00 0.  0.
          4    1    3    3  502    0 -0.13489138945E+03  0.31327858350E+02 -0.70633188589E+02  0.15545471684E+03  0.00000000000E+00 0.  1.
   -9000007    1    1    2    0  501 -0.59062625043E+02 -0.43016136479E+03  0.18447854017E+03  0.61851396525E+03  0.40000000000E+03 0.  1.
<mgrwt>
<rscale>  2 0.59091834E+03</rscale>
<asrwt>0</asrwt>
<pdfrwt beam="1">  1        2 0.10018746E+00 0.59091834E+03</pdfrwt>
<pdfrwt beam="2">  1       -2 0.87269203E-01 0.59091834E+03</pdfrwt>
<totfact> 0.52200381E+01</totfact>
</mgrwt>
</event>
<event>
 6    1  0.9205235E-004  0.4746625E+03  0.7818608E-02  0.1020612E+00
          2   -1    0    0  502    0  0.00000000000E+00  0.00000000000E+00  0.16401307454E+04  0.16401307454E+04  0.00000000000E+00 0.  1.
         -2   -1    0    0    0  501 -0.00000000000E+00 -0.00000000000E+00 -0.22957736896E+03  0.22957736896E+03  0.00000000000E+00 0. -1.
    9000007    2    1    2  502    0 -0.10370242384E+03 -0.23228436057E+03  0.11337045104E+03  0.48862384509E+03  0.40148497599E+03 0.  0.
    9000005    1    3    3    0    0 -0.12989503783E+03 -0.25432839051E+03 -0.76533645711E+02  0.29565867143E+03  0.99999687468E+00 0.  0.
          4    1    3    3  502    0  0.26192613989E+02  0.22044029944E+02  0.18990409675E+03  0.19296517366E+03  0.00000000000E+00 0.  1.
   -9000007    1    1    2    0  501  0.10370242384E+03  0.23228436057E+03  0.12971829254E+04  0.13810842693E+04  0.40000000000E+03 0.  1.
<mgrwt>
<rscale>  2 0.47466254E+03</rscale>
<asrwt>0</asrwt>
<pdfrwt beam="1">  1        2 0.25232780E+00 0.47466254E+03</pdfrwt>
<pdfrwt beam="2">  1       -2 0.35319596E-01 0.47466254E+03</pdfrwt>
<totfact> 0.84239672E+01</totfact>
</mgrwt>
</event>
<event>
 6    1  0.9205235E-004  0.4915971E+03  0.7818608E-02  0.1015996E+00
         -1   -1    0    0    0  501 -0.00000000000E+00  0.00000000000E+00  0.49347143494E+03  0.49347143494E+03  0.00000000000E+00 0. -1.
          1   -1    0    0  502    0  0.00000000000E+00 -0.00000000000E+00 -0.66459213188E+03  0.66459213188E+03  0.00000000000E+00 0.  1.
    9000007    2    1    2  502    0 -0.20642868194E+03  0.19543359018E+03 -0.38268226972E+03  0.62368038222E+03  0.40214973669E+03 0.  0.
    9000005    1    3    3    0    0  0.72991121368E+02  0.66636280852E+02  0.35050310773E+02  0.10486954755E+03  0.99999687468E+00 0.  0.
          4    1    3    3  502    0 -0.27941980331E+03  0.12879730933E+03 -0.41773258049E+03  0.51881083467E+03  0.00000000000E+00 0.  1.
   -9000007    1    1    2    0  501  0.20642868194E+03 -0.19543359018E+03  0.21156157279E+03  0.53438318460E+03  0.40000000000E+03 0. -1.
<mgrwt>
<rscale>  2 0.49159715E+03</rscale>
<asrwt>0</asrwt>
<pdfrwt beam="1">  1        1 0.10224494E+00 0.49159715E+03</pdfrwt>
<pdfrwt beam="2">  1       -1 0.75918682E-01 0.49159715E+03</pdfrwt>
<totfact> 0.53955738E+01</totfact>
</mgrwt>
</event>
<event>
 6    1  0.9205235E-004  0.5167712E+03  0.7818608E-02  0.1009492E+00
          2   -1    0    0  502    0  0.00000000000E+00  0.00000000000E+00  0.97497481320E+03  0.97497481320E+03  0.00000000000E+00 0. -1.
         -2   -1    0    0    0  501 -0.00000000000E+00 -0.00000000000E+00 -0.28427861811E+03  0.28427861811E+03  0.00000000000E+00 0.  1.
    9000007    2    1    2  502    0  0.27286772105E+02  0.32607992389E+03  0.22507194373E+03  0.56363958142E+03  0.39994938830E+03 0.  0.
    9000005    1    3    3    0    0  0.50617401401E+01 -0.94867872136E+02  0.47673082055E+02  0.10629796387E+03  0.99999687468E+00 0.  0.
          4    1    3    3  502    0  0.22225031965E+02  0.42094779602E+03  0.17739886167E+03  0.45734161755E+03  0.00000000000E+00 0.  1.
   -9000007    1    1    2    0  501 -0.27286772105E+02 -0.32607992389E+03  0.46562425136E+03  0.69561384988E+03  0.40000000000E+03 0.  1.
<mgrwt>
<rscale>  2 0.51677117E+03</rscale>
<asrwt>0</asrwt>
<pdfrwt beam="1">  1        2 0.14999612E+00 0.51677117E+03</pdfrwt>
<pdfrwt beam="2">  1       -2 0.43735172E-01 0.51677117E+03</pdfrwt>
<totfact> 0.13366310E+02</totfact>
</mgrwt>
</event>
<event>
 6    1  0.9205235E-004  0.4089021E+03  0.7818608E-02  0.1040740E+00
         -2   -1    0    0    0  501 -0.00000000000E+00  0.00000000000E+00  0.26336641727E+03  0.26336641727E+03  0.00000000000E+00 0. -1.
          2   -1    0    0  502    0  0.00000000000E+00 -0.00000000000E+00 -0.67523100607E+03  0.67523100607E+03  0.00000000000E+00 0.  1.
    9000007    2    1    2  502    0  0.23472218760E+02 -0.80632609112E+02 -0.91267633845E+02  0.41914100531E+03  0.40037087636E+03 0.  0.
    9000005    1    3    3    0    0  0.55192947293E+02 -0.24016518096E+03 -0.54699675576E+02  0.25242549412E+03  0.99999687468E+00 0.  0.
          4    1    3    3  502    0 -0.31720728532E+02  0.15953257185E+03 -0.36567958270E+02  0.16671551119E+03  0.00000000000E+00 0.  1.
   -9000007    1    1    2    0  501 -0.23472218760E+02  0.80632609112E+02 -0.32059695496E+03  0.51945641803E+03  0.40000000000E+03 0. -1.
<mgrwt>
<rscale>  2 0.40890209E+03</rscale>
<asrwt>0</asrwt>
<pdfrwt beam="1">  1        2 0.10388169E+00 0.40890209E+03</pdfrwt>
<pdfrwt beam="2">  1       -2 0.40517911E-01 0.40890209E+03</pdfrwt>
<totfact> 0.25402229E+02</totfact>
</mgrwt>
</event>
<event>
 6    1  0.9205235E-004  0.7999750E+03  0.7818608E-02  0.9560053E-01
         -1   -1    0    0    0  501 -0.00000000000E+00  0.00000000000E+00  0.77734884419E+03  0.77734884419E+03  0.00000000000E+00 0. -1.
          1   -1    0    0  502    0  0.00000000000E+00 -0.00000000000E+00 -0.10598819580E+04  0.10598819580E+04  0.00000000000E+00 0.  1.
    9000007    2    1    2  502    0 -0.41775775020E+03  0.55256190171E+03 -0.57531931127E+03  0.98542686324E+03  0.40028439866E+03 0.  0.
    9000005    1    3    3    0    0  0.43764219477E+02 -0.31574137409E+02 -0.55694667406E+02  0.77557262915E+02  0.99999687468E+00 0.  0.
          4    1    3    3  502    0 -0.46152196967E+03  0.58413603911E+03 -0.51962464386E+03  0.90786960032E+03  0.00000000000E+00 0.  1.
   -9000007    1    1    2    0  501  0.41775775020E+03 -0.55256190171E+03  0.29278619742E+03  0.85180393898E+03  0.40000000000E+03 0. -1.
<mgrwt>
<rscale>  2 0.79997499E+03</rscale>
<asrwt>0</asrwt>
<pdfrwt beam="1">  1        1 0.16305876E+00 0.79997499E+03</pdfrwt>
<pdfrwt beam="2">  1       -1 0.11959213E+00 0.79997499E+03</pdfrwt>
<totfact> 0.87170304E+00</totfact>
</mgrwt>
</event>
<event>
 6    1  0.9205235E-004  0.6174505E+03  0.7818608E-02  0.9869849E-01
          2   -1    0    0  502    0  0.00000000000E+00  0.00000000000E+00  0.19294214283E+04  0.19294214283E+04  0.00000000000E+00 0.  1.
         -2   -1    0    0    0  501 -0.00000000000E+00 -0.00000000000E+00 -0.19785930421E+03  0.19785930421E+03  0.00000000000E+00 0. -1.
    9000007    2    1    2  502    0 -0.30136321195E+03 -0.36143160093E+03  0.90437679957E+03  0.10949590052E+04  0.39948121322E+03 0.  0.
    9000005    1    3    3    0    0 -0.65110806650E+02 -0.63873390876E+02  0.60338417442E+03  0.61023986197E+03  0.99999687468E+00 0.  0.
          4    1    3    3  502    0 -0.23625240530E+03 -0.29755821006E+03  0.30099262515E+03  0.48471914319E+03  0.00000000000E+00 0.  1.
   -9000007    1    1    2    0  501  0.30136321195E+03  0.36143160093E+03  0.82718532453E+03  0.10323217274E+04  0.40000000000E+03 0. -1.
<mgrwt>
<rscale>  2 0.61745053E+03</rscale>
<asrwt>0</asrwt>
<pdfrwt beam="1">  1        2 0.29683405E+00 0.61745053E+03</pdfrwt>
<pdfrwt beam="2">  1       -2 0.30439894E-01 0.61745053E+03</pdfrwt>
<totfact> 0.76086790E+01</totfact>
</mgrwt>
</event>
<event>
 6    1  0.9205235E-004  0.4889911E+03  0.7818608E-02  0.1016693E+00
          2   -1    0    0  502    0  0.00000000000E+00  0.00000000000E+00  0.25804580547E+04  0.25804580547E+04  0.00000000000E+00 0.  1.
         -2   -1    0    0    0  501 -0.00000000000E+00 -0.00000000000E+00 -0.94352167001E+02  0.94352167001E+02  0.00000000000E+00 0. -1.
    9000007    2    1    2  502    0 -0.24541013057E+03  0.13435801647E+03  0.10662401658E+04  0.11733786125E+04  0.40208340977E+03 0.  0.
    9000005    1    3    3    0    0  0.58028413557E+02 -0.71016351565E+02  0.81550682488E+02  0.12272788101E+03  0.99999687468E+00 0.  0.
          4    1    3    3  502    0 -0.30343854412E+03  0.20537436804E+03  0.98468948329E+03  0.10506507315E+04  0.00000000000E+00 0.  1.
   -9000007    1    1    2    0  501  0.24541013057E+03 -0.13435801647E+03  0.14198657219E+04  0.15014316092E+04  0.40000000000E+03 0.  1.
<mgrwt>
<rscale>  2 0.48899109E+03</rscale>
<asrwt>0</asrwt>
<pdfrwt beam="1">  1        2 0.39699349E+00 0.48899109E+03</pdfrwt>
<pdfrwt beam="2">  1       -2 0.14515720E-01 0.48899109E+03</pdfrwt>
<totfact> 0.12493123E+02</totfact>
</mgrwt>
</event>
<event>
 6    1  0.9205235E-004  0.5193402E+03  0.7818608E-02  0.1008851E+00
          1   -1    0    0  502    0  0.00000000000E+00  0.00000000000E+00  0.14554207391E+03  0.14554207391E+03  0.00000000000E+00 0.  1.
         -1   -1    0    0    0  501 -0.00000000000E+00 -0.00000000000E+00 -0.19783951938E+04  0.19783951938E+04  0.00000000000E+00 0. -1.
    9000007    2    1    2  502    0  0.27503391640E+03 -0.18428284346E+03 -0.64942470061E+03  0.83161120780E+03  0.40027607674E+03 0.  0.
    9000005    1    3    3    0    0  0.37986216074E+03 -0.14756441151E+03 -0.49013796884E+03  0.63742195224E+03  0.99999687468E+00 0.  0.
          4    1    3    3  502    0 -0.10482824434E+03 -0.36718431945E+02 -0.15928673177E+03  0.19418925556E+03  0.00000000000E+00 0.  1.
   -9000007    1    1    2    0  501 -0.27503391640E+03  0.18428284346E+03 -0.11834284193E+04  0.12923260599E+04  0.40000000000E+03 0.  1.
<mgrwt>
<rscale>  2 0.51934022E+03</rscale>
<asrwt>0</asrwt>
<pdfrwt beam="1">  1        1 0.22391092E-01 0.51934022E+03</pdfrwt>
<pdfrwt beam="2">  1       -1 0.30436844E+00 0.51934022E+03</pdfrwt>
<totfact> 0.75550847E+00</totfact>
</mgrwt>
</event>
<event>
 6    1  0.9205235E-004  0.6036659E+03  0.7818608E-02  0.9897830E-01
          2   -1    0    0  502    0  0.00000000000E+00  0.00000000000E+00  0.38679171978E+04  0.38679171978E+04  0.00000000000E+00 0.  1.
         -2   -1    0    0    0  501 -0.00000000000E+00 -0.00000000000E+00 -0.96851676841E+02  0.96851676841E+02  0.00000000000E+00 0. -1.
    9000007    2    1    2  502    0  0.46862349246E+02 -0.45045529881E+03  0.15566541415E+04  0.16693987926E+04  0.39826392823E+03 0.  0.
    9000005    1    3    3    0    0  0.17548696898E+03 -0.29049414970E+03  0.58516795783E+03  0.67646512560E+03  0.99999687468E+00 0.  0.
          4    1    3    3  502    0 -0.12862461973E+03 -0.15996114911E+03  0.97148618364E+03  0.99293366698E+03  0.00000000000E+00 0.  1.
   -9000007    1    1    2    0  501 -0.46862349246E+02  0.45045529881E+03  0.22144113795E+04  0.22953700821E+04  0.40000000000E+03 0.  1.
<mgrwt>
<rscale>  2 0.60366586E+03</rscale>
<asrwt>0</asrwt>
<pdfrwt beam="1">  1        2 0.59506406E+00 0.60366586E+03</pdfrwt>
<pdfrwt beam="2">  1       -2 0.14900261E-01 0.60366586E+03</pdfrwt>
<totfact> 0.17405204E+01</totfact>
</mgrwt>
</event>
<event>
 6    1  0.9205235E-004  0.4242426E+03  0.7818608E-02  0.1035694E+00
         -3   -1    0    0    0  501 -0.00000000000E+00  0.00000000000E+00  0.22166677119E+03  0.22166677119E+03  0.00000000000E+00 0.  1.
          3   -1    0    0  502    0  0.00000000000E+00 -0.00000000000E+00 -0.81414498575E+03  0.81414498575E+03  0.00000000000E+00 0. -1.
    9000007    2    1    2  502    0  0.77291920262E+02  0.11855960960E+03 -0.32310657075E+03  0.53322693380E+03  0.39987833763E+03 0.  0.
    9000005    1    3    3    0    0  0.21278793921E+03 -0.18485896215E+02 -0.24565426436E+03  0.32552642446E+03  0.99999687468E+00 0.  0.
          4    1    3    3  502    0 -0.13549601894E+03  0.13704550582E+03 -0.77452306388E+02  0.20770050934E+03  0.00000000000E+00 0.  1.
   -9000007    1    1    2    0  501 -0.77291920262E+02 -0.11855960960E+03 -0.26937164381E+03  0.50258482315E+03  0.40000000000E+03 0.  1.
<mgrwt>
<rscale>  2 0.42424257E+03</rscale>
<asrwt>0</asrwt>
<pdfrwt beam="1">  1        3 0.12525308E+00 0.42424257E+03</pdfrwt>
<pdfrwt beam="2">  1       -3 0.34102580E-01 0.42424257E+03</pdfrwt>
<totfact> 0.11289420E+01</totfact>
</mgrwt>
</event>
<event>
 6    1  0.9205235E-004  0.4068945E+03  0.7818608E-02  0.1041418E+00
          1   -1    0    0  502    0  0.00000000000E+00  0.00000000000E+00  0.26374753046E+04  0.26374753046E+04  0.00000000000E+00 0. -1.
         -1   -1    0    0    0  501 -0.00000000000E+00 -0.00000000000E+00 -0.79939482487E+02  0.79939482487E+02  0.00000000000E+00 0.  1.
    9000007    2    1    2  502    0 -0.66941236249E+02 -0.34321150345E+02  0.64885301673E+03  0.76581822990E+03  0.39976024496E+03 0.  0.
    9000005    1    3    3    0    0 -0.39834825441E+02  0.17255473525E+03  0.42174393302E+03  0.45741763741E+03  0.99999687468E+00 0.  0.
          4    1    3    3  502    0 -0.27106410808E+02 -0.20687588559E+03  0.22710908371E+03  0.30840059250E+03  0.00000000000E+00 0.  1.
   -9000007    1    1    2    0  501  0.66941236249E+02  0.34321150345E+02  0.19086828054E+04  0.19515965572E+04  0.40000000000E+03 0. -1.
<mgrwt>
<rscale>  2 0.40689454E+03</rscale>
<asrwt>0</asrwt>
<pdfrwt beam="1">  1        1 0.40576536E+00 0.40689454E+03</pdfrwt>
<pdfrwt beam="2">  1       -1 0.12298384E-01 0.40689454E+03</pdfrwt>
<totfact> 0.54598401E+01</totfact>
</mgrwt>
</event>
<event>
 6    1  0.9205235E-004  0.5096083E+03  0.7818608E-02  0.1011301E+00
          1   -1    0    0  502    0  0.00000000000E+00  0.00000000000E+00  0.22045867832E+04  0.22045867832E+04  0.00000000000E+00 0.  1.
         -1   -1    0    0    0  501 -0.00000000000E+00 -0.00000000000E+00 -0.13313430757E+03  0.13313430757E+03  0.00000000000E+00 0. -1.
    9000007    2    1    2  502    0  0.12673090257E+03 -0.28860380913E+03  0.63965407033E+03  0.81805022057E+03  0.40086899776E+03 0.  0.
    9000005    1    3    3    0    0  0.22250045385E+02 -0.29544326722E+03  0.18011463917E+03  0.34673343061E+03  0.99999687468E+00 0.  0.
          4    1    3    3  502    0  0.10448085719E+03  0.68394580863E+01  0.45953943116E+03  0.47131678996E+03  0.00000000000E+00 0.  1.
   -9000007    1    1    2    0  501 -0.12673090257E+03  0.28860380913E+03  0.14317984053E+04  0.15196708702E+04  0.40000000000E+03 0.  1.
<mgrwt>
<rscale>  2 0.50960830E+03</rscale>
<asrwt>0</asrwt>
<pdfrwt beam="1">  1        1 0.33916717E+00 0.50960830E+03</pdfrwt>
<pdfrwt beam="2">  1       -1 0.20482203E-01 0.50960830E+03</pdfrwt>
<totfact> 0.45702477E+01</totfact>
</mgrwt>
</event>
<event>
 6    1  0.9205235E-004  0.4162669E+03  0.7818608E-02  0.1038288E+00
          1   -1    0    0  502    0  0.00000000000E+00  0.00000000000E+00  0.10728646280E+04  0.10728646280E+04  0.00000000000E+00 0. -1.
         -1   -1    0    0    0  501 -0.00000000000E+00 -0.00000000000E+00 -0.43288463473E+03  0.43288463473E+03  0.00000000000E+00 0.  1.
    9000007    2    1    2  502    0  0.11513688502E+03 -0.46414734594E+01 -0.27611301687E+03  0.49951646223E+03  0.40000031548E+03 0.  0.
    9000005    1    3    3    0    0  0.38154325054E+02 -0.17148158956E+03 -0.26171348673E+03  0.31520887870E+03  0.99999687468E+00 0.  0.
          4    1    3    3  502    0  0.76982559969E+02  0.16684011610E+03 -0.14399530142E+02  0.18430758354E+03  0.00000000000E+00 0.  1.
   -9000007    1    1    2    0  501 -0.11513688502E+03  0.46414734594E+01  0.91609301010E+03  0.10062328005E+04  0.40000000000E+03 0. -1.
<mgrwt>
<rscale>  2 0.41626695E+03</rscale>
<asrwt>0</asrwt>
<pdfrwt beam="1">  1        1 0.16505610E+00 0.41626695E+03</pdfrwt>
<pdfrwt beam="2">  1       -1 0.66597636E-01 0.41626695E+03</pdfrwt>
<totfact> 0.32792373E+01</totfact>
</mgrwt>
</event>
<event>
 6    1  0.9205235E-004  0.7393070E+03  0.7818608E-02  0.9652277E-01
          2   -1    0    0  502    0  0.00000000000E+00  0.00000000000E+00  0.78185154498E+03  0.78185154498E+03  0.00000000000E+00 0. -1.
         -2   -1    0    0    0  501 -0.00000000000E+00 -0.00000000000E+00 -0.72080369960E+03  0.72080369960E+03  0.00000000000E+00 0.  1.
    9000007    2    1    2  502    0 -0.52619054670E+03 -0.33121865239E+03  0.16096402079E+03  0.75662204878E+03  0.39998152655E+03 0.  0.
    9000005    1    3    3    0    0 -0.45820663851E+03 -0.33543177984E+03 -0.14867859423E+02  0.56805796865E+03  0.99999687468E+00 0.  0.
          4    1    3    3  502    0 -0.67983908185E+02  0.42131274516E+01  0.17583188022E+03  0.18856408013E+03  0.00000000000E+00 0.  1.
   -9000007    1    1    2    0  501  0.52619054670E+03  0.33121865239E+03 -0.99916175415E+02  0.74603319580E+03  0.40000000000E+03 0.  1.
<mgrwt>
<rscale>  2 0.73930704E+03</rscale>
<asrwt>0</asrwt>
<pdfrwt beam="1">  1        2 0.12028485E+00 0.73930704E+03</pdfrwt>
<pdfrwt beam="2">  1       -2 0.11089288E+00 0.73930704E+03</pdfrwt>
<totfact> 0.23228555E+01</totfact>
</mgrwt>
</event>
<event>
 6    1  0.9205235E-004  0.5949731E+03  0.7818608E-02  0.9915890E-01
          1   -1    0    0  502    0  0.00000000000E+00  0.00000000000E+00  0.32958968981E+04  0.32958968981E+04  0.00000000000E+00 0. -1.
         -1   -1    0    0    0  501 -0.00000000000E+00 -0.00000000000E+00 -0.14224957038E+03  0.14224957038E+03  0.00000000000E+00 0.  1.
    9000007    2    1    2  502    0 -0.36783449473E+03  0.24180302817E+03  0.24280250199E+04  0.24999041471E+04  0.40055502459E+03 0.  0.
    9000005    1    3    3    0    0 -0.33698815627E+03  0.30287365091E+02  0.99332800396E+03  0.10493711762E+04  0.99999687468E+00 0.  0.
          4    1    3    3  502    0 -0.30846338461E+02  0.21151566308E+03  0.14346970159E+04  0.14505329710E+04  0.00000000000E+00 0.  1.
   -9000007    1    1    2    0  501  0.36783449473E+03 -0.24180302817E+03  0.72562230784E+03  0.93824232136E+03  0.40000000000E+03 0.  1.
<mgrwt>
<rscale>  2 0.59497312E+03</rscale>
<asrwt>0</asrwt>
<pdfrwt beam="1">  1        1 0.50706100E+00 0.59497312E+03</pdfrwt>
<pdfrwt beam="2">  1       -1 0.21884552E-01 0.59497312E+03</pdfrwt>
<totfact> 0.69863883E+00</totfact>
</mgrwt>
</event>
<event>
 6    1  0.9205235E-004  0.7366919E+03  0.7818608E-02  0.9656463E-01
          2   -1    0    0  502    0  0.00000000000E+00  0.00000000000E+00  0.16100411099E+04  0.16100411099E+04  0.00000000000E+00 0. -1.
         -2   -1    0    0    0  501 -0.00000000000E+00 -0.00000000000E+00 -0.35459562733E+03  0.35459562733E+03  0.00000000000E+00 0.  1.
    9000007    2    1    2  502    0 -0.29214652323E+03  0.54521463223E+03  0.84609492592E+03  0.11219170540E+04  0.40026574441E+03 0.  0.
    9000005    1    3    3    0    0 -0.16207437425E+03  0.37496089076E+03  0.80647753057E+03  0.90403029800E+03  0.99999687468E+00 0.  0.
          4    1    3    3  502    0 -0.13007214897E+03  0.17025374148E+03  0.39617395347E+02  0.21788675600E+03  0.00000000000E+00 0.  1.
   -9000007    1    1    2    0  501  0.29214652323E+03 -0.54521463223E+03  0.40935055662E+03  0.84271968319E+03  0.40000000000E+03 0.  1.
<mgrwt>
<rscale>  2 0.73669187E+03</rscale>
<asrwt>0</asrwt>
<pdfrwt beam="1">  1        2 0.24769863E+00 0.73669187E+03</pdfrwt>
<pdfrwt beam="2">  1       -2 0.54553174E-01 0.73669187E+03</pdfrwt>
<totfact> 0.35723467E+01</totfact>
</mgrwt>
</event>
<event>
 6    1  0.9205235E-004  0.5473841E+03  0.7818608E-02  0.1002101E+00
          2   -1    0    0  502    0  0.00000000000E+00  0.00000000000E+00  0.19402350177E+04  0.19402350177E+04  0.00000000000E+00 0.  1.
         -2   -1    0    0    0  501 -0.00000000000E+00 -0.00000000000E+00 -0.20010821167E+03  0.20010821167E+03  0.00000000000E+00 0. -1.
    9000007    2    1    2  502    0  0.50323612793E+02 -0.36733952016E+03  0.13837799291E+04  0.14888419740E+04  0.40537975075E+03 0.  0.
    9000005    1    3    3    0    0 -0.17552938129E+03 -0.16620927735E+03  0.51461704780E+03  0.56856643715E+03  0.99999687468E+00 0.  0.
          4    1    3    3  502    0  0.22585299409E+03 -0.20113024281E+03  0.86916288125E+03  0.92027553681E+03  0.00000000000E+00 0.  1.
   -9000007    1    1    2    0  501 -0.50323612793E+02  0.36733952016E+03  0.35634687702E+03  0.65150125544E+03  0.40000000000E+03 0. -1.
<mgrwt>
<rscale>  2 0.54738408E+03</rscale>
<asrwt>0</asrwt>
<pdfrwt beam="1">  1        2 0.29849768E+00 0.54738408E+03</pdfrwt>
<pdfrwt beam="2">  1       -2 0.30785880E-01 0.54738408E+03</pdfrwt>
<totfact> 0.74250053E+01</totfact>
</mgrwt>
</event>
<event>
 6    1  0.9205235E-004  0.4112627E+03  0.7818608E-02  0.1039948E+00
         -1   -1    0    0    0  501 -0.00000000000E+00  0.00000000000E+00  0.18263135634E+04  0.18263135634E+04  0.00000000000E+00 0.  1.
          1   -1    0    0  502    0  0.00000000000E+00 -0.00000000000E+00 -0.24173888114E+03  0.24173888114E+03  0.00000000000E+00 0. -1.
    9000007    2    1    2  502    0 -0.61577979783E+02 -0.73554054715E+02  0.16043813339E+04  0.16562340987E+04  0.39983731481E+03 0.  0.
    9000005    1    3    3    0    0  0.79502793532E+02  0.36610247088E+02  0.13013117334E+04  0.13042523651E+04  0.99999687468E+00 0.  0.
          4    1    3    3  502    0 -0.14108077331E+03 -0.11016430180E+03  0.30306960051E+03  0.35198173354E+03  0.00000000000E+00 0.  1.
   -9000007    1    1    2    0  501  0.61577979783E+02  0.73554054715E+02 -0.19806651667E+02  0.41181834589E+03  0.40000000000E+03 0. -1.
<mgrwt>
<rscale>  2 0.41126266E+03</rscale>
<asrwt>0</asrwt>
<pdfrwt beam="1">  1        1 0.37190598E-01 0.41126266E+03</pdfrwt>
<pdfrwt beam="2">  1       -1 0.28097131E+00 0.41126266E+03</pdfrwt>
<totfact> 0.56540174E+00</totfact>
</mgrwt>
</event>
<event>
 6    1  0.9205235E-004  0.4166786E+03  0.7818608E-02  0.1038153E+00
         -2   -1    0    0    0  501 -0.00000000000E+00  0.00000000000E+00  0.33556962668E+03  0.33556962668E+03  0.00000000000E+00 0. -1.
          2   -1    0    0  502    0  0.00000000000E+00 -0.00000000000E+00 -0.79404846129E+03  0.79404846129E+03  0.00000000000E+00 0.  1.
    9000007    2    1    2  502    0 -0.32703051176E+02 -0.11184128865E+03  0.10412889527E+03  0.42954279122E+03  0.40010775956E+03 0.  0.
    9000005    1    3    3    0    0 -0.10754764883E+03 -0.10135258959E+03  0.23547372357E+03  0.27800668817E+03  0.99999687468E+00 0.  0.
          4    1    3    3  502    0  0.74844597651E+02 -0.10488699067E+02 -0.13134482830E+03  0.15153610305E+03  0.00000000000E+00 0.  1.
   -9000007    1    1    2    0  501  0.32703051176E+02  0.11184128865E+03 -0.56260772988E+03  0.70007529675E+03  0.40000000000E+03 0.  1.
<mgrwt>
<rscale>  2 0.41667861E+03</rscale>
<asrwt>0</asrwt>
<pdfrwt beam="1">  1        2 0.12216130E+00 0.41667861E+03</pdfrwt>
<pdfrwt beam="2">  1       -2 0.51626097E-01 0.41667861E+03</pdfrwt>
<totfact> 0.12807993E+02</totfact>
</mgrwt>
</event>
<event>
 6    1  0.9205235E-004  0.4033230E+03  0.7818608E-02  0.1042635E+00
          2   -1    0    0  502    0  0.00000000000E+00  0.00000000000E+00  0.19870017936E+04  0.19870017936E+04  0.00000000000E+00 0.  1.
         -2   -1    0    0    0  501 -0.00000000000E+00 -0.00000000000E+00 -0.82649426565E+02  0.82649426565E+02  0.00000000000E+00 0. -1.
    9000007    2    1    2  502    0  0.33335035659E+02 -0.38751116297E+02  0.85163987540E+03  0.94234626424E+03  0.40014138843E+03 0.  0.
    9000005    1    3    3    0    0  0.15363404068E+03  0.11561604212E+03  0.55130962951E+03  0.58387823665E+03  0.99999687468E+00 0.  0.
          4    1    3    3  502    0 -0.12029900502E+03 -0.15436715842E+03  0.30033024589E+03  0.35846802759E+03  0.00000000000E+00 0.  1.
   -9000007    1    1    2    0  501 -0.33335035659E+02  0.38751116297E+02  0.10527124917E+04  0.11273049560E+04  0.40000000000E+03 0.  1.
<mgrwt>
<rscale>  2 0.40332298E+03</rscale>
<asrwt>0</asrwt>
<pdfrwt beam="1">  1        2 0.30569255E+00 0.40332298E+03</pdfrwt>
<pdfrwt beam="2">  1       -2 0.12715298E-01 0.40332298E+03</pdfrwt>
<totfact> 0.33306911E+02</totfact>
</mgrwt>
</event>
<event>
 6    1  0.9205235E-004  0.4070056E+03  0.7818608E-02  0.1041381E+00
          1   -1    0    0  502    0  0.00000000000E+00  0.00000000000E+00  0.12729865773E+04  0.12729865773E+04  0.00000000000E+00 0. -1.
         -1   -1    0    0    0  501 -0.00000000000E+00 -0.00000000000E+00 -0.13038372917E+03  0.13038372917E+03  0.00000000000E+00 0.  1.
    9000007    2    1    2  502    0  0.14809255842E+02  0.73500118992E+02  0.54039227236E+03  0.67654215683E+03  0.40007986752E+03 0.  0.
    9000005    1    3    3    0    0  0.16928608930E+03 -0.76980240058E+02  0.30562112532E+03  0.35775551655E+03  0.99999687468E+00 0.  0.
          4    1    3    3  502    0 -0.15447683346E+03  0.15048035905E+03  0.23477114705E+03  0.31878664028E+03  0.00000000000E+00 0.  1.
   -9000007    1    1    2    0  501 -0.14809255842E+02 -0.73500118992E+02  0.60221057578E+03  0.72682814966E+03  0.40000000000E+03 0. -1.
<mgrwt>
<rscale>  2 0.40700556E+03</rscale>
<asrwt>0</asrwt>
<pdfrwt beam="1">  1        1 0.19584408E+00 0.40700556E+03</pdfrwt>
<pdfrwt beam="2">  1       -1 0.20059036E-01 0.40700556E+03</pdfrwt>
<totfact> 0.20181869E+02</totfact>
</mgrwt>
</event>
<event>
 6    1  0.9205235E-004  0.4049760E+03  0.7818608E-02  0.1042070E+00
         -1   -1    0    0    0  501 -0.00000000000E+00  0.00000000000E+00  0.14451312677E+03  0.14451312677E+03  0.00000000000E+00 0. -1.
          1   -1    0    0  502    0  0.00000000000E+00 -0.00000000000E+00 -0.11349162395E+04  0.11349162395E+04  0.00000000000E+00 0.  1.
    9000007    2    1    2  502    0 -0.38067731532E+02 -0.51245127316E+02 -0.49854255362E+03  0.64224648447E+03  0.39982577929E+03 0.  0.
    9000005    1    3    3    0    0 -0.18454421686E+03 -0.31021814349E+02 -0.89773626411E+02  0.20755535390E+03  0.99999687468E+00 0.  0.
          4    1    3    3  502    0  0.14647648533E+03 -0.20223312967E+02 -0.40876892721E+03  0.43469113057E+03  0.00000000000E+00 0.  1.
   -9000007    1    1    2    0  501  0.38067731532E+02  0.51245127316E+02 -0.49186055908E+03  0.63718288178E+03  0.40000000000E+03 0. -1.
<mgrwt>
<rscale>  2 0.40497596E+03</rscale>
<asrwt>0</asrwt>
<pdfrwt beam="1">  1        1 0.17460250E+00 0.40497596E+03</pdfrwt>
<pdfrwt beam="2">  1       -1 0.22232788E-01 0.40497596E+03</pdfrwt>
<totfact> 0.21339389E+02</totfact>
</mgrwt>
</event>
<event>
 6    1  0.9205235E-004  0.6167198E+03  0.7818608E-02  0.9871312E-01
          1   -1    0    0  502    0  0.00000000000E+00  0.00000000000E+00  0.10117307659E+04  0.10117307659E+04  0.00000000000E+00 0.  1.
         -1   -1    0    0    0  501 -0.00000000000E+00 -0.00000000000E+00 -0.81350472882E+03  0.81350472882E+03  0.00000000000E+00 0. -1.
    9000007    2    1    2  502    0  0.41127924225E+03  0.22630679565E+03 -0.57020754478E+03  0.83991547026E+03  0.39994496146E+03 0.  0.
    9000005    1    3    3    0    0  0.40759270807E+03  0.84999106018E+02 -0.56050263052E+03  0.69822694199E+03  0.99999687468E+00 0.  0.
          4    1    3    3  502    0  0.36865341779E+01  0.14130768964E+03 -0.97049142596E+01  0.14168852828E+03  0.00000000000E+00 0.  1.
   -9000007    1    1    2    0  501 -0.41127924225E+03 -0.22630679565E+03  0.76843358187E+03  0.98532002447E+03  0.40000000000E+03 0.  1.
<mgrwt>
<rscale>  2 0.61671984E+03</rscale>
<asrwt>0</asrwt>
<pdfrwt beam="1">  1        1 0.15565089E+00 0.61671984E+03</pdfrwt>
<pdfrwt beam="2">  1       -1 0.12515457E+00 0.61671984E+03</pdfrwt>
<totfact> 0.87236861E+00</totfact>
</mgrwt>
</event>
<event>
 6    1  0.9205235E-004  0.4258581E+03  0.7818608E-02  0.1035176E+00
          1   -1    0    0  502    0  0.00000000000E+00  0.00000000000E+00  0.24623014488E+03  0.24623014488E+03  0.00000000000E+00 0. -1.
         -1   -1    0    0    0  501 -0.00000000000E+00 -0.00000000000E+00 -0.80555880547E+03  0.80555880547E+03  0.00000000000E+00 0.  1.
    9000007    2    1    2  502    0  0.12437039429E+03 -0.77428067090E+02 -0.43353639391E+03  0.60761916873E+03  0.39973009496E+03 0.  0.
    9000005    1    3    3    0    0  0.13091090317E+03 -0.23132568316E+03 -0.32149774603E+03  0.41714630162E+03  0.99999687468E+00 0.  0.
          4    1    3    3  502    0 -0.65405088800E+01  0.15389761607E+03 -0.11203864788E+03  0.19047286711E+03  0.00000000000E+00 0.  1.
   -9000007    1    1    2    0  501 -0.12437039429E+03  0.77428067090E+02 -0.12579226667E+03  0.44416978162E+03  0.40000000000E+03 0. -1.
<mgrwt>
<rscale>  2 0.42585813E+03</rscale>
<asrwt>0</asrwt>
<pdfrwt beam="1">  1        1 0.37881561E-01 0.42585813E+03</pdfrwt>
<pdfrwt beam="2">  1       -1 0.12393212E+00 0.42585813E+03</pdfrwt>
<totfact> 0.67982087E+01</totfact>
</mgrwt>
</event>
<event>
 6    1  0.9205235E-004  0.4325389E+03  0.7818608E-02  0.1033061E+00
         -2   -1    0    0    0  501 -0.00000000000E+00  0.00000000000E+00  0.23908466932E+03  0.23908466932E+03  0.00000000000E+00 0. -1.
          2   -1    0    0  502    0  0.00000000000E+00 -0.00000000000E+00 -0.86947556632E+03  0.86947556632E+03  0.00000000000E+00 0.  1.
    9000007    2    1    2  502    0  0.33260145680E+02 -0.16065553550E+03 -0.49060781637E+03  0.65418621788E+03  0.40043368964E+03 0.  0.
    9000005    1    3    3    0    0 -0.10293566646E+03 -0.62113306750E+02  0.15190099126E+02  0.12118396515E+03  0.99999687468E+00 0.  0.
          4    1    3    3  502    0  0.13619581214E+03 -0.98542228752E+02 -0.50579791550E+03  0.53300225273E+03  0.00000000000E+00 0.  1.
   -9000007    1    1    2    0  501 -0.33260145680E+02  0.16065553550E+03 -0.13978308063E+03  0.45437401775E+03  0.40000000000E+03 0.  1.
<mgrwt>
<rscale>  2 0.43253893E+03</rscale>
<asrwt>0</asrwt>
<pdfrwt beam="1">  1        2 0.13376547E+00 0.43253893E+03</pdfrwt>
<pdfrwt beam="2">  1       -2 0.36782257E-01 0.43253893E+03</pdfrwt>
<totfact> 0.22083541E+02</totfact>
</mgrwt>
</event>
<event>
 6    1  0.9205235E-004  0.4173045E+03  0.7818608E-02  0.1037947E+00
          2   -1    0    0  502    0  0.00000000000E+00  0.00000000000E+00  0.58628797755E+03  0.58628797755E+03  0.00000000000E+00 0. -1.
         -2   -1    0    0    0  501 -0.00000000000E+00 -0.00000000000E+00 -0.59092795458E+03  0.59092795458E+03  0.00000000000E+00 0.  1.
    9000007    2    1    2  502    0  0.11150360164E+03  0.41354001751E+02  0.41278675255E+03  0.58697167657E+03  0.39999954922E+03 0.  0.
    9000005    1    3    3    0    0  0.95646383197E+01 -0.87539304898E+02  0.41336153166E+03  0.42263857853E+03  0.99999687468E+00 0.  0.
          4    1    3    3  502    0  0.10193896332E+03  0.12889330665E+03 -0.57477910844E+00  0.16433309805E+03  0.00000000000E+00 0.  1.
   -9000007    1    1    2    0  501 -0.11150360164E+03 -0.41354001751E+02 -0.41742672959E+03  0.59024425555E+03  0.40000000000E+03 0.  1.
<mgrwt>
<rscale>  2 0.41730448E+03</rscale>
<asrwt>0</asrwt>
<pdfrwt beam="1">  1        2 0.90198151E-01 0.41730448E+03</pdfrwt>
<pdfrwt beam="2">  1       -2 0.90911993E-01 0.41730448E+03</pdfrwt>
<totfact> 0.54923099E+01</totfact>
</mgrwt>
</event>
<event>
 6    1  0.9205235E-004  0.4632111E+03  0.7818608E-02  0.1023854E+00
          2   -1    0    0  502    0  0.00000000000E+00  0.00000000000E+00  0.26279168990E+04  0.26279168990E+04  0.00000000000E+00 0.  1.
         -2   -1    0    0    0  501 -0.00000000000E+00 -0.00000000000E+00 -0.83742511994E+02  0.83742511994E+02  0.00000000000E+00 0. -1.
    9000007    2    1    2  502    0  0.13263609417E+03  0.19264567710E+03  0.14860989352E+04  0.15565713832E+04  0.39964951548E+03 0.  0.
    9000005    1    3    3    0    0 -0.68219212740E+02  0.17807804808E+03  0.11424997797E+04  0.11583058313E+04  0.99999687468E+00 0.  0.
          4    1    3    3  502    0  0.20085530691E+03  0.14567629012E+02  0.34359915553E+03  0.39826555188E+03  0.00000000000E+00 0.  1.
   -9000007    1    1    2    0  501 -0.13263609417E+03 -0.19264567710E+03  0.10580754518E+04  0.11550880278E+04  0.40000000000E+03 0. -1.
<mgrwt>
<rscale>  2 0.46321109E+03</rscale>
<asrwt>0</asrwt>
<pdfrwt beam="1">  1        2 0.40429484E+00 0.46321109E+03</pdfrwt>
<pdfrwt beam="2">  1       -2 0.12883465E-01 0.46321109E+03</pdfrwt>
<totfact> 0.14385724E+02</totfact>
</mgrwt>
</event>
<event>
 6    1  0.9205235E-004  0.6760750E+03  0.7818608E-02  0.9759045E-01
         -2   -1    0    0    0  501 -0.00000000000E+00  0.00000000000E+00  0.36732591845E+03  0.36732591845E+03  0.00000000000E+00 0. -1.
          2   -1    0    0  502    0  0.00000000000E+00 -0.00000000000E+00 -0.12487119225E+04  0.12487119225E+04  0.00000000000E+00 0.  1.
    9000007    2    1    2  502    0  0.26729655364E+03 -0.47763339015E+03 -0.48726790442E+03  0.83187575347E+03  0.39370821119E+03 0.  0.
    9000005    1    3    3    0    0  0.10476411688E+02 -0.23156041411E+03 -0.40065519923E+01  0.23183406358E+03  0.99999687468E+00 0.  0.
          4    1    3    3  502    0  0.25682014195E+03 -0.24607297604E+03 -0.48326135243E+03  0.60004168989E+03  0.00000000000E+00 0.  1.
   -9000007    1    1    2    0  501 -0.26729655364E+03  0.47763339015E+03 -0.39411809962E+03  0.78416208747E+03  0.40000000000E+03 0. -1.
<mgrwt>
<rscale>  2 0.67607497E+03</rscale>
<asrwt>0</asrwt>
<pdfrwt beam="1">  1        2 0.19210953E+00 0.67607497E+03</pdfrwt>
<pdfrwt beam="2">  1       -2 0.56511679E-01 0.67607497E+03</pdfrwt>
<totfact> 0.53393331E+01</totfact>
</mgrwt>
</event>
<event>
 6    1  0.9205235E-004  0.4357810E+03  0.7818608E-02  0.1032049E+00
         -1   -1    0    0    0  501 -0.00000000000E+00  0.00000000000E+00  0.56148723140E+03  0.56148723140E+03  0.00000000000E+00 0.  1.
          1   -1    0    0  502    0  0.00000000000E+00 -0.00000000000E+00 -0.35035635358E+03  0.35035635358E+03  0.00000000000E+00 0. -1.
    9000007    2    1    2  502    0  0.25272854345E+02 -0.16366394398E+03  0.21425958646E+02  0.43917820642E+03  0.40619431503E+03 0.  0.
    9000005    1    3    3    0    0  0.17205251125E+03 -0.16251462671E+03 -0.91743817120E+02  0.25383261905E+03  0.99999687468E+00 0.  0.
          4    1    3    3  502    0 -0.14677965690E+03 -0.11493172751E+01  0.11316977577E+03  0.18534558737E+03  0.00000000000E+00 0.  1.
   -9000007    1    1    2    0  501 -0.25272854345E+02  0.16366394398E+03  0.18970491918E+03  0.47266537856E+03  0.40000000000E+03 0. -1.
<mgrwt>
<rscale>  2 0.43578102E+03</rscale>
<asrwt>0</asrwt>
<pdfrwt beam="1">  1        1 0.53900978E-01 0.43578102E+03</pdfrwt>
<pdfrwt beam="2">  1       -1 0.86382651E-01 0.43578102E+03</pdfrwt>
<totfact> 0.98649788E+01</totfact>
</mgrwt>
</event>
<event>
 6    1  0.9205235E-004  0.4562063E+03  0.7818608E-02  0.1025887E+00
          1   -1    0    0  502    0  0.00000000000E+00  0.00000000000E+00  0.25278398383E+03  0.25278398383E+03  0.00000000000E+00 0.  1.
         -1   -1    0    0    0  501 -0.00000000000E+00 -0.00000000000E+00 -0.84570042214E+03  0.84570042214E+03  0.00000000000E+00 0. -1.
    9000007    2    1    2  502    0 -0.19005333025E+03  0.10758068365E+03 -0.20742591341E+03  0.50157836929E+03  0.40107540333E+03 0.  0.
    9000005    1    3    3    0    0  0.40354121980E+02  0.21804349831E+02 -0.24816470469E+03  0.25236997738E+03  0.99999687468E+00 0.  0.
          4    1    3    3  502    0 -0.23040745223E+03  0.85776333817E+02  0.40738791284E+02  0.24920839192E+03  0.00000000000E+00 0.  1.
   -9000007    1    1    2    0  501  0.19005333025E+03 -0.10758068365E+03 -0.38549052490E+03  0.59690603668E+03  0.40000000000E+03 0. -1.
<mgrwt>
<rscale>  2 0.45620628E+03</rscale>
<asrwt>0</asrwt>
<pdfrwt beam="1">  1        1 0.38889844E-01 0.45620628E+03</pdfrwt>
<pdfrwt beam="2">  1       -1 0.13010776E+00 0.45620628E+03</pdfrwt>
<totfact> 0.58090050E+01</totfact>
</mgrwt>
</event>
<event>
 6    1  0.9205235E-004  0.4552710E+03  0.7818608E-02  0.1026162E+00
          1   -1    0    0  502    0  0.00000000000E+00  0.00000000000E+00  0.45773291825E+03  0.45773291825E+03  0.00000000000E+00 0.  1.
         -1   -1    0    0    0  501 -0.00000000000E+00 -0.00000000000E+00 -0.60772236227E+03  0.60772236227E+03  0.00000000000E+00 0. -1.
    9000007    2    1    2  502    0  0.97485981453E+02 -0.19397806528E+03  0.19394046336E+03  0.49500038521E+03  0.40035168495E+03 0.  0.
    9000005    1    3    3    0    0  0.99148887630E+02  0.48247459248E+01 -0.99500562292E+02  0.14055298639E+03  0.99999687468E+00 0.  0.
          4    1    3    3  502    0 -0.16629061773E+01 -0.19880281121E+03  0.29344102565E+03  0.35444739882E+03  0.00000000000E+00 0.  1.
   -9000007    1    1    2    0  501 -0.97485981453E+02  0.19397806528E+03 -0.34392990738E+03  0.57045489531E+03  0.40000000000E+03 0. -1.
<mgrwt>
<rscale>  2 0.45527101E+03</rscale>
<asrwt>0</asrwt>
<pdfrwt beam="1">  1        1 0.70420449E-01 0.45527101E+03</pdfrwt>
<pdfrwt beam="2">  1       -1 0.93495748E-01 0.45527101E+03</pdfrwt>
<totfact> 0.58375849E+01</totfact>
</mgrwt>
</event>
<event>
 6    1  0.9205235E-004  0.4109512E+03  0.7818608E-02  0.1040052E+00
          2   -1    0    0  502    0  0.00000000000E+00  0.00000000000E+00  0.75028346684E+03  0.75028346684E+03  0.00000000000E+00 0. -1.
         -2   -1    0    0    0  501 -0.00000000000E+00 -0.00000000000E+00 -0.24728396985E+03  0.24728396985E+03  0.00000000000E+00 0.  1.
    9000007    2    1    2  502    0 -0.13626255731E+02  0.93133672008E+02  0.10208434900E+03  0.42346595473E+03  0.40005330244E+03 0.  0.
    9000005    1    3    3    0    0  0.96451643416E+02 -0.31205911796E+02  0.20457734252E+03  0.22831911334E+03  0.99999687468E+00 0.  0.
          4    1    3    3  502    0 -0.11007789915E+03  0.12433958380E+03 -0.10249299353E+03  0.19514684139E+03  0.00000000000E+00 0.  1.
   -9000007    1    1    2    0  501  0.13626255731E+02 -0.93133672008E+02  0.40091514799E+03  0.57410148196E+03  0.40000000000E+03 0. -1.
<mgrwt>
<rscale>  2 0.41095119E+03</rscale>
<asrwt>0</asrwt>
<pdfrwt beam="1">  1        2 0.11542822E+00 0.41095119E+03</pdfrwt>
<pdfrwt beam="2">  1       -2 0.38043688E-01 0.41095119E+03</pdfrwt>
<totfact> 0.25147171E+02</totfact>
</mgrwt>
</event>
<event>
 6    1  0.9205235E-004  0.5176593E+03  0.7818608E-02  0.1009270E+00
          2   -1    0    0  502    0  0.00000000000E+00  0.00000000000E+00  0.13235435579E+04  0.13235435579E+04  0.00000000000E+00 0.  1.
         -2   -1    0    0    0  501 -0.00000000000E+00 -0.00000000000E+00 -0.22069119690E+03  0.22069119690E+03  0.00000000000E+00 0. -1.
    9000007    2    1    2  502    0 -0.30711737122E+03 -0.11639469118E+03  0.77341378013E+03  0.93072144409E+03  0.40025582738E+03 0.  0.
    9000005    1    3    3    0    0 -0.14845898209E+03 -0.85493079783E+02  0.35044260903E+02  0.17486633830E+03  0.99999687468E+00 0.  0.
          4    1    3    3  502    0 -0.15865838913E+03 -0.30901611393E+02  0.73836951923E+03  0.75585510579E+03  0.00000000000E+00 0.  1.
   -9000007    1    1    2    0  501  0.30711737122E+03  0.11639469118E+03  0.32943858084E+03  0.61351331068E+03  0.40000000000E+03 0. -1.
<mgrwt>
<rscale>  2 0.51765930E+03</rscale>
<asrwt>0</asrwt>
<pdfrwt beam="1">  1        2 0.20362208E+00 0.51765930E+03</pdfrwt>
<pdfrwt beam="2">  1       -2 0.33952493E-01 0.51765930E+03</pdfrwt>
<totfact> 0.13486639E+02</totfact>
</mgrwt>
</event>
<event>
 6    1  0.9205235E-004  0.5794525E+03  0.7818608E-02  0.9948977E-01
         -1   -1    0    0    0  501 -0.00000000000E+00  0.00000000000E+00  0.27790508865E+03  0.27790508865E+03  0.00000000000E+00 0.  1.
          1   -1    0    0  502    0  0.00000000000E+00 -0.00000000000E+00 -0.13505694786E+04  0.13505694786E+04  0.00000000000E+00 0. -1.
    9000007    2    1    2  502    0 -0.29271877513E+03  0.29988733862E+03 -0.27207591291E+03  0.64026476831E+03  0.40037104538E+03 0.  0.
    9000005    1    3    3    0    0 -0.22795092624E+03  0.31009927314E+03 -0.36240892167E+03  0.52864393544E+03  0.99999687468E+00 0.  0.
          4    1    3    3  502    0 -0.64767848890E+02 -0.10211934525E+02  0.90333008769E+02  0.11162083287E+03  0.00000000000E+00 0.  1.
   -9000007    1    1    2    0  501  0.29271877513E+03 -0.29988733862E+03 -0.80058847708E+03  0.98820979899E+03  0.40000000000E+03 0.  1.
<mgrwt>
<rscale>  2 0.57945246E+03</rscale>
<asrwt>0</asrwt>
<pdfrwt beam="1">  1        1 0.20777991E+00 0.57945246E+03</pdfrwt>
<pdfrwt beam="2">  1       -1 0.42754630E-01 0.57945246E+03</pdfrwt>
<totfact> 0.47053114E+01</totfact>
</mgrwt>
</event>
<event>
 6    1  0.9205235E-004  0.4544171E+03  0.7818608E-02  0.1026413E+00
         -2   -1    0    0    0  501 -0.00000000000E+00  0.00000000000E+00  0.74457343312E+03  0.74457343312E+03  0.00000000000E+00 0. -1.
          2   -1    0    0  502    0  0.00000000000E+00 -0.00000000000E+00 -0.27733764636E+03  0.27733764636E+03  0.00000000000E+00 0.  1.
    9000007    2    1    2  502    0  0.43427368986E+02 -0.21007470034E+03  0.23585423936E+03  0.51244593192E+03  0.40119358771E+03 0.  0.
    9000005    1    3    3    0    0  0.10884705853E+03  0.47415701171E+02  0.21544167914E+03  0.24599196729E+03  0.99999687468E+00 0.  0.
          4    1    3    3  502    0 -0.65419689548E+02 -0.25749040152E+03  0.20412560219E+02  0.26645396463E+03  0.00000000000E+00 0.  1.
   -9000007    1    1    2    0  501 -0.43427368986E+02  0.21007470034E+03  0.23138154740E+03  0.50946514756E+03  0.40000000000E+03 0.  1.
<mgrwt>
<rscale>  2 0.45441711E+03</rscale>
<asrwt>0</asrwt>
<pdfrwt beam="1">  1        2 0.42667331E-01 0.45441711E+03</pdfrwt>
<pdfrwt beam="2">  1       -2 0.11454976E+00 0.45441711E+03</pdfrwt>
<totfact> 0.73373082E+01</totfact>
</mgrwt>
</event>
<event>
 6    1  0.9205235E-004  0.4931063E+03  0.7818608E-02  0.1015594E+00
         -3   -1    0    0    0  501 -0.00000000000E+00  0.00000000000E+00  0.82302450778E+03  0.82302450778E+03  0.00000000000E+00 0. -1.
          3   -1    0    0  502    0  0.00000000000E+00 -0.00000000000E+00 -0.33593869695E+03  0.33593869695E+03  0.00000000000E+00 0.  1.
    9000007    2    1    2  502    0 -0.26160350403E+03  0.11956953481E+03  0.42526375803E+02  0.49536215121E+03  0.40105099580E+03 0.  0.
    9000005    1    3    3    0    0  0.15996442103E+02  0.55993347189E+02  0.17268397116E+03  0.18224130975E+03  0.99999687468E+00 0.  0.
          4    1    3    3  502    0 -0.27759994613E+03  0.63576187623E+02 -0.13015759536E+03  0.31312084146E+03  0.00000000000E+00 0.  1.
   -9000007    1    1    2    0  501  0.26160350403E+03 -0.11956953481E+03  0.44455943503E+03  0.66360105353E+03  0.40000000000E+03 0. -1.
<mgrwt>
<rscale>  2 0.49310633E+03</rscale>
<asrwt>0</asrwt>
<pdfrwt beam="1">  1        3 0.51682877E-01 0.49310633E+03</pdfrwt>
<pdfrwt beam="2">  1       -3 0.12661915E+00 0.49310633E+03</pdfrwt>
<totfact> 0.48060368E+00</totfact>
</mgrwt>
</event>
<event>
 6    1  0.9205235E-004  0.4760945E+03  0.7818608E-02  0.1020214E+00
          1   -1    0    0  502    0  0.00000000000E+00  0.00000000000E+00  0.91553113309E+03  0.91553113309E+03  0.00000000000E+00 0. -1.
         -1   -1    0    0    0  501 -0.00000000000E+00 -0.00000000000E+00 -0.24822241871E+03  0.24822241871E+03  0.00000000000E+00 0.  1.
    9000007    2    1    2  502    0  0.15566525188E+02  0.25585285579E+03  0.30475557534E+03  0.56613512910E+03  0.40240529715E+03 0.  0.
    9000005    1    3    3    0    0 -0.10766419152E+03  0.26349517124E+03  0.33441687209E+03  0.43915478789E+03  0.99999687468E+00 0.  0.
          4    1    3    3  502    0  0.12323071671E+03 -0.76423154460E+01 -0.29661296750E+02  0.12698034120E+03  0.00000000000E+00 0.  1.
   -9000007    1    1    2    0  501 -0.15566525188E+02 -0.25585285579E+03  0.36255313905E+03  0.59761842271E+03  0.40000000000E+03 0. -1.
<mgrwt>
<rscale>  2 0.47609448E+03</rscale>
<asrwt>0</asrwt>
<pdfrwt beam="1">  1        1 0.14085094E+00 0.47609448E+03</pdfrwt>
<pdfrwt beam="2">  1       -1 0.38188065E-01 0.47609448E+03</pdfrwt>
<totfact> 0.12222599E+02</totfact>
</mgrwt>
</event>
<event>
 6    1  0.9205235E-004  0.4545166E+03  0.7818608E-02  0.1026384E+00
          2   -1    0    0  502    0  0.00000000000E+00  0.00000000000E+00  0.12863035341E+03  0.12863035341E+03  0.00000000000E+00 0.  1.
         -2   -1    0    0    0  501 -0.00000000000E+00 -0.00000000000E+00 -0.16581369639E+04  0.16581369639E+04  0.00000000000E+00 0. -1.
    9000007    2    1    2  502    0 -0.11001688877E+02 -0.21547179713E+03 -0.92317560841E+03  0.10290164238E+04  0.40009056975E+03 0.  0.
    9000005    1    3    3    0    0 -0.17201273579E+03 -0.18230894364E+01 -0.49598849401E+03  0.52497360992E+03  0.99999687468E+00 0.  0.
          4    1    3    3  502    0  0.16101104692E+03 -0.21364870769E+03 -0.42718711440E+03  0.50404281389E+03  0.00000000000E+00 0.  1.
   -9000007    1    1    2    0  501  0.11001688877E+02  0.21547179713E+03 -0.60633100208E+03  0.75775089350E+03  0.40000000000E+03 0. -1.
<mgrwt>
<rscale>  2 0.45451662E+03</rscale>
<asrwt>0</asrwt>
<pdfrwt beam="1">  1        2 0.19789286E-01 0.45451662E+03</pdfrwt>
<pdfrwt beam="2">  1       -2 0.25509798E+00 0.45451662E+03</pdfrwt>
<totfact> 0.18263722E+01</totfact>
</mgrwt>
</event>
<event>
 6    1  0.9205235E-004  0.5269675E+03  0.7818608E-02  0.1006970E+00
          2   -1    0    0  502    0  0.00000000000E+00  0.00000000000E+00  0.32386245566E+03  0.32386245566E+03  0.00000000000E+00 0. -1.
         -2   -1    0    0    0  501 -0.00000000000E+00 -0.00000000000E+00 -0.87737341548E+03  0.87737341548E+03  0.00000000000E+00 0.  1.
    9000007    2    1    2  502    0  0.19798021371E+03 -0.28073472471E+03 -0.36711803598E+03  0.64199489201E+03  0.39921628016E+03 0.  0.
    9000005    1    3    3    0    0  0.14152194387E+03  0.61258752635E+02 -0.21222488682E+03  0.26233851786E+03  0.99999687468E+00 0.  0.
          4    1    3    3  502    0  0.56458269837E+02 -0.34199347734E+03 -0.15489314916E+03  0.37965637415E+03  0.00000000000E+00 0.  1.
   -9000007    1    1    2    0  501 -0.19798021371E+03  0.28073472471E+03 -0.18639292385E+03  0.55924097913E+03  0.40000000000E+03 0. -1.
<mgrwt>
<rscale>  2 0.52696754E+03</rscale>
<asrwt>0</asrwt>
<pdfrwt beam="1">  1        2 0.49824993E-01 0.52696754E+03</pdfrwt>
<pdfrwt beam="2">  1       -2 0.13498053E+00 0.52696754E+03</pdfrwt>
<totfact> 0.40909073E+01</totfact>
</mgrwt>
</event>
<event>
 6    1  0.9205235E-004  0.4418577E+03  0.7818608E-02  0.1030178E+00
          1   -1    0    0  502    0  0.00000000000E+00  0.00000000000E+00  0.47907251373E+03  0.47907251373E+03  0.00000000000E+00 0.  1.
         -1   -1    0    0    0  501 -0.00000000000E+00 -0.00000000000E+00 -0.42240926643E+03  0.42240926643E+03  0.00000000000E+00 0. -1.
    9000007    2    1    2  502    0 -0.57117957933E+02  0.16331747611E+03 -0.55649723420E+02  0.45142704736E+03  0.41322442843E+03 0.  0.
    9000005    1    3    3    0    0  0.48928577671E+02  0.23451006201E+03  0.91620112769E+02  0.25648434641E+03  0.99999687468E+00 0.  0.
          4    1    3    3  502    0 -0.10604653560E+03 -0.71192585903E+02 -0.14726983619E+03  0.19494270095E+03  0.00000000000E+00 0.  1.
   -9000007    1    1    2    0  501  0.57117957933E+02 -0.16331747611E+03  0.11231297072E+03  0.45005473280E+03  0.40000000000E+03 0. -1.
<mgrwt>
<rscale>  2 0.44185771E+03</rscale>
<asrwt>0</asrwt>
<pdfrwt beam="1">  1        1 0.73703464E-01 0.44185771E+03</pdfrwt>
<pdfrwt beam="2">  1       -1 0.64986041E-01 0.44185771E+03</pdfrwt>
<totfact> 0.11763177E+02</totfact>
</mgrwt>
</event>
<event>
 6    1  0.9205235E-004  0.4246907E+03  0.7818608E-02  0.1035550E+00
         -2   -1    0    0    0  501 -0.00000000000E+00  0.00000000000E+00  0.18785727373E+03  0.18785727373E+03  0.00000000000E+00 0.  1.
          2   -1    0    0  502    0  0.00000000000E+00 -0.00000000000E+00 -0.12221547548E+04  0.12221547548E+04  0.00000000000E+00 0. -1.
    9000007    2    1    2  502    0 -0.57239119855E+02 -0.13041299416E+03 -0.19078145612E+03  0.46565873117E+03  0.40019573215E+03 0.  0.
    9000005    1    3    3    0    0 -0.27404205267E+01 -0.16640494367E+03 -0.29729842105E+03  0.34071317312E+03  0.99999687468E+00 0.  0.
          4    1    3    3  502    0 -0.54498699328E+02  0.35991949510E+02  0.10651696493E+03  0.12494555805E+03  0.00000000000E+00 0.  1.
   -9000007    1    1    2    0  501  0.57239119855E+02  0.13041299416E+03 -0.84351602490E+03  0.94435329732E+03  0.40000000000E+03 0. -1.
<mgrwt>
<rscale>  2 0.42469066E+03</rscale>
<asrwt>0</asrwt>
<pdfrwt beam="1">  1        2 0.18802381E+00 0.42469066E+03</pdfrwt>
<pdfrwt beam="2">  1       -2 0.28901119E-01 0.42469066E+03</pdfrwt>
<totfact> 0.20996871E+02</totfact>
</mgrwt>
</event>
<event>
 6    1  0.9205235E-004  0.5224216E+03  0.7818608E-02  0.1008087E+00
          1   -1    0    0  502    0  0.00000000000E+00  0.00000000000E+00  0.22453604622E+03  0.22453604622E+03  0.00000000000E+00 0.  1.
         -1   -1    0    0    0  501 -0.00000000000E+00 -0.00000000000E+00 -0.12380424910E+04  0.12380424910E+04  0.00000000000E+00 0. -1.
    9000007    2    1    2  502    0  0.31833437807E+03 -0.10719882609E+03 -0.60551124739E+03  0.79979015043E+03  0.40023998980E+03 0.  0.
    9000005    1    3    3    0    0  0.34257772396E+03 -0.14855141488E+03 -0.26979892523E+03  0.46067285558E+03  0.99999687468E+00 0.  0.
          4    1    3    3  502    0 -0.24243345895E+02  0.41352588784E+02 -0.33571232216E+03  0.33911729485E+03  0.00000000000E+00 0.  1.
   -9000007    1    1    2    0  501 -0.31833437807E+03  0.10719882609E+03 -0.40799519741E+03  0.66278838680E+03  0.40000000000E+03 0.  1.
<mgrwt>
<rscale>  2 0.52242164E+03</rscale>
<asrwt>0</asrwt>
<pdfrwt beam="1">  1        1 0.34544007E-01 0.52242164E+03</pdfrwt>
<pdfrwt beam="2">  1       -1 0.19046808E+00 0.52242164E+03</pdfrwt>
<totfact> 0.23605409E+01</totfact>
</mgrwt>
</event>
<event>
 6    1  0.9205235E-004  0.5022326E+03  0.7818608E-02  0.1013198E+00
          1   -1    0    0  502    0  0.00000000000E+00  0.00000000000E+00  0.37148640128E+03  0.37148640128E+03  0.00000000000E+00 0.  1.
         -1   -1    0    0    0  501 -0.00000000000E+00 -0.00000000000E+00 -0.79132710011E+03  0.79132710011E+03  0.00000000000E+00 0. -1.
    9000007    2    1    2  502    0  0.54308732214E+02 -0.29895999711E+03  0.91662021604E+01  0.50222782235E+03  0.39977774827E+03 0.  0.
    9000005    1    3    3    0    0  0.22872107690E+03 -0.16076721358E+03  0.85656929753E+01  0.27970305517E+03  0.99999687468E+00 0.  0.
          4    1    3    3  502    0 -0.17441234468E+03 -0.13819278352E+03  0.60050918507E+00  0.22252476718E+03  0.00000000000E+00 0.  1.
   -9000007    1    1    2    0  501 -0.54308732214E+02  0.29895999711E+03 -0.42900690099E+03  0.66058567904E+03  0.40000000000E+03 0. -1.
<mgrwt>
<rscale>  2 0.50223264E+03</rscale>
<asrwt>0</asrwt>
<pdfrwt beam="1">  1        1 0.57151754E-01 0.50223264E+03</pdfrwt>
<pdfrwt beam="2">  1       -1 0.12174263E+00 0.50223264E+03</pdfrwt>
<totfact> 0.41460803E+01</totfact>
</mgrwt>
</event>
<event>
 6    1  0.9205235E-004  0.4612810E+03  0.7818608E-02  0.1024410E+00
          2   -1    0    0  502    0  0.00000000000E+00  0.00000000000E+00  0.61024518184E+03  0.61024518184E+03  0.00000000000E+00 0. -1.
         -2   -1    0    0    0  501 -0.00000000000E+00 -0.00000000000E+00 -0.42680681164E+03  0.42680681164E+03  0.00000000000E+00 0.  1.
    9000007    2    1    2  502    0 -0.52310636629E+02  0.22449283052E+03 -0.13019066108E+03  0.47893318632E+03  0.39911646804E+03 0.  0.
    9000005    1    3    3    0    0 -0.84841609142E+02 -0.56715867689E+02  0.77235278972E+02  0.12798857996E+03  0.99999687468E+00 0.  0.
          4    1    3    3  502    0  0.32530972513E+02  0.28120869821E+03 -0.20742594005E+03  0.35094460635E+03  0.00000000000E+00 0.  1.
   -9000007    1    1    2    0  501  0.52310636629E+02 -0.22449283052E+03  0.31362903127E+03  0.55811880717E+03  0.40000000000E+03 0. -1.
<mgrwt>
<rscale>  2 0.46128095E+03</rscale>
<asrwt>0</asrwt>
<pdfrwt beam="1">  1        2 0.93883874E-01 0.46128095E+03</pdfrwt>
<pdfrwt beam="2">  1       -2 0.65662586E-01 0.46128095E+03</pdfrwt>
<totfact> 0.10713204E+02</totfact>
</mgrwt>
</event>
<event>
 6    1  0.9205235E-004  0.6278828E+03  0.7818608E-02  0.9849189E-01
         -2   -1    0    0    0  501 -0.00000000000E+00  0.00000000000E+00  0.19599688080E+03  0.19599688080E+03  0.00000000000E+00 0.  1.
          2   -1    0    0  502    0  0.00000000000E+00 -0.00000000000E+00 -0.26976851067E+04  0.26976851067E+04  0.00000000000E+00 0. -1.
    9000007    2    1    2  502    0 -0.43658974614E+03 -0.20949936037E+03 -0.19802641927E+04  0.20773587606E+04  0.39934015419E+03 0.  0.
    9000005    1    3    3    0    0 -0.50573541705E+03 -0.14606045367E+03 -0.17798690728E+04  0.18560810555E+04  0.99999687468E+00 0.  0.
          4    1    3    3  502    0  0.69145670908E+02 -0.63438906697E+02 -0.20039511994E+03  0.22127770512E+03  0.00000000000E+00 0.  1.
   -9000007    1    1    2    0  501  0.43658974614E+03  0.20949936037E+03 -0.52142403316E+03  0.81632322690E+03  0.40000000000E+03 0.  1.
<mgrwt>
<rscale>  2 0.62788278E+03</rscale>
<asrwt>0</asrwt>
<pdfrwt beam="1">  1        2 0.41502846E+00 0.62788278E+03</pdfrwt>
<pdfrwt beam="2">  1       -2 0.30153367E-01 0.62788278E+03</pdfrwt>
<totfact> 0.28947348E+01</totfact>
</mgrwt>
</event>
<event>
 6    1  0.9205235E-004  0.4083050E+03  0.7818608E-02  0.1040941E+00
          1   -1    0    0  502    0  0.00000000000E+00  0.00000000000E+00  0.61630669375E+03  0.61630669375E+03  0.00000000000E+00 0.  1.
         -1   -1    0    0    0  501 -0.00000000000E+00 -0.00000000000E+00 -0.27218080762E+03  0.27218080762E+03  0.00000000000E+00 0. -1.
    9000007    2    1    2  502    0 -0.43733365950E+02 -0.69584748625E+02  0.13716470269E+03  0.43068014452E+03  0.39989571976E+03 0.  0.
    9000005    1    3    3    0    0  0.17138824101E+03 -0.69620163105E+02  0.20949789261E+02  0.18617408501E+03  0.99999687468E+00 0.  0.
          4    1    3    3  502    0 -0.21512160696E+03  0.35414479637E-01  0.11621491343E+03  0.24450605951E+03  0.00000000000E+00 0.  1.
   -9000007    1    1    2    0  501  0.43733365950E+02  0.69584748625E+02  0.20696118343E+03  0.45780735685E+03  0.40000000000E+03 0.  1.
<mgrwt>
<rscale>  2 0.40830495E+03</rscale>
<asrwt>0</asrwt>
<pdfrwt beam="1">  1        1 0.94816414E-01 0.40830495E+03</pdfrwt>
<pdfrwt beam="2">  1       -1 0.41873971E-01 0.40830495E+03</pdfrwt>
<totfact> 0.19156305E+02</totfact>
</mgrwt>
</event>
<event>
 6    1  0.9205235E-004  0.4017616E+03  0.7818608E-02  0.1043171E+00
          2   -1    0    0  502    0  0.00000000000E+00  0.00000000000E+00  0.40991513655E+03  0.40991513655E+03  0.00000000000E+00 0.  1.
         -2   -1    0    0    0  501 -0.00000000000E+00 -0.00000000000E+00 -0.39417641064E+03  0.39417641064E+03  0.00000000000E+00 0. -1.
    9000007    2    1    2  502    0  0.38610197487E+02 -0.10765756115E+02 -0.50389495495E+01  0.40155166016E+03  0.39951432504E+03 0.  0.
    9000005    1    3    3    0    0 -0.17729395076E+03  0.31911353972E+02 -0.18287650941E+02  0.18107158159E+03  0.99999687468E+00 0.  0.
          4    1    3    3  502    0  0.21590414825E+03 -0.42677110087E+02  0.13248701392E+02  0.22048007857E+03  0.00000000000E+00 0.  1.
   -9000007    1    1    2    0  501 -0.38610197487E+02  0.10765756115E+02  0.20777675456E+02  0.40253988703E+03  0.40000000000E+03 0. -1.
<mgrwt>
<rscale>  2 0.40176160E+03</rscale>
<asrwt>0</asrwt>
<pdfrwt beam="1">  1        2 0.63063867E-01 0.40176160E+03</pdfrwt>
<pdfrwt beam="2">  1       -2 0.60642524E-01 0.40176160E+03</pdfrwt>
<totfact> 0.20088645E+02</totfact>
</mgrwt>
</event>
<event>
 6    1  0.9205235E-004  0.4029328E+03  0.7818608E-02  0.1042769E+00
         -3   -1    0    0    0  501 -0.00000000000E+00  0.00000000000E+00  0.59167931634E+03  0.59167931634E+03  0.00000000000E+00 0. -1.
          3   -1    0    0  502    0  0.00000000000E+00 -0.00000000000E+00 -0.32103923062E+03  0.32103923062E+03  0.00000000000E+00 0.  1.
    9000007    2    1    2  502    0 -0.45902013238E+02  0.26448061438E+02  0.30910613849E+03  0.50739629000E+03  0.39887077541E+03 0.  0.
    9000005    1    3    3    0    0 -0.67832930628E+02 -0.16157195480E+03  0.25700616282E+03  0.31106264767E+03  0.99999687468E+00 0.  0.
          4    1    3    3  502    0  0.21930917389E+02  0.18802001624E+03  0.52099975668E+02  0.19633364233E+03  0.00000000000E+00 0.  1.
   -9000007    1    1    2    0  501  0.45902013238E+02 -0.26448061438E+02 -0.38466052774E+02  0.40532225696E+03  0.40000000000E+03 0.  1.
<mgrwt>
<rscale>  2 0.40293277E+03</rscale>
<asrwt>0</asrwt>
<pdfrwt beam="1">  1        3 0.49390651E-01 0.40293277E+03</pdfrwt>
<pdfrwt beam="2">  1       -3 0.91027587E-01 0.40293277E+03</pdfrwt>
<totfact> 0.11477649E+01</totfact>
</mgrwt>
</event>
<event>
 6    1  0.9205235E-004  0.4741348E+03  0.7818608E-02  0.1020760E+00
          2   -1    0    0  502    0  0.00000000000E+00  0.00000000000E+00  0.23330937439E+04  0.23330937439E+04  0.00000000000E+00 0. -1.
         -2   -1    0    0    0  501 -0.00000000000E+00 -0.00000000000E+00 -0.22789680451E+03  0.22789680451E+03  0.00000000000E+00 0.  1.
    9000007    2    1    2  502    0  0.17696019341E+03 -0.18356865357E+03  0.20252328161E+04  0.20799431270E+04  0.39947852475E+03 0.  0.
    9000005    1    3    3    0    0  0.25114548464E+03 -0.14923048085E+03  0.19398954188E+04  0.19617693613E+04  0.99999687468E+00 0.  0.
          4    1    3    3  502    0 -0.74185291231E+02 -0.34338172716E+02  0.85337397223E+02  0.11817376572E+03  0.00000000000E+00 0.  1.
   -9000007    1    1    2    0  501 -0.17696019341E+03  0.18356865357E+03  0.79964123338E+02  0.48104742141E+03  0.40000000000E+03 0.  1.
<mgrwt>
<rscale>  2 0.47413480E+03</rscale>
<asrwt>0</asrwt>
<pdfrwt beam="1">  1        2 0.35893748E+00 0.47413480E+03</pdfrwt>
<pdfrwt beam="2">  1       -2 0.35061048E-01 0.47413480E+03</pdfrwt>
<totfact> 0.36106675E+01</totfact>
</mgrwt>
</event>
<event>
 6    1  0.9205235E-004  0.5780168E+03  0.7818608E-02  0.9952094E-01
         -2   -1    0    0    0  501 -0.00000000000E+00  0.00000000000E+00  0.28726091365E+03  0.28726091365E+03  0.00000000000E+00 0. -1.
          2   -1    0    0  502    0  0.00000000000E+00 -0.00000000000E+00 -0.16456441539E+04  0.16456441539E+04  0.00000000000E+00 0.  1.
    9000007    2    1    2  502    0 -0.37347816314E+03  0.18570952008E+03 -0.12026395319E+04  0.13343818292E+04  0.40032369190E+03 0.  0.
    9000005    1    3    3    0    0 -0.45807330090E+03  0.17782614804E+03 -0.10600163782E+04  0.11683702367E+04  0.99999687468E+00 0.  0.
          4    1    3    3  502    0  0.84595137758E+02  0.78833720353E+01 -0.14262315366E+03  0.16601159250E+03  0.00000000000E+00 0.  1.
   -9000007    1    1    2    0  501  0.37347816314E+03 -0.18570952008E+03 -0.15574370843E+03  0.59852323840E+03  0.40000000000E+03 0. -1.
<mgrwt>
<rscale>  2 0.57801684E+03</rscale>
<asrwt>0</asrwt>
<pdfrwt beam="1">  1        2 0.25317603E+00 0.57801684E+03</pdfrwt>
<pdfrwt beam="2">  1       -2 0.44193986E-01 0.57801684E+03</pdfrwt>
<totfact> 0.53389051E+01</totfact>
</mgrwt>
</event>
<event>
 6    1  0.9205235E-004  0.4343754E+03  0.7818608E-02  0.1032487E+00
          2   -1    0    0  502    0  0.00000000000E+00  0.00000000000E+00  0.53699486373E+03  0.53699486373E+03  0.00000000000E+00 0.  1.
         -2   -1    0    0    0  501 -0.00000000000E+00 -0.00000000000E+00 -0.90575028198E+03  0.90575028198E+03  0.00000000000E+00 0. -1.
    9000007    2    1    2  502    0 -0.18469793734E+03  0.10084218439E+02 -0.74764943579E+03  0.86156041085E+03  0.38612387026E+03 0.  0.
    9000005    1    3    3    0    0 -0.17359778315E+02  0.43856307488E+02 -0.67398280105E+03  0.67563196618E+03  0.99999687468E+00 0.  0.
          4    1    3    3  502    0 -0.16733815903E+03 -0.33772089050E+02 -0.73666634734E+02  0.18592844467E+03  0.00000000000E+00 0.  1.
   -9000007    1    1    2    0  501  0.18469793734E+03 -0.10084218439E+02  0.37889401754E+03  0.58118473487E+03  0.40000000000E+03 0.  1.
<mgrwt>
<rscale>  2 0.43437544E+03</rscale>
<asrwt>0</asrwt>
<pdfrwt beam="1">  1        2 0.82614596E-01 0.43437544E+03</pdfrwt>
<pdfrwt beam="2">  1       -2 0.13934619E+00 0.43437544E+03</pdfrwt>
<totfact> 0.21617037E+01</totfact>
</mgrwt>
</event>
<event>
 6    1  0.9205235E-004  0.3999998E+03  0.7818608E-02  0.1043780E+00
         -1   -1    0    0    0  501 -0.00000000000E+00  0.00000000000E+00  0.18540996742E+03  0.18540996742E+03  0.00000000000E+00 0. -1.
          1   -1    0    0  502    0  0.00000000000E+00 -0.00000000000E+00 -0.10905273511E+04  0.10905273511E+04  0.00000000000E+00 0.  1.
    9000007    2    1    2  502    0  0.17079554166E+02  0.17184238822E+02 -0.16046831488E+03  0.43030782228E+03  0.39853197187E+03 0.  0.
    9000005    1    3    3    0    0  0.11687289612E+03 -0.15801215249E+03 -0.63236615510E+02  0.20646303233E+03  0.99999687468E+00 0.  0.
          4    1    3    3  502    0 -0.99793341959E+02  0.17519639131E+03 -0.97231699369E+02  0.22384478995E+03  0.00000000000E+00 0.  1.
   -9000007    1    1    2    0  501 -0.17079554166E+02 -0.17184238822E+02 -0.74464906878E+03  0.84562949621E+03  0.40000000000E+03 0.  1.
<mgrwt>
<rscale>  2 0.39999975E+03</rscale>
<asrwt>0</asrwt>
<pdfrwt beam="1">  1        1 0.16777344E+00 0.39999975E+03</pdfrwt>
<pdfrwt beam="2">  1       -1 0.28524610E-01 0.39999975E+03</pdfrwt>
<totfact> 0.15112005E+02</totfact>
</mgrwt>
</event>
<event>
 6    1  0.9205235E-004  0.4016780E+03  0.7818608E-02  0.1043200E+00
         -2   -1    0    0    0  501 -0.00000000000E+00  0.00000000000E+00  0.15058102824E+03  0.15058102824E+03  0.00000000000E+00 0. -1.
          2   -1    0    0  502    0  0.00000000000E+00 -0.00000000000E+00 -0.20160413491E+04  0.20160413491E+04  0.00000000000E+00 0.  1.
    9000007    2    1    2  502    0  0.91624490106E+01 -0.30752790954E+02 -0.16747257694E+04  0.17223146532E+04  0.40078881882E+03 0.  0.
    9000005    1    3    3    0    0  0.88121060307E+02  0.99666895306E+02 -0.20298854646E+03  0.24270179496E+03  0.99999687468E+00 0.  0.
          4    1    3    3  502    0 -0.78958611297E+02 -0.13041968626E+03 -0.14717372229E+04  0.14796128582E+04  0.00000000000E+00 0.  1.
   -9000007    1    1    2    0  501 -0.91624490106E+01  0.30752790954E+02 -0.19073455147E+03  0.44430772416E+03  0.40000000000E+03 0. -1.
<mgrwt>
<rscale>  2 0.40167800E+03</rscale>
<asrwt>0</asrwt>
<pdfrwt beam="1">  1        2 0.31016020E+00 0.40167800E+03</pdfrwt>
<pdfrwt beam="2">  1       -2 0.23166313E-01 0.40167800E+03</pdfrwt>
<totfact> 0.11591612E+02</totfact>
</mgrwt>
</event>
<event>
 6    1  0.9205235E-004  0.4418150E+03  0.7818608E-02  0.1030191E+00
          2   -1    0    0  502    0  0.00000000000E+00  0.00000000000E+00  0.90995079333E+03  0.90995079333E+03  0.00000000000E+00 0. -1.
         -2   -1    0    0    0  501 -0.00000000000E+00 -0.00000000000E+00 -0.23097171392E+03  0.23097171392E+03  0.00000000000E+00 0.  1.
    9000007    2    1    2  502    0  0.17568714188E+03  0.64779715786E+02  0.49186036608E+03  0.66126033834E+03  0.40034514103E+03 0.  0.
    9000005    1    3    3    0    0  0.20317969910E+03  0.10324024100E+03  0.54464081340E+03  0.59040253481E+03  0.99999687468E+00 0.  0.
          4    1    3    3  502    0 -0.27492557218E+02 -0.38460525215E+02 -0.52780447322E+02  0.70857803534E+02  0.00000000000E+00 0.  1.
   -9000007    1    1    2    0  501 -0.17568714188E+03 -0.64779715786E+02  0.18711871333E+03  0.47966216890E+03  0.40000000000E+03 0.  1.
<mgrwt>
<rscale>  2 0.44181495E+03</rscale>
<asrwt>0</asrwt>
<pdfrwt beam="1">  1        2 0.13999243E+00 0.44181495E+03</pdfrwt>
<pdfrwt beam="2">  1       -2 0.35534110E-01 0.44181495E+03</pdfrwt>
<totfact> 0.22144933E+02</totfact>
</mgrwt>
</event>
<event>
 6    1  0.9205235E-004  0.4026588E+03  0.7818608E-02  0.1042863E+00
         -2   -1    0    0    0  501 -0.00000000000E+00  0.00000000000E+00  0.25108000410E+03  0.25108000410E+03  0.00000000000E+00 0.  1.
          2   -1    0    0  502    0  0.00000000000E+00 -0.00000000000E+00 -0.68737001079E+03  0.68737001079E+03  0.00000000000E+00 0. -1.
    9000007    2    1    2  502    0 -0.46298176935E+02 -0.59196990183E+01 -0.10265114900E+03  0.41548400129E+03  0.39988890071E+03 0.  0.
    9000005    1    3    3    0    0  0.89844115916E+02  0.16251016411E+03 -0.38917399363E+02  0.18972897135E+03  0.99999687468E+00 0.  0.
          4    1    3    3  502    0 -0.13614229285E+03 -0.16842986313E+03 -0.63733749642E+02  0.22575502993E+03  0.00000000000E+00 0.  1.
   -9000007    1    1    2    0  501  0.46298176935E+02  0.59196990183E+01 -0.33363885769E+03  0.52296601360E+03  0.40000000000E+03 0. -1.
<mgrwt>
<rscale>  2 0.40265882E+03</rscale>
<asrwt>0</asrwt>
<pdfrwt beam="1">  1        2 0.10574923E+00 0.40265882E+03</pdfrwt>
<pdfrwt beam="2">  1       -2 0.38627693E-01 0.40265882E+03</pdfrwt>
<totfact> 0.27261539E+02</totfact>
</mgrwt>
</event>
<event>
 6    1  0.9205235E-004  0.4101474E+03  0.7818608E-02  0.1040322E+00
         -2   -1    0    0    0  501 -0.00000000000E+00  0.00000000000E+00  0.83985682681E+02  0.83985682681E+02  0.00000000000E+00 0. -1.
          2   -1    0    0  502    0  0.00000000000E+00 -0.00000000000E+00 -0.20135324866E+04  0.20135324866E+04  0.00000000000E+00 0.  1.
    9000007    2    1    2  502    0  0.60484720432E+02 -0.54099732216E+02 -0.10452435694E+04  0.11235687902E+04  0.40408851075E+03 0.  0.
    9000005    1    3    3    0    0 -0.14172632420E+03  0.15184451522E+02 -0.16640096569E+03  0.21910545387E+03  0.99999687468E+00 0.  0.
          4    1    3    3  502    0  0.20221104463E+03 -0.69284183738E+02 -0.87884260366E+03  0.90446333629E+03  0.00000000000E+00 0.  1.
   -9000007    1    1    2    0  501 -0.60484720432E+02  0.54099732216E+02 -0.88430323461E+03  0.97394937916E+03  0.40000000000E+03 0. -1.
<mgrwt>
<rscale>  2 0.41014743E+03</rscale>
<asrwt>0</asrwt>
<pdfrwt beam="1">  1        2 0.30977421E+00 0.41014743E+03</pdfrwt>
<pdfrwt beam="2">  1       -2 0.12920875E-01 0.41014743E+03</pdfrwt>
<totfact> 0.31366539E+02</totfact>
</mgrwt>
</event>
<event>
 6    1  0.9205235E-004  0.6518516E+03  0.7818608E-02  0.9803311E-01
          2   -1    0    0  502    0  0.00000000000E+00  0.00000000000E+00  0.92634925037E+03  0.92634925037E+03  0.00000000000E+00 0. -1.
         -2   -1    0    0    0  501 -0.00000000000E+00 -0.00000000000E+00 -0.49069303029E+03  0.49069303029E+03  0.00000000000E+00 0.  1.
    9000007    2    1    2  502    0  0.27697172274E+03 -0.43372261922E+03  0.39878115200E+03  0.76421120276E+03  0.40020458469E+03 0.  0.
    9000005    1    3    3    0    0  0.33207388988E+03 -0.36047357453E+03  0.17169036557E+03  0.51931960092E+03  0.99999687468E+00 0.  0.
          4    1    3    3  502    0 -0.55102167138E+02 -0.73249044694E+02  0.22709078643E+03  0.24489160184E+03  0.00000000000E+00 0.  1.
   -9000007    1    1    2    0  501 -0.27697172274E+03  0.43372261922E+03  0.36875068087E+02  0.65283107790E+03  0.40000000000E+03 0.  1.
<mgrwt>
<rscale>  2 0.65185159E+03</rscale>
<asrwt>0</asrwt>
<pdfrwt beam="1">  1        2 0.14251527E+00 0.65185159E+03</pdfrwt>
<pdfrwt beam="2">  1       -2 0.75491236E-01 0.65185159E+03</pdfrwt>
<totfact> 0.45370751E+01</totfact>
</mgrwt>
</event>
<event>
 6    1  0.9205235E-004  0.4753412E+03  0.7818608E-02  0.1020423E+00
          2   -1    0    0  502    0  0.00000000000E+00  0.00000000000E+00  0.12332783568E+04  0.12332783568E+04  0.00000000000E+00 0. -1.
         -2   -1    0    0    0  501 -0.00000000000E+00 -0.00000000000E+00 -0.20945175209E+03  0.20945175209E+03  0.00000000000E+00 0.  1.
    9000007    2    1    2  502    0  0.24331937901E+03  0.47885257826E+02  0.26113485122E+03  0.54651806425E+03  0.41108790533E+03 0.  0.
    9000005    1    3    3    0    0  0.25161133163E+03 -0.13646847059E+03  0.21004083664E+03  0.35503529222E+03  0.99999687468E+00 0.  0.
          4    1    3    3  502    0 -0.82919526196E+01  0.18435372841E+03  0.51094014571E+02  0.19148277203E+03  0.00000000000E+00 0.  1.
   -9000007    1    1    2    0  501 -0.24331937901E+03 -0.47885257826E+02  0.76269175355E+03  0.89621204469E+03  0.40000000000E+03 0.  1.
<mgrwt>
<rscale>  2 0.47534115E+03</rscale>
<asrwt>0</asrwt>
<pdfrwt beam="1">  1        2 0.18973513E+00 0.47534115E+03</pdfrwt>
<pdfrwt beam="2">  1       -2 0.32223347E-01 0.47534115E+03</pdfrwt>
<totfact> 0.16829265E+02</totfact>
</mgrwt>
</event>
<event>
 6    1  0.9205235E-004  0.8552227E+03  0.7818608E-02  0.9483354E-01
         -1   -1    0    0    0  501 -0.00000000000E+00  0.00000000000E+00  0.40989044734E+03  0.40989044734E+03  0.00000000000E+00 0. -1.
          1   -1    0    0  502    0  0.00000000000E+00 -0.00000000000E+00 -0.21626153610E+04  0.21626153610E+04  0.00000000000E+00 0.  1.
    9000007    2    1    2  502    0  0.16886539887E+03  0.73679953602E+03 -0.33846022096E+03  0.91977059052E+03  0.40004192129E+03 0.  0.
    9000005    1    3    3    0    0  0.75480763468E+02  0.47788155040E+03 -0.36999951135E+00  0.48380704703E+03  0.99999687468E+00 0.  0.
          4    1    3    3  502    0  0.93384635398E+02  0.25891798562E+03 -0.33809022145E+03  0.43596354349E+03  0.00000000000E+00 0.  1.
   -9000007    1    1    2    0  501 -0.16886539887E+03 -0.73679953602E+03 -0.14142646927E+04  0.16527352178E+04  0.40000000000E+03 0.  1.
<mgrwt>
<rscale>  2 0.85522269E+03</rscale>
<asrwt>0</asrwt>
<pdfrwt beam="1">  1        1 0.33271007E+00 0.85522269E+03</pdfrwt>
<pdfrwt beam="2">  1       -1 0.63060066E-01 0.85522269E+03</pdfrwt>
<totfact> 0.60921025E+00</totfact>
</mgrwt>
</event>
<event>
 6    1  0.9205235E-004  0.3995700E+03  0.7818608E-02  0.1043929E+00
          1   -1    0    0  502    0  0.00000000000E+00  0.00000000000E+00  0.57542958238E+03  0.57542958238E+03  0.00000000000E+00 0. -1.
         -1   -1    0    0    0  501 -0.00000000000E+00 -0.00000000000E+00 -0.61212958115E+03  0.61212958115E+03  0.00000000000E+00 0.  1.
    9000007    2    1    2  502    0  0.57537380472E+01  0.16466583120E+02 -0.45738256569E+03  0.60680269479E+03  0.39837977502E+03 0.  0.
    9000005    1    3    3    0    0  0.16960413870E+03 -0.19191310884E+02 -0.69630616118E+02  0.18434558029E+03  0.99999687468E+00 0.  0.
          4    1    3    3  502    0 -0.16385040065E+03  0.35657894003E+02 -0.38775194957E+03  0.42245711450E+03  0.00000000000E+00 0.  1.
   -9000007    1    1    2    0  501 -0.57537380472E+01 -0.16466583120E+02  0.42068256692E+03  0.58075646873E+03  0.40000000000E+03 0. -1.
<mgrwt>
<rscale>  2 0.39956998E+03</rscale>
<asrwt>0</asrwt>
<pdfrwt beam="1">  1        1 0.88527628E-01 0.39956998E+03</pdfrwt>
<pdfrwt beam="2">  1       -1 0.94173782E-01 0.39956998E+03</pdfrwt>
<totfact> 0.42420231E+01</totfact>
</mgrwt>
</event>
<event>
 6    1  0.9205235E-004  0.5884622E+03  0.7818608E-02  0.9929637E-01
          1   -1    0    0  502    0  0.00000000000E+00  0.00000000000E+00  0.37736391456E+03  0.37736391456E+03  0.00000000000E+00 0. -1.
         -1   -1    0    0    0  501 -0.00000000000E+00 -0.00000000000E+00 -0.10200492578E+04  0.10200492578E+04  0.00000000000E+00 0.  1.
    9000007    2    1    2  502    0  0.29900012292E+03 -0.31276714953E+03 -0.99576678773E+02  0.59604472730E+03  0.39765492409E+03 0.  0.
    9000005    1    3    3    0    0  0.24676028454E+03 -0.29670833839E+03  0.92082962917E+02  0.39674519297E+03  0.99999687468E+00 0.  0.
          4    1    3    3  502    0  0.52239838377E+02 -0.16058811141E+02 -0.19165964169E+03  0.19929953432E+03  0.00000000000E+00 0.  1.
   -9000007    1    1    2    0  501 -0.29900012292E+03  0.31276714953E+03 -0.54310866450E+03  0.80136844509E+03  0.40000000000E+03 0.  1.
<mgrwt>
<rscale>  2 0.58846225E+03</rscale>
<asrwt>0</asrwt>
<pdfrwt beam="1">  1        1 0.58055988E-01 0.58846225E+03</pdfrwt>
<pdfrwt beam="2">  1       -1 0.15693065E+00 0.58846225E+03</pdfrwt>
<totfact> 0.20895656E+01</totfact>
</mgrwt>
</event>
<event>
 6    1  0.9205235E-004  0.4354141E+03  0.7818608E-02  0.1032163E+00
          2   -1    0    0  502    0  0.00000000000E+00  0.00000000000E+00  0.87559126046E+03  0.87559126046E+03  0.00000000000E+00 0.  1.
         -2   -1    0    0    0  501 -0.00000000000E+00 -0.00000000000E+00 -0.22686923299E+03  0.22686923299E+03  0.00000000000E+00 0. -1.
    9000007    2    1    2  502    0  0.12823935192E+03 -0.11658572231E+03  0.20627645917E+03  0.48133599472E+03  0.39886940240E+03 0.  0.
    9000005    1    3    3    0    0  0.15617620468E+03  0.57074181995E+02 -0.47162581875E+02  0.17284032597E+03  0.99999687468E+00 0.  0.
          4    1    3    3  502    0 -0.27936852759E+02 -0.17365990431E+03  0.25343904105E+03  0.30849566875E+03  0.00000000000E+00 0.  1.
   -9000007    1    1    2    0  501 -0.12823935192E+03  0.11658572231E+03  0.44244556829E+03  0.62112449874E+03  0.40000000000E+03 0.  1.
<mgrwt>
<rscale>  2 0.43541408E+03</rscale>
<asrwt>0</asrwt>
<pdfrwt beam="1">  1        2 0.13470635E+00 0.43541408E+03</pdfrwt>
<pdfrwt beam="2">  1       -2 0.34902960E-01 0.43541408E+03</pdfrwt>
<totfact> 0.24155587E+02</totfact>
</mgrwt>
</event>
<event>
 6    1  0.9205235E-004  0.4593550E+03  0.7818608E-02  0.1024968E+00
         -1   -1    0    0    0  501 -0.00000000000E+00  0.00000000000E+00  0.94283486243E+03  0.94283486243E+03  0.00000000000E+00 0. -1.
          1   -1    0    0  502    0  0.00000000000E+00 -0.00000000000E+00 -0.28004916858E+03  0.28004916858E+03  0.00000000000E+00 0.  1.
    9000007    2    1    2  502    0  0.53405108996E+02 -0.22070631642E+03  0.60507032106E+03  0.75931693982E+03  0.39860850205E+03 0.  0.
    9000005    1    3    3    0    0 -0.82424913064E+02 -0.71041048795E+02 -0.12481059036E+02  0.10953298013E+03  0.99999687468E+00 0.  0.
          4    1    3    3  502    0  0.13583002206E+03 -0.14966526762E+03  0.61755138009E+03  0.64978395970E+03  0.00000000000E+00 0.  1.
   -9000007    1    1    2    0  501 -0.53405108996E+02  0.22070631642E+03  0.57715372796E+02  0.46356709118E+03  0.40000000000E+03 0.  1.
<mgrwt>
<rscale>  2 0.45935501E+03</rscale>
<asrwt>0</asrwt>
<pdfrwt beam="1">  1        1 0.43084488E-01 0.45935501E+03</pdfrwt>
<pdfrwt beam="2">  1       -1 0.14505152E+00 0.45935501E+03</pdfrwt>
<totfact> 0.38585084E+01</totfact>
</mgrwt>
</event>
<event>
 6    1  0.9205235E-004  0.4209705E+03  0.7818608E-02  0.1036751E+00
          1   -1    0    0  502    0  0.00000000000E+00  0.00000000000E+00  0.11344563549E+04  0.11344563549E+04  0.00000000000E+00 0. -1.
         -1   -1    0    0    0  501 -0.00000000000E+00 -0.00000000000E+00 -0.20197461254E+03  0.20197461254E+03  0.00000000000E+00 0.  1.
    9000007    2    1    2  502    0 -0.54126009718E+02  0.12148742151E+03  0.14769262801E+03  0.44559833864E+03  0.39881818981E+03 0.  0.
    9000005    1    3    3    0    0  0.11081111054E+03  0.36980423078E+02  0.21804468422E+03  0.24736842608E+03  0.99999687468E+00 0.  0.
          4    1    3    3  502    0 -0.16493712026E+03  0.84506998433E+02 -0.70352056209E+02  0.19822991257E+03  0.00000000000E+00 0.  1.
   -9000007    1    1    2    0  501  0.54126009718E+02 -0.12148742151E+03  0.78478911435E+03  0.89083262879E+03  0.40000000000E+03 0. -1.
<mgrwt>
<rscale>  2 0.42097050E+03</rscale>
<asrwt>0</asrwt>
<pdfrwt beam="1">  1        1 0.17453174E+00 0.42097050E+03</pdfrwt>
<pdfrwt beam="2">  1       -1 0.31073018E-01 0.42097050E+03</pdfrwt>
<totfact> 0.12079132E+02</totfact>
</mgrwt>
</event>
<event>
 6    1  0.9205235E-004  0.4553231E+03  0.7818608E-02  0.1026146E+00
          2   -1    0    0  502    0  0.00000000000E+00  0.00000000000E+00  0.15744810008E+04  0.15744810008E+04  0.00000000000E+00 0.  1.
         -2   -1    0    0    0  501 -0.00000000000E+00 -0.00000000000E+00 -0.13249389092E+03  0.13249389092E+03  0.00000000000E+00 0. -1.
    9000007    2    1    2  502    0  0.20103261624E+03  0.84957906169E+02  0.65334055593E+03  0.79615364381E+03  0.39921771493E+03 0.  0.
    9000005    1    3    3    0    0  0.24885659437E+03  0.19248100576E+01  0.16522064923E+03  0.29871754616E+03  0.99999687468E+00 0.  0.
          4    1    3    3  502    0 -0.47823978132E+02  0.83033096111E+02  0.48811990669E+03  0.49743609765E+03  0.00000000000E+00 0.  1.
   -9000007    1    1    2    0  501 -0.20103261624E+03 -0.84957906169E+02  0.78864655396E+03  0.91082124793E+03  0.40000000000E+03 0. -1.
<mgrwt>
<rscale>  2 0.45532309E+03</rscale>
<asrwt>0</asrwt>
<pdfrwt beam="1">  1        2 0.24222783E+00 0.45532309E+03</pdfrwt>
<pdfrwt beam="2">  1       -2 0.20383677E-01 0.45532309E+03</pdfrwt>
<totfact> 0.24812129E+02</totfact>
</mgrwt>
</event>
<event>
 6    1  0.9205235E-004  0.4412870E+03  0.7818608E-02  0.1030353E+00
          2   -1    0    0  502    0  0.00000000000E+00  0.00000000000E+00  0.36873183912E+04  0.36873183912E+04  0.00000000000E+00 0.  1.
         -2   -1    0    0    0  501 -0.00000000000E+00 -0.00000000000E+00 -0.19756901264E+03  0.19756901264E+03  0.00000000000E+00 0. -1.
    9000007    2    1    2  502    0 -0.14235403755E+03 -0.11899291958E+03  0.34079274789E+04  0.34364246850E+04  0.40077540785E+03 0.  0.
    9000005    1    3    3    0    0 -0.59396171078E+02 -0.95346792594E+02  0.21720310995E+03  0.24453446988E+03  0.99999687468E+00 0.  0.
          4    1    3    3  502    0 -0.82957866470E+02 -0.23646126986E+02  0.31907243689E+04  0.31918902151E+04  0.00000000000E+00 0.  1.
   -9000007    1    1    2    0  501  0.14235403755E+03  0.11899291958E+03  0.81821899683E+02  0.44846271883E+03  0.40000000000E+03 0. -1.
<mgrwt>
<rscale>  2 0.44128699E+03</rscale>
<asrwt>0</asrwt>
<pdfrwt beam="1">  1        2 0.56727970E+00 0.44128699E+03</pdfrwt>
<pdfrwt beam="2">  1       -2 0.30395236E-01 0.44128699E+03</pdfrwt>
<totfact> 0.70630248E+00</totfact>
</mgrwt>
</event>
<event>
 6    1  0.9205235E-004  0.4314921E+03  0.7818608E-02  0.1033390E+00
          2   -1    0    0  502    0  0.00000000000E+00  0.00000000000E+00  0.12330668283E+04  0.12330668283E+04  0.00000000000E+00 0. -1.
         -2   -1    0    0    0  501 -0.00000000000E+00 -0.00000000000E+00 -0.16018843668E+03  0.16018843668E+03  0.00000000000E+00 0.  1.
    9000007    2    1    2  502    0 -0.16068545032E+03  0.17709652733E+02  0.70340837983E+03  0.82523982914E+03  0.40012995520E+03 0.  0.
    9000005    1    3    3    0    0 -0.14748490431E+03  0.70135287504E+02  0.74139307792E+03  0.75916760438E+03  0.99999687468E+00 0.  0.
          4    1    3    3  502    0 -0.13200546010E+02 -0.52425634771E+02 -0.37984698096E+02  0.66072224766E+02  0.00000000000E+00 0.  1.
   -9000007    1    1    2    0  501  0.16068545032E+03 -0.17709652733E+02  0.36947001184E+03  0.56801543588E+03  0.40000000000E+03 0.  1.
<mgrwt>
<rscale>  2 0.43149210E+03</rscale>
<asrwt>0</asrwt>
<pdfrwt beam="1">  1        2 0.18970258E+00 0.43149210E+03</pdfrwt>
<pdfrwt beam="2">  1       -2 0.24644376E-01 0.43149210E+03</pdfrwt>
<totfact> 0.27570714E+02</totfact>
</mgrwt>
</event>
<event>
 6    1  0.9205235E-004  0.4117376E+03  0.7818608E-02  0.1039789E+00
         -2   -1    0    0    0  501 -0.00000000000E+00  0.00000000000E+00  0.17512017687E+03  0.17512017687E+03  0.00000000000E+00 0. -1.
          2   -1    0    0  502    0  0.00000000000E+00 -0.00000000000E+00 -0.96850038215E+03  0.96850038215E+03  0.00000000000E+00 0.  1.
    9000007    2    1    2  502    0  0.94265228238E+02 -0.16988257413E+02 -0.38500776198E+03  0.56401501506E+03  0.40088330757E+03 0.  0.
    9000005    1    3    3    0    0 -0.41109252686E+02  0.43983043306E+02  0.65916071163E+02  0.89277136973E+02  0.99999687468E+00 0.  0.
          4    1    3    3  502    0  0.13537448092E+03 -0.60971300719E+02 -0.45092383314E+03  0.47473787809E+03  0.00000000000E+00 0.  1.
   -9000007    1    1    2    0  501 -0.94265228238E+02  0.16988257413E+02 -0.40837244330E+03  0.57960554396E+03  0.40000000000E+03 0.  1.
<mgrwt>
<rscale>  2 0.41173763E+03</rscale>
<asrwt>0</asrwt>
<pdfrwt beam="1">  1        2 0.14900006E+00 0.41173763E+03</pdfrwt>
<pdfrwt beam="2">  1       -2 0.26941565E-01 0.41173763E+03</pdfrwt>
<totfact> 0.33947896E+02</totfact>
</mgrwt>
</event>
<event>
 6    1  0.9205235E-004  0.6389711E+03  0.7818608E-02  0.9827697E-01
         -2   -1    0    0    0  501 -0.00000000000E+00  0.00000000000E+00  0.31906357433E+03  0.31906357433E+03  0.00000000000E+00 0. -1.
          2   -1    0    0  502    0  0.00000000000E+00 -0.00000000000E+00 -0.13544301280E+04  0.13544301280E+04  0.00000000000E+00 0.  1.
    9000007    2    1    2  502    0  0.36299646269E+03  0.34167885663E+03 -0.32091278056E+03  0.71487226146E+03  0.39943267830E+03 0.  0.
    9000005    1    3    3    0    0  0.43626812339E+02  0.19332831677E+03 -0.30326875498E+03  0.36228728181E+03  0.99999687468E+00 0.  0.
          4    1    3    3  502    0  0.31936965035E+03  0.14835053986E+03 -0.17644025584E+02  0.35258497966E+03  0.00000000000E+00 0.  1.
   -9000007    1    1    2    0  501 -0.36299646269E+03 -0.34167885663E+03 -0.71445377314E+03  0.95862144089E+03  0.40000000000E+03 0.  1.
<mgrwt>
<rscale>  2 0.63897108E+03</rscale>
<asrwt>0</asrwt>
<pdfrwt beam="1">  1        2 0.20837387E+00 0.63897108E+03</pdfrwt>
<pdfrwt beam="2">  1       -2 0.49086703E-01 0.63897108E+03</pdfrwt>
<totfact> 0.62251174E+01</totfact>
</mgrwt>
</event>
<event>
 6    1  0.9205235E-004  0.4354764E+03  0.7818608E-02  0.1032144E+00
          2   -1    0    0  502    0  0.00000000000E+00  0.00000000000E+00  0.78096614255E+03  0.78096614255E+03  0.00000000000E+00 0.  1.
         -2   -1    0    0    0  501 -0.00000000000E+00 -0.00000000000E+00 -0.25214845128E+03  0.25214845128E+03  0.00000000000E+00 0. -1.
    9000007    2    1    2  502    0  0.26704360120E+01 -0.17143393191E+03  0.16525413499E+03  0.46603859919E+03  0.40060744197E+03 0.  0.
    9000005    1    3    3    0    0  0.52671361246E+01 -0.27334889808E+03  0.18119500303E+01  0.27340747240E+03  0.99999687468E+00 0.  0.
          4    1    3    3  502    0 -0.25967001127E+01  0.10191496617E+03  0.16344218496E+03  0.19263112679E+03  0.00000000000E+00 0.  1.
   -9000007    1    1    2    0  501 -0.26704360120E+01  0.17143393191E+03  0.36356355628E+03  0.56707599464E+03  0.40000000000E+03 0. -1.
<mgrwt>
<rscale>  2 0.43547644E+03</rscale>
<asrwt>0</asrwt>
<pdfrwt beam="1">  1        2 0.12014864E+00 0.43547644E+03</pdfrwt>
<pdfrwt beam="2">  1       -2 0.38792070E-01 0.43547644E+03</pdfrwt>
<totfact> 0.22970842E+02</totfact>
</mgrwt>
</event>
<event>
 6    1  0.9205235E-004  0.7585017E+03  0.7818608E-02  0.9622106E-01
         -2   -1    0    0    0  501 -0.00000000000E+00  0.00000000000E+00  0.52440683586E+03  0.52440683586E+03  0.00000000000E+00 0.  1.
          2   -1    0    0  502    0  0.00000000000E+00 -0.00000000000E+00 -0.11147977243E+04  0.11147977243E+04  0.00000000000E+00 0. -1.
    9000007    2    1    2  502    0 -0.10830483792E+03 -0.63516983575E+03 -0.39851215156E+03  0.85690787233E+03  0.40038544998E+03 0.  0.
    9000005    1    3    3    0    0 -0.21311963886E+03 -0.52523796501E+03 -0.18774748183E+03  0.59711390646E+03  0.99999687468E+00 0.  0.
          4    1    3    3  502    0  0.10481480094E+03 -0.10993187074E+03 -0.21076466973E+03  0.25979396588E+03  0.00000000000E+00 0.  1.
   -9000007    1    1    2    0  501  0.10830483792E+03  0.63516983575E+03 -0.19187873692E+03  0.78229668786E+03  0.40000000000E+03 0.  1.
<mgrwt>
<rscale>  2 0.75850174E+03</rscale>
<asrwt>0</asrwt>
<pdfrwt beam="1">  1        2 0.17150734E+00 0.75850174E+03</pdfrwt>
<pdfrwt beam="2">  1       -2 0.80677975E-01 0.75850174E+03</pdfrwt>
<totfact> 0.29416357E+01</totfact>
</mgrwt>
</event>
<event>
 6    1  0.9205235E-004  0.4055299E+03  0.7818608E-02  0.1041882E+00
         -2   -1    0    0    0  501 -0.00000000000E+00  0.00000000000E+00  0.22162696960E+03  0.22162696960E+03  0.00000000000E+00 0. -1.
          2   -1    0    0  502    0  0.00000000000E+00 -0.00000000000E+00 -0.10949485422E+04  0.10949485422E+04  0.00000000000E+00 0.  1.
    9000007    2    1    2  502    0 -0.19722904953E+01  0.61079107290E+02 -0.81103437576E+03  0.90716832802E+03  0.40179978773E+03 0.  0.
    9000005    1    3    3    0    0  0.40379290761E+02 -0.16704148392E+03 -0.39599901082E+03  0.43168224545E+03  0.99999687468E+00 0.  0.
          4    1    3    3  502    0 -0.42351581256E+02  0.22812059121E+03 -0.41503536493E+03  0.47548608256E+03  0.00000000000E+00 0.  1.
   -9000007    1    1    2    0  501  0.19722904953E+01 -0.61079107290E+02 -0.62287196881E+02  0.40940718383E+03  0.40000000000E+03 0. -1.
<mgrwt>
<rscale>  2 0.40552990E+03</rscale>
<asrwt>0</asrwt>
<pdfrwt beam="1">  1        2 0.16845362E+00 0.40552990E+03</pdfrwt>
<pdfrwt beam="2">  1       -2 0.34096457E-01 0.40552990E+03</pdfrwt>
<totfact> 0.18402918E+02</totfact>
</mgrwt>
</event>
<event>
 6    1  0.9205235E-004  0.4182090E+03  0.7818608E-02  0.1037651E+00
          1   -1    0    0  502    0  0.00000000000E+00  0.00000000000E+00  0.75351212286E+03  0.75351212286E+03  0.00000000000E+00 0.  1.
         -1   -1    0    0    0  501 -0.00000000000E+00 -0.00000000000E+00 -0.23616914320E+03  0.23616914320E+03  0.00000000000E+00 0. -1.
    9000007    2    1    2  502    0 -0.72278588510E+02  0.10723180847E+03  0.19254042071E+03  0.45843785913E+03  0.39543722887E+03 0.  0.
    9000005    1    3    3    0    0  0.14314912141E+03  0.12597969691E+03  0.42870706101E+02  0.19545191846E+03  0.99999687468E+00 0.  0.
          4    1    3    3  502    0 -0.21542770992E+03 -0.18747888442E+02  0.14966971461E+03  0.26298594067E+03  0.00000000000E+00 0.  1.
   -9000007    1    1    2    0  501  0.72278588510E+02 -0.10723180847E+03  0.32480255895E+03  0.53124340693E+03  0.40000000000E+03 0. -1.
<mgrwt>
<rscale>  2 0.41820897E+03</rscale>
<asrwt>0</asrwt>
<pdfrwt beam="1">  1        1 0.11592494E+00 0.41820897E+03</pdfrwt>
<pdfrwt beam="2">  1       -1 0.36333715E-01 0.41820897E+03</pdfrwt>
<totfact> 0.18351301E+02</totfact>
</mgrwt>
</event>
<event>
 6    1  0.9205235E-004  0.9625718E+03  0.7818608E-02  0.9350576E-01
          1   -1    0    0  502    0  0.00000000000E+00  0.00000000000E+00  0.23912854250E+04  0.23912854250E+04  0.00000000000E+00 0.  1.
         -1   -1    0    0    0  501 -0.00000000000E+00 -0.00000000000E+00 -0.79969375391E+03  0.79969375391E+03  0.00000000000E+00 0. -1.
    9000007    2    1    2  502    0 -0.87223682620E+03 -0.89629874075E+02 -0.35019140973E+03  0.10231802657E+04  0.39425022166E+03 0.  0.
    9000005    1    3    3    0    0 -0.72239352261E+03  0.59925759744E+02 -0.16851201566E+03  0.74420480891E+03  0.99999687468E+00 0.  0.
          4    1    3    3  502    0 -0.14984330359E+03 -0.14955563382E+03 -0.18167939407E+03  0.27897545675E+03  0.00000000000E+00 0.  1.
   -9000007    1    1    2    0  501  0.87223682620E+03  0.89629874075E+02  0.19417830808E+04  0.21677989132E+04  0.40000000000E+03 0.  1.
<mgrwt>
<rscale>  2 0.96257176E+03</rscale>
<asrwt>0</asrwt>
<pdfrwt beam="1">  1        1 0.36789006E+00 0.96257176E+03</pdfrwt>
<pdfrwt beam="2">  1       -1 0.12302981E+00 0.96257176E+03</pdfrwt>
<totfact> 0.95929306E-01</totfact>
</mgrwt>
</event>
<event>
 6    1  0.9205235E-004  0.4171439E+03  0.7818608E-02  0.1038000E+00
          1   -1    0    0  502    0  0.00000000000E+00  0.00000000000E+00  0.95202086531E+03  0.95202086531E+03  0.00000000000E+00 0. -1.
         -1   -1    0    0    0  501 -0.00000000000E+00 -0.00000000000E+00 -0.20335489379E+03  0.20335489379E+03  0.00000000000E+00 0.  1.
    9000007    2    1    2  502    0 -0.38805581008E+02 -0.10989017824E+03  0.55850453997E+03  0.69739858233E+03  0.40106824492E+03 0.  0.
    9000005    1    3    3    0    0 -0.21082895995E+03 -0.10635318510E+03  0.24820353717E+03  0.34258699069E+03  0.99999687468E+00 0.  0.
          4    1    3    3  502    0  0.17202337894E+03 -0.35369931313E+01  0.31030100280E+03  0.35481159164E+03  0.00000000000E+00 0.  1.
   -9000007    1    1    2    0  501  0.38805581008E+02  0.10989017824E+03  0.19016143155E+03  0.45797717677E+03  0.40000000000E+03 0.  1.
<mgrwt>
<rscale>  2 0.41714394E+03</rscale>
<asrwt>0</asrwt>
<pdfrwt beam="1">  1        1 0.14646475E+00 0.41714394E+03</pdfrwt>
<pdfrwt beam="2">  1       -1 0.31285369E-01 0.41714394E+03</pdfrwt>
<totfact> 0.16362664E+02</totfact>
</mgrwt>
</event>
<event>
 6    1  0.9205235E-004  0.4143456E+03  0.7818608E-02  0.1038922E+00
         -2   -1    0    0    0  501 -0.00000000000E+00  0.00000000000E+00  0.36314939518E+03  0.36314939518E+03  0.00000000000E+00 0. -1.
          2   -1    0    0  502    0  0.00000000000E+00 -0.00000000000E+00 -0.50431153088E+03  0.50431153088E+03  0.00000000000E+00 0.  1.
    9000007    2    1    2  502    0 -0.89875563717E+02  0.64138519069E+02 -0.17897001023E+03  0.45078263053E+03  0.39872716091E+03 0.  0.
    9000005    1    3    3    0    0  0.14891575606E+02 -0.33218876930E+02  0.11674768019E+03  0.12229584470E+03  0.99999687468E+00 0.  0.
          4    1    3    3  502    0 -0.10476713932E+03  0.97357395999E+02 -0.29571769042E+03  0.32848678583E+03  0.00000000000E+00 0.  1.
   -9000007    1    1    2    0  501  0.89875563717E+02 -0.64138519069E+02  0.37807874536E+02  0.41667829552E+03  0.40000000000E+03 0. -1.
<mgrwt>
<rscale>  2 0.41434561E+03</rscale>
<asrwt>0</asrwt>
<pdfrwt beam="1">  1        2 0.77586389E-01 0.41434561E+03</pdfrwt>
<pdfrwt beam="2">  1       -2 0.55869138E-01 0.41434561E+03</pdfrwt>
<totfact> 0.18854824E+02</totfact>
</mgrwt>
</event>
<event>
 6    1  0.9205235E-004  0.4415466E+03  0.7818608E-02  0.1030273E+00
         -2   -1    0    0    0  501 -0.00000000000E+00  0.00000000000E+00  0.12920699346E+03  0.12920699346E+03  0.00000000000E+00 0.  1.
          2   -1    0    0  502    0  0.00000000000E+00 -0.00000000000E+00 -0.15343231388E+04  0.15343231388E+04  0.00000000000E+00 0. -1.
    9000007    2    1    2  502    0  0.17932474724E+03  0.53949896212E+02 -0.80939191772E+03  0.92194041305E+03  0.39973853014E+03 0.  0.
    9000005    1    3    3    0    0  0.50640812301E+02 -0.16924077941E+03 -0.41283278583E+03  0.44904213870E+03  0.99999687468E+00 0.  0.
          4    1    3    3  502    0  0.12868393494E+03  0.22319067562E+03 -0.39655913189E+03  0.47289827435E+03  0.00000000000E+00 0.  1.
   -9000007    1    1    2    0  501 -0.17932474724E+03 -0.53949896212E+02 -0.59572422763E+03  0.74158971923E+03  0.40000000000E+03 0. -1.
<mgrwt>
<rscale>  2 0.44154657E+03</rscale>
<asrwt>0</asrwt>
<pdfrwt beam="1">  1        2 0.23604969E+00 0.44154657E+03</pdfrwt>
<pdfrwt beam="2">  1       -2 0.19878001E-01 0.44154657E+03</pdfrwt>
<totfact> 0.27297889E+02</totfact>
</mgrwt>
</event>
<event>
 6    1  0.9205235E-004  0.4514703E+03  0.7818608E-02  0.1027285E+00
         -1   -1    0    0    0  501 -0.00000000000E+00  0.00000000000E+00  0.32537256293E+03  0.32537256293E+03  0.00000000000E+00 0.  1.
          1   -1    0    0  502    0  0.00000000000E+00 -0.00000000000E+00 -0.94250226640E+03  0.94250226640E+03  0.00000000000E+00 0. -1.
    9000007    2    1    2  502    0 -0.20593506156E+03 -0.42115107862E+02  0.58722273618E+02  0.45488108593E+03  0.39910595714E+03 0.  0.
    9000005    1    3    3    0    0  0.14123414649E+02 -0.89632139291E+01  0.19381963333E+03  0.19454269532E+03  0.99999687468E+00 0.  0.
          4    1    3    3  502    0 -0.22005847620E+03 -0.33151893933E+02 -0.13509735971E+03  0.26033839060E+03  0.00000000000E+00 0.  1.
   -9000007    1    1    2    0  501  0.20593506156E+03  0.42115107862E+02 -0.67585197709E+03  0.81299374341E+03  0.40000000000E+03 0. -1.
<mgrwt>
<rscale>  2 0.45147027E+03</rscale>
<asrwt>0</asrwt>
<pdfrwt beam="1">  1        1 0.14500035E+00 0.45147027E+03</pdfrwt>
<pdfrwt beam="2">  1       -1 0.50057317E-01 0.45147027E+03</pdfrwt>
<totfact> 0.71127675E+01</totfact>
</mgrwt>
</event>
<event>
 6    1  0.9205235E-004  0.4256466E+03  0.7818608E-02  0.1035244E+00
          2   -1    0    0  502    0  0.00000000000E+00  0.00000000000E+00  0.53988132498E+03  0.53988132498E+03  0.00000000000E+00 0. -1.
         -2   -1    0    0    0  501 -0.00000000000E+00 -0.00000000000E+00 -0.38130434155E+03  0.38130434155E+03  0.00000000000E+00 0.  1.
    9000007    2    1    2  502    0 -0.14212292332E+03 -0.37605744539E+02  0.23869584428E+03  0.48755892702E+03  0.39890460499E+03 0.  0.
    9000005    1    3    3    0    0  0.10339132933E+03 -0.26817193948E+02  0.21574276012E+03  0.24073817191E+03  0.99999687468E+00 0.  0.
          4    1    3    3  502    0 -0.24551425266E+03 -0.10788550591E+02  0.22953084154E+02  0.24682075511E+03  0.00000000000E+00 0.  1.
   -9000007    1    1    2    0  501  0.14212292332E+03  0.37605744539E+02 -0.80118860848E+02  0.43362673951E+03  0.40000000000E+03 0.  1.
<mgrwt>
<rscale>  2 0.42564660E+03</rscale>
<asrwt>0</asrwt>
<pdfrwt beam="1">  1        2 0.83058666E-01 0.42564660E+03</pdfrwt>
<pdfrwt beam="2">  1       -2 0.58662206E-01 0.42564660E+03</pdfrwt>
<totfact> 0.15742688E+02</totfact>
</mgrwt>
</event>
<event>
 6    1  0.9205235E-004  0.4141013E+03  0.7818608E-02  0.1039003E+00
         -1   -1    0    0    0  501 -0.00000000000E+00  0.00000000000E+00  0.10480748983E+03  0.10480748983E+03  0.00000000000E+00 0. -1.
          1   -1    0    0  502    0  0.00000000000E+00 -0.00000000000E+00 -0.17914557368E+04  0.17914557368E+04  0.00000000000E+00 0.  1.
    9000007    2    1    2  502    0 -0.77646898970E+01  0.98149992415E+02 -0.11264844996E+04  0.12009380255E+04  0.40446396860E+03 0.  0.
    9000005    1    3    3    0    0  0.74634534550E+02  0.36741991855E+02 -0.14783718098E+02  0.84497609597E+02  0.99999687468E+00 0.  0.
          4    1    3    3  502    0 -0.82399224447E+02  0.61408000560E+02 -0.11117007815E+04  0.11164404159E+04  0.00000000000E+00 0.  1.
   -9000007    1    1    2    0  501  0.77646898970E+01 -0.98149992415E+02 -0.56016374734E+03  0.69532520108E+03  0.40000000000E+03 0. -1.
<mgrwt>
<rscale>  2 0.41410127E+03</rscale>
<asrwt>0</asrwt>
<pdfrwt beam="1">  1        1 0.27560858E+00 0.41410127E+03</pdfrwt>
<pdfrwt beam="2">  1       -1 0.16124229E-01 0.41410127E+03</pdfrwt>
<totfact> 0.12888283E+02</totfact>
</mgrwt>
</event>
<event>
 6    1  0.9205235E-004  0.4327838E+03  0.7818608E-02  0.1032984E+00
         -1   -1    0    0    0  501 -0.00000000000E+00  0.00000000000E+00  0.36591792611E+03  0.36591792611E+03  0.00000000000E+00 0. -1.
          1   -1    0    0  502    0  0.00000000000E+00 -0.00000000000E+00 -0.51585304223E+03  0.51585304223E+03  0.00000000000E+00 0.  1.
    9000007    2    1    2  502    0 -0.16284454851E+03 -0.30157118148E+02 -0.11369116369E+03  0.44732715973E+03  0.39968501145E+03 0.  0.
    9000005    1    3    3    0    0 -0.38409299529E+02  0.54538987892E+02  0.13844303356E+03  0.15367904550E+03  0.99999687468E+00 0.  0.
          4    1    3    3  502    0 -0.12443524898E+03 -0.84696106040E+02 -0.25213419725E+03  0.29364811423E+03  0.00000000000E+00 0.  1.
   -9000007    1    1    2    0  501  0.16284454851E+03  0.30157118148E+02 -0.36243952434E+02  0.43444380861E+03  0.40000000000E+03 0.  1.
<mgrwt>
<rscale>  2 0.43278379E+03</rscale>
<asrwt>0</asrwt>
<pdfrwt beam="1">  1        1 0.79362006E-01 0.43278379E+03</pdfrwt>
<pdfrwt beam="2">  1       -1 0.56295066E-01 0.43278379E+03</pdfrwt>
<totfact> 0.14102883E+02</totfact>
</mgrwt>
</event>
<event>
 6    1  0.9205235E-004  0.5073402E+03  0.7818608E-02  0.1011881E+00
          1   -1    0    0  502    0  0.00000000000E+00  0.00000000000E+00  0.27031758776E+03  0.27031758776E+03  0.00000000000E+00 0. -1.
         -1   -1    0    0    0  501 -0.00000000000E+00 -0.00000000000E+00 -0.95629167450E+03  0.95629167450E+03  0.00000000000E+00 0.  1.
    9000007    2    1    2  502    0 -0.23273167099E+03  0.20774132519E+03 -0.30287717422E+03  0.59093345396E+03  0.40018405199E+03 0.  0.
    9000005    1    3    3    0    0 -0.82089828030E+02  0.11725268757E+03  0.84036734193E+02  0.16598224392E+03  0.99999687468E+00 0.  0.
          4    1    3    3  502    0 -0.15064184296E+03  0.90488637621E+02 -0.38691390842E+03  0.42495121004E+03  0.00000000000E+00 0.  1.
   -9000007    1    1    2    0  501  0.23273167099E+03 -0.20774132519E+03 -0.38309691252E+03  0.63567580830E+03  0.40000000000E+03 0.  1.
<mgrwt>
<rscale>  2 0.50734024E+03</rscale>
<asrwt>0</asrwt>
<pdfrwt beam="1">  1        1 0.41587321E-01 0.50734024E+03</pdfrwt>
<pdfrwt beam="2">  1       -1 0.14712180E+00 0.50734024E+03</pdfrwt>
<totfact> 0.38651998E+01</totfact>
</mgrwt>
</event>
<event>
 6    1  0.9205235E-004  0.6997515E+03  0.7818608E-02  0.9717657E-01
         -2   -1    0    0    0  501 -0.00000000000E+00  0.00000000000E+00  0.12278397556E+04  0.12278397556E+04  0.00000000000E+00 0. -1.
          2   -1    0    0  502    0  0.00000000000E+00 -0.00000000000E+00 -0.39905287789E+03  0.39905287789E+03  0.00000000000E+00 0.  1.
    9000007    2    1    2  502    0 -0.50011880629E+03  0.28276920512E+03  0.39340300503E+03  0.80249202679E+03  0.39893644222E+03 0.  0.
    9000005    1    3    3    0    0 -0.21305162710E+03 -0.54367314613E+02  0.25899802133E+03  0.33974663465E+03  0.99999687468E+00 0.  0.
          4    1    3    3  502    0 -0.28706717919E+03  0.33713651973E+03  0.13440498370E+03  0.46274539214E+03  0.00000000000E+00 0.  1.
   -9000007    1    1    2    0  501  0.50011880629E+03 -0.28276920512E+03  0.43538387272E+03  0.82440060674E+03  0.40000000000E+03 0. -1.
<mgrwt>
<rscale>  2 0.69975153E+03</rscale>
<asrwt>0</asrwt>
<pdfrwt beam="1">  1        2 0.61392751E-01 0.69975153E+03</pdfrwt>
<pdfrwt beam="2">  1       -2 0.18889842E+00 0.69975153E+03</pdfrwt>
<totfact> 0.12848022E+01</totfact>
</mgrwt>
</event>
<event>
 6    1  0.9205235E-004  0.4341616E+03  0.7818608E-02  0.1032553E+00
          1   -1    0    0  502    0  0.00000000000E+00  0.00000000000E+00  0.43682234884E+03  0.43682234884E+03  0.00000000000E+00 0. -1.
         -1   -1    0    0    0  501 -0.00000000000E+00 -0.00000000000E+00 -0.47901347852E+03  0.47901347852E+03  0.00000000000E+00 0.  1.
    9000007    2    1    2  502    0  0.13351410800E+03 -0.10260947299E+03  0.12309029417E+03  0.45143011029E+03  0.40035384720E+03 0.  0.
    9000005    1    3    3    0    0  0.12445326599E+03 -0.24223919949E+03  0.14699636909E+03  0.30947920399E+03  0.99999687468E+00 0.  0.
          4    1    3    3  502    0  0.90608420047E+01  0.13962972650E+03 -0.23906074916E+02  0.14195090629E+03  0.00000000000E+00 0.  1.
   -9000007    1    1    2    0  501 -0.13351410800E+03  0.10260947299E+03 -0.16528142386E+03  0.46440571708E+03  0.40000000000E+03 0.  1.
<mgrwt>
<rscale>  2 0.43416157E+03</rscale>
<asrwt>0</asrwt>
<pdfrwt beam="1">  1        1 0.67203439E-01 0.43416157E+03</pdfrwt>
<pdfrwt beam="2">  1       -1 0.73694381E-01 0.43416157E+03</pdfrwt>
<totfact> 0.10327861E+02</totfact>
</mgrwt>
</event>
<event>
 6    1  0.9205235E-004  0.4010116E+03  0.7818608E-02  0.1043430E+00
          1   -1    0    0  502    0  0.00000000000E+00  0.00000000000E+00  0.66047960333E+03  0.66047960333E+03  0.00000000000E+00 0. -1.
         -1   -1    0    0    0  501 -0.00000000000E+00 -0.00000000000E+00 -0.33476246773E+03  0.33476246773E+03  0.00000000000E+00 0.  1.
    9000007    2    1    2  502    0 -0.28986853648E+01  0.24659935340E+02 -0.96927776588E+02  0.41279444544E+03  0.40048438861E+03 0.  0.
    9000005    1    3    3    0    0  0.57962215687E+02 -0.17132341003E+03 -0.10174995697E+03  0.20752200608E+03  0.99999687468E+00 0.  0.
          4    1    3    3  502    0 -0.60860901052E+02  0.19598334537E+03  0.48221803813E+01  0.20527243936E+03  0.00000000000E+00 0.  1.
   -9000007    1    1    2    0  501  0.28986853648E+01 -0.24659935340E+02  0.42264491219E+03  0.58244762562E+03  0.40000000000E+03 0. -1.
<mgrwt>
<rscale>  2 0.40101156E+03</rscale>
<asrwt>0</asrwt>
<pdfrwt beam="1">  1        1 0.10161225E+00 0.40101156E+03</pdfrwt>
<pdfrwt beam="2">  1       -1 0.51501918E-01 0.40101156E+03</pdfrwt>
<totfact> 0.11844151E+02</totfact>
</mgrwt>
</event>
<event>
 6    1  0.9205235E-004  0.4886614E+03  0.7818608E-02  0.1016782E+00
         -2   -1    0    0    0  501 -0.00000000000E+00  0.00000000000E+00  0.67520636194E+02  0.67520636194E+02  0.00000000000E+00 0.  1.
          2   -1    0    0  502    0  0.00000000000E+00 -0.00000000000E+00 -0.37186370901E+04  0.37186370901E+04  0.00000000000E+00 0. -1.
    9000007    2    1    2  502    0  0.10553951971E+03 -0.26241505487E+03 -0.22400508755E+04  0.22924688973E+04  0.39697036300E+03 0.  0.
    9000005    1    3    3    0    0 -0.99999182753E+02 -0.23896627177E+03 -0.15694268699E+04  0.15906622569E+04  0.99999687468E+00 0.  0.
          4    1    3    3  502    0  0.20553870246E+03 -0.23448783096E+02 -0.67062400562E+03  0.70180664043E+03  0.00000000000E+00 0.  1.
   -9000007    1    1    2    0  501 -0.10553951971E+03  0.26241505487E+03 -0.14110655784E+04  0.14936888290E+04  0.40000000000E+03 0. -1.
<mgrwt>
<rscale>  2 0.48866137E+03</rscale>
<asrwt>0</asrwt>
<pdfrwt beam="1">  1        2 0.57209813E+00 0.48866137E+03</pdfrwt>
<pdfrwt beam="2">  1       -2 0.10387788E-01 0.48866137E+03</pdfrwt>
<totfact> 0.41787023E+01</totfact>
</mgrwt>
</event>
<event>
 6    1  0.9205235E-004  0.4459378E+03  0.7818608E-02  0.1028940E+00
         -1   -1    0    0    0  501 -0.00000000000E+00  0.00000000000E+00  0.12654557722E+04  0.12654557722E+04  0.00000000000E+00 0. -1.
          1   -1    0    0  502    0  0.00000000000E+00 -0.00000000000E+00 -0.59275352756E+03  0.59275352756E+03  0.00000000000E+00 0.  1.
    9000007    2    1    2  502    0  0.19686476424E+03 -0.15147542192E+02 -0.46015807182E+03  0.64068817879E+03  0.39968826346E+03 0.  0.
    9000005    1    3    3    0    0  0.11135479113E+03 -0.39995296560E+02  0.45855998018E+02  0.12689872262E+03  0.99999687468E+00 0.  0.
          4    1    3    3  502    0  0.85509973114E+02  0.24847754369E+02 -0.50601406983E+03  0.51378945617E+03  0.00000000000E+00 0.  1.
   -9000007    1    1    2    0  501 -0.19686476424E+03  0.15147542192E+02  0.11328603164E+04  0.12175211210E+04  0.40000000000E+03 0. -1.
<mgrwt>
<rscale>  2 0.44593777E+03</rscale>
<asrwt>0</asrwt>
<pdfrwt beam="1">  1        1 0.91192850E-01 0.44593777E+03</pdfrwt>
<pdfrwt beam="2">  1       -1 0.19468550E+00 0.44593777E+03</pdfrwt>
<totfact> 0.62479454E+00</totfact>
</mgrwt>
</event>
<event>
 6    1  0.9205235E-004  0.3997837E+03  0.7818608E-02  0.1043855E+00
         -2   -1    0    0    0  501 -0.00000000000E+00  0.00000000000E+00  0.22774165264E+03  0.22774165264E+03  0.00000000000E+00 0. -1.
          2   -1    0    0  502    0  0.00000000000E+00 -0.00000000000E+00 -0.80521759611E+03  0.80521759611E+03  0.00000000000E+00 0.  1.
    9000007    2    1    2  502    0  0.29008176051E+02  0.12606344675E+02 -0.10272407606E+03  0.41135669904E+03  0.39706637208E+03 0.  0.
    9000005    1    3    3    0    0  0.13369575514E+03  0.16105768468E+03 -0.15624650138E+02  0.20990298336E+03  0.99999687468E+00 0.  0.
          4    1    3    3  502    0 -0.10468757909E+03 -0.14845134001E+03 -0.87099425919E+02  0.20145371568E+03  0.00000000000E+00 0.  1.
   -9000007    1    1    2    0  501 -0.29008176051E+02 -0.12606344675E+02 -0.47475186741E+03  0.62160254972E+03  0.40000000000E+03 0.  1.
<mgrwt>
<rscale>  2 0.39978365E+03</rscale>
<asrwt>0</asrwt>
<pdfrwt beam="1">  1        2 0.12387963E+00 0.39978365E+03</pdfrwt>
<pdfrwt beam="2">  1       -2 0.35037177E-01 0.39978365E+03</pdfrwt>
<totfact> 0.26876698E+02</totfact>
</mgrwt>
</event>
<event>
 6    1  0.9205235E-004  0.1136482E+04  0.7818608E-02  0.9170346E-01
         -2   -1    0    0    0  501 -0.00000000000E+00  0.00000000000E+00  0.36961000447E+03  0.36961000447E+03  0.00000000000E+00 0.  1.
          2   -1    0    0  502    0  0.00000000000E+00 -0.00000000000E+00 -0.36554689329E+04  0.36554689329E+04  0.00000000000E+00 0. -1.
    9000007    2    1    2  502    0 -0.10608120212E+04  0.78191074269E+02 -0.12206603920E+04  0.16678600288E+04  0.40038643127E+03 0.  0.
    9000005    1    3    3    0    0  0.27585159962E+02 -0.31180209593E+02 -0.32384748444E+02  0.52753373787E+02  0.99999687468E+00 0.  0.
          4    1    3    3  502    0 -0.10883971812E+04  0.10937128386E+03 -0.11882756436E+04  0.16151066550E+04  0.00000000000E+00 0.  1.
   -9000007    1    1    2    0  501  0.10608120212E+04 -0.78191074269E+02 -0.20651985364E+04  0.23572189086E+04  0.40000000000E+03 0. -1.
<mgrwt>
<rscale>  2 0.11364817E+04</rscale>
<asrwt>0</asrwt>
<pdfrwt beam="1">  1        2 0.56237983E+00 0.11364817E+04</pdfrwt>
<pdfrwt beam="2">  1       -2 0.56863079E-01 0.11364817E+04</pdfrwt>
<totfact> 0.18615650E+00</totfact>
</mgrwt>
</event>
<event>
 6    1  0.9205235E-004  0.4182547E+03  0.7818608E-02  0.1037636E+00
         -2   -1    0    0    0  501 -0.00000000000E+00  0.00000000000E+00  0.11223503893E+04  0.11223503893E+04  0.00000000000E+00 0.  1.
          2   -1    0    0  502    0  0.00000000000E+00 -0.00000000000E+00 -0.23170145261E+03  0.23170145261E+03  0.00000000000E+00 0. -1.
    9000007    2    1    2  502    0 -0.13831115184E+02  0.12085098960E+03  0.83276958677E+03  0.93197805622E+03  0.40035190918E+03 0.  0.
    9000005    1    3    3    0    0  0.11282339524E+03 -0.10337711517E+03  0.22724038216E+03  0.27396192753E+03  0.99999687468E+00 0.  0.
          4    1    3    3  502    0 -0.12665451043E+03  0.22422810477E+03  0.60552920461E+03  0.65801612869E+03  0.00000000000E+00 0.  1.
   -9000007    1    1    2    0  501  0.13831115184E+02 -0.12085098960E+03  0.57879349931E+02  0.42207378571E+03  0.40000000000E+03 0. -1.
<mgrwt>
<rscale>  2 0.41825474E+03</rscale>
<asrwt>0</asrwt>
<pdfrwt beam="1">  1        2 0.35646378E-01 0.41825474E+03</pdfrwt>
<pdfrwt beam="2">  1       -2 0.17266929E+00 0.41825474E+03</pdfrwt>
<totfact> 0.31203800E+01</totfact>
</mgrwt>
</event>
<event>
 6    1  0.9205235E-004  0.9068580E+03  0.7818608E-02  0.9417049E-01
         -2   -1    0    0    0  501 -0.00000000000E+00  0.00000000000E+00  0.33338756302E+03  0.33338756302E+03  0.00000000000E+00 0. -1.
          2   -1    0    0  502    0  0.00000000000E+00 -0.00000000000E+00 -0.26307151764E+04  0.26307151764E+04  0.00000000000E+00 0.  1.
    9000007    2    1    2  502    0 -0.72110056659E+03 -0.37756229253E+03 -0.15185415850E+04  0.17686752051E+04  0.39962998362E+03 0.  0.
    9000005    1    3    3    0    0 -0.28423989466E+03 -0.37416536501E+03 -0.79221502668E+03  0.92108505937E+03  0.99999687468E+00 0.  0.
          4    1    3    3  502    0 -0.43686067193E+03 -0.33969275219E+01 -0.72632655831E+03  0.84759014571E+03  0.00000000000E+00 0.  1.
   -9000007    1    1    2    0  501  0.72110056659E+03  0.37756229253E+03 -0.77878602837E+03  0.11954275343E+04  0.40000000000E+03 0.  1.
<mgrwt>
<rscale>  2 0.90685796E+03</rscale>
<asrwt>0</asrwt>
<pdfrwt beam="1">  1        2 0.40472539E+00 0.90685796E+03</pdfrwt>
<pdfrwt beam="2">  1       -2 0.51290397E-01 0.90685796E+03</pdfrwt>
<totfact> 0.10769433E+01</totfact>
</mgrwt>
</event>
<event>
 6    1  0.9205235E-004  0.4768815E+03  0.7818608E-02  0.1019996E+00
         -2   -1    0    0    0  501 -0.00000000000E+00  0.00000000000E+00  0.22864789822E+03  0.22864789822E+03  0.00000000000E+00 0.  1.
          2   -1    0    0  502    0  0.00000000000E+00 -0.00000000000E+00 -0.11104570925E+04  0.11104570925E+04  0.00000000000E+00 0. -1.
    9000007    2    1    2  502    0  0.23778107706E+03 -0.10371634952E+03 -0.65726605414E+03  0.81211680912E+03  0.40029754428E+03 0.  0.
    9000005    1    3    3    0    0  0.15289490816E+03 -0.15180524972E+03 -0.67882827745E+03  0.71220117737E+03  0.99999687468E+00 0.  0.
          4    1    3    3  502    0  0.84886168900E+02  0.48088900202E+02  0.21562223311E+02  0.99915631747E+02  0.00000000000E+00 0.  1.
   -9000007    1    1    2    0  501 -0.23778107706E+03  0.10371634952E+03 -0.22454314015E+03  0.52698818161E+03  0.40000000000E+03 0.  1.
<mgrwt>
<rscale>  2 0.47688149E+03</rscale>
<asrwt>0</asrwt>
<pdfrwt beam="1">  1        2 0.17083955E+00 0.47688149E+03</pdfrwt>
<pdfrwt beam="2">  1       -2 0.35176600E-01 0.47688149E+03</pdfrwt>
<totfact> 0.16852859E+02</totfact>
</mgrwt>
</event>
<event>
 6    1  0.9205235E-004  0.4608873E+03  0.7818608E-02  0.1024524E+00
          2   -1    0    0  502    0  0.00000000000E+00  0.00000000000E+00  0.84421417445E+03  0.84421417445E+03  0.00000000000E+00 0. -1.
         -2   -1    0    0    0  501 -0.00000000000E+00 -0.00000000000E+00 -0.44197650971E+03  0.44197650971E+03  0.00000000000E+00 0.  1.
    9000007    2    1    2  502    0 -0.17531750655E+03  0.14671379090E+03  0.62321202560E+03  0.77522020293E+03  0.40038977213E+03 0.  0.
    9000005    1    3    3    0    0 -0.67950107176E+02  0.27844528541E+03  0.44192384891E+03  0.52673207825E+03  0.99999687468E+00 0.  0.
          4    1    3    3  502    0 -0.10736739937E+03 -0.13173149451E+03  0.18128817670E+03  0.24848812468E+03  0.00000000000E+00 0.  1.
   -9000007    1    1    2    0  501  0.17531750655E+03 -0.14671379090E+03 -0.22097436087E+03  0.51097048124E+03  0.40000000000E+03 0.  1.
<mgrwt>
<rscale>  2 0.46088729E+03</rscale>
<asrwt>0</asrwt>
<pdfrwt beam="1">  1        2 0.12987910E+00 0.46088729E+03</pdfrwt>
<pdfrwt beam="2">  1       -2 0.67996386E-01 0.46088729E+03</pdfrwt>
<totfact> 0.66111322E+01</totfact>
</mgrwt>
</event>
<event>
 6    1  0.9205235E-004  0.5676610E+03  0.7818608E-02  0.9974868E-01
         -2   -1    0    0    0  501 -0.00000000000E+00  0.00000000000E+00  0.93475076776E+02  0.93475076776E+02  0.00000000000E+00 0.  1.
          2   -1    0    0  502    0  0.00000000000E+00 -0.00000000000E+00 -0.34764178680E+04  0.34764178680E+04  0.00000000000E+00 0. -1.
    9000007    2    1    2  502    0  0.36811039552E+03 -0.16362964754E+03 -0.15280805019E+04  0.16301006783E+04  0.39989783215E+03 0.  0.
    9000005    1    3    3    0    0  0.42666266402E+03 -0.10778463280E+03 -0.14583024945E+04  0.15232549758E+04  0.99999687468E+00 0.  0.
          4    1    3    3  502    0 -0.58552268501E+02 -0.55845014734E+02 -0.69778007475E+02  0.10684570251E+03  0.00000000000E+00 0.  1.
   -9000007    1    1    2    0  501 -0.36811039552E+03  0.16362964754E+03 -0.18548622893E+04  0.19397922665E+04  0.40000000000E+03 0. -1.
<mgrwt>
<rscale>  2 0.56766104E+03</rscale>
<asrwt>0</asrwt>
<pdfrwt beam="1">  1        2 0.53483352E+00 0.56766104E+03</pdfrwt>
<pdfrwt beam="2">  1       -2 0.14380781E-01 0.56766104E+03</pdfrwt>
<totfact> 0.35336054E+01</totfact>
</mgrwt>
</event>
<event>
 6    1  0.9205235E-004  0.4380819E+03  0.7818608E-02  0.1031337E+00
          1   -1    0    0  502    0  0.00000000000E+00  0.00000000000E+00  0.25496567722E+03  0.25496567722E+03  0.00000000000E+00 0.  1.
         -1   -1    0    0    0  501 -0.00000000000E+00 -0.00000000000E+00 -0.75272732975E+03  0.75272732975E+03  0.00000000000E+00 0. -1.
    9000007    2    1    2  502    0  0.10090700045E+03  0.15207617139E+03 -0.24931863193E+03  0.50268477028E+03  0.39651332058E+03 0.  0.
    9000005    1    3    3    0    0  0.22205324430E+02  0.21803448304E+03 -0.31281646120E+03  0.38195189569E+03  0.99999687468E+00 0.  0.
          4    1    3    3  502    0  0.78701676016E+02 -0.65958311646E+02  0.63497829275E+02  0.12073287459E+03  0.00000000000E+00 0.  1.
   -9000007    1    1    2    0  501 -0.10090700045E+03 -0.15207617139E+03 -0.24844302060E+03  0.50500823669E+03  0.40000000000E+03 0. -1.
<mgrwt>
<rscale>  2 0.43808192E+03</rscale>
<asrwt>0</asrwt>
<pdfrwt beam="1">  1        1 0.39225489E-01 0.43808192E+03</pdfrwt>
<pdfrwt beam="2">  1       -1 0.11580420E+00 0.43808192E+03</pdfrwt>
<totfact> 0.76460252E+01</totfact>
</mgrwt>
</event>
<event>
 6    1  0.9205235E-004  0.4452910E+03  0.7818608E-02  0.1029136E+00
         -1   -1    0    0    0  501 -0.00000000000E+00  0.00000000000E+00  0.31798654940E+03  0.31798654940E+03  0.00000000000E+00 0. -1.
          1   -1    0    0  502    0  0.00000000000E+00 -0.00000000000E+00 -0.85264713186E+03  0.85264713186E+03  0.00000000000E+00 0.  1.
    9000007    2    1    2  502    0 -0.40312986346E+02 -0.19331850390E+03  0.36411932459E+02  0.44598135212E+03  0.39821646977E+03 0.  0.
    9000005    1    3    3    0    0 -0.26169302961E+02 -0.27971589040E+03  0.13705615104E+03  0.31258790810E+03  0.99999687468E+00 0.  0.
          4    1    3    3  502    0 -0.14143683385E+02  0.86397386502E+02 -0.10064421858E+03  0.13339344402E+03  0.00000000000E+00 0.  1.
   -9000007    1    1    2    0  501  0.40312986346E+02  0.19331850390E+03 -0.57107251493E+03  0.72465232914E+03  0.40000000000E+03 0.  1.
<mgrwt>
<rscale>  2 0.44529101E+03</rscale>
<asrwt>0</asrwt>
<pdfrwt beam="1">  1        1 0.13117648E+00 0.44529101E+03</pdfrwt>
<pdfrwt beam="2">  1       -1 0.48921008E-01 0.44529101E+03</pdfrwt>
<totfact> 0.87744841E+01</totfact>
</mgrwt>
</event>
<event>
 6    1  0.9205235E-004  0.4166204E+03  0.7818608E-02  0.1038172E+00
         -1   -1    0    0    0  501 -0.00000000000E+00  0.00000000000E+00  0.39001411692E+03  0.39001411692E+03  0.00000000000E+00 0.  1.
          1   -1    0    0  502    0  0.00000000000E+00 -0.00000000000E+00 -0.44692761555E+03  0.44692761555E+03  0.00000000000E+00 0. -1.
    9000007    2    1    2  502    0 -0.11402006392E+03 -0.12958151058E+02 -0.13110528293E+01  0.41710828855E+03  0.40101012065E+03 0.  0.
    9000005    1    3    3    0    0 -0.16161643109E+03 -0.13862803230E+03  0.11266774051E+03  0.24089960956E+03  0.99999687468E+00 0.  0.
          4    1    3    3  502    0  0.47596367177E+02  0.12566988124E+03 -0.11397879334E+03  0.17620867899E+03  0.00000000000E+00 0.  1.
   -9000007    1    1    2    0  501  0.11402006392E+03  0.12958151058E+02 -0.55602445793E+02  0.41983344392E+03  0.40000000000E+03 0. -1.
<mgrwt>
<rscale>  2 0.41662042E+03</rscale>
<asrwt>0</asrwt>
<pdfrwt beam="1">  1        1 0.68758095E-01 0.41662042E+03</pdfrwt>
<pdfrwt beam="2">  1       -1 0.60002172E-01 0.41662042E+03</pdfrwt>
<totfact> 0.15137798E+02</totfact>
</mgrwt>
</event>
<event>
 6    1  0.9205235E-004  0.4644319E+03  0.7818608E-02  0.1023504E+00
         -2   -1    0    0    0  501 -0.00000000000E+00  0.00000000000E+00  0.68592843158E+03  0.68592843158E+03  0.00000000000E+00 0. -1.
          2   -1    0    0  502    0  0.00000000000E+00 -0.00000000000E+00 -0.34681804962E+03  0.34681804962E+03  0.00000000000E+00 0.  1.
    9000007    2    1    2  502    0 -0.19381861002E+03 -0.13480265450E+03  0.11814411178E+02  0.46453871837E+03  0.39989902638E+03 0.  0.
    9000005    1    3    3    0    0  0.13805084710E+02 -0.60113156105E+02  0.17794933354E+03  0.18833782733E+03  0.99999687468E+00 0.  0.
          4    1    3    3  502    0 -0.20762369473E+03 -0.74689498394E+02 -0.16613492236E+03  0.27620089104E+03  0.00000000000E+00 0.  1.
   -9000007    1    1    2    0  501  0.19381861002E+03  0.13480265450E+03  0.32729597078E+03  0.56820776283E+03  0.40000000000E+03 0. -1.
<mgrwt>
<rscale>  2 0.46443193E+03</rscale>
<asrwt>0</asrwt>
<pdfrwt beam="1">  1        2 0.53356623E-01 0.46443193E+03</pdfrwt>
<pdfrwt beam="2">  1       -2 0.10552745E+00 0.46443193E+03</pdfrwt>
<totfact> 0.69829998E+01</totfact>
</mgrwt>
</event>
<event>
 6    1  0.9205235E-004  0.4886936E+03  0.7818608E-02  0.1016773E+00
          2   -1    0    0  502    0  0.00000000000E+00  0.00000000000E+00  0.16527524151E+04  0.16527524151E+04  0.00000000000E+00 0. -1.
         -2   -1    0    0    0  501 -0.00000000000E+00 -0.00000000000E+00 -0.14579266830E+03  0.14579266830E+03  0.00000000000E+00 0.  1.
    9000007    2    1    2  502    0 -0.27328702198E+03 -0.64018833362E+02  0.83824120879E+03  0.97031281497E+03  0.40009302339E+03 0.  0.
    9000005    1    3    3    0    0 -0.16870319703E+03 -0.52537861004E+02  0.84653013631E+03  0.86477469158E+03  0.99999687468E+00 0.  0.
          4    1    3    3  502    0 -0.10458382495E+03 -0.11480972358E+02 -0.82889275178E+01  0.10553812338E+03  0.00000000000E+00 0.  1.
   -9000007    1    1    2    0  501  0.27328702198E+03  0.64018833362E+02  0.66871853804E+03  0.82823226847E+03  0.40000000000E+03 0.  1.
<mgrwt>
<rscale>  2 0.48869358E+03</rscale>
<asrwt>0</asrwt>
<pdfrwt beam="1">  1        2 0.25426959E+00 0.48869358E+03</pdfrwt>
<pdfrwt beam="2">  1       -2 0.22429642E-01 0.48869358E+03</pdfrwt>
<totfact> 0.18956253E+02</totfact>
</mgrwt>
</event>
<event>
 6    1  0.9205235E-004  0.4095316E+03  0.7818608E-02  0.1040528E+00
          2   -1    0    0  502    0  0.00000000000E+00  0.00000000000E+00  0.38348062851E+03  0.38348062851E+03  0.00000000000E+00 0.  1.
         -2   -1    0    0    0  501 -0.00000000000E+00 -0.00000000000E+00 -0.56203410241E+03  0.56203410241E+03  0.00000000000E+00 0. -1.
    9000007    2    1    2  502    0  0.37928931408E+01  0.88919250628E+02  0.13343393613E+03  0.43048350546E+03  0.39948768941E+03 0.  0.
    9000005    1    3    3    0    0 -0.16372258902E+03  0.14895674829E+03  0.12060858171E+03  0.25207266610E+03  0.99999687468E+00 0.  0.
          4    1    3    3  502    0  0.16751548216E+03 -0.60037497667E+02  0.12825354425E+02  0.17841083937E+03  0.00000000000E+00 0.  1.
   -9000007    1    1    2    0  501 -0.37928931408E+01 -0.88919250628E+02 -0.31198741003E+03  0.51503122545E+03  0.40000000000E+03 0. -1.
<mgrwt>
<rscale>  2 0.40953156E+03</rscale>
<asrwt>0</asrwt>
<pdfrwt beam="1">  1        2 0.58997020E-01 0.40953156E+03</pdfrwt>
<pdfrwt beam="2">  1       -2 0.86466785E-01 0.40953156E+03</pdfrwt>
<totfact> 0.99741425E+01</totfact>
</mgrwt>
</event>
<event>
 6    1  0.9205235E-004  0.5215652E+03  0.7818608E-02  0.1008298E+00
          1   -1    0    0  502    0  0.00000000000E+00  0.00000000000E+00  0.25892076096E+03  0.25892076096E+03  0.00000000000E+00 0.  1.
         -1   -1    0    0    0  501 -0.00000000000E+00 -0.00000000000E+00 -0.13912963399E+04  0.13912963399E+04  0.00000000000E+00 0. -1.
    9000007    2    1    2  502    0  0.33542457730E+02 -0.33496258782E+03 -0.97345480980E+03  0.11037915867E+04  0.39675756872E+03 0.  0.
    9000005    1    3    3    0    0 -0.71036136419E+02 -0.27388329361E+03 -0.93476966634E+03  0.97665424808E+03  0.99999687468E+00 0.  0.
          4    1    3    3  502    0  0.10457859415E+03 -0.61079294207E+02 -0.38685143461E+02  0.12713733857E+03  0.00000000000E+00 0.  1.
   -9000007    1    1    2    0  501 -0.33542457730E+02  0.33496258782E+03 -0.15892076913E+03  0.54642551420E+03  0.40000000000E+03 0.  1.
<mgrwt>
<rscale>  2 0.52156519E+03</rscale>
<asrwt>0</asrwt>
<pdfrwt beam="1">  1        1 0.39833962E-01 0.52156519E+03</pdfrwt>
<pdfrwt beam="2">  1       -1 0.21404560E+00 0.52156519E+03</pdfrwt>
<totfact> 0.13617190E+01</totfact>
</mgrwt>
</event>
<event>
 6    1  0.9205235E-004  0.4797385E+03  0.7818608E-02  0.1019207E+00
         -2   -1    0    0    0  501 -0.00000000000E+00  0.00000000000E+00  0.42017546942E+03  0.42017546942E+03  0.00000000000E+00 0. -1.
          2   -1    0    0  502    0  0.00000000000E+00 -0.00000000000E+00 -0.79890558831E+03  0.79890558831E+03  0.00000000000E+00 0.  1.
    9000007    2    1    2  502    0 -0.62975284202E+02  0.25694028302E+03  0.15235567466E+03  0.50351392910E+03  0.40041207491E+03 0.  0.
    9000005    1    3    3    0    0  0.11004099771E+03  0.20629107286E+03  0.20997333414E+03  0.31425281059E+03  0.99999687468E+00 0.  0.
          4    1    3    3  502    0 -0.17301628191E+03  0.50649210157E+02 -0.57617659479E+02  0.18926111851E+03  0.00000000000E+00 0.  1.
   -9000007    1    1    2    0  501  0.62975284202E+02 -0.25694028302E+03 -0.53108579355E+03  0.71556712863E+03  0.40000000000E+03 0.  1.
<mgrwt>
<rscale>  2 0.47973852E+03</rscale>
<asrwt>0</asrwt>
<pdfrwt beam="1">  1        2 0.12290855E+00 0.47973852E+03</pdfrwt>
<pdfrwt beam="2">  1       -2 0.64642380E-01 0.47973852E+03</pdfrwt>
<totfact> 0.79065898E+01</totfact>
</mgrwt>
</event>
<event>
 6    1  0.9205235E-004  0.6181115E+03  0.7818608E-02  0.9868527E-01
         -1   -1    0    0    0  501 -0.00000000000E+00  0.00000000000E+00  0.67030195071E+03  0.67030195071E+03  0.00000000000E+00 0. -1.
          1   -1    0    0  502    0  0.00000000000E+00 -0.00000000000E+00 -0.73977641781E+03  0.73977641781E+03  0.00000000000E+00 0.  1.
    9000007    2    1    2  502    0 -0.34343958880E+02  0.47059496423E+03 -0.37248679290E+03  0.72127099527E+03  0.39855527831E+03 0.  0.
    9000005    1    3    3    0    0  0.14013839085E+03  0.29908717946E+03 -0.79802411588E+02  0.33979601881E+03  0.99999687468E+00 0.  0.
          4    1    3    3  502    0 -0.17448234973E+03  0.17150778476E+03 -0.29268438131E+03  0.38147497646E+03  0.00000000000E+00 0.  1.
   -9000007    1    1    2    0  501  0.34343958880E+02 -0.47059496423E+03  0.30301232580E+03  0.68880737326E+03  0.40000000000E+03 0. -1.
<mgrwt>
<rscale>  2 0.61811152E+03</rscale>
<asrwt>0</asrwt>
<pdfrwt beam="1">  1        1 0.11381176E+00 0.61811152E+03</pdfrwt>
<pdfrwt beam="2">  1       -1 0.10312338E+00 0.61811152E+03</pdfrwt>
<totfact> 0.23174139E+01</totfact>
</mgrwt>
</event>
<event>
 6    1  0.9205235E-004  0.4554933E+03  0.7818608E-02  0.1026096E+00
          2   -1    0    0  502    0  0.00000000000E+00  0.00000000000E+00  0.17303100814E+04  0.17303100814E+04  0.00000000000E+00 0. -1.
         -2   -1    0    0    0  501 -0.00000000000E+00 -0.00000000000E+00 -0.12700849461E+03  0.12700849461E+03  0.00000000000E+00 0.  1.
    9000007    2    1    2  502    0 -0.20000648763E+03  0.84847473267E+02  0.58253900746E+03  0.73966123487E+03  0.40068111804E+03 0.  0.
    9000005    1    3    3    0    0  0.10908158893E+03 -0.10591141607E+02  0.26318931771E+03  0.28509749608E+03  0.99999687468E+00 0.  0.
          4    1    3    3  502    0 -0.30908807656E+03  0.95438614874E+02  0.31934968975E+03  0.45456373879E+03  0.00000000000E+00 0.  1.
   -9000007    1    1    2    0  501  0.20000648763E+03 -0.84847473267E+02  0.10207625794E+04  0.11176573412E+04  0.40000000000E+03 0. -1.
<mgrwt>
<rscale>  2 0.45549335E+03</rscale>
<asrwt>0</asrwt>
<pdfrwt beam="1">  1        2 0.26620153E+00 0.45549335E+03</pdfrwt>
<pdfrwt beam="2">  1       -2 0.19539770E-01 0.45549335E+03</pdfrwt>
<totfact> 0.22000077E+02</totfact>
</mgrwt>
</event>
<event>
 6    1  0.9205235E-004  0.4252366E+03  0.7818608E-02  0.1035375E+00
         -1   -1    0    0    0  501 -0.00000000000E+00  0.00000000000E+00  0.14249900781E+03  0.14249900781E+03  0.00000000000E+00 0. -1.
          1   -1    0    0  502    0  0.00000000000E+00 -0.00000000000E+00 -0.15478243894E+04  0.15478243894E+04  0.00000000000E+00 0.  1.
    9000007    2    1    2  502    0  0.14273646909E+03 -0.17179728934E+00 -0.10621164622E+04  0.11442775279E+04  0.40113084185E+03 0.  0.
    9000005    1    3    3    0    0  0.24282411392E+03 -0.11134231684E+03 -0.78731157376E+03  0.83139712292E+03  0.99999687468E+00 0.  0.
          4    1    3    3  502    0 -0.10008764484E+03  0.11117051955E+03 -0.27480488847E+03  0.31288040494E+03  0.00000000000E+00 0.  1.
   -9000007    1    1    2    0  501 -0.14273646909E+03  0.17179728934E+00 -0.34320891936E+03  0.54604586936E+03  0.40000000000E+03 0. -1.
<mgrwt>
<rscale>  2 0.42523657E+03</rscale>
<asrwt>0</asrwt>
<pdfrwt beam="1">  1        1 0.23812684E+00 0.42523657E+03</pdfrwt>
<pdfrwt beam="2">  1       -1 0.21922923E-01 0.42523657E+03</pdfrwt>
<totfact> 0.11284139E+02</totfact>
</mgrwt>
</event>
<event>
 6    1  0.9205235E-004  0.5751209E+03  0.7818608E-02  0.9958410E-01
         -2   -1    0    0    0  501 -0.00000000000E+00  0.00000000000E+00  0.19054945325E+03  0.19054945325E+03  0.00000000000E+00 0. -1.
          2   -1    0    0  502    0  0.00000000000E+00 -0.00000000000E+00 -0.17974716604E+04  0.17974716604E+04  0.00000000000E+00 0.  1.
    9000007    2    1    2  502    0  0.30621693582E+03 -0.28154071146E+03 -0.98483178312E+03  0.11394750161E+04  0.39430405437E+03 0.  0.
    9000005    1    3    3    0    0  0.37583234540E+03 -0.19516057807E+03 -0.57020165730E+03  0.71025948291E+03  0.99999687468E+00 0.  0.
          4    1    3    3  502    0 -0.69615409588E+02 -0.86380133388E+02 -0.41463012583E+03  0.42921553320E+03  0.00000000000E+00 0.  1.
   -9000007    1    1    2    0  501 -0.30621693582E+03  0.28154071146E+03 -0.62209042403E+03  0.84854609755E+03  0.40000000000E+03 0. -1.
<mgrwt>
<rscale>  2 0.57512094E+03</rscale>
<asrwt>0</asrwt>
<pdfrwt beam="1">  1        2 0.27653410E+00 0.57512094E+03</pdfrwt>
<pdfrwt beam="2">  1       -2 0.29315301E-01 0.57512094E+03</pdfrwt>
<totfact> 0.96675112E+01</totfact>
</mgrwt>
</event>
<event>
 6    1  0.9205235E-004  0.4072730E+03  0.7818608E-02  0.1041290E+00
          1   -1    0    0  502    0  0.00000000000E+00  0.00000000000E+00  0.23322042526E+04  0.23322042526E+04  0.00000000000E+00 0. -1.
         -1   -1    0    0    0  501 -0.00000000000E+00 -0.00000000000E+00 -0.81744158100E+02  0.81744158100E+02  0.00000000000E+00 0.  1.
    9000007    2    1    2  502    0 -0.17381818111E+02 -0.72020858693E+02  0.69127633359E+03  0.80256914684E+03  0.40095527730E+03 0.  0.
    9000005    1    3    3    0    0 -0.10660549202E+02 -0.10841253179E+02  0.72980014924E+03  0.72995920291E+03  0.99999687468E+00 0.  0.
          4    1    3    3  502    0 -0.67212689086E+01 -0.61179605514E+02 -0.38523815652E+02  0.72609943940E+02  0.00000000000E+00 0.  1.
   -9000007    1    1    2    0  501  0.17381818111E+02  0.72020858693E+02  0.15591837609E+04  0.16113792638E+04  0.40000000000E+03 0. -1.
<mgrwt>
<rscale>  2 0.40727295E+03</rscale>
<asrwt>0</asrwt>
<pdfrwt beam="1">  1        1 0.35880060E+00 0.40727295E+03</pdfrwt>
<pdfrwt beam="2">  1       -1 0.12576026E-01 0.40727295E+03</pdfrwt>
<totfact> 0.84515751E+01</totfact>
</mgrwt>
</event>
<event>
 6    1  0.9205235E-004  0.5093732E+03  0.7818608E-02  0.1011361E+00
         -4   -1    0    0    0  501 -0.00000000000E+00  0.00000000000E+00  0.10398692729E+04  0.10398692729E+04  0.00000000000E+00 0. -1.
          4   -1    0    0  502    0  0.00000000000E+00 -0.00000000000E+00 -0.36328361758E+03  0.36328361758E+03  0.00000000000E+00 0.  1.
    9000007    2    1    2  502    0 -0.28347484531E+03 -0.13942116343E+03  0.73075763621E+03  0.89058011301E+03  0.39916157891E+03 0.  0.
    9000005    1    3    3    0    0 -0.32534155295E+03  0.36415343545E+02  0.49602392220E+03  0.59431804172E+03  0.99999687468E+00 0.  0.
          4    1    3    3  502    0  0.41866707642E+02 -0.17583650698E+03  0.23473371401E+03  0.29626207129E+03  0.00000000000E+00 0.  1.
   -9000007    1    1    2    0  501  0.28347484531E+03  0.13942116343E+03 -0.54171980852E+02  0.51257277751E+03  0.40000000000E+03 0.  1.
<mgrwt>
<rscale>  2 0.50937316E+03</rscale>
<asrwt>0</asrwt>
<pdfrwt beam="1">  1        4 0.55889788E-01 0.50937316E+03</pdfrwt>
<pdfrwt beam="2">  1       -4 0.15997989E+00 0.50937316E+03</pdfrwt>
<totfact> 0.15001636E+00</totfact>
</mgrwt>
</event>
<event>
 6    1  0.9205235E-004  0.4416888E+03  0.7818608E-02  0.1030230E+00
         -1   -1    0    0    0  501 -0.00000000000E+00  0.00000000000E+00  0.39396528247E+03  0.39396528247E+03  0.00000000000E+00 0. -1.
          1   -1    0    0  502    0  0.00000000000E+00 -0.00000000000E+00 -0.93180533863E+03  0.93180533863E+03  0.00000000000E+00 0.  1.
    9000007    2    1    2  502    0  0.13955314959E+03  0.11883834187E+03  0.18428337173E+03  0.48015848887E+03  0.40372537730E+03 0.  0.
    9000005    1    3    3    0    0  0.19420954073E+03 -0.57553011482E+02  0.21224127464E+03  0.29338891168E+03  0.99999687468E+00 0.  0.
          4    1    3    3  502    0 -0.54656391139E+02  0.17639135335E+03 -0.27957902912E+02  0.18676957719E+03  0.00000000000E+00 0.  1.
   -9000007    1    1    2    0  501 -0.13955314959E+03 -0.11883834187E+03 -0.72212342789E+03  0.84561213223E+03  0.40000000000E+03 0.  1.
<mgrwt>
<rscale>  2 0.44168878E+03</rscale>
<asrwt>0</asrwt>
<pdfrwt beam="1">  1        1 0.14335467E+00 0.44168878E+03</pdfrwt>
<pdfrwt beam="2">  1       -1 0.60610043E-01 0.44168878E+03</pdfrwt>
<totfact> 0.50362711E+01</totfact>
</mgrwt>
</event>
<event>
 6    1  0.9205235E-004  0.5087481E+03  0.7818608E-02  0.1011520E+00
          1   -1    0    0  502    0  0.00000000000E+00  0.00000000000E+00  0.24958440129E+03  0.24958440129E+03  0.00000000000E+00 0.  1.
         -1   -1    0    0    0  501 -0.00000000000E+00 -0.00000000000E+00 -0.10404500739E+04  0.10404500739E+04  0.00000000000E+00 0. -1.
    9000007    2    1    2  502    0 -0.30971157067E+03  0.54117940191E+02 -0.43243620183E+03  0.66768273062E+03  0.39993643451E+03 0.  0.
    9000005    1    3    3    0    0 -0.13123601772E+03  0.17993400480E+03 -0.51484485111E+02  0.22858431843E+03  0.99999687468E+00 0.  0.
          4    1    3    3  502    0 -0.17847555294E+03 -0.12581606461E+03 -0.38095171672E+03  0.43909841219E+03  0.00000000000E+00 0.  1.
   -9000007    1    1    2    0  501  0.30971157067E+03 -0.54117940191E+02 -0.35842947078E+03  0.62235174458E+03  0.40000000000E+03 0.  1.
<mgrwt>
<rscale>  2 0.50874805E+03</rscale>
<asrwt>0</asrwt>
<pdfrwt beam="1">  1        1 0.38397601E-01 0.50874805E+03</pdfrwt>
<pdfrwt beam="2">  1       -1 0.16006924E+00 0.50874805E+03</pdfrwt>
<totfact> 0.34104133E+01</totfact>
</mgrwt>
</event>
<event>
 6    1  0.9205235E-004  0.4940684E+03  0.7818608E-02  0.1015339E+00
          2   -1    0    0  502    0  0.00000000000E+00  0.00000000000E+00  0.25587019830E+04  0.25587019830E+04  0.00000000000E+00 0. -1.
         -2   -1    0    0    0  501 -0.00000000000E+00 -0.00000000000E+00 -0.95667903557E+02  0.95667903557E+02  0.00000000000E+00 0.  1.
    9000007    2    1    2  502    0  0.28418823129E+03  0.60437363889E+02  0.11606811377E+04  0.12613376505E+04  0.39921966317E+03 0.  0.
    9000005    1    3    3    0    0  0.37642708571E+03  0.72548475173E+02  0.77547280128E+03  0.86505473678E+03  0.99999687468E+00 0.  0.
          4    1    3    3  502    0 -0.92238854418E+02 -0.12111111285E+02  0.38520833640E+03  0.39628291373E+03  0.00000000000E+00 0.  1.
   -9000007    1    1    2    0  501 -0.28418823129E+03 -0.60437363889E+02  0.13023529418E+04  0.13930322361E+04  0.40000000000E+03 0.  1.
<mgrwt>
<rscale>  2 0.49406841E+03</rscale>
<asrwt>0</asrwt>
<pdfrwt beam="1">  1        2 0.39364641E+00 0.49406841E+03</pdfrwt>
<pdfrwt beam="2">  1       -2 0.14718141E-01 0.49406841E+03</pdfrwt>
<totfact> 0.12545388E+02</totfact>
</mgrwt>
</event>
<event>
 6    1  0.9205235E-004  0.5112432E+03  0.7818608E-02  0.1010885E+00
          1   -1    0    0  502    0  0.00000000000E+00  0.00000000000E+00  0.11347602807E+04  0.11347602807E+04  0.00000000000E+00 0. -1.
         -1   -1    0    0    0  501 -0.00000000000E+00 -0.00000000000E+00 -0.28278072210E+03  0.28278072210E+03  0.00000000000E+00 0.  1.
    9000007    2    1    2  502    0  0.31300064940E+03  0.57870496918E+02  0.73127369822E+03  0.89229029537E+03  0.40012791525E+03 0.  0.
    9000005    1    3    3    0    0  0.19796202871E+03 -0.13928058796E+03  0.54965872714E+03  0.60059450822E+03  0.99999687468E+00 0.  0.
          4    1    3    3  502    0  0.11503862069E+03  0.19715108488E+03  0.18161497108E+03  0.29169578715E+03  0.00000000000E+00 0.  1.
   -9000007    1    1    2    0  501 -0.31300064940E+03 -0.57870496918E+02  0.12070586040E+03  0.52525070745E+03  0.40000000000E+03 0.  1.
<mgrwt>
<rscale>  2 0.51124316E+03</rscale>
<asrwt>0</asrwt>
<pdfrwt beam="1">  1        1 0.17457850E+00 0.51124316E+03</pdfrwt>
<pdfrwt beam="2">  1       -1 0.43504727E-01 0.51124316E+03</pdfrwt>
<totfact> 0.65500194E+01</totfact>
</mgrwt>
</event>
<event>
 6    1  0.9205235E-004  0.4172427E+03  0.7818608E-02  0.1037967E+00
          2   -1    0    0  502    0  0.00000000000E+00  0.00000000000E+00  0.10882719924E+04  0.10882719924E+04  0.00000000000E+00 0.  1.
         -2   -1    0    0    0  501 -0.00000000000E+00 -0.00000000000E+00 -0.18788792956E+03  0.18788792956E+03  0.00000000000E+00 0. -1.
    9000007    2    1    2  502    0  0.11708465815E+03  0.22877266835E+02  0.69599626269E+03  0.81139486369E+03  0.39964814605E+03 0.  0.
    9000005    1    3    3    0    0  0.16093399046E+03  0.15942813431E+03  0.59307836549E+03  0.63487008663E+03  0.99999687468E+00 0.  0.
          4    1    3    3  502    0 -0.43849332311E+02 -0.13655086748E+03  0.10291789720E+03  0.17652477706E+03  0.00000000000E+00 0.  1.
   -9000007    1    1    2    0  501 -0.11708465815E+03 -0.22877266835E+02  0.20438780012E+03  0.46476505823E+03  0.40000000000E+03 0. -1.
<mgrwt>
<rscale>  2 0.41724268E+03</rscale>
<asrwt>0</asrwt>
<pdfrwt beam="1">  1        2 0.16742646E+00 0.41724268E+03</pdfrwt>
<pdfrwt beam="2">  1       -2 0.28905836E-01 0.41724268E+03</pdfrwt>
<totfact> 0.25184783E+02</totfact>
</mgrwt>
</event>
<event>
 6    1  0.9205235E-004  0.5417796E+03  0.7818608E-02  0.1003415E+00
         -1   -1    0    0    0  501 -0.00000000000E+00  0.00000000000E+00  0.34799854269E+03  0.34799854269E+03  0.00000000000E+00 0.  1.
          1   -1    0    0  502    0  0.00000000000E+00 -0.00000000000E+00 -0.95983921690E+03  0.95983921690E+03  0.00000000000E+00 0. -1.
    9000007    2    1    2  502    0  0.30507366972E+03  0.19941646959E+03 -0.53392789311E+03  0.76111363011E+03  0.40171891989E+03 0.  0.
    9000005    1    3    3    0    0  0.29976594729E+03  0.96934570523E+02 -0.57088035100E+03  0.65204394735E+03  0.99999687468E+00 0.  0.
          4    1    3    3  502    0  0.53077224333E+01  0.10248189906E+03  0.36952457897E+02  0.10906968276E+03  0.00000000000E+00 0.  1.
   -9000007    1    1    2    0  501 -0.30507366972E+03 -0.19941646959E+03 -0.77912781106E+02  0.54672412948E+03  0.40000000000E+03 0. -1.
<mgrwt>
<rscale>  2 0.54177958E+03</rscale>
<asrwt>0</asrwt>
<pdfrwt beam="1">  1        1 0.14766757E+00 0.54177958E+03</pdfrwt>
<pdfrwt beam="2">  1       -1 0.53538238E-01 0.54177958E+03</pdfrwt>
<totfact> 0.59953206E+01</totfact>
</mgrwt>
</event>
<event>
 6    1  0.9205235E-004  0.4183437E+03  0.7818608E-02  0.1037607E+00
         -1   -1    0    0    0  501 -0.00000000000E+00  0.00000000000E+00  0.47157375941E+03  0.47157375941E+03  0.00000000000E+00 0. -1.
          1   -1    0    0  502    0  0.00000000000E+00 -0.00000000000E+00 -0.38969793946E+03  0.38969793946E+03  0.00000000000E+00 0.  1.
    9000007    2    1    2  502    0  0.11096225654E+03 -0.54357775066E+02  0.13492898986E+03  0.43927403428E+03  0.39936005659E+03 0.  0.
    9000005    1    3    3    0    0 -0.39085978820E+02  0.72742028483E+02  0.21242294614E+03  0.22791144001E+03  0.99999687468E+00 0.  0.
          4    1    3    3  502    0  0.15004823536E+03 -0.12709980355E+03 -0.77493956275E+02  0.21136259427E+03  0.00000000000E+00 0.  1.
   -9000007    1    1    2    0  501 -0.11096225654E+03  0.54357775066E+02 -0.53053169914E+02  0.42199766460E+03  0.40000000000E+03 0.  1.
<mgrwt>
<rscale>  2 0.41834368E+03</rscale>
<asrwt>0</asrwt>
<pdfrwt beam="1">  1        1 0.59953529E-01 0.41834368E+03</pdfrwt>
<pdfrwt beam="2">  1       -1 0.72549809E-01 0.41834368E+03</pdfrwt>
<totfact> 0.12407147E+02</totfact>
</mgrwt>
</event>
<event>
 6    1  0.9205235E-004  0.4065986E+03  0.7818608E-02  0.1041518E+00
         -2   -1    0    0    0  501 -0.00000000000E+00  0.00000000000E+00  0.13834552999E+03  0.13834552999E+03  0.00000000000E+00 0. -1.
          2   -1    0    0  502    0  0.00000000000E+00 -0.00000000000E+00 -0.16473884038E+04  0.16473884038E+04  0.00000000000E+00 0.  1.
    9000007    2    1    2  502    0  0.71755946270E+02  0.99091407330E+01 -0.12225387260E+04  0.12884093581E+04  0.40018824383E+03 0.  0.
    9000005    1    3    3    0    0  0.15567729746E+03 -0.92720114382E+02 -0.26075733826E+03  0.31753398244E+03  0.99999687468E+00 0.  0.
          4    1    3    3  502    0 -0.83921351195E+02  0.10262925512E+03 -0.96178138773E+03  0.97087537561E+03  0.00000000000E+00 0.  1.
   -9000007    1    1    2    0  501 -0.71755946270E+02 -0.99091407330E+01 -0.28650414782E+03  0.49732457572E+03  0.40000000000E+03 0. -1.
<mgrwt>
<rscale>  2 0.40659858E+03</rscale>
<asrwt>0</asrwt>
<pdfrwt beam="1">  1        2 0.25344436E+00 0.40659858E+03</pdfrwt>
<pdfrwt beam="2">  1       -2 0.21283929E-01 0.40659858E+03</pdfrwt>
<totfact> 0.21151848E+02</totfact>
</mgrwt>
</event>
<event>
 6    1  0.9205235E-004  0.4302732E+03  0.7818608E-02  0.1033774E+00
          2   -1    0    0  502    0  0.00000000000E+00  0.00000000000E+00  0.29610263744E+04  0.29610263744E+04  0.00000000000E+00 0. -1.
         -2   -1    0    0    0  501 -0.00000000000E+00 -0.00000000000E+00 -0.63489480173E+02  0.63489480173E+02  0.00000000000E+00 0.  1.
    9000007    2    1    2  502    0  0.13944023679E+03  0.88317587148E+02  0.12543941405E+04  0.13253508581E+04  0.39472352568E+03 0.  0.
    9000005    1    3    3    0    0  0.22205451167E+03  0.19070466840E+03  0.78225448069E+03  0.83522425088E+03  0.99999687468E+00 0.  0.
          4    1    3    3  502    0 -0.82614274879E+02 -0.10238708125E+03  0.47213965977E+03  0.49012660726E+03  0.00000000000E+00 0.  1.
   -9000007    1    1    2    0  501 -0.13944023679E+03 -0.88317587148E+02  0.16431427538E+04  0.16991649964E+04  0.40000000000E+03 0.  1.
<mgrwt>
<rscale>  2 0.43027321E+03</rscale>
<asrwt>0</asrwt>
<pdfrwt beam="1">  1        2 0.45554241E+00 0.43027321E+03</pdfrwt>
<pdfrwt beam="2">  1       -2 0.97676146E-02 0.43027321E+03</pdfrwt>
<totfact> 0.14549163E+02</totfact>
</mgrwt>
</event>
<event>
 6    1  0.9205235E-004  0.6289337E+03  0.7818608E-02  0.9847132E-01
         -2   -1    0    0    0  501 -0.00000000000E+00  0.00000000000E+00  0.66570210033E+03  0.66570210033E+03  0.00000000000E+00 0. -1.
          2   -1    0    0  502    0  0.00000000000E+00 -0.00000000000E+00 -0.60004682295E+03  0.60004682295E+03  0.00000000000E+00 0.  1.
    9000007    2    1    2  502    0  0.30510303088E+03 -0.37744979599E+03 -0.29665037804E+02  0.62963401979E+03  0.40000347057E+03 0.  0.
    9000005    1    3    3    0    0 -0.80443723422E+02 -0.73312912842E+02  0.68839470598E+02  0.12878605722E+03  0.99999687468E+00 0.  0.
          4    1    3    3  502    0  0.38554675430E+03 -0.30413688315E+03 -0.98504508402E+02  0.50084796258E+03  0.00000000000E+00 0.  1.
   -9000007    1    1    2    0  501 -0.30510303088E+03  0.37744979599E+03  0.95320315187E+02  0.63611490348E+03  0.40000000000E+03 0. -1.
<mgrwt>
<rscale>  2 0.62893370E+03</rscale>
<asrwt>0</asrwt>
<pdfrwt beam="1">  1        2 0.92314896E-01 0.62893370E+03</pdfrwt>
<pdfrwt beam="2">  1       -2 0.10241571E+00 0.62893370E+03</pdfrwt>
<totfact> 0.39575200E+01</totfact>
</mgrwt>
</event>
<event>
 6    1  0.9205235E-004  0.4046726E+03  0.7818608E-02  0.1042174E+00
         -2   -1    0    0    0  501 -0.00000000000E+00  0.00000000000E+00  0.55857118425E+02  0.55857118425E+02  0.00000000000E+00 0. -1.
          2   -1    0    0  502    0  0.00000000000E+00 -0.00000000000E+00 -0.29337016731E+04  0.29337016731E+04  0.00000000000E+00 0.  1.
    9000007    2    1    2  502    0 -0.55130687873E+02  0.26914778186E+02 -0.14004999021E+04  0.14577915048E+04  0.39999037214E+03 0.  0.
    9000005    1    3    3    0    0  0.36403561059E+02 -0.89081877912E+02 -0.69733527725E+02  0.11884681364E+03  0.99999687468E+00 0.  0.
          4    1    3    3  502    0 -0.91534248932E+02  0.11599665610E+03 -0.13307663744E+04  0.13389446912E+04  0.00000000000E+00 0.  1.
   -9000007    1    1    2    0  501  0.55130687873E+02 -0.26914778186E+02 -0.14773446526E+04  0.15317672867E+04  0.40000000000E+03 0.  1.
<mgrwt>
<rscale>  2 0.40467264E+03</rscale>
<asrwt>0</asrwt>
<pdfrwt beam="1">  1        2 0.45133877E+00 0.40467264E+03</pdfrwt>
<pdfrwt beam="2">  1       -2 0.85934019E-02 0.40467264E+03</pdfrwt>
<totfact> 0.18637947E+02</totfact>
</mgrwt>
</event>
<event>
 6    1  0.9205235E-004  0.4567571E+03  0.7818608E-02  0.1025726E+00
          2   -1    0    0  502    0  0.00000000000E+00  0.00000000000E+00  0.10486141725E+04  0.10486141725E+04  0.00000000000E+00 0. -1.
         -2   -1    0    0    0  501 -0.00000000000E+00 -0.00000000000E+00 -0.20122594720E+03  0.20122594720E+03  0.00000000000E+00 0.  1.
    9000007    2    1    2  502    0 -0.48422706820E+02  0.21476275015E+03  0.49024109020E+03  0.67016618248E+03  0.40039803724E+03 0.  0.
    9000005    1    3    3    0    0  0.83446091908E+02  0.18048049327E+03  0.49540127332E+03  0.53381633574E+03  0.99999687468E+00 0.  0.
          4    1    3    3  502    0 -0.13186879873E+03  0.34282256874E+02 -0.51601831158E+01  0.13634984673E+03  0.00000000000E+00 0.  1.
   -9000007    1    1    2    0  501  0.48422706820E+02 -0.21476275015E+03  0.35714713507E+03  0.57967393721E+03  0.40000000000E+03 0.  1.
<mgrwt>
<rscale>  2 0.45675708E+03</rscale>
<asrwt>0</asrwt>
<pdfrwt beam="1">  1        2 0.16132525E+00 0.45675708E+03</pdfrwt>
<pdfrwt beam="2">  1       -2 0.30957839E-01 0.45675708E+03</pdfrwt>
<totfact> 0.23379820E+02</totfact>
</mgrwt>
</event>
<event>
 6    1  0.9205235E-004  0.4084398E+03  0.7818608E-02  0.1040896E+00
          4   -1    0    0  502    0  0.00000000000E+00  0.00000000000E+00  0.29119264455E+03  0.29119264455E+03  0.00000000000E+00 0.  1.
         -4   -1    0    0    0  501 -0.00000000000E+00 -0.00000000000E+00 -0.64496188718E+03  0.64496188718E+03  0.00000000000E+00 0. -1.
    9000007    2    1    2  502    0  0.52195665500E+02  0.64339119355E+02 -0.20401048375E+02  0.40889912614E+03  0.39989796550E+03 0.  0.
    9000005    1    3    3    0    0  0.27045163039E+02  0.21469147272E+03 -0.98341220311E+02  0.23768858809E+03  0.99999687468E+00 0.  0.
          4    1    3    3  502    0  0.25150502461E+02 -0.15035235337E+03  0.77940171935E+02  0.17121053805E+03  0.00000000000E+00 0.  1.
   -9000007    1    1    2    0  501 -0.52195665500E+02 -0.64339119355E+02 -0.33336819426E+03  0.52725540559E+03  0.40000000000E+03 0. -1.
<mgrwt>
<rscale>  2 0.40843983E+03</rscale>
<asrwt>0</asrwt>
<pdfrwt beam="1">  1        4 0.44798869E-01 0.40843983E+03</pdfrwt>
<pdfrwt beam="2">  1       -4 0.99224905E-01 0.40843983E+03</pdfrwt>
<totfact> 0.78555478E+00</totfact>
</mgrwt>
</event>
<event>
 6    1  0.9205235E-004  0.5445082E+03  0.7818608E-02  0.1002773E+00
         -2   -1    0    0    0  501 -0.00000000000E+00  0.00000000000E+00  0.37039044744E+03  0.37039044744E+03  0.00000000000E+00 0. -1.
          2   -1    0    0  502    0  0.00000000000E+00 -0.00000000000E+00 -0.11605605743E+04  0.11605605743E+04  0.00000000000E+00 0.  1.
    9000007    2    1    2  502    0  0.32509625221E+03  0.17607624788E+03 -0.82137449018E+03  0.98536497853E+03  0.39949677037E+03 0.  0.
    9000005    1    3    3    0    0  0.56234609618E+02 -0.30620829882E+02  0.28673105422E+02  0.70164902265E+02  0.99999687468E+00 0.  0.
          4    1    3    3  502    0  0.26886164259E+03  0.20669707776E+03 -0.85004759560E+03  0.91520007626E+03  0.00000000000E+00 0.  1.
   -9000007    1    1    2    0  501 -0.32509625221E+03 -0.17607624788E+03  0.31204363301E+02  0.54558604322E+03  0.40000000000E+03 0. -1.
<mgrwt>
<rscale>  2 0.54450820E+03</rscale>
<asrwt>0</asrwt>
<pdfrwt beam="1">  1        2 0.17854778E+00 0.54450820E+03</pdfrwt>
<pdfrwt beam="2">  1       -2 0.56983146E-01 0.54450820E+03</pdfrwt>
<totfact> 0.60009481E+01</totfact>
</mgrwt>
</event>
<event>
 6    1  0.9205235E-004  0.4209828E+03  0.7818608E-02  0.1036747E+00
          2   -1    0    0  502    0  0.00000000000E+00  0.00000000000E+00  0.44447388223E+03  0.44447388223E+03  0.00000000000E+00 0.  1.
         -2   -1    0    0    0  501 -0.00000000000E+00 -0.00000000000E+00 -0.43968970248E+03  0.43968970248E+03  0.00000000000E+00 0. -1.
    9000007    2    1    2  502    0 -0.12972335357E+03  0.14566692925E+02 -0.13253091584E+03  0.44156244093E+03  0.40046548988E+03 0.  0.
    9000005    1    3    3    0    0 -0.50541695653E+02  0.12690706146E+03 -0.23384056026E+03  0.27081778535E+03  0.99999687468E+00 0.  0.
          4    1    3    3  502    0 -0.79181657914E+02 -0.11234036854E+03  0.10130964442E+03  0.17074465557E+03  0.00000000000E+00 0.  1.
   -9000007    1    1    2    0  501  0.12972335357E+03 -0.14566692925E+02  0.13731509559E+03  0.44260114378E+03  0.40000000000E+03 0. -1.
<mgrwt>
<rscale>  2 0.42098283E+03</rscale>
<asrwt>0</asrwt>
<pdfrwt beam="1">  1        2 0.68380598E-01 0.42098283E+03</pdfrwt>
<pdfrwt beam="2">  1       -2 0.67644569E-01 0.42098283E+03</pdfrwt>
<totfact> 0.14537146E+02</totfact>
</mgrwt>
</event>
<event>
 6    1  0.9205235E-004  0.5065154E+03  0.7818608E-02  0.1012092E+00
          1   -1    0    0  502    0  0.00000000000E+00  0.00000000000E+00  0.21037423860E+04  0.21037423860E+04  0.00000000000E+00 0.  1.
         -1   -1    0    0    0  501 -0.00000000000E+00 -0.00000000000E+00 -0.14383249316E+03  0.14383249316E+03  0.00000000000E+00 0. -1.
    9000007    2    1    2  502    0 -0.16291096200E+00 -0.31083494656E+03  0.14181590941E+04  0.15058793092E+04  0.39984858034E+03 0.  0.
    9000005    1    3    3    0    0  0.40774867912E+02 -0.37894699272E+03  0.84173799234E+03  0.92400609353E+03  0.99999687468E+00 0.  0.
          4    1    3    3  502    0 -0.40937778874E+02  0.68112046164E+02  0.57642110174E+03  0.58187321566E+03  0.00000000000E+00 0.  1.
   -9000007    1    1    2    0  501  0.16291096200E+00  0.31083494656E+03  0.54175079877E+03  0.74169556997E+03  0.40000000000E+03 0. -1.
<mgrwt>
<rscale>  2 0.50651538E+03</rscale>
<asrwt>0</asrwt>
<pdfrwt beam="1">  1        1 0.32365265E+00 0.50651538E+03</pdfrwt>
<pdfrwt beam="2">  1       -1 0.22128077E-01 0.50651538E+03</pdfrwt>
<totfact> 0.46908618E+01</totfact>
</mgrwt>
</event>
<event>
 6    1  0.9205235E-004  0.4648489E+03  0.7818608E-02  0.1023384E+00
          2   -1    0    0  502    0  0.00000000000E+00  0.00000000000E+00  0.44635170873E+03  0.44635170873E+03  0.00000000000E+00 0.  1.
         -2   -1    0    0    0  501 -0.00000000000E+00 -0.00000000000E+00 -0.79959085985E+03  0.79959085985E+03  0.00000000000E+00 0. -1.
    9000007    2    1    2  502    0 -0.23665336499E+03  0.20826720454E+02 -0.56783984943E+03  0.73360281103E+03  0.39911454786E+03 0.  0.
    9000005    1    3    3    0    0 -0.33692544149E+03  0.76998169319E+02 -0.38245468751E+03  0.51548041592E+03  0.99999687468E+00 0.  0.
          4    1    3    3  502    0  0.10027207650E+03 -0.56171448864E+02 -0.18538516191E+03  0.21812239511E+03  0.00000000000E+00 0.  1.
   -9000007    1    1    2    0  501  0.23665336499E+03 -0.20826720454E+02  0.21460069830E+03  0.51233975754E+03  0.40000000000E+03 0.  1.
<mgrwt>
<rscale>  2 0.46484889E+03</rscale>
<asrwt>0</asrwt>
<pdfrwt beam="1">  1        2 0.68669495E-01 0.46484889E+03</pdfrwt>
<pdfrwt beam="2">  1       -2 0.12301398E+00 0.46484889E+03</pdfrwt>
<totfact> 0.36370714E+01</totfact>
</mgrwt>
</event>
<event>
 6    1  0.9205235E-004  0.5056784E+03  0.7818608E-02  0.1012307E+00
         -2   -1    0    0    0  501 -0.00000000000E+00  0.00000000000E+00  0.68902529799E+03  0.68902529799E+03  0.00000000000E+00 0. -1.
          2   -1    0    0  502    0  0.00000000000E+00 -0.00000000000E+00 -0.40338384012E+03  0.40338384012E+03  0.00000000000E+00 0.  1.
    9000007    2    1    2  502    0  0.68000752424E+01  0.30901147086E+03 -0.11609011130E+02  0.50598593644E+03  0.40044059308E+03 0.  0.
    9000005    1    3    3    0    0  0.34040223452E+02 -0.94995645576E+02 -0.37646595405E+01  0.10098555415E+03  0.99999687468E+00 0.  0.
          4    1    3    3  502    0 -0.27240148209E+02  0.40400711644E+03 -0.78443515897E+01  0.40500038229E+03  0.00000000000E+00 0.  1.
   -9000007    1    1    2    0  501 -0.68000752424E+01 -0.30901147086E+03  0.29725046900E+03  0.58642320168E+03  0.40000000000E+03 0. -1.
<mgrwt>
<rscale>  2 0.50567836E+03</rscale>
<asrwt>0</asrwt>
<pdfrwt beam="1">  1        2 0.62059052E-01 0.50567836E+03</pdfrwt>
<pdfrwt beam="2">  1       -2 0.10600389E+00 0.50567836E+03</pdfrwt>
<totfact> 0.58226890E+01</totfact>
</mgrwt>
</event>
<event>
 6    1  0.9205235E-004  0.5679140E+03  0.7818608E-02  0.9974305E-01
         -1   -1    0    0    0  501 -0.00000000000E+00  0.00000000000E+00  0.14629076512E+04  0.14629076512E+04  0.00000000000E+00 0.  1.
          1   -1    0    0  502    0  0.00000000000E+00 -0.00000000000E+00 -0.22063107799E+03  0.22063107799E+03  0.00000000000E+00 0. -1.
    9000007    2    1    2  502    0  0.28320043208E+03 -0.28652969190E+03  0.59856669897E+03  0.82524731525E+03  0.40056121773E+03 0.  0.
    9000005    1    3    3    0    0  0.21701971978E+03 -0.15945715847E+03  0.70908521308E+02  0.27848368453E+03  0.99999687468E+00 0.  0.
          4    1    3    3  502    0  0.66180712302E+02 -0.12707253343E+03  0.52765817766E+03  0.54676363073E+03  0.00000000000E+00 0.  1.
   -9000007    1    1    2    0  501 -0.28320043208E+03  0.28652969190E+03  0.64370987428E+03  0.85829141398E+03  0.40000000000E+03 0.  1.
<mgrwt>
<rscale>  2 0.56791400E+03</rscale>
<asrwt>0</asrwt>
<pdfrwt beam="1">  1        1 0.33943244E-01 0.56791400E+03</pdfrwt>
<pdfrwt beam="2">  1       -1 0.22506271E+00 0.56791400E+03</pdfrwt>
<totfact> 0.14049295E+01</totfact>
</mgrwt>
</event>
<event>
 6    1  0.9205235E-004  0.4200642E+03  0.7818608E-02  0.1037045E+00
         -1   -1    0    0    0  501 -0.00000000000E+00  0.00000000000E+00  0.79309349867E+03  0.79309349867E+03  0.00000000000E+00 0.  1.
          1   -1    0    0  502    0  0.00000000000E+00 -0.00000000000E+00 -0.29587954526E+03  0.29587954526E+03  0.00000000000E+00 0. -1.
    9000007    2    1    2  502    0  0.12186866411E+03 -0.33952467387E+02 -0.22330584384E+02  0.42119219060E+03  0.40112275564E+03 0.  0.
    9000005    1    3    3    0    0  0.10214575469E+03  0.17184606488E+03  0.42779277738E+02  0.20444043586E+03  0.99999687468E+00 0.  0.
          4    1    3    3  502    0  0.19722909422E+02 -0.20579853227E+03 -0.65109862122E+02  0.21675175474E+03  0.00000000000E+00 0.  1.
   -9000007    1    1    2    0  501 -0.12186866411E+03  0.33952467387E+02  0.51954453779E+03  0.66778085334E+03  0.40000000000E+03 0.  1.
<mgrwt>
<rscale>  2 0.42006416E+03</rscale>
<asrwt>0</asrwt>
<pdfrwt beam="1">  1        1 0.45519930E-01 0.42006416E+03</pdfrwt>
<pdfrwt beam="2">  1       -1 0.12201438E+00 0.42006416E+03</pdfrwt>
<totfact> 0.55894296E+01</totfact>
</mgrwt>
</event>
<event>
 6    1  0.9205235E-004  0.4750999E+03  0.7818608E-02  0.1020491E+00
          2   -1    0    0  502    0  0.00000000000E+00  0.00000000000E+00  0.22616579038E+04  0.22616579038E+04  0.00000000000E+00 0. -1.
         -2   -1    0    0    0  501 -0.00000000000E+00 -0.00000000000E+00 -0.10572084204E+03  0.10572084204E+03  0.00000000000E+00 0.  1.
    9000007    2    1    2  502    0  0.17119146079E+03 -0.18802517091E+03  0.13604049804E+04  0.14413489009E+04  0.40264744189E+03 0.  0.
    9000005    1    3    3    0    0  0.85594827643E+02 -0.31105862456E+03  0.10087613171E+04  0.10590960001E+04  0.99999687468E+00 0.  0.
          4    1    3    3  502    0  0.85596633150E+02  0.12303345365E+03  0.35164366325E+03  0.38225290087E+03  0.00000000000E+00 0.  1.
   -9000007    1    1    2    0  501 -0.17119146079E+03  0.18802517091E+03  0.79553208135E+03  0.92602984488E+03  0.40000000000E+03 0.  1.
<mgrwt>
<rscale>  2 0.47509995E+03</rscale>
<asrwt>0</asrwt>
<pdfrwt beam="1">  1        2 0.34794733E+00 0.47509995E+03</pdfrwt>
<pdfrwt beam="2">  1       -2 0.16264747E-01 0.47509995E+03</pdfrwt>
<totfact> 0.15536242E+02</totfact>
</mgrwt>
</event>
<event>
 6    1  0.9205235E-004  0.7707580E+03  0.7818608E-02  0.9603336E-01
          1   -1    0    0  502    0  0.00000000000E+00  0.00000000000E+00  0.71301073895E+03  0.71301073895E+03  0.00000000000E+00 0. -1.
         -1   -1    0    0    0  501 -0.00000000000E+00 -0.00000000000E+00 -0.84121798818E+03  0.84121798818E+03  0.00000000000E+00 0.  1.
    9000007    2    1    2  502    0  0.17942602627E+03  0.63231078033E+03  0.11726930640E+02  0.77218512443E+03  0.40511939433E+03 0.  0.
    9000005    1    3    3    0    0 -0.79472092609E+02 -0.94809203921E+01  0.26783768803E-02  0.80041872517E+02  0.99999687468E+00 0.  0.
          4    1    3    3  502    0  0.25889811888E+03  0.64179170072E+03  0.11724252263E+02  0.69214325191E+03  0.00000000000E+00 0.  1.
   -9000007    1    1    2    0  501 -0.17942602627E+03 -0.63231078033E+03 -0.13993417987E+03  0.78204360270E+03  0.40000000000E+03 0. -1.
<mgrwt>
<rscale>  2 0.77075801E+03</rscale>
<asrwt>0</asrwt>
<pdfrwt beam="1">  1        1 0.10969396E+00 0.77075801E+03</pdfrwt>
<pdfrwt beam="2">  1       -1 0.12941815E+00 0.77075801E+03</pdfrwt>
<totfact> 0.13943593E+01</totfact>
</mgrwt>
</event>
<event>
 6    1  0.9205235E-004  0.4042388E+03  0.7818608E-02  0.1042322E+00
         -2   -1    0    0    0  501 -0.00000000000E+00  0.00000000000E+00  0.42926503567E+03  0.42926503567E+03  0.00000000000E+00 0. -1.
          2   -1    0    0  502    0  0.00000000000E+00 -0.00000000000E+00 -0.39117320985E+03  0.39117320985E+03  0.00000000000E+00 0.  1.
    9000007    2    1    2  502    0  0.51734311996E+01 -0.30606451392E+02 -0.47957167446E+02  0.41011160917E+03  0.40611343589E+03 0.  0.
    9000005    1    3    3    0    0  0.52728461610E+02 -0.20412594250E+03 -0.83419135804E+02  0.22673209583E+03  0.99999687468E+00 0.  0.
          4    1    3    3  502    0 -0.47555030410E+02  0.17351949111E+03  0.35461968359E+02  0.18337951334E+03  0.00000000000E+00 0.  1.
   -9000007    1    1    2    0  501 -0.51734311996E+01  0.30606451392E+02  0.86048993272E+02  0.41032663635E+03  0.40000000000E+03 0. -1.
<mgrwt>
<rscale>  2 0.40423880E+03</rscale>
<asrwt>0</asrwt>
<pdfrwt beam="1">  1        2 0.60180494E-01 0.40423880E+03</pdfrwt>
<pdfrwt beam="2">  1       -2 0.66040775E-01 0.40423880E+03</pdfrwt>
<totfact> 0.17661463E+02</totfact>
</mgrwt>
</event>
<event>
 6    1  0.9205235E-004  0.4609353E+03  0.7818608E-02  0.1024510E+00
         -2   -1    0    0    0  501 -0.00000000000E+00  0.00000000000E+00  0.63332616598E+03  0.63332616598E+03  0.00000000000E+00 0. -1.
          2   -1    0    0  502    0  0.00000000000E+00 -0.00000000000E+00 -0.56699883250E+03  0.56699883250E+03  0.00000000000E+00 0.  1.
    9000007    2    1    2  502    0  0.57597439839E+02  0.22105700284E+03  0.41669029763E+03  0.62158682778E+03  0.40069404383E+03 0.  0.
    9000005    1    3    3    0    0  0.20761007610E+03  0.23403302913E+02  0.23236546925E+03  0.31248099075E+03  0.99999687468E+00 0.  0.
          4    1    3    3  502    0 -0.15001263626E+03  0.19765369992E+03  0.18432482838E+03  0.30910583704E+03  0.00000000000E+00 0.  1.
   -9000007    1    1    2    0  501 -0.57597439839E+02 -0.22105700284E+03 -0.35036296415E+03  0.57873817070E+03  0.40000000000E+03 0.  1.
<mgrwt>
<rscale>  2 0.46093529E+03</rscale>
<asrwt>0</asrwt>
<pdfrwt beam="1">  1        2 0.87230589E-01 0.46093529E+03</pdfrwt>
<pdfrwt beam="2">  1       -2 0.97434795E-01 0.46093529E+03</pdfrwt>
<totfact> 0.48418982E+01</totfact>
</mgrwt>
</event>
<event>
 6    1  0.9205235E-004  0.5737607E+03  0.7818608E-02  0.9961391E-01
         -1   -1    0    0    0  501 -0.00000000000E+00  0.00000000000E+00  0.38904262600E+03  0.38904262600E+03  0.00000000000E+00 0. -1.
          1   -1    0    0  502    0  0.00000000000E+00 -0.00000000000E+00 -0.99717598443E+03  0.99717598443E+03  0.00000000000E+00 0.  1.
    9000007    2    1    2  502    0 -0.94827958708E+02 -0.39996430485E+03 -0.34451784006E+02  0.57500080013E+03  0.40059356937E+03 0.  0.
    9000005    1    3    3    0    0 -0.24383909742E+03 -0.25584446816E+03 -0.80862576344E+02  0.36256537833E+03  0.99999687468E+00 0.  0.
          4    1    3    3  502    0  0.14901113871E+03 -0.14411983669E+03  0.46410792338E+02  0.21243542180E+03  0.00000000000E+00 0.  1.
   -9000007    1    1    2    0  501  0.94827958708E+02  0.39996430485E+03 -0.57368157442E+03  0.81121781030E+03  0.40000000000E+03 0.  1.
<mgrwt>
<rscale>  2 0.57376067E+03</rscale>
<asrwt>0</asrwt>
<pdfrwt beam="1">  1        1 0.15341169E+00 0.57376067E+03</pdfrwt>
<pdfrwt beam="2">  1       -1 0.59852712E-01 0.57376067E+03</pdfrwt>
<totfact> 0.45019418E+01</totfact>
</mgrwt>
</event>
<event>
 6    1  0.9205235E-004  0.4184779E+03  0.7818608E-02  0.1037563E+00
         -2   -1    0    0    0  501 -0.00000000000E+00  0.00000000000E+00  0.70384788208E+02  0.70384788208E+02  0.00000000000E+00 0.  1.
          2   -1    0    0  502    0  0.00000000000E+00 -0.00000000000E+00 -0.26501683694E+04  0.26501683694E+04  0.00000000000E+00 0. -1.
    9000007    2    1    2  502    0  0.83402943196E+02  0.93006896473E+02 -0.16246173277E+04  0.16775052654E+04  0.39879333007E+03 0.  0.
    9000005    1    3    3    0    0 -0.28419302673E+02  0.88379900255E+02 -0.15245520261E+04  0.15273763596E+04  0.99999687468E+00 0.  0.
          4    1    3    3  502    0  0.11182224587E+03  0.46269962175E+01 -0.10006530161E+03  0.15012890578E+03  0.00000000000E+00 0.  1.
   -9000007    1    1    2    0  501 -0.83402943196E+02 -0.93006896473E+02 -0.95516625349E+03  0.10430478923E+04  0.40000000000E+03 0.  1.
<mgrwt>
<rscale>  2 0.41847787E+03</rscale>
<asrwt>0</asrwt>
<pdfrwt beam="1">  1        2 0.40771825E+00 0.41847787E+03</pdfrwt>
<pdfrwt beam="2">  1       -2 0.10828428E-01 0.41847787E+03</pdfrwt>
<totfact> 0.18722971E+02</totfact>
</mgrwt>
</event>
<event>
 6    1  0.9205235E-004  0.4034243E+03  0.7818608E-02  0.1042600E+00
         -2   -1    0    0    0  501 -0.00000000000E+00  0.00000000000E+00  0.12980465307E+03  0.12980465307E+03  0.00000000000E+00 0.  1.
          2   -1    0    0  502    0  0.00000000000E+00 -0.00000000000E+00 -0.12874555424E+04  0.12874555424E+04  0.00000000000E+00 0. -1.
    9000007    2    1    2  502    0  0.20088947677E+02 -0.48610896508E+02 -0.46425383469E+03  0.61503450375E+03  0.39996153903E+03 0.  0.
    9000005    1    3    3    0    0  0.11238892783E+03  0.10748674567E+03 -0.50874045393E+02  0.16362713736E+03  0.99999687468E+00 0.  0.
          4    1    3    3  502    0 -0.92299980154E+02 -0.15609764218E+03 -0.41337978930E+03  0.45140736639E+03  0.00000000000E+00 0.  1.
   -9000007    1    1    2    0  501 -0.20088947677E+02  0.48610896508E+02 -0.69339705465E+03  0.80222569173E+03  0.40000000000E+03 0. -1.
<mgrwt>
<rscale>  2 0.40342434E+03</rscale>
<asrwt>0</asrwt>
<pdfrwt beam="1">  1        2 0.19807008E+00 0.40342434E+03</pdfrwt>
<pdfrwt beam="2">  1       -2 0.19969946E-01 0.40342434E+03</pdfrwt>
<totfact> 0.37245599E+02</totfact>
</mgrwt>
</event>
<event>
 6    1  0.9205235E-004  0.4568198E+03  0.7818608E-02  0.1025708E+00
          2   -1    0    0  502    0  0.00000000000E+00  0.00000000000E+00  0.20751206805E+04  0.20751206805E+04  0.00000000000E+00 0.  1.
         -2   -1    0    0    0  501 -0.00000000000E+00 -0.00000000000E+00 -0.10779680044E+03  0.10779680044E+03  0.00000000000E+00 0. -1.
    9000007    2    1    2  502    0 -0.20178021181E+03  0.88915161284E+02  0.70109790715E+03  0.83683079196E+03  0.40015789281E+03 0.  0.
    9000005    1    3    3    0    0 -0.13723630097E+03 -0.57869325646E+00  0.10685259283E+02  0.13765649984E+03  0.99999687468E+00 0.  0.
          4    1    3    3  502    0 -0.64543910847E+02  0.89493854540E+02  0.69041264786E+03  0.69917429212E+03  0.00000000000E+00 0.  1.
   -9000007    1    1    2    0  501  0.20178021181E+03 -0.88915161284E+02  0.12662259729E+04  0.13460866890E+04  0.40000000000E+03 0.  1.
<mgrwt>
<rscale>  2 0.45681979E+03</rscale>
<asrwt>0</asrwt>
<pdfrwt beam="1">  1        2 0.31924931E+00 0.45681979E+03</pdfrwt>
<pdfrwt beam="2">  1       -2 0.16584125E-01 0.45681979E+03</pdfrwt>
<totfact> 0.19024910E+02</totfact>
</mgrwt>
</event>
<event>
 6    1  0.9205235E-004  0.4226137E+03  0.7818608E-02  0.1036219E+00
         -1   -1    0    0    0  501 -0.00000000000E+00  0.00000000000E+00  0.45924057291E+03  0.45924057291E+03  0.00000000000E+00 0.  1.
          1   -1    0    0  502    0  0.00000000000E+00 -0.00000000000E+00 -0.39184805739E+03  0.39184805739E+03  0.00000000000E+00 0. -1.
    9000007    2    1    2  502    0 -0.13061308132E+03  0.43764905391E+02  0.70519708875E+02  0.42802253228E+03  0.39906780732E+03 0.  0.
    9000005    1    3    3    0    0 -0.19523034489E+03 -0.88504087464E+02  0.14913927897E+03  0.26113480348E+03  0.99999687468E+00 0.  0.
          4    1    3    3  502    0  0.64617263570E+02  0.13226899285E+03 -0.78619570094E+02  0.16688772880E+03  0.00000000000E+00 0.  1.
   -9000007    1    1    2    0  501  0.13061308132E+03 -0.43764905391E+02 -0.31271933626E+01  0.42306609802E+03  0.40000000000E+03 0.  1.
<mgrwt>
<rscale>  2 0.42261367E+03</rscale>
<asrwt>0</asrwt>
<pdfrwt beam="1">  1        1 0.60284316E-01 0.42261367E+03</pdfrwt>
<pdfrwt beam="2">  1       -1 0.70652396E-01 0.42261367E+03</pdfrwt>
<totfact> 0.12995726E+02</totfact>
</mgrwt>
</event>
<event>
 6    1  0.9205235E-004  0.7712090E+03  0.7818608E-02  0.9602652E-01
         -2   -1    0    0    0  501 -0.00000000000E+00  0.00000000000E+00  0.51471555398E+03  0.51471555398E+03  0.00000000000E+00 0.  1.
          2   -1    0    0  502    0  0.00000000000E+00 -0.00000000000E+00 -0.12791861150E+04  0.12791861150E+04  0.00000000000E+00 0. -1.
    9000007    2    1    2  502    0  0.44958536716E+03 -0.48303020484E+03 -0.10314982538E+03  0.77763876180E+03  0.39829257616E+03 0.  0.
    9000005    1    3    3    0    0  0.86894956541E+02 -0.91404108472E+02 -0.19873194767E+03  0.23537381234E+03  0.99999687468E+00 0.  0.
          4    1    3    3  502    0  0.36269041062E+03 -0.39162609636E+03  0.95582122286E+02  0.54226494946E+03  0.00000000000E+00 0.  1.
   -9000007    1    1    2    0  501 -0.44958536716E+03  0.48303020484E+03 -0.66132073568E+03  0.10162629072E+04  0.40000000000E+03 0. -1.
<mgrwt>
<rscale>  2 0.77120897E+03</rscale>
<asrwt>0</asrwt>
<pdfrwt beam="1">  1        2 0.19679786E+00 0.77120897E+03</pdfrwt>
<pdfrwt beam="2">  1       -2 0.79187008E-01 0.77120897E+03</pdfrwt>
<totfact> 0.24473377E+01</totfact>
</mgrwt>
</event>
<event>
 6    1  0.9205235E-004  0.4095710E+03  0.7818608E-02  0.1040515E+00
         -2   -1    0    0    0  501 -0.00000000000E+00  0.00000000000E+00  0.29252128005E+04  0.29252128005E+04  0.00000000000E+00 0.  1.
          2   -1    0    0  502    0  0.00000000000E+00 -0.00000000000E+00 -0.65738058329E+02  0.65738058329E+02  0.00000000000E+00 0. -1.
    9000007    2    1    2  502    0 -0.68502710414E+02 -0.63872379077E+02  0.89162749561E+03  0.98067846735E+03  0.39743976053E+03 0.  0.
    9000005    1    3    3    0    0  0.81253947981E+02 -0.18396614350E+03  0.58815535259E+03  0.62158946644E+03  0.99999687468E+00 0.  0.
          4    1    3    3  502    0 -0.14975665839E+03  0.12009376442E+03  0.30347214302E+03  0.35908900091E+03  0.00000000000E+00 0.  1.
   -9000007    1    1    2    0  501  0.68502710414E+02  0.63872379077E+02  0.19678472465E+04  0.20102723915E+04  0.40000000000E+03 0.  1.
<mgrwt>
<rscale>  2 0.40957097E+03</rscale>
<asrwt>0</asrwt>
<pdfrwt beam="1">  1        2 0.10113550E-01 0.40957097E+03</pdfrwt>
<pdfrwt beam="2">  1       -2 0.45003264E+00 0.40957097E+03</pdfrwt>
<totfact> 0.25785704E+00</totfact>
</mgrwt>
</event>
<event>
 6    1  0.9205235E-004  0.5065004E+03  0.7818608E-02  0.1012096E+00
          2   -1    0    0  502    0  0.00000000000E+00  0.00000000000E+00  0.11434407263E+04  0.11434407263E+04  0.00000000000E+00 0.  1.
         -2   -1    0    0    0  501 -0.00000000000E+00 -0.00000000000E+00 -0.22741752646E+03  0.22741752646E+03  0.00000000000E+00 0. -1.
    9000007    2    1    2  502    0 -0.20169367386E+03  0.23977847442E+03  0.53602197350E+03  0.73637028053E+03  0.39591360055E+03 0.  0.
    9000005    1    3    3    0    0 -0.22003520031E+03  0.12515295614E+03  0.79513912065E+02  0.26533415539E+03  0.99999687468E+00 0.  0.
          4    1    3    3  502    0  0.18341526459E+02  0.11462551828E+03  0.45650806144E+03  0.47103612515E+03  0.00000000000E+00 0.  1.
   -9000007    1    1    2    0  501  0.20169367386E+03 -0.23977847442E+03  0.38000122632E+03  0.63448797221E+03  0.40000000000E+03 0.  1.
<mgrwt>
<rscale>  2 0.50650043E+03</rscale>
<asrwt>0</asrwt>
<pdfrwt beam="1">  1        2 0.17591395E+00 0.50650043E+03</pdfrwt>
<pdfrwt beam="2">  1       -2 0.34987312E-01 0.50650043E+03</pdfrwt>
<totfact> 0.16221998E+02</totfact>
</mgrwt>
</event>
<event>
 6    1  0.9205235E-004  0.4010972E+03  0.7818608E-02  0.1043400E+00
          1   -1    0    0  502    0  0.00000000000E+00  0.00000000000E+00  0.11123712288E+04  0.11123712288E+04  0.00000000000E+00 0. -1.
         -1   -1    0    0    0  501 -0.00000000000E+00 -0.00000000000E+00 -0.14663506351E+03  0.14663506351E+03  0.00000000000E+00 0.  1.
    9000007    2    1    2  502    0 -0.26680675961E+02  0.87933536546E+01  0.55666581409E+03  0.68618194420E+03  0.40022450004E+03 0.  0.
    9000005    1    3    3    0    0 -0.11253925783E+03 -0.14317989152E+03  0.44008974504E+03  0.47628305615E+03  0.99999687468E+00 0.  0.
          4    1    3    3  502    0  0.85858581873E+02  0.15197324518E+03  0.11657606905E+03  0.20989888805E+03  0.00000000000E+00 0.  1.
   -9000007    1    1    2    0  501  0.26680675961E+02 -0.87933536546E+01  0.40907035116E+03  0.57282434806E+03  0.40000000000E+03 0.  1.
<mgrwt>
<rscale>  2 0.40109722E+03</rscale>
<asrwt>0</asrwt>
<pdfrwt beam="1">  1        1 0.17113403E+00 0.40109722E+03</pdfrwt>
<pdfrwt beam="2">  1       -1 0.22559241E-01 0.40109722E+03</pdfrwt>
<totfact> 0.21638193E+02</totfact>
</mgrwt>
</event>
<event>
 6    1  0.9205235E-004  0.7266174E+03  0.7818608E-02  0.9672765E-01
          2   -1    0    0  502    0  0.00000000000E+00  0.00000000000E+00  0.37039326444E+03  0.37039326444E+03  0.00000000000E+00 0.  1.
         -2   -1    0    0    0  501 -0.00000000000E+00 -0.00000000000E+00 -0.15900918097E+04  0.15900918097E+04  0.00000000000E+00 0. -1.
    9000007    2    1    2  502    0 -0.86394277915E+02  0.60051939687E+03 -0.92522320891E+03  0.11763911760E+04  0.39971326662E+03 0.  0.
    9000005    1    3    3    0    0  0.10999895549E+03  0.36491978900E+03 -0.31911158390E+03  0.49709096310E+03  0.99999687468E+00 0.  0.
          4    1    3    3  502    0 -0.19639323340E+03  0.23559960786E+03 -0.60611162501E+03  0.67930021295E+03  0.00000000000E+00 0.  1.
   -9000007    1    1    2    0  501  0.86394277915E+02 -0.60051939687E+03 -0.29447533632E+03  0.78409389805E+03  0.40000000000E+03 0.  1.
<mgrwt>
<rscale>  2 0.72661740E+03</rscale>
<asrwt>0</asrwt>
<pdfrwt beam="1">  1        2 0.56983578E-01 0.72661740E+03</pdfrwt>
<pdfrwt beam="2">  1       -2 0.24462951E+00 0.72661740E+03</pdfrwt>
<totfact> 0.61927392E+00</totfact>
</mgrwt>
</event>
<event>
 6    1  0.9205235E-004  0.4486778E+03  0.7818608E-02  0.1028117E+00
         -1   -1    0    0    0  501 -0.00000000000E+00  0.00000000000E+00  0.13041090478E+04  0.13041090478E+04  0.00000000000E+00 0. -1.
          1   -1    0    0  502    0  0.00000000000E+00 -0.00000000000E+00 -0.23701738895E+03  0.23701738895E+03  0.00000000000E+00 0.  1.
    9000007    2    1    2  502    0  0.19922956988E+03 -0.40008914474E+02  0.98859179802E+03  0.10856537560E+04  0.40004649743E+03 0.  0.
    9000005    1    3    3    0    0  0.11521389856E+03 -0.13221413783E+03  0.13064723768E+03  0.21868818297E+03  0.99999687468E+00 0.  0.
          4    1    3    3  502    0  0.84015671312E+02  0.92205223353E+02  0.85794456034E+03  0.86696557305E+03  0.00000000000E+00 0.  1.
   -9000007    1    1    2    0  501 -0.19922956988E+03  0.40008914474E+02  0.78499860850E+02  0.45547268074E+03  0.40000000000E+03 0.  1.
<mgrwt>
<rscale>  2 0.44867776E+03</rscale>
<asrwt>0</asrwt>
<pdfrwt beam="1">  1        1 0.36464215E-01 0.44867776E+03</pdfrwt>
<pdfrwt beam="2">  1       -1 0.20063216E+00 0.44867776E+03</pdfrwt>
<totfact> 0.18982326E+01</totfact>
</mgrwt>
</event>
<event>
 6    1  0.9205235E-004  0.5682381E+03  0.7818608E-02  0.9973585E-01
         -2   -1    0    0    0  501 -0.00000000000E+00  0.00000000000E+00  0.46573683407E+03  0.46573683407E+03  0.00000000000E+00 0.  1.
          2   -1    0    0  502    0  0.00000000000E+00 -0.00000000000E+00 -0.91487990053E+03  0.91487990053E+03  0.00000000000E+00 0. -1.
    9000007    2    1    2  502    0  0.40334942788E+03 -0.16758535548E+02  0.11517419184E+03  0.57972624427E+03  0.39980722147E+03 0.  0.
    9000005    1    3    3    0    0  0.32582007011E+03 -0.88760905458E+02 -0.89470681634E+02  0.34934684669E+03  0.99999687468E+00 0.  0.
          4    1    3    3  502    0  0.77529357774E+02  0.72002369909E+02  0.20464487348E+03  0.23037939758E+03  0.00000000000E+00 0.  1.
   -9000007    1    1    2    0  501 -0.40334942788E+03  0.16758535548E+02 -0.56431725830E+03  0.80089049033E+03  0.40000000000E+03 0. -1.
<mgrwt>
<rscale>  2 0.56823807E+03</rscale>
<asrwt>0</asrwt>
<pdfrwt beam="1">  1        2 0.14075075E+00 0.56823807E+03</pdfrwt>
<pdfrwt beam="2">  1       -2 0.71651821E-01 0.56823807E+03</pdfrwt>
<totfact> 0.52240137E+01</totfact>
</mgrwt>
</event>
<event>
 6    1  0.9205235E-004  0.5061812E+03  0.7818608E-02  0.1012178E+00
          1   -1    0    0  502    0  0.00000000000E+00  0.00000000000E+00  0.68946593185E+03  0.68946593185E+03  0.00000000000E+00 0.  1.
         -1   -1    0    0    0  501 -0.00000000000E+00 -0.00000000000E+00 -0.37312016738E+03  0.37312016738E+03  0.00000000000E+00 0. -1.
    9000007    2    1    2  502    0 -0.23505635120E+03 -0.20293842865E+03  0.19179247412E+03  0.54109878759E+03  0.39945969852E+03 0.  0.
    9000005    1    3    3    0    0 -0.28382655012E+03 -0.46585153315E+02 -0.16531053394E+01  0.28763070040E+03  0.99999687468E+00 0.  0.
          4    1    3    3  502    0  0.48770198918E+02 -0.15635327534E+03  0.19344557946E+03  0.25346808719E+03  0.00000000000E+00 0.  1.
   -9000007    1    1    2    0  501  0.23505635120E+03  0.20293842865E+03  0.12455329035E+03  0.52148731164E+03  0.40000000000E+03 0. -1.
<mgrwt>
<rscale>  2 0.50618122E+03</rscale>
<asrwt>0</asrwt>
<pdfrwt beam="1">  1        1 0.10607168E+00 0.50618122E+03</pdfrwt>
<pdfrwt beam="2">  1       -1 0.57403102E-01 0.50618122E+03</pdfrwt>
<totfact> 0.89287864E+01</totfact>
</mgrwt>
</event>
<event>
 6    1  0.9205235E-004  0.6028063E+03  0.7818608E-02  0.9899601E-01
          1   -1    0    0  502    0  0.00000000000E+00  0.00000000000E+00  0.55562194113E+03  0.55562194113E+03  0.00000000000E+00 0. -1.
         -1   -1    0    0    0  501 -0.00000000000E+00 -0.00000000000E+00 -0.15859761825E+04  0.15859761825E+04  0.00000000000E+00 0.  1.
    9000007    2    1    2  502    0  0.28115975491E+03 -0.35259656406E+03  0.30567054009E+03  0.67587735845E+03  0.40000072477E+03 0.  0.
    9000005    1    3    3    0    0  0.48313404989E+02 -0.18852500825E+03  0.33715760102E+03  0.38929694547E+03  0.99999687468E+00 0.  0.
          4    1    3    3  502    0  0.23284634992E+03 -0.16407155582E+03 -0.31487060924E+02  0.28658041298E+03  0.00000000000E+00 0.  1.
   -9000007    1    1    2    0  501 -0.28115975491E+03  0.35259656406E+03 -0.13360247815E+04  0.14657207652E+04  0.40000000000E+03 0.  1.
<mgrwt>
<rscale>  2 0.60280630E+03</rscale>
<asrwt>0</asrwt>
<pdfrwt beam="1">  1        1 0.85480300E-01 0.60280630E+03</pdfrwt>
<pdfrwt beam="2">  1       -1 0.24399633E+00 0.60280630E+03</pdfrwt>
<totfact> 0.31226421E+00</totfact>
</mgrwt>
</event>
<event>
 6    1  0.9205235E-004  0.4490077E+03  0.7818608E-02  0.1028018E+00
         -2   -1    0    0    0  501 -0.00000000000E+00  0.00000000000E+00  0.12966547414E+03  0.12966547414E+03  0.00000000000E+00 0. -1.
          2   -1    0    0  502    0  0.00000000000E+00 -0.00000000000E+00 -0.15787262225E+04  0.15787262225E+04  0.00000000000E+00 0.  1.
    9000007    2    1    2  502    0 -0.82396820852E+02 -0.18634770471E+03 -0.82978416998E+03  0.94352688265E+03  0.40023306510E+03 0.  0.
    9000005    1    3    3    0    0 -0.25666327813E+02 -0.28683192287E+03 -0.36659506628E+03  0.46618049613E+03  0.99999687468E+00 0.  0.
          4    1    3    3  502    0 -0.56730493039E+02  0.10048421816E+03 -0.46318910370E+03  0.47734638652E+03  0.00000000000E+00 0.  1.
   -9000007    1    1    2    0  501  0.82396820852E+02  0.18634770471E+03 -0.61927657834E+03  0.76486481395E+03  0.40000000000E+03 0. -1.
<mgrwt>
<rscale>  2 0.44900772E+03</rscale>
<asrwt>0</asrwt>
<pdfrwt beam="1">  1        2 0.24288094E+00 0.44900772E+03</pdfrwt>
<pdfrwt beam="2">  1       -2 0.19948536E-01 0.44900772E+03</pdfrwt>
<totfact> 0.25642469E+02</totfact>
</mgrwt>
</event>
<event>
 6    1  0.9205235E-004  0.4083533E+03  0.7818608E-02  0.1040925E+00
          2   -1    0    0  502    0  0.00000000000E+00  0.00000000000E+00  0.23282071697E+04  0.23282071697E+04  0.00000000000E+00 0.  1.
         -2   -1    0    0    0  501 -0.00000000000E+00 -0.00000000000E+00 -0.71626027803E+02  0.71626027803E+02  0.00000000000E+00 0. -1.
    9000007    2    1    2  502    0  0.27361823680E+02  0.79122613363E+02  0.11192563404E+04  0.11913147817E+04  0.39935835553E+03 0.  0.
    9000005    1    3    3    0    0  0.12707091978E+03 -0.11966891004E+03  0.63277589298E+03  0.65640993092E+03  0.99999687468E+00 0.  0.
          4    1    3    3  502    0 -0.99709096097E+02  0.19879152340E+03  0.48648044746E+03  0.53490485078E+03  0.00000000000E+00 0.  1.
   -9000007    1    1    2    0  501 -0.27361823680E+02 -0.79122613363E+02  0.11373248015E+04  0.12085184158E+04  0.40000000000E+03 0. -1.
<mgrwt>
<rscale>  2 0.40835329E+03</rscale>
<asrwt>0</asrwt>
<pdfrwt beam="1">  1        2 0.35818566E+00 0.40835329E+03</pdfrwt>
<pdfrwt beam="2">  1       -2 0.11019391E-01 0.40835329E+03</pdfrwt>
<totfact> 0.27531086E+02</totfact>
</mgrwt>
</event>
<event>
 6    1  0.9205235E-004  0.6576680E+03  0.7818608E-02  0.9792496E-01
         -2   -1    0    0    0  501 -0.00000000000E+00  0.00000000000E+00  0.62626755439E+03  0.62626755439E+03  0.00000000000E+00 0.  1.
          2   -1    0    0  502    0  0.00000000000E+00 -0.00000000000E+00 -0.10524814778E+04  0.10524814778E+04  0.00000000000E+00 0. -1.
    9000007    2    1    2  502    0  0.51540297589E+03 -0.85354366521E+02  0.27911696035E+03  0.71416764578E+03  0.39900319958E+03 0.  0.
    9000005    1    3    3    0    0  0.75652687063E+02  0.13749394863E+03  0.11505305872E+03  0.19459219225E+03  0.99999687468E+00 0.  0.
          4    1    3    3  502    0  0.43975028883E+03 -0.22284831515E+03  0.16406390163E+03  0.51957545353E+03  0.00000000000E+00 0.  1.
   -9000007    1    1    2    0  501 -0.51540297589E+03  0.85354366521E+02 -0.70533088381E+03  0.96458138646E+03  0.40000000000E+03 0. -1.
<mgrwt>
<rscale>  2 0.65766799E+03</rscale>
<asrwt>0</asrwt>
<pdfrwt beam="1">  1        2 0.16192023E+00 0.65766799E+03</pdfrwt>
<pdfrwt beam="2">  1       -2 0.96348855E-01 0.65766799E+03</pdfrwt>
<totfact> 0.21614589E+01</totfact>
</mgrwt>
</event>
<event>
 6    1  0.9205235E-004  0.6892565E+03  0.7818608E-02  0.9735784E-01
         -2   -1    0    0    0  501 -0.00000000000E+00  0.00000000000E+00  0.13621446049E+04  0.13621446049E+04  0.00000000000E+00 0. -1.
          2   -1    0    0  502    0  0.00000000000E+00 -0.00000000000E+00 -0.10776968747E+04  0.10776968747E+04  0.00000000000E+00 0.  1.
    9000007    2    1    2  502    0 -0.38117508001E+03  0.41197163443E+03  0.11455143279E+04  0.13369132158E+04  0.40014847505E+03 0.  0.
    9000005    1    3    3    0    0  0.50582621039E+02  0.17144522783E+03  0.44534723990E+03  0.47988251872E+03  0.99999687468E+00 0.  0.
          4    1    3    3  502    0 -0.43175770105E+03  0.24052640659E+03  0.70016708800E+03  0.85703069712E+03  0.00000000000E+00 0.  1.
   -9000007    1    1    2    0  501  0.38117508001E+03 -0.41197163443E+03 -0.86106659771E+03  0.11029282637E+04  0.40000000000E+03 0.  1.
<mgrwt>
<rscale>  2 0.68925646E+03</rscale>
<asrwt>0</asrwt>
<pdfrwt beam="1">  1        2 0.16579952E+00 0.68925646E+03</pdfrwt>
<pdfrwt beam="2">  1       -2 0.20956071E+00 0.68925646E+03</pdfrwt>
<totfact> 0.26885908E+00</totfact>
</mgrwt>
</event>
<event>
 6    1  0.9205235E-004  0.4453028E+03  0.7818608E-02  0.1029132E+00
          2   -1    0    0  502    0  0.00000000000E+00  0.00000000000E+00  0.88786815736E+03  0.88786815736E+03  0.00000000000E+00 0. -1.
         -2   -1    0    0    0  501 -0.00000000000E+00 -0.00000000000E+00 -0.24101467551E+03  0.24101467551E+03  0.00000000000E+00 0.  1.
    9000007    2    1    2  502    0 -0.15660574830E+03  0.11685363869E+03  0.17065136768E+03  0.47700202566E+03  0.40028603512E+03 0.  0.
    9000005    1    3    3    0    0 -0.16024575134E+03  0.22510616692E+03  0.22451639524E+03  0.35603384520E+03  0.99999687468E+00 0.  0.
          4    1    3    3  502    0  0.36400030391E+01 -0.10825252823E+03 -0.53865027553E+02  0.12096818046E+03  0.00000000000E+00 0.  1.
   -9000007    1    1    2    0  501  0.15660574830E+03 -0.11685363869E+03  0.47620211417E+03  0.65188080721E+03  0.40000000000E+03 0. -1.
<mgrwt>
<rscale>  2 0.44530277E+03</rscale>
<asrwt>0</asrwt>
<pdfrwt beam="1">  1        2 0.13659510E+00 0.44530277E+03</pdfrwt>
<pdfrwt beam="2">  1       -2 0.37079181E-01 0.44530277E+03</pdfrwt>
<totfact> 0.21116437E+02</totfact>
</mgrwt>
</event>
<event>
 6    1  0.9205235E-004  0.4525881E+03  0.7818608E-02  0.1026953E+00
         -2   -1    0    0    0  501 -0.00000000000E+00  0.00000000000E+00  0.51064085168E+03  0.51064085168E+03  0.00000000000E+00 0.  1.
          2   -1    0    0  502    0  0.00000000000E+00 -0.00000000000E+00 -0.13461414911E+04  0.13461414911E+04  0.00000000000E+00 0. -1.
    9000007    2    1    2  502    0 -0.16719476720E+03 -0.12904238239E+03 -0.11956829597E+04  0.12785632402E+04  0.40057482755E+03 0.  0.
    9000005    1    3    3    0    0 -0.24794107285E+03  0.50568859597E+02 -0.74274571855E+03  0.78466820222E+03  0.99999687468E+00 0.  0.
          4    1    3    3  502    0  0.80746305652E+02 -0.17961124199E+03 -0.45293724119E+03  0.49389503802E+03  0.00000000000E+00 0.  1.
   -9000007    1    1    2    0  501  0.16719476720E+03  0.12904238239E+03  0.36018232034E+03  0.57821910252E+03  0.40000000000E+03 0.  1.
<mgrwt>
<rscale>  2 0.45258811E+03</rscale>
<asrwt>0</asrwt>
<pdfrwt beam="1">  1        2 0.20709869E+00 0.45258811E+03</pdfrwt>
<pdfrwt beam="2">  1       -2 0.78560132E-01 0.45258811E+03</pdfrwt>
<totfact> 0.23871183E+01</totfact>
</mgrwt>
</event>
<event>
 6    1  0.9205235E-004  0.4309720E+03  0.7818608E-02  0.1033553E+00
          2   -1    0    0  502    0  0.00000000000E+00  0.00000000000E+00  0.12658555588E+03  0.12658555588E+03  0.00000000000E+00 0.  1.
         -2   -1    0    0    0  501 -0.00000000000E+00 -0.00000000000E+00 -0.14978546726E+04  0.14978546726E+04  0.00000000000E+00 0. -1.
    9000007    2    1    2  502    0 -0.94466069389E+02  0.12834883188E+03 -0.57021431431E+03  0.71499751045E+03  0.40084886777E+03 0.  0.
    9000005    1    3    3    0    0 -0.30814286049E+02 -0.14115813403E+03 -0.27228340691E+03  0.30824404731E+03  0.99999687468E+00 0.  0.
          4    1    3    3  502    0 -0.63651783340E+02  0.26950696591E+03 -0.29793090739E+03  0.40675346314E+03  0.00000000000E+00 0.  1.
   -9000007    1    1    2    0  501  0.94466069389E+02 -0.12834883188E+03 -0.80105480241E+03  0.90944271803E+03  0.40000000000E+03 0. -1.
<mgrwt>
<rscale>  2 0.43097199E+03</rscale>
<asrwt>0</asrwt>
<pdfrwt beam="1">  1        2 0.19474701E-01 0.43097199E+03</pdfrwt>
<pdfrwt beam="2">  1       -2 0.23043918E+00 0.43097199E+03</pdfrwt>
<totfact> 0.26263155E+01</totfact>
</mgrwt>
</event>
<event>
 6    1  0.9205235E-004  0.4629256E+03  0.7818608E-02  0.1023936E+00
          1   -1    0    0  502    0  0.00000000000E+00  0.00000000000E+00  0.86798500293E+03  0.86798500293E+03  0.00000000000E+00 0.  1.
         -1   -1    0    0    0  501 -0.00000000000E+00 -0.00000000000E+00 -0.25133348066E+03  0.25133348066E+03  0.00000000000E+00 0. -1.
    9000007    2    1    2  502    0 -0.24053745742E+03  0.13797960860E+02  0.23147521141E+03  0.51400084583E+03  0.39059882728E+03 0.  0.
    9000005    1    3    3    0    0 -0.34861328777E+03  0.18724756482E+02  0.19466795798E+03  0.39972297253E+03  0.99999687468E+00 0.  0.
          4    1    3    3  502    0  0.10807583035E+03 -0.49267956220E+01  0.36807253430E+02  0.11427787330E+03  0.00000000000E+00 0.  1.
   -9000007    1    1    2    0  501  0.24053745742E+03 -0.13797960860E+02  0.38517631086E+03  0.60531763777E+03  0.40000000000E+03 0. -1.
<mgrwt>
<rscale>  2 0.46292565E+03</rscale>
<asrwt>0</asrwt>
<pdfrwt beam="1">  1        1 0.13353615E+00 0.46292565E+03</pdfrwt>
<pdfrwt beam="2">  1       -1 0.38666690E-01 0.46292565E+03</pdfrwt>
<totfact> 0.13075916E+02</totfact>
</mgrwt>
</event>
<event>
 6    1  0.9205235E-004  0.4039650E+03  0.7818608E-02  0.1042415E+00
         -2   -1    0    0    0  501 -0.00000000000E+00  0.00000000000E+00  0.25797648568E+03  0.25797648568E+03  0.00000000000E+00 0.  1.
          2   -1    0    0  502    0  0.00000000000E+00 -0.00000000000E+00 -0.68936942986E+03  0.68936942986E+03  0.00000000000E+00 0. -1.
    9000007    2    1    2  502    0  0.29447516175E+02  0.44438504165E+02 -0.35187187434E+03  0.53604853237E+03  0.40086441129E+03 0.  0.
    9000005    1    3    3    0    0  0.16927760379E+03  0.11384477632E+03 -0.31558325162E+03  0.37577829759E+03  0.99999687468E+00 0.  0.
          4    1    3    3  502    0 -0.13983008762E+03 -0.69406272158E+02 -0.36288622725E+02  0.16027023478E+03  0.00000000000E+00 0.  1.
   -9000007    1    1    2    0  501 -0.29447516175E+02 -0.44438504165E+02 -0.79521069838E+02  0.41129738318E+03  0.40000000000E+03 0.  1.
<mgrwt>
<rscale>  2 0.40396498E+03</rscale>
<asrwt>0</asrwt>
<pdfrwt beam="1">  1        2 0.10605684E+00 0.40396498E+03</pdfrwt>
<pdfrwt beam="2">  1       -2 0.39688690E-01 0.40396498E+03</pdfrwt>
<totfact> 0.25782600E+02</totfact>
</mgrwt>
</event>
<event>
 6    1  0.9205235E-004  0.5834633E+03  0.7818608E-02  0.9940321E-01
         -2   -1    0    0    0  501 -0.00000000000E+00  0.00000000000E+00  0.26165096780E+03  0.26165096780E+03  0.00000000000E+00 0.  1.
          2   -1    0    0  502    0  0.00000000000E+00 -0.00000000000E+00 -0.19802882363E+04  0.19802882363E+04  0.00000000000E+00 0. -1.
    9000007    2    1    2  502    0  0.22841653803E+03 -0.35781687422E+03 -0.15159964478E+04  0.16244682877E+04  0.40055581099E+03 0.  0.
    9000005    1    3    3    0    0  0.26078443219E+03 -0.21115882470E+03 -0.53135818168E+03  0.62844179249E+03  0.99999687468E+00 0.  0.
          4    1    3    3  502    0 -0.32367894157E+02 -0.14665804951E+03 -0.98463826615E+03  0.99602649524E+03  0.00000000000E+00 0.  1.
   -9000007    1    1    2    0  501 -0.22841653803E+03  0.35781687422E+03 -0.20264082063E+03  0.61747091632E+03  0.40000000000E+03 0.  1.
<mgrwt>
<rscale>  2 0.58346331E+03</rscale>
<asrwt>0</asrwt>
<pdfrwt beam="1">  1        2 0.30465973E+00 0.58346331E+03</pdfrwt>
<pdfrwt beam="2">  1       -2 0.40253996E-01 0.58346331E+03</pdfrwt>
<totfact> 0.42221841E+01</totfact>
</mgrwt>
</event>
<event>
 6    1  0.9205235E-004  0.4860073E+03  0.7818608E-02  0.1017497E+00
         -2   -1    0    0    0  501 -0.00000000000E+00  0.00000000000E+00  0.72888146815E+02  0.72888146815E+02  0.00000000000E+00 0. -1.
          2   -1    0    0  502    0  0.00000000000E+00 -0.00000000000E+00 -0.32442943546E+04  0.32442943546E+04  0.00000000000E+00 0.  1.
    9000007    2    1    2  502    0  0.27022662613E+03 -0.52482523078E+02 -0.15313682398E+04  0.16067727899E+04  0.40106516665E+03 0.  0.
    9000005    1    3    3    0    0  0.28039707193E+03 -0.17306313726E+03 -0.13434104669E+04  0.13832302954E+04  0.99999687468E+00 0.  0.
          4    1    3    3  502    0 -0.10170445802E+02  0.12058061418E+03 -0.18795777284E+03  0.22354249451E+03  0.00000000000E+00 0.  1.
   -9000007    1    1    2    0  501 -0.27022662613E+03  0.52482523078E+02 -0.16400379680E+04  0.17104097115E+04  0.40000000000E+03 0. -1.
<mgrwt>
<rscale>  2 0.48600730E+03</rscale>
<asrwt>0</asrwt>
<pdfrwt beam="1">  1        2 0.49912218E+00 0.48600730E+03</pdfrwt>
<pdfrwt beam="2">  1       -2 0.11213562E-01 0.48600730E+03</pdfrwt>
<totfact> 0.76946232E+01</totfact>
</mgrwt>
</event>
<event>
 6    1  0.9205235E-004  0.4821527E+03  0.7818608E-02  0.1018545E+00
         -2   -1    0    0    0  501 -0.00000000000E+00  0.00000000000E+00  0.12784077197E+03  0.12784077197E+03  0.00000000000E+00 0. -1.
          2   -1    0    0  502    0  0.00000000000E+00 -0.00000000000E+00 -0.18462978673E+04  0.18462978673E+04  0.00000000000E+00 0.  1.
    9000007    2    1    2  502    0 -0.91854996657E+02 -0.25440244864E+03 -0.73675057897E+03  0.88010681590E+03  0.39828211797E+03 0.  0.
    9000005    1    3    3    0    0  0.15752856760E+03 -0.97336253662E+02 -0.25056133283E+03  0.31156311943E+03  0.99999687468E+00 0.  0.
          4    1    3    3  502    0 -0.24938356426E+03 -0.15706619497E+03 -0.48618924614E+03  0.56854369646E+03  0.00000000000E+00 0.  1.
   -9000007    1    1    2    0  501  0.91854996657E+02  0.25440244864E+03 -0.98170651638E+03  0.10940318234E+04  0.40000000000E+03 0.  1.
<mgrwt>
<rscale>  2 0.48215273E+03</rscale>
<asrwt>0</asrwt>
<pdfrwt beam="1">  1        2 0.28404581E+00 0.48215273E+03</pdfrwt>
<pdfrwt beam="2">  1       -2 0.19667812E-01 0.48215273E+03</pdfrwt>
<totfact> 0.18780460E+02</totfact>
</mgrwt>
</event>
<event>
 6    1  0.9205235E-004  0.4208509E+03  0.7818608E-02  0.1036790E+00
          2   -1    0    0  502    0  0.00000000000E+00  0.00000000000E+00  0.11908446803E+04  0.11908446803E+04  0.00000000000E+00 0. -1.
         -2   -1    0    0    0  501 -0.00000000000E+00 -0.00000000000E+00 -0.16167259290E+03  0.16167259290E+03  0.00000000000E+00 0.  1.
    9000007    2    1    2  502    0  0.10709578258E+03  0.79410190502E+02  0.32237730327E+03  0.52951402177E+03  0.39834970640E+03 0.  0.
    9000005    1    3    3    0    0 -0.81206200431E+02 -0.97890795778E+02  0.21429935360E+03  0.24920326610E+03  0.99999687468E+00 0.  0.
          4    1    3    3  502    0  0.18830198301E+03  0.17730098628E+03  0.10807794966E+03  0.28031075567E+03  0.00000000000E+00 0.  1.
   -9000007    1    1    2    0  501 -0.10709578258E+03 -0.79410190502E+02  0.70679478418E+03  0.82300325148E+03  0.40000000000E+03 0. -1.
<mgrwt>
<rscale>  2 0.42085093E+03</rscale>
<asrwt>0</asrwt>
<pdfrwt beam="1">  1        2 0.18320687E+00 0.42085093E+03</pdfrwt>
<pdfrwt beam="2">  1       -2 0.24872707E-01 0.42085093E+03</pdfrwt>
<totfact> 0.28719286E+02</totfact>
</mgrwt>
</event>
<event>
 6    1  0.9205235E-004  0.4872255E+03  0.7818608E-02  0.1017168E+00
         -1   -1    0    0    0  501 -0.00000000000E+00  0.00000000000E+00  0.11028471410E+03  0.11028471410E+03  0.00000000000E+00 0. -1.
          1   -1    0    0  502    0  0.00000000000E+00 -0.00000000000E+00 -0.26051463029E+04  0.26051463029E+04  0.00000000000E+00 0.  1.
    9000007    2    1    2  502    0  0.11642818019E+03  0.25178387138E+03 -0.68244667485E+03  0.83878548325E+03  0.40109473180E+03 0.  0.
    9000005    1    3    3    0    0  0.14048660698E+03 -0.75092753090E+02 -0.24326385330E+03  0.29078120748E+03  0.99999687468E+00 0.  0.
          4    1    3    3  502    0 -0.24058426785E+02  0.32687662447E+03 -0.43918282154E+03  0.54800427577E+03  0.00000000000E+00 0.  1.
   -9000007    1    1    2    0  501 -0.11642818019E+03 -0.25178387138E+03 -0.18124149140E+04  0.18766455338E+04  0.40000000000E+03 0.  1.
<mgrwt>
<rscale>  2 0.48722554E+03</rscale>
<asrwt>0</asrwt>
<pdfrwt beam="1">  1        1 0.40079173E+00 0.48722554E+03</pdfrwt>
<pdfrwt beam="2">  1       -1 0.16966879E-01 0.48722554E+03</pdfrwt>
<totfact> 0.33651270E+01</totfact>
</mgrwt>
</event>
<event>
 6    1  0.9205235E-004  0.4752725E+03  0.7818608E-02  0.1020443E+00
          2   -1    0    0  502    0  0.00000000000E+00  0.00000000000E+00  0.10141570470E+04  0.10141570470E+04  0.00000000000E+00 0.  1.
         -2   -1    0    0    0  501 -0.00000000000E+00 -0.00000000000E+00 -0.22304750052E+03  0.22304750052E+03  0.00000000000E+00 0. -1.
    9000007    2    1    2  502    0 -0.29403510009E+02 -0.25784853938E+03  0.41750401397E+03  0.63145581281E+03  0.39632865931E+03 0.  0.
    9000005    1    3    3    0    0  0.65392219506E+02 -0.33602976284E+03  0.35656272062E+03  0.49429760025E+03  0.99999687468E+00 0.  0.
          4    1    3    3  502    0 -0.94795729515E+02  0.78181223461E+02  0.60941293349E+02  0.13715821255E+03  0.00000000000E+00 0.  1.
   -9000007    1    1    2    0  501  0.29403510009E+02  0.25784853938E+03  0.37360553246E+03  0.60574873467E+03  0.40000000000E+03 0.  1.
<mgrwt>
<rscale>  2 0.47527246E+03</rscale>
<asrwt>0</asrwt>
<pdfrwt beam="1">  1        2 0.15602416E+00 0.47527246E+03</pdfrwt>
<pdfrwt beam="2">  1       -2 0.34315001E-01 0.47527246E+03</pdfrwt>
<totfact> 0.20227939E+02</totfact>
</mgrwt>
</event>
<event>
 6    1  0.9205235E-004  0.4906426E+03  0.7818608E-02  0.1016251E+00
         -1   -1    0    0    0  501 -0.00000000000E+00  0.00000000000E+00  0.42971981759E+03  0.42971981759E+03  0.00000000000E+00 0.  1.
          1   -1    0    0  502    0  0.00000000000E+00 -0.00000000000E+00 -0.64475939293E+03  0.64475939293E+03  0.00000000000E+00 0. -1.
    9000007    2    1    2  502    0 -0.34650199055E+02 -0.28242175995E+03  0.87080642888E+02  0.49807716936E+03  0.39941850418E+03 0.  0.
    9000005    1    3    3    0    0 -0.21001104576E+03 -0.19799868315E+03  0.93344891064E+02  0.30335191866E+03  0.99999687468E+00 0.  0.
          4    1    3    3  502    0  0.17536084671E+03 -0.84423076796E+02 -0.62642481757E+01  0.19472525070E+03  0.00000000000E+00 0.  1.
   -9000007    1    1    2    0  501  0.34650199055E+02  0.28242175995E+03 -0.30212021823E+03  0.57640204116E+03  0.40000000000E+03 0. -1.
<mgrwt>
<rscale>  2 0.49064258E+03</rscale>
<asrwt>0</asrwt>
<pdfrwt beam="1">  1        1 0.99193753E-01 0.49064258E+03</pdfrwt>
<pdfrwt beam="2">  1       -1 0.66110741E-01 0.49064258E+03</pdfrwt>
<totfact> 0.74757018E+01</totfact>
</mgrwt>
</event>
<event>
 6    1  0.9205235E-004  0.5926685E+03  0.7818608E-02  0.9920734E-01
         -1   -1    0    0    0  501 -0.00000000000E+00  0.00000000000E+00  0.82436675537E+03  0.82436675537E+03  0.00000000000E+00 0. -1.
          1   -1    0    0  502    0  0.00000000000E+00 -0.00000000000E+00 -0.47350881268E+03  0.47350881268E+03  0.00000000000E+00 0.  1.
    9000007    2    1    2  502    0 -0.35088298289E+03  0.26169929696E+03  0.38070567098E+03  0.70416159938E+03  0.39912574511E+03 0.  0.
    9000005    1    3    3    0    0 -0.20778250405E+03  0.31851961772E+03  0.39648060939E+03  0.54938710348E+03  0.99999687468E+00 0.  0.
          4    1    3    3  502    0 -0.14310047885E+03 -0.56820320763E+02 -0.15774938406E+02  0.15477449590E+03  0.00000000000E+00 0.  1.
   -9000007    1    1    2    0  501  0.35088298289E+03 -0.26169929696E+03 -0.29847728288E+02  0.59371396867E+03  0.40000000000E+03 0.  1.
<mgrwt>
<rscale>  2 0.59266845E+03</rscale>
<asrwt>0</asrwt>
<pdfrwt beam="1">  1        1 0.72847510E-01 0.59266845E+03</pdfrwt>
<pdfrwt beam="2">  1       -1 0.12682565E+00 0.59266845E+03</pdfrwt>
<totfact> 0.26879031E+01</totfact>
</mgrwt>
</event>
<event>
 6    1  0.9205235E-004  0.4045894E+03  0.7818608E-02  0.1042202E+00
         -2   -1    0    0    0  501 -0.00000000000E+00  0.00000000000E+00  0.14908573341E+03  0.14908573341E+03  0.00000000000E+00 0. -1.
          2   -1    0    0  502    0  0.00000000000E+00 -0.00000000000E+00 -0.11019613859E+04  0.11019613859E+04  0.00000000000E+00 0.  1.
    9000007    2    1    2  502    0  0.50093057110E+02 -0.35990986021E+02 -0.43865825576E+03  0.59665870520E+03  0.39971975144E+03 0.  0.
    9000005    1    3    3    0    0  0.27884863301E+02 -0.14333014457E+03 -0.15632850605E+01  0.14602924295E+03  0.99999687468E+00 0.  0.
          4    1    3    3  502    0  0.22208193809E+02  0.10733915855E+03 -0.43709497070E+03  0.45062946224E+03  0.00000000000E+00 0.  1.
   -9000007    1    1    2    0  501 -0.50093057110E+02  0.35990986021E+02 -0.51421739677E+03  0.65438841416E+03  0.40000000000E+03 0.  1.
<mgrwt>
<rscale>  2 0.40458938E+03</rscale>
<asrwt>0</asrwt>
<pdfrwt beam="1">  1        2 0.16953252E+00 0.40458938E+03</pdfrwt>
<pdfrwt beam="2">  1       -2 0.22936266E-01 0.40458938E+03</pdfrwt>
<totfact> 0.37467707E+02</totfact>
</mgrwt>
</event>
<event>
 6    1  0.9205235E-004  0.5160320E+03  0.7818608E-02  0.1009677E+00
         -1   -1    0    0    0  501 -0.00000000000E+00  0.00000000000E+00  0.19546305604E+03  0.19546305604E+03  0.00000000000E+00 0. -1.
          1   -1    0    0  502    0  0.00000000000E+00 -0.00000000000E+00 -0.15229380864E+04  0.15229380864E+04  0.00000000000E+00 0.  1.
    9000007    2    1    2  502    0  0.27518587908E+03  0.17736681498E+03 -0.38373842209E+03  0.64237835416E+03  0.39775434404E+03 0.  0.
    9000005    1    3    3    0    0  0.14335841814E+03  0.16358486802E+03  0.19044761309E+02  0.21834685256E+03  0.99999687468E+00 0.  0.
          4    1    3    3  502    0  0.13182746094E+03  0.13781946966E+02 -0.40278318340E+03  0.42403150160E+03  0.00000000000E+00 0.  1.
   -9000007    1    1    2    0  501 -0.27518587908E+03 -0.17736681498E+03 -0.94373660828E+03  0.10760227883E+04  0.40000000000E+03 0.  1.
<mgrwt>
<rscale>  2 0.51603198E+03</rscale>
<asrwt>0</asrwt>
<pdfrwt beam="1">  1        1 0.23429816E+00 0.51603198E+03</pdfrwt>
<pdfrwt beam="2">  1       -1 0.30071240E-01 0.51603198E+03</pdfrwt>
<totfact> 0.67666815E+01</totfact>
</mgrwt>
</event>
<event>
 6    1  0.9205235E-004  0.7036893E+03  0.7818608E-02  0.9710944E-01
         -2   -1    0    0    0  501 -0.00000000000E+00  0.00000000000E+00  0.52161781343E+03  0.52161781343E+03  0.00000000000E+00 0.  1.
          2   -1    0    0  502    0  0.00000000000E+00 -0.00000000000E+00 -0.10240113074E+04  0.10240113074E+04  0.00000000000E+00 0. -1.
    9000007    2    1    2  502    0  0.39015936242E+03  0.42768198099E+03 -0.45993353910E+03  0.84069007896E+03  0.40010591538E+03 0.  0.
    9000005    1    3    3    0    0  0.33851545424E+03  0.14864304009E+03 -0.41083372937E+03  0.55269595558E+03  0.99999687468E+00 0.  0.
          4    1    3    3  502    0  0.51643908180E+02  0.27903894090E+03 -0.49099809734E+02  0.28799412339E+03  0.00000000000E+00 0.  1.
   -9000007    1    1    2    0  501 -0.39015936242E+03 -0.42768198099E+03 -0.42459954833E+02  0.70493904184E+03  0.40000000000E+03 0. -1.
<mgrwt>
<rscale>  2 0.70368926E+03</rscale>
<asrwt>0</asrwt>
<pdfrwt beam="1">  1        2 0.15754020E+00 0.70368926E+03</pdfrwt>
<pdfrwt beam="2">  1       -2 0.80248896E-01 0.70368926E+03</pdfrwt>
<totfact> 0.34070903E+01</totfact>
</mgrwt>
</event>
<event>
 6    1  0.9205235E-004  0.5256560E+03  0.7818608E-02  0.1007291E+00
          2   -1    0    0  502    0  0.00000000000E+00  0.00000000000E+00  0.41054594552E+03  0.41054594552E+03  0.00000000000E+00 0.  1.
         -2   -1    0    0    0  501 -0.00000000000E+00 -0.00000000000E+00 -0.67772893280E+03  0.67772893280E+03  0.00000000000E+00 0. -1.
    9000007    2    1    2  502    0 -0.33955463831E+03  0.29294778737E+02 -0.17888469648E+03  0.55540329471E+03  0.40039673910E+03 0.  0.
    9000005    1    3    3    0    0 -0.16100950658E+03  0.21335658034E+03 -0.66602371780E+02  0.27546681743E+03  0.99999687468E+00 0.  0.
          4    1    3    3  502    0 -0.17854513173E+03 -0.18406180160E+03 -0.11228232470E+03  0.27993647728E+03  0.00000000000E+00 0.  1.
   -9000007    1    1    2    0  501  0.33955463831E+03 -0.29294778737E+02 -0.88298290810E+02  0.53287158361E+03  0.40000000000E+03 0. -1.
<mgrwt>
<rscale>  2 0.52565603E+03</rscale>
<asrwt>0</asrwt>
<pdfrwt beam="1">  1        2 0.63160915E-01 0.52565603E+03</pdfrwt>
<pdfrwt beam="2">  1       -2 0.10426599E+00 0.52565603E+03</pdfrwt>
<totfact> 0.59289923E+01</totfact>
</mgrwt>
</event>
<event>
 6    1  0.9205235E-004  0.4035286E+03  0.7818608E-02  0.1042565E+00
         -1   -1    0    0    0  501 -0.00000000000E+00  0.00000000000E+00  0.27424002380E+03  0.27424002380E+03  0.00000000000E+00 0. -1.
          1   -1    0    0  502    0  0.00000000000E+00 -0.00000000000E+00 -0.59570743230E+03  0.59570743230E+03  0.00000000000E+00 0.  1.
    9000007    2    1    2  502    0 -0.89147311295E+01  0.49716745478E+02 -0.18568001727E+03  0.44451891588E+03  0.40071033248E+03 0.  0.
    9000005    1    3    3    0    0 -0.74289569090E+02  0.14004775200E+03  0.64081810301E+02  0.17099646582E+03  0.99999687468E+00 0.  0.
          4    1    3    3  502    0  0.65374837961E+02 -0.90331006526E+02 -0.24976182757E+03  0.27352245007E+03  0.00000000000E+00 0.  1.
   -9000007    1    1    2    0  501  0.89147311295E+01 -0.49716745478E+02 -0.13578739123E+03  0.42542854021E+03  0.40000000000E+03 0.  1.
<mgrwt>
<rscale>  2 0.40352864E+03</rscale>
<asrwt>0</asrwt>
<pdfrwt beam="1">  1        1 0.91647298E-01 0.40352864E+03</pdfrwt>
<pdfrwt beam="2">  1       -1 0.42190773E-01 0.40352864E+03</pdfrwt>
<totfact> 0.19837629E+02</totfact>
</mgrwt>
</event>
<event>
 6    1  0.9205235E-004  0.5325733E+03  0.7818608E-02  0.1005610E+00
         -2   -1    0    0    0  501 -0.00000000000E+00  0.00000000000E+00  0.33284818879E+03  0.33284818879E+03  0.00000000000E+00 0.  1.
          2   -1    0    0  502    0  0.00000000000E+00 -0.00000000000E+00 -0.85529321426E+03  0.85529321426E+03  0.00000000000E+00 0. -1.
    9000007    2    1    2  502    0  0.30259612130E+03  0.17651135279E+03 -0.29768308305E+03  0.61087318025E+03  0.40228118788E+03 0.  0.
    9000005    1    3    3    0    0  0.28226232896E+03  0.24480726932E+03 -0.35803839999E+03  0.51748924368E+03  0.99999687468E+00 0.  0.
          4    1    3    3  502    0  0.20333792335E+02 -0.68295916531E+02  0.60355316942E+02  0.93383936567E+02  0.00000000000E+00 0.  1.
   -9000007    1    1    2    0  501 -0.30259612130E+03 -0.17651135279E+03 -0.22476194242E+03  0.57726822280E+03  0.40000000000E+03 0.  1.
<mgrwt>
<rscale>  2 0.53257325E+03</rscale>
<asrwt>0</asrwt>
<pdfrwt beam="1">  1        2 0.13158357E+00 0.53257325E+03</pdfrwt>
<pdfrwt beam="2">  1       -2 0.51207414E-01 0.53257325E+03</pdfrwt>
<totfact> 0.11671321E+02</totfact>
</mgrwt>
</event>
<event>
 6    1  0.9205235E-004  0.4499105E+03  0.7818608E-02  0.1027749E+00
          2   -1    0    0  502    0  0.00000000000E+00  0.00000000000E+00  0.27109376177E+03  0.27109376177E+03  0.00000000000E+00 0.  1.
         -2   -1    0    0    0  501 -0.00000000000E+00 -0.00000000000E+00 -0.14097089950E+04  0.14097089950E+04  0.00000000000E+00 0. -1.
    9000007    2    1    2  502    0  0.18759020178E+03 -0.84582623904E+02  0.69902572370E+01  0.45004841741E+03  0.40018796865E+03 0.  0.
    9000005    1    3    3    0    0  0.14269024854E+03 -0.18321073981E+03 -0.13716233278E+03  0.26970574288E+03  0.99999687468E+00 0.  0.
          4    1    3    3  502    0  0.44899953241E+02  0.98628115910E+02  0.14415259002E+03  0.18034267454E+03  0.00000000000E+00 0.  1.
   -9000007    1    1    2    0  501 -0.18759020178E+03  0.84582623904E+02 -0.11456054905E+04  0.12307543394E+04  0.40000000000E+03 0.  1.
<mgrwt>
<rscale>  2 0.44991054E+03</rscale>
<asrwt>0</asrwt>
<pdfrwt beam="1">  1        2 0.41706732E-01 0.44991054E+03</pdfrwt>
<pdfrwt beam="2">  1       -2 0.21687831E+00 0.44991054E+03</pdfrwt>
<totfact> 0.13449204E+01</totfact>
</mgrwt>
</event>
<event>
 6    1  0.9205235E-004  0.4120670E+03  0.7818608E-02  0.1039680E+00
         -2   -1    0    0    0  501 -0.00000000000E+00  0.00000000000E+00  0.99109976256E+02  0.99109976256E+02  0.00000000000E+00 0. -1.
          2   -1    0    0  502    0  0.00000000000E+00 -0.00000000000E+00 -0.17217795073E+04  0.17217795073E+04  0.00000000000E+00 0.  1.
    9000007    2    1    2  502    0  0.94784330795E+02 -0.28187463544E+02 -0.87550032751E+03  0.96763663641E+03  0.40005153941E+03 0.  0.
    9000005    1    3    3    0    0  0.19211848362E+03 -0.11992035375E+03 -0.29489923651E+03  0.37182921171E+03  0.99999687468E+00 0.  0.
          4    1    3    3  502    0 -0.97334152828E+02  0.91732890210E+02 -0.58060109100E+03  0.59580742470E+03  0.00000000000E+00 0.  1.
   -9000007    1    1    2    0  501 -0.94784330795E+02  0.28187463544E+02 -0.74716920358E+03  0.85325284719E+03  0.40000000000E+03 0.  1.
<mgrwt>
<rscale>  2 0.41206701E+03</rscale>
<asrwt>0</asrwt>
<pdfrwt beam="1">  1        2 0.26488913E+00 0.41206701E+03</pdfrwt>
<pdfrwt beam="2">  1       -2 0.15247690E-01 0.41206701E+03</pdfrwt>
<totfact> 0.34096287E+02</totfact>
</mgrwt>
</event>
<event>
 6    1  0.9205235E-004  0.5685828E+03  0.7818608E-02  0.9972820E-01
         -2   -1    0    0    0  501 -0.00000000000E+00  0.00000000000E+00  0.23100247528E+03  0.23100247528E+03  0.00000000000E+00 0.  1.
          2   -1    0    0  502    0  0.00000000000E+00 -0.00000000000E+00 -0.16911110698E+04  0.16911110698E+04  0.00000000000E+00 0. -1.
    9000007    2    1    2  502    0  0.34142022220E+03 -0.21470336118E+03 -0.33154717556E+03  0.65865947872E+03  0.40155133900E+03 0.  0.
    9000005    1    3    3    0    0  0.26679637477E+02 -0.22188884015E+03 -0.24612651416E+03  0.33245408916E+03  0.99999687468E+00 0.  0.
          4    1    3    3  502    0  0.31474058472E+03  0.71854789628E+01 -0.85420661400E+02  0.32620538956E+03  0.00000000000E+00 0.  1.
   -9000007    1    1    2    0  501 -0.34142022220E+03  0.21470336118E+03 -0.11285614190E+04  0.12634540664E+04  0.40000000000E+03 0. -1.
<mgrwt>
<rscale>  2 0.56858284E+03</rscale>
<asrwt>0</asrwt>
<pdfrwt beam="1">  1        2 0.26017094E+00 0.56858284E+03</pdfrwt>
<pdfrwt beam="2">  1       -2 0.35538842E-01 0.56858284E+03</pdfrwt>
<totfact> 0.77068558E+01</totfact>
</mgrwt>
</event>
<event>
 6    1  0.9205235E-004  0.4092189E+03  0.7818608E-02  0.1040633E+00
         -2   -1    0    0    0  501 -0.00000000000E+00  0.00000000000E+00  0.66322985581E+03  0.66322985581E+03  0.00000000000E+00 0.  1.
          2   -1    0    0  502    0  0.00000000000E+00 -0.00000000000E+00 -0.33688677971E+03  0.33688677971E+03  0.00000000000E+00 0. -1.
    9000007    2    1    2  502    0  0.67199319336E+02  0.48311732994E+02 -0.86889910464E+02  0.41907337271E+03  0.40152566931E+03 0.  0.
    9000005    1    3    3    0    0  0.23071851883E+03  0.51361942007E+02 -0.96351613482E+02  0.25525226234E+03  0.99999687468E+00 0.  0.
          4    1    3    3  502    0 -0.16351919949E+03 -0.30502090136E+01  0.94617030177E+01  0.16382111037E+03  0.00000000000E+00 0.  1.
   -9000007    1    1    2    0  501 -0.67199319336E+02 -0.48311732994E+02  0.41323298657E+03  0.58104326281E+03  0.40000000000E+03 0.  1.
<mgrwt>
<rscale>  2 0.40921887E+03</rscale>
<asrwt>0</asrwt>
<pdfrwt beam="1">  1        2 0.51828735E-01 0.40921887E+03</pdfrwt>
<pdfrwt beam="2">  1       -2 0.10203536E+00 0.40921887E+03</pdfrwt>
<totfact> 0.78464500E+01</totfact>
</mgrwt>
</event>
<event>
 6    1  0.9205235E-004  0.4072536E+03  0.7818608E-02  0.1041297E+00
         -2   -1    0    0    0  501 -0.00000000000E+00  0.00000000000E+00  0.39278416165E+03  0.39278416165E+03  0.00000000000E+00 0.  1.
          2   -1    0    0  502    0  0.00000000000E+00 -0.00000000000E+00 -0.55583331799E+03  0.55583331799E+03  0.00000000000E+00 0. -1.
    9000007    2    1    2  502    0 -0.66084129573E+02 -0.36798499528E+02  0.15096746010E+03  0.43448940499E+03  0.40033564329E+03 0.  0.
    9000005    1    3    3    0    0 -0.29714164659E+02  0.15640311004E+03 -0.35957042574E+02  0.16321388824E+03  0.99999687468E+00 0.  0.
          4    1    3    3  502    0 -0.36369964913E+02 -0.19320160956E+03  0.18692450268E+03  0.27127551675E+03  0.00000000000E+00 0.  1.
   -9000007    1    1    2    0  501  0.66084129573E+02  0.36798499528E+02 -0.31401661644E+03  0.51412807466E+03  0.40000000000E+03 0. -1.
<mgrwt>
<rscale>  2 0.40725361E+03</rscale>
<asrwt>0</asrwt>
<pdfrwt beam="1">  1        2 0.85512818E-01 0.40725361E+03</pdfrwt>
<pdfrwt beam="2">  1       -2 0.60428333E-01 0.40725361E+03</pdfrwt>
<totfact> 0.14326114E+02</totfact>
</mgrwt>
</event>
<event>
 6    1  0.9205235E-004  0.4101694E+03  0.7818608E-02  0.1040314E+00
          2   -1    0    0  502    0  0.00000000000E+00  0.00000000000E+00  0.10079614114E+04  0.10079614114E+04  0.00000000000E+00 0.  1.
         -2   -1    0    0    0  501 -0.00000000000E+00 -0.00000000000E+00 -0.26588474803E+03  0.26588474803E+03  0.00000000000E+00 0. -1.
    9000007    2    1    2  502    0 -0.11508987048E+02 -0.84455077141E+02 -0.16881279932E+02  0.41170795907E+03  0.40243427925E+03 0.  0.
    9000005    1    3    3    0    0  0.10611280386E+03  0.12320355683E+03 -0.51475115189E+02  0.17055711957E+03  0.99999687468E+00 0.  0.
          4    1    3    3  502    0 -0.11762179090E+03 -0.20765863397E+03  0.34593835257E+02  0.24115083951E+03  0.00000000000E+00 0.  1.
   -9000007    1    1    2    0  501  0.11508987048E+02  0.84455077141E+02  0.75895794334E+03  0.86213820040E+03  0.40000000000E+03 0.  1.
<mgrwt>
<rscale>  2 0.41016942E+03</rscale>
<asrwt>0</asrwt>
<pdfrwt beam="1">  1        2 0.15507098E+00 0.41016942E+03</pdfrwt>
<pdfrwt beam="2">  1       -2 0.40905346E-01 0.41016942E+03</pdfrwt>
<totfact> 0.14687620E+02</totfact>
</mgrwt>
</event>
<event>
 6    1  0.9205235E-004  0.4294851E+03  0.7818608E-02  0.1034023E+00
          2   -1    0    0  502    0  0.00000000000E+00  0.00000000000E+00  0.15716435680E+04  0.15716435680E+04  0.00000000000E+00 0. -1.
         -2   -1    0    0    0  501 -0.00000000000E+00 -0.00000000000E+00 -0.13210832159E+03  0.13210832159E+03  0.00000000000E+00 0.  1.
    9000007    2    1    2  502    0  0.10996876951E+03  0.10656301730E+03  0.10060851604E+04  0.10943851823E+04  0.40252052157E+03 0.  0.
    9000005    1    3    3    0    0  0.27599144568E+01  0.17315057208E+03  0.93218823223E+03  0.94813745736E+03  0.99999687468E+00 0.  0.
          4    1    3    3  502    0  0.10720885505E+03 -0.66587554776E+02  0.73896928174E+02  0.14624772492E+03  0.00000000000E+00 0.  1.
   -9000007    1    1    2    0  501 -0.10996876951E+03 -0.10656301730E+03  0.43345008599E+03  0.60936670730E+03  0.40000000000E+03 0.  1.
<mgrwt>
<rscale>  2 0.42948506E+03</rscale>
<asrwt>0</asrwt>
<pdfrwt beam="1">  1        2 0.24179130E+00 0.42948506E+03</pdfrwt>
<pdfrwt beam="2">  1       -2 0.20324358E-01 0.42948506E+03</pdfrwt>
<totfact> 0.25105141E+02</totfact>
</mgrwt>
</event>
<event>
 6    1  0.9205235E-004  0.4451894E+03  0.7818608E-02  0.1029166E+00
          2   -1    0    0  502    0  0.00000000000E+00  0.00000000000E+00  0.31260378197E+04  0.31260378197E+04  0.00000000000E+00 0.  1.
         -2   -1    0    0    0  501 -0.00000000000E+00 -0.00000000000E+00 -0.14098957151E+03  0.14098957151E+03  0.00000000000E+00 0. -1.
    9000007    2    1    2  502    0 -0.74524547073E+01 -0.19466574059E+03  0.28114366421E+03  0.52676275272E+03  0.40060822269E+03 0.  0.
    9000005    1    3    3    0    0 -0.50710661729E+02 -0.17576192760E+03 -0.52086911841E+02  0.19020481799E+03  0.99999687468E+00 0.  0.
          4    1    3    3  502    0  0.43258207022E+02 -0.18903812996E+02  0.33323057605E+03  0.33655793473E+03  0.00000000000E+00 0.  1.
   -9000007    1    1    2    0  501  0.74524547073E+01  0.19466574059E+03  0.27039045839E+04  0.27402646385E+04  0.40000000000E+03 0.  1.
<mgrwt>
<rscale>  2 0.44518941E+03</rscale>
<asrwt>0</asrwt>
<pdfrwt beam="1">  1        2 0.48092884E+00 0.44518941E+03</pdfrwt>
<pdfrwt beam="2">  1       -2 0.21690706E-01 0.44518941E+03</pdfrwt>
<totfact> 0.30291192E+01</totfact>
</mgrwt>
</event>
<event>
 6    1  0.9205235E-004  0.5345974E+03  0.7818608E-02  0.1005123E+00
         -2   -1    0    0    0  501 -0.00000000000E+00  0.00000000000E+00  0.69669551776E+03  0.69669551776E+03  0.00000000000E+00 0.  1.
          2   -1    0    0  502    0  0.00000000000E+00 -0.00000000000E+00 -0.64666825267E+03  0.64666825267E+03  0.00000000000E+00 0. -1.
    9000007    2    1    2  502    0 -0.35505633687E+03 -0.60722082311E+01  0.43116411999E+03  0.68657828321E+03  0.39923096892E+03 0.  0.
    9000005    1    3    3    0    0 -0.16717294960E+03 -0.48503611565E+02 -0.39090284387E+02  0.17840528507E+03  0.99999687468E+00 0.  0.
          4    1    3    3  502    0 -0.18788338726E+03  0.42431403334E+02  0.47025440438E+03  0.50817299814E+03  0.00000000000E+00 0.  1.
   -9000007    1    1    2    0  501  0.35505633687E+03  0.60722082311E+01 -0.38113685491E+03  0.65678548723E+03  0.40000000000E+03 0. -1.
<mgrwt>
<rscale>  2 0.53459741E+03</rscale>
<asrwt>0</asrwt>
<pdfrwt beam="1">  1        2 0.99487423E-01 0.53459741E+03</pdfrwt>
<pdfrwt beam="2">  1       -2 0.10718393E+00 0.53459741E+03</pdfrwt>
<totfact> 0.32736663E+01</totfact>
</mgrwt>
</event>
<event>
 6    1  0.9205235E-004  0.4801529E+03  0.7818608E-02  0.1019093E+00
         -1   -1    0    0    0  501 -0.00000000000E+00  0.00000000000E+00  0.39421117611E+03  0.39421117611E+03  0.00000000000E+00 0.  1.
          1   -1    0    0  502    0  0.00000000000E+00 -0.00000000000E+00 -0.74539820285E+03  0.74539820285E+03  0.00000000000E+00 0. -1.
    9000007    2    1    2  502    0  0.18851873063E+03  0.18718003525E+03 -0.44004521165E+03  0.65127398763E+03  0.39992792009E+03 0.  0.
    9000005    1    3    3    0    0  0.79333654781E+02  0.27903501916E+03 -0.41510573765E+03  0.50642683985E+03  0.99999687468E+00 0.  0.
          4    1    3    3  502    0  0.10918507585E+03 -0.91854983903E+02 -0.24939474008E+02  0.14484714778E+03  0.00000000000E+00 0.  1.
   -9000007    1    1    2    0  501 -0.18851873063E+03 -0.18718003525E+03  0.88858184911E+02  0.48833539133E+03  0.40000000000E+03 0. -1.
<mgrwt>
<rscale>  2 0.48015294E+03</rscale>
<asrwt>0</asrwt>
<pdfrwt beam="1">  1        1 0.11467664E+00 0.48015294E+03</pdfrwt>
<pdfrwt beam="2">  1       -1 0.60647874E-01 0.48015294E+03</pdfrwt>
<totfact> 0.71548400E+01</totfact>
</mgrwt>
</event>
<event>
 6    1  0.9205235E-004  0.4136004E+03  0.7818608E-02  0.1039170E+00
         -1   -1    0    0    0  501 -0.00000000000E+00  0.00000000000E+00  0.11141524345E+03  0.11141524345E+03  0.00000000000E+00 0.  1.
          1   -1    0    0  502    0  0.00000000000E+00 -0.00000000000E+00 -0.16298347106E+04  0.16298347106E+04  0.00000000000E+00 0. -1.
    9000007    2    1    2  502    0 -0.93353541449E+02 -0.45704491135E+02 -0.55017319797E+03  0.68848947703E+03  0.40065375077E+03 0.  0.
    9000005    1    3    3    0    0 -0.80900891994E+02 -0.22195957048E+03 -0.29118009782E+03  0.37496380441E+03  0.99999687468E+00 0.  0.
          4    1    3    3  502    0 -0.12452649455E+02  0.17625507934E+03 -0.25899310014E+03  0.31352567262E+03  0.00000000000E+00 0.  1.
   -9000007    1    1    2    0  501  0.93353541449E+02  0.45704491135E+02 -0.96824626918E+03  0.10527604770E+04  0.40000000000E+03 0. -1.
<mgrwt>
<rscale>  2 0.41360041E+03</rscale>
<asrwt>0</asrwt>
<pdfrwt beam="1">  1        1 0.25074379E+00 0.41360041E+03</pdfrwt>
<pdfrwt beam="2">  1       -1 0.17140807E-01 0.41360041E+03</pdfrwt>
<totfact> 0.14932615E+02</totfact>
</mgrwt>
</event>
<event>
 6    1  0.9205235E-004  0.4545340E+03  0.7818608E-02  0.1026379E+00
          2   -1    0    0  502    0  0.00000000000E+00  0.00000000000E+00  0.10985218198E+04  0.10985218198E+04  0.00000000000E+00 0.  1.
         -2   -1    0    0    0  501 -0.00000000000E+00 -0.00000000000E+00 -0.32089834969E+03  0.32089834969E+03  0.00000000000E+00 0. -1.
    9000007    2    1    2  502    0 -0.16894679647E+03 -0.13281950103E+03 -0.67561216735E+02  0.45998221174E+03  0.40104248805E+03 0.  0.
    9000005    1    3    3    0    0 -0.19629768952E+03  0.79054515685E+02 -0.11542692027E+03  0.24105346560E+03  0.99999687468E+00 0.  0.
          4    1    3    3  502    0  0.27350893056E+02 -0.21187401671E+03  0.47865703536E+02  0.21892874613E+03  0.00000000000E+00 0.  1.
   -9000007    1    1    2    0  501  0.16894679647E+03  0.13281950103E+03  0.84518468684E+03  0.95943795775E+03  0.40000000000E+03 0.  1.
<mgrwt>
<rscale>  2 0.45453400E+03</rscale>
<asrwt>0</asrwt>
<pdfrwt beam="1">  1        2 0.16900335E+00 0.45453400E+03</pdfrwt>
<pdfrwt beam="2">  1       -2 0.49368977E-01 0.45453400E+03</pdfrwt>
<totfact> 0.88663335E+01</totfact>
</mgrwt>
</event>
<event>
 6    1  0.9205235E-004  0.5738716E+03  0.7818608E-02  0.9961148E-01
         -1   -1    0    0    0  501 -0.00000000000E+00  0.00000000000E+00  0.94570339735E+03  0.94570339735E+03  0.00000000000E+00 0.  1.
          1   -1    0    0  502    0  0.00000000000E+00 -0.00000000000E+00 -0.36272614447E+03  0.36272614447E+03  0.00000000000E+00 0. -1.
    9000007    2    1    2  502    0 -0.40323454582E+03 -0.83264524854E+02  0.16064823508E+03  0.59576350550E+03  0.39949370334E+03 0.  0.
    9000005    1    3    3    0    0  0.72788860916E+02 -0.50505579085E+02 -0.96728366489E+01  0.89126850919E+02  0.99999687468E+00 0.  0.
          4    1    3    3  502    0 -0.47602340673E+03 -0.32758945769E+02  0.17032107172E+03  0.50663665458E+03  0.00000000000E+00 0.  1.
   -9000007    1    1    2    0  501  0.40323454582E+03  0.83264524854E+02  0.42232901781E+03  0.71266603632E+03  0.40000000000E+03 0.  1.
<mgrwt>
<rscale>  2 0.57387161E+03</rscale>
<asrwt>0</asrwt>
<pdfrwt beam="1">  1        1 0.55804023E-01 0.57387161E+03</pdfrwt>
<pdfrwt beam="2">  1       -1 0.14549283E+00 0.57387161E+03</pdfrwt>
<totfact> 0.27005220E+01</totfact>
</mgrwt>
</event>
<event>
 6    1  0.9205235E-004  0.4312693E+03  0.7818608E-02  0.1033460E+00
         -1   -1    0    0    0  501 -0.00000000000E+00  0.00000000000E+00  0.20971386617E+03  0.20971386617E+03  0.00000000000E+00 0. -1.
          1   -1    0    0  502    0  0.00000000000E+00 -0.00000000000E+00 -0.10167936646E+04  0.10167936646E+04  0.00000000000E+00 0.  1.
    9000007    2    1    2  502    0  0.18174528877E+02 -0.15974249646E+03 -0.18448093211E+03  0.46922467278E+03  0.40036308591E+03 0.  0.
    9000005    1    3    3    0    0  0.18533952397E+03 -0.18524468482E+03 -0.12055783876E+03  0.28844674531E+03  0.99999687468E+00 0.  0.
          4    1    3    3  502    0 -0.16716499509E+03  0.25502188365E+02 -0.63923093348E+02  0.18077792747E+03  0.00000000000E+00 0.  1.
   -9000007    1    1    2    0  501 -0.18174528877E+02  0.15974249646E+03 -0.62259886636E+03  0.75728285803E+03  0.40000000000E+03 0.  1.
<mgrwt>
<rscale>  2 0.43126932E+03</rscale>
<asrwt>0</asrwt>
<pdfrwt beam="1">  1        1 0.15642979E+00 0.43126932E+03</pdfrwt>
<pdfrwt beam="2">  1       -1 0.32263672E-01 0.43126932E+03</pdfrwt>
<totfact> 0.13809165E+02</totfact>
</mgrwt>
</event>
<event>
 6    1  0.9205235E-004  0.4003292E+03  0.7818608E-02  0.1043666E+00
          1   -1    0    0  502    0  0.00000000000E+00  0.00000000000E+00  0.47569869025E+03  0.47569869025E+03  0.00000000000E+00 0.  1.
         -1   -1    0    0    0  501 -0.00000000000E+00 -0.00000000000E+00 -0.45500500708E+03  0.45500500708E+03  0.00000000000E+00 0. -1.
    9000007    2    1    2  502    0  0.13265042678E+02  0.43870325151E+01 -0.22673708666E+03  0.46015381340E+03  0.40017073620E+03 0.  0.
    9000005    1    3    3    0    0  0.11969875574E+01 -0.14255289787E+03 -0.27100668086E+03  0.30621623493E+03  0.99999687468E+00 0.  0.
          4    1    3    3  502    0  0.12068055121E+02  0.14693993038E+03  0.44269594202E+02  0.15393757847E+03  0.00000000000E+00 0.  1.
   -9000007    1    1    2    0  501 -0.13265042678E+02 -0.43870325151E+01  0.24743076982E+03  0.47054988393E+03  0.40000000000E+03 0.  1.
<mgrwt>
<rscale>  2 0.40032924E+03</rscale>
<asrwt>0</asrwt>
<pdfrwt beam="1">  1        1 0.73184414E-01 0.40032924E+03</pdfrwt>
<pdfrwt beam="2">  1       -1 0.70000770E-01 0.40032924E+03</pdfrwt>
<totfact> 0.10278982E+02</totfact>
</mgrwt>
</event>
<event>
 6    1  0.9205235E-004  0.4253338E+03  0.7818608E-02  0.1035344E+00
         -3   -1    0    0    0  501 -0.00000000000E+00  0.00000000000E+00  0.34829783927E+03  0.34829783927E+03  0.00000000000E+00 0.  1.
          3   -1    0    0  502    0  0.00000000000E+00 -0.00000000000E+00 -0.59670090965E+03  0.59670090965E+03  0.00000000000E+00 0. -1.
    9000007    2    1    2  502    0 -0.14124227057E+03 -0.33818397249E+02 -0.29420226418E+03  0.51699100467E+03  0.39953931429E+03 0.  0.
    9000005    1    3    3    0    0  0.76721570364E+02  0.43265866986E+01 -0.28537174021E+03  0.29553840497E+03  0.99999687468E+00 0.  0.
          4    1    3    3  502    0 -0.21796384094E+03 -0.38144983947E+02 -0.88305239760E+01  0.22145259969E+03  0.00000000000E+00 0.  1.
   -9000007    1    1    2    0  501  0.14124227057E+03  0.33818397249E+02  0.45799193810E+02  0.42800774426E+03  0.40000000000E+03 0.  1.
<mgrwt>
<rscale>  2 0.42533375E+03</rscale>
<asrwt>0</asrwt>
<pdfrwt beam="1">  1        3 0.91800139E-01 0.42533375E+03</pdfrwt>
<pdfrwt beam="2">  1       -3 0.53584284E-01 0.42533375E+03</pdfrwt>
<totfact> 0.95498054E+00</totfact>
</mgrwt>
</event>
<event>
 6    1  0.9205235E-004  0.4471519E+03  0.7818608E-02  0.1028575E+00
         -2   -1    0    0    0  501 -0.00000000000E+00  0.00000000000E+00  0.77123468500E+02  0.77123468500E+02  0.00000000000E+00 0. -1.
          2   -1    0    0  502    0  0.00000000000E+00 -0.00000000000E+00 -0.31840763453E+04  0.31840763453E+04  0.00000000000E+00 0.  1.
    9000007    2    1    2  502    0 -0.62855399707E+02  0.18778613427E+03 -0.85296705545E+03  0.96344732140E+03  0.40182522311E+03 0.  0.
    9000005    1    3    3    0    0 -0.12190390713E+03  0.25356887579E+03 -0.33266192495E+03  0.43568646255E+03  0.99999687468E+00 0.  0.
          4    1    3    3  502    0  0.59048507420E+02 -0.65782741520E+02 -0.52030513050E+03  0.52776085885E+03  0.00000000000E+00 0.  1.
   -9000007    1    1    2    0  501  0.62855399707E+02 -0.18778613427E+03 -0.22539858213E+04  0.22977524924E+04  0.40000000000E+03 0.  1.
<mgrwt>
<rscale>  2 0.44715193E+03</rscale>
<asrwt>0</asrwt>
<pdfrwt beam="1">  1        2 0.48985795E+00 0.44715193E+03</pdfrwt>
<pdfrwt beam="2">  1       -2 0.11865148E-01 0.44715193E+03</pdfrwt>
<totfact> 0.77254145E+01</totfact>
</mgrwt>
</event>
<event>
 6    1  0.9205235E-004  0.6428934E+03  0.7818608E-02  0.9820206E-01
          1   -1    0    0  502    0  0.00000000000E+00  0.00000000000E+00  0.13675775422E+03  0.13675775422E+03  0.00000000000E+00 0.  1.
         -1   -1    0    0    0  501 -0.00000000000E+00 -0.00000000000E+00 -0.30472532548E+04  0.30472532548E+04  0.00000000000E+00 0. -1.
    9000007    2    1    2  502    0  0.24673452222E+03  0.43852942961E+03 -0.13111714310E+04  0.14603453034E+04  0.40031474952E+03 0.  0.
    9000005    1    3    3    0    0  0.27918625024E+03  0.38239611876E+03 -0.69606450980E+03  0.84183047923E+03  0.99999687468E+00 0.  0.
          4    1    3    3  502    0 -0.32451728023E+02  0.56133310846E+02 -0.61510692121E+03  0.61851482420E+03  0.00000000000E+00 0.  1.
   -9000007    1    1    2    0  501 -0.24673452222E+03 -0.43852942961E+03 -0.15993240695E+04  0.17236657055E+04  0.40000000000E+03 0. -1.
<mgrwt>
<rscale>  2 0.64289339E+03</rscale>
<asrwt>0</asrwt>
<pdfrwt beam="1">  1        1 0.21039656E-01 0.64289339E+03</pdfrwt>
<pdfrwt beam="2">  1       -1 0.46880817E+00 0.64289339E+03</pdfrwt>
<totfact> 0.64016988E-01</totfact>
</mgrwt>
</event>
<event>
 6    1  0.9205235E-004  0.4301762E+03  0.7818608E-02  0.1033804E+00
          2   -1    0    0  502    0  0.00000000000E+00  0.00000000000E+00  0.69538040902E+03  0.69538040902E+03  0.00000000000E+00 0. -1.
         -2   -1    0    0    0  501 -0.00000000000E+00 -0.00000000000E+00 -0.28426059397E+03  0.28426059397E+03  0.00000000000E+00 0.  1.
    9000007    2    1    2  502    0 -0.29880338409E+02  0.15475243633E+03  0.32942235327E+03  0.54201601920E+03  0.40052606290E+03 0.  0.
    9000005    1    3    3    0    0 -0.45925083237E+02  0.77259757250E+02  0.41548715569E+03  0.42509852964E+03  0.99999687468E+00 0.  0.
          4    1    3    3  502    0  0.16044744828E+02  0.77492679082E+02 -0.86064802427E+02  0.11691748956E+03  0.00000000000E+00 0.  1.
   -9000007    1    1    2    0  501  0.29880338409E+02 -0.15475243633E+03  0.81697461786E+02  0.43762498379E+03  0.40000000000E+03 0. -1.
<mgrwt>
<rscale>  2 0.43017624E+03</rscale>
<asrwt>0</asrwt>
<pdfrwt beam="1">  1        2 0.10698160E+00 0.43017624E+03</pdfrwt>
<pdfrwt beam="2">  1       -2 0.43732399E-01 0.43017624E+03</pdfrwt>
<totfact> 0.21075898E+02</totfact>
</mgrwt>
</event>
<event>
 6    1  0.9205235E-004  0.5074523E+03  0.7818608E-02  0.1011852E+00
         -1   -1    0    0    0  501 -0.00000000000E+00  0.00000000000E+00  0.40898073643E+03  0.40898073643E+03  0.00000000000E+00 0.  1.
          1   -1    0    0  502    0  0.00000000000E+00 -0.00000000000E+00 -0.65094926680E+03  0.65094926680E+03  0.00000000000E+00 0. -1.
    9000007    2    1    2  502    0  0.25327343379E+03 -0.18297389979E+03 -0.25055624024E+02  0.50795347365E+03  0.39970247288E+03 0.  0.
    9000005    1    3    3    0    0  0.37009880859E+02 -0.13488776754E+03 -0.18700288190E+03  0.23352841143E+03  0.99999687468E+00 0.  0.
          4    1    3    3  502    0  0.21626355293E+03 -0.48086132248E+02  0.16194725787E+03  0.27442506221E+03  0.00000000000E+00 0.  1.
   -9000007    1    1    2    0  501 -0.25327343379E+03  0.18297389979E+03 -0.21691290635E+03  0.55197652958E+03  0.40000000000E+03 0. -1.
<mgrwt>
<rscale>  2 0.50745235E+03</rscale>
<asrwt>0</asrwt>
<pdfrwt beam="1">  1        1 0.10014604E+00 0.50745235E+03</pdfrwt>
<pdfrwt beam="2">  1       -1 0.62920113E-01 0.50745235E+03</pdfrwt>
<totfact> 0.81189201E+01</totfact>
</mgrwt>
</event>
<event>
 6    1  0.9205235E-004  0.5331213E+03  0.7818608E-02  0.1005478E+00
          1   -1    0    0  502    0  0.00000000000E+00  0.00000000000E+00  0.28278780663E+04  0.28278780663E+04  0.00000000000E+00 0.  1.
         -1   -1    0    0    0  501 -0.00000000000E+00 -0.00000000000E+00 -0.10103470657E+03  0.10103470657E+03  0.00000000000E+00 0. -1.
    9000007    2    1    2  502    0  0.34424081008E+03 -0.57380844135E+02  0.14749969947E+04  0.15691651425E+04  0.40604040869E+03 0.  0.
    9000005    1    3    3    0    0  0.33012569681E+03 -0.14348309495E+03  0.68002036229E+03  0.76941475639E+03  0.99999687468E+00 0.  0.
          4    1    3    3  502    0  0.14115113272E+02  0.86102250817E+02  0.79497663238E+03  0.79975038608E+03  0.00000000000E+00 0.  1.
   -9000007    1    1    2    0  501 -0.34424081008E+03  0.57380844135E+02  0.12518463650E+04  0.13597476303E+04  0.40000000000E+03 0.  1.
<mgrwt>
<rscale>  2 0.53312126E+03</rscale>
<asrwt>0</asrwt>
<pdfrwt beam="1">  1        1 0.43505810E+00 0.53312126E+03</pdfrwt>
<pdfrwt beam="2">  1       -1 0.15543803E-01 0.53312126E+03</pdfrwt>
<totfact> 0.26990367E+01</totfact>
</mgrwt>
</event>
<event>
 6    1  0.9205235E-004  0.4093164E+03  0.7818608E-02  0.1040601E+00
         -4   -1    0    0    0  501 -0.00000000000E+00  0.00000000000E+00  0.23287742084E+03  0.23287742084E+03  0.00000000000E+00 0. -1.
          4   -1    0    0  502    0  0.00000000000E+00 -0.00000000000E+00 -0.71973073998E+03  0.71973073998E+03  0.00000000000E+00 0.  1.
    9000007    2    1    2  502    0 -0.74517817099E+02 -0.48539419628E+02 -0.23350006500E+03  0.47084384944E+03  0.39907727307E+03 0.  0.
    9000005    1    3    3    0    0  0.10210505589E+03 -0.10401705187E+03 -0.24529876312E+03  0.28533747160E+03  0.99999687468E+00 0.  0.
          4    1    3    3  502    0 -0.17662287299E+03  0.55477632246E+02  0.11798698127E+02  0.18550637784E+03  0.00000000000E+00 0.  1.
   -9000007    1    1    2    0  501  0.74517817099E+02  0.48539419628E+02 -0.25335325415E+03  0.48176431137E+03  0.40000000000E+03 0. -1.
<mgrwt>
<rscale>  2 0.40931639E+03</rscale>
<asrwt>0</asrwt>
<pdfrwt beam="1">  1        4 0.11072780E+00 0.40931639E+03</pdfrwt>
<pdfrwt beam="2">  1       -4 0.35827296E-01 0.40931639E+03</pdfrwt>
<totfact> 0.94656451E+00</totfact>
</mgrwt>
</event>
<event>
 6    1  0.9205235E-004  0.4295870E+03  0.7818608E-02  0.1033990E+00
          1   -1    0    0  502    0  0.00000000000E+00  0.00000000000E+00  0.26200585770E+04  0.26200585770E+04  0.00000000000E+00 0. -1.
         -1   -1    0    0    0  501 -0.00000000000E+00 -0.00000000000E+00 -0.86679304954E+02  0.86679304954E+02  0.00000000000E+00 0.  1.
    9000007    2    1    2  502    0 -0.15732869768E+03  0.14498936847E+01  0.68023428629E+03  0.80439701882E+03  0.39947648034E+03 0.  0.
    9000005    1    3    3    0    0 -0.50628930712E+02  0.10583257374E+03  0.10007397863E+02  0.11774960848E+03  0.99999687468E+00 0.  0.
          4    1    3    3  502    0 -0.10669976697E+03 -0.10438268006E+03  0.67022688843E+03  0.68664741035E+03  0.00000000000E+00 0.  1.
   -9000007    1    1    2    0  501  0.15732869768E+03 -0.14498936847E+01  0.18531449858E+04  0.19023408631E+04  0.40000000000E+03 0. -1.
<mgrwt>
<rscale>  2 0.42958705E+03</rscale>
<asrwt>0</asrwt>
<pdfrwt beam="1">  1        1 0.40308587E+00 0.42958705E+03</pdfrwt>
<pdfrwt beam="2">  1       -1 0.13335280E-01 0.42958705E+03</pdfrwt>
<totfact> 0.49080010E+01</totfact>
</mgrwt>
</event>
<event>
 6    1  0.9205235E-004  0.4557414E+03  0.7818608E-02  0.1026024E+00
          2   -1    0    0  502    0  0.00000000000E+00  0.00000000000E+00  0.31849705172E+03  0.31849705172E+03  0.00000000000E+00 0.  1.
         -2   -1    0    0    0  501 -0.00000000000E+00 -0.00000000000E+00 -0.68766265759E+03  0.68766265759E+03  0.00000000000E+00 0. -1.
    9000007    2    1    2  502    0  0.21777531601E+03 -0.13042805948E+02 -0.29898989445E+03  0.54515988987E+03  0.40026009730E+03 0.  0.
    9000005    1    3    3    0    0  0.11485039963E+03  0.19019015361E+03 -0.10408730162E+03  0.24535296040E+03  0.99999687468E+00 0.  0.
          4    1    3    3  502    0  0.10292491639E+03 -0.20323295956E+03 -0.19490259283E+03  0.29980692947E+03  0.00000000000E+00 0.  1.
   -9000007    1    1    2    0  501 -0.21777531601E+03  0.13042805948E+02 -0.70175711409E+02  0.46099981944E+03  0.40000000000E+03 0.  1.
<mgrwt>
<rscale>  2 0.45574143E+03</rscale>
<asrwt>0</asrwt>
<pdfrwt beam="1">  1        2 0.48999547E-01 0.45574143E+03</pdfrwt>
<pdfrwt beam="2">  1       -2 0.10579425E+00 0.45574143E+03</pdfrwt>
<totfact> 0.76288436E+01</totfact>
</mgrwt>
</event>
<event>
 6    1  0.9205235E-004  0.4086242E+03  0.7818608E-02  0.1040834E+00
          1   -1    0    0  502    0  0.00000000000E+00  0.00000000000E+00  0.21264971136E+04  0.21264971136E+04  0.00000000000E+00 0. -1.
         -1   -1    0    0    0  501 -0.00000000000E+00 -0.00000000000E+00 -0.89491814430E+02  0.89491814430E+02  0.00000000000E+00 0.  1.
    9000007    2    1    2  502    0 -0.68799493742E+02 -0.46862606324E+02  0.63067232319E+03  0.75150884502E+03  0.40011059808E+03 0.  0.
    9000005    1    3    3    0    0  0.12659604140E+03 -0.14131172763E+03  0.25802364862E+03  0.32026983202E+03  0.99999687468E+00 0.  0.
          4    1    3    3  502    0 -0.19539553514E+03  0.94449121305E+02  0.37264867458E+03  0.43123901300E+03  0.00000000000E+00 0.  1.
   -9000007    1    1    2    0  501  0.68799493742E+02  0.46862606324E+02  0.14063329760E+04  0.14644800830E+04  0.40000000000E+03 0. -1.
<mgrwt>
<rscale>  2 0.40862417E+03</rscale>
<asrwt>0</asrwt>
<pdfrwt beam="1">  1        1 0.32715336E+00 0.40862417E+03</pdfrwt>
<pdfrwt beam="2">  1       -1 0.13767973E-01 0.40862417E+03</pdfrwt>
<totfact> 0.10008168E+02</totfact>
</mgrwt>
</event>
<event>
 6    1  0.9205235E-004  0.4499905E+03  0.7818608E-02  0.1027725E+00
          4   -1    0    0  502    0  0.00000000000E+00  0.00000000000E+00  0.72700482614E+03  0.72700482614E+03  0.00000000000E+00 0.  1.
         -4   -1    0    0    0  501 -0.00000000000E+00 -0.00000000000E+00 -0.27901604570E+03  0.27901604570E+03  0.00000000000E+00 0. -1.
    9000007    2    1    2  502    0 -0.20487714959E+03  0.16696586840E+02  0.24515297381E+03  0.51266928636E+03  0.40059505011E+03 0.  0.
    9000005    1    3    3    0    0 -0.32465662536E+03 -0.11862447710E+02  0.20007127687E+03  0.38153919573E+03  0.99999687468E+00 0.  0.
          4    1    3    3  502    0  0.11977947577E+03  0.28559034551E+02  0.45081696940E+02  0.13113009063E+03  0.00000000000E+00 0.  1.
   -9000007    1    1    2    0  501  0.20487714959E+03 -0.16696586840E+02  0.20283580664E+03  0.49335158548E+03  0.40000000000E+03 0. -1.
<mgrwt>
<rscale>  2 0.44999053E+03</rscale>
<asrwt>0</asrwt>
<pdfrwt beam="1">  1        4 0.11184690E+00 0.44999053E+03</pdfrwt>
<pdfrwt beam="2">  1       -4 0.42925546E-01 0.44999053E+03</pdfrwt>
<totfact> 0.64585980E+00</totfact>
</mgrwt>
</event>
<event>
 6    1  0.9205235E-004  0.4602988E+03  0.7818608E-02  0.1024695E+00
         -1   -1    0    0    0  501 -0.00000000000E+00  0.00000000000E+00  0.59280043392E+03  0.59280043392E+03  0.00000000000E+00 0.  1.
          1   -1    0    0  502    0  0.00000000000E+00 -0.00000000000E+00 -0.38603306471E+03  0.38603306471E+03  0.00000000000E+00 0. -1.
    9000007    2    1    2  502    0 -0.20032078840E+03  0.10822507840E+03  0.23665030725E+03  0.51760245475E+03  0.40008480024E+03 0.  0.
    9000005    1    3    3    0    0 -0.12600148975E+03 -0.14365659850E+03  0.56968040196E+02  0.19939897519E+03  0.99999687468E+00 0.  0.
          4    1    3    3  502    0 -0.74319298651E+02  0.25188167690E+03  0.17968226705E+03  0.31820347956E+03  0.00000000000E+00 0.  1.
   -9000007    1    1    2    0  501  0.20032078840E+03 -0.10822507840E+03 -0.29882938041E+02  0.46123104389E+03  0.40000000000E+03 0. -1.
<mgrwt>
<rscale>  2 0.46029882E+03</rscale>
<asrwt>0</asrwt>
<pdfrwt beam="1">  1        1 0.59389702E-01 0.46029882E+03</pdfrwt>
<pdfrwt beam="2">  1       -1 0.91200067E-01 0.46029882E+03</pdfrwt>
<totfact> 0.77121011E+01</totfact>
</mgrwt>
</event>
<event>
 6    1  0.9205235E-004  0.4879696E+03  0.7818608E-02  0.1016968E+00
         -2   -1    0    0    0  501 -0.00000000000E+00  0.00000000000E+00  0.31363909274E+03  0.31363909274E+03  0.00000000000E+00 0.  1.
          2   -1    0    0  502    0  0.00000000000E+00 -0.00000000000E+00 -0.85373896267E+03  0.85373896267E+03  0.00000000000E+00 0. -1.
    9000007    2    1    2  502    0  0.17127285924E+02  0.27939922031E+03 -0.75692542502E+02  0.49355950862E+03  0.39939248782E+03 0.  0.
    9000005    1    3    3    0    0 -0.16764302794E+03  0.24537908309E+02  0.15069779650E+01  0.16943897054E+03  0.99999687468E+00 0.  0.
          4    1    3    3  502    0  0.18477031387E+03  0.25486131200E+03 -0.77199520467E+02  0.32412053808E+03  0.00000000000E+00 0.  1.
   -9000007    1    1    2    0  501 -0.17127285924E+02 -0.27939922031E+03 -0.46440732743E+03  0.67381854680E+03  0.40000000000E+03 0. -1.
<mgrwt>
<rscale>  2 0.48796959E+03</rscale>
<asrwt>0</asrwt>
<pdfrwt beam="1">  1        2 0.13134446E+00 0.48796959E+03</pdfrwt>
<pdfrwt beam="2">  1       -2 0.48252168E-01 0.48796959E+03</pdfrwt>
<totfact> 0.13247996E+02</totfact>
</mgrwt>
</event>
<event>
 6    1  0.9205235E-004  0.4746487E+03  0.7818608E-02  0.1020616E+00
         -2   -1    0    0    0  501 -0.00000000000E+00  0.00000000000E+00  0.32867189428E+03  0.32867189428E+03  0.00000000000E+00 0.  1.
          2   -1    0    0  502    0  0.00000000000E+00 -0.00000000000E+00 -0.79212706224E+03  0.79212706224E+03  0.00000000000E+00 0. -1.
    9000007    2    1    2  502    0 -0.24401903935E+03  0.75064889245E+02 -0.26133319014E+02  0.47548474722E+03  0.40027835978E+03 0.  0.
    9000005    1    3    3    0    0  0.54460512716E+02  0.14314429629E+03 -0.65965232406E+02  0.16675925428E+03  0.99999687468E+00 0.  0.
          4    1    3    3  502    0 -0.29847955207E+03 -0.68079407047E+02  0.39831913391E+02  0.30872549294E+03  0.00000000000E+00 0.  1.
   -9000007    1    1    2    0  501  0.24401903935E+03 -0.75064889245E+02 -0.43732184895E+03  0.64531420930E+03  0.40000000000E+03 0. -1.
<mgrwt>
<rscale>  2 0.47464870E+03</rscale>
<asrwt>0</asrwt>
<pdfrwt beam="1">  1        2 0.12186570E+00 0.47464870E+03</pdfrwt>
<pdfrwt beam="2">  1       -2 0.50564908E-01 0.47464870E+03</pdfrwt>
<totfact> 0.13324252E+02</totfact>
</mgrwt>
</event>
<event>
 6    1  0.9205235E-004  0.7353752E+03  0.7818608E-02  0.9658578E-01
          2   -1    0    0  502    0  0.00000000000E+00  0.00000000000E+00  0.13116790495E+04  0.13116790495E+04  0.00000000000E+00 0. -1.
         -2   -1    0    0    0  501 -0.00000000000E+00 -0.00000000000E+00 -0.46082583300E+03  0.46082583300E+03  0.00000000000E+00 0.  1.
    9000007    2    1    2  502    0  0.18675066410E+03  0.58754029334E+03  0.13801679989E+03  0.74868108726E+03  0.40174037205E+03 0.  0.
    9000005    1    3    3    0    0  0.34221059192E+01  0.31724895304E+03  0.24945571479E+03  0.40359356120E+03  0.99999687468E+00 0.  0.
          4    1    3    3  502    0  0.18332855819E+03  0.27029134030E+03 -0.11143891489E+03  0.34508752606E+03  0.00000000000E+00 0.  1.
   -9000007    1    1    2    0  501 -0.18675066410E+03 -0.58754029334E+03  0.71283641661E+03  0.10238237952E+04  0.40000000000E+03 0. -1.
<mgrwt>
<rscale>  2 0.73537516E+03</rscale>
<asrwt>0</asrwt>
<pdfrwt beam="1">  1        2 0.20179678E+00 0.73537516E+03</pdfrwt>
<pdfrwt beam="2">  1       -2 0.70896282E-01 0.73537516E+03</pdfrwt>
<totfact> 0.30065660E+01</totfact>
</mgrwt>
</event>
<event>
 6    1  0.9205235E-004  0.4167480E+03  0.7818608E-02  0.1038130E+00
          1   -1    0    0  502    0  0.00000000000E+00  0.00000000000E+00  0.47825467108E+03  0.47825467108E+03  0.00000000000E+00 0. -1.
         -1   -1    0    0    0  501 -0.00000000000E+00 -0.00000000000E+00 -0.39959145215E+03  0.39959145215E+03  0.00000000000E+00 0.  1.
    9000007    2    1    2  502    0 -0.29466167423E+02  0.10786930534E+03  0.17199137137E+03  0.45215352746E+03  0.40293639512E+03 0.  0.
    9000005    1    3    3    0    0 -0.15320627768E+03 -0.64079266600E+02  0.17368377002E+03  0.24030265894E+03  0.99999687468E+00 0.  0.
          4    1    3    3  502    0  0.12374011026E+03  0.17194857194E+03 -0.16923986518E+01  0.21185086852E+03  0.00000000000E+00 0.  1.
   -9000007    1    1    2    0  501  0.29466167423E+02 -0.10786930534E+03 -0.93328152438E+02  0.42569259577E+03  0.40000000000E+03 0.  1.
<mgrwt>
<rscale>  2 0.41674802E+03</rscale>
<asrwt>0</asrwt>
<pdfrwt beam="1">  1        1 0.73577641E-01 0.41674802E+03</pdfrwt>
<pdfrwt beam="2">  1       -1 0.61475609E-01 0.41674802E+03</pdfrwt>
<totfact> 0.13190339E+02</totfact>
</mgrwt>
</event>
<event>
 6    1  0.9205235E-004  0.4017252E+03  0.7818608E-02  0.1043184E+00
          4   -1    0    0  502    0  0.00000000000E+00  0.00000000000E+00  0.17125182404E+04  0.17125182404E+04  0.00000000000E+00 0. -1.
         -4   -1    0    0    0  501 -0.00000000000E+00 -0.00000000000E+00 -0.19249395785E+03  0.19249395785E+03  0.00000000000E+00 0.  1.
    9000007    2    1    2  502    0  0.66752012069E+01 -0.36403754390E+02  0.79508803292E+02  0.40953413501E+03  0.40003345647E+03 0.  0.
    9000005    1    3    3    0    0 -0.41988137943E+02 -0.64855521109E+02  0.23328681033E+03  0.24574982851E+03  0.99999687468E+00 0.  0.
          4    1    3    3  502    0  0.48663339150E+02  0.28451766719E+02 -0.15377800704E+03  0.16378430650E+03  0.00000000000E+00 0.  1.
   -9000007    1    1    2    0  501 -0.66752012069E+01  0.36403754390E+02  0.14405154792E+04  0.14954780632E+04  0.40000000000E+03 0. -1.
<mgrwt>
<rscale>  2 0.40172525E+03</rscale>
<asrwt>0</asrwt>
<pdfrwt beam="1">  1        4 0.26346433E+00 0.40172525E+03</pdfrwt>
<pdfrwt beam="2">  1       -4 0.29614456E-01 0.40172525E+03</pdfrwt>
<totfact> 0.11689931E+00</totfact>
</mgrwt>
</event>
<event>
 6    1  0.9205235E-004  0.4376520E+03  0.7818608E-02  0.1031470E+00
         -1   -1    0    0    0  501 -0.00000000000E+00  0.00000000000E+00  0.14697155039E+04  0.14697155039E+04  0.00000000000E+00 0. -1.
          1   -1    0    0  502    0  0.00000000000E+00 -0.00000000000E+00 -0.22473689986E+03  0.22473689986E+03  0.00000000000E+00 0.  1.
    9000007    2    1    2  502    0  0.17757570625E+03 -0.75388680843E+01  0.11715747827E+04  0.12506302694E+04  0.39987327137E+03 0.  0.
    9000005    1    3    3    0    0 -0.23514335430E+02  0.16861951355E+03  0.45351200509E+03  0.48441676589E+03  0.99999687468E+00 0.  0.
          4    1    3    3  502    0  0.20109004168E+03 -0.17615838164E+03  0.71806277762E+03  0.76621350346E+03  0.00000000000E+00 0.  1.
   -9000007    1    1    2    0  501 -0.17757570625E+03  0.75388680843E+01  0.73403821313E+02  0.44382213438E+03  0.40000000000E+03 0.  1.
<mgrwt>
<rscale>  2 0.43765200E+03</rscale>
<asrwt>0</asrwt>
<pdfrwt beam="1">  1        1 0.34574909E-01 0.43765200E+03</pdfrwt>
<pdfrwt beam="2">  1       -1 0.22611007E+00 0.43765200E+03</pdfrwt>
<totfact> 0.13804369E+01</totfact>
</mgrwt>
</event>
<event>
 6    1  0.9205235E-004  0.5299118E+03  0.7818608E-02  0.1006254E+00
         -2   -1    0    0    0  501 -0.00000000000E+00  0.00000000000E+00  0.54963125077E+03  0.54963125077E+03  0.00000000000E+00 0. -1.
          2   -1    0    0  502    0  0.00000000000E+00 -0.00000000000E+00 -0.51768988280E+03  0.51768988280E+03  0.00000000000E+00 0.  1.
    9000007    2    1    2  502    0  0.34754113238E+03 -0.25832840879E+01  0.77089139170E+02  0.53550365238E+03  0.40003739111E+03 0.  0.
    9000005    1    3    3    0    0  0.16370030121E+03  0.13872670590E+03  0.18165205615E+03  0.28114294771E+03  0.99999687468E+00 0.  0.
          4    1    3    3  502    0  0.18384083117E+03 -0.14130998999E+03 -0.10456291698E+03  0.25436070468E+03  0.00000000000E+00 0.  1.
   -9000007    1    1    2    0  501 -0.34754113238E+03  0.25832840879E+01 -0.45147771201E+02  0.53181748119E+03  0.40000000000E+03 0.  1.
<mgrwt>
<rscale>  2 0.52991176E+03</rscale>
<asrwt>0</asrwt>
<pdfrwt beam="1">  1        2 0.79644598E-01 0.52991176E+03</pdfrwt>
<pdfrwt beam="2">  1       -2 0.84558654E-01 0.52991176E+03</pdfrwt>
<totfact> 0.74058625E+01</totfact>
</mgrwt>
</event>
<event>
 6    1  0.9205235E-004  0.7406333E+03  0.7818608E-02  0.9650161E-01
          1   -1    0    0  502    0  0.00000000000E+00  0.00000000000E+00  0.13405468200E+04  0.13405468200E+04  0.00000000000E+00 0.  1.
         -1   -1    0    0    0  501 -0.00000000000E+00 -0.00000000000E+00 -0.41829068501E+03  0.41829068501E+03  0.00000000000E+00 0. -1.
    9000007    2    1    2  502    0 -0.26260783724E+03  0.56621978837E+03  0.33098773123E+03  0.81059383896E+03  0.39741888306E+03 0.  0.
    9000005    1    3    3    0    0 -0.12048523109E+03  0.58430091342E+03  0.26228338080E+03  0.65170378253E+03  0.99999687468E+00 0.  0.
          4    1    3    3  502    0 -0.14212260615E+03 -0.18081125051E+02  0.68704350431E+02  0.15889005642E+03  0.00000000000E+00 0.  1.
   -9000007    1    1    2    0  501  0.26260783724E+03 -0.56621978837E+03  0.59126840376E+03  0.94824366605E+03  0.40000000000E+03 0.  1.
<mgrwt>
<rscale>  2 0.74063327E+03</rscale>
<asrwt>0</asrwt>
<pdfrwt beam="1">  1        1 0.20623797E+00 0.74063327E+03</pdfrwt>
<pdfrwt beam="2">  1       -1 0.64352414E-01 0.74063327E+03</pdfrwt>
<totfact> 0.21418384E+01</totfact>
</mgrwt>
</event>
<event>
 6    1  0.9205235E-004  0.7922969E+03  0.7818608E-02  0.9571234E-01
         -2   -1    0    0    0  501 -0.00000000000E+00  0.00000000000E+00  0.68586654058E+03  0.68586654058E+03  0.00000000000E+00 0. -1.
          2   -1    0    0  502    0  0.00000000000E+00 -0.00000000000E+00 -0.18711306978E+04  0.18711306978E+04  0.00000000000E+00 0.  1.
    9000007    2    1    2  502    0  0.33115336113E+03  0.59809659757E+03  0.32108763614E+03  0.85509306543E+03  0.40088002176E+03 0.  0.
    9000005    1    3    3    0    0  0.31967258836E+03  0.21590581453E+03  0.55934551519E+02  0.38978912061E+03  0.99999687468E+00 0.  0.
          4    1    3    3  502    0  0.11480772769E+02  0.38219078304E+03  0.26515308462E+03  0.46530394482E+03  0.00000000000E+00 0.  1.
   -9000007    1    1    2    0  501 -0.33115336113E+03 -0.59809659757E+03 -0.15063517934E+04  0.17019041730E+04  0.40000000000E+03 0.  1.
<mgrwt>
<rscale>  2 0.79229690E+03</rscale>
<asrwt>0</asrwt>
<pdfrwt beam="1">  1        2 0.28786626E+00 0.79229690E+03</pdfrwt>
<pdfrwt beam="2">  1       -2 0.10551793E+00 0.79229690E+03</pdfrwt>
<totfact> 0.58735797E+00</totfact>
</mgrwt>
</event>
<event>
 6    1  0.9205235E-004  0.4324189E+03  0.7818608E-02  0.1033099E+00
          1   -1    0    0  502    0  0.00000000000E+00  0.00000000000E+00  0.86791329054E+03  0.86791329054E+03  0.00000000000E+00 0. -1.
         -1   -1    0    0    0  501 -0.00000000000E+00 -0.00000000000E+00 -0.22313592447E+03  0.22313592447E+03  0.00000000000E+00 0.  1.
    9000007    2    1    2  502    0  0.84030512081E+02  0.14077776928E+03  0.42376763758E+03  0.60553422309E+03  0.40026638304E+03 0.  0.
    9000005    1    3    3    0    0  0.20917921159E+03  0.19382199012E+03  0.21812828501E+03  0.35903183024E+03  0.99999687468E+00 0.  0.
          4    1    3    3  502    0 -0.12514869951E+03 -0.53044220838E+02  0.20563935257E+03  0.24650239285E+03  0.00000000000E+00 0.  1.
   -9000007    1    1    2    0  501 -0.84030512081E+02 -0.14077776928E+03  0.22100972850E+03  0.48551499192E+03  0.40000000000E+03 0.  1.
<mgrwt>
<rscale>  2 0.43241885E+03</rscale>
<asrwt>0</asrwt>
<pdfrwt beam="1">  1        1 0.13352512E+00 0.43241885E+03</pdfrwt>
<pdfrwt beam="2">  1       -1 0.34328604E-01 0.43241885E+03</pdfrwt>
<totfact> 0.16206829E+02</totfact>
</mgrwt>
</event>
<event>
 6    1  0.9205235E-004  0.4805393E+03  0.7818608E-02  0.1018987E+00
         -2   -1    0    0    0  501 -0.00000000000E+00  0.00000000000E+00  0.44803348132E+03  0.44803348132E+03  0.00000000000E+00 0. -1.
          2   -1    0    0  502    0  0.00000000000E+00 -0.00000000000E+00 -0.51617664911E+03  0.51617664911E+03  0.00000000000E+00 0.  1.
    9000007    2    1    2  502    0  0.22732571707E+03 -0.13939031714E+03 -0.52716367972E+02  0.48322714912E+03  0.39952824687E+03 0.  0.
    9000005    1    3    3    0    0  0.84523067317E+02  0.12552104513E+03  0.58699898316E+02  0.16231561766E+03  0.99999687468E+00 0.  0.
          4    1    3    3  502    0  0.14280264976E+03 -0.26491136227E+03 -0.11141626629E+03  0.32091153147E+03  0.00000000000E+00 0.  1.
   -9000007    1    1    2    0  501 -0.22732571707E+03  0.13939031714E+03 -0.15426799818E+02  0.48098298131E+03  0.40000000000E+03 0. -1.
<mgrwt>
<rscale>  2 0.48053925E+03</rscale>
<asrwt>0</asrwt>
<pdfrwt beam="1">  1        2 0.79411792E-01 0.48053925E+03</pdfrwt>
<pdfrwt beam="2">  1       -2 0.68928228E-01 0.48053925E+03</pdfrwt>
<totfact> 0.11725934E+02</totfact>
</mgrwt>
</event>
<event>
 6    1  0.9205235E-004  0.6509612E+03  0.7818608E-02  0.9804977E-01
         -2   -1    0    0    0  501 -0.00000000000E+00  0.00000000000E+00  0.35741996206E+03  0.35741996206E+03  0.00000000000E+00 0.  1.
          2   -1    0    0  502    0  0.00000000000E+00 -0.00000000000E+00 -0.21214667348E+04  0.21214667348E+04  0.00000000000E+00 0. -1.
    9000007    2    1    2  502    0 -0.31513068278E+02 -0.51263502087E+03 -0.17052292277E+04  0.18252451730E+04  0.39990684482E+03 0.  0.
    9000005    1    3    3    0    0 -0.14605763963E+03 -0.41176317823E+03 -0.15379288148E+04  0.15987832212E+04  0.99999687468E+00 0.  0.
          4    1    3    3  502    0  0.11454457135E+03 -0.10087184264E+03 -0.16730041294E+03  0.22646195185E+03  0.00000000000E+00 0.  1.
   -9000007    1    1    2    0  501  0.31513068278E+02  0.51263502087E+03 -0.58817545042E+02  0.65364152385E+03  0.40000000000E+03 0.  1.
<mgrwt>
<rscale>  2 0.65096120E+03</rscale>
<asrwt>0</asrwt>
<pdfrwt beam="1">  1        2 0.32637950E+00 0.65096120E+03</pdfrwt>
<pdfrwt beam="2">  1       -2 0.54987687E-01 0.65096120E+03</pdfrwt>
<totfact> 0.18720356E+01</totfact>
</mgrwt>
</event>
<event>
 6    1  0.9205235E-004  0.5254684E+03  0.7818608E-02  0.1007337E+00
         -2   -1    0    0    0  501 -0.00000000000E+00  0.00000000000E+00  0.21789001052E+03  0.21789001052E+03  0.00000000000E+00 0. -1.
          2   -1    0    0  502    0  0.00000000000E+00 -0.00000000000E+00 -0.13818125289E+04  0.13818125289E+04  0.00000000000E+00 0.  1.
    9000007    2    1    2  502    0  0.32715097317E+03 -0.93173615809E+02 -0.81268018260E+03  0.96797454388E+03  0.40101939663E+03 0.  0.
    9000005    1    3    3    0    0 -0.90075610496E+02  0.16095890637E+02 -0.10556704160E+03  0.13970717078E+03  0.99999687468E+00 0.  0.
          4    1    3    3  502    0  0.41722658367E+03 -0.10926950645E+03 -0.70711314100E+03  0.82826737310E+03  0.00000000000E+00 0.  1.
   -9000007    1    1    2    0  501 -0.32715097317E+03  0.93173615809E+02 -0.35124233581E+03  0.63172799558E+03  0.40000000000E+03 0. -1.
<mgrwt>
<rscale>  2 0.52546842E+03</rscale>
<asrwt>0</asrwt>
<pdfrwt beam="1">  1        2 0.21258654E+00 0.52546842E+03</pdfrwt>
<pdfrwt beam="2">  1       -2 0.33521541E-01 0.52546842E+03</pdfrwt>
<totfact> 0.12797986E+02</totfact>
</mgrwt>
</event>
<event>
 6    1  0.9205235E-004  0.4811403E+03  0.7818608E-02  0.1018822E+00
          2   -1    0    0  502    0  0.00000000000E+00  0.00000000000E+00  0.22029515365E+04  0.22029515365E+04  0.00000000000E+00 0. -1.
         -2   -1    0    0    0  501 -0.00000000000E+00 -0.00000000000E+00 -0.12097880799E+03  0.12097880799E+03  0.00000000000E+00 0.  1.
    9000007    2    1    2  502    0  0.25538566323E+03  0.80141438210E+02  0.61952464410E+03  0.78432036574E+03  0.39962878320E+03 0.  0.
    9000005    1    3    3    0    0 -0.60186508515E+02  0.11323215198E+03  0.61113107361E+02  0.14205543965E+03  0.99999687468E+00 0.  0.
          4    1    3    3  502    0  0.31557217174E+03 -0.33090713774E+02  0.55841153674E+03  0.64226492608E+03  0.00000000000E+00 0.  1.
   -9000007    1    1    2    0  501 -0.25538566323E+03 -0.80141438210E+02  0.14624480844E+04  0.15396099788E+04  0.40000000000E+03 0. -1.
<mgrwt>
<rscale>  2 0.48114033E+03</rscale>
<asrwt>0</asrwt>
<pdfrwt beam="1">  1        2 0.33891559E+00 0.48114033E+03</pdfrwt>
<pdfrwt beam="2">  1       -2 0.18612126E-01 0.48114033E+03</pdfrwt>
<totfact> 0.13273463E+02</totfact>
</mgrwt>
</event>
<event>
 6    1  0.9205235E-004  0.4521877E+03  0.7818608E-02  0.1027072E+00
         -2   -1    0    0    0  501 -0.00000000000E+00  0.00000000000E+00  0.15646557588E+03  0.15646557588E+03  0.00000000000E+00 0. -1.
          2   -1    0    0  502    0  0.00000000000E+00 -0.00000000000E+00 -0.14032564772E+04  0.14032564772E+04  0.00000000000E+00 0.  1.
    9000007    2    1    2  502    0  0.78053168143E+02  0.19616563399E+03 -0.41882194042E+03  0.61626783943E+03  0.39975114650E+03 0.  0.
    9000005    1    3    3    0    0 -0.10730244706E+03 -0.73178768865E+01  0.85855688344E+01  0.10789846363E+03  0.99999687468E+00 0.  0.
          4    1    3    3  502    0  0.18535561521E+03  0.20348351088E+03 -0.42740750926E+03  0.50836937580E+03  0.00000000000E+00 0.  1.
   -9000007    1    1    2    0  501 -0.78053168143E+02 -0.19616563399E+03 -0.82796896089E+03  0.94345421363E+03  0.40000000000E+03 0.  1.
<mgrwt>
<rscale>  2 0.45218770E+03</rscale>
<asrwt>0</asrwt>
<pdfrwt beam="1">  1        2 0.21588561E+00 0.45218770E+03</pdfrwt>
<pdfrwt beam="2">  1       -2 0.24071628E-01 0.45218770E+03</pdfrwt>
<totfact> 0.22997284E+02</totfact>
</mgrwt>
</event>
<event>
 6    1  0.9205235E-004  0.4531753E+03  0.7818608E-02  0.1026779E+00
         -1   -1    0    0    0  501 -0.00000000000E+00  0.00000000000E+00  0.46814791753E+03  0.46814791753E+03  0.00000000000E+00 0. -1.
          1   -1    0    0  502    0  0.00000000000E+00 -0.00000000000E+00 -0.43903152855E+03  0.43903152855E+03  0.00000000000E+00 0.  1.
    9000007    2    1    2  502    0  0.22487840657E+02  0.21208785285E+03  0.17494480451E+01  0.45304740607E+03  0.39970230332E+03 0.  0.
    9000005    1    3    3    0    0  0.18587518150E+03  0.13094363507E+03  0.97063503614E+02  0.24722083729E+03  0.99999687468E+00 0.  0.
          4    1    3    3  502    0 -0.16338734084E+03  0.81144217779E+02 -0.95314055569E+02  0.20582656878E+03  0.00000000000E+00 0.  1.
   -9000007    1    1    2    0  501 -0.22487840657E+02 -0.21208785285E+03  0.27366940927E+02  0.45413204001E+03  0.40000000000E+03 0. -1.
<mgrwt>
<rscale>  2 0.45317534E+03</rscale>
<asrwt>0</asrwt>
<pdfrwt beam="1">  1        1 0.67543313E-01 0.45317534E+03</pdfrwt>
<pdfrwt beam="2">  1       -1 0.72022756E-01 0.45317534E+03</pdfrwt>
<totfact> 0.10730771E+02</totfact>
</mgrwt>
</event>
<event>
 6    1  0.9205235E-004  0.4024029E+03  0.7818608E-02  0.1042951E+00
          1   -1    0    0  502    0  0.00000000000E+00  0.00000000000E+00  0.10255864243E+04  0.10255864243E+04  0.00000000000E+00 0. -1.
         -1   -1    0    0    0  501 -0.00000000000E+00 -0.00000000000E+00 -0.15823615520E+03  0.15823615520E+03  0.00000000000E+00 0.  1.
    9000007    2    1    2  502    0  0.66954016533E+01 -0.41310470659E+02  0.40615944359E+03  0.57190072100E+03  0.40044170321E+03 0.  0.
    9000005    1    3    3    0    0  0.15830715574E+03 -0.14813697733E+03  0.23067808083E+03  0.31657399858E+03  0.99999687468E+00 0.  0.
          4    1    3    3  502    0 -0.15161175408E+03  0.10682650667E+03  0.17548136277E+03  0.25532672242E+03  0.00000000000E+00 0.  1.
   -9000007    1    1    2    0  501 -0.66954016533E+01  0.41310470659E+02  0.46119082554E+03  0.61192185854E+03  0.40000000000E+03 0.  1.
<mgrwt>
<rscale>  2 0.40240286E+03</rscale>
<asrwt>0</asrwt>
<pdfrwt beam="1">  1        1 0.15778252E+00 0.40240286E+03</pdfrwt>
<pdfrwt beam="2">  1       -1 0.24344025E-01 0.40240286E+03</pdfrwt>
<totfact> 0.22085289E+02</totfact>
</mgrwt>
</event>
<event>
 6    1  0.9205235E-004  0.4546773E+03  0.7818608E-02  0.1026336E+00
         -1   -1    0    0    0  501 -0.00000000000E+00  0.00000000000E+00  0.16367804284E+03  0.16367804284E+03  0.00000000000E+00 0. -1.
          1   -1    0    0  502    0  0.00000000000E+00 -0.00000000000E+00 -0.14318556642E+04  0.14318556642E+04  0.00000000000E+00 0.  1.
    9000007    2    1    2  502    0 -0.17584763829E+03  0.12556985654E+03 -0.90807254847E+03  0.10155631524E+04  0.40010321474E+03 0.  0.
    9000005    1    3    3    0    0 -0.24935297438E+03 -0.58741558705E+02 -0.50040835861E+03  0.56217168366E+03  0.99999687468E+00 0.  0.
          4    1    3    3  502    0  0.73505336090E+02  0.18431141524E+03 -0.40766418987E+03  0.45339146873E+03  0.00000000000E+00 0.  1.
   -9000007    1    1    2    0  501  0.17584763829E+03 -0.12556985654E+03 -0.36010507293E+03  0.57997055469E+03  0.40000000000E+03 0. -1.
<mgrwt>
<rscale>  2 0.45467732E+03</rscale>
<asrwt>0</asrwt>
<pdfrwt beam="1">  1        1 0.22028548E+00 0.45467732E+03</pdfrwt>
<pdfrwt beam="2">  1       -1 0.25181239E-01 0.45467732E+03</pdfrwt>
<totfact> 0.10664518E+02</totfact>
</mgrwt>
</event>
<event>
 6    1  0.9205235E-004  0.4570334E+03  0.7818608E-02  0.1025645E+00
         -2   -1    0    0    0  501 -0.00000000000E+00  0.00000000000E+00  0.41245377809E+03  0.41245377809E+03  0.00000000000E+00 0.  1.
          2   -1    0    0  502    0  0.00000000000E+00 -0.00000000000E+00 -0.51785606317E+03  0.51785606317E+03  0.00000000000E+00 0. -1.
    9000007    2    1    2  502    0 -0.22120666592E+03 -0.51325475619E+01 -0.12178132876E+03  0.47289645583E+03  0.39980199326E+03 0.  0.
    9000005    1    3    3    0    0 -0.30278367470E+03 -0.44974969362E+02 -0.18916062469E+03  0.35983807951E+03  0.99999687468E+00 0.  0.
          4    1    3    3  502    0  0.81577008781E+02  0.39842421800E+02  0.67379295933E+02  0.11305837632E+03  0.00000000000E+00 0.  1.
   -9000007    1    1    2    0  501  0.22120666592E+03  0.51325475619E+01  0.16379043684E+02  0.45741338542E+03  0.40000000000E+03 0.  1.
<mgrwt>
<rscale>  2 0.45703341E+03</rscale>
<asrwt>0</asrwt>
<pdfrwt beam="1">  1        2 0.79670163E-01 0.45703341E+03</pdfrwt>
<pdfrwt beam="2">  1       -2 0.63454428E-01 0.45703341E+03</pdfrwt>
<totfact> 0.13971298E+02</totfact>
</mgrwt>
</event>
<event>
 6    1  0.9205235E-004  0.4070200E+03  0.7818608E-02  0.1041376E+00
          1   -1    0    0  502    0  0.00000000000E+00  0.00000000000E+00  0.27964946790E+03  0.27964946790E+03  0.00000000000E+00 0. -1.
         -1   -1    0    0    0  501 -0.00000000000E+00 -0.00000000000E+00 -0.59298407130E+03  0.59298407130E+03  0.00000000000E+00 0.  1.
    9000007    2    1    2  502    0  0.77056383460E+02  0.65831484929E+01 -0.14287175197E+03  0.43100178333E+03  0.39921069080E+03 0.  0.
    9000005    1    3    3    0    0 -0.13847995711E+03 -0.41928007842E+01 -0.16338981125E+03  0.21422303450E+03  0.99999687468E+00 0.  0.
          4    1    3    3  502    0  0.21553634057E+03  0.10775949277E+02  0.20518059274E+02  0.21677874883E+03  0.00000000000E+00 0.  1.
   -9000007    1    1    2    0  501 -0.77056383460E+02 -0.65831484929E+01 -0.17046285142E+03  0.44163175587E+03  0.40000000000E+03 0. -1.
<mgrwt>
<rscale>  2 0.40702004E+03</rscale>
<asrwt>0</asrwt>
<pdfrwt beam="1">  1        1 0.43022996E-01 0.40702004E+03</pdfrwt>
<pdfrwt beam="2">  1       -1 0.91228318E-01 0.40702004E+03</pdfrwt>
<totfact> 0.11737404E+02</totfact>
</mgrwt>
</event>
<event>
 6    1  0.9205235E-004  0.5711222E+03  0.7818608E-02  0.9967198E-01
          2   -1    0    0  502    0  0.00000000000E+00  0.00000000000E+00  0.12901125677E+04  0.12901125677E+04  0.00000000000E+00 0. -1.
         -2   -1    0    0    0  501 -0.00000000000E+00 -0.00000000000E+00 -0.29492565761E+03  0.29492565761E+03  0.00000000000E+00 0.  1.
    9000007    2    1    2  502    0 -0.19990830996E+03 -0.35531172028E+03  0.79698453732E+03  0.98047728419E+03  0.39992699476E+03 0.  0.
    9000005    1    3    3    0    0  0.54176463585E+02 -0.14294474647E+03  0.54025870627E+03  0.56147017681E+03  0.99999687468E+00 0.  0.
          4    1    3    3  502    0 -0.25408477355E+03 -0.21236697380E+03  0.25672583104E+03  0.41900710738E+03  0.00000000000E+00 0.  1.
   -9000007    1    1    2    0  501  0.19990830996E+03  0.35531172028E+03  0.19820237278E+03  0.60456094112E+03  0.40000000000E+03 0.  1.
<mgrwt>
<rscale>  2 0.57112219E+03</rscale>
<asrwt>0</asrwt>
<pdfrwt beam="1">  1        2 0.19847885E+00 0.57112219E+03</pdfrwt>
<pdfrwt beam="2">  1       -2 0.45373179E-01 0.57112219E+03</pdfrwt>
<totfact> 0.79924080E+01</totfact>
</mgrwt>
</event>
<event>
 6    1  0.9205235E-004  0.4888556E+03  0.7818608E-02  0.1016729E+00
          1   -1    0    0  502    0  0.00000000000E+00  0.00000000000E+00  0.11073600390E+04  0.11073600390E+04  0.00000000000E+00 0. -1.
         -1   -1    0    0    0  501 -0.00000000000E+00 -0.00000000000E+00 -0.24124493418E+03  0.24124493418E+03  0.00000000000E+00 0.  1.
    9000007    2    1    2  502    0 -0.16500501869E+03  0.22712864440E+03  0.65213806714E+03  0.81512559221E+03  0.40041427942E+03 0.  0.
    9000005    1    3    3    0    0 -0.16115851244E+03 -0.36950195026E+02  0.45917415555E+03  0.48803615457E+03  0.99999687468E+00 0.  0.
          4    1    3    3  502    0 -0.38465062454E+01  0.26407883942E+03  0.19296391159E+03  0.32708943765E+03  0.00000000000E+00 0.  1.
   -9000007    1    1    2    0  501  0.16500501869E+03 -0.22712864440E+03  0.21397703772E+03  0.53347938102E+03  0.40000000000E+03 0.  1.
<mgrwt>
<rscale>  2 0.48885562E+03</rscale>
<asrwt>0</asrwt>
<pdfrwt beam="1">  1        1 0.17036308E+00 0.48885562E+03</pdfrwt>
<pdfrwt beam="2">  1       -1 0.37114606E-01 0.48885562E+03</pdfrwt>
<totfact> 0.91677813E+01</totfact>
</mgrwt>
</event>
<event>
 6    1  0.9205235E-004  0.4543545E+03  0.7818608E-02  0.1026431E+00
          2   -1    0    0  502    0  0.00000000000E+00  0.00000000000E+00  0.37770654716E+03  0.37770654716E+03  0.00000000000E+00 0. -1.
         -2   -1    0    0    0  501 -0.00000000000E+00 -0.00000000000E+00 -0.58547411273E+03  0.58547411273E+03  0.00000000000E+00 0.  1.
    9000007    2    1    2  502    0 -0.21137591974E+03  0.35781715260E+02 -0.22815917769E+03  0.50889448529E+03  0.40119431227E+03 0.  0.
    9000005    1    3    3    0    0  0.10280647375E+03 -0.49853097756E+02 -0.54743905049E+01  0.11439174509E+03  0.99999687468E+00 0.  0.
          4    1    3    3  502    0 -0.31418239349E+03  0.85634813016E+02 -0.22268478719E+03  0.39450274020E+03  0.00000000000E+00 0.  1.
   -9000007    1    1    2    0  501  0.21137591974E+03 -0.35781715260E+02  0.20391612126E+02  0.45428617460E+03  0.40000000000E+03 0. -1.
<mgrwt>
<rscale>  2 0.45435448E+03</rscale>
<asrwt>0</asrwt>
<pdfrwt beam="1">  1        2 0.58108700E-01 0.45435448E+03</pdfrwt>
<pdfrwt beam="2">  1       -2 0.90072940E-01 0.45435448E+03</pdfrwt>
<totfact> 0.92080402E+01</totfact>
</mgrwt>
</event>
<event>
 6    1  0.9205235E-004  0.4043718E+03  0.7818608E-02  0.1042276E+00
          1   -1    0    0  502    0  0.00000000000E+00  0.00000000000E+00  0.12457627837E+04  0.12457627837E+04  0.00000000000E+00 0. -1.
         -1   -1    0    0    0  501 -0.00000000000E+00 -0.00000000000E+00 -0.14782830308E+03  0.14782830308E+03  0.00000000000E+00 0.  1.
    9000007    2    1    2  502    0 -0.44902438830E+02 -0.44155454161E+02  0.78158295416E+03  0.87973875249E+03  0.39887645364E+03 0.  0.
    9000005    1    3    3    0    0  0.15059649459E+03 -0.10668961869E+02  0.57028696606E+03  0.58993334757E+03  0.99999687468E+00 0.  0.
          4    1    3    3  502    0 -0.19549893342E+03 -0.33486492292E+02  0.21129598810E+03  0.28980540492E+03  0.00000000000E+00 0.  1.
   -9000007    1    1    2    0  501  0.44902438830E+02  0.44155454161E+02  0.31635152644E+03  0.51385233426E+03  0.40000000000E+03 0.  1.
<mgrwt>
<rscale>  2 0.40437177E+03</rscale>
<asrwt>0</asrwt>
<pdfrwt beam="1">  1        1 0.19165581E+00 0.40437177E+03</pdfrwt>
<pdfrwt beam="2">  1       -1 0.22742817E-01 0.40437177E+03</pdfrwt>
<totfact> 0.17131791E+02</totfact>
</mgrwt>
</event>
<event>
 6    1  0.9205235E-004  0.4065319E+03  0.7818608E-02  0.1041541E+00
         -2   -1    0    0    0  501 -0.00000000000E+00  0.00000000000E+00  0.13156300823E+03  0.13156300823E+03  0.00000000000E+00 0.  1.
          2   -1    0    0  502    0  0.00000000000E+00 -0.00000000000E+00 -0.14259094916E+04  0.14259094916E+04  0.00000000000E+00 0. -1.
    9000007    2    1    2  502    0  0.77716426345E+02  0.15887495111E+02 -0.91406576377E+03  0.99988333108E+03  0.39743955496E+03 0.  0.
    9000005    1    3    3    0    0  0.88056408809E+02 -0.16569392988E+03 -0.25764681715E+03  0.31873388887E+03  0.99999687468E+00 0.  0.
          4    1    3    3  502    0 -0.10339982463E+02  0.18158142499E+03 -0.65641894662E+03  0.68114944221E+03  0.00000000000E+00 0.  1.
   -9000007    1    1    2    0  501 -0.77716426345E+02 -0.15887495111E+02 -0.38028071964E+03  0.55758916879E+03  0.40000000000E+03 0.  1.
<mgrwt>
<rscale>  2 0.40653192E+03</rscale>
<asrwt>0</asrwt>
<pdfrwt beam="1">  1        2 0.21937071E+00 0.40653192E+03</pdfrwt>
<pdfrwt beam="2">  1       -2 0.20240461E-01 0.40653192E+03</pdfrwt>
<totfact> 0.30451189E+02</totfact>
</mgrwt>
</event>
<event>
 6    1  0.9205235E-004  0.4290665E+03  0.7818608E-02  0.1034155E+00
         -2   -1    0    0    0  501 -0.00000000000E+00  0.00000000000E+00  0.11307082404E+03  0.11307082404E+03  0.00000000000E+00 0.  1.
          2   -1    0    0  502    0  0.00000000000E+00 -0.00000000000E+00 -0.32998505887E+04  0.32998505887E+04  0.00000000000E+00 0. -1.
    9000007    2    1    2  502    0  0.10453869389E+03  0.11300884424E+03 -0.37966276135E+03  0.57327263030E+03  0.40099670684E+03 0.  0.
    9000005    1    3    3    0    0 -0.15330993483E+03  0.57715854312E+02 -0.11898978093E+03  0.20247129159E+03  0.99999687468E+00 0.  0.
          4    1    3    3  502    0  0.25784862872E+03  0.55292989928E+02 -0.26067298042E+03  0.37080133871E+03  0.00000000000E+00 0.  1.
   -9000007    1    1    2    0  501 -0.10453869389E+03 -0.11300884424E+03 -0.28071170034E+04  0.28396487825E+04  0.40000000000E+03 0. -1.
<mgrwt>
<rscale>  2 0.42906653E+03</rscale>
<asrwt>0</asrwt>
<pdfrwt beam="1">  1        2 0.50766934E+00 0.42906653E+03</pdfrwt>
<pdfrwt beam="2">  1       -2 0.17395511E-01 0.42906653E+03</pdfrwt>
<totfact> 0.34639155E+01</totfact>
</mgrwt>
</event>
<event>
 6    1  0.9205235E-004  0.4178556E+03  0.7818608E-02  0.1037766E+00
          3   -1    0    0  502    0  0.00000000000E+00  0.00000000000E+00  0.21050197560E+03  0.21050197560E+03  0.00000000000E+00 0.  1.
         -3   -1    0    0    0  501 -0.00000000000E+00 -0.00000000000E+00 -0.87760204495E+03  0.87760204495E+03  0.00000000000E+00 0. -1.
    9000007    2    1    2  502    0  0.71287138072E+02  0.97801617117E+02 -0.20608783858E+03  0.46586669503E+03  0.39989069501E+03 0.  0.
    9000005    1    3    3    0    0 -0.77952194877E+02  0.15803281557E+03 -0.24356460837E+03  0.30062540467E+03  0.99999687468E+00 0.  0.
          4    1    3    3  502    0  0.14923933295E+03 -0.60231198455E+02  0.37476769792E+02  0.16524129036E+03  0.00000000000E+00 0.  1.
   -9000007    1    1    2    0  501 -0.71287138072E+02 -0.97801617117E+02 -0.46101223076E+03  0.62223732553E+03  0.40000000000E+03 0. -1.
<mgrwt>
<rscale>  2 0.41785559E+03</rscale>
<asrwt>0</asrwt>
<pdfrwt beam="1">  1        3 0.32384920E-01 0.41785559E+03</pdfrwt>
<pdfrwt beam="2">  1       -3 0.13501570E+00 0.41785559E+03</pdfrwt>
<totfact> 0.10327489E+01</totfact>
</mgrwt>
</event>
<event>
 6    1  0.9205235E-004  0.4809302E+03  0.7818608E-02  0.1018880E+00
          2   -1    0    0  502    0  0.00000000000E+00  0.00000000000E+00  0.13036964536E+04  0.13036964536E+04  0.00000000000E+00 0. -1.
         -2   -1    0    0    0  501 -0.00000000000E+00 -0.00000000000E+00 -0.20328818138E+03  0.20328818138E+03  0.00000000000E+00 0.  1.
    9000007    2    1    2  502    0 -0.18949739454E+03  0.18938572284E+03  0.28088803126E+03  0.55651651879E+03  0.39879359953E+03 0.  0.
    9000005    1    3    3    0    0 -0.37937229589E+02  0.22588555901E+03  0.32212801225E+03  0.39526064239E+03  0.99999687468E+00 0.  0.
          4    1    3    3  502    0 -0.15156016495E+03 -0.36499836166E+02 -0.41239980987E+02  0.16125587639E+03  0.00000000000E+00 0.  1.
   -9000007    1    1    2    0  501  0.18949739454E+03 -0.18938572284E+03  0.81952024100E+03  0.95046811622E+03  0.40000000000E+03 0. -1.
<mgrwt>
<rscale>  2 0.48093022E+03</rscale>
<asrwt>0</asrwt>
<pdfrwt beam="1">  1        2 0.20056868E+00 0.48093022E+03</pdfrwt>
<pdfrwt beam="2">  1       -2 0.31275106E-01 0.48093022E+03</pdfrwt>
<totfact> 0.16204607E+02</totfact>
</mgrwt>
</event>
<event>
 6    1  0.9205235E-004  0.5179976E+03  0.7818608E-02  0.1009185E+00
         -2   -1    0    0    0  501 -0.00000000000E+00  0.00000000000E+00  0.54326364601E+03  0.54326364601E+03  0.00000000000E+00 0. -1.
          2   -1    0    0  502    0  0.00000000000E+00 -0.00000000000E+00 -0.61619537171E+03  0.61619537171E+03  0.00000000000E+00 0.  1.
    9000007    2    1    2  502    0  0.14422123139E+03  0.28581367303E+03  0.22139875304E+03  0.56859553942E+03  0.41448071164E+03 0.  0.
    9000005    1    3    3    0    0  0.60855032231E+02  0.91180786935E+02  0.31763106544E+03  0.33601750636E+03  0.99999687468E+00 0.  0.
          4    1    3    3  502    0  0.83366199160E+02  0.19463288610E+03 -0.96232312396E+02  0.23257803306E+03  0.00000000000E+00 0.  1.
   -9000007    1    1    2    0  501 -0.14422123139E+03 -0.28581367303E+03 -0.29433047874E+03  0.59086347830E+03  0.40000000000E+03 0.  1.
<mgrwt>
<rscale>  2 0.51799764E+03</rscale>
<asrwt>0</asrwt>
<pdfrwt beam="1">  1        2 0.94799288E-01 0.51799764E+03</pdfrwt>
<pdfrwt beam="2">  1       -2 0.83579022E-01 0.51799764E+03</pdfrwt>
<totfact> 0.61997052E+01</totfact>
</mgrwt>
</event>
<event>
 6    1  0.9205235E-004  0.4042264E+03  0.7818608E-02  0.1042326E+00
         -1   -1    0    0    0  501 -0.00000000000E+00  0.00000000000E+00  0.47803322770E+03  0.47803322770E+03  0.00000000000E+00 0.  1.
          1   -1    0    0  502    0  0.00000000000E+00 -0.00000000000E+00 -0.84546166863E+03  0.84546166863E+03  0.00000000000E+00 0. -1.
    9000007    2    1    2  502    0 -0.39621584456E+02 -0.42255892389E+02 -0.69447399283E+03  0.80357738036E+03  0.40010879660E+03 0.  0.
    9000005    1    3    3    0    0 -0.57529220231E+02  0.20082145581E+02 -0.72801331301E+03  0.73055957160E+03  0.99999687468E+00 0.  0.
          4    1    3    3  502    0  0.17907635775E+02 -0.62338037970E+02  0.33539320181E+02  0.73017808754E+02  0.00000000000E+00 0.  1.
   -9000007    1    1    2    0  501  0.39621584456E+02  0.42255892389E+02  0.32704555190E+03  0.51991751597E+03  0.40000000000E+03 0.  1.
<mgrwt>
<rscale>  2 0.40422636E+03</rscale>
<asrwt>0</asrwt>
<pdfrwt beam="1">  1        1 0.13007103E+00 0.40422636E+03</pdfrwt>
<pdfrwt beam="2">  1       -1 0.73543573E-01 0.40422636E+03</pdfrwt>
<totfact> 0.40410307E+01</totfact>
</mgrwt>
</event>
<event>
 6    1  0.9205235E-004  0.4401263E+03  0.7818608E-02  0.1030708E+00
          1   -1    0    0  502    0  0.00000000000E+00  0.00000000000E+00  0.20002375783E+04  0.20002375783E+04  0.00000000000E+00 0.  1.
         -1   -1    0    0    0  501 -0.00000000000E+00 -0.00000000000E+00 -0.12391203226E+03  0.12391203226E+03  0.00000000000E+00 0. -1.
    9000007    2    1    2  502    0 -0.16954005015E+03 -0.73008129607E+02  0.14338691629E+04  0.14997765918E+04  0.39909276287E+03 0.  0.
    9000005    1    3    3    0    0 -0.28468545997E+03  0.24085701856E+02  0.84700882503E+03  0.89389646035E+03  0.99999687468E+00 0.  0.
          4    1    3    3  502    0  0.11514540982E+03 -0.97093831464E+02  0.58686033788E+03  0.60588013145E+03  0.00000000000E+00 0.  1.
   -9000007    1    1    2    0  501  0.16954005015E+03  0.73008129607E+02  0.44245638317E+03  0.62437301880E+03  0.40000000000E+03 0.  1.
<mgrwt>
<rscale>  2 0.44012634E+03</rscale>
<asrwt>0</asrwt>
<pdfrwt beam="1">  1        1 0.30772884E+00 0.44012634E+03</pdfrwt>
<pdfrwt beam="2">  1       -1 0.19063391E-01 0.44012634E+03</pdfrwt>
<totfact> 0.71157813E+01</totfact>
</mgrwt>
</event>
<event>
 6    1  0.9205235E-004  0.4031026E+03  0.7818608E-02  0.1042711E+00
          1   -1    0    0  502    0  0.00000000000E+00  0.00000000000E+00  0.53180031226E+03  0.53180031226E+03  0.00000000000E+00 0. -1.
         -1   -1    0    0    0  501 -0.00000000000E+00 -0.00000000000E+00 -0.31124091989E+03  0.31124091989E+03  0.00000000000E+00 0.  1.
    9000007    2    1    2  502    0 -0.62904508949E+02 -0.51086591735E+02  0.52181069350E+02  0.40154595838E+03  0.38980697222E+03 0.  0.
    9000005    1    3    3    0    0 -0.36986949951E+02 -0.12900867927E+03  0.19504691333E+03  0.23676057988E+03  0.99999687468E+00 0.  0.
          4    1    3    3  502    0 -0.25917558999E+02  0.77922087532E+02 -0.14286584398E+03  0.16478537850E+03  0.00000000000E+00 0.  1.
   -9000007    1    1    2    0  501  0.62904508949E+02  0.51086591735E+02  0.16837832302E+03  0.44149527377E+03  0.40000000000E+03 0. -1.
<mgrwt>
<rscale>  2 0.40310260E+03</rscale>
<asrwt>0</asrwt>
<pdfrwt beam="1">  1        1 0.81815433E-01 0.40310260E+03</pdfrwt>
<pdfrwt beam="2">  1       -1 0.47883218E-01 0.40310260E+03</pdfrwt>
<totfact> 0.18413533E+02</totfact>
</mgrwt>
</event>
<event>
 6    1  0.9205235E-004  0.5406011E+03  0.7818608E-02  0.1003693E+00
          1   -1    0    0  502    0  0.00000000000E+00  0.00000000000E+00  0.13541193812E+04  0.13541193812E+04  0.00000000000E+00 0.  1.
         -1   -1    0    0    0  501 -0.00000000000E+00 -0.00000000000E+00 -0.25150767695E+03  0.25150767695E+03  0.00000000000E+00 0. -1.
    9000007    2    1    2  502    0  0.18187373641E+03 -0.31681092683E+03  0.85273460633E+03  0.10090654240E+04  0.39700063179E+03 0.  0.
    9000005    1    3    3    0    0  0.21493283031E+03 -0.22570668021E+03  0.25267538468E+03  0.40122995533E+03  0.99999687468E+00 0.  0.
          4    1    3    3  502    0 -0.33059093896E+02 -0.91104246621E+02  0.60005922165E+03  0.60783546863E+03  0.00000000000E+00 0.  1.
   -9000007    1    1    2    0  501 -0.18187373641E+03  0.31681092683E+03  0.24987709796E+03  0.59656163423E+03  0.40000000000E+03 0. -1.
<mgrwt>
<rscale>  2 0.54060108E+03</rscale>
<asrwt>0</asrwt>
<pdfrwt beam="1">  1        1 0.20832605E+00 0.54060108E+03</pdfrwt>
<pdfrwt beam="2">  1       -1 0.38693489E-01 0.54060108E+03</pdfrwt>
<totfact> 0.56387789E+01</totfact>
</mgrwt>
</event>
<event>
 6    1  0.9205235E-004  0.4485402E+03  0.7818608E-02  0.1028158E+00
         -2   -1    0    0    0  501 -0.00000000000E+00  0.00000000000E+00  0.16157249013E+03  0.16157249013E+03  0.00000000000E+00 0. -1.
          2   -1    0    0  502    0  0.00000000000E+00 -0.00000000000E+00 -0.13397761645E+04  0.13397761645E+04  0.00000000000E+00 0.  1.
    9000007    2    1    2  502    0  0.36740999665E+02 -0.19913989840E+03 -0.78880657076E+03  0.90751643549E+03  0.40045433500E+03 0.  0.
    9000005    1    3    3    0    0 -0.14885855014E+03 -0.84950128181E+02 -0.13447633303E+03  0.21785379585E+03  0.99999687468E+00 0.  0.
          4    1    3    3  502    0  0.18559954980E+03 -0.11418977022E+03 -0.65433023774E+03  0.68966263965E+03  0.00000000000E+00 0.  1.
   -9000007    1    1    2    0  501 -0.36740999665E+02  0.19913989840E+03 -0.38939710360E+03  0.59383221913E+03  0.40000000000E+03 0. -1.
<mgrwt>
<rscale>  2 0.44854025E+03</rscale>
<asrwt>0</asrwt>
<pdfrwt beam="1">  1        2 0.20611942E+00 0.44854025E+03</pdfrwt>
<pdfrwt beam="2">  1       -2 0.24857305E-01 0.44854025E+03</pdfrwt>
<totfact> 0.23572705E+02</totfact>
</mgrwt>
</event>
<event>
 6    1  0.9205235E-004  0.5907449E+03  0.7818608E-02  0.9924796E-01
         -2   -1    0    0    0  501 -0.00000000000E+00  0.00000000000E+00  0.59411147835E+03  0.59411147835E+03  0.00000000000E+00 0.  1.
          2   -1    0    0  502    0  0.00000000000E+00 -0.00000000000E+00 -0.14016234484E+04  0.14016234484E+04  0.00000000000E+00 0. -1.
    9000007    2    1    2  502    0  0.41472915735E+03 -0.11720687006E+03 -0.11650894836E+04  0.13075493395E+04  0.40806132648E+03 0.  0.
    9000005    1    3    3    0    0  0.49650996471E+03 -0.11548342976E+03 -0.96458809087E+03  0.10910040113E+04  0.99999687468E+00 0.  0.
          4    1    3    3  502    0 -0.81780807355E+02 -0.17234403032E+01 -0.20050139271E+03  0.21654532823E+03  0.00000000000E+00 0.  1.
   -9000007    1    1    2    0  501 -0.41472915735E+03  0.11720687006E+03  0.35757751351E+03  0.68818558726E+03  0.40000000000E+03 0.  1.
<mgrwt>
<rscale>  2 0.59074491E+03</rscale>
<asrwt>0</asrwt>
<pdfrwt beam="1">  1        2 0.21563437E+00 0.59074491E+03</pdfrwt>
<pdfrwt beam="2">  1       -2 0.91401767E-01 0.59074491E+03</pdfrwt>
<totfact> 0.15396119E+01</totfact>
</mgrwt>
</event>
<event>
 6    1  0.9205235E-004  0.4661945E+03  0.7818608E-02  0.1023000E+00
          1   -1    0    0  502    0  0.00000000000E+00  0.00000000000E+00  0.15860171158E+04  0.15860171158E+04  0.00000000000E+00 0.  1.
         -1   -1    0    0    0  501 -0.00000000000E+00 -0.00000000000E+00 -0.13992582053E+03  0.13992582053E+03  0.00000000000E+00 0. -1.
    9000007    2    1    2  502    0  0.32190908732E+02  0.23723485216E+03  0.59900624601E+03  0.75905632955E+03  0.40005174540E+03 0.  0.
    9000005    1    3    3    0    0 -0.83940595918E+02  0.30995733911E+03  0.48032275984E+03  0.57778069310E+03  0.99999687468E+00 0.  0.
          4    1    3    3  502    0  0.11613150465E+03 -0.72722486953E+02  0.11868348617E+03  0.18127563645E+03  0.00000000000E+00 0.  1.
   -9000007    1    1    2    0  501 -0.32190908732E+02 -0.23723485216E+03  0.84708504929E+03  0.96688660680E+03  0.40000000000E+03 0.  1.
<mgrwt>
<rscale>  2 0.46619452E+03</rscale>
<asrwt>0</asrwt>
<pdfrwt beam="1">  1        1 0.24400262E+00 0.46619452E+03</pdfrwt>
<pdfrwt beam="2">  1       -1 0.21527050E-01 0.46619452E+03</pdfrwt>
<totfact> 0.10897347E+02</totfact>
</mgrwt>
</event>
<event>
 6    1  0.9205235E-004  0.5568453E+03  0.7818608E-02  0.9999218E-01
         -2   -1    0    0    0  501 -0.00000000000E+00  0.00000000000E+00  0.31391508490E+03  0.31391508490E+03  0.00000000000E+00 0.  1.
          2   -1    0    0  502    0  0.00000000000E+00 -0.00000000000E+00 -0.10132592582E+04  0.10132592582E+04  0.00000000000E+00 0. -1.
    9000007    2    1    2  502    0 -0.22257139972E+03  0.31736663601E+03 -0.24432795919E+03  0.60793907929E+03  0.39954244189E+03 0.  0.
    9000005    1    3    3    0    0 -0.23713643259E+03  0.12818297550E+02 -0.17570102160E+03  0.29541470072E+03  0.99999687468E+00 0.  0.
          4    1    3    3  502    0  0.14565032875E+02  0.30454833846E+03 -0.68626937582E+02  0.31252437857E+03  0.00000000000E+00 0.  1.
   -9000007    1    1    2    0  501  0.22257139972E+03 -0.31736663601E+03 -0.45501621414E+03  0.71923526384E+03  0.40000000000E+03 0. -1.
<mgrwt>
<rscale>  2 0.55684525E+03</rscale>
<asrwt>0</asrwt>
<pdfrwt beam="1">  1        2 0.15588604E+00 0.55684525E+03</pdfrwt>
<pdfrwt beam="2">  1       -2 0.48294629E-01 0.55684525E+03</pdfrwt>
<totfact> 0.10335203E+02</totfact>
</mgrwt>
</event>
<event>
 6    1  0.9205235E-004  0.4813538E+03  0.7818608E-02  0.1018764E+00
          2   -1    0    0  502    0  0.00000000000E+00  0.00000000000E+00  0.70725057739E+03  0.70725057739E+03  0.00000000000E+00 0.  1.
         -2   -1    0    0    0  501 -0.00000000000E+00 -0.00000000000E+00 -0.48516770135E+03  0.48516770135E+03  0.00000000000E+00 0. -1.
    9000007    2    1    2  502    0  0.75531443112E+02  0.25713439308E+03  0.45078326165E+03  0.65938266888E+03  0.39969595949E+03 0.  0.
    9000005    1    3    3    0    0 -0.11087911640E+03  0.11147939988E+03  0.80877432625E+01  0.15744283609E+03  0.99999687468E+00 0.  0.
          4    1    3    3  502    0  0.18641055951E+03  0.14565499320E+03  0.44269551839E+03  0.50193983279E+03  0.00000000000E+00 0.  1.
   -9000007    1    1    2    0  501 -0.75531443112E+02 -0.25713439308E+03 -0.22870038561E+03  0.53303560986E+03  0.40000000000E+03 0. -1.
<mgrwt>
<rscale>  2 0.48135381E+03</rscale>
<asrwt>0</asrwt>
<pdfrwt beam="1">  1        2 0.10880778E+00 0.48135381E+03</pdfrwt>
<pdfrwt beam="2">  1       -2 0.74641185E-01 0.48135381E+03</pdfrwt>
<totfact> 0.67637005E+01</totfact>
</mgrwt>
</event>
<event>
 6    1  0.9205235E-004  0.7724178E+03  0.7818608E-02  0.9600822E-01
          1   -1    0    0  502    0  0.00000000000E+00  0.00000000000E+00  0.23482217481E+04  0.23482217481E+04  0.00000000000E+00 0.  1.
         -1   -1    0    0    0  501 -0.00000000000E+00 -0.00000000000E+00 -0.32701930814E+03  0.32701930814E+03  0.00000000000E+00 0. -1.
    9000007    2    1    2  502    0 -0.72899256209E+02 -0.65573690436E+03  0.16432080838E+04  0.18160641696E+04  0.40330022562E+03 0.  0.
    9000005    1    3    3    0    0 -0.11846343876E+03 -0.28231094103E+03  0.33050427088E+03  0.45051873081E+03  0.99999687468E+00 0.  0.
          4    1    3    3  502    0  0.45564182550E+02 -0.37342596333E+03  0.13127038130E+04  0.13655454388E+04  0.00000000000E+00 0.  1.
   -9000007    1    1    2    0  501  0.72899256209E+02  0.65573690436E+03  0.37799435615E+03  0.85917688667E+03  0.40000000000E+03 0. -1.
<mgrwt>
<rscale>  2 0.77241780E+03</rscale>
<asrwt>0</asrwt>
<pdfrwt beam="1">  1        1 0.36126487E+00 0.77241780E+03</pdfrwt>
<pdfrwt beam="2">  1       -1 0.50310664E-01 0.77241780E+03</pdfrwt>
<totfact> 0.71808556E+00</totfact>
</mgrwt>
</event>
<event>
 6    1  0.9205235E-004  0.6423214E+03  0.7818608E-02  0.9821295E-01
         -1   -1    0    0    0  501 -0.00000000000E+00  0.00000000000E+00  0.23572469585E+03  0.23572469585E+03  0.00000000000E+00 0.  1.
          1   -1    0    0  502    0  0.00000000000E+00 -0.00000000000E+00 -0.23721263674E+04  0.23721263674E+04  0.00000000000E+00 0. -1.
    9000007    2    1    2  502    0 -0.43906042774E+03 -0.24515787477E+03 -0.17355454193E+04  0.18505121842E+04  0.39925054614E+03 0.  0.
    9000005    1    3    3    0    0 -0.41031281670E+03 -0.15538743905E+03 -0.81888980402E+03  0.92902280644E+03  0.99999687468E+00 0.  0.
          4    1    3    3  502    0 -0.28747611040E+02 -0.89770435724E+02 -0.91665561529E+03  0.92148937776E+03  0.00000000000E+00 0.  1.
   -9000007    1    1    2    0  501  0.43906042774E+03  0.24515787477E+03 -0.40085625223E+03  0.75733887905E+03  0.40000000000E+03 0.  1.
<mgrwt>
<rscale>  2 0.64232144E+03</rscale>
<asrwt>0</asrwt>
<pdfrwt beam="1">  1        1 0.36494252E+00 0.64232144E+03</pdfrwt>
<pdfrwt beam="2">  1       -1 0.36265338E-01 0.64232144E+03</pdfrwt>
<totfact> 0.12920810E+01</totfact>
</mgrwt>
</event>
<event>
 6    1  0.9205235E-004  0.4258663E+03  0.7818608E-02  0.1035174E+00
         -2   -1    0    0    0  501 -0.00000000000E+00  0.00000000000E+00  0.81985467765E+02  0.81985467765E+02  0.00000000000E+00 0.  1.
          2   -1    0    0  502    0  0.00000000000E+00 -0.00000000000E+00 -0.24513461769E+04  0.24513461769E+04  0.00000000000E+00 0. -1.
    9000007    2    1    2  502    0  0.64095773033E+01  0.14465710286E+03 -0.15815384325E+04  0.16379933289E+04  0.40098824424E+03 0.  0.
    9000005    1    3    3    0    0 -0.51795382879E+01 -0.98838712814E+02 -0.10329567614E+04  0.10376880985E+04  0.99999687468E+00 0.  0.
          4    1    3    3  502    0  0.11589115591E+02  0.24349581567E+03 -0.54858167109E+03  0.60030523045E+03  0.00000000000E+00 0.  1.
   -9000007    1    1    2    0  501 -0.64095773033E+01 -0.14465710286E+03 -0.78782227666E+03  0.89533831578E+03  0.40000000000E+03 0.  1.
<mgrwt>
<rscale>  2 0.42586631E+03</rscale>
<asrwt>0</asrwt>
<pdfrwt beam="1">  1        2 0.37713019E+00 0.42586631E+03</pdfrwt>
<pdfrwt beam="2">  1       -2 0.12613149E-01 0.42586631E+03</pdfrwt>
<totfact> 0.18836646E+02</totfact>
</mgrwt>
</event>
<event>
 6    1  0.9205235E-004  0.4481010E+03  0.7818608E-02  0.1028290E+00
          2   -1    0    0  502    0  0.00000000000E+00  0.00000000000E+00  0.24149239000E+03  0.24149239000E+03  0.00000000000E+00 0.  1.
         -2   -1    0    0    0  501 -0.00000000000E+00 -0.00000000000E+00 -0.84703002833E+03  0.84703002833E+03  0.00000000000E+00 0. -1.
    9000007    2    1    2  502    0 -0.19466544478E+03  0.53791591199E+02 -0.37653273579E+03  0.58530137737E+03  0.40001578788E+03 0.  0.
    9000005    1    3    3    0    0  0.65898476600E+02 -0.89884132834E+02 -0.81439758989E+01  0.11175460121E+03  0.99999687468E+00 0.  0.
          4    1    3    3  502    0 -0.26056392138E+03  0.14367572403E+03 -0.36838875989E+03  0.47354677617E+03  0.00000000000E+00 0.  1.
   -9000007    1    1    2    0  501  0.19466544478E+03 -0.53791591199E+02 -0.22900490253E+03  0.50322104096E+03  0.40000000000E+03 0. -1.
<mgrwt>
<rscale>  2 0.44810098E+03</rscale>
<asrwt>0</asrwt>
<pdfrwt beam="1">  1        2 0.37152676E-01 0.44810098E+03</pdfrwt>
<pdfrwt beam="2">  1       -2 0.13031231E+00 0.44810098E+03</pdfrwt>
<totfact> 0.62189337E+01</totfact>
</mgrwt>
</event>
<event>
 6    1  0.9205235E-004  0.4916881E+03  0.7818608E-02  0.1015972E+00
          2   -1    0    0  502    0  0.00000000000E+00  0.00000000000E+00  0.41471905460E+03  0.41471905460E+03  0.00000000000E+00 0.  1.
         -2   -1    0    0    0  501 -0.00000000000E+00 -0.00000000000E+00 -0.58303785940E+03  0.58303785940E+03  0.00000000000E+00 0. -1.
    9000007    2    1    2  502    0 -0.12190362757E+03  0.25870326884E+03 -0.90549508276E+02  0.49992567834E+03  0.39992323599E+03 0.  0.
    9000005    1    3    3    0    0  0.11024109875E+03  0.14406131115E+03  0.70939101890E+02  0.19478223069E+03  0.99999687468E+00 0.  0.
          4    1    3    3  502    0 -0.23214472633E+03  0.11464195770E+03 -0.16148861017E+03  0.30514344764E+03  0.00000000000E+00 0.  1.
   -9000007    1    1    2    0  501  0.12190362757E+03 -0.25870326884E+03 -0.77769296525E+02  0.49783123567E+03  0.40000000000E+03 0. -1.
<mgrwt>
<rscale>  2 0.49168808E+03</rscale>
<asrwt>0</asrwt>
<pdfrwt beam="1">  1        2 0.63802932E-01 0.49168808E+03</pdfrwt>
<pdfrwt beam="2">  1       -2 0.89698132E-01 0.49168808E+03</pdfrwt>
<totfact> 0.83547143E+01</totfact>
</mgrwt>
</event>
<event>
 6    1  0.9205235E-004  0.4004451E+03  0.7818608E-02  0.1043626E+00
          2   -1    0    0  502    0  0.00000000000E+00  0.00000000000E+00  0.30073726846E+03  0.30073726846E+03  0.00000000000E+00 0.  1.
         -2   -1    0    0    0  501 -0.00000000000E+00 -0.00000000000E+00 -0.53726223069E+03  0.53726223069E+03  0.00000000000E+00 0. -1.
    9000007    2    1    2  502    0  0.12601464835E+02  0.42883894658E+01 -0.81942803683E+02  0.40896240176E+03  0.40044779407E+03 0.  0.
    9000005    1    3    3    0    0  0.13009369769E+03 -0.64947100893E+02 -0.18695246298E+03  0.23684323824E+03  0.99999687468E+00 0.  0.
          4    1    3    3  502    0 -0.11749223285E+03  0.69235490359E+02  0.10500965929E+03  0.17211916352E+03  0.00000000000E+00 0.  1.
   -9000007    1    1    2    0  501 -0.12601464835E+02 -0.42883894658E+01 -0.15458215855E+03  0.42903709739E+03  0.40000000000E+03 0. -1.
<mgrwt>
<rscale>  2 0.40044513E+03</rscale>
<asrwt>0</asrwt>
<pdfrwt beam="1">  1        2 0.46267272E-01 0.40044513E+03</pdfrwt>
<pdfrwt beam="2">  1       -2 0.82655728E-01 0.40044513E+03</pdfrwt>
<totfact> 0.14427890E+02</totfact>
</mgrwt>
</event>
<event>
 6    1  0.9205235E-004  0.4502252E+03  0.7818608E-02  0.1027655E+00
          2   -1    0    0  502    0  0.00000000000E+00  0.00000000000E+00  0.35454209325E+04  0.35454209325E+04  0.00000000000E+00 0. -1.
         -2   -1    0    0    0  501 -0.00000000000E+00 -0.00000000000E+00 -0.68667280686E+02  0.68667280686E+02  0.00000000000E+00 0.  1.
    9000007    2    1    2  502    0 -0.87747074841E+02  0.18783183492E+03  0.99806699348E+03  0.10947891246E+04  0.39930584343E+03 0.  0.
    9000005    1    3    3    0    0 -0.26804253997E+01 -0.10831062905E+03  0.47951514647E+03  0.49160365411E+03  0.99999687468E+00 0.  0.
          4    1    3    3  502    0 -0.85066649441E+02  0.29614246398E+03  0.51855184701E+03  0.60318547053E+03  0.00000000000E+00 0.  1.
   -9000007    1    1    2    0  501  0.87747074841E+02 -0.18783183492E+03  0.24786866583E+04  0.25192990885E+04  0.40000000000E+03 0. -1.
<mgrwt>
<rscale>  2 0.45022521E+03</rscale>
<asrwt>0</asrwt>
<pdfrwt beam="1">  1        2 0.54544923E+00 0.45022521E+03</pdfrwt>
<pdfrwt beam="2">  1       -2 0.10564200E-01 0.45022521E+03</pdfrwt>
<totfact> 0.54245993E+01</totfact>
</mgrwt>
</event>
<event>
 6    1  0.9205235E-004  0.4009812E+03  0.7818608E-02  0.1043440E+00
         -2   -1    0    0    0  501 -0.00000000000E+00  0.00000000000E+00  0.52267653006E+02  0.52267653006E+02  0.00000000000E+00 0.  1.
          2   -1    0    0  502    0  0.00000000000E+00 -0.00000000000E+00 -0.32479640473E+04  0.32479640473E+04  0.00000000000E+00 0. -1.
    9000007    2    1    2  502    0  0.11422751208E+02 -0.21039593755E+02 -0.12193884623E+04  0.12837084086E+04  0.40053203703E+03 0.  0.
    9000005    1    3    3    0    0 -0.12138672689E+03 -0.38219054354E+02 -0.11592393191E+03  0.17214758657E+03  0.99999687468E+00 0.  0.
          4    1    3    3  502    0  0.13280947809E+03  0.17179460599E+02 -0.11034645304E+04  0.11115608221E+04  0.00000000000E+00 0.  1.
   -9000007    1    1    2    0  501 -0.11422751208E+02  0.21039593755E+02 -0.19763079320E+04  0.20165232917E+04  0.40000000000E+03 0. -1.
<mgrwt>
<rscale>  2 0.40098125E+03</rscale>
<asrwt>0</asrwt>
<pdfrwt beam="1">  1        2 0.49968674E+00 0.40098125E+03</pdfrwt>
<pdfrwt beam="2">  1       -2 0.80411780E-02 0.40098125E+03</pdfrwt>
<totfact> 0.13315158E+02</totfact>
</mgrwt>
</event>
<event>
 6    1  0.9205235E-004  0.4914525E+03  0.7818608E-02  0.1016034E+00
          2   -1    0    0  502    0  0.00000000000E+00  0.00000000000E+00  0.12792983711E+04  0.12792983711E+04  0.00000000000E+00 0.  1.
         -2   -1    0    0    0  501 -0.00000000000E+00 -0.00000000000E+00 -0.18919439474E+03  0.18919439474E+03  0.00000000000E+00 0. -1.
    9000007    2    1    2  502    0 -0.13553508622E+03  0.25054903923E+03  0.51176437940E+03  0.70979567868E+03  0.40095204801E+03 0.  0.
    9000005    1    3    3    0    0 -0.80690614230E+02 -0.52908301842E+02 -0.16709129281E+02  0.97930886975E+02  0.99999687468E+00 0.  0.
          4    1    3    3  502    0 -0.54844471991E+02  0.30345734107E+03  0.52847350868E+03  0.61186479171E+03  0.00000000000E+00 0.  1.
   -9000007    1    1    2    0  501  0.13553508622E+03 -0.25054903923E+03  0.57833959696E+03  0.75869708717E+03  0.40000000000E+03 0.  1.
<mgrwt>
<rscale>  2 0.49145249E+03</rscale>
<asrwt>0</asrwt>
<pdfrwt beam="1">  1        2 0.19681513E+00 0.49145249E+03</pdfrwt>
<pdfrwt beam="2">  1       -2 0.29106831E-01 0.49145249E+03</pdfrwt>
<totfact> 0.19079950E+02</totfact>
</mgrwt>
</event>
<event>
 6    1  0.9205235E-004  0.4321600E+03  0.7818608E-02  0.1033180E+00
         -2   -1    0    0    0  501 -0.00000000000E+00  0.00000000000E+00  0.25945378940E+03  0.25945378940E+03  0.00000000000E+00 0. -1.
          2   -1    0    0  502    0  0.00000000000E+00 -0.00000000000E+00 -0.75819640552E+03  0.75819640552E+03  0.00000000000E+00 0.  1.
    9000007    2    1    2  502    0 -0.44522546248E+02 -0.16188419000E+03 -0.36291625847E+03  0.56307616626E+03  0.39643134368E+03 0.  0.
    9000005    1    3    3    0    0 -0.19569570725E+03 -0.23099195482E+02 -0.77967878258E+02  0.21192067549E+03  0.99999687468E+00 0.  0.
          4    1    3    3  502    0  0.15117316100E+03 -0.13878499451E+03 -0.28494838021E+03  0.35115549076E+03  0.00000000000E+00 0.  1.
   -9000007    1    1    2    0  501  0.44522546248E+02  0.16188419000E+03 -0.13582635765E+03  0.45457402866E+03  0.40000000000E+03 0.  1.
<mgrwt>
<rscale>  2 0.43215998E+03</rscale>
<asrwt>0</asrwt>
<pdfrwt beam="1">  1        2 0.11664560E+00 0.43215998E+03</pdfrwt>
<pdfrwt beam="2">  1       -2 0.39915968E-01 0.43215998E+03</pdfrwt>
<totfact> 0.22586875E+02</totfact>
</mgrwt>
</event>
<event>
 6    1  0.9205235E-004  0.5680586E+03  0.7818608E-02  0.9973984E-01
         -2   -1    0    0    0  501 -0.00000000000E+00  0.00000000000E+00  0.29662978946E+03  0.29662978946E+03  0.00000000000E+00 0. -1.
          2   -1    0    0  502    0  0.00000000000E+00 -0.00000000000E+00 -0.11060311294E+04  0.11060311294E+04  0.00000000000E+00 0.  1.
    9000007    2    1    2  502    0 -0.94586503562E+02 -0.39231554396E+03 -0.49450058745E+03  0.75302981076E+03  0.39958099582E+03 0.  0.
    9000005    1    3    3    0    0  0.12105548403E+03 -0.16852840214E+03 -0.35758521539E+03  0.41343008938E+03  0.99999687468E+00 0.  0.
          4    1    3    3  502    0 -0.21564198759E+03 -0.22378714182E+03 -0.13691537205E+03  0.33959972138E+03  0.00000000000E+00 0.  1.
   -9000007    1    1    2    0  501  0.94586503562E+02  0.39231554396E+03 -0.31490075251E+03  0.64963110811E+03  0.40000000000E+03 0. -1.
<mgrwt>
<rscale>  2 0.56805857E+03</rscale>
<asrwt>0</asrwt>
<pdfrwt beam="1">  1        2 0.17015864E+00 0.56805857E+03</pdfrwt>
<pdfrwt beam="2">  1       -2 0.45635352E-01 0.56805857E+03</pdfrwt>
<totfact> 0.10137805E+02</totfact>
</mgrwt>
</event>
<event>
 6    1  0.9205235E-004  0.4172757E+03  0.7818608E-02  0.1037957E+00
         -2   -1    0    0    0  501 -0.00000000000E+00  0.00000000000E+00  0.18953844738E+03  0.18953844738E+03  0.00000000000E+00 0.  1.
          2   -1    0    0  502    0  0.00000000000E+00 -0.00000000000E+00 -0.94346076013E+03  0.94346076013E+03  0.00000000000E+00 0. -1.
    9000007    2    1    2  502    0 -0.86212121420E+02 -0.79051048666E+02 -0.28555394129E+03  0.50606178673E+03  0.40109335626E+03 0.  0.
    9000005    1    3    3    0    0 -0.17966305136E+03  0.90758192603E+02 -0.22742249120E+03  0.30370685051E+03  0.99999687468E+00 0.  0.
          4    1    3    3  502    0  0.93450929937E+02 -0.16980924127E+03 -0.58131450090E+02  0.20235493623E+03  0.00000000000E+00 0.  1.
   -9000007    1    1    2    0  501  0.86212121420E+02  0.79051048666E+02 -0.46836837146E+03  0.62693742077E+03  0.40000000000E+03 0. -1.
<mgrwt>
<rscale>  2 0.41727567E+03</rscale>
<asrwt>0</asrwt>
<pdfrwt beam="1">  1        2 0.14514781E+00 0.41727567E+03</pdfrwt>
<pdfrwt beam="2">  1       -2 0.29159761E-01 0.41727567E+03</pdfrwt>
<totfact> 0.30489633E+02</totfact>
</mgrwt>
</event>
<event>
 6    1  0.9205235E-004  0.4899135E+03  0.7818608E-02  0.1016446E+00
         -2   -1    0    0    0  501 -0.00000000000E+00  0.00000000000E+00  0.47372380181E+03  0.47372380181E+03  0.00000000000E+00 0.  1.
          2   -1    0    0  502    0  0.00000000000E+00 -0.00000000000E+00 -0.54908027638E+03  0.54908027638E+03  0.00000000000E+00 0. -1.
    9000007    2    1    2  502    0 -0.27233207284E+03  0.74392830659E+02  0.10444932619E+03  0.50123991422E+03  0.40079014298E+03 0.  0.
    9000005    1    3    3    0    0 -0.58145103712E+02  0.17812323491E+03 -0.76384521295E+02  0.20234706568E+03  0.99999687468E+00 0.  0.
          4    1    3    3  502    0 -0.21418696913E+03 -0.10373040425E+03  0.18083384749E+03  0.29889284854E+03  0.00000000000E+00 0.  1.
   -9000007    1    1    2    0  501  0.27233207284E+03 -0.74392830659E+02 -0.17980580076E+03  0.52156416397E+03  0.40000000000E+03 0.  1.
<mgrwt>
<rscale>  2 0.48991347E+03</rscale>
<asrwt>0</asrwt>
<pdfrwt beam="1">  1        2 0.84473889E-01 0.48991347E+03</pdfrwt>
<pdfrwt beam="2">  1       -2 0.72880585E-01 0.48991347E+03</pdfrwt>
<totfact> 0.96610194E+01</totfact>
</mgrwt>
</event>
<event>
 6    1  0.9205235E-004  0.4198953E+03  0.7818608E-02  0.1037100E+00
         -2   -1    0    0    0  501 -0.00000000000E+00  0.00000000000E+00  0.75212211788E+02  0.75212211788E+02  0.00000000000E+00 0.  1.
          2   -1    0    0  502    0  0.00000000000E+00 -0.00000000000E+00 -0.23741700344E+04  0.23741700344E+04  0.00000000000E+00 0. -1.
    9000007    2    1    2  502    0  0.12266341719E+03  0.28532616879E+02 -0.10133317464E+04  0.10970898104E+04  0.40112890648E+03 0.  0.
    9000005    1    3    3    0    0 -0.23871683700E+02 -0.48271913176E+02 -0.88775068140E+03  0.88938310486E+03  0.99999687468E+00 0.  0.
          4    1    3    3  502    0  0.14653510089E+03  0.76804530055E+02 -0.12558106500E+03  0.20770670552E+03  0.00000000000E+00 0.  1.
   -9000007    1    1    2    0  501 -0.12266341719E+03 -0.28532616879E+02 -0.12856260762E+04  0.13522924358E+04  0.40000000000E+03 0. -1.
<mgrwt>
<rscale>  2 0.41989528E+03</rscale>
<asrwt>0</asrwt>
<pdfrwt beam="1">  1        2 0.36525689E+00 0.41989528E+03</pdfrwt>
<pdfrwt beam="2">  1       -2 0.11571111E-01 0.41989528E+03</pdfrwt>
<totfact> 0.23950725E+02</totfact>
</mgrwt>
</event>
<event>
 6    1  0.9205235E-004  0.5708937E+03  0.7818608E-02  0.9967703E-01
         -2   -1    0    0    0  501 -0.00000000000E+00  0.00000000000E+00  0.38931529019E+03  0.38931529019E+03  0.00000000000E+00 0. -1.
          2   -1    0    0  502    0  0.00000000000E+00 -0.00000000000E+00 -0.92344666616E+03  0.92344666616E+03  0.00000000000E+00 0.  1.
    9000007    2    1    2  502    0 -0.35748023632E+03  0.19624657085E+03 -0.66282367646E+02  0.57439380256E+03  0.39903640464E+03 0.  0.
    9000005    1    3    3    0    0 -0.22427013433E+03  0.20743911179E+01  0.13742379482E+03  0.26303554062E+03  0.99999687468E+00 0.  0.
          4    1    3    3  502    0 -0.13321010199E+03  0.19417217973E+03 -0.20370616246E+03  0.31135826194E+03  0.00000000000E+00 0.  1.
   -9000007    1    1    2    0  501  0.35748023632E+03 -0.19624657085E+03 -0.46784900832E+03  0.73836815378E+03  0.40000000000E+03 0.  1.
<mgrwt>
<rscale>  2 0.57089372E+03</rscale>
<asrwt>0</asrwt>
<pdfrwt beam="1">  1        2 0.14206872E+00 0.57089372E+03</pdfrwt>
<pdfrwt beam="2">  1       -2 0.59894660E-01 0.57089372E+03</pdfrwt>
<totfact> 0.75696245E+01</totfact>
</mgrwt>
</event>
<event>
 6    1  0.9205235E-004  0.4643224E+03  0.7818608E-02  0.1023535E+00
          2   -1    0    0  502    0  0.00000000000E+00  0.00000000000E+00  0.27934677694E+04  0.27934677694E+04  0.00000000000E+00 0. -1.
         -2   -1    0    0    0  501 -0.00000000000E+00 -0.00000000000E+00 -0.77534264111E+02  0.77534264111E+02  0.00000000000E+00 0.  1.
    9000007    2    1    2  502    0  0.21414738911E+03  0.69626164963E+02  0.14693233562E+04  0.15425654445E+04  0.41217729013E+03 0.  0.
    9000005    1    3    3    0    0 -0.87906839823E+02  0.13305632340E+03  0.56165474876E+03  0.58385670715E+03  0.99999687468E+00 0.  0.
          4    1    3    3  502    0  0.30205422893E+03 -0.63430158432E+02  0.90766860740E+03  0.95870873735E+03  0.00000000000E+00 0.  1.
   -9000007    1    1    2    0  501 -0.21414738911E+03 -0.69626164963E+02  0.12466101491E+04  0.13284365890E+04  0.40000000000E+03 0. -1.
<mgrwt>
<rscale>  2 0.46432237E+03</rscale>
<asrwt>0</asrwt>
<pdfrwt beam="1">  1        2 0.42976419E+00 0.46432237E+03</pdfrwt>
<pdfrwt beam="2">  1       -2 0.11928351E-01 0.46432237E+03</pdfrwt>
<totfact> 0.13114022E+02</totfact>
</mgrwt>
</event>
<event>
 6    1  0.9205235E-004  0.4369483E+03  0.7818608E-02  0.1031687E+00
         -2   -1    0    0    0  501 -0.00000000000E+00  0.00000000000E+00  0.15894376389E+03  0.15894376389E+03  0.00000000000E+00 0. -1.
          2   -1    0    0  502    0  0.00000000000E+00 -0.00000000000E+00 -0.12322894697E+04  0.12322894697E+04  0.00000000000E+00 0.  1.
    9000007    2    1    2  502    0  0.17779625959E+03 -0.78788526039E+01 -0.42517283414E+03  0.60905572317E+03  0.39812479048E+03 0.  0.
    9000005    1    3    3    0    0  0.10275467769E+03 -0.12726940290E+03 -0.26230366379E+01  0.16359677570E+03  0.99999687468E+00 0.  0.
          4    1    3    3  502    0  0.75041581897E+02  0.11939055030E+03 -0.42254979750E+03  0.44545894747E+03  0.00000000000E+00 0.  1.
   -9000007    1    1    2    0  501 -0.17779625959E+03  0.78788526039E+01 -0.64817287169E+03  0.78217751044E+03  0.40000000000E+03 0.  1.
<mgrwt>
<rscale>  2 0.43694827E+03</rscale>
<asrwt>0</asrwt>
<pdfrwt beam="1">  1        2 0.18958299E+00 0.43694827E+03</pdfrwt>
<pdfrwt beam="2">  1       -2 0.24452888E-01 0.43694827E+03</pdfrwt>
<totfact> 0.27970255E+02</totfact>
</mgrwt>
</event>
<event>
 6    1  0.9205235E-004  0.4864638E+03  0.7818608E-02  0.1017374E+00
         -2   -1    0    0    0  501 -0.00000000000E+00  0.00000000000E+00  0.30908538206E+03  0.30908538206E+03  0.00000000000E+00 0. -1.
          2   -1    0    0  502    0  0.00000000000E+00 -0.00000000000E+00 -0.85997470310E+03  0.85997470310E+03  0.00000000000E+00 0.  1.
    9000007    2    1    2  502    0 -0.27655186244E+03 -0.20147913487E+02 -0.46892128612E+03  0.67549587476E+03  0.39940034202E+03 0.  0.
    9000005    1    3    3    0    0 -0.17932024398E+03  0.16922605901E+03 -0.36008094339E+03  0.43640863275E+03  0.99999687468E+00 0.  0.
          4    1    3    3  502    0 -0.97231618468E+02 -0.18937397250E+03 -0.10884034273E+03  0.23908724202E+03  0.00000000000E+00 0.  1.
   -9000007    1    1    2    0  501  0.27655186244E+03  0.20147913487E+02 -0.81968034921E+02  0.49356421040E+03  0.40000000000E+03 0. -1.
<mgrwt>
<rscale>  2 0.48646384E+03</rscale>
<asrwt>0</asrwt>
<pdfrwt beam="1">  1        2 0.13230380E+00 0.48646384E+03</pdfrwt>
<pdfrwt beam="2">  1       -2 0.47551597E-01 0.48646384E+03</pdfrwt>
<totfact> 0.13511331E+02</totfact>
</mgrwt>
</event>
<event>
 6    1  0.9205235E-004  0.4117988E+03  0.7818608E-02  0.1039769E+00
         -2   -1    0    0    0  501 -0.00000000000E+00  0.00000000000E+00  0.17342474293E+04  0.17342474293E+04  0.00000000000E+00 0. -1.
          2   -1    0    0  502    0  0.00000000000E+00 -0.00000000000E+00 -0.13786176252E+03  0.13786176252E+03  0.00000000000E+00 0.  1.
    9000007    2    1    2  502    0  0.92092473521E+02  0.26929999348E+02  0.13035232246E+04  0.13671590373E+04  0.40092990358E+03 0.  0.
    9000005    1    3    3    0    0  0.23663865094E+03 -0.25832874457E+02  0.57072464804E+03  0.61837918173E+03  0.99999687468E+00 0.  0.
          4    1    3    3  502    0 -0.14454617742E+03  0.52762873805E+02  0.73279857658E+03  0.74877985557E+03  0.00000000000E+00 0.  1.
   -9000007    1    1    2    0  501 -0.92092473521E+02 -0.26929999348E+02  0.29286244218E+03  0.50495015455E+03  0.40000000000E+03 0.  1.
<mgrwt>
<rscale>  2 0.41179878E+03</rscale>
<asrwt>0</asrwt>
<pdfrwt beam="1">  1        2 0.21209503E-01 0.41179878E+03</pdfrwt>
<pdfrwt beam="2">  1       -2 0.26680728E+00 0.41179878E+03</pdfrwt>
<totfact> 0.14454535E+01</totfact>
</mgrwt>
</event>
<event>
 6    1  0.9205235E-004  0.5420367E+03  0.7818608E-02  0.1003354E+00
         -1   -1    0    0    0  501 -0.00000000000E+00  0.00000000000E+00  0.30574387367E+03  0.30574387367E+03  0.00000000000E+00 0.  1.
          1   -1    0    0  502    0  0.00000000000E+00 -0.00000000000E+00 -0.96885145601E+03  0.96885145601E+03  0.00000000000E+00 0. -1.
    9000007    2    1    2  502    0  0.31004612713E+03  0.19015750616E+03 -0.38994244781E+03  0.66886629057E+03  0.40378029170E+03 0.  0.
    9000005    1    3    3    0    0  0.96150264763E+02  0.29056128253E+03 -0.24097584671E+03  0.38953958850E+03  0.99999687468E+00 0.  0.
          4    1    3    3  502    0  0.21389586237E+03 -0.10040377637E+03 -0.14896660109E+03  0.27932670207E+03  0.00000000000E+00 0.  1.
   -9000007    1    1    2    0  501 -0.31004612713E+03 -0.19015750616E+03 -0.27316513454E+03  0.60572903911E+03  0.40000000000E+03 0. -1.
<mgrwt>
<rscale>  2 0.54203673E+03</rscale>
<asrwt>0</asrwt>
<pdfrwt beam="1">  1        1 0.14905407E+00 0.54203673E+03</pdfrwt>
<pdfrwt beam="2">  1       -1 0.47037519E-01 0.54203673E+03</pdfrwt>
<totfact> 0.75281298E+01</totfact>
</mgrwt>
</event>
<event>
 6    1  0.9205235E-004  0.6744614E+03  0.7818608E-02  0.9761932E-01
          2   -1    0    0  502    0  0.00000000000E+00  0.00000000000E+00  0.32606652806E+03  0.32606652806E+03  0.00000000000E+00 0. -1.
         -2   -1    0    0    0  501 -0.00000000000E+00 -0.00000000000E+00 -0.17316125374E+04  0.17316125374E+04  0.00000000000E+00 0.  1.
    9000007    2    1    2  502    0 -0.15061569979E+03 -0.52215109297E+03 -0.11560481056E+04  0.13382514757E+04  0.39892723263E+03 0.  0.
    9000005    1    3    3    0    0  0.27318920580E+02 -0.11447918935E+03 -0.21530651926E+02  0.11965106427E+03  0.99999687468E+00 0.  0.
          4    1    3    3  502    0 -0.17793462037E+03 -0.40767190363E+03 -0.11345174537E+04  0.12186004115E+04  0.00000000000E+00 0.  1.
   -9000007    1    1    2    0  501  0.15061569979E+03  0.52215109297E+03 -0.24949790378E+03  0.71942758976E+03  0.40000000000E+03 0. -1.
<mgrwt>
<rscale>  2 0.67446136E+03</rscale>
<asrwt>0</asrwt>
<pdfrwt beam="1">  1        2 0.50164081E-01 0.67446136E+03</pdfrwt>
<pdfrwt beam="2">  1       -2 0.26640193E+00 0.67446136E+03</pdfrwt>
<totfact> 0.53129747E+00</totfact>
</mgrwt>
</event>
<event>
 6    1  0.9205235E-004  0.6493152E+03  0.7818608E-02  0.9808065E-01
          2   -1    0    0  502    0  0.00000000000E+00  0.00000000000E+00  0.16396899870E+04  0.16396899870E+04  0.00000000000E+00 0.  1.
         -2   -1    0    0    0  501 -0.00000000000E+00 -0.00000000000E+00 -0.25873252529E+03  0.25873252529E+03  0.00000000000E+00 0. -1.
    9000007    2    1    2  502    0 -0.34572549164E+03 -0.37764494908E+03  0.76479331604E+03  0.10029896128E+04  0.39866969272E+03 0.  0.
    9000005    1    3    3    0    0 -0.32798035719E+03 -0.37149396551E+03  0.39768194682E+03  0.63539815228E+03  0.99999687468E+00 0.  0.
          4    1    3    3  502    0 -0.17745134451E+02 -0.61509835766E+01  0.36711136922E+03  0.36759146047E+03  0.00000000000E+00 0.  1.
   -9000007    1    1    2    0  501  0.34572549164E+03  0.37764494908E+03  0.61616414562E+03  0.89543289949E+03  0.40000000000E+03 0.  1.
<mgrwt>
<rscale>  2 0.64931522E+03</rscale>
<asrwt>0</asrwt>
<pdfrwt beam="1">  1        2 0.25225999E+00 0.64931522E+03</pdfrwt>
<pdfrwt beam="2">  1       -2 0.39805005E-01 0.64931522E+03</pdfrwt>
<totfact> 0.65429539E+01</totfact>
</mgrwt>
</event>
<event>
 6    1  0.9205235E-004  0.6110403E+03  0.7818608E-02  0.9882762E-01
          2   -1    0    0  502    0  0.00000000000E+00  0.00000000000E+00  0.37801015158E+04  0.37801015158E+04  0.00000000000E+00 0. -1.
         -2   -1    0    0    0  501 -0.00000000000E+00 -0.00000000000E+00 -0.10062042615E+03  0.10062042615E+03  0.00000000000E+00 0.  1.
    9000007    2    1    2  502    0  0.33000468005E+03  0.32409286412E+03  0.21013136440E+04  0.21882232684E+04  0.39857592566E+03 0.  0.
    9000005    1    3    3    0    0  0.26518939046E+03  0.23056982640E+03  0.20149740771E+04  0.20453873445E+04  0.99999687468E+00 0.  0.
          4    1    3    3  502    0  0.64815289590E+02  0.93523037721E+02  0.86339566925E+02  0.14283592393E+03  0.00000000000E+00 0.  1.
   -9000007    1    1    2    0  501 -0.33000468005E+03 -0.32409286412E+03  0.15781674457E+04  0.16924986735E+04  0.40000000000E+03 0.  1.
<mgrwt>
<rscale>  2 0.61104028E+03</rscale>
<asrwt>0</asrwt>
<pdfrwt beam="1">  1        2 0.58155397E+00 0.61104028E+03</pdfrwt>
<pdfrwt beam="2">  1       -2 0.15480068E-01 0.61104028E+03</pdfrwt>
<totfact> 0.18928400E+01</totfact>
</mgrwt>
</event>
<event>
 6    1  0.9205235E-004  0.4174950E+03  0.7818608E-02  0.1037885E+00
          2   -1    0    0  502    0  0.00000000000E+00  0.00000000000E+00  0.59113419881E+03  0.59113419881E+03  0.00000000000E+00 0.  1.
         -2   -1    0    0    0  501 -0.00000000000E+00 -0.00000000000E+00 -0.29825139475E+03  0.29825139475E+03  0.00000000000E+00 0. -1.
    9000007    2    1    2  502    0 -0.17672197300E+02  0.12507836970E+03  0.19312795169E+03  0.45821516821E+03  0.39586087143E+03 0.  0.
    9000005    1    3    3    0    0 -0.12524878210E+03  0.66632683723E+02 -0.77155694890E+02  0.16149666624E+03  0.99999687468E+00 0.  0.
          4    1    3    3  502    0  0.10757658480E+03  0.58445685980E+02  0.27028364658E+03  0.29671850197E+03  0.00000000000E+00 0.  1.
   -9000007    1    1    2    0  501  0.17672197300E+02 -0.12507836970E+03  0.99754852381E+02  0.43117042535E+03  0.40000000000E+03 0.  1.
<mgrwt>
<rscale>  2 0.41749496E+03</rscale>
<asrwt>0</asrwt>
<pdfrwt beam="1">  1        2 0.90943722E-01 0.41749496E+03</pdfrwt>
<pdfrwt beam="2">  1       -2 0.45884830E-01 0.41749496E+03</pdfrwt>
<totfact> 0.23344218E+02</totfact>
</mgrwt>
</event>
<event>
 6    1  0.9205235E-004  0.4034778E+03  0.7818608E-02  0.1042582E+00
          2   -1    0    0  502    0  0.00000000000E+00  0.00000000000E+00  0.81818618310E+03  0.81818618310E+03  0.00000000000E+00 0.  1.
         -2   -1    0    0    0  501 -0.00000000000E+00 -0.00000000000E+00 -0.40981193417E+03  0.40981193417E+03  0.00000000000E+00 0. -1.
    9000007    2    1    2  502    0 -0.22776946256E+02  0.49135281672E+02  0.64455172169E+03  0.76033064586E+03  0.39965322959E+03 0.  0.
    9000005    1    3    3    0    0  0.29011530546E+02 -0.11711577514E+03  0.33892098808E+02  0.12532935828E+03  0.99999687468E+00 0.  0.
          4    1    3    3  502    0 -0.51788476803E+02  0.16625105681E+03  0.61065962288E+03  0.63500128758E+03  0.00000000000E+00 0.  1.
   -9000007    1    1    2    0  501  0.22776946256E+02 -0.49135281672E+02 -0.23617747276E+03  0.46766747142E+03  0.40000000000E+03 0. -1.
<mgrwt>
<rscale>  2 0.40347783E+03</rscale>
<asrwt>0</asrwt>
<pdfrwt beam="1">  1        2 0.12587480E+00 0.40347783E+03</pdfrwt>
<pdfrwt beam="2">  1       -2 0.63047990E-01 0.40347783E+03</pdfrwt>
<totfact> 0.81545625E+01</totfact>
</mgrwt>
</event>
<event>
 6    1  0.9205235E-004  0.4247054E+03  0.7818608E-02  0.1035546E+00
         -2   -1    0    0    0  501 -0.00000000000E+00  0.00000000000E+00  0.24484080346E+03  0.24484080346E+03  0.00000000000E+00 0. -1.
          2   -1    0    0  502    0  0.00000000000E+00 -0.00000000000E+00 -0.74564333636E+03  0.74564333636E+03  0.00000000000E+00 0.  1.
    9000007    2    1    2  502    0  0.10744500520E+03  0.94016589405E+02 -0.19616350589E+03  0.46780978135E+03  0.39997790222E+03 0.  0.
    9000005    1    3    3    0    0 -0.25097247707E+02 -0.69291082836E+02  0.87674610587E+02  0.11453804319E+03  0.99999687468E+00 0.  0.
          4    1    3    3  502    0  0.13254225290E+03  0.16330767224E+03 -0.28383811648E+03  0.35327173816E+03  0.00000000000E+00 0.  1.
   -9000007    1    1    2    0  501 -0.10744500520E+03 -0.94016589405E+02 -0.30463902700E+03  0.52267435847E+03  0.40000000000E+03 0.  1.
<mgrwt>
<rscale>  2 0.42470544E+03</rscale>
<asrwt>0</asrwt>
<pdfrwt beam="1">  1        2 0.11471436E+00 0.42470544E+03</pdfrwt>
<pdfrwt beam="2">  1       -2 0.37667816E-01 0.42470544E+03</pdfrwt>
<totfact> 0.25804438E+02</totfact>
</mgrwt>
</event>
<event>
 6    1  0.9205235E-004  0.4851269E+03  0.7818608E-02  0.1017736E+00
          2   -1    0    0  502    0  0.00000000000E+00  0.00000000000E+00  0.20178168307E+04  0.20178168307E+04  0.00000000000E+00 0.  1.
         -2   -1    0    0    0  501 -0.00000000000E+00 -0.00000000000E+00 -0.11838934063E+03  0.11838934063E+03  0.00000000000E+00 0. -1.
    9000007    2    1    2  502    0  0.15099522894E+03  0.22848698858E+03  0.10804117674E+04  0.11844747927E+04  0.40085544061E+03 0.  0.
    9000005    1    3    3    0    0  0.15698786112E+03  0.90178758088E+02  0.12720601651E+03  0.22126854177E+03  0.99999687468E+00 0.  0.
          4    1    3    3  502    0 -0.59926321793E+01  0.13830823049E+03  0.95320575091E+03  0.96320625092E+03  0.00000000000E+00 0.  1.
   -9000007    1    1    2    0  501 -0.15099522894E+03 -0.22848698858E+03  0.81901572263E+03  0.95173137861E+03  0.40000000000E+03 0. -1.
<mgrwt>
<rscale>  2 0.48512695E+03</rscale>
<asrwt>0</asrwt>
<pdfrwt beam="1">  1        2 0.31043333E+00 0.48512695E+03</pdfrwt>
<pdfrwt beam="2">  1       -2 0.18213746E-01 0.48512695E+03</pdfrwt>
<totfact> 0.17334560E+02</totfact>
</mgrwt>
</event>
<event>
 6    1  0.9205235E-004  0.4089959E+03  0.7818608E-02  0.1040708E+00
          1   -1    0    0  502    0  0.00000000000E+00  0.00000000000E+00  0.21358503410E+04  0.21358503410E+04  0.00000000000E+00 0.  1.
         -1   -1    0    0    0  501 -0.00000000000E+00 -0.00000000000E+00 -0.95434601161E+02  0.95434601161E+02  0.00000000000E+00 0. -1.
    9000007    2    1    2  502    0  0.47019558503E+02 -0.71136226286E+02  0.14926874679E+04  0.15477079813E+04  0.40001614583E+03 0.  0.
    9000005    1    3    3    0    0  0.10134801838E+03  0.10640001127E+03  0.24056316335E+03  0.28189363026E+03  0.99999687468E+00 0.  0.
          4    1    3    3  502    0 -0.54328459877E+02 -0.17753623756E+03  0.12521243046E+04  0.12658143510E+04  0.00000000000E+00 0.  1.
   -9000007    1    1    2    0  501 -0.47019558503E+02  0.71136226286E+02  0.54772827196E+03  0.68357696091E+03  0.40000000000E+03 0. -1.
<mgrwt>
<rscale>  2 0.40899592E+03</rscale>
<asrwt>0</asrwt>
<pdfrwt beam="1">  1        1 0.32859232E+00 0.40899592E+03</pdfrwt>
<pdfrwt beam="2">  1       -1 0.14682248E-01 0.40899592E+03</pdfrwt>
<totfact> 0.89011492E+01</totfact>
</mgrwt>
</event>
<event>
 6    1  0.9205235E-004  0.4415916E+03  0.7818608E-02  0.1030260E+00
         -2   -1    0    0    0  501 -0.00000000000E+00  0.00000000000E+00  0.19998734694E+03  0.19998734694E+03  0.00000000000E+00 0.  1.
          2   -1    0    0  502    0  0.00000000000E+00 -0.00000000000E+00 -0.12148142214E+04  0.12148142214E+04  0.00000000000E+00 0. -1.
    9000007    2    1    2  502    0 -0.91080944998E+02  0.16295162577E+03 -0.82182634866E+03  0.93303588477E+03  0.40038536940E+03 0.  0.
    9000005    1    3    3    0    0 -0.95338249302E+02  0.29154610748E+03 -0.50197565402E+03  0.58827635665E+03  0.99999687468E+00 0.  0.
          4    1    3    3  502    0  0.42573043044E+01 -0.12859448172E+03 -0.31985069464E+03  0.34475952812E+03  0.00000000000E+00 0.  1.
   -9000007    1    1    2    0  501  0.91080944998E+02 -0.16295162577E+03 -0.19300052576E+03  0.48176568353E+03  0.40000000000E+03 0.  1.
<mgrwt>
<rscale>  2 0.44159159E+03</rscale>
<asrwt>0</asrwt>
<pdfrwt beam="1">  1        2 0.18689449E+00 0.44159159E+03</pdfrwt>
<pdfrwt beam="2">  1       -2 0.30767284E-01 0.44159159E+03</pdfrwt>
<totfact> 0.18863953E+02</totfact>
</mgrwt>
</event>
<event>
 6    1  0.9205235E-004  0.6514043E+03  0.7818608E-02  0.9804148E-01
          2   -1    0    0  502    0  0.00000000000E+00  0.00000000000E+00  0.26292114535E+04  0.26292114535E+04  0.00000000000E+00 0. -1.
         -2   -1    0    0    0  501 -0.00000000000E+00 -0.00000000000E+00 -0.17214777965E+03  0.17214777965E+03  0.00000000000E+00 0.  1.
    9000007    2    1    2  502    0 -0.50361806783E+03 -0.10501416688E+03  0.87793077644E+03  0.10930501741E+04  0.39917051673E+03 0.  0.
    9000005    1    3    3    0    0  0.70108821830E+01  0.95511664678E+02  0.19343111405E+03  0.21584305973E+03  0.99999687468E+00 0.  0.
          4    1    3    3  502    0 -0.51062895001E+03 -0.20052583156E+03  0.68449966239E+03  0.87720711438E+03  0.00000000000E+00 0.  1.
   -9000007    1    1    2    0  501  0.50361806783E+03  0.10501416688E+03  0.15791328974E+04  0.17083090591E+04  0.40000000000E+03 0. -1.
<mgrwt>
<rscale>  2 0.65140429E+03</rscale>
<asrwt>0</asrwt>
<pdfrwt beam="1">  1        2 0.40449404E+00 0.65140429E+03</pdfrwt>
<pdfrwt beam="2">  1       -2 0.26484276E-01 0.65140429E+03</pdfrwt>
<totfact> 0.40054733E+01</totfact>
</mgrwt>
</event>
<event>
 6    1  0.9205235E-004  0.4848579E+03  0.7818608E-02  0.1017809E+00
         -1   -1    0    0    0  501 -0.00000000000E+00  0.00000000000E+00  0.10566120127E+03  0.10566120127E+03  0.00000000000E+00 0.  1.
          1   -1    0    0  502    0  0.00000000000E+00 -0.00000000000E+00 -0.23154688261E+04  0.23154688261E+04  0.00000000000E+00 0. -1.
    9000007    2    1    2  502    0  0.57654921044E+02 -0.26968113458E+03 -0.86334339396E+03  0.98969091609E+03  0.39758557473E+03 0.  0.
    9000005    1    3    3    0    0  0.48337080530E+02 -0.37272373905E+03 -0.61638796021E+03  0.72193806971E+03  0.99999687468E+00 0.  0.
          4    1    3    3  502    0  0.93178405136E+01  0.10304260447E+03 -0.24695543374E+03  0.26775284638E+03  0.00000000000E+00 0.  1.
   -9000007    1    1    2    0  501 -0.57654921044E+02  0.26968113458E+03 -0.13464642309E+04  0.14314391113E+04  0.40000000000E+03 0. -1.
<mgrwt>
<rscale>  2 0.48485789E+03</rscale>
<asrwt>0</asrwt>
<pdfrwt beam="1">  1        1 0.35622594E+00 0.48485789E+03</pdfrwt>
<pdfrwt beam="2">  1       -1 0.16255571E-01 0.48485789E+03</pdfrwt>
<totfact> 0.56580302E+01</totfact>
</mgrwt>
</event>
<event>
 6    1  0.9205235E-004  0.4439046E+03  0.7818608E-02  0.1029556E+00
          3   -1    0    0  502    0  0.00000000000E+00  0.00000000000E+00  0.16756899018E+03  0.16756899018E+03  0.00000000000E+00 0.  1.
         -3   -1    0    0    0  501 -0.00000000000E+00 -0.00000000000E+00 -0.12366293992E+04  0.12366293992E+04  0.00000000000E+00 0. -1.
    9000007    2    1    2  502    0  0.18258269437E+03 -0.61403982489E+02 -0.68999448020E+03  0.82041943486E+03  0.39986094713E+03 0.  0.
    9000005    1    3    3    0    0 -0.12570922665E+03 -0.33473960990E+02 -0.15536594822E+03  0.20263981245E+03  0.99999687468E+00 0.  0.
          4    1    3    3  502    0  0.30829192101E+03 -0.27930021499E+02 -0.53462853198E+03  0.61777962241E+03  0.00000000000E+00 0.  1.
   -9000007    1    1    2    0  501 -0.18258269437E+03  0.61403982489E+02 -0.37906592880E+03  0.58377895451E+03  0.40000000000E+03 0. -1.
<mgrwt>
<rscale>  2 0.44390457E+03</rscale>
<asrwt>0</asrwt>
<pdfrwt beam="1">  1        3 0.25779844E-01 0.44390457E+03</pdfrwt>
<pdfrwt beam="2">  1       -3 0.19025068E+00 0.44390457E+03</pdfrwt>
<totfact> 0.64430362E+00</totfact>
</mgrwt>
</event>
<event>
 6    1  0.9205235E-004  0.4436298E+03  0.7818608E-02  0.1029639E+00
          2   -1    0    0  502    0  0.00000000000E+00  0.00000000000E+00  0.82030446269E+03  0.82030446269E+03  0.00000000000E+00 0.  1.
         -2   -1    0    0    0  501 -0.00000000000E+00 -0.00000000000E+00 -0.56034104879E+03  0.56034104879E+03  0.00000000000E+00 0. -1.
    9000007    2    1    2  502    0  0.17674810928E+03 -0.57301639431E+02 -0.39170227902E+03  0.59375825949E+03  0.40570287564E+03 0.  0.
    9000005    1    3    3    0    0  0.29127886607E+03 -0.11772430306E+03 -0.30537009251E+03  0.43812587546E+03  0.99999687468E+00 0.  0.
          4    1    3    3  502    0 -0.11453075679E+03  0.60422663628E+02 -0.86332186513E+02  0.15563238403E+03  0.00000000000E+00 0.  1.
   -9000007    1    1    2    0  501 -0.17674810928E+03  0.57301639431E+02  0.65166569292E+03  0.78688725199E+03  0.40000000000E+03 0.  1.
<mgrwt>
<rscale>  2 0.44362977E+03</rscale>
<asrwt>0</asrwt>
<pdfrwt beam="1">  1        2 0.12620069E+00 0.44362977E+03</pdfrwt>
<pdfrwt beam="2">  1       -2 0.86206315E-01 0.44362977E+03</pdfrwt>
<totfact> 0.40740468E+01</totfact>
</mgrwt>
</event>
<event>
 6    1  0.9205235E-004  0.4460225E+03  0.7818608E-02  0.1028915E+00
          1   -1    0    0  502    0  0.00000000000E+00  0.00000000000E+00  0.63026497824E+03  0.63026497824E+03  0.00000000000E+00 0. -1.
         -1   -1    0    0    0  501 -0.00000000000E+00 -0.00000000000E+00 -0.32670387216E+03  0.32670387216E+03  0.00000000000E+00 0.  1.
    9000007    2    1    2  502    0 -0.12523852953E+03  0.15350159497E+03  0.23972312016E+03  0.50605564658E+03  0.39922138489E+03 0.  0.
    9000005    1    3    3    0    0 -0.45067878936E+02  0.28527440453E+03  0.18193355481E+03  0.34134061866E+03  0.99999687468E+00 0.  0.
          4    1    3    3  502    0 -0.80170650597E+02 -0.13177280956E+03  0.57789565350E+02  0.16471502791E+03  0.00000000000E+00 0.  1.
   -9000007    1    1    2    0  501  0.12523852953E+03 -0.15350159497E+03  0.63837985920E+02  0.45091320382E+03  0.40000000000E+03 0. -1.
<mgrwt>
<rscale>  2 0.44602247E+03</rscale>
<asrwt>0</asrwt>
<pdfrwt beam="1">  1        1 0.96963843E-01 0.44602247E+03</pdfrwt>
<pdfrwt beam="2">  1       -1 0.50262134E-01 0.44602247E+03</pdfrwt>
<totfact> 0.13199501E+02</totfact>
</mgrwt>
</event>
<event>
 6    1  0.9205235E-004  0.4180780E+03  0.7818608E-02  0.1037694E+00
          2   -1    0    0  502    0  0.00000000000E+00  0.00000000000E+00  0.12801255648E+04  0.12801255648E+04  0.00000000000E+00 0. -1.
         -2   -1    0    0    0  501 -0.00000000000E+00 -0.00000000000E+00 -0.14836948433E+03  0.14836948433E+03  0.00000000000E+00 0.  1.
    9000007    2    1    2  502    0 -0.77819140666E+02 -0.94796274546E+02  0.76717338300E+03  0.87355118206E+03  0.39936764486E+03 0.  0.
    9000005    1    3    3    0    0  0.11334139713E+03 -0.17525058871E+03  0.42373127341E+03  0.47234334251E+03  0.99999687468E+00 0.  0.
          4    1    3    3  502    0 -0.19116053780E+03  0.80454314162E+02  0.34344210959E+03  0.40120783955E+03  0.00000000000E+00 0.  1.
   -9000007    1    1    2    0  501  0.77819140666E+02  0.94796274546E+02  0.36458269750E+03  0.55494386710E+03  0.40000000000E+03 0.  1.
<mgrwt>
<rscale>  2 0.41807802E+03</rscale>
<asrwt>0</asrwt>
<pdfrwt beam="1">  1        2 0.19694239E+00 0.41807802E+03</pdfrwt>
<pdfrwt beam="2">  1       -2 0.22826075E-01 0.41807802E+03</pdfrwt>
<totfact> 0.29729694E+02</totfact>
</mgrwt>
</event>
<event>
 6    1  0.9205235E-004  0.5435338E+03  0.7818608E-02  0.1003002E+00
         -2   -1    0    0    0  501 -0.00000000000E+00  0.00000000000E+00  0.12256069913E+03  0.12256069913E+03  0.00000000000E+00 0. -1.
          2   -1    0    0  502    0  0.00000000000E+00 -0.00000000000E+00 -0.24119922811E+04  0.24119922811E+04  0.00000000000E+00 0.  1.
    9000007    2    1    2  502    0 -0.36079534886E+03  0.72558829800E+02 -0.11765252277E+04  0.12960060005E+04  0.39997734243E+03 0.  0.
    9000005    1    3    3    0    0 -0.72215455613E+02 -0.14783092744E+03 -0.52437891760E+03  0.54958466532E+03  0.99999687468E+00 0.  0.
          4    1    3    3  502    0 -0.28857989324E+03  0.22038975724E+03 -0.65214631007E+03  0.74642133518E+03  0.00000000000E+00 0.  1.
   -9000007    1    1    2    0  501  0.36079534886E+03 -0.72558829800E+02 -0.11129063543E+04  0.12385469797E+04  0.40000000000E+03 0. -1.
<mgrwt>
<rscale>  2 0.54353381E+03</rscale>
<asrwt>0</asrwt>
<pdfrwt beam="1">  1        2 0.37107574E+00 0.54353381E+03</pdfrwt>
<pdfrwt beam="2">  1       -2 0.18855492E-01 0.54353381E+03</pdfrwt>
<totfact> 0.98641372E+01</totfact>
</mgrwt>
</event>
<event>
 6    1  0.9205235E-004  0.5565093E+03  0.7818608E-02  0.9999984E-01
          1   -1    0    0  502    0  0.00000000000E+00  0.00000000000E+00  0.10832634012E+04  0.10832634012E+04  0.00000000000E+00 0.  1.
         -1   -1    0    0    0  501 -0.00000000000E+00 -0.00000000000E+00 -0.30306158858E+03  0.30306158858E+03  0.00000000000E+00 0. -1.
    9000007    2    1    2  502    0  0.37673307157E+03  0.86717955924E+02  0.22529329721E+03  0.60059521973E+03  0.40063666470E+03 0.  0.
    9000005    1    3    3    0    0  0.42302217998E+03  0.15745161481E+03  0.12288396095E+03  0.46780363788E+03  0.99999687468E+00 0.  0.
          4    1    3    3  502    0 -0.46289108410E+02 -0.70733658884E+02  0.10240933627E+03  0.13279158185E+03  0.00000000000E+00 0.  1.
   -9000007    1    1    2    0  501 -0.37673307157E+03 -0.86717955924E+02  0.55490851544E+03  0.78572977008E+03  0.40000000000E+03 0.  1.
<mgrwt>
<rscale>  2 0.55650928E+03</rscale>
<asrwt>0</asrwt>
<pdfrwt beam="1">  1        1 0.16665591E+00 0.55650928E+03</pdfrwt>
<pdfrwt beam="2">  1       -1 0.46624860E-01 0.55650928E+03</pdfrwt>
<totfact> 0.62521423E+01</totfact>
</mgrwt>
</event>
<event>
 6    1  0.9205235E-004  0.4252576E+03  0.7818608E-02  0.1035369E+00
         -2   -1    0    0    0  501 -0.00000000000E+00  0.00000000000E+00  0.90305523487E+03  0.90305523487E+03  0.00000000000E+00 0.  1.
          2   -1    0    0  502    0  0.00000000000E+00 -0.00000000000E+00 -0.21324790163E+03  0.21324790163E+03  0.00000000000E+00 0. -1.
    9000007    2    1    2  502    0  0.12166561512E+03  0.76921460654E+02  0.48277183194E+03  0.64345735635E+03  0.40031149710E+03 0.  0.
    9000005    1    3    3    0    0 -0.44471188189E+02  0.20739309577E+03  0.21032958641E+03  0.29871243306E+03  0.99999687468E+00 0.  0.
          4    1    3    3  502    0  0.16613680331E+03 -0.13047163511E+03  0.27244224553E+03  0.34474492329E+03  0.00000000000E+00 0.  1.
   -9000007    1    1    2    0  501 -0.12166561512E+03 -0.76921460654E+02  0.20703550130E+03  0.47284578015E+03  0.40000000000E+03 0. -1.
<mgrwt>
<rscale>  2 0.42525761E+03</rscale>
<asrwt>0</asrwt>
<pdfrwt beam="1">  1        2 0.32807370E-01 0.42525761E+03</pdfrwt>
<pdfrwt beam="2">  1       -2 0.13893157E+00 0.42525761E+03</pdfrwt>
<totfact> 0.60809696E+01</totfact>
</mgrwt>
</event>
<event>
 6    1  0.9205235E-004  0.4045017E+03  0.7818608E-02  0.1042232E+00
         -1   -1    0    0    0  501 -0.00000000000E+00  0.00000000000E+00  0.22220395683E+03  0.22220395683E+03  0.00000000000E+00 0. -1.
          1   -1    0    0  502    0  0.00000000000E+00 -0.00000000000E+00 -0.76747966329E+03  0.76747966329E+03  0.00000000000E+00 0.  1.
    9000007    2    1    2  502    0 -0.55199240531E+02  0.33239588848E+02 -0.17257058659E+03  0.43917391738E+03  0.39867442347E+03 0.  0.
    9000005    1    3    3    0    0  0.10737537740E+03 -0.50131648182E+02  0.68354433372E+02  0.13680636819E+03  0.99999687468E+00 0.  0.
          4    1    3    3  502    0 -0.16257461794E+03  0.83371237031E+02 -0.24092501996E+03  0.30236754919E+03  0.00000000000E+00 0.  1.
   -9000007    1    1    2    0  501  0.55199240531E+02 -0.33239588848E+02 -0.37270511988E+03  0.55050970274E+03  0.40000000000E+03 0.  1.
<mgrwt>
<rscale>  2 0.40450169E+03</rscale>
<asrwt>0</asrwt>
<pdfrwt beam="1">  1        1 0.11807379E+00 0.40450169E+03</pdfrwt>
<pdfrwt beam="2">  1       -1 0.34185225E-01 0.40450169E+03</pdfrwt>
<totfact> 0.19892863E+02</totfact>
</mgrwt>
</event>
<event>
 6    1  0.9205235E-004  0.4900996E+03  0.7818608E-02  0.1016396E+00
          1   -1    0    0  502    0  0.00000000000E+00  0.00000000000E+00  0.33701925635E+03  0.33701925635E+03  0.00000000000E+00 0.  1.
         -1   -1    0    0    0  501 -0.00000000000E+00 -0.00000000000E+00 -0.74213511661E+03  0.74213511661E+03  0.00000000000E+00 0. -1.
    9000007    2    1    2  502    0  0.18413552234E+02  0.28254952671E+03 -0.95130128225E+02  0.49927123990E+03  0.40006091504E+03 0.  0.
    9000005    1    3    3    0    0  0.64428231477E+02  0.21273321810E+02 -0.20212469512E+03  0.21321103068E+03  0.99999687468E+00 0.  0.
          4    1    3    3  502    0 -0.46014679243E+02  0.26127620490E+03  0.10699456689E+03  0.28606020922E+03  0.00000000000E+00 0.  1.
   -9000007    1    1    2    0  501 -0.18413552234E+02 -0.28254952671E+03 -0.30998573203E+03  0.57988313307E+03  0.40000000000E+03 0. -1.
<mgrwt>
<rscale>  2 0.49009964E+03</rscale>
<asrwt>0</asrwt>
<pdfrwt beam="1">  1        1 0.51849117E-01 0.49009964E+03</pdfrwt>
<pdfrwt beam="2">  1       -1 0.11417463E+00 0.49009964E+03</pdfrwt>
<totfact> 0.54957120E+01</totfact>
</mgrwt>
</event>
<event>
 6    1  0.9205235E-004  0.4058486E+03  0.7818608E-02  0.1041773E+00
         -2   -1    0    0    0  501 -0.00000000000E+00  0.00000000000E+00  0.56674006874E+03  0.56674006874E+03  0.00000000000E+00 0. -1.
          2   -1    0    0  502    0  0.00000000000E+00 -0.00000000000E+00 -0.35431112469E+03  0.35431112469E+03  0.00000000000E+00 0.  1.
    9000007    2    1    2  502    0  0.12018994563E+02 -0.71659929301E+02  0.30129852196E+03  0.50490530126E+03  0.39858369536E+03 0.  0.
    9000005    1    3    3    0    0 -0.13216820876E+03 -0.16684146387E+03  0.24189275872E+03  0.32220741175E+03  0.99999687468E+00 0.  0.
          4    1    3    3  502    0  0.14418720332E+03  0.95181534568E+02  0.59405763240E+02  0.18269788951E+03  0.00000000000E+00 0.  1.
   -9000007    1    1    2    0  501 -0.12018994563E+02  0.71659929301E+02 -0.88869577912E+02  0.41614589218E+03  0.40000000000E+03 0.  1.
<mgrwt>
<rscale>  2 0.40584863E+03</rscale>
<asrwt>0</asrwt>
<pdfrwt beam="1">  1        2 0.54509404E-01 0.40584863E+03</pdfrwt>
<pdfrwt beam="2">  1       -2 0.87190780E-01 0.40584863E+03</pdfrwt>
<totfact> 0.10682003E+02</totfact>
</mgrwt>
</event>
<event>
 6    1  0.9205235E-004  0.5074947E+03  0.7818608E-02  0.1011841E+00
          2   -1    0    0  502    0  0.00000000000E+00  0.00000000000E+00  0.67598251073E+03  0.67598251073E+03  0.00000000000E+00 0. -1.
         -2   -1    0    0    0  501 -0.00000000000E+00 -0.00000000000E+00 -0.38399381343E+03  0.38399381343E+03  0.00000000000E+00 0.  1.
    9000007    2    1    2  502    0  0.29760955283E+03  0.96232125618E+02  0.19269393818E+03  0.54258718906E+03  0.39929667665E+03 0.  0.
    9000005    1    3    3    0    0  0.47236701750E+01  0.13636092394E+03  0.20551618891E+03  0.24668708628E+03  0.99999687468E+00 0.  0.
          4    1    3    3  502    0  0.29288588266E+03 -0.40128798319E+02 -0.12822250728E+02  0.29590010278E+03  0.00000000000E+00 0.  1.
   -9000007    1    1    2    0  501 -0.29760955283E+03 -0.96232125618E+02  0.99294759116E+02  0.51738913511E+03  0.40000000000E+03 0.  1.
<mgrwt>
<rscale>  2 0.50749466E+03</rscale>
<asrwt>0</asrwt>
<pdfrwt beam="1">  1        2 0.10399731E+00 0.50749466E+03</pdfrwt>
<pdfrwt beam="2">  1       -2 0.59075971E-01 0.50749466E+03</pdfrwt>
<totfact> 0.11785997E+02</totfact>
</mgrwt>
</event>
<event>
 6    1  0.9205235E-004  0.4382986E+03  0.7818608E-02  0.1031270E+00
         -2   -1    0    0    0  501 -0.00000000000E+00  0.00000000000E+00  0.22614737478E+03  0.22614737478E+03  0.00000000000E+00 0.  1.
          2   -1    0    0  502    0  0.00000000000E+00 -0.00000000000E+00 -0.86273011881E+03  0.86273011881E+03  0.00000000000E+00 0. -1.
    9000007    2    1    2  502    0  0.48054713316E+01 -0.17929496392E+03 -0.38573316282E+03  0.58380790529E+03  0.39983974382E+03 0.  0.
    9000005    1    3    3    0    0 -0.13113902620E+02  0.53939262575E+02 -0.34119687394E+03  0.34568443018E+03  0.99999687468E+00 0.  0.
          4    1    3    3  502    0  0.17919373951E+02 -0.23323422649E+03 -0.44536288876E+02  0.23812347511E+03  0.00000000000E+00 0.  1.
   -9000007    1    1    2    0  501 -0.48054713316E+01  0.17929496392E+03 -0.25084958121E+03  0.50506958831E+03  0.40000000000E+03 0.  1.
<mgrwt>
<rscale>  2 0.43829862E+03</rscale>
<asrwt>0</asrwt>
<pdfrwt beam="1">  1        2 0.13272771E+00 0.43829862E+03</pdfrwt>
<pdfrwt beam="2">  1       -2 0.34791904E-01 0.43829862E+03</pdfrwt>
<totfact> 0.24784638E+02</totfact>
</mgrwt>
</event>
<event>
 6    1  0.9205235E-004  0.5884802E+03  0.7818608E-02  0.9929598E-01
          2   -1    0    0  502    0  0.00000000000E+00  0.00000000000E+00  0.30012351549E+04  0.30012351549E+04  0.00000000000E+00 0. -1.
         -2   -1    0    0    0  501 -0.00000000000E+00 -0.00000000000E+00 -0.11579634140E+03  0.11579634140E+03  0.00000000000E+00 0.  1.
    9000007    2    1    2  502    0 -0.31766094193E+03  0.29182771580E+03  0.13507570413E+04  0.14734622001E+04  0.40059253683E+03 0.  0.
    9000005    1    3    3    0    0 -0.22030148969E+03  0.34439226452E+03  0.12760950428E+04  0.13399844538E+04  0.99999687468E+00 0.  0.
          4    1    3    3  502    0 -0.97359452240E+02 -0.52564548713E+02  0.74661998574E+02  0.13347774628E+03  0.00000000000E+00 0.  1.
   -9000007    1    1    2    0  501  0.31766094193E+03 -0.29182771580E+03  0.15346817722E+04  0.16435692963E+04  0.40000000000E+03 0.  1.
<mgrwt>
<rscale>  2 0.58848025E+03</rscale>
<asrwt>0</asrwt>
<pdfrwt beam="1">  1        2 0.46172843E+00 0.58848025E+03</pdfrwt>
<pdfrwt beam="2">  1       -2 0.17814824E-01 0.58848025E+03</pdfrwt>
<totfact> 0.49191403E+01</totfact>
</mgrwt>
</event>
<event>
 6    1  0.9205235E-004  0.4562426E+03  0.7818608E-02  0.1025877E+00
         -2   -1    0    0    0  501 -0.00000000000E+00  0.00000000000E+00  0.59272501552E+03  0.59272501552E+03  0.00000000000E+00 0.  1.
          2   -1    0    0  502    0  0.00000000000E+00 -0.00000000000E+00 -0.39805227372E+03  0.39805227372E+03  0.00000000000E+00 0. -1.
    9000007    2    1    2  502    0 -0.66319295617E+02  0.20844067409E+03  0.26738170144E+03  0.52911468907E+03  0.40077876233E+03 0.  0.
    9000005    1    3    3    0    0  0.10517762165E+03  0.25432966114E+03  0.12864086590E+03  0.30380154872E+03  0.99999687468E+00 0.  0.
          4    1    3    3  502    0 -0.17149691727E+03 -0.45888987050E+02  0.13874083554E+03  0.22531314035E+03  0.00000000000E+00 0.  1.
   -9000007    1    1    2    0  501  0.66319295617E+02 -0.20844067409E+03 -0.72708959633E+02  0.46166260017E+03  0.40000000000E+03 0. -1.
<mgrwt>
<rscale>  2 0.45624263E+03</rscale>
<asrwt>0</asrwt>
<pdfrwt beam="1">  1        2 0.61238811E-01 0.45624263E+03</pdfrwt>
<pdfrwt beam="2">  1       -2 0.91188464E-01 0.45624263E+03</pdfrwt>
<totfact> 0.84447646E+01</totfact>
</mgrwt>
</event>
<event>
 6    1  0.9205235E-004  0.4035056E+03  0.7818608E-02  0.1042573E+00
         -1   -1    0    0    0  501 -0.00000000000E+00  0.00000000000E+00  0.74010749630E+02  0.74010749630E+02  0.00000000000E+00 0.  1.
          1   -1    0    0  502    0  0.00000000000E+00 -0.00000000000E+00 -0.25593288360E+04  0.25593288360E+04  0.00000000000E+00 0. -1.
    9000007    2    1    2  502    0 -0.96043296467E+01  0.50357040990E+02 -0.74985966810E+03  0.85164264275E+03  0.40047171483E+03 0.  0.
    9000005    1    3    3    0    0 -0.35007449225E+02 -0.92608587620E+02 -0.68584226727E+03  0.69295200957E+03  0.99999687468E+00 0.  0.
          4    1    3    3  502    0  0.25403119579E+02  0.14296562861E+03 -0.64017400826E+02  0.15869063317E+03  0.00000000000E+00 0.  1.
   -9000007    1    1    2    0  501  0.96043296467E+01 -0.50357040990E+02 -0.17354584182E+04  0.17816969428E+04  0.40000000000E+03 0. -1.
<mgrwt>
<rscale>  2 0.40350559E+03</rscale>
<asrwt>0</asrwt>
<pdfrwt beam="1">  1        1 0.39374285E+00 0.40350559E+03</pdfrwt>
<pdfrwt beam="2">  1       -1 0.11386271E-01 0.40350559E+03</pdfrwt>
<totfact> 0.69726615E+01</totfact>
</mgrwt>
</event>
<event>
 6    1  0.9205235E-004  0.9467138E+03  0.7818608E-02  0.9369000E-01
          2   -1    0    0  502    0  0.00000000000E+00  0.00000000000E+00  0.23367397007E+04  0.23367397007E+04  0.00000000000E+00 0.  1.
         -2   -1    0    0    0  501 -0.00000000000E+00 -0.00000000000E+00 -0.38798243843E+03  0.38798243843E+03  0.00000000000E+00 0. -1.
    9000007    2    1    2  502    0  0.35995619889E+03 -0.77891229000E+03  0.11199167874E+04  0.14664497706E+04  0.39998562262E+03 0.  0.
    9000005    1    3    3    0    0  0.20928023746E+03 -0.87023065301E+02  0.17878979097E+03  0.28868325382E+03  0.99999687468E+00 0.  0.
          4    1    3    3  502    0  0.15067596143E+03 -0.69188922470E+03  0.94112699640E+03  0.11777665167E+04  0.00000000000E+00 0.  1.
   -9000007    1    1    2    0  501 -0.35995619889E+03  0.77891229000E+03  0.82884047487E+03  0.12582723685E+04  0.40000000000E+03 0. -1.
<mgrwt>
<rscale>  2 0.94671383E+03</rscale>
<asrwt>0</asrwt>
<pdfrwt beam="1">  1        2 0.35949841E+00 0.94671383E+03</pdfrwt>
<pdfrwt beam="2">  1       -2 0.59689607E-01 0.94671383E+03</pdfrwt>
<totfact> 0.11487063E+01</totfact>
</mgrwt>
</event>
<event>
 6    1  0.9205235E-004  0.4075964E+03  0.7818608E-02  0.1041181E+00
          2   -1    0    0  502    0  0.00000000000E+00  0.00000000000E+00  0.22800529776E+04  0.22800529776E+04  0.00000000000E+00 0. -1.
         -2   -1    0    0    0  501 -0.00000000000E+00 -0.00000000000E+00 -0.15296906154E+03  0.15296906154E+03  0.00000000000E+00 0.  1.
    9000007    2    1    2  502    0 -0.49091497579E+02 -0.48770658522E+02  0.18528812355E+03  0.44924799653E+03  0.40336524565E+03 0.  0.
    9000005    1    3    3    0    0 -0.74605854087E+02 -0.14546836071E+03  0.27169020083E+03  0.31708617544E+03  0.99999687468E+00 0.  0.
          4    1    3    3  502    0  0.25514356509E+02  0.96697702190E+02 -0.86402077284E+02  0.13216182110E+03  0.00000000000E+00 0.  1.
   -9000007    1    1    2    0  501  0.49091497579E+02  0.48770658522E+02  0.19417957925E+04  0.19837740426E+04  0.40000000000E+03 0. -1.
<mgrwt>
<rscale>  2 0.40759639E+03</rscale>
<asrwt>0</asrwt>
<pdfrwt beam="1">  1        2 0.35077735E+00 0.40759639E+03</pdfrwt>
<pdfrwt beam="2">  1       -2 0.23533704E-01 0.40759639E+03</pdfrwt>
<totfact> 0.81166384E+01</totfact>
</mgrwt>
</event>
<event>
 6    1  0.9205235E-004  0.5618005E+03  0.7818608E-02  0.9987989E-01
         -1   -1    0    0    0  501 -0.00000000000E+00  0.00000000000E+00  0.11539543284E+04  0.11539543284E+04  0.00000000000E+00 0. -1.
          1   -1    0    0  502    0  0.00000000000E+00 -0.00000000000E+00 -0.28843074150E+03  0.28843074150E+03  0.00000000000E+00 0.  1.
    9000007    2    1    2  502    0  0.35889629229E+03 -0.16365037062E+03  0.59680480680E+03  0.81965095716E+03  0.40007964422E+03 0.  0.
    9000005    1    3    3    0    0  0.14161174249E+03 -0.69216127857E+02  0.55767444292E+03  0.57952268485E+03  0.99999687468E+00 0.  0.
          4    1    3    3  502    0  0.21728454980E+03 -0.94434242759E+02  0.39130363881E+02  0.24012827231E+03  0.00000000000E+00 0.  1.
   -9000007    1    1    2    0  501 -0.35889629229E+03  0.16365037062E+03  0.26871878014E+03  0.62273411278E+03  0.40000000000E+03 0.  1.
<mgrwt>
<rscale>  2 0.56180054E+03</rscale>
<asrwt>0</asrwt>
<pdfrwt beam="1">  1        1 0.44373961E-01 0.56180054E+03</pdfrwt>
<pdfrwt beam="2">  1       -1 0.17753143E+00 0.56180054E+03</pdfrwt>
<totfact> 0.20978430E+01</totfact>
</mgrwt>
</event>
<event>
 6    1  0.9205235E-004  0.5833675E+03  0.7818608E-02  0.9940527E-01
          1   -1    0    0  502    0  0.00000000000E+00  0.00000000000E+00  0.77361100784E+03  0.77361100784E+03  0.00000000000E+00 0.  1.
         -1   -1    0    0    0  501 -0.00000000000E+00 -0.00000000000E+00 -0.78337194602E+03  0.78337194602E+03  0.00000000000E+00 0. -1.
    9000007    2    1    2  502    0 -0.90134471097E+02  0.41454414469E+03  0.51059644328E+03  0.77548255384E+03  0.40086580379E+03 0.  0.
    9000005    1    3    3    0    0 -0.24447595755E+02  0.92695410431E+02 -0.62837671566E+02  0.11462851746E+03  0.99999687468E+00 0.  0.
          4    1    3    3  502    0 -0.65686875343E+02  0.32184873426E+03  0.57343411485E+03  0.66085403639E+03  0.00000000000E+00 0.  1.
   -9000007    1    1    2    0  501  0.90134471097E+02 -0.41454414469E+03 -0.52035738147E+03  0.78150040002E+03  0.40000000000E+03 0. -1.
<mgrwt>
<rscale>  2 0.58336746E+03</rscale>
<asrwt>0</asrwt>
<pdfrwt beam="1">  1        1 0.11901708E+00 0.58336746E+03</pdfrwt>
<pdfrwt beam="2">  1       -1 0.12051876E+00 0.58336746E+03</pdfrwt>
<totfact> 0.15046221E+01</totfact>
</mgrwt>
</event>
<event>
 6    1  0.9205235E-004  0.4127231E+03  0.7818608E-02  0.1039461E+00
          1   -1    0    0  502    0  0.00000000000E+00  0.00000000000E+00  0.21091045984E+03  0.21091045984E+03  0.00000000000E+00 0. -1.
         -1   -1    0    0    0  501 -0.00000000000E+00 -0.00000000000E+00 -0.81143865908E+03  0.81143865908E+03  0.00000000000E+00 0.  1.
    9000007    2    1    2  502    0  0.30032904632E+02 -0.99576816558E+02 -0.26489156530E+03  0.48993061078E+03  0.39880690097E+03 0.  0.
    9000005    1    3    3    0    0  0.11284154013E+03 -0.22103419007E+03 -0.96175896469E+02  0.26615809102E+03  0.99999687468E+00 0.  0.
          4    1    3    3  502    0 -0.82808635498E+02  0.12145737351E+03 -0.16871566883E+03  0.22377251976E+03  0.00000000000E+00 0.  1.
   -9000007    1    1    2    0  501 -0.30032904632E+02  0.99576816558E+02 -0.33563663394E+03  0.53241850813E+03  0.40000000000E+03 0.  1.
<mgrwt>
<rscale>  2 0.41272306E+03</rscale>
<asrwt>0</asrwt>
<pdfrwt beam="1">  1        1 0.32447763E-01 0.41272306E+03</pdfrwt>
<pdfrwt beam="2">  1       -1 0.12483672E+00 0.41272306E+03</pdfrwt>
<totfact> 0.81516552E+01</totfact>
</mgrwt>
</event>
<event>
 6    1  0.9205235E-004  0.4285346E+03  0.7818608E-02  0.1034324E+00
         -2   -1    0    0    0  501 -0.00000000000E+00  0.00000000000E+00  0.57655737154E+03  0.57655737154E+03  0.00000000000E+00 0.  1.
          2   -1    0    0  502    0  0.00000000000E+00 -0.00000000000E+00 -0.33648836118E+03  0.33648836118E+03  0.00000000000E+00 0. -1.
    9000007    2    1    2  502    0  0.20374551714E+01  0.15375954572E+03  0.14522373761E+02  0.42877573117E+03  0.39998947383E+03 0.  0.
    9000005    1    3    3    0    0  0.12416616952E+03 -0.39101367938E+01  0.14462323432E+03  0.19065520377E+03  0.99999687468E+00 0.  0.
          4    1    3    3  502    0 -0.12212871435E+03  0.15766968251E+03 -0.13010086056E+03  0.23812052740E+03  0.00000000000E+00 0.  1.
   -9000007    1    1    2    0  501 -0.20374551714E+01 -0.15375954572E+03  0.22554663659E+03  0.48427000155E+03  0.40000000000E+03 0.  1.
<mgrwt>
<rscale>  2 0.42853464E+03</rscale>
<asrwt>0</asrwt>
<pdfrwt beam="1">  1        2 0.51767440E-01 0.42853464E+03</pdfrwt>
<pdfrwt beam="2">  1       -2 0.88701134E-01 0.42853464E+03</pdfrwt>
<totfact> 0.10853914E+02</totfact>
</mgrwt>
</event>
<event>
 6    1  0.9205235E-004  0.5399482E+03  0.7818608E-02  0.1003848E+00
         -2   -1    0    0    0  501 -0.00000000000E+00  0.00000000000E+00  0.10855075448E+04  0.10855075448E+04  0.00000000000E+00 0.  1.
          2   -1    0    0  502    0  0.00000000000E+00 -0.00000000000E+00 -0.36028506737E+03  0.36028506737E+03  0.00000000000E+00 0. -1.
    9000007    2    1    2  502    0 -0.31167252880E+03 -0.18446206589E+03  0.72750078418E+03  0.90618978629E+03  0.40094453336E+03 0.  0.
    9000005    1    3    3    0    0 -0.40566671747E+03 -0.15508247267E+03  0.64570251592E+03  0.77817016009E+03  0.99999687468E+00 0.  0.
          4    1    3    3  502    0  0.93994188674E+02 -0.29379593221E+02  0.81798268264E+02  0.12801962620E+03  0.00000000000E+00 0.  1.
   -9000007    1    1    2    0  501  0.31167252880E+03  0.18446206589E+03 -0.22783068026E+01  0.53960282583E+03  0.40000000000E+03 0. -1.
<mgrwt>
<rscale>  2 0.53994818E+03</rscale>
<asrwt>0</asrwt>
<pdfrwt beam="1">  1        2 0.55428472E-01 0.53994818E+03</pdfrwt>
<pdfrwt beam="2">  1       -2 0.16700116E+00 0.53994818E+03</pdfrwt>
<totfact> 0.20726835E+01</totfact>
</mgrwt>
</event>
<event>
 6    1  0.9205235E-004  0.4466204E+03  0.7818608E-02  0.1028735E+00
          2   -1    0    0  502    0  0.00000000000E+00  0.00000000000E+00  0.10469327982E+04  0.10469327982E+04  0.00000000000E+00 0.  1.
         -2   -1    0    0    0  501 -0.00000000000E+00 -0.00000000000E+00 -0.19244547448E+03  0.19244547448E+03  0.00000000000E+00 0. -1.
    9000007    2    1    2  502    0  0.18423086023E+03 -0.74097156394E+02  0.36542455550E+03  0.57709903422E+03  0.40009597735E+03 0.  0.
    9000005    1    3    3    0    0  0.20074155178E+03 -0.99216843403E+02  0.13968374578E+02  0.22435968468E+03  0.99999687468E+00 0.  0.
          4    1    3    3  502    0 -0.16510691546E+02  0.25119687009E+02  0.35145618092E+03  0.35273934954E+03  0.00000000000E+00 0.  1.
   -9000007    1    1    2    0  501 -0.18423086023E+03  0.74097156394E+02  0.48906276826E+03  0.66227923850E+03  0.40000000000E+03 0. -1.
<mgrwt>
<rscale>  2 0.44662041E+03</rscale>
<asrwt>0</asrwt>
<pdfrwt beam="1">  1        2 0.16106658E+00 0.44662041E+03</pdfrwt>
<pdfrwt beam="2">  1       -2 0.29606997E-01 0.44662041E+03</pdfrwt>
<totfact> 0.25467557E+02</totfact>
</mgrwt>
</event>
<event>
 6    1  0.9205235E-004  0.4060082E+03  0.7818608E-02  0.1041719E+00
         -1   -1    0    0    0  501 -0.00000000000E+00  0.00000000000E+00  0.41759330702E+03  0.41759330702E+03  0.00000000000E+00 0.  1.
          1   -1    0    0  502    0  0.00000000000E+00 -0.00000000000E+00 -0.39665261014E+03  0.39665261014E+03  0.00000000000E+00 0. -1.
    9000007    2    1    2  502    0 -0.69314273041E+02  0.10076661130E+02 -0.17768962974E+02  0.40631890738E+03  0.39984160727E+03 0.  0.
    9000005    1    3    3    0    0  0.14952661236E+03 -0.27008595024E+02  0.70427405129E+02  0.16747743549E+03  0.99999687468E+00 0.  0.
          4    1    3    3  502    0 -0.21884088541E+03  0.37085256154E+02 -0.88196368103E+02  0.23884147189E+03  0.00000000000E+00 0.  1.
   -9000007    1    1    2    0  501  0.69314273041E+02 -0.10076661130E+02  0.38709659856E+02  0.40792700979E+03  0.40000000000E+03 0. -1.
<mgrwt>
<rscale>  2 0.40600819E+03</rscale>
<asrwt>0</asrwt>
<pdfrwt beam="1">  1        1 0.61023478E-01 0.40600819E+03</pdfrwt>
<pdfrwt beam="2">  1       -1 0.64245124E-01 0.40600819E+03</pdfrwt>
<totfact> 0.15499437E+02</totfact>
</mgrwt>
</event>
<event>
 6    1  0.9205235E-004  0.8138263E+03  0.7818608E-02  0.9540217E-01
          1   -1    0    0  502    0  0.00000000000E+00  0.00000000000E+00  0.63131791144E+03  0.63131791144E+03  0.00000000000E+00 0.  1.
         -1   -1    0    0    0  501 -0.00000000000E+00 -0.00000000000E+00 -0.11372533385E+04  0.11372533385E+04  0.00000000000E+00 0. -1.
    9000007    2    1    2  502    0 -0.69724646380E+03  0.12722814149E+03 -0.49916581013E+03  0.95470058513E+03  0.39993383201E+03 0.  0.
    9000005    1    3    3    0    0 -0.22939580644E+03  0.19136852275E+03 -0.34850605684E+03  0.45902267826E+03  0.99999687468E+00 0.  0.
          4    1    3    3  502    0 -0.46785065736E+03 -0.64140381253E+02 -0.15065975329E+03  0.49567790687E+03  0.00000000000E+00 0.  1.
   -9000007    1    1    2    0  501  0.69724646380E+03 -0.12722814149E+03 -0.67696169045E+01  0.81387066478E+03  0.40000000000E+03 0. -1.
<mgrwt>
<rscale>  2 0.81382625E+03</rscale>
<asrwt>0</asrwt>
<pdfrwt beam="1">  1        1 0.97125834E-01 0.81382625E+03</pdfrwt>
<pdfrwt beam="2">  1       -1 0.17496205E+00 0.81382625E+03</pdfrwt>
<totfact> 0.73710772E+00</totfact>
</mgrwt>
</event>
<event>
 6    1  0.9205235E-004  0.4413268E+03  0.7818608E-02  0.1030341E+00
         -2   -1    0    0    0  501 -0.00000000000E+00  0.00000000000E+00  0.22104367349E+03  0.22104367349E+03  0.00000000000E+00 0.  1.
          2   -1    0    0  502    0  0.00000000000E+00 -0.00000000000E+00 -0.34176661146E+04  0.34176661146E+04  0.00000000000E+00 0. -1.
    9000007    2    1    2  502    0  0.74946745479E+02 -0.16397987309E+03 -0.33361018689E+02  0.44516485494E+03  0.40565056029E+03 0.  0.
    9000005    1    3    3    0    0  0.13950382057E+02  0.10856464122E+03  0.88195610058E+02  0.14057154801E+03  0.99999687468E+00 0.  0.
          4    1    3    3  502    0  0.60996363421E+02 -0.27254451431E+03 -0.12155662875E+03  0.30459330693E+03  0.00000000000E+00 0.  1.
   -9000007    1    1    2    0  501 -0.74946745479E+02  0.16397987309E+03 -0.31632614224E+04  0.31935449331E+04  0.40000000000E+03 0. -1.
<mgrwt>
<rscale>  2 0.44132675E+03</rscale>
<asrwt>0</asrwt>
<pdfrwt beam="1">  1        2 0.52579474E+00 0.44132675E+03</pdfrwt>
<pdfrwt beam="2">  1       -2 0.34006722E-01 0.44132675E+03</pdfrwt>
<totfact> 0.87514035E+00</totfact>
</mgrwt>
</event>
<event>
 6    1  0.9205235E-004  0.4327820E+03  0.7818608E-02  0.1032985E+00
          2   -1    0    0  502    0  0.00000000000E+00  0.00000000000E+00  0.29511623826E+04  0.29511623826E+04  0.00000000000E+00 0. -1.
         -2   -1    0    0    0  501 -0.00000000000E+00 -0.00000000000E+00 -0.80235864533E+02  0.80235864533E+02  0.00000000000E+00 0.  1.
    9000007    2    1    2  502    0  0.11695403757E+03 -0.11696092264E+03  0.74236432022E+03  0.85927137827E+03  0.39985549046E+03 0.  0.
    9000005    1    3    3    0    0 -0.42341386712E+02  0.10444842080E+03  0.43025450783E+03  0.44477208449E+03  0.99999687468E+00 0.  0.
          4    1    3    3  502    0  0.15929542428E+03 -0.22140934344E+03  0.31210981239E+03  0.41449929378E+03  0.00000000000E+00 0.  1.
   -9000007    1    1    2    0  501 -0.11695403757E+03  0.11696092264E+03  0.21285621979E+04  0.21721268689E+04  0.40000000000E+03 0. -1.
<mgrwt>
<rscale>  2 0.43278205E+03</rscale>
<asrwt>0</asrwt>
<pdfrwt beam="1">  1        2 0.45402490E+00 0.43278205E+03</pdfrwt>
<pdfrwt beam="2">  1       -2 0.12343981E-01 0.43278205E+03</pdfrwt>
<totfact> 0.10076796E+02</totfact>
</mgrwt>
</event>
<event>
 6    1  0.9205235E-004  0.5422091E+03  0.7818608E-02  0.1003313E+00
         -1   -1    0    0    0  501 -0.00000000000E+00  0.00000000000E+00  0.17313655443E+03  0.17313655443E+03  0.00000000000E+00 0.  1.
          1   -1    0    0  502    0  0.00000000000E+00 -0.00000000000E+00 -0.17375279302E+04  0.17375279302E+04  0.00000000000E+00 0. -1.
    9000007    2    1    2  502    0  0.31488399133E+03 -0.18464640018E+03 -0.92720120990E+03  0.10744482874E+04  0.40185920103E+03 0.  0.
    9000005    1    3    3    0    0  0.22932637902E+03  0.89190095263E+01 -0.78897160379E+03  0.82167349259E+03  0.99999687468E+00 0.  0.
          4    1    3    3  502    0  0.85557612307E+02 -0.19356540971E+03 -0.13822960611E+03  0.25277479476E+03  0.00000000000E+00 0.  1.
   -9000007    1    1    2    0  501 -0.31488399133E+03  0.18464640018E+03 -0.63719016588E+03  0.83621619728E+03  0.40000000000E+03 0. -1.
<mgrwt>
<rscale>  2 0.54220908E+03</rscale>
<asrwt>0</asrwt>
<pdfrwt beam="1">  1        1 0.26731197E+00 0.54220908E+03</pdfrwt>
<pdfrwt beam="2">  1       -1 0.26636394E-01 0.54220908E+03</pdfrwt>
<totfact> 0.59628436E+01</totfact>
</mgrwt>
</event>
<event>
 6    1  0.9205235E-004  0.5596019E+03  0.7818608E-02  0.9992956E-01
          2   -1    0    0  502    0  0.00000000000E+00  0.00000000000E+00  0.53365313264E+03  0.53365313264E+03  0.00000000000E+00 0. -1.
         -2   -1    0    0    0  501 -0.00000000000E+00 -0.00000000000E+00 -0.58742297897E+03  0.58742297897E+03  0.00000000000E+00 0.  1.
    9000007    2    1    2  502    0 -0.37025759007E+03  0.12299828813E+03 -0.88730757542E+01  0.56050945019E+03  0.40233425207E+03 0.  0.
    9000005    1    3    3    0    0 -0.13393574990E+03 -0.24747853102E+02  0.17860498361E+03  0.22461518537E+03  0.99999687468E+00 0.  0.
          4    1    3    3  502    0 -0.23632184017E+03  0.14774614124E+03 -0.18747805937E+03  0.33589426481E+03  0.00000000000E+00 0.  1.
   -9000007    1    1    2    0  501  0.37025759007E+03 -0.12299828813E+03 -0.44896770576E+02  0.56056666142E+03  0.40000000000E+03 0. -1.
<mgrwt>
<rscale>  2 0.55960190E+03</rscale>
<asrwt>0</asrwt>
<pdfrwt beam="1">  1        2 0.82100483E-01 0.55960190E+03</pdfrwt>
<pdfrwt beam="2">  1       -2 0.90372765E-01 0.55960190E+03</pdfrwt>
<totfact> 0.61276850E+01</totfact>
</mgrwt>
</event>
<event>
 6    1  0.9205235E-004  0.4913603E+03  0.7818608E-02  0.1016059E+00
          1   -1    0    0  502    0  0.00000000000E+00  0.00000000000E+00  0.25684554280E+03  0.25684554280E+03  0.00000000000E+00 0. -1.
         -1   -1    0    0    0  501 -0.00000000000E+00 -0.00000000000E+00 -0.10210066042E+04  0.10210066042E+04  0.00000000000E+00 0.  1.
    9000007    2    1    2  502    0  0.23348831903E+03  0.16209752469E+03 -0.56251524691E+03  0.74733029342E+03  0.40160523132E+03 0.  0.
    9000005    1    3    3    0    0  0.33103981802E+03  0.57928976345E+02 -0.30967420801E+03  0.45699260663E+03  0.99999687468E+00 0.  0.
          4    1    3    3  502    0 -0.97551498990E+02  0.10416854834E+03 -0.25284103890E+03  0.29033768679E+03  0.00000000000E+00 0.  1.
   -9000007    1    1    2    0  501 -0.23348831903E+03 -0.16209752469E+03 -0.20164581450E+03  0.53052185359E+03  0.40000000000E+03 0.  1.
<mgrwt>
<rscale>  2 0.49136028E+03</rscale>
<asrwt>0</asrwt>
<pdfrwt beam="1">  1        1 0.39514698E-01 0.49136028E+03</pdfrwt>
<pdfrwt beam="2">  1       -1 0.15707794E+00 0.49136028E+03</pdfrwt>
<totfact> 0.34695853E+01</totfact>
</mgrwt>
</event>
<event>
 6    1  0.9205235E-004  0.6638974E+03  0.7818608E-02  0.9781046E-01
          1   -1    0    0  502    0  0.00000000000E+00  0.00000000000E+00  0.78472886084E+03  0.78472886084E+03  0.00000000000E+00 0. -1.
         -1   -1    0    0    0  501 -0.00000000000E+00 -0.00000000000E+00 -0.57213586577E+03  0.57213586577E+03  0.00000000000E+00 0.  1.
    9000007    2    1    2  502    0  0.52225597414E+03 -0.89805042333E+02  0.19804152692E+03  0.69276534145E+03  0.39985887982E+03 0.  0.
    9000005    1    3    3    0    0  0.84934926461E+01  0.95771877744E+02  0.98253457970E+02  0.13747412113E+03  0.99999687468E+00 0.  0.
          4    1    3    3  502    0  0.51376248149E+03 -0.18557692008E+03  0.99788068952E+02  0.55529122032E+03  0.00000000000E+00 0.  1.
   -9000007    1    1    2    0  501 -0.52225597414E+03  0.89805042333E+02  0.14551468143E+02  0.66409938516E+03  0.40000000000E+03 0.  1.
<mgrwt>
<rscale>  2 0.66389744E+03</rscale>
<asrwt>0</asrwt>
<pdfrwt beam="1">  1        1 0.12072752E+00 0.66389744E+03</pdfrwt>
<pdfrwt beam="2">  1       -1 0.88020902E-01 0.66389744E+03</pdfrwt>
<totfact> 0.29951880E+01</totfact>
</mgrwt>
</event>
<event>
 6    1  0.9205235E-004  0.4014129E+03  0.7818608E-02  0.1043292E+00
          2   -1    0    0  502    0  0.00000000000E+00  0.00000000000E+00  0.27778014022E+04  0.27778014022E+04  0.00000000000E+00 0. -1.
         -2   -1    0    0    0  501 -0.00000000000E+00 -0.00000000000E+00 -0.67412362012E+02  0.67412362012E+02  0.00000000000E+00 0.  1.
    9000007    2    1    2  502    0 -0.34150864581E+02  0.28844901451E+02  0.82070926427E+03  0.91314545139E+03  0.39783490175E+03 0.  0.
    9000005    1    3    3    0    0 -0.83176924756E+02 -0.11043988538E+03  0.72295842770E+03  0.73606063423E+03  0.99999687468E+00 0.  0.
          4    1    3    3  502    0  0.49026060175E+02  0.13928478683E+03  0.97750836574E+02  0.17708481716E+03  0.00000000000E+00 0.  1.
   -9000007    1    1    2    0  501  0.34150864581E+02 -0.28844901451E+02  0.18896797759E+04  0.19320683128E+04  0.40000000000E+03 0. -1.
<mgrwt>
<rscale>  2 0.40141288E+03</rscale>
<asrwt>0</asrwt>
<pdfrwt beam="1">  1        2 0.42735398E+00 0.40141288E+03</pdfrwt>
<pdfrwt beam="2">  1       -2 0.10371135E-01 0.40141288E+03</pdfrwt>
<totfact> 0.17026038E+02</totfact>
</mgrwt>
</event>
<event>
 6    1  0.9205235E-004  0.4975866E+03  0.7818608E-02  0.1014411E+00
         -2   -1    0    0    0  501 -0.00000000000E+00  0.00000000000E+00  0.12614232517E+03  0.12614232517E+03  0.00000000000E+00 0.  1.
          2   -1    0    0  502    0  0.00000000000E+00 -0.00000000000E+00 -0.19979086237E+04  0.19979086237E+04  0.00000000000E+00 0. -1.
    9000007    2    1    2  502    0  0.20725752972E+03 -0.21192445923E+03 -0.79459384016E+03  0.93738833249E+03  0.39931172662E+03 0.  0.
    9000005    1    3    3    0    0  0.19368661180E+03 -0.17582763483E+02 -0.68873959085E+03  0.71567232806E+03  0.99999687468E+00 0.  0.
          4    1    3    3  502    0  0.13570917920E+02 -0.19434169575E+03 -0.10585424932E+03  0.22171600443E+03  0.00000000000E+00 0.  1.
   -9000007    1    1    2    0  501 -0.20725752972E+03  0.21192445923E+03 -0.10771724584E+04  0.11866626164E+04  0.40000000000E+03 0. -1.
<mgrwt>
<rscale>  2 0.49758661E+03</rscale>
<asrwt>0</asrwt>
<pdfrwt beam="1">  1        2 0.30737056E+00 0.49758661E+03</pdfrwt>
<pdfrwt beam="2">  1       -2 0.19406511E-01 0.49758661E+03</pdfrwt>
<totfact> 0.15898998E+02</totfact>
</mgrwt>
</event>
<event>
 6    1  0.9205235E-004  0.4225472E+03  0.7818608E-02  0.1036240E+00
         -2   -1    0    0    0  501 -0.00000000000E+00  0.00000000000E+00  0.88715001474E+02  0.88715001474E+02  0.00000000000E+00 0. -1.
          2   -1    0    0  502    0  0.00000000000E+00 -0.00000000000E+00 -0.22271179908E+04  0.22271179908E+04  0.00000000000E+00 0.  1.
    9000007    2    1    2  502    0 -0.66214099356E+02 -0.12118241585E+03 -0.14271657415E+04  0.14882292782E+04  0.39869141689E+03 0.  0.
    9000005    1    3    3    0    0 -0.12121510678E+03  0.61549404036E+02 -0.17498079712E+03  0.22158680151E+03  0.99999687468E+00 0.  0.
          4    1    3    3  502    0  0.55001007420E+02 -0.18273181989E+03 -0.12521849444E+04  0.12666424767E+04  0.00000000000E+00 0.  1.
   -9000007    1    1    2    0  501  0.66214099356E+02  0.12118241585E+03 -0.71123724784E+03  0.82760371409E+03  0.40000000000E+03 0. -1.
<mgrwt>
<rscale>  2 0.42254721E+03</rscale>
<asrwt>0</asrwt>
<pdfrwt beam="1">  1        2 0.34263354E+00 0.42254721E+03</pdfrwt>
<pdfrwt beam="2">  1       -2 0.13648462E-01 0.42254721E+03</pdfrwt>
<totfact> 0.21949161E+02</totfact>
</mgrwt>
</event>
<event>
 6    1  0.9205235E-004  0.6027390E+03  0.7818608E-02  0.9899740E-01
         -1   -1    0    0    0  501 -0.00000000000E+00  0.00000000000E+00  0.11598758283E+04  0.11598758283E+04  0.00000000000E+00 0. -1.
          1   -1    0    0  502    0  0.00000000000E+00 -0.00000000000E+00 -0.39332826805E+03  0.39332826805E+03  0.00000000000E+00 0.  1.
    9000007    2    1    2  502    0  0.22834289878E+03  0.38888122638E+03  0.73372327123E+03  0.94951003339E+03  0.39981292763E+03 0.  0.
    9000005    1    3    3    0    0  0.11650738895E+03  0.41201869324E+03  0.36217922893E+03  0.56081027908E+03  0.99999687468E+00 0.  0.
          4    1    3    3  502    0  0.11183550983E+03 -0.23137466855E+02  0.37154404230E+03  0.38869975431E+03  0.00000000000E+00 0.  1.
   -9000007    1    1    2    0  501 -0.22834289878E+03 -0.38888122638E+03  0.32824288978E+02  0.60369406292E+03  0.40000000000E+03 0.  1.
<mgrwt>
<rscale>  2 0.60273897E+03</rscale>
<asrwt>0</asrwt>
<pdfrwt beam="1">  1        1 0.60512042E-01 0.60273897E+03</pdfrwt>
<pdfrwt beam="2">  1       -1 0.17844243E+00 0.60273897E+03</pdfrwt>
<totfact> 0.13734586E+01</totfact>
</mgrwt>
</event>
<event>
 6    1  0.9205235E-004  0.4096470E+03  0.7818608E-02  0.1040490E+00
         -2   -1    0    0    0  501 -0.00000000000E+00  0.00000000000E+00  0.11070038950E+04  0.11070038950E+04  0.00000000000E+00 0. -1.
          2   -1    0    0  502    0  0.00000000000E+00 -0.00000000000E+00 -0.28186018152E+03  0.28186018152E+03  0.00000000000E+00 0.  1.
    9000007    2    1    2  502    0 -0.83784694886E+02 -0.30071494162E+02  0.88459840251E+03  0.97478796044E+03  0.39971622964E+03 0.  0.
    9000005    1    3    3    0    0 -0.38929942882E+02 -0.14532407100E+03  0.82297105071E+03  0.83661040895E+03  0.99999687468E+00 0.  0.
          4    1    3    3  502    0 -0.44854752003E+02  0.11525257684E+03  0.61627351792E+02  0.13817755148E+03  0.00000000000E+00 0.  1.
   -9000007    1    1    2    0  501  0.83784694886E+02  0.30071494162E+02 -0.59454689025E+02  0.41407611608E+03  0.40000000000E+03 0.  1.
<mgrwt>
<rscale>  2 0.40964700E+03</rscale>
<asrwt>0</asrwt>
<pdfrwt beam="1">  1        2 0.43363105E-01 0.40964700E+03</pdfrwt>
<pdfrwt beam="2">  1       -2 0.17030829E+00 0.40964700E+03</pdfrwt>
<totfact> 0.26154803E+01</totfact>
</mgrwt>
</event>
<event>
 6    1  0.9205235E-004  0.4595187E+03  0.7818608E-02  0.1024921E+00
         -1   -1    0    0    0  501 -0.00000000000E+00  0.00000000000E+00  0.84527703113E+03  0.84527703113E+03  0.00000000000E+00 0.  1.
          1   -1    0    0  502    0  0.00000000000E+00 -0.00000000000E+00 -0.34658440241E+03  0.34658440241E+03  0.00000000000E+00 0. -1.
    9000007    2    1    2  502    0  0.21077513590E+03  0.81251161385E+02 -0.65500083125E+02  0.46430296494E+03  0.40032371054E+03 0.  0.
    9000005    1    3    3    0    0  0.28553115997E+03  0.17868475396E+03 -0.49795236890E+02  0.34049500763E+03  0.99999687468E+00 0.  0.
          4    1    3    3  502    0 -0.74756024068E+02 -0.97433592579E+02 -0.15704846236E+02  0.12380795731E+03  0.00000000000E+00 0.  1.
   -9000007    1    1    2    0  501 -0.21077513590E+03 -0.81251161385E+02  0.56419271185E+03  0.72755846861E+03  0.40000000000E+03 0.  1.
<mgrwt>
<rscale>  2 0.45951867E+03</rscale>
<asrwt>0</asrwt>
<pdfrwt beam="1">  1        1 0.53320677E-01 0.45951867E+03</pdfrwt>
<pdfrwt beam="2">  1       -1 0.13004262E+00 0.45951867E+03</pdfrwt>
<totfact> 0.38783589E+01</totfact>
</mgrwt>
</event>
<event>
 6    1  0.9205235E-004  0.4962047E+03  0.7818608E-02  0.1014774E+00
          1   -1    0    0  502    0  0.00000000000E+00  0.00000000000E+00  0.19345750833E+04  0.19345750833E+04  0.00000000000E+00 0.  1.
         -1   -1    0    0    0  501 -0.00000000000E+00 -0.00000000000E+00 -0.13282172265E+03  0.13282172265E+03  0.00000000000E+00 0. -1.
    9000007    2    1    2  502    0  0.29119778271E+03 -0.25861000923E+02  0.11134746322E+04  0.12193445976E+04  0.40188375326E+03 0.  0.
    9000005    1    3    3    0    0  0.39202866740E+02 -0.18236714601E+03  0.29773286302E+03  0.35134100020E+03  0.99999687468E+00 0.  0.
          4    1    3    3  502    0  0.25199491597E+03  0.15650614509E+03  0.81574176918E+03  0.86800359741E+03  0.00000000000E+00 0.  1.
   -9000007    1    1    2    0  501 -0.29119778271E+03  0.25861000923E+02  0.68827872844E+03  0.84805220833E+03  0.40000000000E+03 0. -1.
<mgrwt>
<rscale>  2 0.49620465E+03</rscale>
<asrwt>0</asrwt>
<pdfrwt beam="1">  1        1 0.29762691E+00 0.49620465E+03</pdfrwt>
<pdfrwt beam="2">  1       -1 0.20434113E-01 0.49620465E+03</pdfrwt>
<totfact> 0.69420322E+01</totfact>
</mgrwt>
</event>
<event>
 6    1  0.9205235E-004  0.4958127E+03  0.7818608E-02  0.1014878E+00
          2   -1    0    0  502    0  0.00000000000E+00  0.00000000000E+00  0.41806306380E+03  0.41806306380E+03  0.00000000000E+00 0. -1.
         -2   -1    0    0    0  501 -0.00000000000E+00 -0.00000000000E+00 -0.74517262049E+03  0.74517262049E+03  0.00000000000E+00 0.  1.
    9000007    2    1    2  502    0 -0.61243861748E+02  0.28696894581E+03 -0.43057935964E+03  0.65647342585E+03  0.39932040698E+03 0.  0.
    9000005    1    3    3    0    0  0.66439044921E+02  0.12818343147E+03  0.34737041275E+02  0.14850185462E+03  0.99999687468E+00 0.  0.
          4    1    3    3  502    0 -0.12768290667E+03  0.15878551434E+03 -0.46531640092E+03  0.50797157124E+03  0.00000000000E+00 0.  1.
   -9000007    1    1    2    0  501  0.61243861748E+02 -0.28696894581E+03  0.10346980295E+03  0.50676225845E+03  0.40000000000E+03 0. -1.
<mgrwt>
<rscale>  2 0.49581270E+03</rscale>
<asrwt>0</asrwt>
<pdfrwt beam="1">  1        2 0.64317394E-01 0.49581270E+03</pdfrwt>
<pdfrwt beam="2">  1       -2 0.11464194E+00 0.49581270E+03</pdfrwt>
<totfact> 0.46375210E+01</totfact>
</mgrwt>
</event>
<event>
 6    1  0.9205235E-004  0.4080713E+03  0.7818608E-02  0.1041020E+00
         -1   -1    0    0    0  501 -0.00000000000E+00  0.00000000000E+00  0.94718999498E+02  0.94718999498E+02  0.00000000000E+00 0.  1.
          1   -1    0    0  502    0  0.00000000000E+00 -0.00000000000E+00 -0.18161844593E+04  0.18161844593E+04  0.00000000000E+00 0. -1.
    9000007    2    1    2  502    0 -0.84179933206E+02 -0.46080040276E+02 -0.10248097940E+04  0.11018677687E+04  0.39327831671E+03 0.  0.
    9000005    1    3    3    0    0 -0.22495365806E+03 -0.10100634305E+03 -0.53119075203E+03  0.58563729786E+03  0.99999687468E+00 0.  0.
          4    1    3    3  502    0  0.14077372486E+03  0.54926302775E+02 -0.49361904201E+03  0.51623047080E+03  0.00000000000E+00 0.  1.
   -9000007    1    1    2    0  501  0.84179933206E+02  0.46080040276E+02 -0.69665566573E+03  0.80903569010E+03  0.40000000000E+03 0.  1.
<mgrwt>
<rscale>  2 0.40807133E+03</rscale>
<asrwt>0</asrwt>
<pdfrwt beam="1">  1        1 0.27941300E+00 0.40807133E+03</pdfrwt>
<pdfrwt beam="2">  1       -1 0.14572153E-01 0.40807133E+03</pdfrwt>
<totfact> 0.14625390E+02</totfact>
</mgrwt>
</event>
<event>
 6    1  0.9205235E-004  0.5535660E+03  0.7818608E-02  0.1000672E+00
         -1   -1    0    0    0  501 -0.00000000000E+00  0.00000000000E+00  0.32400873352E+03  0.32400873352E+03  0.00000000000E+00 0.  1.
          1   -1    0    0  502    0  0.00000000000E+00 -0.00000000000E+00 -0.12986377424E+04  0.12986377424E+04  0.00000000000E+00 0. -1.
    9000007    2    1    2  502    0  0.12276801145E+03 -0.36187020841E+03 -0.91047587528E+03  0.10657464338E+04  0.40103255389E+03 0.  0.
    9000005    1    3    3    0    0 -0.41403124558E+02  0.75834455613E+02 -0.14745312388E+03  0.17090496516E+03  0.99999687468E+00 0.  0.
          4    1    3    3  502    0  0.16417113601E+03 -0.43770466402E+03 -0.76302275140E+03  0.89484146862E+03  0.00000000000E+00 0.  1.
   -9000007    1    1    2    0  501 -0.12276801145E+03  0.36187020841E+03 -0.64153133584E+02  0.55690004212E+03  0.40000000000E+03 0.  1.
<mgrwt>
<rscale>  2 0.55356599E+03</rscale>
<asrwt>0</asrwt>
<pdfrwt beam="1">  1        1 0.19979043E+00 0.55356599E+03</pdfrwt>
<pdfrwt beam="2">  1       -1 0.49847496E-01 0.55356599E+03</pdfrwt>
<totfact> 0.38616209E+01</totfact>
</mgrwt>
</event>
<event>
 6    1  0.9205235E-004  0.6118896E+03  0.7818608E-02  0.9881041E-01
          2   -1    0    0  502    0  0.00000000000E+00  0.00000000000E+00  0.22447318221E+04  0.22447318221E+04  0.00000000000E+00 0.  1.
         -2   -1    0    0    0  501 -0.00000000000E+00 -0.00000000000E+00 -0.20025385576E+03  0.20025385576E+03  0.00000000000E+00 0. -1.
    9000007    2    1    2  502    0  0.50672374521E+02 -0.46044616745E+03  0.15217523694E+04  0.16401127609E+04  0.39957631599E+03 0.  0.
    9000005    1    3    3    0    0 -0.15085847031E+02 -0.52012524891E+03  0.12417508734E+04  0.13463669964E+04  0.99999687468E+00 0.  0.
          4    1    3    3  502    0  0.65758221552E+02  0.59679081457E+02  0.28000149597E+03  0.29374576458E+03  0.00000000000E+00 0.  1.
   -9000007    1    1    2    0  501 -0.50672374521E+02  0.46044616745E+03  0.52272559699E+03  0.80487291693E+03  0.40000000000E+03 0. -1.
<mgrwt>
<rscale>  2 0.61188965E+03</rscale>
<asrwt>0</asrwt>
<pdfrwt beam="1">  1        2 0.34534334E+00 0.61188965E+03</pdfrwt>
<pdfrwt beam="2">  1       -2 0.30808287E-01 0.61188965E+03</pdfrwt>
<totfact> 0.50148778E+01</totfact>
</mgrwt>
</event>
<event>
 6    1  0.9205235E-004  0.4202532E+03  0.7818608E-02  0.1036984E+00
         -4   -1    0    0    0  501 -0.00000000000E+00  0.00000000000E+00  0.24426544865E+03  0.24426544865E+03  0.00000000000E+00 0.  1.
          4   -1    0    0  502    0  0.00000000000E+00 -0.00000000000E+00 -0.89346428448E+03  0.89346428448E+03  0.00000000000E+00 0. -1.
    9000007    2    1    2  502    0  0.11827435110E+03 -0.45855105549E+02 -0.76537908274E+02  0.42777758631E+03  0.40130300162E+03 0.  0.
    9000005    1    3    3    0    0  0.22459955811E+03 -0.13425536620E+03  0.14756081908E+02  0.26208435056E+03  0.99999687468E+00 0.  0.
          4    1    3    3  502    0 -0.10632520701E+03  0.88400260653E+02 -0.91293990182E+02  0.16569323575E+03  0.00000000000E+00 0.  1.
   -9000007    1    1    2    0  501 -0.11827435110E+03  0.45855105549E+02 -0.57266092756E+03  0.70995214683E+03  0.40000000000E+03 0. -1.
<mgrwt>
<rscale>  2 0.42025325E+03</rscale>
<asrwt>0</asrwt>
<pdfrwt beam="1">  1        4 0.13745605E+00 0.42025325E+03</pdfrwt>
<pdfrwt beam="2">  1       -4 0.37579299E-01 0.42025325E+03</pdfrwt>
<totfact> 0.50355316E+00</totfact>
</mgrwt>
</event>
<event>
 6    1  0.9205235E-004  0.4651015E+03  0.7818608E-02  0.1023312E+00
          2   -1    0    0  502    0  0.00000000000E+00  0.00000000000E+00  0.13302138079E+04  0.13302138079E+04  0.00000000000E+00 0.  1.
         -2   -1    0    0    0  501 -0.00000000000E+00 -0.00000000000E+00 -0.22607580125E+03  0.22607580125E+03  0.00000000000E+00 0. -1.
    9000007    2    1    2  502    0 -0.22135046683E+03  0.87010737323E+02  0.13958423557E+03  0.48534102266E+03  0.39938108604E+03 0.  0.
    9000005    1    3    3    0    0  0.42416260868E+02 -0.79317781239E+02 -0.66237954201E+02  0.11170906936E+03  0.99999687468E+00 0.  0.
          4    1    3    3  502    0 -0.26376672770E+03  0.16632851856E+03  0.20582218977E+03  0.37363195330E+03  0.00000000000E+00 0.  1.
   -9000007    1    1    2    0  501  0.22135046683E+03 -0.87010737323E+02  0.96455377111E+03  0.10709485865E+04  0.40000000000E+03 0.  1.
<mgrwt>
<rscale>  2 0.46510148E+03</rscale>
<asrwt>0</asrwt>
<pdfrwt beam="1">  1        2 0.20464827E+00 0.46510148E+03</pdfrwt>
<pdfrwt beam="2">  1       -2 0.34780893E-01 0.46510148E+03</pdfrwt>
<totfact> 0.12857317E+02</totfact>
</mgrwt>
</event>
<event>
 6    1  0.9205235E-004  0.6149675E+03  0.7818608E-02  0.9874831E-01
          2   -1    0    0  502    0  0.00000000000E+00  0.00000000000E+00  0.88245986962E+03  0.88245986962E+03  0.00000000000E+00 0.  1.
         -2   -1    0    0    0  501 -0.00000000000E+00 -0.00000000000E+00 -0.46277660321E+03  0.46277660321E+03  0.00000000000E+00 0. -1.
    9000007    2    1    2  502    0  0.43666478271E+03  0.16637653178E+03  0.26896730411E+02  0.61541557312E+03  0.39956928153E+03 0.  0.
    9000005    1    3    3    0    0  0.50983810954E+03  0.16937091534E+03 -0.46617586514E+00  0.53723609542E+03  0.99999687468E+00 0.  0.
          4    1    3    3  502    0 -0.73173326837E+02 -0.29943835574E+01  0.27362906277E+02  0.78179477698E+02  0.00000000000E+00 0.  1.
   -9000007    1    1    2    0  501 -0.43666478271E+03 -0.16637653178E+03  0.39278653600E+03  0.72982089971E+03  0.40000000000E+03 0.  1.
<mgrwt>
<rscale>  2 0.61496752E+03</rscale>
<asrwt>0</asrwt>
<pdfrwt beam="1">  1        2 0.13576306E+00 0.61496752E+03</pdfrwt>
<pdfrwt beam="2">  1       -2 0.71196401E-01 0.61496752E+03</pdfrwt>
<totfact> 0.55413045E+01</totfact>
</mgrwt>
</event>
<event>
 6    1  0.9205235E-004  0.4119381E+03  0.7818608E-02  0.1039723E+00
         -3   -1    0    0    0  501 -0.00000000000E+00  0.00000000000E+00  0.12409788947E+03  0.12409788947E+03  0.00000000000E+00 0. -1.
          3   -1    0    0  502    0  0.00000000000E+00 -0.00000000000E+00 -0.13923502509E+04  0.13923502509E+04  0.00000000000E+00 0.  1.
    9000007    2    1    2  502    0  0.21699879654E+02  0.93897966647E+02 -0.73634069330E+03  0.84397677622E+03  0.40101305373E+03 0.  0.
    9000005    1    3    3    0    0  0.17563167971E+02 -0.48524201899E+02  0.33191184216E+02  0.61365444205E+02  0.99999687468E+00 0.  0.
          4    1    3    3  502    0  0.41367116838E+01  0.14242216855E+03 -0.76953187752E+03  0.78261133201E+03  0.00000000000E+00 0.  1.
   -9000007    1    1    2    0  501 -0.21699879654E+02 -0.93897966647E+02 -0.53191166814E+03  0.67247136417E+03  0.40000000000E+03 0. -1.
<mgrwt>
<rscale>  2 0.41193806E+03</rscale>
<asrwt>0</asrwt>
<pdfrwt beam="1">  1        3 0.21420774E+00 0.41193806E+03</pdfrwt>
<pdfrwt beam="2">  1       -3 0.19091982E-01 0.41193806E+03</pdfrwt>
<totfact> 0.79804479E+00</totfact>
</mgrwt>
</event>
<event>
 6    1  0.9205235E-004  0.5411157E+03  0.7818608E-02  0.1003571E+00
          2   -1    0    0  502    0  0.00000000000E+00  0.00000000000E+00  0.13054326831E+04  0.13054326831E+04  0.00000000000E+00 0. -1.
         -2   -1    0    0    0  501 -0.00000000000E+00 -0.00000000000E+00 -0.27299818451E+03  0.27299818451E+03  0.00000000000E+00 0.  1.
    9000007    2    1    2  502    0 -0.23627950799E+03 -0.27707515156E+03  0.84970182395E+03  0.10074756366E+04  0.40051881745E+03 0.  0.
    9000005    1    3    3    0    0 -0.11925501585E+03 -0.23249957192E+03  0.84244514442E+03  0.88203890567E+03  0.99999687468E+00 0.  0.
          4    1    3    3  502    0 -0.11702449214E+03 -0.44575579634E+02  0.72566795251E+01  0.12543673089E+03  0.00000000000E+00 0.  1.
   -9000007    1    1    2    0  501  0.23627950799E+03  0.27707515156E+03  0.18273267467E+03  0.57095523108E+03  0.40000000000E+03 0.  1.
<mgrwt>
<rscale>  2 0.54111573E+03</rscale>
<asrwt>0</asrwt>
<pdfrwt beam="1">  1        2 0.20083579E+00 0.54111573E+03</pdfrwt>
<pdfrwt beam="2">  1       -2 0.41999721E-01 0.54111573E+03</pdfrwt>
<totfact> 0.91553383E+01</totfact>
</mgrwt>
</event>
<event>
 6    1  0.9205235E-004  0.4577350E+03  0.7818608E-02  0.1025440E+00
          3   -1    0    0  502    0  0.00000000000E+00  0.00000000000E+00  0.13409909907E+04  0.13409909907E+04  0.00000000000E+00 0.  1.
         -3   -1    0    0    0  501 -0.00000000000E+00 -0.00000000000E+00 -0.17578588683E+03  0.17578588683E+03  0.00000000000E+00 0. -1.
    9000007    2    1    2  502    0  0.35118243997E+02  0.22159716281E+03  0.32873516808E+03  0.56282690657E+03  0.39795567894E+03 0.  0.
    9000005    1    3    3    0    0  0.90365765232E+02 -0.41432920429E+02  0.26999010773E+03  0.28771221157E+03  0.99999687468E+00 0.  0.
          4    1    3    3  502    0 -0.55247521235E+02  0.26303008324E+03  0.58745060352E+02  0.27511469500E+03  0.00000000000E+00 0.  1.
   -9000007    1    1    2    0  501 -0.35118243997E+02 -0.22159716281E+03  0.83646993583E+03  0.95394997100E+03  0.40000000000E+03 0.  1.
<mgrwt>
<rscale>  2 0.45773504E+03</rscale>
<asrwt>0</asrwt>
<pdfrwt beam="1">  1        3 0.20630630E+00 0.45773504E+03</pdfrwt>
<pdfrwt beam="2">  1       -3 0.27043983E-01 0.45773504E+03</pdfrwt>
<totfact> 0.47103292E+00</totfact>
</mgrwt>
</event>
<event>
 6    1  0.9205235E-004  0.7588030E+03  0.7818608E-02  0.9621640E-01
         -2   -1    0    0    0  501 -0.00000000000E+00  0.00000000000E+00  0.19302176329E+04  0.19302176329E+04  0.00000000000E+00 0.  1.
          2   -1    0    0  502    0  0.00000000000E+00 -0.00000000000E+00 -0.32996823834E+03  0.32996823834E+03  0.00000000000E+00 0. -1.
    9000007    2    1    2  502    0 -0.23294493382E+03 -0.60105410054E+03  0.45017979994E+03  0.88243790938E+03  0.40063129891E+03 0.  0.
    9000005    1    3    3    0    0  0.23187577496E+02 -0.42066848702E+03  0.14628847850E+03  0.44598313719E+03  0.99999687468E+00 0.  0.
          4    1    3    3  502    0 -0.25613251132E+03 -0.18038561352E+03  0.30389132144E+03  0.43645477219E+03  0.00000000000E+00 0.  1.
   -9000007    1    1    2    0  501  0.23294493382E+03  0.60105410054E+03  0.11500695946E+04  0.13777479619E+04  0.40000000000E+03 0.  1.
<mgrwt>
<rscale>  2 0.75880303E+03</rscale>
<asrwt>0</asrwt>
<pdfrwt beam="1">  1        2 0.50764345E-01 0.75880303E+03</pdfrwt>
<pdfrwt beam="2">  1       -2 0.29695655E+00 0.75880303E+03</pdfrwt>
<totfact> 0.33991396E+00</totfact>
</mgrwt>
</event>
<event>
 6    1  0.9205235E-004  0.6367723E+03  0.7818608E-02  0.9831922E-01
          1   -1    0    0  502    0  0.00000000000E+00  0.00000000000E+00  0.19914042210E+04  0.19914042210E+04  0.00000000000E+00 0.  1.
         -1   -1    0    0    0  501 -0.00000000000E+00 -0.00000000000E+00 -0.20466493161E+03  0.20466493161E+03  0.00000000000E+00 0. -1.
    9000007    2    1    2  502    0 -0.47424827142E+03  0.14285950637E+03  0.97220414801E+03  0.11622472346E+04  0.40039663774E+03 0.  0.
    9000005    1    3    3    0    0 -0.16554813743E+03 -0.84239228457E+02  0.10320796072E+03  0.21249780368E+03  0.99999687468E+00 0.  0.
          4    1    3    3  502    0 -0.30870013399E+03  0.22709873482E+03  0.86899618729E+03  0.94974943096E+03  0.00000000000E+00 0.  1.
   -9000007    1    1    2    0  501  0.47424827142E+03 -0.14285950637E+03  0.81453514136E+03  0.10338219179E+04  0.40000000000E+03 0. -1.
<mgrwt>
<rscale>  2 0.63677230E+03</rscale>
<asrwt>0</asrwt>
<pdfrwt beam="1">  1        1 0.30636987E+00 0.63677230E+03</pdfrwt>
<pdfrwt beam="2">  1       -1 0.31486914E-01 0.63677230E+03</pdfrwt>
<totfact> 0.29837383E+01</totfact>
</mgrwt>
</event>
<event>
 6    1  0.9205235E-004  0.4802215E+03  0.7818608E-02  0.1019074E+00
          2   -1    0    0  502    0  0.00000000000E+00  0.00000000000E+00  0.45760547284E+03  0.45760547284E+03  0.00000000000E+00 0.  1.
         -2   -1    0    0    0  501 -0.00000000000E+00 -0.00000000000E+00 -0.62861967231E+03  0.62861967231E+03  0.00000000000E+00 0. -1.
    9000007    2    1    2  502    0 -0.26316086529E+03 -0.35805833536E+02 -0.32738023120E+03  0.58126372621E+03  0.40019245982E+03 0.  0.
    9000005    1    3    3    0    0 -0.23134720724E+03 -0.20316234524E+03 -0.18462452901E+03  0.35900374027E+03  0.99999687468E+00 0.  0.
          4    1    3    3  502    0 -0.31813658053E+02  0.16735651170E+03 -0.14275570218E+03  0.22225998595E+03  0.00000000000E+00 0.  1.
   -9000007    1    1    2    0  501  0.26316086529E+03  0.35805833536E+02  0.15636603173E+03  0.50496141894E+03  0.40000000000E+03 0.  1.
<mgrwt>
<rscale>  2 0.48022150E+03</rscale>
<asrwt>0</asrwt>
<pdfrwt beam="1">  1        2 0.70400842E-01 0.48022150E+03</pdfrwt>
<pdfrwt beam="2">  1       -2 0.96710718E-01 0.48022150E+03</pdfrwt>
<totfact> 0.62918795E+01</totfact>
</mgrwt>
</event>
<event>
 6    1  0.9205235E-004  0.5218126E+03  0.7818608E-02  0.1008237E+00
         -2   -1    0    0    0  501 -0.00000000000E+00  0.00000000000E+00  0.34524911220E+03  0.34524911220E+03  0.00000000000E+00 0. -1.
          2   -1    0    0  502    0  0.00000000000E+00 -0.00000000000E+00 -0.99789583775E+03  0.99789583775E+03  0.00000000000E+00 0.  1.
    9000007    2    1    2  502    0  0.18433622400E+03  0.27958732806E+03 -0.18881988675E+02  0.52228767905E+03  0.40034856399E+03 0.  0.
    9000005    1    3    3    0    0 -0.66819742527E+02  0.17331014147E+03  0.11501568760E+03  0.21847400650E+03  0.99999687468E+00 0.  0.
          4    1    3    3  502    0  0.25115596653E+03  0.10627718659E+03 -0.13389767627E+03  0.30381367254E+03  0.00000000000E+00 0.  1.
   -9000007    1    1    2    0  501 -0.18433622400E+03 -0.27958732806E+03 -0.63376473688E+03  0.82085727091E+03  0.40000000000E+03 0.  1.
<mgrwt>
<rscale>  2 0.52181258E+03</rscale>
<asrwt>0</asrwt>
<pdfrwt beam="1">  1        2 0.15352244E+00 0.52181258E+03</pdfrwt>
<pdfrwt beam="2">  1       -2 0.53115248E-01 0.52181258E+03</pdfrwt>
<totfact> 0.87428854E+01</totfact>
</mgrwt>
</event>
<event>
 6    1  0.9205235E-004  0.4331243E+03  0.7818608E-02  0.1032878E+00
          1   -1    0    0  502    0  0.00000000000E+00  0.00000000000E+00  0.46744834864E+03  0.46744834864E+03  0.00000000000E+00 0.  1.
         -1   -1    0    0    0  501 -0.00000000000E+00 -0.00000000000E+00 -0.47252513767E+03  0.47252513767E+03  0.00000000000E+00 0. -1.
    9000007    2    1    2  502    0 -0.49860573780E+02 -0.15888676681E+03  0.17990514067E+03  0.46885843051E+03  0.39966396728E+03 0.  0.
    9000005    1    3    3    0    0  0.17447995403E+03 -0.50419445308E+02  0.99093894608E+02  0.20689604821E+03  0.99999687468E+00 0.  0.
          4    1    3    3  502    0 -0.22434052781E+03 -0.10846732150E+03  0.80811246059E+02  0.26196238230E+03  0.00000000000E+00 0.  1.
   -9000007    1    1    2    0  501  0.49860573780E+02  0.15888676681E+03 -0.18498192969E+03  0.47111505579E+03  0.40000000000E+03 0. -1.
<mgrwt>
<rscale>  2 0.43312432E+03</rscale>
<asrwt>0</asrwt>
<pdfrwt beam="1">  1        1 0.71915131E-01 0.43312432E+03</pdfrwt>
<pdfrwt beam="2">  1       -1 0.72696175E-01 0.43312432E+03</pdfrwt>
<totfact> 0.97067918E+01</totfact>
</mgrwt>
</event>
<event>
 6    1  0.9205235E-004  0.4689734E+03  0.7818608E-02  0.1022210E+00
         -2   -1    0    0    0  501 -0.00000000000E+00  0.00000000000E+00  0.10317177533E+03  0.10317177533E+03  0.00000000000E+00 0. -1.
          2   -1    0    0  502    0  0.00000000000E+00 -0.00000000000E+00 -0.21845427701E+04  0.21845427701E+04  0.00000000000E+00 0.  1.
    9000007    2    1    2  502    0  0.19055134298E+03 -0.15365879259E+03 -0.12185463510E+04  0.13056823644E+04  0.40003798332E+03 0.  0.
    9000005    1    3    3    0    0 -0.98146450083E+02 -0.12720035576E+03 -0.27383429992E+03  0.31748839346E+03  0.99999687468E+00 0.  0.
          4    1    3    3  502    0  0.28869779306E+03 -0.26458436826E+02 -0.94471205111E+03  0.98819397090E+03  0.00000000000E+00 0.  1.
   -9000007    1    1    2    0  501 -0.19055134298E+03  0.15365879259E+03 -0.86282464375E+03  0.98203218110E+03  0.40000000000E+03 0.  1.
<mgrwt>
<rscale>  2 0.46897338E+03</rscale>
<asrwt>0</asrwt>
<pdfrwt beam="1">  1        2 0.33608351E+00 0.46897338E+03</pdfrwt>
<pdfrwt beam="2">  1       -2 0.15872580E-01 0.46897338E+03</pdfrwt>
<totfact> 0.17849250E+02</totfact>
</mgrwt>
</event>
<event>
 6    1  0.9205235E-004  0.5918767E+03  0.7818608E-02  0.9922404E-01
          1   -1    0    0  502    0  0.00000000000E+00  0.00000000000E+00  0.70382603241E+03  0.70382603241E+03  0.00000000000E+00 0.  1.
         -1   -1    0    0    0  501 -0.00000000000E+00 -0.00000000000E+00 -0.50235456793E+03  0.50235456793E+03  0.00000000000E+00 0. -1.
    9000007    2    1    2  502    0 -0.14105082975E+03 -0.41310474306E+03  0.42862645487E+02  0.59323066537E+03  0.39941776456E+03 0.  0.
    9000005    1    3    3    0    0 -0.23761882513E+03 -0.10201090956E+03 -0.27279174037E+02  0.26002708524E+03  0.99999687468E+00 0.  0.
          4    1    3    3  502    0  0.96567995378E+02 -0.31109383349E+03  0.70141819524E+02  0.33320358013E+03  0.00000000000E+00 0.  1.
   -9000007    1    1    2    0  501  0.14105082975E+03  0.41310474306E+03  0.15860881900E+03  0.61294993497E+03  0.40000000000E+03 0.  1.
<mgrwt>
<rscale>  2 0.59187673E+03</rscale>
<asrwt>0</asrwt>
<pdfrwt beam="1">  1        1 0.10828093E+00 0.59187673E+03</pdfrwt>
<pdfrwt beam="2">  1       -1 0.77285318E-01 0.59187673E+03</pdfrwt>
<totfact> 0.47145577E+01</totfact>
</mgrwt>
</event>
<event>
 6    1  0.9205235E-004  0.4881224E+03  0.7818608E-02  0.1016926E+00
         -1   -1    0    0    0  501 -0.00000000000E+00  0.00000000000E+00  0.23419020560E+03  0.23419020560E+03  0.00000000000E+00 0. -1.
          1   -1    0    0  502    0  0.00000000000E+00 -0.00000000000E+00 -0.10195145485E+04  0.10195145485E+04  0.00000000000E+00 0.  1.
    9000007    2    1    2  502    0  0.16593336582E+03 -0.22569162996E+03 -0.36389913710E+03  0.60867002806E+03  0.39948219904E+03 0.  0.
    9000005    1    3    3    0    0  0.24024009060E+03 -0.15417551409E+03 -0.65395848376E+02  0.29285321794E+03  0.99999687468E+00 0.  0.
          4    1    3    3  502    0 -0.74306724782E+02 -0.71516115872E+02 -0.29850328872E+03  0.31581681012E+03  0.00000000000E+00 0.  1.
   -9000007    1    1    2    0  501 -0.16593336582E+03  0.22569162996E+03 -0.42142520585E+03  0.64503472608E+03  0.40000000000E+03 0. -1.
<mgrwt>
<rscale>  2 0.48812244E+03</rscale>
<asrwt>0</asrwt>
<pdfrwt beam="1">  1        1 0.15684839E+00 0.48812244E+03</pdfrwt>
<pdfrwt beam="2">  1       -1 0.36029262E-01 0.48812244E+03</pdfrwt>
<totfact> 0.11240840E+02</totfact>
</mgrwt>
</event>
<event>
 6    1  0.9205235E-004  0.5749352E+03  0.7818608E-02  0.9958817E-01
         -1   -1    0    0    0  501 -0.00000000000E+00  0.00000000000E+00  0.17361783925E+03  0.17361783925E+03  0.00000000000E+00 0.  1.
          1   -1    0    0  502    0  0.00000000000E+00 -0.00000000000E+00 -0.21026155853E+04  0.21026155853E+04  0.00000000000E+00 0. -1.
    9000007    2    1    2  502    0 -0.36394204771E+03 -0.19686108661E+03 -0.61374750304E+03  0.84058329195E+03  0.39835432934E+03 0.  0.
    9000005    1    3    3    0    0 -0.28461497910E+03 -0.57025325489E+02 -0.61472288845E+03  0.67981085874E+03  0.99999687468E+00 0.  0.
          4    1    3    3  502    0 -0.79327068615E+02 -0.13983576112E+03  0.97538541503E+00  0.16077243321E+03  0.00000000000E+00 0.  1.
   -9000007    1    1    2    0  501  0.36394204771E+03  0.19686108661E+03 -0.13152502430E+04  0.14356501326E+04  0.40000000000E+03 0. -1.
<mgrwt>
<rscale>  2 0.57493524E+03</rscale>
<asrwt>0</asrwt>
<pdfrwt beam="1">  1        1 0.32347933E+00 0.57493524E+03</pdfrwt>
<pdfrwt beam="2">  1       -1 0.26710436E-01 0.57493524E+03</pdfrwt>
<totfact> 0.33782767E+01</totfact>
</mgrwt>
</event>
<event>
 6    1  0.9205235E-004  0.4280959E+03  0.7818608E-02  0.1034463E+00
         -1   -1    0    0    0  501 -0.00000000000E+00  0.00000000000E+00  0.20418277040E+03  0.20418277040E+03  0.00000000000E+00 0.  1.
          1   -1    0    0  502    0  0.00000000000E+00 -0.00000000000E+00 -0.11937438411E+04  0.11937438411E+04  0.00000000000E+00 0. -1.
    9000007    2    1    2  502    0 -0.14652416359E+03  0.42022666308E+02 -0.14665075783E+03  0.45255206640E+03  0.40007710886E+03 0.  0.
    9000005    1    3    3    0    0 -0.17039369857E+02  0.19273992475E+03  0.18230182191E+02  0.19435112105E+03  0.99999687468E+00 0.  0.
          4    1    3    3  502    0 -0.12948479373E+03 -0.15071725844E+03 -0.16488094002E+03  0.25820094535E+03  0.00000000000E+00 0.  1.
   -9000007    1    1    2    0  501  0.14652416359E+03 -0.42022666308E+02 -0.84291031288E+03  0.94537454512E+03  0.40000000000E+03 0. -1.
<mgrwt>
<rscale>  2 0.42809588E+03</rscale>
<asrwt>0</asrwt>
<pdfrwt beam="1">  1        1 0.18365290E+00 0.42809588E+03</pdfrwt>
<pdfrwt beam="2">  1       -1 0.31412734E-01 0.42809588E+03</pdfrwt>
<totfact> 0.10734503E+02</totfact>
</mgrwt>
</event>
<event>
 6    1  0.9205235E-004  0.6274205E+03  0.7818608E-02  0.9850095E-01
          1   -1    0    0  502    0  0.00000000000E+00  0.00000000000E+00  0.11517344221E+04  0.11517344221E+04  0.00000000000E+00 0. -1.
         -1   -1    0    0    0  501 -0.00000000000E+00 -0.00000000000E+00 -0.36501567429E+03  0.36501567429E+03  0.00000000000E+00 0.  1.
    9000007    2    1    2  502    0 -0.11244380890E+03  0.47000591196E+03  0.58468998946E+03  0.85768652842E+03  0.40026819735E+03 0.  0.
    9000005    1    3    3    0    0  0.23113814810E+02 -0.53172846485E+02 -0.45017726783E+01  0.58162410451E+02  0.99999687468E+00 0.  0.
          4    1    3    3  502    0 -0.13555762371E+03  0.52317875844E+03  0.58919176214E+03  0.79952411797E+03  0.00000000000E+00 0.  1.
   -9000007    1    1    2    0  501  0.11244380890E+03 -0.47000591196E+03  0.20202875835E+03  0.65906356798E+03  0.40000000000E+03 0. -1.
<mgrwt>
<rscale>  2 0.62742049E+03</rscale>
<asrwt>0</asrwt>
<pdfrwt beam="1">  1        1 0.17718991E+00 0.62742049E+03</pdfrwt>
<pdfrwt beam="2">  1       -1 0.56156258E-01 0.62742049E+03</pdfrwt>
<totfact> 0.38772182E+01</totfact>
</mgrwt>
</event>
<event>
 6    1  0.9205235E-004  0.4089987E+03  0.7818608E-02  0.1040708E+00
         -1   -1    0    0    0  501 -0.00000000000E+00  0.00000000000E+00  0.20225780659E+03  0.20225780659E+03  0.00000000000E+00 0. -1.
          1   -1    0    0  502    0  0.00000000000E+00 -0.00000000000E+00 -0.83001054704E+03  0.83001054704E+03  0.00000000000E+00 0.  1.
    9000007    2    1    2  502    0  0.84048259631E+02  0.15933334862E+02 -0.28308307906E+03  0.49737102088E+03  0.39990489076E+03 0.  0.
    9000005    1    3    3    0    0  0.18655068621E+03  0.14412752798E+03 -0.11448627696E+03  0.26207252900E+03  0.99999687468E+00 0.  0.
          4    1    3    3  502    0 -0.10250242658E+03 -0.12819419312E+03 -0.16859680211E+03  0.23529849189E+03  0.00000000000E+00 0.  1.
   -9000007    1    1    2    0  501 -0.84048259631E+02 -0.15933334862E+02 -0.34466966139E+03  0.53489733275E+03  0.40000000000E+03 0. -1.
<mgrwt>
<rscale>  2 0.40899870E+03</rscale>
<asrwt>0</asrwt>
<pdfrwt beam="1">  1        1 0.12769393E+00 0.40899870E+03</pdfrwt>
<pdfrwt beam="2">  1       -1 0.31116586E-01 0.40899870E+03</pdfrwt>
<totfact> 0.20721645E+02</totfact>
</mgrwt>
</event>
<event>
 6    1  0.9205235E-004  0.4807984E+03  0.7818608E-02  0.1018916E+00
          2   -1    0    0  502    0  0.00000000000E+00  0.00000000000E+00  0.24537668221E+04  0.24537668221E+04  0.00000000000E+00 0. -1.
         -2   -1    0    0    0  501 -0.00000000000E+00 -0.00000000000E+00 -0.94226166407E+02  0.94226166407E+02  0.00000000000E+00 0.  1.
    9000007    2    1    2  502    0  0.26382123742E+03 -0.40516153193E+02  0.11624153179E+04  0.12578952099E+04  0.39980968450E+03 0.  0.
    9000005    1    3    3    0    0  0.84994257047E+02 -0.21288975908E+03  0.62957273040E+03  0.67000663885E+03  0.99999687468E+00 0.  0.
          4    1    3    3  502    0  0.17882698037E+03  0.17237360589E+03  0.53284258755E+03  0.58788857109E+03  0.00000000000E+00 0.  1.
   -9000007    1    1    2    0  501 -0.26382123742E+03  0.40516153193E+02  0.11971253377E+04  0.12900977786E+04  0.40000000000E+03 0. -1.
<mgrwt>
<rscale>  2 0.48079838E+03</rscale>
<asrwt>0</asrwt>
<pdfrwt beam="1">  1        2 0.37750254E+00 0.48079838E+03</pdfrwt>
<pdfrwt beam="2">  1       -2 0.14496335E-01 0.48079838E+03</pdfrwt>
<totfact> 0.14766143E+02</totfact>
</mgrwt>
</event>
<event>
 6    1  0.9205235E-004  0.4288080E+03  0.7818608E-02  0.1034237E+00
         -2   -1    0    0    0  501 -0.00000000000E+00  0.00000000000E+00  0.30384246300E+03  0.30384246300E+03  0.00000000000E+00 0. -1.
          2   -1    0    0  502    0  0.00000000000E+00 -0.00000000000E+00 -0.60548303219E+03  0.60548303219E+03  0.00000000000E+00 0.  1.
    9000007    2    1    2  502    0 -0.10790035464E+03  0.11062543060E+03 -0.16115965871E+03  0.45808790962E+03  0.39998953101E+03 0.  0.
    9000005    1    3    3    0    0  0.11990888815E+03 -0.43743280382E+02 -0.12824703882E+03  0.18094175581E+03  0.99999687468E+00 0.  0.
          4    1    3    3  502    0 -0.22780924278E+03  0.15436871098E+03 -0.32912619895E+02  0.27714615382E+03  0.00000000000E+00 0.  1.
   -9000007    1    1    2    0  501  0.10790035464E+03 -0.11062543060E+03 -0.14048091048E+03  0.45123758557E+03  0.40000000000E+03 0. -1.
<mgrwt>
<rscale>  2 0.42880798E+03</rscale>
<asrwt>0</asrwt>
<pdfrwt beam="1">  1        2 0.93151235E-01 0.42880798E+03</pdfrwt>
<pdfrwt beam="2">  1       -2 0.46744995E-01 0.42880798E+03</pdfrwt>
<totfact> 0.21850917E+02</totfact>
</mgrwt>
</event>
<event>
 6    1  0.9205235E-004  0.4693145E+03  0.7818608E-02  0.1022114E+00
         -1   -1    0    0    0  501 -0.00000000000E+00  0.00000000000E+00  0.24824621008E+03  0.24824621008E+03  0.00000000000E+00 0.  1.
          1   -1    0    0  502    0  0.00000000000E+00 -0.00000000000E+00 -0.14816896057E+04  0.14816896057E+04  0.00000000000E+00 0. -1.
    9000007    2    1    2  502    0 -0.21844348570E+03 -0.84823665200E+02 -0.73475583930E+02  0.48076091419E+03  0.41330350174E+03 0.  0.
    9000005    1    3    3    0    0 -0.26504912891E+03 -0.90681038631E+02 -0.20105032490E+03  0.34481346354E+03  0.99999687468E+00 0.  0.
          4    1    3    3  502    0  0.46605643211E+02  0.58573734302E+01  0.12757474097E+03  0.13594745064E+03  0.00000000000E+00 0.  1.
   -9000007    1    1    2    0  501  0.21844348570E+03  0.84823665200E+02 -0.11599678117E+04  0.12491749016E+04  0.40000000000E+03 0. -1.
<mgrwt>
<rscale>  2 0.46931447E+03</rscale>
<asrwt>0</asrwt>
<pdfrwt beam="1">  1        1 0.22795224E+00 0.46931447E+03</pdfrwt>
<pdfrwt beam="2">  1       -1 0.38191725E-01 0.46931447E+03</pdfrwt>
<totfact> 0.47752468E+01</totfact>
</mgrwt>
</event>
<event>
 6    1  0.9205235E-004  0.4318744E+03  0.7818608E-02  0.1033269E+00
         -2   -1    0    0    0  501 -0.00000000000E+00  0.00000000000E+00  0.20206979993E+03  0.20206979993E+03  0.00000000000E+00 0.  1.
          2   -1    0    0  502    0  0.00000000000E+00 -0.00000000000E+00 -0.12671050596E+04  0.12671050596E+04  0.00000000000E+00 0. -1.
    9000007    2    1    2  502    0 -0.16139713695E+03 -0.73213942603E+01 -0.91574215154E+03  0.10126761511E+04  0.40103199418E+03 0.  0.
    9000005    1    3    3    0    0 -0.14387554944E+03  0.94485019637E+02 -0.11898749742E+03  0.20925252017E+03  0.99999687468E+00 0.  0.
          4    1    3    3  502    0 -0.17521587512E+02 -0.10180641390E+03 -0.79675465412E+03  0.80342363097E+03  0.00000000000E+00 0.  1.
   -9000007    1    1    2    0  501  0.16139713695E+03  0.73213942603E+01 -0.14929310813E+03  0.45649870839E+03  0.40000000000E+03 0.  1.
<mgrwt>
<rscale>  2 0.43187442E+03</rscale>
<asrwt>0</asrwt>
<pdfrwt beam="1">  1        2 0.19493924E+00 0.43187442E+03</pdfrwt>
<pdfrwt beam="2">  1       -2 0.31087661E-01 0.43187442E+03</pdfrwt>
<totfact> 0.17290070E+02</totfact>
</mgrwt>
</event>
<event>
 6    1  0.9205235E-004  0.4767266E+03  0.7818608E-02  0.1020039E+00
          2   -1    0    0  502    0  0.00000000000E+00  0.00000000000E+00  0.77836064792E+03  0.77836064792E+03  0.00000000000E+00 0. -1.
         -2   -1    0    0    0  501 -0.00000000000E+00 -0.00000000000E+00 -0.30299244849E+03  0.30299244849E+03  0.00000000000E+00 0.  1.
    9000007    2    1    2  502    0 -0.13707662981E+03 -0.22858007644E+03  0.13283303505E+03  0.49112501116E+03  0.39053848415E+03 0.  0.
    9000005    1    3    3    0    0 -0.21529641763E+03 -0.29669819749E+03  0.82121834084E+02  0.37566922081E+03  0.99999687468E+00 0.  0.
          4    1    3    3  502    0  0.78219787821E+02  0.68118121047E+02  0.50711200969E+02  0.11545579035E+03  0.00000000000E+00 0.  1.
   -9000007    1    1    2    0  501  0.13707662981E+03  0.22858007644E+03  0.34253516438E+03  0.59022808525E+03  0.40000000000E+03 0.  1.
<mgrwt>
<rscale>  2 0.47672659E+03</rscale>
<asrwt>0</asrwt>
<pdfrwt beam="1">  1        2 0.11974779E+00 0.47672659E+03</pdfrwt>
<pdfrwt beam="2">  1       -2 0.46614223E-01 0.47672659E+03</pdfrwt>
<totfact> 0.16048251E+02</totfact>
</mgrwt>
</event>
<event>
 6    1  0.9205235E-004  0.4582435E+03  0.7818608E-02  0.1025292E+00
          1   -1    0    0  502    0  0.00000000000E+00  0.00000000000E+00  0.10044138314E+04  0.10044138314E+04  0.00000000000E+00 0. -1.
         -1   -1    0    0    0  501 -0.00000000000E+00 -0.00000000000E+00 -0.25947222885E+03  0.25947222885E+03  0.00000000000E+00 0.  1.
    9000007    2    1    2  502    0  0.21210124678E+03  0.70867812543E+02  0.65099131625E+03  0.79608712693E+03  0.39994478881E+03 0.  0.
    9000005    1    3    3    0    0  0.66349455602E+02  0.12036913943E+03  0.62505504891E+03  0.63998890158E+03  0.99999687468E+00 0.  0.
          4    1    3    3  502    0  0.14575179118E+03 -0.49501326885E+02  0.25936267341E+02  0.15609822536E+03  0.00000000000E+00 0.  1.
   -9000007    1    1    2    0  501 -0.21210124678E+03 -0.70867812543E+02  0.93950286348E+02  0.46779893335E+03  0.40000000000E+03 0.  1.
<mgrwt>
<rscale>  2 0.45824350E+03</rscale>
<asrwt>0</asrwt>
<pdfrwt beam="1">  1        1 0.15452520E+00 0.45824350E+03</pdfrwt>
<pdfrwt beam="2">  1       -1 0.39918805E-01 0.45824350E+03</pdfrwt>
<totfact> 0.96467098E+01</totfact>
</mgrwt>
</event>
<event>
 6    1  0.9205235E-004  0.4188867E+03  0.7818608E-02  0.1037429E+00
         -1   -1    0    0    0  501 -0.00000000000E+00  0.00000000000E+00  0.37962929196E+03  0.37962929196E+03  0.00000000000E+00 0.  1.
          1   -1    0    0  502    0  0.00000000000E+00 -0.00000000000E+00 -0.50899269101E+03  0.50899269101E+03  0.00000000000E+00 0. -1.
    9000007    2    1    2  502    0  0.89605760748E+02 -0.86276825591E+02  0.70030413484E+02  0.42469227335E+03  0.39998298119E+03 0.  0.
    9000005    1    3    3    0    0  0.58836388400E+02 -0.15779217894E+03 -0.12824567589E+03  0.21167911025E+03  0.99999687468E+00 0.  0.
          4    1    3    3  502    0  0.30769372349E+02  0.71515353353E+02  0.19827608937E+03  0.21301316311E+03  0.00000000000E+00 0.  1.
   -9000007    1    1    2    0  501 -0.89605760748E+02  0.86276825591E+02 -0.19939381253E+03  0.46392970962E+03  0.40000000000E+03 0. -1.
<mgrwt>
<rscale>  2 0.41888671E+03</rscale>
<asrwt>0</asrwt>
<pdfrwt beam="1">  1        1 0.78306568E-01 0.41888671E+03</pdfrwt>
<pdfrwt beam="2">  1       -1 0.58404506E-01 0.41888671E+03</pdfrwt>
<totfact> 0.13397443E+02</totfact>
</mgrwt>
</event>
<event>
 6    1  0.9205235E-004  0.4480472E+03  0.7818608E-02  0.1028306E+00
         -2   -1    0    0    0  501 -0.00000000000E+00  0.00000000000E+00  0.20264511565E+03  0.20264511565E+03  0.00000000000E+00 0.  1.
          2   -1    0    0  502    0  0.00000000000E+00 -0.00000000000E+00 -0.10158380444E+04  0.10158380444E+04  0.00000000000E+00 0. -1.
    9000007    2    1    2  502    0 -0.16968489713E+03  0.10834103586E+03 -0.50278181488E+03  0.67361087777E+03  0.40053878329E+03 0.  0.
    9000005    1    3    3    0    0  0.40959595076E+02  0.12119128949E+03 -0.43274215190E+03  0.45125578899E+03  0.99999687468E+00 0.  0.
          4    1    3    3  502    0 -0.21064449221E+03 -0.12850253631E+02 -0.70039662977E+02  0.22235508878E+03  0.00000000000E+00 0.  1.
   -9000007    1    1    2    0  501  0.16968489713E+03 -0.10834103586E+03 -0.31041111383E+03  0.54487228224E+03  0.40000000000E+03 0. -1.
<mgrwt>
<rscale>  2 0.44804719E+03</rscale>
<asrwt>0</asrwt>
<pdfrwt beam="1">  1        2 0.15628278E+00 0.44804719E+03</pdfrwt>
<pdfrwt beam="2">  1       -2 0.31176171E-01 0.44804719E+03</pdfrwt>
<totfact> 0.24198348E+02</totfact>
</mgrwt>
</event>
<event>
 6    1  0.9205235E-004  0.4192952E+03  0.7818608E-02  0.1037296E+00
         -3   -1    0    0    0  501 -0.00000000000E+00  0.00000000000E+00  0.33019117334E+03  0.33019117334E+03  0.00000000000E+00 0. -1.
          3   -1    0    0  502    0  0.00000000000E+00 -0.00000000000E+00 -0.64232692426E+03  0.64232692426E+03  0.00000000000E+00 0.  1.
    9000007    2    1    2  502    0 -0.32418412090E+02  0.12142498833E+03  0.45046504251E+02  0.42172399392E+03  0.40003369642E+03 0.  0.
    9000005    1    3    3    0    0 -0.22232242757E+01  0.26680130724E+03  0.87501683793E+00  0.26681387880E+03  0.99999687468E+00 0.  0.
          4    1    3    3  502    0 -0.30195187814E+02 -0.14537631891E+03  0.44171487413E+02  0.15491011512E+03  0.00000000000E+00 0.  1.
   -9000007    1    1    2    0  501  0.32418412090E+02 -0.12142498833E+03 -0.35718225518E+03  0.55079410368E+03  0.40000000000E+03 0.  1.
<mgrwt>
<rscale>  2 0.41929519E+03</rscale>
<asrwt>0</asrwt>
<pdfrwt beam="1">  1        3 0.98819526E-01 0.41929519E+03</pdfrwt>
<pdfrwt beam="2">  1       -3 0.50798643E-01 0.41929519E+03</pdfrwt>
<totfact> 0.89962651E+00</totfact>
</mgrwt>
</event>
<event>
 6    1  0.9205235E-004  0.4221164E+03  0.7818608E-02  0.1036380E+00
          2   -1    0    0  502    0  0.00000000000E+00  0.00000000000E+00  0.31466430847E+03  0.31466430847E+03  0.00000000000E+00 0.  1.
         -2   -1    0    0    0  501 -0.00000000000E+00 -0.00000000000E+00 -0.57117601277E+03  0.57117601277E+03  0.00000000000E+00 0. -1.
    9000007    2    1    2  502    0  0.85630659189E+01  0.13274236280E+03 -0.16951139150E+03  0.45541853345E+03  0.40122072202E+03 0.  0.
    9000005    1    3    3    0    0 -0.21677056754E+02  0.14158962244E+03 -0.29398155166E+03  0.32702242840E+03  0.99999687468E+00 0.  0.
          4    1    3    3  502    0  0.30240122673E+02 -0.88472596355E+01  0.12447016015E+03  0.12839610505E+03  0.00000000000E+00 0.  1.
   -9000007    1    1    2    0  501 -0.85630659189E+01 -0.13274236280E+03 -0.87000312789E+02  0.43042178779E+03  0.40000000000E+03 0.  1.
<mgrwt>
<rscale>  2 0.42211636E+03</rscale>
<asrwt>0</asrwt>
<pdfrwt beam="1">  1        2 0.48409894E-01 0.42211636E+03</pdfrwt>
<pdfrwt beam="2">  1       -2 0.87873233E-01 0.42211636E+03</pdfrwt>
<totfact> 0.11940598E+02</totfact>
</mgrwt>
</event>
<event>
 6    1  0.9205235E-004  0.4327022E+03  0.7818608E-02  0.1033010E+00
          2   -1    0    0  502    0  0.00000000000E+00  0.00000000000E+00  0.29802882499E+03  0.29802882499E+03  0.00000000000E+00 0. -1.
         -2   -1    0    0    0  501 -0.00000000000E+00 -0.00000000000E+00 -0.10318559979E+04  0.10318559979E+04  0.00000000000E+00 0.  1.
    9000007    2    1    2  502    0  0.83303165360E+02 -0.14241044761E+03  0.48955126253E+02  0.43547536362E+03  0.40002754278E+03 0.  0.
    9000005    1    3    3    0    0 -0.35674792612E+02 -0.65711964044E+02  0.20890274863E+03  0.22188310307E+03  0.99999687468E+00 0.  0.
          4    1    3    3  502    0  0.11897795797E+03 -0.76698483561E+02 -0.15994762238E+03  0.21359226055E+03  0.00000000000E+00 0.  1.
   -9000007    1    1    2    0  501 -0.83303165360E+02  0.14241044761E+03 -0.78278229915E+03  0.89440945925E+03  0.40000000000E+03 0.  1.
<mgrwt>
<rscale>  2 0.43270217E+03</rscale>
<asrwt>0</asrwt>
<pdfrwt beam="1">  1        2 0.45850589E-01 0.43270217E+03</pdfrwt>
<pdfrwt beam="2">  1       -2 0.15874708E+00 0.43270217E+03</pdfrwt>
<totfact> 0.29670539E+01</totfact>
</mgrwt>
</event>
<event>
 6    1  0.9205235E-004  0.4086433E+03  0.7818608E-02  0.1040827E+00
         -2   -1    0    0    0  501 -0.00000000000E+00  0.00000000000E+00  0.75009873738E+03  0.75009873738E+03  0.00000000000E+00 0. -1.
          2   -1    0    0  502    0  0.00000000000E+00 -0.00000000000E+00 -0.26503041878E+03  0.26503041878E+03  0.00000000000E+00 0.  1.
    9000007    2    1    2  502    0  0.15334597919E+01 -0.84127429056E+02  0.44551044131E+03  0.60446554507E+03  0.39977401872E+03 0.  0.
    9000005    1    3    3    0    0  0.11471505279E+03  0.11736074366E+03  0.26292127438E+03  0.30993819385E+03  0.99999687468E+00 0.  0.
          4    1    3    3  502    0 -0.11318159300E+03 -0.20148817272E+03  0.18258916693E+03  0.29452735122E+03  0.00000000000E+00 0.  1.
   -9000007    1    1    2    0  501 -0.15334597919E+01  0.84127429056E+02  0.39557877294E+02  0.41066361109E+03  0.40000000000E+03 0.  1.
<mgrwt>
<rscale>  2 0.40864335E+03</rscale>
<asrwt>0</asrwt>
<pdfrwt beam="1">  1        2 0.40773911E-01 0.40864335E+03</pdfrwt>
<pdfrwt beam="2">  1       -2 0.11539981E+00 0.40864335E+03</pdfrwt>
<totfact> 0.76030746E+01</totfact>
</mgrwt>
</event>
<event>
 6    1  0.9205235E-004  0.5053716E+03  0.7818608E-02  0.1012386E+00
          2   -1    0    0  502    0  0.00000000000E+00  0.00000000000E+00  0.32532481643E+03  0.32532481643E+03  0.00000000000E+00 0.  1.
         -2   -1    0    0    0  501 -0.00000000000E+00 -0.00000000000E+00 -0.86166955869E+03  0.86166955869E+03  0.00000000000E+00 0. -1.
    9000007    2    1    2  502    0  0.30941019784E+03 -0.11986923767E+01 -0.44497398758E+03  0.67310263341E+03  0.39916061691E+03 0.  0.
    9000005    1    3    3    0    0 -0.68137204678E+02 -0.90287009075E+01 -0.22678118960E+03  0.23697025985E+03  0.99999687468E+00 0.  0.
          4    1    3    3  502    0  0.37754740252E+03  0.78300085308E+01 -0.21819279798E+03  0.43613237357E+03  0.00000000000E+00 0.  1.
   -9000007    1    1    2    0  501 -0.30941019784E+03  0.11986923767E+01 -0.91370754678E+02  0.51389174171E+03  0.40000000000E+03 0. -1.
<mgrwt>
<rscale>  2 0.50537163E+03</rscale>
<asrwt>0</asrwt>
<pdfrwt beam="1">  1        2 0.50049971E-01 0.50537163E+03</pdfrwt>
<pdfrwt beam="2">  1       -2 0.13256455E+00 0.50537163E+03</pdfrwt>
<totfact> 0.42692867E+01</totfact>
</mgrwt>
</event>
<event>
 6    1  0.9205235E-004  0.9805254E+03  0.7818608E-02  0.9330166E-01
         -2   -1    0    0    0  501 -0.00000000000E+00  0.00000000000E+00  0.56376410230E+03  0.56376410230E+03  0.00000000000E+00 0. -1.
          2   -1    0    0  502    0  0.00000000000E+00 -0.00000000000E+00 -0.27603686439E+04  0.27603686439E+04  0.00000000000E+00 0.  1.
    9000007    2    1    2  502    0 -0.61762164489E+03 -0.64791221200E+03 -0.70848906215E+02  0.98317487556E+03  0.40045791004E+03 0.  0.
    9000005    1    3    3    0    0 -0.48812817738E+03 -0.53918629233E+03  0.11000524705E+03  0.73559032739E+03  0.99999687468E+00 0.  0.
          4    1    3    3  502    0 -0.12949346751E+03 -0.10872591968E+03 -0.18085415326E+03  0.24758454816E+03  0.00000000000E+00 0.  1.
   -9000007    1    1    2    0  501  0.61762164489E+03  0.64791221200E+03 -0.21257556354E+04  0.23409578706E+04  0.40000000000E+03 0.  1.
<mgrwt>
<rscale>  2 0.98052536E+03</rscale>
<asrwt>0</asrwt>
<pdfrwt beam="1">  1        2 0.42467211E+00 0.98052536E+03</pdfrwt>
<pdfrwt beam="2">  1       -2 0.86732937E-01 0.98052536E+03</pdfrwt>
<totfact> 0.28619155E+00</totfact>
</mgrwt>
</event>
<event>
 6    1  0.9205235E-004  0.4958181E+03  0.7818608E-02  0.1014876E+00
          2   -1    0    0  502    0  0.00000000000E+00  0.00000000000E+00  0.31009919040E+03  0.31009919040E+03  0.00000000000E+00 0. -1.
         -2   -1    0    0    0  501 -0.00000000000E+00 -0.00000000000E+00 -0.80203123008E+03  0.80203123008E+03  0.00000000000E+00 0.  1.
    9000007    2    1    2  502    0  0.29129292203E+03 -0.31781940456E+02 -0.30572485212E+03  0.58247508456E+03  0.39993484565E+03 0.  0.
    9000005    1    3    3    0    0  0.38058748708E+03 -0.63130869547E+02 -0.18161709004E+03  0.42640134779E+03  0.99999687468E+00 0.  0.
          4    1    3    3  502    0 -0.89294565042E+02  0.31348929091E+02 -0.12410776208E+03  0.15607373677E+03  0.00000000000E+00 0.  1.
   -9000007    1    1    2    0  501 -0.29129292203E+03  0.31781940456E+02 -0.18620718756E+03  0.52965533592E+03  0.40000000000E+03 0. -1.
<mgrwt>
<rscale>  2 0.49581811E+03</rscale>
<asrwt>0</asrwt>
<pdfrwt beam="1">  1        2 0.47707568E-01 0.49581811E+03</pdfrwt>
<pdfrwt beam="2">  1       -2 0.12338942E+00 0.49581811E+03</pdfrwt>
<totfact> 0.53904153E+01</totfact>
</mgrwt>
</event>
<event>
 6    1  0.9205235E-004  0.5908992E+03  0.7818608E-02  0.9924469E-01
         -2   -1    0    0    0  501 -0.00000000000E+00  0.00000000000E+00  0.38650486673E+03  0.38650486673E+03  0.00000000000E+00 0.  1.
          2   -1    0    0  502    0  0.00000000000E+00 -0.00000000000E+00 -0.90377364471E+03  0.90377364471E+03  0.00000000000E+00 0. -1.
    9000007    2    1    2  502    0  0.87523616392E+02 -0.42605777942E+03 -0.27203932142E+03  0.65049487520E+03  0.39994071489E+03 0.  0.
    9000005    1    3    3    0    0  0.11751182848E+03 -0.62061851243E+02 -0.25178349196E+03  0.28470446086E+03  0.99999687468E+00 0.  0.
          4    1    3    3  502    0 -0.29988212085E+02 -0.36399592818E+03 -0.20255829454E+02  0.36579041434E+03  0.00000000000E+00 0.  1.
   -9000007    1    1    2    0  501 -0.87523616392E+02  0.42605777942E+03 -0.24522945656E+03  0.63978363624E+03  0.40000000000E+03 0.  1.
<mgrwt>
<rscale>  2 0.59089923E+03</rscale>
<asrwt>0</asrwt>
<pdfrwt beam="1">  1        2 0.13904210E+00 0.59089923E+03</pdfrwt>
<pdfrwt beam="2">  1       -2 0.59462287E-01 0.59089923E+03</pdfrwt>
<totfact> 0.79043153E+01</totfact>
</mgrwt>
</event>
<event>
 6    1  0.9205235E-004  0.4432076E+03  0.7818608E-02  0.1029767E+00
         -2   -1    0    0    0  501 -0.00000000000E+00  0.00000000000E+00  0.18101311339E+03  0.18101311339E+03  0.00000000000E+00 0.  1.
          2   -1    0    0  502    0  0.00000000000E+00 -0.00000000000E+00 -0.11129755973E+04  0.11129755973E+04  0.00000000000E+00 0. -1.
    9000007    2    1    2  502    0  0.19084961559E+03 -0.80478310923E+01 -0.56815134868E+03  0.72053698169E+03  0.39986153057E+03 0.  0.
    9000005    1    3    3    0    0  0.21721652244E+02 -0.14341245757E+03 -0.45206287667E+03  0.47476394936E+03  0.99999687468E+00 0.  0.
          4    1    3    3  502    0  0.16912796335E+03  0.13536462648E+03 -0.11608847201E+03  0.24577303233E+03  0.00000000000E+00 0.  1.
   -9000007    1    1    2    0  501 -0.19084961559E+03  0.80478310923E+01 -0.36381113520E+03  0.57345172896E+03  0.40000000000E+03 0. -1.
<mgrwt>
<rscale>  2 0.44320758E+03</rscale>
<asrwt>0</asrwt>
<pdfrwt beam="1">  1        2 0.17122702E+00 0.44320758E+03</pdfrwt>
<pdfrwt beam="2">  1       -2 0.27848171E-01 0.44320758E+03</pdfrwt>
<totfact> 0.25985818E+02</totfact>
</mgrwt>
</event>
<event>
 6    1  0.9205235E-004  0.4631216E+03  0.7818608E-02  0.1023880E+00
         -1   -1    0    0    0  501 -0.00000000000E+00  0.00000000000E+00  0.26733271445E+03  0.26733271445E+03  0.00000000000E+00 0. -1.
          1   -1    0    0  502    0  0.00000000000E+00 -0.00000000000E+00 -0.80725887027E+03  0.80725887027E+03  0.00000000000E+00 0.  1.
    9000007    2    1    2  502    0  0.11527000506E+03  0.20314764615E+03 -0.22781412815E+03  0.51604878599E+03  0.39981362200E+03 0.  0.
    9000005    1    3    3    0    0  0.24499211609E+03  0.72038162572E+02 -0.21023892268E+03  0.33077490596E+03  0.99999687468E+00 0.  0.
          4    1    3    3  502    0 -0.12972211103E+03  0.13110948358E+03 -0.17575205469E+02  0.18527388003E+03  0.00000000000E+00 0.  1.
   -9000007    1    1    2    0  501 -0.11527000506E+03 -0.20314764615E+03 -0.31211202767E+03  0.55854279874E+03  0.40000000000E+03 0.  1.
<mgrwt>
<rscale>  2 0.46312158E+03</rscale>
<asrwt>0</asrwt>
<pdfrwt beam="1">  1        1 0.12419367E+00 0.46312158E+03</pdfrwt>
<pdfrwt beam="2">  1       -1 0.41128111E-01 0.46312158E+03</pdfrwt>
<totfact> 0.13144498E+02</totfact>
</mgrwt>
</event>
<event>
 6    1  0.9205235E-004  0.4393637E+03  0.7818608E-02  0.1030942E+00
         -1   -1    0    0    0  501 -0.00000000000E+00  0.00000000000E+00  0.27310192682E+03  0.27310192682E+03  0.00000000000E+00 0. -1.
          1   -1    0    0  502    0  0.00000000000E+00 -0.00000000000E+00 -0.70717912188E+03  0.70717912188E+03  0.00000000000E+00 0.  1.
    9000007    2    1    2  502    0  0.52848185193E+02  0.17343089371E+03 -0.20646534741E+03  0.48563131529E+03  0.40042306269E+03 0.  0.
    9000005    1    3    3    0    0 -0.24668129096E+02  0.15508353661E+03  0.88391373472E+02  0.18020392565E+03  0.99999687468E+00 0.  0.
          4    1    3    3  502    0  0.77516314290E+02  0.18347357096E+02 -0.29485672088E+03  0.30542738964E+03  0.00000000000E+00 0.  1.
   -9000007    1    1    2    0  501 -0.52848185193E+02 -0.17343089371E+03 -0.22761184766E+03  0.49464973341E+03  0.40000000000E+03 0.  1.
<mgrwt>
<rscale>  2 0.43936368E+03</rscale>
<asrwt>0</asrwt>
<pdfrwt beam="1">  1        1 0.10879679E+00 0.43936368E+03</pdfrwt>
<pdfrwt beam="2">  1       -1 0.42015681E-01 0.43936368E+03</pdfrwt>
<totfact> 0.15532242E+02</totfact>
</mgrwt>
</event>
<event>
 6    1  0.9205235E-004  0.5249539E+03  0.7818608E-02  0.1007463E+00
          1   -1    0    0  502    0  0.00000000000E+00  0.00000000000E+00  0.11148207515E+04  0.11148207515E+04  0.00000000000E+00 0. -1.
         -1   -1    0    0    0  501 -0.00000000000E+00 -0.00000000000E+00 -0.38311168035E+03  0.38311168035E+03  0.00000000000E+00 0.  1.
    9000007    2    1    2  502    0 -0.15478188240E+03 -0.30281256034E+03 -0.80284082066E+02  0.53098581558E+03  0.39980936045E+03 0.  0.
    9000005    1    3    3    0    0 -0.89286136596E+02 -0.10785314499E+02  0.13507050629E+03  0.16227562620E+03  0.99999687468E+00 0.  0.
          4    1    3    3  502    0 -0.65495745801E+02 -0.29202724584E+03 -0.21535458835E+03  0.36871018938E+03  0.00000000000E+00 0.  1.
   -9000007    1    1    2    0  501  0.15478188240E+03  0.30281256034E+03  0.81199315317E+03  0.96694661622E+03  0.40000000000E+03 0. -1.
<mgrwt>
<rscale>  2 0.52495393E+03</rscale>
<asrwt>0</asrwt>
<pdfrwt beam="1">  1        1 0.17151088E+00 0.52495393E+03</pdfrwt>
<pdfrwt beam="2">  1       -1 0.58940259E-01 0.52495393E+03</pdfrwt>
<totfact> 0.38114584E+01</totfact>
</mgrwt>
</event>
<event>
 6    1  0.9205235E-004  0.4680930E+03  0.7818608E-02  0.1022460E+00
         -1   -1    0    0    0  501 -0.00000000000E+00  0.00000000000E+00  0.11858686687E+03  0.11858686687E+03  0.00000000000E+00 0.  1.
          1   -1    0    0  502    0  0.00000000000E+00 -0.00000000000E+00 -0.18580892695E+04  0.18580892695E+04  0.00000000000E+00 0. -1.
    9000007    2    1    2  502    0  0.20745030682E+03 -0.12745553132E+03 -0.94337516320E+03  0.10530424841E+04  0.39957631622E+03 0.  0.
    9000005    1    3    3    0    0 -0.13543608641E+02 -0.21228345140E+03 -0.59476746017E+03  0.63166211279E+03  0.99999687468E+00 0.  0.
          4    1    3    3  502    0  0.22099391546E+03  0.84827920079E+02 -0.34860770304E+03  0.42138037129E+03  0.00000000000E+00 0.  1.
   -9000007    1    1    2    0  501 -0.20745030682E+03  0.12745553132E+03 -0.79612723943E+03  0.92363365228E+03  0.40000000000E+03 0. -1.
<mgrwt>
<rscale>  2 0.46809304E+03</rscale>
<asrwt>0</asrwt>
<pdfrwt beam="1">  1        1 0.28585986E+00 0.46809304E+03</pdfrwt>
<pdfrwt beam="2">  1       -1 0.18244135E-01 0.46809304E+03</pdfrwt>
<totfact> 0.94434704E+01</totfact>
</mgrwt>
</event>
<event>
 6    1  0.9205235E-004  0.4192465E+03  0.7818608E-02  0.1037312E+00
         -2   -1    0    0    0  501 -0.00000000000E+00  0.00000000000E+00  0.13209456421E+03  0.13209456421E+03  0.00000000000E+00 0. -1.
          2   -1    0    0  502    0  0.00000000000E+00 -0.00000000000E+00 -0.13363150180E+04  0.13363150180E+04  0.00000000000E+00 0.  1.
    9000007    2    1    2  502    0  0.93697006217E+02 -0.83769881211E+02 -0.64999281138E+03  0.77345289177E+03  0.39992774217E+03 0.  0.
    9000005    1    3    3    0    0 -0.12584405913E+03 -0.91673147300E+02 -0.11043388323E+03  0.19088566136E+03  0.99999687468E+00 0.  0.
          4    1    3    3  502    0  0.21954106535E+03  0.79032660895E+01 -0.53955892815E+03  0.58256723040E+03  0.00000000000E+00 0.  1.
   -9000007    1    1    2    0  501 -0.93697006217E+02  0.83769881211E+02 -0.55422764238E+03  0.69495669041E+03  0.40000000000E+03 0. -1.
<mgrwt>
<rscale>  2 0.41924649E+03</rscale>
<asrwt>0</asrwt>
<pdfrwt beam="1">  1        2 0.20558693E+00 0.41924649E+03</pdfrwt>
<pdfrwt beam="2">  1       -2 0.20322241E-01 0.41924649E+03</pdfrwt>
<totfact> 0.33863056E+02</totfact>
</mgrwt>
</event>
<event>
 6    1  0.9205235E-004  0.6300845E+03  0.7818608E-02  0.9844884E-01
         -2   -1    0    0    0  501 -0.00000000000E+00  0.00000000000E+00  0.61443336449E+03  0.61443336449E+03  0.00000000000E+00 0. -1.
          2   -1    0    0  502    0  0.00000000000E+00 -0.00000000000E+00 -0.65902223126E+03  0.65902223126E+03  0.00000000000E+00 0.  1.
    9000007    2    1    2  502    0 -0.25571275945E+03 -0.41438964417E+03 -0.11133345255E+03  0.63976589860E+03  0.39974676335E+03 0.  0.
    9000005    1    3    3    0    0 -0.28557171273E+03 -0.15455002399E+03  0.55665089814E+02  0.32944880520E+03  0.99999687468E+00 0.  0.
          4    1    3    3  502    0  0.29858953280E+02 -0.25983962018E+03 -0.16699854236E+03  0.31031709340E+03  0.00000000000E+00 0.  1.
   -9000007    1    1    2    0  501  0.25571275945E+03  0.41438964417E+03  0.66744585780E+02  0.63368969715E+03  0.40000000000E+03 0. -1.
<mgrwt>
<rscale>  2 0.63008453E+03</rscale>
<asrwt>0</asrwt>
<pdfrwt beam="1">  1        2 0.10138804E+00 0.63008453E+03</pdfrwt>
<pdfrwt beam="2">  1       -2 0.94528210E-01 0.63008453E+03</pdfrwt>
<totfact> 0.42634708E+01</totfact>
</mgrwt>
</event>
<event>
 6    1  0.9205235E-004  0.5002281E+03  0.7818608E-02  0.1013719E+00
          2   -1    0    0  502    0  0.00000000000E+00  0.00000000000E+00  0.22071997280E+03  0.22071997280E+03  0.00000000000E+00 0. -1.
         -2   -1    0    0    0  501 -0.00000000000E+00 -0.00000000000E+00 -0.12870902416E+04  0.12870902416E+04  0.00000000000E+00 0.  1.
    9000007    2    1    2  502    0  0.25401827580E+03  0.16022422757E+03 -0.79348454695E+03  0.93801752866E+03  0.40007758034E+03 0.  0.
    9000005    1    3    3    0    0  0.27115579018E+02 -0.12212084202E+03 -0.12023124125E+03  0.17350880683E+03  0.99999687468E+00 0.  0.
          4    1    3    3  502    0  0.22690269679E+03  0.28234506959E+03 -0.67325330570E+03  0.76450872183E+03  0.00000000000E+00 0.  1.
   -9000007    1    1    2    0  501 -0.25401827580E+03 -0.16022422757E+03 -0.27288572186E+03  0.56979268576E+03  0.40000000000E+03 0. -1.
<mgrwt>
<rscale>  2 0.50022807E+03</rscale>
<asrwt>0</asrwt>
<pdfrwt beam="1">  1        2 0.33956919E-01 0.50022807E+03</pdfrwt>
<pdfrwt beam="2">  1       -2 0.19801388E+00 0.50022807E+03</pdfrwt>
<totfact> 0.22074429E+01</totfact>
</mgrwt>
</event>
<event>
 6    1  0.9205235E-004  0.4056492E+03  0.7818608E-02  0.1041841E+00
          4   -1    0    0  502    0  0.00000000000E+00  0.00000000000E+00  0.27063754113E+03  0.27063754113E+03  0.00000000000E+00 0. -1.
         -4   -1    0    0    0  501 -0.00000000000E+00 -0.00000000000E+00 -0.61222357810E+03  0.61222357810E+03  0.00000000000E+00 0.  1.
    9000007    2    1    2  502    0 -0.53993385709E+02  0.70460017290E+01 -0.20815813908E+03  0.45769299275E+03  0.40396550955E+03 0.  0.
    9000005    1    3    3    0    0 -0.11531785140E+03  0.11003171613E+03 -0.27691408120E+03  0.31951149239E+03  0.99999687468E+00 0.  0.
          4    1    3    3  502    0  0.61324465693E+02 -0.10298571441E+03  0.68755942121E+02  0.13818150036E+03  0.00000000000E+00 0.  1.
   -9000007    1    1    2    0  501  0.53993385709E+02 -0.70460017290E+01 -0.13342789789E+03  0.42516812648E+03  0.40000000000E+03 0. -1.
<mgrwt>
<rscale>  2 0.40564920E+03</rscale>
<asrwt>0</asrwt>
<pdfrwt beam="1">  1        4 0.41636545E-01 0.40564920E+03</pdfrwt>
<pdfrwt beam="2">  1       -4 0.94188243E-01 0.40564920E+03</pdfrwt>
<totfact> 0.10298581E+01</totfact>
</mgrwt>
</event>
<event>
 6    1  0.9205235E-004  0.5319078E+03  0.7818608E-02  0.1005770E+00
          1   -1    0    0  502    0  0.00000000000E+00  0.00000000000E+00  0.10182564334E+04  0.10182564334E+04  0.00000000000E+00 0.  1.
         -1   -1    0    0    0  501 -0.00000000000E+00 -0.00000000000E+00 -0.29439236742E+03  0.29439236742E+03  0.00000000000E+00 0. -1.
    9000007    2    1    2  502    0 -0.33492929674E+03  0.10183270160E+03  0.20659668674E+03  0.57095272118E+03  0.40094548996E+03 0.  0.
    9000005    1    3    3    0    0 -0.27665305253E+03  0.10775161053E+03 -0.55801265505E+02  0.30209618050E+03  0.99999687468E+00 0.  0.
          4    1    3    3  502    0 -0.58276244209E+02 -0.59189089320E+01  0.26239795225E+03  0.26885654068E+03  0.00000000000E+00 0.  1.
   -9000007    1    1    2    0  501  0.33492929674E+03 -0.10183270160E+03  0.51726737921E+03  0.74169607962E+03  0.40000000000E+03 0. -1.
<mgrwt>
<rscale>  2 0.53190781E+03</rscale>
<asrwt>0</asrwt>
<pdfrwt beam="1">  1        1 0.15665483E+00 0.53190781E+03</pdfrwt>
<pdfrwt beam="2">  1       -1 0.45291134E-01 0.53190781E+03</pdfrwt>
<totfact> 0.74072314E+01</totfact>
</mgrwt>
</event>
<event>
 6    1  0.9205235E-004  0.4131623E+03  0.7818608E-02  0.1039315E+00
          1   -1    0    0  502    0  0.00000000000E+00  0.00000000000E+00  0.30326279199E+03  0.30326279199E+03  0.00000000000E+00 0.  1.
         -1   -1    0    0    0  501 -0.00000000000E+00 -0.00000000000E+00 -0.95074680063E+03  0.95074680063E+03  0.00000000000E+00 0. -1.
    9000007    2    1    2  502    0 -0.99421693965E+02 -0.29999354936E+02  0.76778520216E+02  0.42013859226E+03  0.39979602426E+03 0.  0.
    9000005    1    3    3    0    0  0.52866640176E+02  0.14855280894E+03 -0.32931449471E+02  0.16108475733E+03  0.99999687468E+00 0.  0.
          4    1    3    3  502    0 -0.15228833414E+03 -0.17855216388E+03  0.10970996969E+03  0.25905383492E+03  0.00000000000E+00 0.  1.
   -9000007    1    1    2    0  501  0.99421693965E+02  0.29999354936E+02 -0.72426252886E+03  0.83387100036E+03  0.40000000000E+03 0. -1.
<mgrwt>
<rscale>  2 0.41316225E+03</rscale>
<asrwt>0</asrwt>
<pdfrwt beam="1">  1        1 0.46655814E-01 0.41316225E+03</pdfrwt>
<pdfrwt beam="2">  1       -1 0.14626874E+00 0.41316225E+03</pdfrwt>
<totfact> 0.34328414E+01</totfact>
</mgrwt>
</event>
<event>
 6    1  0.9205235E-004  0.4652011E+03  0.7818608E-02  0.1023283E+00
          4   -1    0    0  502    0  0.00000000000E+00  0.00000000000E+00  0.19324692428E+03  0.19324692428E+03  0.00000000000E+00 0.  1.
         -4   -1    0    0    0  501 -0.00000000000E+00 -0.00000000000E+00 -0.11391832382E+04  0.11391832382E+04  0.00000000000E+00 0. -1.
    9000007    2    1    2  502    0 -0.10661438516E+03 -0.21222855087E+03 -0.38623460669E+03  0.60464339015E+03  0.40001109099E+03 0.  0.
    9000005    1    3    3    0    0 -0.67738971218E+02 -0.43020063859E+02 -0.42014941447E+03  0.42774504625E+03  0.99999687468E+00 0.  0.
          4    1    3    3  502    0 -0.38875413946E+02 -0.16920848701E+03  0.33914807783E+02  0.17689834390E+03  0.00000000000E+00 0.  1.
   -9000007    1    1    2    0  501  0.10661438516E+03  0.21222855087E+03 -0.55970170727E+03  0.72778677238E+03  0.40000000000E+03 0. -1.
<mgrwt>
<rscale>  2 0.46520105E+03</rscale>
<asrwt>0</asrwt>
<pdfrwt beam="1">  1        4 0.29730296E-01 0.46520105E+03</pdfrwt>
<pdfrwt beam="2">  1       -4 0.17525896E+00 0.46520105E+03</pdfrwt>
<totfact> 0.41804907E+00</totfact>
</mgrwt>
</event>
<event>
 6    1  0.9205235E-004  0.6782575E+03  0.7818608E-02  0.9755155E-01
         -1   -1    0    0    0  501 -0.00000000000E+00  0.00000000000E+00  0.17631704510E+04  0.17631704510E+04  0.00000000000E+00 0.  1.
          1   -1    0    0  502    0  0.00000000000E+00 -0.00000000000E+00 -0.27221337325E+03  0.27221337325E+03  0.00000000000E+00 0. -1.
    9000007    2    1    2  502    0 -0.10914242295E+02 -0.54777114211E+03  0.95272705134E+03  0.11694369978E+04  0.39965198954E+03 0.  0.
    9000005    1    3    3    0    0  0.11411241657E+03 -0.14873750589E+03  0.84249735597E+02  0.20553225347E+03  0.99999687468E+00 0.  0.
          4    1    3    3  502    0 -0.12502665886E+03 -0.39903363622E+03  0.86847731575E+03  0.96390474438E+03  0.00000000000E+00 0.  1.
   -9000007    1    1    2    0  501  0.10914242295E+02  0.54777114211E+03  0.53823002639E+03  0.86594682638E+03  0.40000000000E+03 0. -1.
<mgrwt>
<rscale>  2 0.67825746E+03</rscale>
<asrwt>0</asrwt>
<pdfrwt beam="1">  1        1 0.41878982E-01 0.67825746E+03</pdfrwt>
<pdfrwt beam="2">  1       -1 0.27125699E+00 0.67825746E+03</pdfrwt>
<totfact> 0.53103275E+00</totfact>
</mgrwt>
</event>
<event>
 6    1  0.9205235E-004  0.4905072E+03  0.7818608E-02  0.1016287E+00
         -1   -1    0    0    0  501 -0.00000000000E+00  0.00000000000E+00  0.67822115047E+03  0.67822115047E+03  0.00000000000E+00 0. -1.
          1   -1    0    0  502    0  0.00000000000E+00 -0.00000000000E+00 -0.46489818544E+03  0.46489818544E+03  0.00000000000E+00 0.  1.
    9000007    2    1    2  502    0 -0.58275370114E+02 -0.27810544157E+03  0.38484972741E+03  0.62335007402E+03  0.39964652720E+03 0.  0.
    9000005    1    3    3    0    0  0.13622835011E+03 -0.14543275461E+03  0.36026011951E+02  0.20250363705E+03  0.99999687468E+00 0.  0.
          4    1    3    3  502    0 -0.19450372022E+03 -0.13267268696E+03  0.34882371546E+03  0.42084643697E+03  0.00000000000E+00 0.  1.
   -9000007    1    1    2    0  501  0.58275370114E+02  0.27810544157E+03 -0.17152676238E+03  0.51976926189E+03  0.40000000000E+03 0.  1.
<mgrwt>
<rscale>  2 0.49050717E+03</rscale>
<asrwt>0</asrwt>
<pdfrwt beam="1">  1        1 0.71522798E-01 0.49050717E+03</pdfrwt>
<pdfrwt beam="2">  1       -1 0.10434172E+00 0.49050717E+03</pdfrwt>
<totfact> 0.44454644E+01</totfact>
</mgrwt>
</event>
<event>
 6    1  0.9205235E-004  0.4046025E+03  0.7818608E-02  0.1042198E+00
          1   -1    0    0  502    0  0.00000000000E+00  0.00000000000E+00  0.17144055681E+03  0.17144055681E+03  0.00000000000E+00 0. -1.
         -1   -1    0    0    0  501 -0.00000000000E+00 -0.00000000000E+00 -0.96820342692E+03  0.96820342692E+03  0.00000000000E+00 0.  1.
    9000007    2    1    2  502    0 -0.38040377236E+02  0.46106894210E+02 -0.46541067444E+03  0.61679869728E+03  0.40032564381E+03 0.  0.
    9000005    1    3    3    0    0  0.15111170870E+03  0.11823070073E+03 -0.15716334993E+03  0.24802130081E+03  0.99999687468E+00 0.  0.
          4    1    3    3  502    0 -0.18915208594E+03 -0.72123806515E+02 -0.30824732450E+03  0.36877739646E+03  0.00000000000E+00 0.  1.
   -9000007    1    1    2    0  501  0.38040377236E+02 -0.46106894210E+02 -0.33135219567E+03  0.52284528646E+03  0.40000000000E+03 0.  1.
<mgrwt>
<rscale>  2 0.40460249E+03</rscale>
<asrwt>0</asrwt>
<pdfrwt beam="1">  1        1 0.26375471E-01 0.40460249E+03</pdfrwt>
<pdfrwt beam="2">  1       -1 0.14895437E+00 0.40460249E+03</pdfrwt>
<totfact> 0.67943751E+01</totfact>
</mgrwt>
</event>
<event>
 6    1  0.9205235E-004  0.4642471E+03  0.7818608E-02  0.1023557E+00
         -2   -1    0    0    0  501 -0.00000000000E+00  0.00000000000E+00  0.15491392853E+03  0.15491392853E+03  0.00000000000E+00 0. -1.
          2   -1    0    0  502    0  0.00000000000E+00 -0.00000000000E+00 -0.14066596319E+04  0.14066596319E+04  0.00000000000E+00 0.  1.
    9000007    2    1    2  502    0 -0.17445030699E+02 -0.23456088037E+03 -0.70786008447E+03  0.84663670858E+03  0.40050553233E+03 0.  0.
    9000005    1    3    3    0    0  0.18824929242E+03 -0.93132182914E+02 -0.38462291444E+03  0.43823188599E+03  0.99999687468E+00 0.  0.
          4    1    3    3  502    0 -0.20569432312E+03 -0.14142869746E+03 -0.32323717003E+03  0.40840482259E+03  0.00000000000E+00 0.  1.
   -9000007    1    1    2    0  501  0.17445030699E+02  0.23456088037E+03 -0.54388561894E+03  0.71493685189E+03  0.40000000000E+03 0. -1.
<mgrwt>
<rscale>  2 0.46424711E+03</rscale>
<asrwt>0</asrwt>
<pdfrwt beam="1">  1        2 0.21640919E+00 0.46424711E+03</pdfrwt>
<pdfrwt beam="2">  1       -2 0.23832911E-01 0.46424711E+03</pdfrwt>
<totfact> 0.23275454E+02</totfact>
</mgrwt>
</event>
<event>
 6    1  0.9205235E-004  0.4933140E+03  0.7818608E-02  0.1015539E+00
         -2   -1    0    0    0  501 -0.00000000000E+00  0.00000000000E+00  0.26092813764E+03  0.26092813764E+03  0.00000000000E+00 0. -1.
          2   -1    0    0  502    0  0.00000000000E+00 -0.00000000000E+00 -0.11436340309E+04  0.11436340309E+04  0.00000000000E+00 0.  1.
    9000007    2    1    2  502    0  0.44243974321E+02  0.28626743370E+03 -0.13931804380E+03  0.51207571622E+03  0.39862946322E+03 0.  0.
    9000005    1    3    3    0    0  0.53649946557E+01  0.16582002425E+03  0.13244084250E+03  0.21228904909E+03  0.99999687468E+00 0.  0.
          4    1    3    3  502    0  0.38878979665E+02  0.12044740945E+03 -0.27175888630E+03  0.29978666712E+03  0.00000000000E+00 0.  1.
   -9000007    1    1    2    0  501 -0.44243974321E+02 -0.28626743370E+03 -0.74338784941E+03  0.89248645229E+03  0.40000000000E+03 0.  1.
<mgrwt>
<rscale>  2 0.49331398E+03</rscale>
<asrwt>0</asrwt>
<pdfrwt beam="1">  1        2 0.17594370E+00 0.49331398E+03</pdfrwt>
<pdfrwt beam="2">  1       -2 0.40142789E-01 0.49331398E+03</pdfrwt>
<totfact> 0.12481839E+02</totfact>
</mgrwt>
</event>
<event>
 6    1  0.9205235E-004  0.5277370E+03  0.7818608E-02  0.1006782E+00
         -2   -1    0    0    0  501 -0.00000000000E+00  0.00000000000E+00  0.12390681682E+03  0.12390681682E+03  0.00000000000E+00 0. -1.
          2   -1    0    0  502    0  0.00000000000E+00 -0.00000000000E+00 -0.50411453041E+04  0.50411453041E+04  0.00000000000E+00 0.  1.
    9000007    2    1    2  502    0 -0.28753106037E+03 -0.19083360085E+03 -0.43798930806E+04  0.44115060639E+04  0.39853579636E+03 0.  0.
    9000005    1    3    3    0    0 -0.75028977617E+02 -0.20903830735E+03 -0.34638006750E+04  0.34709137814E+04  0.99999687468E+00 0.  0.
          4    1    3    3  502    0 -0.21250208275E+03  0.18204706493E+02 -0.91609240553E+03  0.94059228254E+03  0.00000000000E+00 0.  1.
   -9000007    1    1    2    0  501  0.28753106037E+03  0.19083360085E+03 -0.53734540670E+03  0.75354605698E+03  0.40000000000E+03 0. -1.
<mgrwt>
<rscale>  2 0.52773701E+03</rscale>
<asrwt>0</asrwt>
<pdfrwt beam="1">  1        2 0.77556084E+00 0.52773701E+03</pdfrwt>
<pdfrwt beam="2">  1       -2 0.19062587E-01 0.52773701E+03</pdfrwt>
<totfact> 0.89530352E-01</totfact>
</mgrwt>
</event>
<event>
 6    1  0.9205235E-004  0.6007151E+03  0.7818608E-02  0.9903924E-01
          2   -1    0    0  502    0  0.00000000000E+00  0.00000000000E+00  0.52890551322E+03  0.52890551322E+03  0.00000000000E+00 0.  1.
         -2   -1    0    0    0  501 -0.00000000000E+00 -0.00000000000E+00 -0.75746029605E+03  0.75746029605E+03  0.00000000000E+00 0. -1.
    9000007    2    1    2  502    0  0.22423844327E+02 -0.44767662119E+03  0.88369943026E+02  0.60713207349E+03  0.39985362557E+03 0.  0.
    9000005    1    3    3    0    0 -0.16692022768E+03 -0.13185055305E+03  0.10762687873E+03  0.23839353131E+03  0.99999687468E+00 0.  0.
          4    1    3    3  502    0  0.18934407201E+03 -0.31582606814E+03 -0.19256935702E+02  0.36873854219E+03  0.00000000000E+00 0.  1.
   -9000007    1    1    2    0  501 -0.22423844327E+02  0.44767662119E+03 -0.31692472586E+03  0.67923373578E+03  0.40000000000E+03 0. -1.
<mgrwt>
<rscale>  2 0.60071511E+03</rscale>
<asrwt>0</asrwt>
<pdfrwt beam="1">  1        2 0.81370079E-01 0.60071511E+03</pdfrwt>
<pdfrwt beam="2">  1       -2 0.11653235E+00 0.60071511E+03</pdfrwt>
<totfact> 0.33742811E+01</totfact>
</mgrwt>
</event>
<event>
 6    1  0.9205235E-004  0.5647634E+03  0.7818608E-02  0.9981334E-01
          1   -1    0    0  502    0  0.00000000000E+00  0.00000000000E+00  0.78055768863E+03  0.78055768863E+03  0.00000000000E+00 0.  1.
         -1   -1    0    0    0  501 -0.00000000000E+00 -0.00000000000E+00 -0.41829330204E+03  0.41829330204E+03  0.00000000000E+00 0. -1.
    9000007    2    1    2  502    0 -0.39472319825E+03  0.56192945398E+02  0.90012933061E+02  0.57188615568E+03  0.39998424543E+03 0.  0.
    9000005    1    3    3    0    0 -0.18576005279E+03  0.84216055413E+02 -0.14943569298E+03  0.25284613410E+03  0.99999687468E+00 0.  0.
          4    1    3    3  502    0 -0.20896314546E+03 -0.28023110015E+02  0.23944862604E+03  0.31904002158E+03  0.00000000000E+00 0.  1.
   -9000007    1    1    2    0  501  0.39472319825E+03 -0.56192945398E+02  0.27225145353E+03  0.62696483498E+03  0.40000000000E+03 0.  1.
<mgrwt>
<rscale>  2 0.56476344E+03</rscale>
<asrwt>0</asrwt>
<pdfrwt beam="1">  1        1 0.12008580E+00 0.56476344E+03</pdfrwt>
<pdfrwt beam="2">  1       -1 0.64352816E-01 0.56476344E+03</pdfrwt>
<totfact> 0.58645027E+01</totfact>
</mgrwt>
</event>
<event>
 6    1  0.9205235E-004  0.5886248E+03  0.7818608E-02  0.9929291E-01
          2   -1    0    0  502    0  0.00000000000E+00  0.00000000000E+00  0.29198438426E+03  0.29198438426E+03  0.00000000000E+00 0.  1.
         -2   -1    0    0    0  501 -0.00000000000E+00 -0.00000000000E+00 -0.11907977506E+04  0.11907977506E+04  0.00000000000E+00 0. -1.
    9000007    2    1    2  502    0  0.44830930864E+02  0.42914492965E+03 -0.40577546818E+03  0.71514839926E+03  0.40075967784E+03 0.  0.
    9000005    1    3    3    0    0  0.16007798093E+03  0.33470946345E+03 -0.42585087128E+03  0.56480558554E+03  0.99999687468E+00 0.  0.
          4    1    3    3  502    0 -0.11524705007E+03  0.94435466208E+02  0.20075403097E+02  0.15034281372E+03  0.00000000000E+00 0.  1.
   -9000007    1    1    2    0  501 -0.44830930864E+02 -0.42914492965E+03 -0.49303789816E+03  0.76763373560E+03  0.40000000000E+03 0.  1.
<mgrwt>
<rscale>  2 0.58862485E+03</rscale>
<asrwt>0</asrwt>
<pdfrwt beam="1">  1        2 0.44920673E-01 0.58862485E+03</pdfrwt>
<pdfrwt beam="2">  1       -2 0.18319966E+00 0.58862485E+03</pdfrwt>
<totfact> 0.20092273E+01</totfact>
</mgrwt>
</event>
<event>
 6    1  0.9205235E-004  0.4062007E+03  0.7818608E-02  0.1041654E+00
          2   -1    0    0  502    0  0.00000000000E+00  0.00000000000E+00  0.10688696096E+04  0.10688696096E+04  0.00000000000E+00 0. -1.
         -2   -1    0    0    0  501 -0.00000000000E+00 -0.00000000000E+00 -0.15453810767E+03  0.15453810767E+03  0.00000000000E+00 0.  1.
    9000007    2    1    2  502    0  0.68394695553E+02 -0.11025893292E+02  0.47775003730E+03  0.62725104326E+03  0.40049889942E+03 0.  0.
    9000005    1    3    3    0    0 -0.16095389520E+02 -0.19935894695E+03  0.23203442543E+03  0.30633972297E+03  0.99999687468E+00 0.  0.
          4    1    3    3  502    0  0.84490085073E+02  0.18833305366E+03  0.24571561187E+03  0.32091132029E+03  0.00000000000E+00 0.  1.
   -9000007    1    1    2    0  501 -0.68394695553E+02  0.11025893292E+02  0.43658146465E+03  0.59615667402E+03  0.40000000000E+03 0.  1.
<mgrwt>
<rscale>  2 0.40620065E+03</rscale>
<asrwt>0</asrwt>
<pdfrwt beam="1">  1        2 0.16444147E+00 0.40620065E+03</pdfrwt>
<pdfrwt beam="2">  1       -2 0.23775094E-01 0.40620065E+03</pdfrwt>
<totfact> 0.36808251E+02</totfact>
</mgrwt>
</event>
<event>
 6    1  0.9205235E-004  0.5808709E+03  0.7818608E-02  0.9945907E-01
         -2   -1    0    0    0  501 -0.00000000000E+00  0.00000000000E+00  0.16057717564E+04  0.16057717564E+04  0.00000000000E+00 0. -1.
          2   -1    0    0  502    0  0.00000000000E+00 -0.00000000000E+00 -0.22180721924E+03  0.22180721924E+03  0.00000000000E+00 0.  1.
    9000007    2    1    2  502    0 -0.41818919754E+03 -0.37006233710E+02  0.90282566486E+03  0.10740895725E+04  0.40289274290E+03 0.  0.
    9000005    1    3    3    0    0 -0.29799267695E+02  0.12294961029E+03  0.39661478409E+03  0.41630384334E+03  0.99999687468E+00 0.  0.
          4    1    3    3  502    0 -0.38838992985E+03 -0.15995584400E+03  0.50621088077E+03  0.65778572913E+03  0.00000000000E+00 0.  1.
   -9000007    1    1    2    0  501  0.41818919754E+03  0.37006233710E+02  0.48113887235E+03  0.75348940322E+03  0.40000000000E+03 0.  1.
<mgrwt>
<rscale>  2 0.58087085E+03</rscale>
<asrwt>0</asrwt>
<pdfrwt beam="1">  1        2 0.34124189E-01 0.58087085E+03</pdfrwt>
<pdfrwt beam="2">  1       -2 0.24704180E+00 0.58087085E+03</pdfrwt>
<totfact> 0.10786521E+01</totfact>
</mgrwt>
</event>
<event>
 6    1  0.9205235E-004  0.6462445E+03  0.7818608E-02  0.9813852E-01
          2   -1    0    0  502    0  0.00000000000E+00  0.00000000000E+00  0.18145684353E+04  0.18145684353E+04  0.00000000000E+00 0.  1.
         -2   -1    0    0    0  501 -0.00000000000E+00 -0.00000000000E+00 -0.23152049726E+03  0.23152049726E+03  0.00000000000E+00 0. -1.
    9000007    2    1    2  502    0  0.25887843625E+03 -0.43687580626E+03  0.86985981130E+03  0.10835320153E+04  0.39938330214E+03 0.  0.
    9000005    1    3    3    0    0  0.20539956142E+03 -0.25882324608E+03  0.19530561245E+03  0.38382774104E+03  0.99999687468E+00 0.  0.
          4    1    3    3  502    0  0.53478874836E+02 -0.17805256018E+03  0.67455419886E+03  0.69970427427E+03  0.00000000000E+00 0.  1.
   -9000007    1    1    2    0  501 -0.25887843625E+03  0.43687580626E+03  0.71318812674E+03  0.96255691727E+03  0.40000000000E+03 0. -1.
<mgrwt>
<rscale>  2 0.64624450E+03</rscale>
<asrwt>0</asrwt>
<pdfrwt beam="1">  1        2 0.27916437E+00 0.64624450E+03</pdfrwt>
<pdfrwt beam="2">  1       -2 0.35618539E-01 0.64624450E+03</pdfrwt>
<totfact> 0.65112136E+01</totfact>
</mgrwt>
</event>
<event>
 6    1  0.9205235E-004  0.4725737E+03  0.7818608E-02  0.1021196E+00
          2   -1    0    0  502    0  0.00000000000E+00  0.00000000000E+00  0.19142219735E+04  0.19142219735E+04  0.00000000000E+00 0.  1.
         -2   -1    0    0    0  501 -0.00000000000E+00 -0.00000000000E+00 -0.11971393505E+03  0.11971393505E+03  0.00000000000E+00 0. -1.
    9000007    2    1    2  502    0 -0.23849032643E+03  0.79700889517E+02  0.10596941302E+04  0.11603333975E+04  0.40024002316E+03 0.  0.
    9000005    1    3    3    0    0 -0.21951930242E+03 -0.14178501039E+02  0.20629480057E+03  0.30157635644E+03  0.99999687468E+00 0.  0.
          4    1    3    3  502    0 -0.18971024009E+02  0.93879390556E+02  0.85339932965E+03  0.85875704106E+03  0.00000000000E+00 0.  1.
   -9000007    1    1    2    0  501  0.23849032643E+03 -0.79700889517E+02  0.73481390824E+03  0.87360251106E+03  0.40000000000E+03 0. -1.
<mgrwt>
<rscale>  2 0.47257368E+03</rscale>
<asrwt>0</asrwt>
<pdfrwt beam="1">  1        2 0.29449566E+00 0.47257368E+03</pdfrwt>
<pdfrwt beam="2">  1       -2 0.18417530E-01 0.47257368E+03</pdfrwt>
<totfact> 0.19366414E+02</totfact>
</mgrwt>
</event>
<event>
 6    1  0.9205235E-004  0.4383831E+03  0.7818608E-02  0.1031244E+00
          1   -1    0    0  502    0  0.00000000000E+00  0.00000000000E+00  0.18005371413E+04  0.18005371413E+04  0.00000000000E+00 0. -1.
         -1   -1    0    0    0  501 -0.00000000000E+00 -0.00000000000E+00 -0.10691079693E+03  0.10691079693E+03  0.00000000000E+00 0.  1.
    9000007    2    1    2  502    0 -0.13796686289E+03 -0.11380155918E+03  0.80853404341E+03  0.91983767535E+03  0.40048520511E+03 0.  0.
    9000005    1    3    3    0    0 -0.24539147791E+03  0.24945399991E+02  0.59062307774E+03  0.64005927098E+03  0.99999687468E+00 0.  0.
          4    1    3    3  502    0  0.10742461503E+03 -0.13874695917E+03  0.21791096568E+03  0.27977840438E+03  0.00000000000E+00 0.  1.
   -9000007    1    1    2    0  501  0.13796686289E+03  0.11380155918E+03  0.88509230097E+03  0.98761026289E+03  0.40000000000E+03 0. -1.
<mgrwt>
<rscale>  2 0.43838311E+03</rscale>
<asrwt>0</asrwt>
<pdfrwt beam="1">  1        1 0.27700569E+00 0.43838311E+03</pdfrwt>
<pdfrwt beam="2">  1       -1 0.16447816E-01 0.43838311E+03</pdfrwt>
<totfact> 0.12261372E+02</totfact>
</mgrwt>
</event>
<event>
 6    1  0.9205235E-004  0.4081252E+03  0.7818608E-02  0.1041002E+00
         -2   -1    0    0    0  501 -0.00000000000E+00  0.00000000000E+00  0.27117249399E+03  0.27117249399E+03  0.00000000000E+00 0.  1.
          2   -1    0    0  502    0  0.00000000000E+00 -0.00000000000E+00 -0.65965713149E+03  0.65965713149E+03  0.00000000000E+00 0. -1.
    9000007    2    1    2  502    0 -0.81155555740E+02 -0.56161210676E+00 -0.72116149866E+02  0.41442323552E+03  0.39994917106E+03 0.  0.
    9000005    1    3    3    0    0  0.83377594921E+01 -0.44870555129E+02 -0.22622678399E+03  0.23078657400E+03  0.99999687468E+00 0.  0.
          4    1    3    3  502    0 -0.89493315232E+02  0.44308943023E+02  0.15411063412E+03  0.18363666152E+03  0.00000000000E+00 0.  1.
   -9000007    1    1    2    0  501  0.81155555740E+02  0.56161210676E+00 -0.31636848763E+03  0.51640638997E+03  0.40000000000E+03 0. -1.
<mgrwt>
<rscale>  2 0.40812524E+03</rscale>
<asrwt>0</asrwt>
<pdfrwt beam="1">  1        2 0.10148571E+00 0.40812524E+03</pdfrwt>
<pdfrwt beam="2">  1       -2 0.41718845E-01 0.40812524E+03</pdfrwt>
<totfact> 0.24696246E+02</totfact>
</mgrwt>
</event>
<event>
 6    1  0.9205235E-004  0.4841242E+03  0.7818608E-02  0.1018008E+00
         -1   -1    0    0    0  501 -0.00000000000E+00  0.00000000000E+00  0.21006563989E+03  0.21006563989E+03  0.00000000000E+00 0. -1.
          1   -1    0    0  502    0  0.00000000000E+00 -0.00000000000E+00 -0.11433919222E+04  0.11433919222E+04  0.00000000000E+00 0.  1.
    9000007    2    1    2  502    0 -0.22726743271E+03  0.15291235117E+03 -0.57128374312E+03  0.74838940619E+03  0.39835777265E+03 0.  0.
    9000005    1    3    3    0    0 -0.19883243453E+03  0.26827688757E+03 -0.28714747520E+03  0.44041060152E+03  0.99999687468E+00 0.  0.
          4    1    3    3  502    0 -0.28434998185E+02 -0.11536453639E+03 -0.28413626791E+03  0.30797880466E+03  0.00000000000E+00 0.  1.
   -9000007    1    1    2    0  501  0.22726743271E+03 -0.15291235117E+03 -0.36204253920E+03  0.60506815592E+03  0.40000000000E+03 0. -1.
<mgrwt>
<rscale>  2 0.48412417E+03</rscale>
<asrwt>0</asrwt>
<pdfrwt beam="1">  1        1 0.17590645E+00 0.48412417E+03</pdfrwt>
<pdfrwt beam="2">  1       -1 0.32317791E-01 0.48412417E+03</pdfrwt>
<totfact> 0.11020775E+02</totfact>
</mgrwt>
</event>
<event>
 6    1  0.9205235E-004  0.4676637E+03  0.7818608E-02  0.1022582E+00
         -2   -1    0    0    0  501 -0.00000000000E+00  0.00000000000E+00  0.10451985546E+03  0.10451985546E+03  0.00000000000E+00 0. -1.
          2   -1    0    0  502    0  0.00000000000E+00 -0.00000000000E+00 -0.21150297823E+04  0.21150297823E+04  0.00000000000E+00 0.  1.
    9000007    2    1    2  502    0  0.43863230059E+02  0.23883712268E+03 -0.11191695036E+04  0.12128446640E+04  0.39935528928E+03 0.  0.
    9000005    1    3    3    0    0  0.65150492598E+02  0.19795099843E+03 -0.18840321454E+03  0.28093763669E+03  0.99999687468E+00 0.  0.
          4    1    3    3  502    0 -0.21287262538E+02  0.40886124252E+02 -0.93076628903E+03  0.93190702728E+03  0.00000000000E+00 0.  1.
   -9000007    1    1    2    0  501 -0.43863230059E+02 -0.23883712268E+03 -0.89134042328E+03  0.10067049738E+04  0.40000000000E+03 0.  1.
<mgrwt>
<rscale>  2 0.46766369E+03</rscale>
<asrwt>0</asrwt>
<pdfrwt beam="1">  1        2 0.32538918E+00 0.46766369E+03</pdfrwt>
<pdfrwt beam="2">  1       -2 0.16079978E-01 0.46766369E+03</pdfrwt>
<totfact> 0.19045320E+02</totfact>
</mgrwt>
</event>
<event>
 6    1  0.9205235E-004  0.7460491E+03  0.7818608E-02  0.9641569E-01
          2   -1    0    0  502    0  0.00000000000E+00  0.00000000000E+00  0.48251084652E+03  0.48251084652E+03  0.00000000000E+00 0. -1.
         -2   -1    0    0    0  501 -0.00000000000E+00 -0.00000000000E+00 -0.11593646147E+04  0.11593646147E+04  0.00000000000E+00 0.  1.
    9000007    2    1    2  502    0 -0.21466304482E+03 -0.59127690777E+03 -0.39694910248E+03  0.84561217163E+03  0.40224712599E+03 0.  0.
    9000005    1    3    3    0    0 -0.20134018768E+03 -0.56103189183E+03 -0.17501296695E+03  0.62122877704E+03  0.99999687468E+00 0.  0.
          4    1    3    3  502    0 -0.13322857140E+02 -0.30245015942E+02 -0.22193613554E+03  0.22438339459E+03  0.00000000000E+00 0.  1.
   -9000007    1    1    2    0  501  0.21466304482E+03  0.59127690777E+03 -0.27990466571E+03  0.79626328960E+03  0.40000000000E+03 0.  1.
<mgrwt>
<rscale>  2 0.74604909E+03</rscale>
<asrwt>0</asrwt>
<pdfrwt beam="1">  1        2 0.74232439E-01 0.74604909E+03</pdfrwt>
<pdfrwt beam="2">  1       -2 0.17836378E+00 0.74604909E+03</pdfrwt>
<totfact> 0.12144371E+01</totfact>
</mgrwt>
</event>
<event>
 6    1  0.9205235E-004  0.4280586E+03  0.7818608E-02  0.1034475E+00
          1   -1    0    0  502    0  0.00000000000E+00  0.00000000000E+00  0.15513792423E+04  0.15513792423E+04  0.00000000000E+00 0.  1.
         -1   -1    0    0    0  501 -0.00000000000E+00 -0.00000000000E+00 -0.12193302575E+03  0.12193302575E+03  0.00000000000E+00 0. -1.
    9000007    2    1    2  502    0 -0.11329751152E+03  0.98197339902E+02  0.56802635976E+03  0.71179096648E+03  0.40188728632E+03 0.  0.
    9000005    1    3    3    0    0  0.13583211894E+03  0.11578931440E+03  0.21681106514E+03  0.28083014052E+03  0.99999687468E+00 0.  0.
          4    1    3    3  502    0 -0.24912963046E+03 -0.17591974499E+02  0.35121529462E+03  0.43096082596E+03  0.00000000000E+00 0.  1.
   -9000007    1    1    2    0  501  0.11329751152E+03 -0.98197339902E+02  0.86141985680E+03  0.96152130157E+03  0.40000000000E+03 0.  1.
<mgrwt>
<rscale>  2 0.42805861E+03</rscale>
<asrwt>0</asrwt>
<pdfrwt beam="1">  1        1 0.23867372E+00 0.42805861E+03</pdfrwt>
<pdfrwt beam="2">  1       -1 0.18758928E-01 0.42805861E+03</pdfrwt>
<totfact> 0.14509058E+02</totfact>
</mgrwt>
</event>
<event>
 6    1  0.9205235E-004  0.4403920E+03  0.7818608E-02  0.1030627E+00
          4   -1    0    0  502    0  0.00000000000E+00  0.00000000000E+00  0.16240813478E+04  0.16240813478E+04  0.00000000000E+00 0.  1.
         -4   -1    0    0    0  501 -0.00000000000E+00 -0.00000000000E+00 -0.11979669909E+03  0.11979669909E+03  0.00000000000E+00 0. -1.
    9000007    2    1    2  502    0 -0.97834926868E+02 -0.15159979195E+03  0.80374293800E+03  0.91725064699E+03  0.40347474415E+03 0.  0.
    9000005    1    3    3    0    0  0.88699452276E+02 -0.40370446907E+02  0.14329538268E+02  0.98507367635E+02  0.99999687468E+00 0.  0.
          4    1    3    3  502    0 -0.18653437914E+03 -0.11122934504E+03  0.78941339974E+03  0.81874327935E+03  0.00000000000E+00 0.  1.
   -9000007    1    1    2    0  501  0.97834926868E+02  0.15159979195E+03  0.70054171073E+03  0.82662739992E+03  0.40000000000E+03 0.  1.
<mgrwt>
<rscale>  2 0.44039196E+03</rscale>
<asrwt>0</asrwt>
<pdfrwt beam="1">  1        4 0.24985865E+00 0.44039196E+03</pdfrwt>
<pdfrwt beam="2">  1       -4 0.18430263E-01 0.44039196E+03</pdfrwt>
<totfact> 0.34289289E+00</totfact>
</mgrwt>
</event>
<event>
 6    1  0.9205235E-004  0.5118518E+03  0.7818608E-02  0.1010731E+00
          2   -1    0    0  502    0  0.00000000000E+00  0.00000000000E+00  0.21961883318E+04  0.21961883318E+04  0.00000000000E+00 0.  1.
         -2   -1    0    0    0  501 -0.00000000000E+00 -0.00000000000E+00 -0.13389205923E+03  0.13389205923E+03  0.00000000000E+00 0. -1.
    9000007    2    1    2  502    0  0.28700698571E+03 -0.14044018445E+03  0.64627682948E+03  0.82435547643E+03  0.39973961018E+03 0.  0.
    9000005    1    3    3    0    0  0.14413396814E+03 -0.99636655507E+02  0.15040428283E+02  0.17586721800E+03  0.99999687468E+00 0.  0.
          4    1    3    3  502    0  0.14287301757E+03 -0.40803528945E+02  0.63123640120E+03  0.64848825843E+03  0.00000000000E+00 0.  1.
   -9000007    1    1    2    0  501 -0.28700698571E+03  0.14044018445E+03  0.14160194431E+04  0.15057249146E+04  0.40000000000E+03 0.  1.
<mgrwt>
<rscale>  2 0.51185185E+03</rscale>
<asrwt>0</asrwt>
<pdfrwt beam="1">  1        2 0.33787510E+00 0.51185185E+03</pdfrwt>
<pdfrwt beam="2">  1       -2 0.20598780E-01 0.51185185E+03</pdfrwt>
<totfact> 0.11173346E+02</totfact>
</mgrwt>
</event>
<event>
 6    1  0.9205235E-004  0.4025053E+03  0.7818608E-02  0.1042916E+00
         -2   -1    0    0    0  501 -0.00000000000E+00  0.00000000000E+00  0.27708993923E+03  0.27708993923E+03  0.00000000000E+00 0. -1.
          2   -1    0    0  502    0  0.00000000000E+00 -0.00000000000E+00 -0.59519054241E+03  0.59519054241E+03  0.00000000000E+00 0.  1.
    9000007    2    1    2  502    0 -0.40010066185E+02 -0.22988774635E+02 -0.10105129609E+03  0.41485322965E+03  0.39970307549E+03 0.  0.
    9000005    1    3    3    0    0 -0.16103752412E+03  0.10391295751E+02  0.91106999014E+02  0.18531742624E+03  0.99999687468E+00 0.  0.
          4    1    3    3  502    0  0.12102745794E+03 -0.33380070387E+02 -0.19215829510E+03  0.22953580342E+03  0.00000000000E+00 0.  1.
   -9000007    1    1    2    0  501  0.40010066185E+02  0.22988774635E+02 -0.21704930708E+03  0.45742725199E+03  0.40000000000E+03 0.  1.
<mgrwt>
<rscale>  2 0.40250530E+03</rscale>
<asrwt>0</asrwt>
<pdfrwt beam="1">  1        2 0.91567776E-01 0.40250530E+03</pdfrwt>
<pdfrwt beam="2">  1       -2 0.42629221E-01 0.40250530E+03</pdfrwt>
<totfact> 0.26792400E+02</totfact>
</mgrwt>
</event>
<event>
 6    1  0.9205235E-004  0.4346384E+03  0.7818608E-02  0.1032405E+00
         -2   -1    0    0    0  501 -0.00000000000E+00  0.00000000000E+00  0.15021116510E+03  0.15021116510E+03  0.00000000000E+00 0.  1.
          2   -1    0    0  502    0  0.00000000000E+00 -0.00000000000E+00 -0.12634858905E+04  0.12634858905E+04  0.00000000000E+00 0. -1.
    9000007    2    1    2  502    0 -0.71977308266E+02 -0.14078153719E+03 -0.60997060692E+03  0.75164327395E+03  0.40976004667E+03 0.  0.
    9000005    1    3    3    0    0  0.95776721505E+02  0.80687156933E+02 -0.34773336672E+03  0.36959855519E+03  0.99999687468E+00 0.  0.
          4    1    3    3  502    0 -0.16775402977E+03 -0.22146869412E+03 -0.26223724020E+03  0.38204471875E+03  0.00000000000E+00 0.  1.
   -9000007    1    1    2    0  501  0.71977308266E+02  0.14078153719E+03 -0.50330411846E+03  0.66205378163E+03  0.40000000000E+03 0.  1.
<mgrwt>
<rscale>  2 0.43463835E+03</rscale>
<asrwt>0</asrwt>
<pdfrwt beam="1">  1        2 0.19438245E+00 0.43463835E+03</pdfrwt>
<pdfrwt beam="2">  1       -2 0.23109409E-01 0.43463835E+03</pdfrwt>
<totfact> 0.29680538E+02</totfact>
</mgrwt>
</event>
<event>
 6    1  0.9205235E-004  0.5421014E+03  0.7818608E-02  0.1003339E+00
          1   -1    0    0  502    0  0.00000000000E+00  0.00000000000E+00  0.19146487283E+04  0.19146487283E+04  0.00000000000E+00 0.  1.
         -1   -1    0    0    0  501 -0.00000000000E+00 -0.00000000000E+00 -0.15387988533E+03  0.15387988533E+03  0.00000000000E+00 0. -1.
    9000007    2    1    2  502    0 -0.31773788119E+03 -0.18094279681E+03  0.82839508795E+03  0.99009527034E+03  0.40044046468E+03 0.  0.
    9000005    1    3    3    0    0  0.22119442133E+02 -0.20026371670E+03  0.29039209659E+03  0.35344503916E+03  0.99999687468E+00 0.  0.
          4    1    3    3  502    0 -0.33985732332E+03  0.19320919889E+02  0.53800299136E+03  0.63665023119E+03  0.00000000000E+00 0.  1.
   -9000007    1    1    2    0  501  0.31773788119E+03  0.18094279681E+03  0.93237375506E+03  0.10784333433E+04  0.40000000000E+03 0. -1.
<mgrwt>
<rscale>  2 0.54210136E+03</rscale>
<asrwt>0</asrwt>
<pdfrwt beam="1">  1        1 0.29456133E+00 0.54210136E+03</pdfrwt>
<pdfrwt beam="2">  1       -1 0.23673830E-01 0.54210136E+03</pdfrwt>
<totfact> 0.55551440E+01</totfact>
</mgrwt>
</event>
<event>
 6    1  0.9205235E-004  0.6184889E+03  0.7818608E-02  0.9867773E-01
         -1   -1    0    0    0  501 -0.00000000000E+00  0.00000000000E+00  0.72509074498E+03  0.72509074498E+03  0.00000000000E+00 0. -1.
          1   -1    0    0  502    0  0.00000000000E+00 -0.00000000000E+00 -0.62134079497E+03  0.62134079497E+03  0.00000000000E+00 0.  1.
    9000007    2    1    2  502    0 -0.19265521296E+03  0.43041437865E+03  0.31342959340E+03  0.69348581380E+03  0.40038967955E+03 0.  0.
    9000005    1    3    3    0    0 -0.28961187824E+03  0.38884377137E+03  0.16656296637E+03  0.51265850262E+03  0.99999687468E+00 0.  0.
          4    1    3    3  502    0  0.96956665281E+02  0.41570607285E+02  0.14686662703E+03  0.18082731118E+03  0.00000000000E+00 0.  1.
   -9000007    1    1    2    0  501  0.19265521296E+03 -0.43041437865E+03 -0.20967964339E+03  0.65294572614E+03  0.40000000000E+03 0.  1.
<mgrwt>
<rscale>  2 0.61848887E+03</rscale>
<asrwt>0</asrwt>
<pdfrwt beam="1">  1        1 0.95590892E-01 0.61848887E+03</pdfrwt>
<pdfrwt beam="2">  1       -1 0.11155242E+00 0.61848887E+03</pdfrwt>
<totfact> 0.25018575E+01</totfact>
</mgrwt>
</event>
<event>
 6    1  0.9205235E-004  0.4193870E+03  0.7818608E-02  0.1037266E+00
         -1   -1    0    0    0  501 -0.00000000000E+00  0.00000000000E+00  0.15042724895E+03  0.15042724895E+03  0.00000000000E+00 0. -1.
          1   -1    0    0  502    0  0.00000000000E+00 -0.00000000000E+00 -0.14750347363E+04  0.14750347363E+04  0.00000000000E+00 0.  1.
    9000007    2    1    2  502    0 -0.27644967206E+02  0.12333939426E+03 -0.29211690427E+03  0.51100532187E+03  0.39977156331E+03 0.  0.
    9000005    1    3    3    0    0  0.13816642491E+03  0.83123767493E+01 -0.27574671667E+03  0.30853898997E+03  0.99999687468E+00 0.  0.
          4    1    3    3  502    0 -0.16581139212E+03  0.11502701751E+03 -0.16370187594E+02  0.20246633190E+03  0.00000000000E+00 0.  1.
   -9000007    1    1    2    0  501  0.27644967206E+02 -0.12333939426E+03 -0.10324905831E+04  0.11144566633E+04  0.40000000000E+03 0.  1.
<mgrwt>
<rscale>  2 0.41938703E+03</rscale>
<asrwt>0</asrwt>
<pdfrwt beam="1">  1        1 0.22692844E+00 0.41938703E+03</pdfrwt>
<pdfrwt beam="2">  1       -1 0.23142652E-01 0.41938703E+03</pdfrwt>
<totfact> 0.11550957E+02</totfact>
</mgrwt>
</event>
<event>
 6    1  0.9205235E-004  0.5270916E+03  0.7818608E-02  0.1006940E+00
         -1   -1    0    0    0  501 -0.00000000000E+00  0.00000000000E+00  0.51672017077E+03  0.51672017077E+03  0.00000000000E+00 0. -1.
          1   -1    0    0  502    0  0.00000000000E+00 -0.00000000000E+00 -0.62189109168E+03  0.62189109168E+03  0.00000000000E+00 0.  1.
    9000007    2    1    2  502    0 -0.97981973794E+02  0.32898234799E+03  0.15692037699E+03  0.54995032362E+03  0.39998937643E+03 0.  0.
    9000005    1    3    3    0    0 -0.55280161858E+01 -0.29864392296E+02  0.17627950804E+03  0.17887958475E+03  0.99999687468E+00 0.  0.
          4    1    3    3  502    0 -0.92453957608E+02  0.35884674029E+03 -0.19359131052E+02  0.37107073887E+03  0.00000000000E+00 0.  1.
   -9000007    1    1    2    0  501  0.97981973794E+02 -0.32898234799E+03 -0.26209129789E+03  0.58866093883E+03  0.40000000000E+03 0.  1.
<mgrwt>
<rscale>  2 0.52709165E+03</rscale>
<asrwt>0</asrwt>
<pdfrwt beam="1">  1        1 0.95675552E-01 0.52709165E+03</pdfrwt>
<pdfrwt beam="2">  1       -1 0.79495411E-01 0.52709165E+03</pdfrwt>
<totfact> 0.53726126E+01</totfact>
</mgrwt>
</event>
<event>
 6    1  0.9205235E-004  0.4794439E+03  0.7818608E-02  0.1019288E+00
         -1   -1    0    0    0  501 -0.00000000000E+00  0.00000000000E+00  0.12632139216E+03  0.12632139216E+03  0.00000000000E+00 0.  1.
          1   -1    0    0  502    0  0.00000000000E+00 -0.00000000000E+00 -0.18824415960E+04  0.18824415960E+04  0.00000000000E+00 0. -1.
    9000007    2    1    2  502    0 -0.20807010645E+03 -0.16266293344E+03 -0.10616422926E+04  0.11649312702E+04  0.40028503295E+03 0.  0.
    9000005    1    3    3    0    0 -0.18047041356E+03  0.13168854860E+01 -0.94434753569E+03  0.96143880331E+03  0.99999687468E+00 0.  0.
          4    1    3    3  502    0 -0.27599692888E+02 -0.16397981892E+03 -0.11729475694E+03  0.20349246685E+03  0.00000000000E+00 0.  1.
   -9000007    1    1    2    0  501  0.20807010645E+03  0.16266293344E+03 -0.69447791118E+03  0.84383171796E+03  0.40000000000E+03 0.  1.
<mgrwt>
<rscale>  2 0.47944387E+03</rscale>
<asrwt>0</asrwt>
<pdfrwt beam="1">  1        1 0.28960637E+00 0.47944387E+03</pdfrwt>
<pdfrwt beam="2">  1       -1 0.19434062E-01 0.47944387E+03</pdfrwt>
<totfact> 0.81876820E+01</totfact>
</mgrwt>
</event>
<event>
 6    1  0.9205235E-004  0.4841570E+03  0.7818608E-02  0.1017999E+00
          2   -1    0    0  502    0  0.00000000000E+00  0.00000000000E+00  0.29014273037E+03  0.29014273037E+03  0.00000000000E+00 0.  1.
         -2   -1    0    0    0  501 -0.00000000000E+00 -0.00000000000E+00 -0.12861678975E+04  0.12861678975E+04  0.00000000000E+00 0. -1.
    9000007    2    1    2  502    0 -0.26921639077E+03 -0.44414152860E+02 -0.97859797909E+03  0.10917966560E+04  0.39989480046E+03 0.  0.
    9000005    1    3    3    0    0 -0.24223205403E+03  0.14257965499E+03 -0.45131371985E+03  0.53168637347E+03  0.99999687468E+00 0.  0.
          4    1    3    3  502    0 -0.26984336745E+02 -0.18699380785E+03 -0.52728425924E+03  0.56011028257E+03  0.00000000000E+00 0.  1.
   -9000007    1    1    2    0  501  0.26921639077E+03  0.44414152860E+02 -0.17427188067E+02  0.48451397185E+03  0.40000000000E+03 0.  1.
<mgrwt>
<rscale>  2 0.48415700E+03</rscale>
<asrwt>0</asrwt>
<pdfrwt beam="1">  1        2 0.44637344E-01 0.48415700E+03</pdfrwt>
<pdfrwt beam="2">  1       -2 0.19787198E+00 0.48415700E+03</pdfrwt>
<totfact> 0.16386251E+01</totfact>
</mgrwt>
</event>
<event>
 6    1  0.9205235E-004  0.4449495E+03  0.7818608E-02  0.1029239E+00
         -2   -1    0    0    0  501 -0.00000000000E+00  0.00000000000E+00  0.30443308274E+03  0.30443308274E+03  0.00000000000E+00 0. -1.
          2   -1    0    0  502    0  0.00000000000E+00 -0.00000000000E+00 -0.65312641800E+03  0.65312641800E+03  0.00000000000E+00 0.  1.
    9000007    2    1    2  502    0 -0.10661766165E+03  0.16338031550E+03 -0.14294765340E+03  0.46726189839E+03  0.39979894547E+03 0.  0.
    9000005    1    3    3    0    0  0.14084018384E+03 -0.51009171294E+01 -0.15119168267E+02  0.14174472118E+03  0.99999687468E+00 0.  0.
          4    1    3    3  502    0 -0.24745784549E+03  0.16848123263E+03 -0.12782848513E+03  0.32551717721E+03  0.00000000000E+00 0.  1.
   -9000007    1    1    2    0  501  0.10661766165E+03 -0.16338031550E+03 -0.20574568186E+03  0.49029760236E+03  0.40000000000E+03 0. -1.
<mgrwt>
<rscale>  2 0.44494948E+03</rscale>
<asrwt>0</asrwt>
<pdfrwt beam="1">  1        2 0.10048099E+00 0.44494948E+03</pdfrwt>
<pdfrwt beam="2">  1       -2 0.46835860E-01 0.44494948E+03</pdfrwt>
<totfact> 0.19849379E+02</totfact>
</mgrwt>
</event>
<event>
 6    1  0.9205235E-004  0.4157835E+03  0.7818608E-02  0.1038447E+00
          4   -1    0    0  502    0  0.00000000000E+00  0.00000000000E+00  0.23645712490E+03  0.23645712490E+03  0.00000000000E+00 0.  1.
         -4   -1    0    0    0  501 -0.00000000000E+00 -0.00000000000E+00 -0.73580035472E+03  0.73580035472E+03  0.00000000000E+00 0. -1.
    9000007    2    1    2  502    0  0.11338998553E+03  0.74817155559E+01 -0.28846183338E+03  0.50601266383E+03  0.39990664129E+03 0.  0.
    9000005    1    3    3    0    0  0.10789275194E+03 -0.15648664795E+03 -0.28418889450E+03  0.34189654087E+03  0.99999687468E+00 0.  0.
          4    1    3    3  502    0  0.54972335929E+01  0.16396836351E+03 -0.42729388844E+01  0.16411612296E+03  0.00000000000E+00 0.  1.
   -9000007    1    1    2    0  501 -0.11338998553E+03 -0.74817155559E+01 -0.21088139645E+03  0.46624481579E+03  0.40000000000E+03 0.  1.
<mgrwt>
<rscale>  2 0.41578350E+03</rscale>
<asrwt>0</asrwt>
<pdfrwt beam="1">  1        4 0.36378020E-01 0.41578350E+03</pdfrwt>
<pdfrwt beam="2">  1       -4 0.11320005E+00 0.41578350E+03</pdfrwt>
<totfact> 0.87122853E+00</totfact>
</mgrwt>
</event>
<event>
 6    1  0.9205235E-004  0.5566588E+03  0.7818608E-02  0.9999643E-01
          2   -1    0    0  502    0  0.00000000000E+00  0.00000000000E+00  0.23955183272E+04  0.23955183272E+04  0.00000000000E+00 0. -1.
         -2   -1    0    0    0  501 -0.00000000000E+00 -0.00000000000E+00 -0.20391421166E+03  0.20391421166E+03  0.00000000000E+00 0.  1.
    9000007    2    1    2  502    0  0.32601989350E+03 -0.20876754474E+03  0.30987562703E+03  0.63709338286E+03  0.39999026933E+03 0.  0.
    9000005    1    3    3    0    0  0.27274272456E+03 -0.31876022769E+03  0.29740058946E+03  0.51424195391E+03  0.99999687468E+00 0.  0.
          4    1    3    3  502    0  0.53277168942E+02  0.10999268295E+03  0.12475037572E+02  0.12285142895E+03  0.00000000000E+00 0.  1.
   -9000007    1    1    2    0  501 -0.32601989350E+03  0.20876754474E+03  0.18817284885E+04  0.19623391560E+04  0.40000000000E+03 0. -1.
<mgrwt>
<rscale>  2 0.55665875E+03</rscale>
<asrwt>0</asrwt>
<pdfrwt beam="1">  1        2 0.36854126E+00 0.55665875E+03</pdfrwt>
<pdfrwt beam="2">  1       -2 0.31371419E-01 0.55665875E+03</pdfrwt>
<totfact> 0.40408697E+01</totfact>
</mgrwt>
</event>
<event>
 6    1  0.9205235E-004  0.4187583E+03  0.7818608E-02  0.1037471E+00
         -1   -1    0    0    0  501 -0.00000000000E+00  0.00000000000E+00  0.17690710219E+03  0.17690710219E+03  0.00000000000E+00 0.  1.
          1   -1    0    0  502    0  0.00000000000E+00 -0.00000000000E+00 -0.16953572939E+04  0.16953572939E+04  0.00000000000E+00 0. -1.
    9000007    2    1    2  502    0  0.12392735987E+03  0.31612456715E+01 -0.15592174601E+03  0.44683402272E+03  0.39997633553E+03 0.  0.
    9000005    1    3    3    0    0  0.22452245789E+03  0.76053211829E+02 -0.20486420906E+03  0.31331257439E+03  0.99999687468E+00 0.  0.
          4    1    3    3  502    0 -0.10059509802E+03 -0.72891966157E+02  0.48942463048E+02  0.13352144833E+03  0.00000000000E+00 0.  1.
   -9000007    1    1    2    0  501 -0.12392735987E+03 -0.31612456715E+01 -0.13625284457E+04  0.14254303734E+04  0.40000000000E+03 0. -1.
<mgrwt>
<rscale>  2 0.41875831E+03</rscale>
<asrwt>0</asrwt>
<pdfrwt beam="1">  1        1 0.26082421E+00 0.41875831E+03</pdfrwt>
<pdfrwt beam="2">  1       -1 0.27216477E-01 0.41875831E+03</pdfrwt>
<totfact> 0.62624497E+01</totfact>
</mgrwt>
</event>
<event>
 6    1  0.9205235E-004  0.4609745E+03  0.7818608E-02  0.1024499E+00
          2   -1    0    0  502    0  0.00000000000E+00  0.00000000000E+00  0.42278923341E+03  0.42278923341E+03  0.00000000000E+00 0.  1.
         -2   -1    0    0    0  501 -0.00000000000E+00 -0.00000000000E+00 -0.61084028892E+03  0.61084028892E+03  0.00000000000E+00 0. -1.
    9000007    2    1    2  502    0 -0.15428417908E+03 -0.16956632858E+03 -0.31155940420E+03  0.55633437266E+03  0.39985287813E+03 0.  0.
    9000005    1    3    3    0    0 -0.16617438408E+03 -0.29300173406E+03 -0.23163272252E+03  0.40880149244E+03  0.99999687468E+00 0.  0.
          4    1    3    3  502    0  0.11890204996E+02  0.12343540548E+03 -0.79926681681E+02  0.14753288022E+03  0.00000000000E+00 0.  1.
   -9000007    1    1    2    0  501  0.15428417908E+03  0.16956632858E+03  0.12350834869E+03  0.47729514967E+03  0.40000000000E+03 0.  1.
<mgrwt>
<rscale>  2 0.46097451E+03</rscale>
<asrwt>0</asrwt>
<pdfrwt beam="1">  1        2 0.65044498E-01 0.46097451E+03</pdfrwt>
<pdfrwt beam="2">  1       -2 0.93975428E-01 0.46097451E+03</pdfrwt>
<totfact> 0.73637030E+01</totfact>
</mgrwt>
</event>
<event>
 6    1  0.9205235E-004  0.5005988E+03  0.7818608E-02  0.1013623E+00
          3   -1    0    0  502    0  0.00000000000E+00  0.00000000000E+00  0.49781851495E+03  0.49781851495E+03  0.00000000000E+00 0. -1.
         -3   -1    0    0    0  501 -0.00000000000E+00 -0.00000000000E+00 -0.56528942873E+03  0.56528942873E+03  0.00000000000E+00 0.  1.
    9000007    2    1    2  502    0 -0.20323340128E+03  0.22228705049E+03  0.14216071056E+03  0.52028129904E+03  0.39970941231E+03 0.  0.
    9000005    1    3    3    0    0 -0.95608983006E+02  0.18700691901E+03  0.27479461944E+03  0.34586955382E+03  0.99999687468E+00 0.  0.
          4    1    3    3  502    0 -0.10762441828E+03  0.35280131487E+02 -0.13263390889E+03  0.17441174523E+03  0.00000000000E+00 0.  1.
   -9000007    1    1    2    0  501  0.20323340128E+03 -0.22228705049E+03 -0.20963162434E+03  0.54282664464E+03  0.40000000000E+03 0.  1.
<mgrwt>
<rscale>  2 0.50059877E+03</rscale>
<asrwt>0</asrwt>
<pdfrwt beam="1">  1        3 0.76587464E-01 0.50059877E+03</pdfrwt>
<pdfrwt beam="2">  1       -3 0.86967604E-01 0.50059877E+03</pdfrwt>
<totfact> 0.50454403E+00</totfact>
</mgrwt>
</event>
<event>
 6    1  0.9205235E-004  0.5609571E+03  0.7818608E-02  0.9989891E-01
         -1   -1    0    0    0  501 -0.00000000000E+00  0.00000000000E+00  0.30818653272E+03  0.30818653272E+03  0.00000000000E+00 0. -1.
          1   -1    0    0  502    0  0.00000000000E+00 -0.00000000000E+00 -0.10220235296E+04  0.10220235296E+04  0.00000000000E+00 0.  1.
    9000007    2    1    2  502    0  0.19335622460E+03  0.34096647848E+03 -0.37803447774E+03  0.67721075078E+03  0.40256622507E+03 0.  0.
    9000005    1    3    3    0    0  0.18221320591E+03  0.34168555443E+03 -0.10132080782E+03  0.40027187836E+03  0.99999687468E+00 0.  0.
          4    1    3    3  502    0  0.11143018690E+02 -0.71907594605E+00 -0.27671366992E+03  0.27693887242E+03  0.00000000000E+00 0.  1.
   -9000007    1    1    2    0  501 -0.19335622460E+03 -0.34096647848E+03 -0.33580251916E+03  0.65299931157E+03  0.40000000000E+03 0. -1.
<mgrwt>
<rscale>  2 0.56095710E+03</rscale>
<asrwt>0</asrwt>
<pdfrwt beam="1">  1        1 0.15723439E+00 0.56095710E+03</pdfrwt>
<pdfrwt beam="2">  1       -1 0.47413314E-01 0.56095710E+03</pdfrwt>
<totfact> 0.67346279E+01</totfact>
</mgrwt>
</event>
<event>
 6    1  0.9205235E-004  0.4201269E+03  0.7818608E-02  0.1037025E+00
          1   -1    0    0  502    0  0.00000000000E+00  0.00000000000E+00  0.20720203914E+04  0.20720203914E+04  0.00000000000E+00 0.  1.
         -1   -1    0    0    0  501 -0.00000000000E+00 -0.00000000000E+00 -0.12031262160E+03  0.12031262160E+03  0.00000000000E+00 0. -1.
    9000007    2    1    2  502    0 -0.97265821929E+02 -0.84118191918E+02  0.38349706329E+03  0.56881173801E+03  0.39992534981E+03 0.  0.
    9000005    1    3    3    0    0  0.12295958274E+03 -0.90670225463E+02  0.35363259843E+02  0.15681743817E+03  0.99999687468E+00 0.  0.
          4    1    3    3  502    0 -0.22022540467E+03  0.65520335449E+01  0.34813380345E+03  0.41199429985E+03  0.00000000000E+00 0.  1.
   -9000007    1    1    2    0  501  0.97265821929E+02  0.84118191918E+02  0.15682107065E+04  0.16235212750E+04  0.40000000000E+03 0.  1.
<mgrwt>
<rscale>  2 0.42012695E+03</rscale>
<asrwt>0</asrwt>
<pdfrwt beam="1">  1        1 0.31877234E+00 0.42012695E+03</pdfrwt>
<pdfrwt beam="2">  1       -1 0.18509636E-01 0.42012695E+03</pdfrwt>
<totfact> 0.67235189E+01</totfact>
</mgrwt>
</event>
<event>
 6    1  0.9205235E-004  0.5347965E+03  0.7818608E-02  0.1005075E+00
          2   -1    0    0  502    0  0.00000000000E+00  0.00000000000E+00  0.19795088938E+04  0.19795088938E+04  0.00000000000E+00 0. -1.
         -2   -1    0    0    0  501 -0.00000000000E+00 -0.00000000000E+00 -0.20169740032E+03  0.20169740032E+03  0.00000000000E+00 0.  1.
    9000007    2    1    2  502    0 -0.19028778656E+03 -0.29941315123E+03  0.30822031786E+03  0.61737896979E+03  0.40037401409E+03 0.  0.
    9000005    1    3    3    0    0 -0.87813615792E+02  0.29709176234E+02 -0.61998444089E+02  0.11152880047E+03  0.99999687468E+00 0.  0.
          4    1    3    3  502    0 -0.10247417077E+03 -0.32912232746E+03  0.37021876194E+03  0.50585016932E+03  0.00000000000E+00 0.  1.
   -9000007    1    1    2    0  501  0.19028778656E+03  0.29941315123E+03  0.14695911756E+04  0.15638273243E+04  0.40000000000E+03 0. -1.
<mgrwt>
<rscale>  2 0.53479652E+03</rscale>
<asrwt>0</asrwt>
<pdfrwt beam="1">  1        2 0.30453982E+00 0.53479652E+03</pdfrwt>
<pdfrwt beam="2">  1       -2 0.31030371E-01 0.53479652E+03</pdfrwt>
<totfact> 0.69821811E+01</totfact>
</mgrwt>
</event>
<event>
 6    1  0.9205235E-004  0.8933380E+03  0.7818608E-02  0.9433948E-01
          2   -1    0    0  502    0  0.00000000000E+00  0.00000000000E+00  0.24410248885E+04  0.24410248885E+04  0.00000000000E+00 0. -1.
         -2   -1    0    0    0  501 -0.00000000000E+00 -0.00000000000E+00 -0.33438519919E+03  0.33438519919E+03  0.00000000000E+00 0.  1.
    9000007    2    1    2  502    0 -0.75961517517E+03 -0.24758766088E+03  0.12603088733E+04  0.15447229974E+04  0.39934423533E+03 0.  0.
    9000005    1    3    3    0    0 -0.76556467351E+03 -0.27013332741E+03  0.12789625944E+04  0.15148622385E+04  0.99999687468E+00 0.  0.
          4    1    3    3  502    0  0.59494983349E+01  0.22545666527E+02 -0.18653721063E+02  0.29860758850E+02  0.00000000000E+00 0.  1.
   -9000007    1    1    2    0  501  0.75961517517E+03  0.24758766088E+03  0.84633081600E+03  0.12306870903E+04  0.40000000000E+03 0.  1.
<mgrwt>
<rscale>  2 0.89333797E+03</rscale>
<asrwt>0</asrwt>
<pdfrwt beam="1">  1        2 0.37554228E+00 0.89333797E+03</pdfrwt>
<pdfrwt beam="2">  1       -2 0.51443878E-01 0.89333797E+03</pdfrwt>
<totfact> 0.13770494E+01</totfact>
</mgrwt>
</event>
<event>
 6    1  0.9205235E-004  0.4006740E+03  0.7818608E-02  0.1043547E+00
         -2   -1    0    0    0  501 -0.00000000000E+00  0.00000000000E+00  0.22883539454E+03  0.22883539454E+03  0.00000000000E+00 0.  1.
          2   -1    0    0  502    0  0.00000000000E+00 -0.00000000000E+00 -0.71196019234E+03  0.71196019234E+03  0.00000000000E+00 0. -1.
    9000007    2    1    2  502    0  0.18659817890E+02  0.11324270774E+02 -0.18473101320E+03  0.44128054346E+03  0.40015814735E+03 0.  0.
    9000005    1    3    3    0    0  0.62696288953E+02  0.19528916458E+03 -0.56489634191E+02  0.21274576662E+03  0.99999687468E+00 0.  0.
          4    1    3    3  502    0 -0.44036471063E+02 -0.18396489380E+03 -0.12824137901E+03  0.22853477684E+03  0.00000000000E+00 0.  1.
   -9000007    1    1    2    0  501 -0.18659817890E+02 -0.11324270774E+02 -0.29839378460E+03  0.49951504342E+03  0.40000000000E+03 0. -1.
<mgrwt>
<rscale>  2 0.40067404E+03</rscale>
<asrwt>0</asrwt>
<pdfrwt beam="1">  1        2 0.10953233E+00 0.40067404E+03</pdfrwt>
<pdfrwt beam="2">  1       -2 0.35205446E-01 0.40067404E+03</pdfrwt>
<totfact> 0.31143734E+02</totfact>
</mgrwt>
</event>
<event>
 6    1  0.9205235E-004  0.4915781E+03  0.7818608E-02  0.1016001E+00
          2   -1    0    0  502    0  0.00000000000E+00  0.00000000000E+00  0.64736074466E+03  0.64736074466E+03  0.00000000000E+00 0.  1.
         -2   -1    0    0    0  501 -0.00000000000E+00 -0.00000000000E+00 -0.37969611647E+03  0.37969611647E+03  0.00000000000E+00 0. -1.
    9000007    2    1    2  502    0  0.21173180941E+03 -0.19210178621E+03  0.67072382341E+02  0.49604772329E+03  0.39978892421E+03 0.  0.
    9000005    1    3    3    0    0  0.69244417806E+02 -0.28359912038E+03  0.12431529264E+03  0.31729882202E+03  0.99999687468E+00 0.  0.
          4    1    3    3  502    0  0.14248739161E+03  0.91497334165E+02 -0.57242910299E+02  0.17874890127E+03  0.00000000000E+00 0.  1.
   -9000007    1    1    2    0  501 -0.21173180941E+03  0.19210178621E+03  0.20059224584E+03  0.53100913784E+03  0.40000000000E+03 0.  1.
<mgrwt>
<rscale>  2 0.49157810E+03</rscale>
<asrwt>0</asrwt>
<pdfrwt beam="1">  1        2 0.99593961E-01 0.49157810E+03</pdfrwt>
<pdfrwt beam="2">  1       -2 0.58414787E-01 0.49157810E+03</pdfrwt>
<totfact> 0.12739865E+02</totfact>
</mgrwt>
</event>
<event>
 6    1  0.9205235E-004  0.4261686E+03  0.7818608E-02  0.1035077E+00
         -2   -1    0    0    0  501 -0.00000000000E+00  0.00000000000E+00  0.30975948320E+03  0.30975948320E+03  0.00000000000E+00 0.  1.
          2   -1    0    0  502    0  0.00000000000E+00 -0.00000000000E+00 -0.66031128331E+03  0.66031128331E+03  0.00000000000E+00 0. -1.
    9000007    2    1    2  502    0 -0.15169191588E+02  0.15798550478E+03 -0.33605188101E+03  0.53949002873E+03  0.39106150447E+03 0.  0.
    9000005    1    3    3    0    0  0.14683501083E+03 -0.39769217331E+02 -0.19563807132E+03  0.24782527312E+03  0.99999687468E+00 0.  0.
          4    1    3    3  502    0 -0.16200420241E+03  0.19775472211E+03 -0.14041380969E+03  0.29166475562E+03  0.00000000000E+00 0.  1.
   -9000007    1    1    2    0  501  0.15169191588E+02 -0.15798550478E+03 -0.14499919103E+02  0.43058073778E+03  0.40000000000E+03 0. -1.
<mgrwt>
<rscale>  2 0.42616859E+03</rscale>
<asrwt>0</asrwt>
<pdfrwt beam="1">  1        2 0.10158635E+00 0.42616859E+03</pdfrwt>
<pdfrwt beam="2">  1       -2 0.47655306E-01 0.42616859E+03</pdfrwt>
<totfact> 0.18947857E+02</totfact>
</mgrwt>
</event>
<event>
 6    1  0.9205235E-004  0.5082695E+03  0.7818608E-02  0.1011643E+00
          1   -1    0    0  502    0  0.00000000000E+00  0.00000000000E+00  0.81250819471E+03  0.81250819471E+03  0.00000000000E+00 0.  1.
         -1   -1    0    0    0  501 -0.00000000000E+00 -0.00000000000E+00 -0.34045677227E+03  0.34045677227E+03  0.00000000000E+00 0. -1.
    9000007    2    1    2  502    0 -0.37520553311E+02 -0.31147001540E+03  0.87771944857E+02  0.51571142300E+03  0.39979118936E+03 0.  0.
    9000005    1    3    3    0    0 -0.90309857983E+02  0.21315900624E+02 -0.94650765835E+02  0.13255189752E+03  0.99999687468E+00 0.  0.
          4    1    3    3  502    0  0.52789304671E+02 -0.33278591602E+03  0.18242271069E+03  0.38315952548E+03  0.00000000000E+00 0.  1.
   -9000007    1    1    2    0  501  0.37520553311E+02  0.31147001540E+03  0.38427947758E+03  0.63725354397E+03  0.40000000000E+03 0. -1.
<mgrwt>
<rscale>  2 0.50826946E+03</rscale>
<asrwt>0</asrwt>
<pdfrwt beam="1">  1        1 0.12500126E+00 0.50826946E+03</pdfrwt>
<pdfrwt beam="2">  1       -1 0.52377965E-01 0.50826946E+03</pdfrwt>
<totfact> 0.82695202E+01</totfact>
</mgrwt>
</event>
<event>
 6    1  0.9205235E-004  0.4442684E+03  0.7818608E-02  0.1029445E+00
          1   -1    0    0  502    0  0.00000000000E+00  0.00000000000E+00  0.88228957593E+03  0.88228957593E+03  0.00000000000E+00 0.  1.
         -1   -1    0    0    0  501 -0.00000000000E+00 -0.00000000000E+00 -0.26861783301E+03  0.26861783301E+03  0.00000000000E+00 0. -1.
    9000007    2    1    2  502    0 -0.15580421016E+02  0.19312328854E+03  0.54202693657E+03  0.70071596925E+03  0.39958768187E+03 0.  0.
    9000005    1    3    3    0    0  0.41375415217E+02 -0.82155721720E+02  0.34596784086E+03  0.35798915416E+03  0.99999687468E+00 0.  0.
          4    1    3    3  502    0 -0.56955836233E+02  0.27527901026E+03  0.19605909572E+03  0.34272681509E+03  0.00000000000E+00 0.  1.
   -9000007    1    1    2    0  501  0.15580421016E+02 -0.19312328854E+03  0.71644806339E+02  0.45019143969E+03  0.40000000000E+03 0.  1.
<mgrwt>
<rscale>  2 0.44426844E+03</rscale>
<asrwt>0</asrwt>
<pdfrwt beam="1">  1        1 0.13573686E+00 0.44426844E+03</pdfrwt>
<pdfrwt beam="2">  1       -1 0.41325821E-01 0.44426844E+03</pdfrwt>
<totfact> 0.11318375E+02</totfact>
</mgrwt>
</event>
<event>
 6    1  0.9205235E-004  0.4454440E+03  0.7818608E-02  0.1029089E+00
         -1   -1    0    0    0  501 -0.00000000000E+00  0.00000000000E+00  0.15930687003E+03  0.15930687003E+03  0.00000000000E+00 0. -1.
          1   -1    0    0  502    0  0.00000000000E+00 -0.00000000000E+00 -0.13090576757E+04  0.13090576757E+04  0.00000000000E+00 0.  1.
    9000007    2    1    2  502    0 -0.18580313937E+03  0.71814690473E+02 -0.73487241295E+03  0.85860702253E+03  0.39684808107E+03 0.  0.
    9000005    1    3    3    0    0 -0.27001302055E+03  0.16300267699E+03 -0.46901589797E+03  0.56520245622E+03  0.99999687468E+00 0.  0.
          4    1    3    3  502    0  0.84209881178E+02 -0.91187986521E+02 -0.26585651498E+03  0.29340456631E+03  0.00000000000E+00 0.  1.
   -9000007    1    1    2    0  501  0.18580313937E+03 -0.71814690473E+02 -0.41487839274E+03  0.60975752322E+03  0.40000000000E+03 0. -1.
<mgrwt>
<rscale>  2 0.44544403E+03</rscale>
<asrwt>0</asrwt>
<pdfrwt beam="1">  1        1 0.20139348E+00 0.44544403E+03</pdfrwt>
<pdfrwt beam="2">  1       -1 0.24508750E-01 0.44544403E+03</pdfrwt>
<totfact> 0.13575738E+02</totfact>
</mgrwt>
</event>
<event>
 6    1  0.9205235E-004  0.4043691E+03  0.7818608E-02  0.1042277E+00
          1   -1    0    0  502    0  0.00000000000E+00  0.00000000000E+00  0.18359115944E+04  0.18359115944E+04  0.00000000000E+00 0.  1.
         -1   -1    0    0    0  501 -0.00000000000E+00 -0.00000000000E+00 -0.89954440328E+02  0.89954440328E+02  0.00000000000E+00 0. -1.
    9000007    2    1    2  502    0  0.31355045714E+02  0.49221050047E+02  0.96904860440E+03  0.10500848148E+04  0.40027124538E+03 0.  0.
    9000005    1    3    3    0    0  0.48438360114E+02  0.10112438378E+03  0.39430277804E+02  0.11886194735E+03  0.99999687468E+00 0.  0.
          4    1    3    3  502    0 -0.17083314400E+02 -0.51903333734E+02  0.92961832660E+03  0.93122286743E+03  0.00000000000E+00 0.  1.
   -9000007    1    1    2    0  501 -0.31355045714E+02 -0.49221050047E+02  0.77690854965E+03  0.87578121993E+03  0.40000000000E+03 0.  1.
<mgrwt>
<rscale>  2 0.40436908E+03</rscale>
<asrwt>0</asrwt>
<pdfrwt beam="1">  1        1 0.28244791E+00 0.40436908E+03</pdfrwt>
<pdfrwt beam="2">  1       -1 0.13839146E-01 0.40436908E+03</pdfrwt>
<totfact> 0.15426466E+02</totfact>
</mgrwt>
</event>
<event>
 6    1  0.9205235E-004  0.4001769E+03  0.7818608E-02  0.1043718E+00
          1   -1    0    0  502    0  0.00000000000E+00  0.00000000000E+00  0.11823489498E+04  0.11823489498E+04  0.00000000000E+00 0.  1.
         -1   -1    0    0    0  501 -0.00000000000E+00 -0.00000000000E+00 -0.13587043968E+03  0.13587043968E+03  0.00000000000E+00 0. -1.
    9000007    2    1    2  502    0 -0.16971311822E+02 -0.42157626924E+02  0.55685975526E+03  0.68434888531E+03  0.39519023123E+03 0.  0.
    9000005    1    3    3    0    0  0.18653650968E+03 -0.82496568006E+01  0.31759175438E+03  0.36841477810E+03  0.99999687468E+00 0.  0.
          4    1    3    3  502    0 -0.20350782150E+03 -0.33907970123E+02  0.23926800088E+03  0.31593410720E+03  0.00000000000E+00 0.  1.
   -9000007    1    1    2    0  501  0.16971311822E+02  0.42157626924E+02  0.48961875484E+03  0.63387050414E+03  0.40000000000E+03 0. -1.
<mgrwt>
<rscale>  2 0.40017688E+03</rscale>
<asrwt>0</asrwt>
<pdfrwt beam="1">  1        1 0.18189983E+00 0.40017688E+03</pdfrwt>
<pdfrwt beam="2">  1       -1 0.20903145E-01 0.40017688E+03</pdfrwt>
<totfact> 0.21865046E+02</totfact>
</mgrwt>
</event>
<event>
 6    1  0.9205235E-004  0.4060594E+03  0.7818608E-02  0.1041701E+00
         -2   -1    0    0    0  501 -0.00000000000E+00  0.00000000000E+00  0.67430607496E+02  0.67430607496E+02  0.00000000000E+00 0.  1.
          2   -1    0    0  502    0  0.00000000000E+00 -0.00000000000E+00 -0.26748344335E+04  0.26748344335E+04  0.00000000000E+00 0. -1.
    9000007    2    1    2  502    0  0.70704050726E+02  0.19846405254E+02 -0.17035667026E+04  0.17511472436E+04  0.39872824845E+03 0.  0.
    9000005    1    3    3    0    0 -0.54168485793E+01 -0.25731164326E+02 -0.16441641975E+04  0.16443747576E+04  0.99999687468E+00 0.  0.
          4    1    3    3  502    0  0.76120899306E+02  0.45577569581E+02 -0.59402505046E+02  0.10677248600E+03  0.00000000000E+00 0.  1.
   -9000007    1    1    2    0  501 -0.70704050726E+02 -0.19846405254E+02 -0.90383712339E+03  0.99111779734E+03  0.40000000000E+03 0.  1.
<mgrwt>
<rscale>  2 0.40605944E+03</rscale>
<asrwt>0</asrwt>
<pdfrwt beam="1">  1        2 0.41151305E+00 0.40605944E+03</pdfrwt>
<pdfrwt beam="2">  1       -2 0.10373938E-01 0.40605944E+03</pdfrwt>
<totfact> 0.19477452E+02</totfact>
</mgrwt>
</event>
<event>
 6    1  0.9205235E-004  0.4568710E+03  0.7818608E-02  0.1025693E+00
         -1   -1    0    0    0  501 -0.00000000000E+00  0.00000000000E+00  0.23152007623E+03  0.23152007623E+03  0.00000000000E+00 0.  1.
          1   -1    0    0  502    0  0.00000000000E+00 -0.00000000000E+00 -0.90624557701E+03  0.90624557701E+03  0.00000000000E+00 0. -1.
    9000007    2    1    2  502    0 -0.21781954338E+03  0.30783135724E+02 -0.29676756130E+03  0.54510625786E+03  0.40084522199E+03 0.  0.
    9000005    1    3    3    0    0  0.10382212412E+03  0.61943135555E+02 -0.14294052265E+03  0.18721372414E+03  0.99999687468E+00 0.  0.
          4    1    3    3  502    0 -0.32164166751E+03 -0.31159999832E+02 -0.15382703866E+03  0.35789253372E+03  0.00000000000E+00 0.  1.
   -9000007    1    1    2    0  501  0.21781954338E+03 -0.30783135724E+02 -0.37795793947E+03  0.59265939538E+03  0.40000000000E+03 0. -1.
<mgrwt>
<rscale>  2 0.45687102E+03</rscale>
<asrwt>0</asrwt>
<pdfrwt beam="1">  1        1 0.13942240E+00 0.45687102E+03</pdfrwt>
<pdfrwt beam="2">  1       -1 0.35618472E-01 0.45687102E+03</pdfrwt>
<totfact> 0.14103741E+02</totfact>
</mgrwt>
</event>
<event>
 6    1  0.9205235E-004  0.8591144E+03  0.7818608E-02  0.9478185E-01
         -2   -1    0    0    0  501 -0.00000000000E+00  0.00000000000E+00  0.51936899420E+03  0.51936899420E+03  0.00000000000E+00 0.  1.
          2   -1    0    0  502    0  0.00000000000E+00 -0.00000000000E+00 -0.14382846155E+04  0.14382846155E+04  0.00000000000E+00 0. -1.
    9000007    2    1    2  502    0  0.44761543847E+03  0.61263454931E+03 -0.56716360314E+03  0.10306098383E+04  0.40595740466E+03 0.  0.
    9000005    1    3    3    0    0  0.48113264174E+03  0.60082723973E+03 -0.60475323485E+03  0.97888174261E+03  0.99999687468E+00 0.  0.
          4    1    3    3  502    0 -0.33517203278E+02  0.11807309579E+02  0.37589631718E+02  0.51728095729E+02  0.00000000000E+00 0.  1.
   -9000007    1    1    2    0  501 -0.44761543847E+03 -0.61263454931E+03 -0.35175201817E+03  0.92704377138E+03  0.40000000000E+03 0.  1.
<mgrwt>
<rscale>  2 0.85911435E+03</rscale>
<asrwt>0</asrwt>
<pdfrwt beam="1">  1        2 0.22127456E+00 0.85911435E+03</pdfrwt>
<pdfrwt beam="2">  1       -2 0.79902922E-01 0.85911435E+03</pdfrwt>
<totfact> 0.19271009E+01</totfact>
</mgrwt>
</event>
<event>
 6    1  0.9205235E-004  0.5253066E+03  0.7818608E-02  0.1007377E+00
          1   -1    0    0  502    0  0.00000000000E+00  0.00000000000E+00  0.61574461687E+03  0.61574461687E+03  0.00000000000E+00 0.  1.
         -1   -1    0    0    0  501 -0.00000000000E+00 -0.00000000000E+00 -0.53459062784E+03  0.53459062784E+03  0.00000000000E+00 0. -1.
    9000007    2    1    2  502    0 -0.32897440816E+03  0.87757702135E+02 -0.19070180688E+03  0.55886998852E+03  0.40005363318E+03 0.  0.
    9000005    1    3    3    0    0 -0.27643016176E+03  0.19342968257E+03 -0.25643932198E+03  0.42378155019E+03  0.99999687468E+00 0.  0.
          4    1    3    3  502    0 -0.52544246395E+02 -0.10567198044E+03  0.65737515102E+02  0.13508843833E+03  0.00000000000E+00 0.  1.
   -9000007    1    1    2    0  501  0.32897440816E+03 -0.87757702135E+02  0.27185579591E+03  0.59146525619E+03  0.40000000000E+03 0.  1.
<mgrwt>
<rscale>  2 0.52530661E+03</rscale>
<asrwt>0</asrwt>
<pdfrwt beam="1">  1        1 0.94729941E-01 0.52530661E+03</pdfrwt>
<pdfrwt beam="2">  1       -1 0.82244712E-01 0.52530661E+03</pdfrwt>
<totfact> 0.50728806E+01</totfact>
</mgrwt>
</event>
<event>
 6    1  0.9205235E-004  0.5642206E+03  0.7818608E-02  0.9982550E-01
         -2   -1    0    0    0  501 -0.00000000000E+00  0.00000000000E+00  0.10433289590E+04  0.10433289590E+04  0.00000000000E+00 0. -1.
          2   -1    0    0  502    0  0.00000000000E+00 -0.00000000000E+00 -0.37971958264E+03  0.37971958264E+03  0.00000000000E+00 0.  1.
    9000007    2    1    2  502    0 -0.14090322474E+03  0.37260523448E+03  0.64702630447E+03  0.85828011322E+03  0.39914074532E+03 0.  0.
    9000005    1    3    3    0    0 -0.77572435592E+01  0.13744540796E+03  0.55651259278E+03  0.57328760750E+03  0.99999687468E+00 0.  0.
          4    1    3    3  502    0 -0.13314598118E+03  0.23515982652E+03  0.90513711685E+02  0.28499250572E+03  0.00000000000E+00 0.  1.
   -9000007    1    1    2    0  501  0.14090322474E+03 -0.37260523448E+03  0.16583071928E+02  0.56476842845E+03  0.40000000000E+03 0.  1.
<mgrwt>
<rscale>  2 0.56422058E+03</rscale>
<asrwt>0</asrwt>
<pdfrwt beam="1">  1        2 0.58418398E-01 0.56422058E+03</pdfrwt>
<pdfrwt beam="2">  1       -2 0.16051215E+00 0.56422058E+03</pdfrwt>
<totfact> 0.21714940E+01</totfact>
</mgrwt>
</event>
<event>
 6    1  0.9205235E-004  0.5038451E+03  0.7818608E-02  0.1012780E+00
         -2   -1    0    0    0  501 -0.00000000000E+00  0.00000000000E+00  0.18140942412E+03  0.18140942412E+03  0.00000000000E+00 0.  1.
          2   -1    0    0  502    0  0.00000000000E+00 -0.00000000000E+00 -0.16141887738E+04  0.16141887738E+04  0.00000000000E+00 0. -1.
    9000007    2    1    2  502    0  0.25216257437E+02  0.30507407807E+03 -0.10440939550E+04  0.11593730893E+04  0.40038446613E+03 0.  0.
    9000005    1    3    3    0    0 -0.16579712323E+03  0.32529953226E+02 -0.30166729030E+03  0.34576153337E+03  0.99999687468E+00 0.  0.
          4    1    3    3  502    0  0.19101338067E+03  0.27254412484E+03 -0.74242666468E+03  0.81361155597E+03  0.00000000000E+00 0.  1.
   -9000007    1    1    2    0  501 -0.25216257437E+02 -0.30507407807E+03 -0.38868539472E+03  0.63622510860E+03  0.40000000000E+03 0.  1.
<mgrwt>
<rscale>  2 0.50384508E+03</rscale>
<asrwt>0</asrwt>
<pdfrwt beam="1">  1        2 0.24833673E+00 0.50384508E+03</pdfrwt>
<pdfrwt beam="2">  1       -2 0.27909142E-01 0.50384508E+03</pdfrwt>
<totfact> 0.13417780E+02</totfact>
</mgrwt>
</event>
<event>
 6    1  0.9205235E-004  0.5502665E+03  0.7818608E-02  0.1001432E+00
         -1   -1    0    0    0  501 -0.00000000000E+00  0.00000000000E+00  0.17531083167E+03  0.17531083167E+03  0.00000000000E+00 0. -1.
          1   -1    0    0  502    0  0.00000000000E+00 -0.00000000000E+00 -0.17577541320E+04  0.17577541320E+04  0.00000000000E+00 0.  1.
    9000007    2    1    2  502    0 -0.22703178267E+03  0.30327616679E+03 -0.66282197302E+03  0.86104665722E+03  0.39818150926E+03 0.  0.
    9000005    1    3    3    0    0 -0.43188571194E+02  0.29788297014E+03 -0.19571210693E+03  0.35903167740E+03  0.99999687468E+00 0.  0.
          4    1    3    3  502    0 -0.18384321147E+03  0.53931966481E+01 -0.46710986609E+03  0.50201497983E+03  0.00000000000E+00 0.  1.
   -9000007    1    1    2    0  501  0.22703178267E+03 -0.30327616679E+03 -0.91962132730E+03  0.10720183064E+04  0.40000000000E+03 0. -1.
<mgrwt>
<rscale>  2 0.55026653E+03</rscale>
<asrwt>0</asrwt>
<pdfrwt beam="1">  1        1 0.27042371E+00 0.55026653E+03</pdfrwt>
<pdfrwt beam="2">  1       -1 0.26970897E-01 0.55026653E+03</pdfrwt>
<totfact> 0.56519396E+01</totfact>
</mgrwt>
</event>
<event>
 6    1  0.9205235E-004  0.6090373E+03  0.7818608E-02  0.9886832E-01
         -2   -1    0    0    0  501 -0.00000000000E+00  0.00000000000E+00  0.21988611895E+03  0.21988611895E+03  0.00000000000E+00 0.  1.
          2   -1    0    0  502    0  0.00000000000E+00 -0.00000000000E+00 -0.36175941215E+04  0.36175941215E+04  0.00000000000E+00 0. -1.
    9000007    2    1    2  502    0 -0.23398586475E+03 -0.39512505133E+03 -0.31006354334E+04  0.31598923846E+04  0.40013322763E+03 0.  0.
    9000005    1    3    3    0    0 -0.17250989781E+03 -0.47661200003E+03 -0.25557569427E+04  0.26055351108E+04  0.99999687468E+00 0.  0.
          4    1    3    3  502    0 -0.61475966935E+02  0.81486948693E+02 -0.54487849076E+03  0.55435727380E+03  0.00000000000E+00 0.  1.
   -9000007    1    1    2    0  501  0.23398586475E+03  0.39512505133E+03 -0.29707256907E+03  0.67758785584E+03  0.40000000000E+03 0.  1.
<mgrwt>
<rscale>  2 0.60903734E+03</rscale>
<asrwt>0</asrwt>
<pdfrwt beam="1">  1        2 0.55655296E+00 0.60903734E+03</pdfrwt>
<pdfrwt beam="2">  1       -2 0.33828633E-01 0.60903734E+03</pdfrwt>
<totfact> 0.61548369E+00</totfact>
</mgrwt>
</event>
<event>
 6    1  0.9205235E-004  0.4027064E+03  0.7818608E-02  0.1042847E+00
          2   -1    0    0  502    0  0.00000000000E+00  0.00000000000E+00  0.14065880907E+04  0.14065880907E+04  0.00000000000E+00 0. -1.
         -2   -1    0    0    0  501 -0.00000000000E+00 -0.00000000000E+00 -0.11549230628E+03  0.11549230628E+03  0.00000000000E+00 0.  1.
    9000007    2    1    2  502    0  0.66408194181E+01 -0.52551419923E+02  0.61286176282E+03  0.73289908685E+03  0.39841658971E+03 0.  0.
    9000005    1    3    3    0    0 -0.18136967519E+03 -0.96892641615E+02  0.36142731251E+03  0.41582910588E+03  0.99999687468E+00 0.  0.
          4    1    3    3  502    0  0.18801049461E+03  0.44341221693E+02  0.25143445031E+03  0.31706998097E+03  0.00000000000E+00 0.  1.
   -9000007    1    1    2    0  501 -0.66408194181E+01  0.52551419923E+02  0.67823402160E+03  0.78918131014E+03  0.40000000000E+03 0. -1.
<mgrwt>
<rscale>  2 0.40270636E+03</rscale>
<asrwt>0</asrwt>
<pdfrwt beam="1">  1        2 0.21639816E+00 0.40270636E+03</pdfrwt>
<pdfrwt beam="2">  1       -2 0.17768048E-01 0.40270636E+03</pdfrwt>
<totfact> 0.39057945E+02</totfact>
</mgrwt>
</event>
<event>
 6    1  0.9205235E-004  0.6411634E+03  0.7818608E-02  0.9823503E-01
          2   -1    0    0  502    0  0.00000000000E+00  0.00000000000E+00  0.63516568203E+03  0.63516568203E+03  0.00000000000E+00 0.  1.
         -2   -1    0    0    0  501 -0.00000000000E+00 -0.00000000000E+00 -0.65352556303E+03  0.65352556303E+03  0.00000000000E+00 0. -1.
    9000007    2    1    2  502    0 -0.45601806374E+03 -0.20794291504E+03  0.54124408966E+02  0.64336442657E+03  0.39974442254E+03 0.  0.
    9000005    1    3    3    0    0 -0.34906467776E+03  0.58035424573E+02  0.43137005315E+02  0.35647729379E+03  0.99999687468E+00 0.  0.
          4    1    3    3  502    0 -0.10695338598E+03 -0.26597833961E+03  0.10987403651E+02  0.28688713278E+03  0.00000000000E+00 0.  1.
   -9000007    1    1    2    0  501  0.45601806374E+03  0.20794291504E+03 -0.72484289970E+02  0.64532681849E+03  0.40000000000E+03 0. -1.
<mgrwt>
<rscale>  2 0.64116341E+03</rscale>
<asrwt>0</asrwt>
<pdfrwt beam="1">  1        2 0.97717798E-01 0.64116341E+03</pdfrwt>
<pdfrwt beam="2">  1       -2 0.10054239E+00 0.64116341E+03</pdfrwt>
<totfact> 0.38556722E+01</totfact>
</mgrwt>
</event>
<event>
 6    1  0.9205235E-004  0.5134108E+03  0.7818608E-02  0.1010337E+00
         -1   -1    0    0    0  501 -0.00000000000E+00  0.00000000000E+00  0.46498117955E+03  0.46498117955E+03  0.00000000000E+00 0. -1.
          1   -1    0    0  502    0  0.00000000000E+00 -0.00000000000E+00 -0.65136240765E+03  0.65136240765E+03  0.00000000000E+00 0.  1.
    9000007    2    1    2  502    0  0.32041002116E+03 -0.31696545207E+02 -0.29419362531E+03  0.59166200221E+03  0.39980843294E+03 0.  0.
    9000005    1    3    3    0    0  0.14073127045E+03  0.18198564404E+03 -0.96004221170E+02  0.24928272222E+03  0.99999687468E+00 0.  0.
          4    1    3    3  502    0  0.17967875070E+03 -0.21368218925E+03 -0.19818940414E+03  0.34237927999E+03  0.00000000000E+00 0.  1.
   -9000007    1    1    2    0  501 -0.32041002116E+03  0.31696545207E+02  0.10781239721E+03  0.52468158499E+03  0.40000000000E+03 0. -1.
<mgrwt>
<rscale>  2 0.51341078E+03</rscale>
<asrwt>0</asrwt>
<pdfrwt beam="1">  1        1 0.10020960E+00 0.51341078E+03</pdfrwt>
<pdfrwt beam="2">  1       -1 0.71535566E-01 0.51341078E+03</pdfrwt>
<totfact> 0.62628834E+01</totfact>
</mgrwt>
</event>
<event>
 6    1  0.9205235E-004  0.5046145E+03  0.7818608E-02  0.1012581E+00
          2   -1    0    0  502    0  0.00000000000E+00  0.00000000000E+00  0.87090184847E+03  0.87090184847E+03  0.00000000000E+00 0.  1.
         -2   -1    0    0    0  501 -0.00000000000E+00 -0.00000000000E+00 -0.29776372089E+03  0.29776372089E+03  0.00000000000E+00 0. -1.
    9000007    2    1    2  502    0 -0.25758952780E+02  0.30690444513E+03  0.36500729526E+03  0.62261401002E+03  0.39945465048E+03 0.  0.
    9000005    1    3    3    0    0  0.52054089334E+02  0.21136029207E+03 -0.19783167285E+02  0.21857533022E+03  0.99999687468E+00 0.  0.
          4    1    3    3  502    0 -0.77813042115E+02  0.95544153067E+02  0.38479046255E+03  0.40403867980E+03  0.00000000000E+00 0.  1.
   -9000007    1    1    2    0  501  0.25758952780E+02 -0.30690444513E+03  0.20813083231E+03  0.54605155933E+03  0.40000000000E+03 0. -1.
<mgrwt>
<rscale>  2 0.50461448E+03</rscale>
<asrwt>0</asrwt>
<pdfrwt beam="1">  1        2 0.13398490E+00 0.50461448E+03</pdfrwt>
<pdfrwt beam="2">  1       -2 0.45809804E-01 0.50461448E+03</pdfrwt>
<totfact> 0.14285722E+02</totfact>
</mgrwt>
</event>
<event>
 6    1  0.9205235E-004  0.6266669E+03  0.7818608E-02  0.9851575E-01
          2   -1    0    0  502    0  0.00000000000E+00  0.00000000000E+00  0.31590191826E+03  0.31590191826E+03  0.00000000000E+00 0.  1.
         -2   -1    0    0    0  501 -0.00000000000E+00 -0.00000000000E+00 -0.14325102270E+04  0.14325102270E+04  0.00000000000E+00 0. -1.
    9000007    2    1    2  502    0  0.40388245417E+03 -0.26372791609E+03 -0.24048156912E+03  0.67125314383E+03  0.40009492311E+03 0.  0.
    9000005    1    3    3    0    0  0.37102591985E+03 -0.35951612475E+03 -0.15686227518E+03  0.53992485638E+03  0.99999687468E+00 0.  0.
          4    1    3    3  502    0  0.32856534314E+02  0.95788208662E+02 -0.83619293940E+02  0.13132828745E+03  0.00000000000E+00 0.  1.
   -9000007    1    1    2    0  501 -0.40388245417E+03  0.26372791609E+03 -0.87612673964E+03  0.10771590015E+04  0.40000000000E+03 0. -1.
<mgrwt>
<rscale>  2 0.62666692E+03</rscale>
<asrwt>0</asrwt>
<pdfrwt beam="1">  1        2 0.48600295E-01 0.62666692E+03</pdfrwt>
<pdfrwt beam="2">  1       -2 0.22038619E+00 0.62666692E+03</pdfrwt>
<totfact> 0.10545330E+01</totfact>
</mgrwt>
</event>
<event>
 6    1  0.9205235E-004  0.4458947E+03  0.7818608E-02  0.1028953E+00
          1   -1    0    0  502    0  0.00000000000E+00  0.00000000000E+00  0.33770754426E+03  0.33770754426E+03  0.00000000000E+00 0. -1.
         -1   -1    0    0    0  501 -0.00000000000E+00 -0.00000000000E+00 -0.60187197805E+03  0.60187197805E+03  0.00000000000E+00 0.  1.
    9000007    2    1    2  502    0 -0.10579692386E+03  0.16654993829E+03 -0.20143817094E+03  0.48917253403E+03  0.39972560626E+03 0.  0.
    9000005    1    3    3    0    0  0.11602482255E+03  0.18888726617E+03 -0.11799183538E+03  0.25112393749E+03  0.99999687468E+00 0.  0.
          4    1    3    3  502    0 -0.22182174641E+03 -0.22337327884E+02 -0.83446335563E+02  0.23804859654E+03  0.00000000000E+00 0.  1.
   -9000007    1    1    2    0  501  0.10579692386E+03 -0.16654993829E+03 -0.62726262846E+02  0.45040698828E+03  0.40000000000E+03 0. -1.
<mgrwt>
<rscale>  2 0.44589474E+03</rscale>
<asrwt>0</asrwt>
<pdfrwt beam="1">  1        1 0.51955007E-01 0.44589474E+03</pdfrwt>
<pdfrwt beam="2">  1       -1 0.92595688E-01 0.44589474E+03</pdfrwt>
<totfact> 0.88854512E+01</totfact>
</mgrwt>
</event>
<event>
 6    1  0.9205235E-004  0.4602417E+03  0.7818608E-02  0.1024711E+00
          1   -1    0    0  502    0  0.00000000000E+00  0.00000000000E+00  0.92519635805E+03  0.92519635805E+03  0.00000000000E+00 0.  1.
         -1   -1    0    0    0  501 -0.00000000000E+00 -0.00000000000E+00 -0.29977125070E+03  0.29977125070E+03  0.00000000000E+00 0. -1.
    9000007    2    1    2  502    0  0.22328149953E+03 -0.43111494567E+02  0.61047880803E+03  0.76460186192E+03  0.40027291090E+03 0.  0.
    9000005    1    3    3    0    0  0.11008261069E+03  0.15963512320E+03  0.42591502831E+03  0.46798094520E+03  0.99999687468E+00 0.  0.
          4    1    3    3  502    0  0.11319888884E+03 -0.20274661777E+03  0.18456377972E+03  0.29662091672E+03  0.00000000000E+00 0.  1.
   -9000007    1    1    2    0  501 -0.22328149953E+03  0.43111494567E+02  0.14946299314E+02  0.46036574683E+03  0.40000000000E+03 0. -1.
<mgrwt>
<rscale>  2 0.46024168E+03</rscale>
<asrwt>0</asrwt>
<pdfrwt beam="1">  1        1 0.14233790E+00 0.46024168E+03</pdfrwt>
<pdfrwt beam="2">  1       -1 0.46118654E-01 0.46024168E+03</pdfrwt>
<totfact> 0.85386091E+01</totfact>
</mgrwt>
</event>
<event>
 6    1  0.9205235E-004  0.7461652E+03  0.7818608E-02  0.9641386E-01
          1   -1    0    0  502    0  0.00000000000E+00  0.00000000000E+00  0.85427819837E+03  0.85427819837E+03  0.00000000000E+00 0.  1.
         -1   -1    0    0    0  501 -0.00000000000E+00 -0.00000000000E+00 -0.73028653122E+03  0.73028653122E+03  0.00000000000E+00 0. -1.
    9000007    2    1    2  502    0 -0.12503770262E+03 -0.61747347843E+03  0.32183239259E+03  0.81252271241E+03  0.39963626665E+03 0.  0.
    9000005    1    3    3    0    0  0.60900436584E+02 -0.14273954748E+03 -0.69265539485E+02  0.16994751115E+03  0.99999687468E+00 0.  0.
          4    1    3    3  502    0 -0.18593813920E+03 -0.47473393095E+03  0.39109793207E+03  0.64257520126E+03  0.00000000000E+00 0.  1.
   -9000007    1    1    2    0  501  0.12503770262E+03  0.61747347843E+03 -0.19784072544E+03  0.77204201718E+03  0.40000000000E+03 0. -1.
<mgrwt>
<rscale>  2 0.74616518E+03</rscale>
<asrwt>0</asrwt>
<pdfrwt beam="1">  1        1 0.13142741E+00 0.74616518E+03</pdfrwt>
<pdfrwt beam="2">  1       -1 0.11235177E+00 0.74616518E+03</pdfrwt>
<totfact> 0.14846278E+01</totfact>
</mgrwt>
</event>
<event>
 6    1  0.9205235E-004  0.6321576E+03  0.7818608E-02  0.9840847E-01
          1   -1    0    0  502    0  0.00000000000E+00  0.00000000000E+00  0.13928100955E+04  0.13928100955E+04  0.00000000000E+00 0.  1.
         -1   -1    0    0    0  501 -0.00000000000E+00 -0.00000000000E+00 -0.29951702822E+03  0.29951702822E+03  0.00000000000E+00 0. -1.
    9000007    2    1    2  502    0 -0.27898245693E+03  0.40200541447E+03  0.37322690077E+03  0.73423795842E+03  0.40045910601E+03 0.  0.
    9000005    1    3    3    0    0 -0.27242909751E+03  0.10982654205E+03  0.32493608055E+03  0.43802276076E+03  0.99999687468E+00 0.  0.
          4    1    3    3  502    0 -0.65533594235E+01  0.29217887241E+03  0.48290820223E+02  0.29621519766E+03  0.00000000000E+00 0.  1.
   -9000007    1    1    2    0  501  0.27898245693E+03 -0.40200541447E+03  0.72006616652E+03  0.95808916532E+03  0.40000000000E+03 0.  1.
<mgrwt>
<rscale>  2 0.63215763E+03</rscale>
<asrwt>0</asrwt>
<pdfrwt beam="1">  1        1 0.21427847E+00 0.63215763E+03</pdfrwt>
<pdfrwt beam="2">  1       -1 0.46079544E-01 0.63215763E+03</pdfrwt>
<totfact> 0.38030432E+01</totfact>
</mgrwt>
</event>
<event>
 6    1  0.9205235E-004  0.5641379E+03  0.7818608E-02  0.9982735E-01
          2   -1    0    0  502    0  0.00000000000E+00  0.00000000000E+00  0.86662846202E+03  0.86662846202E+03  0.00000000000E+00 0.  1.
         -2   -1    0    0    0  501 -0.00000000000E+00 -0.00000000000E+00 -0.36773527442E+03  0.36773527442E+03  0.00000000000E+00 0. -1.
    9000007    2    1    2  502    0 -0.38516729581E+03  0.99472717600E+02  0.27233506444E+03  0.62643508069E+03  0.40000731955E+03 0.  0.
    9000005    1    3    3    0    0  0.55546139284E+02  0.49541858504E+02  0.14822404842E+03  0.16586481802E+03  0.99999687468E+00 0.  0.
          4    1    3    3  502    0 -0.44071343509E+03  0.49930859096E+02  0.12411101602E+03  0.46057026267E+03  0.00000000000E+00 0.  1.
   -9000007    1    1    2    0  501  0.38516729581E+03 -0.99472717600E+02  0.22655812316E+03  0.60792865574E+03  0.40000000000E+03 0.  1.
<mgrwt>
<rscale>  2 0.56413792E+03</rscale>
<asrwt>0</asrwt>
<pdfrwt beam="1">  1        2 0.13332746E+00 0.56413792E+03</pdfrwt>
<pdfrwt beam="2">  1       -2 0.56574658E-01 0.56413792E+03</pdfrwt>
<totfact> 0.93135348E+01</totfact>
</mgrwt>
</event>
<event>
 6    1  0.9205235E-004  0.4548142E+03  0.7818608E-02  0.1026296E+00
          1   -1    0    0  502    0  0.00000000000E+00  0.00000000000E+00  0.20226559929E+03  0.20226559929E+03  0.00000000000E+00 0.  1.
         -1   -1    0    0    0  501 -0.00000000000E+00 -0.00000000000E+00 -0.10781729566E+04  0.10781729566E+04  0.00000000000E+00 0. -1.
    9000007    2    1    2  502    0 -0.12343268104E+02  0.21618977462E+03 -0.58314542778E+03  0.73951349426E+03  0.39991404493E+03 0.  0.
    9000005    1    3    3    0    0  0.55512575442E+02 -0.61541086877E+02 -0.37963693848E+03  0.38857966553E+03  0.99999687468E+00 0.  0.
          4    1    3    3  502    0 -0.67855843546E+02  0.27773086150E+03 -0.20350848930E+03  0.35093382874E+03  0.00000000000E+00 0.  1.
   -9000007    1    1    2    0  501  0.12343268104E+02 -0.21618977462E+03 -0.29276192953E+03  0.54092506163E+03  0.40000000000E+03 0.  1.
<mgrwt>
<rscale>  2 0.45481424E+03</rscale>
<asrwt>0</asrwt>
<pdfrwt beam="1">  1        1 0.31117784E-01 0.45481424E+03</pdfrwt>
<pdfrwt beam="2">  1       -1 0.16587276E+00 0.45481424E+03</pdfrwt>
<totfact> 0.40739811E+01</totfact>
</mgrwt>
</event>
<event>
 6    1  0.9205235E-004  0.4010944E+03  0.7818608E-02  0.1043401E+00
          2   -1    0    0  502    0  0.00000000000E+00  0.00000000000E+00  0.31450089779E+04  0.31450089779E+04  0.00000000000E+00 0.  1.
         -2   -1    0    0    0  501 -0.00000000000E+00 -0.00000000000E+00 -0.51529106495E+02  0.51529106495E+02  0.00000000000E+00 0. -1.
    9000007    2    1    2  502    0 -0.23026369567E+02  0.23551505571E+02  0.16822858198E+04  0.17293797635E+04  0.39947953641E+03 0.  0.
    9000005    1    3    3    0    0 -0.81920735177E+02 -0.20780038994E+02  0.55922260816E+02  0.10134651509E+03  0.99999687468E+00 0.  0.
          4    1    3    3  502    0  0.58894365609E+02  0.44331544565E+02  0.16263635589E+04  0.16280332484E+04  0.00000000000E+00 0.  1.
   -9000007    1    1    2    0  501  0.23026369567E+02 -0.23551505571E+02  0.14111940517E+04  0.14671583209E+04  0.40000000000E+03 0. -1.
<mgrwt>
<rscale>  2 0.40109438E+03</rscale>
<asrwt>0</asrwt>
<pdfrwt beam="1">  1        2 0.48384738E+00 0.40109438E+03</pdfrwt>
<pdfrwt beam="2">  1       -2 0.79275573E-02 0.40109438E+03</pdfrwt>
<totfact> 0.15791069E+02</totfact>
</mgrwt>
</event>
<event>
 6    1  0.9205235E-004  0.4090030E+03  0.7818608E-02  0.1040706E+00
         -2   -1    0    0    0  501 -0.00000000000E+00  0.00000000000E+00  0.96502705078E+02  0.96502705078E+02  0.00000000000E+00 0.  1.
          2   -1    0    0  502    0  0.00000000000E+00 -0.00000000000E+00 -0.24130162415E+04  0.24130162415E+04  0.00000000000E+00 0. -1.
    9000007    2    1    2  502    0  0.26275431948E+02 -0.82411053697E+02 -0.18236390603E+04  0.18688886091E+04  0.39950373071E+03 0.  0.
    9000005    1    3    3    0    0 -0.27395725218E+02  0.15564444874E+03 -0.55854411590E+03  0.58047243654E+03  0.99999687468E+00 0.  0.
          4    1    3    3  502    0  0.53671157166E+02 -0.23805550243E+03 -0.12650949444E+04  0.12884161726E+04  0.00000000000E+00 0.  1.
   -9000007    1    1    2    0  501 -0.26275431948E+02  0.82411053697E+02 -0.49287447613E+03  0.64063033750E+03  0.40000000000E+03 0.  1.
<mgrwt>
<rscale>  2 0.40900303E+03</rscale>
<asrwt>0</asrwt>
<pdfrwt beam="1">  1        2 0.37123325E+00 0.40900303E+03</pdfrwt>
<pdfrwt beam="2">  1       -2 0.14846571E-01 0.40900303E+03</pdfrwt>
<totfact> 0.15141104E+02</totfact>
</mgrwt>
</event>
<event>
 6    1  0.9205235E-004  0.4425038E+03  0.7818608E-02  0.1029981E+00
         -1   -1    0    0    0  501 -0.00000000000E+00  0.00000000000E+00  0.38483418319E+03  0.38483418319E+03  0.00000000000E+00 0.  1.
          1   -1    0    0  502    0  0.00000000000E+00 -0.00000000000E+00 -0.51116448649E+03  0.51116448649E+03  0.00000000000E+00 0. -1.
    9000007    2    1    2  502    0 -0.18739082169E+03 -0.22859484202E+02 -0.93561857302E+02  0.45247680199E+03  0.40042921862E+03 0.  0.
    9000005    1    3    3    0    0 -0.27887123359E+02  0.41174179115E+02 -0.22856775267E+03  0.23391712684E+03  0.99999687468E+00 0.  0.
          4    1    3    3  502    0 -0.15950369833E+03 -0.64033663317E+02  0.13500589536E+03  0.21855967515E+03  0.00000000000E+00 0.  1.
   -9000007    1    1    2    0  501  0.18739082169E+03  0.22859484202E+02 -0.32768445999E+02  0.44352186770E+03  0.40000000000E+03 0.  1.
<mgrwt>
<rscale>  2 0.44250376E+03</rscale>
<asrwt>0</asrwt>
<pdfrwt beam="1">  1        1 0.78640690E-01 0.44250376E+03</pdfrwt>
<pdfrwt beam="2">  1       -1 0.59205259E-01 0.44250376E+03</pdfrwt>
<totfact> 0.12941183E+02</totfact>
</mgrwt>
</event>
<event>
 6    1  0.9205235E-004  0.4563880E+03  0.7818608E-02  0.1025834E+00
          2   -1    0    0  502    0  0.00000000000E+00  0.00000000000E+00  0.24923598492E+04  0.24923598492E+04  0.00000000000E+00 0. -1.
         -2   -1    0    0    0  501 -0.00000000000E+00 -0.00000000000E+00 -0.84309327246E+02  0.84309327246E+02  0.00000000000E+00 0.  1.
    9000007    2    1    2  502    0 -0.22063406068E+03  0.72509649080E+01  0.13232822838E+04  0.13996160359E+04  0.39889482327E+03 0.  0.
    9000005    1    3    3    0    0 -0.19041686074E+03 -0.17855291841E+03  0.64843262050E+03  0.69900328243E+03  0.99999687468E+00 0.  0.
          4    1    3    3  502    0 -0.30217199934E+02  0.18580388332E+03  0.67484966329E+03  0.70061275343E+03  0.00000000000E+00 0.  1.
   -9000007    1    1    2    0  501  0.22063406068E+03 -0.72509649080E+01  0.10847682381E+04  0.11770531406E+04  0.40000000000E+03 0.  1.
<mgrwt>
<rscale>  2 0.45638803E+03</rscale>
<asrwt>0</asrwt>
<pdfrwt beam="1">  1        2 0.38343992E+00 0.45638803E+03</pdfrwt>
<pdfrwt beam="2">  1       -2 0.12970668E-01 0.45638803E+03</pdfrwt>
<totfact> 0.16977428E+02</totfact>
</mgrwt>
</event>
<event>
 6    1  0.9205235E-004  0.4075381E+03  0.7818608E-02  0.1041200E+00
          1   -1    0    0  502    0  0.00000000000E+00  0.00000000000E+00  0.13803853225E+04  0.13803853225E+04  0.00000000000E+00 0. -1.
         -1   -1    0    0    0  501 -0.00000000000E+00 -0.00000000000E+00 -0.12181970107E+03  0.12181970107E+03  0.00000000000E+00 0.  1.
    9000007    2    1    2  502    0  0.75292921229E+02  0.21294370811E+02  0.71256818849E+03  0.82085660242E+03  0.39991207069E+03 0.  0.
    9000005    1    3    3    0    0  0.12753431845E+03  0.18186696066E+03  0.51561951081E+03  0.56143127245E+03  0.99999687468E+00 0.  0.
          4    1    3    3  502    0 -0.52241397223E+02 -0.16057258985E+03  0.19694867767E+03  0.25942532997E+03  0.00000000000E+00 0.  1.
   -9000007    1    1    2    0  501 -0.75292921229E+02 -0.21294370811E+02  0.54599743295E+03  0.68134842115E+03  0.40000000000E+03 0.  1.
<mgrwt>
<rscale>  2 0.40753810E+03</rscale>
<asrwt>0</asrwt>
<pdfrwt beam="1">  1        1 0.21236696E+00 0.40753810E+03</pdfrwt>
<pdfrwt beam="2">  1       -1 0.18741493E-01 0.40753810E+03</pdfrwt>
<totfact> 0.19019236E+02</totfact>
</mgrwt>
</event>
<event>
 6    1  0.9205235E-004  0.4313569E+03  0.7818608E-02  0.1033432E+00
         -1   -1    0    0    0  501 -0.00000000000E+00  0.00000000000E+00  0.24411610217E+03  0.24411610217E+03  0.00000000000E+00 0.  1.
          1   -1    0    0  502    0  0.00000000000E+00 -0.00000000000E+00 -0.80056572856E+03  0.80056572856E+03  0.00000000000E+00 0. -1.
    9000007    2    1    2  502    0 -0.41785650500E+02 -0.15863454729E+03 -0.16330635061E+03  0.46032526539E+03  0.39789373659E+03 0.  0.
    9000005    1    3    3    0    0 -0.19167303515E+03 -0.48740139833E+02 -0.18795424655E+03  0.27284052563E+03  0.99999687468E+00 0.  0.
          4    1    3    3  502    0  0.14988738465E+03 -0.10989440746E+03  0.24647895937E+02  0.18748473976E+03  0.00000000000E+00 0.  1.
   -9000007    1    1    2    0  501  0.41785650500E+02  0.15863454729E+03 -0.39314327577E+03  0.58435656535E+03  0.40000000000E+03 0. -1.
<mgrwt>
<rscale>  2 0.43135690E+03</rscale>
<asrwt>0</asrwt>
<pdfrwt beam="1">  1        1 0.12316396E+00 0.43135690E+03</pdfrwt>
<pdfrwt beam="2">  1       -1 0.37556324E-01 0.43135690E+03</pdfrwt>
<totfact> 0.15732650E+02</totfact>
</mgrwt>
</event>
<event>
 6    1  0.9205235E-004  0.4840474E+03  0.7818608E-02  0.1018029E+00
          1   -1    0    0  502    0  0.00000000000E+00  0.00000000000E+00  0.13100742053E+04  0.13100742053E+04  0.00000000000E+00 0.  1.
         -1   -1    0    0    0  501 -0.00000000000E+00 -0.00000000000E+00 -0.18866486125E+03  0.18866486125E+03  0.00000000000E+00 0. -1.
    9000007    2    1    2  502    0  0.61782512028E+02 -0.26551871771E+03  0.38973509403E+03  0.62143383097E+03  0.39996161630E+03 0.  0.
    9000005    1    3    3    0    0  0.19846149618E+02  0.92658533736E+02  0.61748852635E+01  0.94966324192E+02  0.99999687468E+00 0.  0.
          4    1    3    3  502    0  0.41936362410E+02 -0.35817725145E+03  0.38356020877E+03  0.52646750678E+03  0.00000000000E+00 0.  1.
   -9000007    1    1    2    0  501 -0.61782512028E+02  0.26551871771E+03  0.73167425002E+03  0.87730523559E+03  0.40000000000E+03 0.  1.
<mgrwt>
<rscale>  2 0.48404743E+03</rscale>
<asrwt>0</asrwt>
<pdfrwt beam="1">  1        1 0.20154987E+00 0.48404743E+03</pdfrwt>
<pdfrwt beam="2">  1       -1 0.29025364E-01 0.48404743E+03</pdfrwt>
<totfact> 0.10109349E+02</totfact>
</mgrwt>
</event>
<event>
 6    1  0.9205235E-004  0.4218167E+03  0.7818608E-02  0.1036477E+00
         -3   -1    0    0    0  501 -0.00000000000E+00  0.00000000000E+00  0.81306235662E+03  0.81306235662E+03  0.00000000000E+00 0.  1.
          3   -1    0    0  502    0  0.00000000000E+00 -0.00000000000E+00 -0.33988604278E+03  0.33988604278E+03  0.00000000000E+00 0. -1.
    9000007    2    1    2  502    0 -0.11732436081E+03  0.65696856253E+02  0.58054911676E+03  0.71750609396E+03  0.39962061425E+03 0.  0.
    9000005    1    3    3    0    0 -0.23295160449E+03  0.14784405570E+03  0.42782826782E+03  0.50907989705E+03  0.99999687468E+00 0.  0.
          4    1    3    3  502    0  0.11562724368E+03 -0.82147199447E+02  0.15272084894E+03  0.20842619691E+03  0.00000000000E+00 0.  1.
   -9000007    1    1    2    0  501  0.11732436081E+03 -0.65696856253E+02 -0.10737280292E+03  0.43544230544E+03  0.40000000000E+03 0. -1.
<mgrwt>
<rscale>  2 0.42181671E+03</rscale>
<asrwt>0</asrwt>
<pdfrwt beam="1">  1        3 0.52290161E-01 0.42181671E+03</pdfrwt>
<pdfrwt beam="2">  1       -3 0.12508652E+00 0.42181671E+03</pdfrwt>
<totfact> 0.48308921E+00</totfact>
</mgrwt>
</event>
<event>
 6    1  0.9205235E-004  0.5592706E+03  0.7818608E-02  0.9993706E-01
         -2   -1    0    0    0  501 -0.00000000000E+00  0.00000000000E+00  0.13621458973E+03  0.13621458973E+03  0.00000000000E+00 0.  1.
          2   -1    0    0  502    0  0.00000000000E+00 -0.00000000000E+00 -0.22976459229E+04  0.22976459229E+04  0.00000000000E+00 0. -1.
    9000007    2    1    2  502    0 -0.23071869531E+03  0.31704508351E+03 -0.10491829670E+04  0.11885311870E+04  0.39758368021E+03 0.  0.
    9000005    1    3    3    0    0 -0.26774929008E+03  0.32475950961E+02 -0.55512286392E+03  0.61717644460E+03  0.99999687468E+00 0.  0.
          4    1    3    3  502    0  0.37030594773E+02  0.28456913255E+03 -0.49406010311E+03  0.57135474238E+03  0.00000000000E+00 0.  1.
   -9000007    1    1    2    0  501  0.23071869531E+03 -0.31704508351E+03 -0.11122483662E+04  0.12453293257E+04  0.40000000000E+03 0. -1.
<mgrwt>
<rscale>  2 0.55927060E+03</rscale>
<asrwt>0</asrwt>
<pdfrwt beam="1">  1        2 0.35348399E+00 0.55927060E+03</pdfrwt>
<pdfrwt beam="2">  1       -2 0.20956091E-01 0.55927060E+03</pdfrwt>
<totfact> 0.94709407E+01</totfact>
</mgrwt>
</event>
<event>
 6    1  0.9205235E-004  0.4664972E+03  0.7818608E-02  0.1022914E+00
         -2   -1    0    0    0  501 -0.00000000000E+00  0.00000000000E+00  0.12245502163E+03  0.12245502163E+03  0.00000000000E+00 0.  1.
          2   -1    0    0  502    0  0.00000000000E+00 -0.00000000000E+00 -0.22906834440E+04  0.22906834440E+04  0.00000000000E+00 0. -1.
    9000007    2    1    2  502    0 -0.23793246570E+03 -0.33497711207E+02 -0.16551858468E+04  0.17196353011E+04  0.39971418085E+03 0.  0.
    9000005    1    3    3    0    0 -0.26518737163E+03  0.41300227021E+02 -0.16009896941E+04  0.16233296189E+04  0.99999687468E+00 0.  0.
          4    1    3    3  502    0  0.27254905931E+02 -0.74797938227E+02 -0.54196152680E+02  0.96305682209E+02  0.00000000000E+00 0.  1.
   -9000007    1    1    2    0  501  0.23793246570E+03  0.33497711207E+02 -0.51304257556E+03  0.69350316454E+03  0.40000000000E+03 0.  1.
<mgrwt>
<rscale>  2 0.46649720E+03</rscale>
<asrwt>0</asrwt>
<pdfrwt beam="1">  1        2 0.35241283E+00 0.46649720E+03</pdfrwt>
<pdfrwt beam="2">  1       -2 0.18839235E-01 0.46649720E+03</pdfrwt>
<totfact> 0.11673718E+02</totfact>
</mgrwt>
</event>
<event>
 6    1  0.9205235E-004  0.4718163E+03  0.7818608E-02  0.1021409E+00
          2   -1    0    0  502    0  0.00000000000E+00  0.00000000000E+00  0.15371399677E+04  0.15371399677E+04  0.00000000000E+00 0.  1.
         -2   -1    0    0    0  501 -0.00000000000E+00 -0.00000000000E+00 -0.17600557363E+03  0.17600557363E+03  0.00000000000E+00 0. -1.
    9000007    2    1    2  502    0  0.14180280475E+03 -0.20473124079E+03  0.10418584528E+04  0.11439706622E+04  0.40146845941E+03 0.  0.
    9000005    1    3    3    0    0  0.27871305177E+03 -0.17783417383E+03  0.67908502706E+03  0.75529029689E+03  0.99999687468E+00 0.  0.
          4    1    3    3  502    0 -0.13691024701E+03 -0.26897066952E+02  0.36277342571E+03  0.38868036528E+03  0.00000000000E+00 0.  1.
   -9000007    1    1    2    0  501 -0.14180280475E+03  0.20473124079E+03  0.31927594132E+03  0.56917487918E+03  0.40000000000E+03 0. -1.
<mgrwt>
<rscale>  2 0.47181628E+03</rscale>
<asrwt>0</asrwt>
<pdfrwt beam="1">  1        2 0.23648306E+00 0.47181628E+03</pdfrwt>
<pdfrwt beam="2">  1       -2 0.27077782E-01 0.47181628E+03</pdfrwt>
<totfact> 0.15678011E+02</totfact>
</mgrwt>
</event>
<event>
 6    1  0.9205235E-004  0.6141755E+03  0.7818608E-02  0.9876425E-01
         -2   -1    0    0    0  501 -0.00000000000E+00  0.00000000000E+00  0.12412765126E+03  0.12412765126E+03  0.00000000000E+00 0.  1.
          2   -1    0    0  502    0  0.00000000000E+00 -0.00000000000E+00 -0.31382550226E+04  0.31382550226E+04  0.00000000000E+00 0. -1.
    9000007    2    1    2  502    0  0.46407982089E+03  0.42836399034E+02 -0.12168381957E+04  0.13630529452E+04  0.40001637428E+03 0.  0.
    9000005    1    3    3    0    0 -0.18408766602E+00 -0.10246789591E+03 -0.39455790024E+03  0.40764769130E+03  0.99999687468E+00 0.  0.
          4    1    3    3  502    0  0.46426390855E+03  0.14530429494E+03 -0.82228029550E+03  0.95540525395E+03  0.00000000000E+00 0.  1.
   -9000007    1    1    2    0  501 -0.46407982089E+03 -0.42836399034E+02 -0.17972891756E+04  0.18993297286E+04  0.40000000000E+03 0. -1.
<mgrwt>
<rscale>  2 0.61417553E+03</rscale>
<asrwt>0</asrwt>
<pdfrwt beam="1">  1        2 0.48280839E+00 0.61417553E+03</pdfrwt>
<pdfrwt beam="2">  1       -2 0.19096565E-01 0.61417553E+03</pdfrwt>
<totfact> 0.35752481E+01</totfact>
</mgrwt>
</event>
<event>
 6    1  0.9205235E-004  0.5277509E+03  0.7818608E-02  0.1006779E+00
         -1   -1    0    0    0  501 -0.00000000000E+00  0.00000000000E+00  0.34837207500E+03  0.34837207500E+03  0.00000000000E+00 0. -1.
          1   -1    0    0  502    0  0.00000000000E+00 -0.00000000000E+00 -0.96015146895E+03  0.96015146895E+03  0.00000000000E+00 0.  1.
    9000007    2    1    2  502    0 -0.33926082193E+03  0.57790896605E+02 -0.38298672368E+02  0.52921755075E+03  0.40020836409E+03 0.  0.
    9000005    1    3    3    0    0 -0.12110225725E+03 -0.11247701352E+03 -0.15712316670E+03  0.22804719860E+03  0.99999687468E+00 0.  0.
          4    1    3    3  502    0 -0.21815856468E+03  0.17026791012E+03  0.11882449433E+03  0.30117035215E+03  0.00000000000E+00 0.  1.
   -9000007    1    1    2    0  501  0.33926082193E+03 -0.57790896605E+02 -0.57348072158E+03  0.77930599321E+03  0.40000000000E+03 0. -1.
<mgrwt>
<rscale>  2 0.52775093E+03</rscale>
<asrwt>0</asrwt>
<pdfrwt beam="1">  1        1 0.14771561E+00 0.52775093E+03</pdfrwt>
<pdfrwt beam="2">  1       -1 0.53595704E-01 0.52775093E+03</pdfrwt>
<totfact> 0.59906864E+01</totfact>
</mgrwt>
</event>
<event>
 6    1  0.9205235E-004  0.4171040E+03  0.7818608E-02  0.1038013E+00
         -2   -1    0    0    0  501 -0.00000000000E+00  0.00000000000E+00  0.25215271875E+03  0.25215271875E+03  0.00000000000E+00 0. -1.
          2   -1    0    0  502    0  0.00000000000E+00 -0.00000000000E+00 -0.73154888323E+03  0.73154888323E+03  0.00000000000E+00 0.  1.
    9000007    2    1    2  502    0 -0.10850090047E+03  0.36975685491E+02 -0.12297753130E+03  0.43582032944E+03  0.40208984024E+03 0.  0.
    9000005    1    3    3    0    0 -0.67689017887E+02  0.21517296949E+02  0.14651003013E+03  0.16282194611E+03  0.99999687468E+00 0.  0.
          4    1    3    3  502    0 -0.40811882586E+02  0.15458388542E+02 -0.26948756143E+03  0.27299838333E+03  0.00000000000E+00 0.  1.
   -9000007    1    1    2    0  501  0.10850090047E+03 -0.36975685491E+02 -0.35641863318E+03  0.54788127254E+03  0.40000000000E+03 0. -1.
<mgrwt>
<rscale>  2 0.41710400E+03</rscale>
<asrwt>0</asrwt>
<pdfrwt beam="1">  1        2 0.11254598E+00 0.41710400E+03</pdfrwt>
<pdfrwt beam="2">  1       -2 0.38792726E-01 0.41710400E+03</pdfrwt>
<totfact> 0.24998218E+02</totfact>
</mgrwt>
</event>
<event>
 6    1  0.9205235E-004  0.4653229E+03  0.7818608E-02  0.1023249E+00
          2   -1    0    0  502    0  0.00000000000E+00  0.00000000000E+00  0.23265182907E+04  0.23265182907E+04  0.00000000000E+00 0. -1.
         -2   -1    0    0    0  501 -0.00000000000E+00 -0.00000000000E+00 -0.12072933812E+03  0.12072933812E+03  0.00000000000E+00 0.  1.
    9000007    2    1    2  502    0  0.14445279982E+03  0.18885910897E+03  0.51717775554E+03  0.69569341922E+03  0.39997765976E+03 0.  0.
    9000005    1    3    3    0    0  0.15418815533E+03 -0.26799974809E+02  0.43905427676E+03  0.46611359541E+03  0.99999687468E+00 0.  0.
          4    1    3    3  502    0 -0.97353555123E+01  0.21565908378E+03  0.78123478778E+02  0.22957982380E+03  0.00000000000E+00 0.  1.
   -9000007    1    1    2    0  501 -0.14445279982E+03 -0.18885910897E+03  0.16886111970E+04  0.17515542096E+04  0.40000000000E+03 0. -1.
<mgrwt>
<rscale>  2 0.46532294E+03</rscale>
<asrwt>0</asrwt>
<pdfrwt beam="1">  1        2 0.35792586E+00 0.46532294E+03</pdfrwt>
<pdfrwt beam="2">  1       -2 0.18573746E-01 0.46532294E+03</pdfrwt>
<totfact> 0.11436422E+02</totfact>
</mgrwt>
</event>
<event>
 6    1  0.9205235E-004  0.4041003E+03  0.7818608E-02  0.1042369E+00
         -1   -1    0    0    0  501 -0.00000000000E+00  0.00000000000E+00  0.27865368715E+03  0.27865368715E+03  0.00000000000E+00 0.  1.
          1   -1    0    0  502    0  0.00000000000E+00 -0.00000000000E+00 -0.99028243002E+03  0.99028243002E+03  0.00000000000E+00 0. -1.
    9000007    2    1    2  502    0  0.75985377336E+01  0.56802111566E+02  0.49556143872E+02  0.40714342199E+03  0.40003216998E+03 0.  0.
    9000005    1    3    3    0    0 -0.93236815765E+02 -0.58782659840E+02 -0.13036207199E+03  0.17071547885E+03  0.99999687468E+00 0.  0.
          4    1    3    3  502    0  0.10083535350E+03  0.11558477141E+03  0.17991821586E+03  0.23642794314E+03  0.00000000000E+00 0.  1.
   -9000007    1    1    2    0  501 -0.75985377336E+01 -0.56802111566E+02 -0.76118488675E+03  0.86179269518E+03  0.40000000000E+03 0. -1.
<mgrwt>
<rscale>  2 0.40410034E+03</rscale>
<asrwt>0</asrwt>
<pdfrwt beam="1">  1        1 0.15235114E+00 0.40410034E+03</pdfrwt>
<pdfrwt beam="2">  1       -1 0.42869799E-01 0.40410034E+03</pdfrwt>
<totfact> 0.87600256E+01</totfact>
</mgrwt>
</event>
<event>
 6    1  0.9205235E-004  0.5297909E+03  0.7818608E-02  0.1006283E+00
          1   -1    0    0  502    0  0.00000000000E+00  0.00000000000E+00  0.18482440826E+03  0.18482440826E+03  0.00000000000E+00 0.  1.
         -1   -1    0    0    0  501 -0.00000000000E+00 -0.00000000000E+00 -0.15186493747E+04  0.15186493747E+04  0.00000000000E+00 0. -1.
    9000007    2    1    2  502    0  0.25058104121E+03  0.24052159615E+03 -0.66334179648E+03  0.84896270776E+03  0.40009229408E+03 0.  0.
    9000005    1    3    3    0    0 -0.92177092413E+02  0.11039892053E+03 -0.30049211394E+03  0.33313818237E+03  0.99999687468E+00 0.  0.
          4    1    3    3  502    0  0.34275813362E+03  0.13012267562E+03 -0.36284968255E+03  0.51582452539E+03  0.00000000000E+00 0.  1.
   -9000007    1    1    2    0  501 -0.25058104121E+03 -0.24052159615E+03 -0.67048316993E+03  0.85451107517E+03  0.40000000000E+03 0.  1.
<mgrwt>
<rscale>  2 0.52979092E+03</rscale>
<asrwt>0</asrwt>
<pdfrwt beam="1">  1        1 0.28434527E-01 0.52979092E+03</pdfrwt>
<pdfrwt beam="2">  1       -1 0.23363835E+00 0.52979092E+03</pdfrwt>
<totfact> 0.15609300E+01</totfact>
</mgrwt>
</event>
<event>
 6    1  0.9205235E-004  0.4189674E+03  0.7818608E-02  0.1037403E+00
          2   -1    0    0  502    0  0.00000000000E+00  0.00000000000E+00  0.25910182872E+04  0.25910182872E+04  0.00000000000E+00 0. -1.
         -2   -1    0    0    0  501 -0.00000000000E+00 -0.00000000000E+00 -0.70186132331E+02  0.70186132331E+02  0.00000000000E+00 0.  1.
    9000007    2    1    2  502    0  0.92589069174E+02 -0.82946662709E+02  0.10126442291E+04  0.10959300972E+04  0.40020189745E+03 0.  0.
    9000005    1    3    3    0    0  0.55388112629E+02 -0.17522089679E+03  0.17957323647E+03  0.25693920087E+03  0.99999687468E+00 0.  0.
          4    1    3    3  502    0  0.37200956545E+02  0.92274234079E+02  0.83307099261E+03  0.83899089636E+03  0.00000000000E+00 0.  1.
   -9000007    1    1    2    0  501 -0.92589069174E+02  0.82946662709E+02  0.15081879258E+04  0.15652743223E+04  0.40000000000E+03 0. -1.
<mgrwt>
<rscale>  2 0.41896736E+03</rscale>
<asrwt>0</asrwt>
<pdfrwt beam="1">  1        2 0.39861812E+00 0.41896736E+03</pdfrwt>
<pdfrwt beam="2">  1       -2 0.10797869E-01 0.41896736E+03</pdfrwt>
<totfact> 0.20312246E+02</totfact>
</mgrwt>
</event>
<event>
 6    1  0.9205235E-004  0.4799645E+03  0.7818608E-02  0.1019145E+00
         -2   -1    0    0    0  501 -0.00000000000E+00  0.00000000000E+00  0.19636127206E+03  0.19636127206E+03  0.00000000000E+00 0. -1.
          2   -1    0    0  502    0  0.00000000000E+00 -0.00000000000E+00 -0.19197878961E+04  0.19197878961E+04  0.00000000000E+00 0.  1.
    9000007    2    1    2  502    0  0.22285925887E+03 -0.14567573464E+03 -0.20128009169E+03  0.51996066586E+03  0.39869505866E+03 0.  0.
    9000005    1    3    3    0    0 -0.75893461118E+02  0.13805670194E+02  0.55438833035E+02  0.94999358798E+02  0.99999687468E+00 0.  0.
          4    1    3    3  502    0  0.29875271999E+03 -0.15948140483E+03 -0.25671892472E+03  0.42496130706E+03  0.00000000000E+00 0.  1.
   -9000007    1    1    2    0  501 -0.22285925887E+03  0.14567573464E+03 -0.15221465324E+04  0.15961885023E+04  0.40000000000E+03 0.  1.
<mgrwt>
<rscale>  2 0.47996453E+03</rscale>
<asrwt>0</asrwt>
<pdfrwt beam="1">  1        2 0.29535198E+00 0.47996453E+03</pdfrwt>
<pdfrwt beam="2">  1       -2 0.30209427E-01 0.47996453E+03</pdfrwt>
<totfact> 0.79723465E+01</totfact>
</mgrwt>
</event>
<event>
 6    1  0.9205235E-004  0.9596481E+03  0.7818608E-02  0.9353944E-01
         -1   -1    0    0    0  501 -0.00000000000E+00  0.00000000000E+00  0.78541611297E+03  0.78541611297E+03  0.00000000000E+00 0. -1.
          1   -1    0    0  502    0  0.00000000000E+00 -0.00000000000E+00 -0.34253143101E+04  0.34253143101E+04  0.00000000000E+00 0.  1.
    9000007    2    1    2  502    0 -0.66180164004E+03 -0.56873529130E+03  0.38758417478E+03  0.10347123572E+04  0.39870656795E+03 0.  0.
    9000005    1    3    3    0    0 -0.19552159859E+03 -0.53860520102E+02  0.25788125144E+03  0.32807528249E+03  0.99999687468E+00 0.  0.
          4    1    3    3  502    0 -0.46628004145E+03 -0.51487477120E+03  0.12970292334E+03  0.70663707474E+03  0.00000000000E+00 0.  1.
   -9000007    1    1    2    0  501  0.66180164004E+03  0.56873529130E+03 -0.30274823719E+04  0.31760180659E+04  0.40000000000E+03 0.  1.
<mgrwt>
<rscale>  2 0.95964814E+03</rscale>
<asrwt>0</asrwt>
<pdfrwt beam="1">  1        1 0.52697143E+00 0.95964814E+03</pdfrwt>
<pdfrwt beam="2">  1       -1 0.12083325E+00 0.95964814E+03</pdfrwt>
<totfact> 0.18205876E-01</totfact>
</mgrwt>
</event>
<event>
 6    1  0.9205235E-004  0.4063918E+03  0.7818608E-02  0.1041589E+00
          2   -1    0    0  502    0  0.00000000000E+00  0.00000000000E+00  0.15871125595E+04  0.15871125595E+04  0.00000000000E+00 0.  1.
         -2   -1    0    0    0  501 -0.00000000000E+00 -0.00000000000E+00 -0.20039088336E+03  0.20039088336E+03  0.00000000000E+00 0. -1.
    9000007    2    1    2  502    0 -0.63118137683E+02  0.29583196427E+02  0.74011841093E+02  0.41343423942E+03  0.40073813505E+03 0.  0.
    9000005    1    3    3    0    0 -0.12191205707E+03 -0.32589813630E+02  0.21453986416E+03  0.24890359363E+03  0.99999687468E+00 0.  0.
          4    1    3    3  502    0  0.58793919386E+02  0.62173010057E+02 -0.14052802307E+03  0.16453064579E+03  0.00000000000E+00 0.  1.
   -9000007    1    1    2    0  501  0.63118137683E+02 -0.29583196427E+02  0.13127098351E+04  0.13740692035E+04  0.40000000000E+03 0.  1.
<mgrwt>
<rscale>  2 0.40639184E+03</rscale>
<asrwt>0</asrwt>
<pdfrwt beam="1">  1        2 0.24417115E+00 0.40639184E+03</pdfrwt>
<pdfrwt beam="2">  1       -2 0.30829368E-01 0.40639184E+03</pdfrwt>
<totfact> 0.11730283E+02</totfact>
</mgrwt>
</event>
<event>
 6    1  0.9205235E-004  0.4513471E+03  0.7818608E-02  0.1027321E+00
          2   -1    0    0  502    0  0.00000000000E+00  0.00000000000E+00  0.99126607852E+03  0.99126607852E+03  0.00000000000E+00 0.  1.
         -2   -1    0    0    0  501 -0.00000000000E+00 -0.00000000000E+00 -0.21544499359E+03  0.21544499359E+03  0.00000000000E+00 0. -1.
    9000007    2    1    2  502    0  0.20715239454E+03 -0.20420951368E+02  0.25869046919E+03  0.52059650183E+03  0.40096237860E+03 0.  0.
    9000005    1    3    3    0    0 -0.75537294865E+02 -0.80878853933E+02 -0.27261184010E+02  0.11398001613E+03  0.99999687468E+00 0.  0.
          4    1    3    3  502    0  0.28268968940E+03  0.60457902565E+02  0.28595165320E+03  0.40661648570E+03  0.00000000000E+00 0.  1.
   -9000007    1    1    2    0  501 -0.20715239454E+03  0.20420951368E+02  0.51713061574E+03  0.68611457028E+03  0.40000000000E+03 0. -1.
<mgrwt>
<rscale>  2 0.45134707E+03</rscale>
<asrwt>0</asrwt>
<pdfrwt beam="1">  1        2 0.15250247E+00 0.45134707E+03</pdfrwt>
<pdfrwt beam="2">  1       -2 0.33145384E-01 0.45134707E+03</pdfrwt>
<totfact> 0.22362532E+02</totfact>
</mgrwt>
</event>
<event>
 6    1  0.9205235E-004  0.4009836E+03  0.7818608E-02  0.1043440E+00
          1   -1    0    0  502    0  0.00000000000E+00  0.00000000000E+00  0.43622031236E+03  0.43622031236E+03  0.00000000000E+00 0. -1.
         -1   -1    0    0    0  501 -0.00000000000E+00 -0.00000000000E+00 -0.40910846427E+03  0.40910846427E+03  0.00000000000E+00 0.  1.
    9000007    2    1    2  502    0 -0.14246305196E+02  0.33926174517E+02  0.14654286633E+03  0.42626110829E+03  0.39858471903E+03 0.  0.
    9000005    1    3    3    0    0 -0.12139554808E+03 -0.14471661686E+03  0.43415325925E+02  0.19381864928E+03  0.99999687468E+00 0.  0.
          4    1    3    3  502    0  0.10714924288E+03  0.17864279138E+03  0.10312754040E+03  0.23244245901E+03  0.00000000000E+00 0.  1.
   -9000007    1    1    2    0  501  0.14246305196E+02 -0.33926174517E+02 -0.11943101824E+03  0.41906766834E+03  0.40000000000E+03 0.  1.
<mgrwt>
<rscale>  2 0.40098359E+03</rscale>
<asrwt>0</asrwt>
<pdfrwt beam="1">  1        1 0.67110818E-01 0.40098359E+03</pdfrwt>
<pdfrwt beam="2">  1       -1 0.62939763E-01 0.40098359E+03</pdfrwt>
<totfact> 0.14256054E+02</totfact>
</mgrwt>
</event>
<event>
 6    1  0.9205235E-004  0.6551213E+03  0.7818608E-02  0.9797217E-01
         -2   -1    0    0    0  501 -0.00000000000E+00  0.00000000000E+00  0.10094211442E+04  0.10094211442E+04  0.00000000000E+00 0.  1.
          2   -1    0    0  502    0  0.00000000000E+00 -0.00000000000E+00 -0.13709840607E+04  0.13709840607E+04  0.00000000000E+00 0. -1.
    9000007    2    1    2  502    0 -0.42839157171E+03 -0.29269615463E+03 -0.11693470513E+04  0.13403544436E+04  0.39998391256E+03 0.  0.
    9000005    1    3    3    0    0 -0.28860916608E+02  0.32251001361E+02 -0.46926214816E+03  0.47125475412E+03  0.99999687468E+00 0.  0.
          4    1    3    3  502    0 -0.39953065510E+03 -0.32494715599E+03 -0.70008490317E+03  0.86909968945E+03  0.00000000000E+00 0.  1.
   -9000007    1    1    2    0  501  0.42839157171E+03  0.29269615463E+03  0.80778413487E+03  0.10400507614E+04  0.40000000000E+03 0.  1.
<mgrwt>
<rscale>  2 0.65512132E+03</rscale>
<asrwt>0</asrwt>
<pdfrwt beam="1">  1        2 0.21092062E+00 0.65512132E+03</pdfrwt>
<pdfrwt beam="2">  1       -2 0.15529556E+00 0.65512132E+03</pdfrwt>
<totfact> 0.42731365E+00</totfact>
</mgrwt>
</event>
<event>
 6    1  0.9205235E-004  0.4443879E+03  0.7818608E-02  0.1029409E+00
          2   -1    0    0  502    0  0.00000000000E+00  0.00000000000E+00  0.23459740321E+04  0.23459740321E+04  0.00000000000E+00 0.  1.
         -2   -1    0    0    0  501 -0.00000000000E+00 -0.00000000000E+00 -0.10993959476E+03  0.10993959476E+03  0.00000000000E+00 0. -1.
    9000007    2    1    2  502    0  0.19590588709E+02 -0.19678211675E+03  0.52011383718E+03  0.68292448456E+03  0.39592986165E+03 0.  0.
    9000005    1    3    3    0    0 -0.16323994944E+03 -0.20121130250E+03  0.32203123580E+03  0.41332600472E+03  0.99999687468E+00 0.  0.
          4    1    3    3  502    0  0.18283053815E+03  0.44291857493E+01  0.19808260138E+03  0.26959847985E+03  0.00000000000E+00 0.  1.
   -9000007    1    1    2    0  501 -0.19590588709E+02  0.19678211675E+03  0.17159206001E+04  0.17729891422E+04  0.40000000000E+03 0.  1.
<mgrwt>
<rscale>  2 0.44438787E+03</rscale>
<asrwt>0</asrwt>
<pdfrwt beam="1">  1        2 0.36091904E+00 0.44438787E+03</pdfrwt>
<pdfrwt beam="2">  1       -2 0.16913786E-01 0.44438787E+03</pdfrwt>
<totfact> 0.13144200E+02</totfact>
</mgrwt>
</event>
<event>
 6    1  0.9205235E-004  0.4959658E+03  0.7818608E-02  0.1014837E+00
         -1   -1    0    0    0  501 -0.00000000000E+00  0.00000000000E+00  0.28160627211E+03  0.28160627211E+03  0.00000000000E+00 0. -1.
          1   -1    0    0  502    0  0.00000000000E+00 -0.00000000000E+00 -0.91697212079E+03  0.91697212079E+03  0.00000000000E+00 0.  1.
    9000007    2    1    2  502    0 -0.20847688029E+03 -0.20739674115E+03 -0.18688968648E+03  0.52954409937E+03  0.39876456765E+03 0.  0.
    9000005    1    3    3    0    0 -0.19622790579E+03 -0.12380525618E+03  0.83247444613E+02  0.24650409631E+03  0.99999687468E+00 0.  0.
          4    1    3    3  502    0 -0.12248974492E+02 -0.83591484974E+02 -0.27013713109E+03  0.28304000306E+03  0.00000000000E+00 0.  1.
   -9000007    1    1    2    0  501  0.20847688029E+03  0.20739674115E+03 -0.44847616220E+03  0.66903429352E+03  0.40000000000E+03 0.  1.
<mgrwt>
<rscale>  2 0.49596584E+03</rscale>
<asrwt>0</asrwt>
<pdfrwt beam="1">  1        1 0.14107263E+00 0.49596584E+03</pdfrwt>
<pdfrwt beam="2">  1       -1 0.43324042E-01 0.49596584E+03</pdfrwt>
<totfact> 0.96793265E+01</totfact>
</mgrwt>
</event>
<event>
 6    1  0.9205235E-004  0.5305245E+03  0.7818608E-02  0.1006105E+00
          1   -1    0    0  502    0  0.00000000000E+00  0.00000000000E+00  0.71470892430E+03  0.71470892430E+03  0.00000000000E+00 0.  1.
         -1   -1    0    0    0  501 -0.00000000000E+00 -0.00000000000E+00 -0.57452706832E+03  0.57452706832E+03  0.00000000000E+00 0. -1.
    9000007    2    1    2  502    0  0.24135091807E+03 -0.25157213853E+03 -0.29145271209E+03  0.60524242036E+03  0.39979356859E+03 0.  0.
    9000005    1    3    3    0    0  0.16634307264E+03 -0.15984652312E+03 -0.38866623402E+03  0.45197717889E+03  0.99999687468E+00 0.  0.
          4    1    3    3  502    0  0.75007845434E+02 -0.91725615403E+02  0.97213521936E+02  0.15326524148E+03  0.00000000000E+00 0.  1.
   -9000007    1    1    2    0  501 -0.24135091807E+03  0.25157213853E+03  0.43163456807E+03  0.68399357226E+03  0.40000000000E+03 0. -1.
<mgrwt>
<rscale>  2 0.53052450E+03</rscale>
<asrwt>0</asrwt>
<pdfrwt beam="1">  1        1 0.10995522E+00 0.53052450E+03</pdfrwt>
<pdfrwt beam="2">  1       -1 0.88388780E-01 0.53052450E+03</pdfrwt>
<totfact> 0.34879484E+01</totfact>
</mgrwt>
</event>
<event>
 6    1  0.9205235E-004  0.4908311E+03  0.7818608E-02  0.1016200E+00
          2   -1    0    0  502    0  0.00000000000E+00  0.00000000000E+00  0.15534791283E+04  0.15534791283E+04  0.00000000000E+00 0.  1.
         -2   -1    0    0    0  501 -0.00000000000E+00 -0.00000000000E+00 -0.16738443139E+03  0.16738443139E+03  0.00000000000E+00 0. -1.
    9000007    2    1    2  502    0  0.28320761805E+03 -0.29149092576E+02  0.45958279509E+03  0.67230238896E+03  0.39964725965E+03 0.  0.
    9000005    1    3    3    0    0  0.36194268967E+03 -0.51661779099E+02  0.23846204639E+03  0.43650498002E+03  0.99999687468E+00 0.  0.
          4    1    3    3  502    0 -0.78735071616E+02  0.22512686523E+02  0.22112074870E+03  0.23579740894E+03  0.00000000000E+00 0.  1.
   -9000007    1    1    2    0  501 -0.28320761805E+03  0.29149092576E+02  0.92651190179E+03  0.10485611707E+04  0.40000000000E+03 0.  1.
<mgrwt>
<rscale>  2 0.49083108E+03</rscale>
<asrwt>0</asrwt>
<pdfrwt beam="1">  1        2 0.23899678E+00 0.49083108E+03</pdfrwt>
<pdfrwt beam="2">  1       -2 0.25751452E-01 0.49083108E+03</pdfrwt>
<totfact> 0.16776535E+02</totfact>
</mgrwt>
</event>
<event>
 6    1  0.9205235E-004  0.8178332E+03  0.7818608E-02  0.9534557E-01
         -1   -1    0    0    0  501 -0.00000000000E+00  0.00000000000E+00  0.12581101856E+04  0.12581101856E+04  0.00000000000E+00 0. -1.
          1   -1    0    0  502    0  0.00000000000E+00 -0.00000000000E+00 -0.73911320760E+03  0.73911320760E+03  0.00000000000E+00 0.  1.
    9000007    2    1    2  502    0  0.68790840900E+03 -0.18630305351E+03  0.78871885321E+03  0.11365976343E+04  0.40230578655E+03 0.  0.
    9000005    1    3    3    0    0  0.55149211559E+03 -0.85527655880E+02  0.33192303148E+03  0.64933229728E+03  0.99999687468E+00 0.  0.
          4    1    3    3  502    0  0.13641629341E+03 -0.10077539763E+03  0.45679582173E+03  0.48726533699E+03  0.00000000000E+00 0.  1.
   -9000007    1    1    2    0  501 -0.68790840900E+03  0.18630305351E+03 -0.26972187523E+03  0.86062575891E+03  0.40000000000E+03 0.  1.
<mgrwt>
<rscale>  2 0.81783320E+03</rscale>
<asrwt>0</asrwt>
<pdfrwt beam="1">  1        1 0.11370972E+00 0.81783320E+03</pdfrwt>
<pdfrwt beam="2">  1       -1 0.19355541E+00 0.81783320E+03</pdfrwt>
<totfact> 0.42932027E+00</totfact>
</mgrwt>
</event>
<event>
 6    1  0.9205235E-004  0.4787106E+03  0.7818608E-02  0.1019490E+00
         -1   -1    0    0    0  501 -0.00000000000E+00  0.00000000000E+00  0.23858917965E+03  0.23858917965E+03  0.00000000000E+00 0. -1.
          1   -1    0    0  502    0  0.00000000000E+00 -0.00000000000E+00 -0.10470158497E+04  0.10470158497E+04  0.00000000000E+00 0.  1.
    9000007    2    1    2  502    0  0.23345287154E+03  0.12033217294E+03 -0.58914416148E+03  0.75923548843E+03  0.40045924737E+03 0.  0.
    9000005    1    3    3    0    0 -0.65034286685E+01  0.11885472208E+03  0.42982839425E+01  0.11911429295E+03  0.99999687468E+00 0.  0.
          4    1    3    3  502    0  0.23995630021E+03  0.14774508556E+01 -0.59344244543E+03  0.64012119548E+03  0.00000000000E+00 0.  1.
   -9000007    1    1    2    0  501 -0.23345287154E+03 -0.12033217294E+03 -0.21928250861E+03  0.52636954096E+03  0.40000000000E+03 0. -1.
<mgrwt>
<rscale>  2 0.47871057E+03</rscale>
<asrwt>0</asrwt>
<pdfrwt beam="1">  1        1 0.16107936E+00 0.47871057E+03</pdfrwt>
<pdfrwt beam="2">  1       -1 0.36706028E-01 0.47871057E+03</pdfrwt>
<totfact> 0.10379968E+02</totfact>
</mgrwt>
</event>
<event>
 6    1  0.9205235E-004  0.4163964E+03  0.7818608E-02  0.1038246E+00
          2   -1    0    0  502    0  0.00000000000E+00  0.00000000000E+00  0.30625984884E+04  0.30625984884E+04  0.00000000000E+00 0.  1.
         -2   -1    0    0    0  501 -0.00000000000E+00 -0.00000000000E+00 -0.63373259301E+02  0.63373259301E+02  0.00000000000E+00 0. -1.
    9000007    2    1    2  502    0  0.38406149292E+02  0.13134075719E+03  0.96939004955E+03  0.10525792902E+04  0.38662729745E+03 0.  0.
    9000005    1    3    3    0    0  0.19211269519E+03  0.36848043479E+01  0.32114438903E+03  0.37424000860E+03  0.99999687468E+00 0.  0.
          4    1    3    3  502    0 -0.15370654589E+03  0.12765595284E+03  0.64824566052E+03  0.67833928158E+03  0.00000000000E+00 0.  1.
   -9000007    1    1    2    0  501 -0.38406149292E+02 -0.13134075719E+03  0.20298351796E+04  0.20733924575E+04  0.40000000000E+03 0.  1.
<mgrwt>
<rscale>  2 0.41639645E+03</rscale>
<asrwt>0</asrwt>
<pdfrwt beam="1">  1        2 0.47116888E+00 0.41639645E+03</pdfrwt>
<pdfrwt beam="2">  1       -2 0.97497346E-02 0.41639645E+03</pdfrwt>
<totfact> 0.12711360E+02</totfact>
</mgrwt>
</event>
<event>
 6    1  0.9205235E-004  0.4775651E+03  0.7818608E-02  0.1019807E+00
          2   -1    0    0  502    0  0.00000000000E+00  0.00000000000E+00  0.35219399152E+03  0.35219399152E+03  0.00000000000E+00 0.  1.
         -2   -1    0    0    0  501 -0.00000000000E+00 -0.00000000000E+00 -0.66034717237E+03  0.66034717237E+03  0.00000000000E+00 0. -1.
    9000007    2    1    2  502    0  0.10384351300E+03 -0.23976715369E+03 -0.22444637094E+03  0.52748591631E+03  0.39949149590E+03 0.  0.
    9000005    1    3    3    0    0  0.18455881807E+03 -0.10927770167E+01 -0.20339936432E+03  0.27465515267E+03  0.99999687468E+00 0.  0.
          4    1    3    3  502    0 -0.80715305072E+02 -0.23867437668E+03 -0.21047006613E+02  0.25283076364E+03  0.00000000000E+00 0.  1.
   -9000007    1    1    2    0  501 -0.10384351300E+03  0.23976715369E+03 -0.83706809906E+02  0.48505524758E+03  0.40000000000E+03 0.  1.
<mgrwt>
<rscale>  2 0.47756507E+03</rscale>
<asrwt>0</asrwt>
<pdfrwt beam="1">  1        2 0.54183691E-01 0.47756507E+03</pdfrwt>
<pdfrwt beam="2">  1       -2 0.10159187E+00 0.47756507E+03</pdfrwt>
<totfact> 0.75062754E+01</totfact>
</mgrwt>
</event>
<event>
 6    1  0.9205235E-004  0.4820162E+03  0.7818608E-02  0.1018583E+00
         -2   -1    0    0    0  501 -0.00000000000E+00  0.00000000000E+00  0.10439682205E+03  0.10439682205E+03  0.00000000000E+00 0. -1.
          2   -1    0    0  502    0  0.00000000000E+00 -0.00000000000E+00 -0.22258825226E+04  0.22258825226E+04  0.00000000000E+00 0.  1.
    9000007    2    1    2  502    0  0.15816576913E+03  0.21775658620E+03 -0.10461324975E+04  0.11517977569E+04  0.39976309125E+03 0.  0.
    9000005    1    3    3    0    0 -0.33480406814E+02  0.24575638531E+03 -0.80595686119E+03  0.84325832379E+03  0.99999687468E+00 0.  0.
          4    1    3    3  502    0  0.19164617594E+03 -0.27999799108E+02 -0.24017563627E+03  0.30853943307E+03  0.00000000000E+00 0.  1.
   -9000007    1    1    2    0  501 -0.15816576913E+03 -0.21775658620E+03 -0.10753532031E+04  0.11784815878E+04  0.40000000000E+03 0.  1.
<mgrwt>
<rscale>  2 0.48201617E+03</rscale>
<asrwt>0</asrwt>
<pdfrwt beam="1">  1        2 0.34244348E+00 0.48201617E+03</pdfrwt>
<pdfrwt beam="2">  1       -2 0.16061049E-01 0.48201617E+03</pdfrwt>
<totfact> 0.16581246E+02</totfact>
</mgrwt>
</event>
<event>
 6    1  0.9205235E-004  0.4042181E+03  0.7818608E-02  0.1042329E+00
         -1   -1    0    0    0  501 -0.00000000000E+00  0.00000000000E+00  0.12921905803E+03  0.12921905803E+03  0.00000000000E+00 0. -1.
          1   -1    0    0  502    0  0.00000000000E+00 -0.00000000000E+00 -0.15311329876E+04  0.15311329876E+04  0.00000000000E+00 0.  1.
    9000007    2    1    2  502    0  0.96123490263E+01 -0.69748050634E+02 -0.10446365229E+04  0.11194229069E+04  0.39608710114E+03 0.  0.
    9000005    1    3    3    0    0 -0.11683298804E+03 -0.12318255620E+03 -0.19407986916E+03  0.25786020409E+03  0.99999687468E+00 0.  0.
          4    1    3    3  502    0  0.12644533706E+03  0.53434505562E+02 -0.85055665378E+03  0.86156270285E+03  0.00000000000E+00 0.  1.
   -9000007    1    1    2    0  501 -0.96123490263E+01  0.69748050634E+02 -0.35727740667E+03  0.54092913874E+03  0.40000000000E+03 0. -1.
<mgrwt>
<rscale>  2 0.40421809E+03</rscale>
<asrwt>0</asrwt>
<pdfrwt beam="1">  1        1 0.23555893E+00 0.40421809E+03</pdfrwt>
<pdfrwt beam="2">  1       -1 0.19879854E-01 0.40421809E+03</pdfrwt>
<totfact> 0.13657683E+02</totfact>
</mgrwt>
</event>
<event>
 6    1  0.9205235E-004  0.4588286E+03  0.7818608E-02  0.1025122E+00
          4   -1    0    0  502    0  0.00000000000E+00  0.00000000000E+00  0.34608588748E+03  0.34608588748E+03  0.00000000000E+00 0.  1.
         -4   -1    0    0    0  501 -0.00000000000E+00 -0.00000000000E+00 -0.66214127278E+03  0.66214127278E+03  0.00000000000E+00 0. -1.
    9000007    2    1    2  502    0 -0.14826777966E+03 -0.16326079703E+03 -0.14946339072E+02  0.46114025670E+03  0.40470918073E+03 0.  0.
    9000005    1    3    3    0    0 -0.25671436833E+03 -0.14525131198E+03  0.90784598032E+02  0.30861473357E+03  0.99999687468E+00 0.  0.
          4    1    3    3  502    0  0.10844658867E+03 -0.18009485053E+02 -0.10573093710E+03  0.15252552313E+03  0.00000000000E+00 0.  1.
   -9000007    1    1    2    0  501  0.14826777966E+03  0.16326079703E+03 -0.30110904622E+03  0.54708690356E+03  0.40000000000E+03 0. -1.
<mgrwt>
<rscale>  2 0.45882857E+03</rscale>
<asrwt>0</asrwt>
<pdfrwt beam="1">  1        4 0.53243983E-01 0.45882857E+03</pdfrwt>
<pdfrwt beam="2">  1       -4 0.10186789E+00 0.45882857E+03</pdfrwt>
<totfact> 0.51846157E+00</totfact>
</mgrwt>
</event>
<event>
 6    1  0.9205235E-004  0.4074645E+03  0.7818608E-02  0.1041225E+00
         -1   -1    0    0    0  501 -0.00000000000E+00  0.00000000000E+00  0.15189486684E+03  0.15189486684E+03  0.00000000000E+00 0. -1.
          1   -1    0    0  502    0  0.00000000000E+00 -0.00000000000E+00 -0.11393169258E+04  0.11393169258E+04  0.00000000000E+00 0.  1.
    9000007    2    1    2  502    0 -0.54943626308E+02  0.55909796389E+02 -0.36343056677E+03  0.54588630017E+03  0.39970660296E+03 0.  0.
    9000005    1    3    3    0    0 -0.15676657597E+03  0.16900260057E+03 -0.12283319754E+03  0.26120228321E+03  0.99999687468E+00 0.  0.
          4    1    3    3  502    0  0.10182294966E+03 -0.11309280418E+03 -0.24059736923E+03  0.28468401696E+03  0.00000000000E+00 0.  1.
   -9000007    1    1    2    0  501  0.54943626308E+02 -0.55909796389E+02 -0.62399149218E+03  0.74532549247E+03  0.40000000000E+03 0.  1.
<mgrwt>
<rscale>  2 0.40746454E+03</rscale>
<asrwt>0</asrwt>
<pdfrwt beam="1">  1        1 0.17527953E+00 0.40746454E+03</pdfrwt>
<pdfrwt beam="2">  1       -1 0.23368441E-01 0.40746454E+03</pdfrwt>
<totfact> 0.19488482E+02</totfact>
</mgrwt>
</event>
<event>
 6    1  0.9205235E-004  0.4065540E+03  0.7818608E-02  0.1041534E+00
          1   -1    0    0  502    0  0.00000000000E+00  0.00000000000E+00  0.95717318900E+03  0.95717318900E+03  0.00000000000E+00 0.  1.
         -1   -1    0    0    0  501 -0.00000000000E+00 -0.00000000000E+00 -0.17731076100E+03  0.17731076100E+03  0.00000000000E+00 0. -1.
    9000007    2    1    2  502    0 -0.70217352254E+02  0.19998567009E+02  0.48153465105E+03  0.63017265553E+03  0.39988940518E+03 0.  0.
    9000005    1    3    3    0    0 -0.49142271121E+02  0.11122152455E+03 -0.17126197488E+02  0.12279860328E+03  0.99999687468E+00 0.  0.
          4    1    3    3  502    0 -0.21075081133E+02 -0.91222957542E+02  0.49866084854E+03  0.50737405224E+03  0.00000000000E+00 0.  1.
   -9000007    1    1    2    0  501  0.70217352254E+02 -0.19998567009E+02  0.29832777695E+03  0.50431129448E+03  0.40000000000E+03 0. -1.
<mgrwt>
<rscale>  2 0.40655403E+03</rscale>
<asrwt>0</asrwt>
<pdfrwt beam="1">  1        1 0.14725741E+00 0.40655403E+03</pdfrwt>
<pdfrwt beam="2">  1       -1 0.27278579E-01 0.40655403E+03</pdfrwt>
<totfact> 0.20540221E+02</totfact>
</mgrwt>
</event>
<event>
 6    1  0.9205235E-004  0.4466662E+03  0.7818608E-02  0.1028721E+00
          2   -1    0    0  502    0  0.00000000000E+00  0.00000000000E+00  0.75808728091E+03  0.75808728091E+03  0.00000000000E+00 0.  1.
         -2   -1    0    0    0  501 -0.00000000000E+00 -0.00000000000E+00 -0.26581900493E+03  0.26581900493E+03  0.00000000000E+00 0. -1.
    9000007    2    1    2  502    0 -0.13766631792E+03  0.14139632807E+03  0.29751952549E+03  0.53721129665E+03  0.40141396652E+03 0.  0.
    9000005    1    3    3    0    0 -0.25558788434E+03  0.10375820267E+01  0.12124660533E+03  0.28289217467E+03  0.99999687468E+00 0.  0.
          4    1    3    3  502    0  0.11792156642E+03  0.14035874604E+03  0.17627292017E+03  0.25431912197E+03  0.00000000000E+00 0.  1.
   -9000007    1    1    2    0  501  0.13766631792E+03 -0.14139632807E+03  0.19474875049E+03  0.48669498918E+03  0.40000000000E+03 0. -1.
<mgrwt>
<rscale>  2 0.44666623E+03</rscale>
<asrwt>0</asrwt>
<pdfrwt beam="1">  1        2 0.11662881E+00 0.44666623E+03</pdfrwt>
<pdfrwt beam="2">  1       -2 0.40895232E-01 0.44666623E+03</pdfrwt>
<totfact> 0.21530262E+02</totfact>
</mgrwt>
</event>
<event>
 6    1  0.9205235E-004  0.4096177E+03  0.7818608E-02  0.1040499E+00
          1   -1    0    0  502    0  0.00000000000E+00  0.00000000000E+00  0.66699278930E+03  0.66699278930E+03  0.00000000000E+00 0. -1.
         -1   -1    0    0    0  501 -0.00000000000E+00 -0.00000000000E+00 -0.25544803198E+03  0.25544803198E+03  0.00000000000E+00 0.  1.
    9000007    2    1    2  502    0  0.36308801625E+02  0.67018408720E+02  0.26383139856E+03  0.48927915106E+03  0.40494108783E+03 0.  0.
    9000005    1    3    3    0    0 -0.97231426831E+02  0.20655578361E+02  0.32156882752E+03  0.33658299735E+03  0.99999687468E+00 0.  0.
          4    1    3    3  502    0  0.13354022846E+03  0.46362830359E+02 -0.57737428958E+02  0.15269615371E+03  0.00000000000E+00 0.  1.
   -9000007    1    1    2    0  501 -0.36308801625E+02 -0.67018408720E+02  0.14771335876E+03  0.43316167021E+03  0.40000000000E+03 0.  1.
<mgrwt>
<rscale>  2 0.40961769E+03</rscale>
<asrwt>0</asrwt>
<pdfrwt beam="1">  1        1 0.10261427E+00 0.40961769E+03</pdfrwt>
<pdfrwt beam="2">  1       -1 0.39299697E-01 0.40961769E+03</pdfrwt>
<totfact> 0.19161385E+02</totfact>
</mgrwt>
</event>
<event>
 6    1  0.9205235E-004  0.4725748E+03  0.7818608E-02  0.1021196E+00
          1   -1    0    0  502    0  0.00000000000E+00  0.00000000000E+00  0.26121720541E+04  0.26121720541E+04  0.00000000000E+00 0. -1.
         -1   -1    0    0    0  501 -0.00000000000E+00 -0.00000000000E+00 -0.99485466493E+02  0.99485466493E+02  0.00000000000E+00 0.  1.
    9000007    2    1    2  502    0  0.20783210155E+03  0.14117499400E+03  0.74838608627E+03  0.88521813742E+03  0.40050574944E+03 0.  0.
    9000005    1    3    3    0    0  0.15902168666E+03 -0.11225584311E+03  0.45247952172E+03  0.49257282580E+03  0.99999687468E+00 0.  0.
          4    1    3    3  502    0  0.48810414895E+02  0.25343083711E+03  0.29590656454E+03  0.39264531162E+03  0.00000000000E+00 0.  1.
   -9000007    1    1    2    0  501 -0.20783210155E+03 -0.14117499400E+03  0.17643005013E+04  0.18264393832E+04  0.40000000000E+03 0. -1.
<mgrwt>
<rscale>  2 0.47257475E+03</rscale>
<asrwt>0</asrwt>
<pdfrwt beam="1">  1        1 0.40187257E+00 0.47257475E+03</pdfrwt>
<pdfrwt beam="2">  1       -1 0.15305458E-01 0.47257475E+03</pdfrwt>
<totfact> 0.39460010E+01</totfact>
</mgrwt>
</event>
<event>
 6    1  0.9205235E-004  0.4746331E+03  0.7818608E-02  0.1020621E+00
         -1   -1    0    0    0  501 -0.00000000000E+00  0.00000000000E+00  0.35318809710E+03  0.35318809710E+03  0.00000000000E+00 0.  1.
          1   -1    0    0  502    0  0.00000000000E+00 -0.00000000000E+00 -0.93338288129E+03  0.93338288129E+03  0.00000000000E+00 0. -1.
    9000007    2    1    2  502    0 -0.25015687637E+03 -0.54619466920E+02  0.72008924279E+02  0.47976776428E+03  0.39928695633E+03 0.  0.
    9000005    1    3    3    0    0 -0.15976376556E+03 -0.95845154552E+02 -0.14827786595E+03  0.23811358626E+03  0.99999687468E+00 0.  0.
          4    1    3    3  502    0 -0.90393110813E+02  0.41225687632E+02  0.22028679023E+03  0.24165417802E+03  0.00000000000E+00 0.  1.
   -9000007    1    1    2    0  501  0.25015687637E+03  0.54619466920E+02 -0.65220370847E+03  0.80680321412E+03  0.40000000000E+03 0. -1.
<mgrwt>
<rscale>  2 0.47463313E+03</rscale>
<asrwt>0</asrwt>
<pdfrwt beam="1">  1        1 0.14359737E+00 0.47463313E+03</pdfrwt>
<pdfrwt beam="2">  1       -1 0.54336630E-01 0.47463313E+03</pdfrwt>
<totfact> 0.61703915E+01</totfact>
</mgrwt>
</event>
<event>
 6    1  0.9205235E-004  0.9019123E+03  0.7818608E-02  0.9423194E-01
         -2   -1    0    0    0  501 -0.00000000000E+00  0.00000000000E+00  0.60817694942E+03  0.60817694942E+03  0.00000000000E+00 0.  1.
          2   -1    0    0  502    0  0.00000000000E+00 -0.00000000000E+00 -0.13522605778E+04  0.13522605778E+04  0.00000000000E+00 0. -1.
    9000007    2    1    2  502    0  0.45541345941E+03 -0.66690431169E+03 -0.47468782771E+03  0.10198329996E+04  0.40319726357E+03 0.  0.
    9000005    1    3    3    0    0  0.34894847127E+03 -0.36379128932E+03 -0.79161704849E+02  0.51027121543E+03  0.99999687468E+00 0.  0.
          4    1    3    3  502    0  0.10646498813E+03 -0.30311302238E+03 -0.39552612286E+03  0.50956178418E+03  0.00000000000E+00 0.  1.
   -9000007    1    1    2    0  501 -0.45541345941E+03  0.66690431169E+03 -0.26939580068E+03  0.94060452762E+03  0.40000000000E+03 0.  1.
<mgrwt>
<rscale>  2 0.90191229E+03</rscale>
<asrwt>0</asrwt>
<pdfrwt beam="1">  1        2 0.20804009E+00 0.90191229E+03</pdfrwt>
<pdfrwt beam="2">  1       -2 0.93565686E-01 0.90191229E+03</pdfrwt>
<totfact> 0.14955080E+01</totfact>
</mgrwt>
</event>
<event>
 6    1  0.9205235E-004  0.4573186E+03  0.7818608E-02  0.1025562E+00
          2   -1    0    0  502    0  0.00000000000E+00  0.00000000000E+00  0.17603725444E+04  0.17603725444E+04  0.00000000000E+00 0. -1.
         -2   -1    0    0    0  501 -0.00000000000E+00 -0.00000000000E+00 -0.10647821513E+04  0.10647821513E+04  0.00000000000E+00 0.  1.
    9000007    2    1    2  502    0  0.21872267672E+03  0.16180748934E+02 -0.98354927527E+03  0.10851514049E+04  0.40259529147E+03 0.  0.
    9000005    1    3    3    0    0  0.99217630179E+02  0.12145768536E+03 -0.88296390672E+03  0.89678446019E+03  0.99999687468E+00 0.  0.
          4    1    3    3  502    0  0.11950504654E+03 -0.10527693643E+03 -0.10058536855E+03  0.18836694471E+03  0.00000000000E+00 0.  1.
   -9000007    1    1    2    0  501 -0.21872267672E+03 -0.16180748934E+02  0.16791396684E+04  0.17400032908E+04  0.40000000000E+03 0. -1.
<mgrwt>
<rscale>  2 0.45731862E+03</rscale>
<asrwt>0</asrwt>
<pdfrwt beam="1">  1        2 0.27082655E+00 0.45731862E+03</pdfrwt>
<pdfrwt beam="2">  1       -2 0.16381264E+00 0.45731862E+03</pdfrwt>
<totfact> 0.23681777E+00</totfact>
</mgrwt>
</event>
<event>
 6    1  0.9205235E-004  0.5155496E+03  0.7818608E-02  0.1009798E+00
         -2   -1    0    0    0  501 -0.00000000000E+00  0.00000000000E+00  0.10601816410E+03  0.10601816410E+03  0.00000000000E+00 0.  1.
          2   -1    0    0  502    0  0.00000000000E+00 -0.00000000000E+00 -0.25074919303E+04  0.25074919303E+04  0.00000000000E+00 0. -1.
    9000007    2    1    2  502    0  0.23390408353E+03  0.22530920964E+03 -0.11838486288E+04  0.12913579339E+04  0.40078969213E+03 0.  0.
    9000005    1    3    3    0    0 -0.70097128724E+02 -0.61711114402E+01 -0.52524849046E+03  0.52994213533E+03  0.99999687468E+00 0.  0.
          4    1    3    3  502    0  0.30400121226E+03  0.23148032109E+03 -0.65860013829E+03  0.76141579853E+03  0.00000000000E+00 0.  1.
   -9000007    1    1    2    0  501 -0.23390408353E+03 -0.22530920964E+03 -0.12176251374E+04  0.13221521605E+04  0.40000000000E+03 0. -1.
<mgrwt>
<rscale>  2 0.51554957E+03</rscale>
<asrwt>0</asrwt>
<pdfrwt beam="1">  1        2 0.38576795E+00 0.51554957E+03</pdfrwt>
<pdfrwt beam="2">  1       -2 0.16310489E-01 0.51554957E+03</pdfrwt>
<totfact> 0.11232896E+02</totfact>
</mgrwt>
</event>
<event>
 6    1  0.9205235E-004  0.6640841E+03  0.7818608E-02  0.9780704E-01
          2   -1    0    0  502    0  0.00000000000E+00  0.00000000000E+00  0.10848100815E+04  0.10848100815E+04  0.00000000000E+00 0. -1.
         -2   -1    0    0    0  501 -0.00000000000E+00 -0.00000000000E+00 -0.53220369550E+03  0.53220369550E+03  0.00000000000E+00 0.  1.
    9000007    2    1    2  502    0  0.42297277132E+03  0.31941663239E+03 -0.11656552777E+03  0.67429218474E+03  0.40018680364E+03 0.  0.
    9000005    1    3    3    0    0  0.42137698805E+03  0.23138466974E+03  0.52589064210E+02  0.48359491428E+03  0.99999687468E+00 0.  0.
          4    1    3    3  502    0  0.15957832708E+01  0.88031962654E+02 -0.16915459198E+03  0.19069727046E+03  0.00000000000E+00 0.  1.
   -9000007    1    1    2    0  501 -0.42297277132E+03 -0.31941663239E+03  0.66917191373E+03  0.94272159223E+03  0.40000000000E+03 0. -1.
<mgrwt>
<rscale>  2 0.66408409E+03</rscale>
<asrwt>0</asrwt>
<pdfrwt beam="1">  1        2 0.16689386E+00 0.66408409E+03</pdfrwt>
<pdfrwt beam="2">  1       -2 0.81877492E-01 0.66408409E+03</pdfrwt>
<totfact> 0.29978943E+01</totfact>
</mgrwt>
</event>
<event>
 6    1  0.9205235E-004  0.4241504E+03  0.7818608E-02  0.1035724E+00
         -1   -1    0    0    0  501 -0.00000000000E+00  0.00000000000E+00  0.21269424319E+03  0.21269424319E+03  0.00000000000E+00 0.  1.
          1   -1    0    0  502    0  0.00000000000E+00 -0.00000000000E+00 -0.84829879047E+03  0.84829879047E+03  0.00000000000E+00 0. -1.
    9000007    2    1    2  502    0 -0.13491303240E+03  0.39482736479E+02 -0.34653561153E+03  0.54784465122E+03  0.40035786369E+03 0.  0.
    9000005    1    3    3    0    0  0.12150274673E+02 -0.13246819967E+03  0.11339022356E+01  0.13303284868E+03  0.99999687468E+00 0.  0.
          4    1    3    3  502    0 -0.14706330707E+03  0.17195093615E+03 -0.34766951377E+03  0.41481180254E+03  0.00000000000E+00 0.  1.
   -9000007    1    1    2    0  501  0.13491303240E+03 -0.39482736479E+02 -0.28906893575E+03  0.51314838244E+03  0.40000000000E+03 0.  1.
<mgrwt>
<rscale>  2 0.42415040E+03</rscale>
<asrwt>0</asrwt>
<pdfrwt beam="1">  1        1 0.13050751E+00 0.42415040E+03</pdfrwt>
<pdfrwt beam="2">  1       -1 0.32722191E-01 0.42415040E+03</pdfrwt>
<totfact> 0.18306482E+02</totfact>
</mgrwt>
</event>
<event>
 6    1  0.9205235E-004  0.5424474E+03  0.7818608E-02  0.1003257E+00
          1   -1    0    0  502    0  0.00000000000E+00  0.00000000000E+00  0.12492904199E+04  0.12492904199E+04  0.00000000000E+00 0. -1.
         -1   -1    0    0    0  501 -0.00000000000E+00 -0.00000000000E+00 -0.25887967371E+03  0.25887967371E+03  0.00000000000E+00 0.  1.
    9000007    2    1    2  502    0 -0.31615585141E+03  0.18489005511E+03  0.26883413512E+03  0.60550090698E+03  0.40027578154E+03 0.  0.
    9000005    1    3    3    0    0 -0.37413458668E+03  0.80245251865E+02  0.94627497921E+02  0.39417173003E+03  0.99999687468E+00 0.  0.
          4    1    3    3  502    0  0.57978735267E+02  0.10464480324E+03  0.17420663719E+03  0.21132917695E+03  0.00000000000E+00 0.  1.
   -9000007    1    1    2    0  501  0.31615585141E+03 -0.18489005511E+03  0.72157661111E+03  0.90266918667E+03  0.40000000000E+03 0.  1.
<mgrwt>
<rscale>  2 0.54244740E+03</rscale>
<asrwt>0</asrwt>
<pdfrwt beam="1">  1        1 0.19219852E+00 0.54244740E+03</pdfrwt>
<pdfrwt beam="2">  1       -1 0.39827643E-01 0.54244740E+03</pdfrwt>
<totfact> 0.63369537E+01</totfact>
</mgrwt>
</event>
<event>
 6    1  0.9205235E-004  0.4521110E+03  0.7818608E-02  0.1027094E+00
          2   -1    0    0  502    0  0.00000000000E+00  0.00000000000E+00  0.56626778322E+03  0.56626778322E+03  0.00000000000E+00 0.  1.
         -2   -1    0    0    0  501 -0.00000000000E+00 -0.00000000000E+00 -0.36098313828E+03  0.36098313828E+03  0.00000000000E+00 0. -1.
    9000007    2    1    2  502    0 -0.20709705341E+03 -0.40874121023E+02  0.99580239948E+02  0.46277992721E+03  0.39961125302E+03 0.  0.
    9000005    1    3    3    0    0 -0.76454631007E+02 -0.21542198419E+03  0.15529941135E+02  0.22911595523E+03  0.99999687468E+00 0.  0.
          4    1    3    3  502    0 -0.13064242241E+03  0.17454786317E+03  0.84050298813E+02  0.23366397198E+03  0.00000000000E+00 0.  1.
   -9000007    1    1    2    0  501  0.20709705341E+03  0.40874121023E+02  0.10570440499E+03  0.46447099429E+03  0.40000000000E+03 0. -1.
<mgrwt>
<rscale>  2 0.45211105E+03</rscale>
<asrwt>0</asrwt>
<pdfrwt beam="1">  1        2 0.87118120E-01 0.45211105E+03</pdfrwt>
<pdfrwt beam="2">  1       -2 0.55535868E-01 0.45211105E+03</pdfrwt>
<totfact> 0.16649312E+02</totfact>
</mgrwt>
</event>
<event>
 6    1  0.9205235E-004  0.4034851E+03  0.7818608E-02  0.1042580E+00
         -2   -1    0    0    0  501 -0.00000000000E+00  0.00000000000E+00  0.19672842855E+03  0.19672842855E+03  0.00000000000E+00 0.  1.
          2   -1    0    0  502    0  0.00000000000E+00 -0.00000000000E+00 -0.95031077600E+03  0.95031077600E+03  0.00000000000E+00 0. -1.
    9000007    2    1    2  502    0 -0.49059910142E+02  0.20238447402E+02 -0.17063276084E+03  0.43806340096E+03  0.39995941626E+03 0.  0.
    9000005    1    3    3    0    0  0.89499355510E+02  0.40875480298E+02 -0.25583167742E+03  0.27410178163E+03  0.99999687468E+00 0.  0.
          4    1    3    3  502    0 -0.13855926565E+03 -0.20637032897E+02  0.85198916589E+02  0.16396161933E+03  0.00000000000E+00 0.  1.
   -9000007    1    1    2    0  501  0.49059910142E+02 -0.20238447402E+02 -0.58294958662E+03  0.70897580359E+03  0.40000000000E+03 0. -1.
<mgrwt>
<rscale>  2 0.40348511E+03</rscale>
<asrwt>0</asrwt>
<pdfrwt beam="1">  1        2 0.14620165E+00 0.40348511E+03</pdfrwt>
<pdfrwt beam="2">  1       -2 0.30265913E-01 0.40348511E+03</pdfrwt>
<totfact> 0.28222839E+02</totfact>
</mgrwt>
</event>
<event>
 6    1  0.9205235E-004  0.4667314E+03  0.7818608E-02  0.1022847E+00
         -2   -1    0    0    0  501 -0.00000000000E+00  0.00000000000E+00  0.20703641889E+03  0.20703641889E+03  0.00000000000E+00 0.  1.
          2   -1    0    0  502    0  0.00000000000E+00 -0.00000000000E+00 -0.17611434587E+04  0.17611434587E+04  0.00000000000E+00 0. -1.
    9000007    2    1    2  502    0  0.99451738158E+02  0.21901978995E+03 -0.14014133975E+04  0.14770834868E+04  0.39994474586E+03 0.  0.
    9000005    1    3    3    0    0  0.97939794995E+02  0.32725789996E+03 -0.12087552520E+04  0.12560972080E+04  0.99999687468E+00 0.  0.
          4    1    3    3  502    0  0.15119431628E+01 -0.10823811001E+03 -0.19265814546E+03  0.22098627886E+03  0.00000000000E+00 0.  1.
   -9000007    1    1    2    0  501 -0.99451738158E+02 -0.21901978995E+03 -0.15269364230E+03  0.49109639075E+03  0.40000000000E+03 0.  1.
<mgrwt>
<rscale>  2 0.46673142E+03</rscale>
<asrwt>0</asrwt>
<pdfrwt beam="1">  1        2 0.27094514E+00 0.46673142E+03</pdfrwt>
<pdfrwt beam="2">  1       -2 0.31851758E-01 0.46673142E+03</pdfrwt>
<totfact> 0.88125649E+01</totfact>
</mgrwt>
</event>
<event>
 6    1  0.9205235E-004  0.4800546E+03  0.7818608E-02  0.1019120E+00
          2   -1    0    0  502    0  0.00000000000E+00  0.00000000000E+00  0.10897591351E+04  0.10897591351E+04  0.00000000000E+00 0.  1.
         -2   -1    0    0    0  501 -0.00000000000E+00 -0.00000000000E+00 -0.32014802462E+03  0.32014802462E+03  0.00000000000E+00 0. -1.
    9000007    2    1    2  502    0  0.15561236323E+02 -0.26572055597E+03  0.79531406246E+03  0.92875208322E+03  0.39900677714E+03 0.  0.
    9000005    1    3    3    0    0 -0.73257675876E+02  0.18473719859E+02  0.51268466218E+03  0.51822246982E+03  0.99999687468E+00 0.  0.
          4    1    3    3  502    0  0.88818912199E+02 -0.28419427583E+03  0.28262940028E+03  0.41052961340E+03  0.00000000000E+00 0.  1.
   -9000007    1    1    2    0  501 -0.15561236323E+02  0.26572055597E+03 -0.25702951933E+02  0.48115507654E+03  0.40000000000E+03 0. -1.
<mgrwt>
<rscale>  2 0.48005461E+03</rscale>
<asrwt>0</asrwt>
<pdfrwt beam="1">  1        2 0.16765525E+00 0.48005461E+03</pdfrwt>
<pdfrwt beam="2">  1       -2 0.49253543E-01 0.48005461E+03</pdfrwt>
<totfact> 0.89881741E+01</totfact>
</mgrwt>
</event>
<event>
 6    1  0.9205235E-004  0.5062047E+03  0.7818608E-02  0.1012172E+00
         -2   -1    0    0    0  501 -0.00000000000E+00  0.00000000000E+00  0.37408759364E+03  0.37408759364E+03  0.00000000000E+00 0.  1.
          2   -1    0    0  502    0  0.00000000000E+00 -0.00000000000E+00 -0.68568273420E+03  0.68568273420E+03  0.00000000000E+00 0. -1.
    9000007    2    1    2  502    0  0.27956667561E+03  0.13610925493E+03 -0.13872846687E+03  0.52445159824E+03  0.39889928050E+03 0.  0.
    9000005    1    3    3    0    0 -0.31246591260E+02  0.24563347615E+02 -0.18658927811E+03  0.19077805485E+03  0.99999687468E+00 0.  0.
          4    1    3    3  502    0  0.31081326687E+03  0.11154590732E+03  0.47860811246E+02  0.33367354339E+03  0.00000000000E+00 0.  1.
   -9000007    1    1    2    0  501 -0.27956667561E+03 -0.13610925493E+03 -0.17286667369E+03  0.53531872960E+03  0.40000000000E+03 0.  1.
<mgrwt>
<rscale>  2 0.50620470E+03</rscale>
<asrwt>0</asrwt>
<pdfrwt beam="1">  1        2 0.10548965E+00 0.50620470E+03</pdfrwt>
<pdfrwt beam="2">  1       -2 0.57551938E-01 0.50620470E+03</pdfrwt>
<totfact> 0.12230797E+02</totfact>
</mgrwt>
</event>
<event>
 6    1  0.9205235E-004  0.5675207E+03  0.7818608E-02  0.9975180E-01
          2   -1    0    0  502    0  0.00000000000E+00  0.00000000000E+00  0.25115412665E+04  0.25115412665E+04  0.00000000000E+00 0. -1.
         -2   -1    0    0    0  501 -0.00000000000E+00 -0.00000000000E+00 -0.12824027744E+03  0.12824027744E+03  0.00000000000E+00 0.  1.
    9000007    2    1    2  502    0 -0.29345536460E+03 -0.27519382304E+03  0.11898462314E+04  0.13183497637E+04  0.40058002171E+03 0.  0.
    9000005    1    3    3    0    0 -0.12358129599E+03 -0.23256739198E+03  0.10799190781E+04  0.11115692258E+04  0.99999687468E+00 0.  0.
          4    1    3    3  502    0 -0.16987406860E+03 -0.42626431061E+02  0.10992715328E+03  0.20678053786E+03  0.00000000000E+00 0.  1.
   -9000007    1    1    2    0  501  0.29345536460E+03  0.27519382304E+03  0.11934547576E+04  0.13214317802E+04  0.40000000000E+03 0.  1.
<mgrwt>
<rscale>  2 0.56752073E+03</rscale>
<asrwt>0</asrwt>
<pdfrwt beam="1">  1        2 0.38639093E+00 0.56752073E+03</pdfrwt>
<pdfrwt beam="2">  1       -2 0.19729275E-01 0.56752073E+03</pdfrwt>
<totfact> 0.79907992E+01</totfact>
</mgrwt>
</event>
<event>
 6    1  0.9205235E-004  0.4550833E+03  0.7818608E-02  0.1026217E+00
         -2   -1    0    0    0  501 -0.00000000000E+00  0.00000000000E+00  0.80666747869E+02  0.80666747869E+02  0.00000000000E+00 0.  1.
          2   -1    0    0  502    0  0.00000000000E+00 -0.00000000000E+00 -0.43470084287E+04  0.43470084287E+04  0.00000000000E+00 0. -1.
    9000007    2    1    2  502    0  0.21700417109E+03 -0.11438206811E+02 -0.71630091374E+03  0.84856759355E+03  0.39969778452E+03 0.  0.
    9000005    1    3    3    0    0  0.11493130211E+02  0.17404843011E+03 -0.33066195481E+03  0.37384926965E+03  0.99999687468E+00 0.  0.
          4    1    3    3  502    0  0.20551104088E+03 -0.18548663692E+03 -0.38563895894E+03  0.47471832390E+03  0.00000000000E+00 0.  1.
   -9000007    1    1    2    0  501 -0.21700417109E+03  0.11438206811E+02 -0.35500407671E+04  0.35791075830E+04  0.40000000000E+03 0. -1.
<mgrwt>
<rscale>  2 0.45508325E+03</rscale>
<asrwt>0</asrwt>
<pdfrwt beam="1">  1        2 0.66877072E+00 0.45508325E+03</pdfrwt>
<pdfrwt beam="2">  1       -2 0.12410265E-01 0.45508325E+03</pdfrwt>
<totfact> 0.10054376E+01</totfact>
</mgrwt>
</event>
<event>
 6    1  0.9205235E-004  0.4601128E+03  0.7818608E-02  0.1024748E+00
         -2   -1    0    0    0  501 -0.00000000000E+00  0.00000000000E+00  0.33659598178E+03  0.33659598178E+03  0.00000000000E+00 0. -1.
          2   -1    0    0  502    0  0.00000000000E+00 -0.00000000000E+00 -0.10968128541E+04  0.10968128541E+04  0.00000000000E+00 0.  1.
    9000007    2    1    2  502    0 -0.22631476963E+03  0.28867133503E+02  0.88161556927E+02  0.46811217394E+03  0.39913013030E+03 0.  0.
    9000005    1    3    3    0    0  0.85764008949E+02  0.10149057201E+03 -0.92893966508E+01  0.13320320688E+03  0.99999687468E+00 0.  0.
          4    1    3    3  502    0 -0.31207877858E+03 -0.72623438510E+02  0.97450953577E+02  0.33490896706E+03  0.00000000000E+00 0.  1.
   -9000007    1    1    2    0  501  0.22631476963E+03 -0.28867133503E+02 -0.84837842923E+03  0.96529666193E+03  0.40000000000E+03 0.  1.
<mgrwt>
<rscale>  2 0.46011285E+03</rscale>
<asrwt>0</asrwt>
<pdfrwt beam="1">  1        2 0.16874044E+00 0.46011285E+03</pdfrwt>
<pdfrwt beam="2">  1       -2 0.51783996E-01 0.46011285E+03</pdfrwt>
<totfact> 0.80623256E+01</totfact>
</mgrwt>
</event>
<event>
 6    1  0.9205235E-004  0.5610226E+03  0.7818608E-02  0.9989744E-01
          1   -1    0    0  502    0  0.00000000000E+00  0.00000000000E+00  0.51117588627E+03  0.51117588627E+03  0.00000000000E+00 0.  1.
         -1   -1    0    0    0  501 -0.00000000000E+00 -0.00000000000E+00 -0.62351025037E+03  0.62351025037E+03  0.00000000000E+00 0. -1.
    9000007    2    1    2  502    0 -0.17766766062E+02 -0.39296287002E+03  0.72074203949E+01  0.56107850643E+03  0.40002708444E+03 0.  0.
    9000005    1    3    3    0    0 -0.40200947151E+02 -0.38142883154E+03 -0.14257601761E+03  0.40918576524E+03  0.99999687468E+00 0.  0.
          4    1    3    3  502    0  0.22434181089E+02 -0.11534038475E+02  0.14978343801E+03  0.15189274119E+03  0.00000000000E+00 0.  1.
   -9000007    1    1    2    0  501  0.17766766062E+02  0.39296287002E+03 -0.11954178450E+03  0.57360763021E+03  0.40000000000E+03 0.  1.
<mgrwt>
<rscale>  2 0.56102256E+03</rscale>
<asrwt>0</asrwt>
<pdfrwt beam="1">  1        1 0.78642444E-01 0.56102256E+03</pdfrwt>
<pdfrwt beam="2">  1       -1 0.95924654E-01 0.56102256E+03</pdfrwt>
<totfact> 0.46887849E+01</totfact>
</mgrwt>
</event>
<event>
 6    1  0.9205235E-004  0.4055598E+03  0.7818608E-02  0.1041871E+00
          1   -1    0    0  502    0  0.00000000000E+00  0.00000000000E+00  0.19213631591E+04  0.19213631591E+04  0.00000000000E+00 0.  1.
         -1   -1    0    0    0  501 -0.00000000000E+00 -0.00000000000E+00 -0.10814735971E+03  0.10814735971E+03  0.00000000000E+00 0. -1.
    9000007    2    1    2  502    0  0.65886501439E+02 -0.20329772309E+01  0.44361191004E+03  0.60116883078E+03  0.40033395097E+03 0.  0.
    9000005    1    3    3    0    0 -0.25697989610E+02  0.18120837980E+03  0.12235611518E+03  0.22015649547E+03  0.99999687468E+00 0.  0.
          4    1    3    3  502    0  0.91584491049E+02 -0.18324135703E+03  0.32125579486E+03  0.38101233531E+03  0.00000000000E+00 0.  1.
   -9000007    1    1    2    0  501 -0.65886501439E+02  0.20329772309E+01  0.13696038894E+04  0.14283416881E+04  0.40000000000E+03 0.  1.
<mgrwt>
<rscale>  2 0.40555979E+03</rscale>
<asrwt>0</asrwt>
<pdfrwt beam="1">  1        1 0.29559431E+00 0.40555979E+03</pdfrwt>
<pdfrwt beam="2">  1       -1 0.16638057E-01 0.40555979E+03</pdfrwt>
<totfact> 0.10076259E+02</totfact>
</mgrwt>
</event>
<event>
 6    1  0.9205235E-004  0.5193143E+03  0.7818608E-02  0.1008857E+00
         -1   -1    0    0    0  501 -0.00000000000E+00  0.00000000000E+00  0.37340312344E+03  0.37340312344E+03  0.00000000000E+00 0.  1.
          1   -1    0    0  502    0  0.00000000000E+00 -0.00000000000E+00 -0.72336473080E+03  0.72336473080E+03  0.00000000000E+00 0. -1.
    9000007    2    1    2  502    0 -0.32858770852E+03  0.43668492752E+01 -0.15399608926E+03  0.54324149005E+03  0.40423702136E+03 0.  0.
    9000005    1    3    3    0    0  0.30442087600E+02 -0.67027858451E+02 -0.16108587943E+03  0.17711328310E+03  0.99999687468E+00 0.  0.
          4    1    3    3  502    0 -0.35902979612E+03  0.71394707727E+02  0.70897901693E+01  0.36612820695E+03  0.00000000000E+00 0.  1.
   -9000007    1    1    2    0  501  0.32858770852E+03 -0.43668492752E+01 -0.19596551810E+03  0.55352636419E+03  0.40000000000E+03 0.  1.
<mgrwt>
<rscale>  2 0.51931431E+03</rscale>
<asrwt>0</asrwt>
<pdfrwt beam="1">  1        1 0.11128688E+00 0.51931431E+03</pdfrwt>
<pdfrwt beam="2">  1       -1 0.57446635E-01 0.51931431E+03</pdfrwt>
<totfact> 0.82840832E+01</totfact>
</mgrwt>
</event>
<event>
 6    1  0.9205235E-004  0.4218081E+03  0.7818608E-02  0.1036479E+00
          1   -1    0    0  502    0  0.00000000000E+00  0.00000000000E+00  0.15905737717E+04  0.15905737717E+04  0.00000000000E+00 0.  1.
         -1   -1    0    0    0  501 -0.00000000000E+00 -0.00000000000E+00 -0.11342466316E+03  0.11342466316E+03  0.00000000000E+00 0. -1.
    9000007    2    1    2  502    0 -0.33732053297E+02 -0.12782278578E+03  0.63943490779E+03  0.76631959959E+03  0.40111371385E+03 0.  0.
    9000005    1    3    3    0    0 -0.88268714159E+02  0.12761001568E+03  0.17839627691E+03  0.23643585517E+03  0.99999687468E+00 0.  0.
          4    1    3    3  502    0  0.54536660863E+02 -0.25543280146E+03  0.46103863088E+03  0.52988374442E+03  0.00000000000E+00 0.  1.
   -9000007    1    1    2    0  501  0.33732053297E+02  0.12782278578E+03  0.83771420080E+03  0.93767883532E+03  0.40000000000E+03 0. -1.
<mgrwt>
<rscale>  2 0.42180809E+03</rscale>
<asrwt>0</asrwt>
<pdfrwt beam="1">  1        1 0.24470364E+00 0.42180809E+03</pdfrwt>
<pdfrwt beam="2">  1       -1 0.17449949E-01 0.42180809E+03</pdfrwt>
<totfact> 0.15386147E+02</totfact>
</mgrwt>
</event>
<event>
 6    1  0.9205235E-004  0.4495449E+03  0.7818608E-02  0.1027858E+00
          2   -1    0    0  502    0  0.00000000000E+00  0.00000000000E+00  0.17097442645E+04  0.17097442645E+04  0.00000000000E+00 0.  1.
         -2   -1    0    0    0  501 -0.00000000000E+00 -0.00000000000E+00 -0.15412473431E+03  0.15412473431E+03  0.00000000000E+00 0. -1.
    9000007    2    1    2  502    0  0.11785627141E+03 -0.16806494536E+03  0.12276782835E+04  0.13073787582E+04  0.39988663782E+03 0.  0.
    9000005    1    3    3    0    0  0.25563403939E+03 -0.37454340145E+02  0.75590713825E+03  0.79884178116E+03  0.99999687468E+00 0.  0.
          4    1    3    3  502    0 -0.13777776797E+03 -0.13061060521E+03  0.47177114528E+03  0.50853697708E+03  0.00000000000E+00 0.  1.
   -9000007    1    1    2    0  501 -0.11785627141E+03  0.16806494536E+03  0.32794124666E+03  0.55649024055E+03  0.40000000000E+03 0. -1.
<mgrwt>
<rscale>  2 0.44954486E+03</rscale>
<asrwt>0</asrwt>
<pdfrwt beam="1">  1        2 0.26303757E+00 0.44954486E+03</pdfrwt>
<pdfrwt beam="2">  1       -2 0.23711499E-01 0.44954486E+03</pdfrwt>
<totfact> 0.16092026E+02</totfact>
</mgrwt>
</event>
<event>
 6    1  0.9205235E-004  0.4958485E+03  0.7818608E-02  0.1014868E+00
         -1   -1    0    0    0  501 -0.00000000000E+00  0.00000000000E+00  0.41893325994E+03  0.41893325994E+03  0.00000000000E+00 0.  1.
          1   -1    0    0  502    0  0.00000000000E+00 -0.00000000000E+00 -0.64424176730E+03  0.64424176730E+03  0.00000000000E+00 0. -1.
    9000007    2    1    2  502    0 -0.28394087805E+03  0.46440514768E+02  0.45276255004E+02  0.50104047283E+03  0.40769163899E+03 0.  0.
    9000005    1    3    3    0    0 -0.29664830557E+02 -0.15918135755E+03  0.62517386641E+02  0.17357456723E+03  0.99999687468E+00 0.  0.
          4    1    3    3  502    0 -0.25427604750E+03  0.20562187232E+03 -0.17241131637E+02  0.32746590559E+03  0.00000000000E+00 0.  1.
   -9000007    1    1    2    0  501  0.28394087805E+03 -0.46440514768E+02 -0.27058476237E+03  0.56213455442E+03  0.40000000000E+03 0.  1.
<mgrwt>
<rscale>  2 0.49584852E+03</rscale>
<asrwt>0</asrwt>
<pdfrwt beam="1">  1        1 0.99114118E-01 0.49584852E+03</pdfrwt>
<pdfrwt beam="2">  1       -1 0.64451271E-01 0.49584852E+03</pdfrwt>
<totfact> 0.78688678E+01</totfact>
</mgrwt>
</event>
<event>
 6    1  0.9205235E-004  0.6007317E+03  0.7818608E-02  0.9903889E-01
          1   -1    0    0  502    0  0.00000000000E+00  0.00000000000E+00  0.23631475612E+03  0.23631475612E+03  0.00000000000E+00 0. -1.
         -1   -1    0    0    0  501 -0.00000000000E+00 -0.00000000000E+00 -0.16583920396E+04  0.16583920396E+04  0.00000000000E+00 0.  1.
    9000007    2    1    2  502    0  0.26260873484E+03 -0.36338206248E+03 -0.44437436913E+03  0.74713855824E+03  0.39967183328E+03 0.  0.
    9000005    1    3    3    0    0 -0.64774307663E+02 -0.12109736208E+03  0.90705858599E+01  0.13763559698E+03  0.99999687468E+00 0.  0.
          4    1    3    3  502    0  0.32738304250E+03 -0.24228470040E+03 -0.45344495499E+03  0.60950296125E+03  0.00000000000E+00 0.  1.
   -9000007    1    1    2    0  501 -0.26260873484E+03  0.36338206248E+03 -0.97770291430E+03  0.11475682374E+04  0.40000000000E+03 0. -1.
<mgrwt>
<rscale>  2 0.60073175E+03</rscale>
<asrwt>0</asrwt>
<pdfrwt beam="1">  1        1 0.36356116E-01 0.60073175E+03</pdfrwt>
<pdfrwt beam="2">  1       -1 0.25513724E+00 0.60073175E+03</pdfrwt>
<totfact> 0.81757900E+00</totfact>
</mgrwt>
</event>
<event>
 6    1  0.9205235E-004  0.4059328E+03  0.7818608E-02  0.1041745E+00
         -2   -1    0    0    0  501 -0.00000000000E+00  0.00000000000E+00  0.38551624691E+03  0.38551624691E+03  0.00000000000E+00 0. -1.
          2   -1    0    0  502    0  0.00000000000E+00 -0.00000000000E+00 -0.55278856690E+03  0.55278856690E+03  0.00000000000E+00 0.  1.
    9000007    2    1    2  502    0 -0.64016302275E+02 -0.25087362995E+02 -0.30706083646E+03  0.50903998637E+03  0.40013483689E+03 0.  0.
    9000005    1    3    3    0    0  0.10147352533E+03 -0.12361502281E+03 -0.16965275370E+02  0.16083025452E+03  0.99999687468E+00 0.  0.
          4    1    3    3  502    0 -0.16548982761E+03  0.98527659815E+02 -0.29009556109E+03  0.34820973184E+03  0.00000000000E+00 0.  1.
   -9000007    1    1    2    0  501  0.64016302275E+02  0.25087362995E+02  0.13978851646E+03  0.42926482744E+03  0.40000000000E+03 0. -1.
<mgrwt>
<rscale>  2 0.40593275E+03</rscale>
<asrwt>0</asrwt>
<pdfrwt beam="1">  1        2 0.85044395E-01 0.40593275E+03</pdfrwt>
<pdfrwt beam="2">  1       -2 0.59310192E-01 0.40593275E+03</pdfrwt>
<totfact> 0.14993863E+02</totfact>
</mgrwt>
</event>
<event>
 6    1  0.9205235E-004  0.4056547E+03  0.7818608E-02  0.1041839E+00
          1   -1    0    0  502    0  0.00000000000E+00  0.00000000000E+00  0.23137000465E+04  0.23137000465E+04  0.00000000000E+00 0. -1.
         -1   -1    0    0    0  501 -0.00000000000E+00 -0.00000000000E+00 -0.80174630523E+02  0.80174630523E+02  0.00000000000E+00 0.  1.
    9000007    2    1    2  502    0  0.55391358634E+02  0.35837741463E+02  0.15195653328E+04  0.15728438940E+04  0.40050788742E+03 0.  0.
    9000005    1    3    3    0    0 -0.52601998299E+02  0.12103572954E+03  0.16488685284E+03  0.21119965029E+03  0.99999687468E+00 0.  0.
          4    1    3    3  502    0  0.10799335693E+03 -0.85197988081E+02  0.13546784800E+04  0.13616442437E+04  0.00000000000E+00 0.  1.
   -9000007    1    1    2    0  501 -0.55391358634E+02 -0.35837741463E+02  0.71396008320E+03  0.82103078306E+03  0.40000000000E+03 0.  1.
<mgrwt>
<rscale>  2 0.40565466E+03</rscale>
<asrwt>0</asrwt>
<pdfrwt beam="1">  1        1 0.35595380E+00 0.40565466E+03</pdfrwt>
<pdfrwt beam="2">  1       -1 0.12334560E-01 0.40565466E+03</pdfrwt>
<totfact> 0.89688902E+01</totfact>
</mgrwt>
</event>
<event>
 6    1  0.9205235E-004  0.4666545E+03  0.7818608E-02  0.1022869E+00
          1   -1    0    0  502    0  0.00000000000E+00  0.00000000000E+00  0.11229586358E+04  0.11229586358E+04  0.00000000000E+00 0.  1.
         -1   -1    0    0    0  501 -0.00000000000E+00 -0.00000000000E+00 -0.20405469115E+03  0.20405469115E+03  0.00000000000E+00 0. -1.
    9000007    2    1    2  502    0  0.11749560026E+03 -0.20861287277E+03  0.60774833849E+03  0.76652928793E+03  0.40110417543E+03 0.  0.
    9000005    1    3    3    0    0  0.14255557011E+03 -0.19799154948E+03  0.10930134431E+03  0.26733972413E+03  0.99999687468E+00 0.  0.
          4    1    3    3  502    0 -0.25059969848E+02 -0.10621323282E+02  0.49844699418E+03  0.49918956380E+03  0.00000000000E+00 0.  1.
   -9000007    1    1    2    0  501 -0.11749560026E+03  0.20861287277E+03  0.31115560619E+03  0.56048403905E+03  0.40000000000E+03 0. -1.
<mgrwt>
<rscale>  2 0.46665445E+03</rscale>
<asrwt>0</asrwt>
<pdfrwt beam="1">  1        1 0.17276286E+00 0.46665445E+03</pdfrwt>
<pdfrwt beam="2">  1       -1 0.31393030E-01 0.46665445E+03</pdfrwt>
<totfact> 0.12023275E+02</totfact>
</mgrwt>
</event>
<event>
 6    1  0.9205235E-004  0.4358682E+03  0.7818608E-02  0.1032022E+00
         -2   -1    0    0    0  501 -0.00000000000E+00  0.00000000000E+00  0.10347434642E+03  0.10347434642E+03  0.00000000000E+00 0. -1.
          2   -1    0    0  502    0  0.00000000000E+00 -0.00000000000E+00 -0.28681969708E+04  0.28681969708E+04  0.00000000000E+00 0.  1.
    9000007    2    1    2  502    0 -0.44058152378E+02  0.16911648535E+03 -0.22723951643E+04  0.23136987993E+04  0.39859860086E+03 0.  0.
    9000005    1    3    3    0    0 -0.13487434666E+03  0.19263582898E+03 -0.21314766356E+04  0.21444097790E+04  0.99999687468E+00 0.  0.
          4    1    3    3  502    0  0.90816194280E+02 -0.23519343637E+02 -0.14091852873E+03  0.16928902034E+03  0.00000000000E+00 0.  1.
   -9000007    1    1    2    0  501  0.44058152378E+02 -0.16911648535E+03 -0.49232746006E+03  0.65797251792E+03  0.40000000000E+03 0. -1.
<mgrwt>
<rscale>  2 0.43586822E+03</rscale>
<asrwt>0</asrwt>
<pdfrwt beam="1">  1        2 0.44126106E+00 0.43586822E+03</pdfrwt>
<pdfrwt beam="2">  1       -2 0.15919131E-01 0.43586822E+03</pdfrwt>
<totfact> 0.73860222E+01</totfact>
</mgrwt>
</event>
<event>
 6    1  0.9205235E-004  0.4060641E+03  0.7818608E-02  0.1041700E+00
         -1   -1    0    0    0  501 -0.00000000000E+00  0.00000000000E+00  0.21731325317E+03  0.21731325317E+03  0.00000000000E+00 0. -1.
          1   -1    0    0  502    0  0.00000000000E+00 -0.00000000000E+00 -0.16357710945E+04  0.16357710945E+04  0.00000000000E+00 0.  1.
    9000007    2    1    2  502    0 -0.33291303843E+02  0.61295128955E+02 -0.13876847058E+04  0.14458836728E+04  0.40005668215E+03 0.  0.
    9000005    1    3    3    0    0 -0.12659940691E+01 -0.60474715378E+02 -0.86484308688E+01  0.61111286120E+02  0.99999687468E+00 0.  0.
          4    1    3    3  502    0 -0.32025309774E+02  0.12176984433E+03 -0.13790362749E+04  0.13847723867E+04  0.00000000000E+00 0.  1.
   -9000007    1    1    2    0  501  0.33291303843E+02 -0.61295128955E+02 -0.30773135577E+02  0.40720067487E+03  0.40000000000E+03 0. -1.
<mgrwt>
<rscale>  2 0.40606413E+03</rscale>
<asrwt>0</asrwt>
<pdfrwt beam="1">  1        1 0.25165709E+00 0.40606413E+03</pdfrwt>
<pdfrwt beam="2">  1       -1 0.33432808E-01 0.40606413E+03</pdfrwt>
<totfact> 0.48226198E+01</totfact>
</mgrwt>
</event>
<event>
 6    1  0.9205235E-004  0.4023722E+03  0.7818608E-02  0.1042961E+00
          2   -1    0    0  502    0  0.00000000000E+00  0.00000000000E+00  0.16670582471E+04  0.16670582471E+04  0.00000000000E+00 0. -1.
         -2   -1    0    0    0  501 -0.00000000000E+00 -0.00000000000E+00 -0.10224056192E+03  0.10224056192E+03  0.00000000000E+00 0.  1.
    9000007    2    1    2  502    0  0.36164158993E+02  0.27129924926E+02  0.58409270532E+03  0.70917364409E+03  0.39964870804E+03 0.  0.
    9000005    1    3    3    0    0  0.27443359970E+02 -0.77700963254E+01  0.64111641946E+03  0.64175133478E+03  0.99999687468E+00 0.  0.
          4    1    3    3  502    0  0.87207990231E+01  0.34900021251E+02 -0.57023714132E+02  0.67422309308E+02  0.00000000000E+00 0.  1.
   -9000007    1    1    2    0  501 -0.36164158993E+02 -0.27129924926E+02  0.98072497983E+03  0.10601251649E+04  0.40000000000E+03 0. -1.
<mgrwt>
<rscale>  2 0.40237217E+03</rscale>
<asrwt>0</asrwt>
<pdfrwt beam="1">  1        2 0.25647048E+00 0.40237217E+03</pdfrwt>
<pdfrwt beam="2">  1       -2 0.15729318E-01 0.40237217E+03</pdfrwt>
<totfact> 0.34664202E+02</totfact>
</mgrwt>
</event>
<event>
 6    1  0.9205235E-004  0.4769817E+03  0.7818608E-02  0.1019968E+00
         -2   -1    0    0    0  501 -0.00000000000E+00  0.00000000000E+00  0.11760079361E+03  0.11760079361E+03  0.00000000000E+00 0.  1.
          2   -1    0    0  502    0  0.00000000000E+00 -0.00000000000E+00 -0.27612296206E+04  0.27612296206E+04  0.00000000000E+00 0. -1.
    9000007    2    1    2  502    0  0.24626866056E+03 -0.83390846041E+02 -0.21091975109E+04  0.21624372833E+04  0.39977315806E+03 0.  0.
    9000005    1    3    3    0    0  0.28209451219E+03  0.27182389253E+02 -0.19169361826E+04  0.19377723097E+04  0.99999687468E+00 0.  0.
          4    1    3    3  502    0 -0.35825851625E+02 -0.11057323529E+03 -0.19226132829E+03  0.22466497360E+03  0.00000000000E+00 0.  1.
   -9000007    1    1    2    0  501 -0.24626866056E+03  0.83390846041E+02 -0.53443131610E+03  0.71639313090E+03  0.40000000000E+03 0.  1.
<mgrwt>
<rscale>  2 0.47698172E+03</rscale>
<asrwt>0</asrwt>
<pdfrwt beam="1">  1        2 0.42480456E+00 0.47698172E+03</pdfrwt>
<pdfrwt beam="2">  1       -2 0.18092430E-01 0.47698172E+03</pdfrwt>
<totfact> 0.67979476E+01</totfact>
</mgrwt>
</event>
<event>
 6    1  0.9205235E-004  0.4171162E+03  0.7818608E-02  0.1038009E+00
          2   -1    0    0  502    0  0.00000000000E+00  0.00000000000E+00  0.87106664059E+03  0.87106664059E+03  0.00000000000E+00 0. -1.
         -2   -1    0    0    0  501 -0.00000000000E+00 -0.00000000000E+00 -0.25621412750E+03  0.25621412750E+03  0.00000000000E+00 0.  1.
    9000007    2    1    2  502    0  0.94802909435E+02 -0.81320339807E+02  0.41707281377E+02  0.41728355264E+03  0.39596145858E+03 0.  0.
    9000005    1    3    3    0    0  0.93745333858E+02 -0.23429905949E+03  0.69595454864E+02  0.26177999203E+03  0.99999687468E+00 0.  0.
          4    1    3    3  502    0  0.10575755764E+01  0.15297871968E+03 -0.27888173487E+02  0.15550356061E+03  0.00000000000E+00 0.  1.
   -9000007    1    1    2    0  501 -0.94802909435E+02  0.81320339807E+02  0.57314523171E+03  0.70999721544E+03  0.40000000000E+03 0. -1.
<mgrwt>
<rscale>  2 0.41711618E+03</rscale>
<asrwt>0</asrwt>
<pdfrwt beam="1">  1        2 0.13401025E+00 0.41711618E+03</pdfrwt>
<pdfrwt beam="2">  1       -2 0.39417559E-01 0.41711618E+03</pdfrwt>
<totfact> 0.19322490E+02</totfact>
</mgrwt>
</event>
<event>
 6    1  0.9205235E-004  0.4748789E+03  0.7818608E-02  0.1020552E+00
         -2   -1    0    0    0  501 -0.00000000000E+00  0.00000000000E+00  0.59627242866E+02  0.59627242866E+02  0.00000000000E+00 0. -1.
          2   -1    0    0  502    0  0.00000000000E+00 -0.00000000000E+00 -0.45545237542E+04  0.45545237542E+04  0.00000000000E+00 0.  1.
    9000007    2    1    2  502    0 -0.11562741611E+03  0.22824633124E+03 -0.12974680246E+04  0.13816573752E+04  0.40010966088E+03 0.  0.
    9000005    1    3    3    0    0 -0.15222741563E+03  0.18935293257E+03 -0.31535015034E+03  0.39808847817E+03  0.99999687468E+00 0.  0.
          4    1    3    3  502    0  0.36599999512E+02  0.38893398675E+02 -0.98211787422E+03  0.98356889707E+03  0.00000000000E+00 0.  1.
   -9000007    1    1    2    0  501  0.11562741611E+03 -0.22824633124E+03 -0.31974284868E+04  0.32324936219E+04  0.40000000000E+03 0. -1.
<mgrwt>
<rscale>  2 0.47487888E+03</rscale>
<asrwt>0</asrwt>
<pdfrwt beam="1">  1        2 0.70069573E+00 0.47487888E+03</pdfrwt>
<pdfrwt beam="2">  1       -2 0.91734251E-02 0.47487888E+03</pdfrwt>
<totfact> 0.10493365E+01</totfact>
</mgrwt>
</event>
<event>
 6    1  0.9205235E-004  0.4147748E+03  0.7818608E-02  0.1038780E+00
         -2   -1    0    0    0  501 -0.00000000000E+00  0.00000000000E+00  0.27676531531E+03  0.27676531531E+03  0.00000000000E+00 0. -1.
          2   -1    0    0  502    0  0.00000000000E+00 -0.00000000000E+00 -0.68937849664E+03  0.68937849664E+03  0.00000000000E+00 0.  1.
    9000007    2    1    2  502    0 -0.79888533662E+01  0.11038977996E+03 -0.35765954204E+03  0.54749165590E+03  0.39947095010E+03 0.  0.
    9000005    1    3    3    0    0 -0.16200547080E+03  0.63527233396E+02 -0.22234120488E+02  0.17543328664E+03  0.99999687468E+00 0.  0.
          4    1    3    3  502    0  0.15401661744E+03  0.46862546564E+02 -0.33542542155E+03  0.37205836927E+03  0.00000000000E+00 0.  1.
   -9000007    1    1    2    0  501  0.79888533662E+01 -0.11038977996E+03 -0.54953639289E+02  0.41865215605E+03  0.40000000000E+03 0. -1.
<mgrwt>
<rscale>  2 0.41477478E+03</rscale>
<asrwt>0</asrwt>
<pdfrwt beam="1">  1        2 0.10605823E+00 0.41477478E+03</pdfrwt>
<pdfrwt beam="2">  1       -2 0.42579280E-01 0.41477478E+03</pdfrwt>
<totfact> 0.22475008E+02</totfact>
</mgrwt>
</event>
<event>
 6    1  0.9205235E-004  0.5651468E+03  0.7818608E-02  0.9980476E-01
         -2   -1    0    0    0  501 -0.00000000000E+00  0.00000000000E+00  0.17728610771E+03  0.17728610771E+03  0.00000000000E+00 0.  1.
          2   -1    0    0  502    0  0.00000000000E+00 -0.00000000000E+00 -0.18580760037E+04  0.18580760037E+04  0.00000000000E+00 0. -1.
    9000007    2    1    2  502    0 -0.78456885426E+02 -0.39224125329E+03 -0.10170976260E+04  0.11632978289E+04  0.39845398001E+03 0.  0.
    9000005    1    3    3    0    0  0.11845113558E+03 -0.74125884313E+02 -0.97163443493E+02  0.17019710042E+03  0.99999687468E+00 0.  0.
          4    1    3    3  502    0 -0.19690802100E+03 -0.31811536897E+03 -0.91993418251E+03  0.99310072845E+03  0.00000000000E+00 0.  1.
   -9000007    1    1    2    0  501  0.78456885426E+02  0.39224125329E+03 -0.66369227000E+03  0.87206428256E+03  0.40000000000E+03 0. -1.
<mgrwt>
<rscale>  2 0.56514677E+03</rscale>
<asrwt>0</asrwt>
<pdfrwt beam="1">  1        2 0.28585787E+00 0.56514677E+03</pdfrwt>
<pdfrwt beam="2">  1       -2 0.27274784E-01 0.56514677E+03</pdfrwt>
<totfact> 0.10245181E+02</totfact>
</mgrwt>
</event>
<event>
 6    1  0.9205235E-004  0.4309433E+03  0.7818608E-02  0.1033562E+00
          1   -1    0    0  502    0  0.00000000000E+00  0.00000000000E+00  0.93158163962E+03  0.93158163962E+03  0.00000000000E+00 0. -1.
         -1   -1    0    0    0  501 -0.00000000000E+00 -0.00000000000E+00 -0.20112425767E+03  0.20112425767E+03  0.00000000000E+00 0.  1.
    9000007    2    1    2  502    0  0.77226123473E+02  0.14046281783E+03  0.31207448007E+03  0.53209127050E+03  0.40004619944E+03 0.  0.
    9000005    1    3    3    0    0 -0.52444642405E+02 -0.12461795380E+03  0.84566528965E+02  0.15947593154E+03  0.99999687468E+00 0.  0.
          4    1    3    3  502    0  0.12967076588E+03  0.26508077163E+03  0.22750795110E+03  0.37261533896E+03  0.00000000000E+00 0.  1.
   -9000007    1    1    2    0  501 -0.77226123473E+02 -0.14046281783E+03  0.41838290187E+03  0.60061462679E+03  0.40000000000E+03 0.  1.
<mgrwt>
<rscale>  2 0.43094333E+03</rscale>
<asrwt>0</asrwt>
<pdfrwt beam="1">  1        1 0.14332025E+00 0.43094333E+03</pdfrwt>
<pdfrwt beam="2">  1       -1 0.30942194E-01 0.43094333E+03</pdfrwt>
<totfact> 0.17276702E+02</totfact>
</mgrwt>
</event>
<event>
 6    1  0.9205235E-004  0.5639739E+03  0.7818608E-02  0.9983103E-01
          2   -1    0    0  502    0  0.00000000000E+00  0.00000000000E+00  0.63756200952E+03  0.63756200952E+03  0.00000000000E+00 0.  1.
         -2   -1    0    0    0  501 -0.00000000000E+00 -0.00000000000E+00 -0.55755071630E+03  0.55755071630E+03  0.00000000000E+00 0. -1.
    9000007    2    1    2  502    0 -0.19083558717E+03 -0.34359077298E+03  0.23402236488E+03  0.61356973445E+03  0.40893582768E+03 0.  0.
    9000005    1    3    3    0    0 -0.10876851500E+03 -0.16622200536E+03 -0.10316425893E+03  0.22383969540E+03  0.99999687468E+00 0.  0.
          4    1    3    3  502    0 -0.82067072169E+02 -0.17736876763E+03  0.33718662381E+03  0.38973003906E+03  0.00000000000E+00 0.  1.
   -9000007    1    1    2    0  501  0.19083558717E+03  0.34359077298E+03 -0.15401107167E+03  0.58154299137E+03  0.40000000000E+03 0. -1.
<mgrwt>
<rscale>  2 0.56397390E+03</rscale>
<asrwt>0</asrwt>
<pdfrwt beam="1">  1        2 0.98086463E-01 0.56397390E+03</pdfrwt>
<pdfrwt beam="2">  1       -2 0.85777033E-01 0.56397390E+03</pdfrwt>
<totfact> 0.55853535E+01</totfact>
</mgrwt>
</event>
<event>
 6    1  0.9205235E-004  0.4643941E+03  0.7818608E-02  0.1023514E+00
         -2   -1    0    0    0  501 -0.00000000000E+00  0.00000000000E+00  0.13960077631E+03  0.13960077631E+03  0.00000000000E+00 0.  1.
          2   -1    0    0  502    0  0.00000000000E+00 -0.00000000000E+00 -0.19269408968E+04  0.19269408968E+04  0.00000000000E+00 0. -1.
    9000007    2    1    2  502    0 -0.19076249627E+03 -0.14025084111E+03 -0.13531207342E+04  0.14304543333E+04  0.39900281946E+03 0.  0.
    9000005    1    3    3    0    0 -0.24015761263E+03  0.57731084638E+02 -0.90429777355E+03  0.93742414108E+03  0.99999687468E+00 0.  0.
          4    1    3    3  502    0  0.49395116361E+02 -0.19798192574E+03 -0.44882296066E+03  0.49303019224E+03  0.00000000000E+00 0.  1.
   -9000007    1    1    2    0  501  0.19076249627E+03  0.14025084111E+03 -0.43421938627E+03  0.63608733978E+03  0.40000000000E+03 0.  1.
<mgrwt>
<rscale>  2 0.46439411E+03</rscale>
<asrwt>0</asrwt>
<pdfrwt beam="1">  1        2 0.29645244E+00 0.46439411E+03</pdfrwt>
<pdfrwt beam="2">  1       -2 0.21477043E-01 0.46439411E+03</pdfrwt>
<totfact> 0.14621031E+02</totfact>
</mgrwt>
</event>
<event>
 6    1  0.9205235E-004  0.4036040E+03  0.7818608E-02  0.1042539E+00
          2   -1    0    0  502    0  0.00000000000E+00  0.00000000000E+00  0.23731852642E+04  0.23731852642E+04  0.00000000000E+00 0.  1.
         -2   -1    0    0    0  501 -0.00000000000E+00 -0.00000000000E+00 -0.12193433098E+03  0.12193433098E+03  0.00000000000E+00 0. -1.
    9000007    2    1    2  502    0 -0.36877245291E+02  0.42137687550E+02  0.30038189850E+03  0.50287826779E+03  0.39940174179E+03 0.  0.
    9000005    1    3    3    0    0  0.91250515983E+02 -0.14225840418E+03  0.75569509953E+02  0.18513741128E+03  0.99999687468E+00 0.  0.
          4    1    3    3  502    0 -0.12812776127E+03  0.18439609173E+03  0.22481238854E+03  0.31774085651E+03  0.00000000000E+00 0.  1.
   -9000007    1    1    2    0  501  0.36877245291E+02 -0.42137687550E+02  0.19508690347E+04  0.19922413274E+04  0.40000000000E+03 0.  1.
<mgrwt>
<rscale>  2 0.40360403E+03</rscale>
<asrwt>0</asrwt>
<pdfrwt beam="1">  1        2 0.36510539E+00 0.40360403E+03</pdfrwt>
<pdfrwt beam="2">  1       -2 0.18759130E-01 0.40360403E+03</pdfrwt>
<totfact> 0.10728772E+02</totfact>
</mgrwt>
</event>
<event>
 6    1  0.9205235E-004  0.4836030E+03  0.7818608E-02  0.1018150E+00
         -2   -1    0    0    0  501 -0.00000000000E+00  0.00000000000E+00  0.22668969961E+03  0.22668969961E+03  0.00000000000E+00 0. -1.
          2   -1    0    0  502    0  0.00000000000E+00 -0.00000000000E+00 -0.17799799475E+04  0.17799799475E+04  0.00000000000E+00 0.  1.
    9000007    2    1    2  502    0  0.97423803376E+02  0.25501627178E+03 -0.12547677194E+03  0.49896409944E+03  0.39836673543E+03 0.  0.
    9000005    1    3    3    0    0  0.17320314482E+03  0.32902218857E+03 -0.66491604587E+02  0.37772617519E+03  0.99999687468E+00 0.  0.
          4    1    3    3  502    0 -0.75779341445E+02 -0.74005916793E+02 -0.58985167352E+02  0.12123792426E+03  0.00000000000E+00 0.  1.
   -9000007    1    1    2    0  501 -0.97423803376E+02 -0.25501627178E+03 -0.14278134759E+04  0.15077055477E+04  0.40000000000E+03 0. -1.
<mgrwt>
<rscale>  2 0.48360295E+03</rscale>
<asrwt>0</asrwt>
<pdfrwt beam="1">  1        2 0.27384308E+00 0.48360295E+03</pdfrwt>
<pdfrwt beam="2">  1       -2 0.34875337E-01 0.48360295E+03</pdfrwt>
<totfact> 0.72433318E+01</totfact>
</mgrwt>
</event>
<event>
 6    1  0.9205235E-004  0.4662877E+03  0.7818608E-02  0.1022973E+00
         -2   -1    0    0    0  501 -0.00000000000E+00  0.00000000000E+00  0.77433461724E+02  0.77433461724E+02  0.00000000000E+00 0. -1.
          2   -1    0    0  502    0  0.00000000000E+00 -0.00000000000E+00 -0.28111577286E+04  0.28111577286E+04  0.00000000000E+00 0.  1.
    9000007    2    1    2  502    0 -0.96705439425E+02 -0.21977857493E+03 -0.13168650704E+04  0.13968993500E+04  0.39942410572E+03 0.  0.
    9000005    1    3    3    0    0 -0.95748627711E+01 -0.24982320989E+03 -0.12683301729E+04  0.12927357587E+04  0.99999687468E+00 0.  0.
          4    1    3    3  502    0 -0.87130576654E+02  0.30044634964E+02 -0.48534897507E+02  0.10416359131E+03  0.00000000000E+00 0.  1.
   -9000007    1    1    2    0  501  0.96705439425E+02  0.21977857493E+03 -0.14168591965E+04  0.14916918404E+04  0.40000000000E+03 0.  1.
<mgrwt>
<rscale>  2 0.46628773E+03</rscale>
<asrwt>0</asrwt>
<pdfrwt beam="1">  1        2 0.43248570E+00 0.46628773E+03</pdfrwt>
<pdfrwt beam="2">  1       -2 0.11912843E-01 0.46628773E+03</pdfrwt>
<totfact> 0.12828832E+02</totfact>
</mgrwt>
</event>
<event>
 6    1  0.9205235E-004  0.5431129E+03  0.7818608E-02  0.1003101E+00
         -3   -1    0    0    0  501 -0.00000000000E+00  0.00000000000E+00  0.14128229098E+04  0.14128229098E+04  0.00000000000E+00 0.  1.
          3   -1    0    0  502    0  0.00000000000E+00 -0.00000000000E+00 -0.21033606381E+03  0.21033606381E+03  0.00000000000E+00 0. -1.
    9000007    2    1    2  502    0 -0.20611878128E+03 -0.30463877940E+03  0.53115734293E+03  0.75946166575E+03  0.39920440991E+03 0.  0.
    9000005    1    3    3    0    0 -0.10226494354E+03 -0.38717435951E+03  0.33206047926E+03  0.52021847835E+03  0.99999687468E+00 0.  0.
          4    1    3    3  502    0 -0.10385383774E+03  0.82535580105E+02  0.19909686367E+03  0.23924318741E+03  0.00000000000E+00 0.  1.
   -9000007    1    1    2    0  501  0.20611878128E+03  0.30463877940E+03  0.67132950305E+03  0.86369730784E+03  0.40000000000E+03 0.  1.
<mgrwt>
<rscale>  2 0.54311292E+03</rscale>
<asrwt>0</asrwt>
<pdfrwt beam="1">  1        3 0.32359395E-01 0.54311292E+03</pdfrwt>
<pdfrwt beam="2">  1       -3 0.21735736E+00 0.54311292E+03</pdfrwt>
<totfact> 0.28489171E+00</totfact>
</mgrwt>
</event>
<event>
 6    1  0.9205235E-004  0.5530266E+03  0.7818608E-02  0.1000796E+00
          1   -1    0    0  502    0  0.00000000000E+00  0.00000000000E+00  0.20984512738E+04  0.20984512738E+04  0.00000000000E+00 0. -1.
         -1   -1    0    0    0  501 -0.00000000000E+00 -0.00000000000E+00 -0.22735320303E+03  0.22735320303E+03  0.00000000000E+00 0.  1.
    9000007    2    1    2  502    0 -0.13141779158E+03 -0.35878672574E+03  0.16321147734E+04  0.17232170832E+04  0.39959971455E+03 0.  0.
    9000005    1    3    3    0    0 -0.16576945100E+03 -0.19960156399E+03  0.14725146273E+04  0.14951991917E+04  0.99999687468E+00 0.  0.
          4    1    3    3  502    0  0.34351659416E+02 -0.15918516175E+03  0.15960014610E+03  0.22801789153E+03  0.00000000000E+00 0.  1.
   -9000007    1    1    2    0  501  0.13141779158E+03  0.35878672574E+03  0.23898329738E+03  0.60258739361E+03  0.40000000000E+03 0.  1.
<mgrwt>
<rscale>  2 0.55302665E+03</rscale>
<asrwt>0</asrwt>
<pdfrwt beam="1">  1        1 0.32283864E+00 0.55302665E+03</pdfrwt>
<pdfrwt beam="2">  1       -1 0.34977417E-01 0.55302665E+03</pdfrwt>
<totfact> 0.21357487E+01</totfact>
</mgrwt>
</event>
<event>
 6    1  0.9205235E-004  0.4880756E+03  0.7818608E-02  0.1016939E+00
         -1   -1    0    0    0  501 -0.00000000000E+00  0.00000000000E+00  0.36910128894E+03  0.36910128894E+03  0.00000000000E+00 0. -1.
          1   -1    0    0  502    0  0.00000000000E+00 -0.00000000000E+00 -0.10667202896E+04  0.10667202896E+04  0.00000000000E+00 0.  1.
    9000007    2    1    2  502    0 -0.25147611888E+03 -0.13134903982E+03  0.10336440800E+03  0.49663723584E+03  0.39429878843E+03 0.  0.
    9000005    1    3    3    0    0 -0.24924520655E+03 -0.72098348235E+02  0.23638593395E+03  0.35099950793E+03  0.99999687468E+00 0.  0.
          4    1    3    3  502    0 -0.22309123289E+01 -0.59250691587E+02 -0.13302152595E+03  0.14563772791E+03  0.00000000000E+00 0.  1.
   -9000007    1    1    2    0  501  0.25147611888E+03  0.13134903982E+03 -0.80098340869E+03  0.93918434273E+03  0.40000000000E+03 0.  1.
<mgrwt>
<rscale>  2 0.48807562E+03</rscale>
<asrwt>0</asrwt>
<pdfrwt beam="1">  1        1 0.16411081E+00 0.48807562E+03</pdfrwt>
<pdfrwt beam="2">  1       -1 0.56784814E-01 0.48807562E+03</pdfrwt>
<totfact> 0.44729053E+01</totfact>
</mgrwt>
</event>
<event>
 6    1  0.9205235E-004  0.4374053E+03  0.7818608E-02  0.1031546E+00
         -2   -1    0    0    0  501 -0.00000000000E+00  0.00000000000E+00  0.10991963456E+04  0.10991963456E+04  0.00000000000E+00 0. -1.
          2   -1    0    0  502    0  0.00000000000E+00 -0.00000000000E+00 -0.17428890339E+03  0.17428890339E+03  0.00000000000E+00 0.  1.
    9000007    2    1    2  502    0 -0.70696608785E+02  0.16158251579E+03  0.43951960539E+03  0.62025613753E+03  0.40054122474E+03 0.  0.
    9000005    1    3    3    0    0 -0.12201245652E+03  0.11123748565E+03  0.49984540563E+03  0.52640977126E+03  0.99999687468E+00 0.  0.
          4    1    3    3  502    0  0.51315847740E+02  0.50345030134E+02 -0.60325800232E+02  0.93846366270E+02  0.00000000000E+00 0.  1.
   -9000007    1    1    2    0  501  0.70696608785E+02 -0.16158251579E+03  0.48538783678E+03  0.65322911141E+03  0.40000000000E+03 0.  1.
<mgrwt>
<rscale>  2 0.43740534E+03</rscale>
<asrwt>0</asrwt>
<pdfrwt beam="1">  1        2 0.26813678E-01 0.43740534E+03</pdfrwt>
<pdfrwt beam="2">  1       -2 0.16910713E+00 0.43740534E+03</pdfrwt>
<totfact> 0.45301802E+01</totfact>
</mgrwt>
</event>
<event>
 6    1  0.9205235E-004  0.4189981E+03  0.7818608E-02  0.1037393E+00
         -2   -1    0    0    0  501 -0.00000000000E+00  0.00000000000E+00  0.11295770917E+03  0.11295770917E+03  0.00000000000E+00 0. -1.
          2   -1    0    0  502    0  0.00000000000E+00 -0.00000000000E+00 -0.16232412773E+04  0.16232412773E+04  0.00000000000E+00 0.  1.
    9000007    2    1    2  502    0 -0.80183702245E+02  0.95017044061E+02 -0.93437765536E+03  0.10240716909E+04  0.40025436966E+03 0.  0.
    9000005    1    3    3    0    0  0.15794679381E+03  0.17407125203E+02 -0.26033532722E+03  0.30500111520E+03  0.99999687468E+00 0.  0.
          4    1    3    3  502    0 -0.23813049606E+03  0.77609918858E+02 -0.67404232815E+03  0.71907057567E+03  0.00000000000E+00 0.  1.
   -9000007    1    1    2    0  501  0.80183702245E+02 -0.95017044061E+02 -0.57590591277E+03  0.71212729560E+03  0.40000000000E+03 0. -1.
<mgrwt>
<rscale>  2 0.41899811E+03</rscale>
<asrwt>0</asrwt>
<pdfrwt beam="1">  1        2 0.24972940E+00 0.41899811E+03</pdfrwt>
<pdfrwt beam="2">  1       -2 0.17378111E-01 0.41899811E+03</pdfrwt>
<totfact> 0.30856261E+02</totfact>
</mgrwt>
</event>
<event>
 6    1  0.9205235E-004  0.4013790E+03  0.7818608E-02  0.1043303E+00
         -2   -1    0    0    0  501 -0.00000000000E+00  0.00000000000E+00  0.35050278289E+03  0.35050278289E+03  0.00000000000E+00 0.  1.
          2   -1    0    0  502    0  0.00000000000E+00 -0.00000000000E+00 -0.46183415302E+03  0.46183415302E+03  0.00000000000E+00 0. -1.
    9000007    2    1    2  502    0  0.39290340198E+02 -0.73956039856E+01 -0.83569969135E+02  0.40938641640E+03  0.39876668918E+03 0.  0.
    9000005    1    3    3    0    0  0.84326967761E+02 -0.98959692251E+02 -0.20995294191E+03  0.24695201152E+03  0.99999687468E+00 0.  0.
          4    1    3    3  502    0 -0.45036627564E+02  0.91564088265E+02  0.12638297277E+03  0.16243440488E+03  0.00000000000E+00 0.  1.
   -9000007    1    1    2    0  501 -0.39290340198E+02  0.73956039856E+01 -0.27761400990E+02  0.40295051951E+03  0.40000000000E+03 0. -1.
<mgrwt>
<rscale>  2 0.40137901E+03</rscale>
<asrwt>0</asrwt>
<pdfrwt beam="1">  1        2 0.71051408E-01 0.40137901E+03</pdfrwt>
<pdfrwt beam="2">  1       -2 0.53923505E-01 0.40137901E+03</pdfrwt>
<totfact> 0.22425922E+02</totfact>
</mgrwt>
</event>
<event>
 6    1  0.9205235E-004  0.5070497E+03  0.7818608E-02  0.1011955E+00
          2   -1    0    0  502    0  0.00000000000E+00  0.00000000000E+00  0.54464175878E+03  0.54464175878E+03  0.00000000000E+00 0. -1.
         -2   -1    0    0    0  501 -0.00000000000E+00 -0.00000000000E+00 -0.67896762222E+03  0.67896762222E+03  0.00000000000E+00 0.  1.
    9000007    2    1    2  502    0  0.30498516245E+03 -0.64607157819E+02 -0.40489635759E+03  0.64880643523E+03  0.39977330557E+03 0.  0.
    9000005    1    3    3    0    0  0.35861689775E+03 -0.23034929348E+02 -0.15764966227E+03  0.39241700183E+03  0.99999687468E+00 0.  0.
          4    1    3    3  502    0 -0.53631735295E+02 -0.41572228471E+02 -0.24724669532E+03  0.25638943340E+03  0.00000000000E+00 0.  1.
   -9000007    1    1    2    0  501 -0.30498516245E+03  0.64607157819E+02  0.27057049415E+03  0.57480294577E+03  0.40000000000E+03 0. -1.
<mgrwt>
<rscale>  2 0.50704967E+03</rscale>
<asrwt>0</asrwt>
<pdfrwt beam="1">  1        2 0.83791040E-01 0.50704967E+03</pdfrwt>
<pdfrwt beam="2">  1       -2 0.10445656E+00 0.50704967E+03</pdfrwt>
<totfact> 0.42849529E+01</totfact>
</mgrwt>
</event>
<event>
 6    1  0.9205235E-004  0.4031616E+03  0.7818608E-02  0.1042690E+00
          2   -1    0    0  502    0  0.00000000000E+00  0.00000000000E+00  0.49295650419E+03  0.49295650419E+03  0.00000000000E+00 0.  1.
         -2   -1    0    0    0  501 -0.00000000000E+00 -0.00000000000E+00 -0.33021609306E+03  0.33021609306E+03  0.00000000000E+00 0. -1.
    9000007    2    1    2  502    0 -0.33133248292E+02 -0.95312681702E+01  0.97514468021E+02  0.41642564782E+03  0.40337648850E+03 0.  0.
    9000005    1    3    3    0    0 -0.19534563576E+03 -0.89748066709E+02  0.94845609711E+01  0.21518733648E+03  0.99999687468E+00 0.  0.
          4    1    3    3  502    0  0.16221238747E+03  0.80216798538E+02  0.88029907050E+02  0.20123831134E+03  0.00000000000E+00 0.  1.
   -9000007    1    1    2    0  501  0.33133248292E+02  0.95312681702E+01  0.65225943110E+02  0.40674694943E+03  0.40000000000E+03 0. -1.
<mgrwt>
<rscale>  2 0.40316162E+03</rscale>
<asrwt>0</asrwt>
<pdfrwt beam="1">  1        2 0.75839462E-01 0.40316162E+03</pdfrwt>
<pdfrwt beam="2">  1       -2 0.50802476E-01 0.40316162E+03</pdfrwt>
<totfact> 0.23515037E+02</totfact>
</mgrwt>
</event>
<event>
 6    1  0.9205235E-004  0.5203922E+03  0.7818608E-02  0.1008589E+00
         -2   -1    0    0    0  501 -0.00000000000E+00  0.00000000000E+00  0.12457992979E+03  0.12457992979E+03  0.00000000000E+00 0. -1.
          2   -1    0    0  502    0  0.00000000000E+00 -0.00000000000E+00 -0.22526463494E+04  0.22526463494E+04  0.00000000000E+00 0.  1.
    9000007    2    1    2  502    0 -0.45964959847E+02  0.32884892110E+03 -0.84266947395E+03  0.99068392558E+03  0.40138311828E+03 0.  0.
    9000005    1    3    3    0    0  0.16423497445E+03  0.23147926889E+03 -0.53414824807E+03  0.60487282107E+03  0.99999687468E+00 0.  0.
          4    1    3    3  502    0 -0.21019993429E+03  0.97369652205E+02 -0.30852122588E+03  0.38581110451E+03  0.00000000000E+00 0.  1.
   -9000007    1    1    2    0  501  0.45964959847E+02 -0.32884892110E+03 -0.12853969457E+04  0.13865423536E+04  0.40000000000E+03 0.  1.
<mgrwt>
<rscale>  2 0.52039219E+03</rscale>
<asrwt>0</asrwt>
<pdfrwt beam="1">  1        2 0.34656096E+00 0.52039219E+03</pdfrwt>
<pdfrwt beam="2">  1       -2 0.19166144E-01 0.52039219E+03</pdfrwt>
<totfact> 0.11781444E+02</totfact>
</mgrwt>
</event>
<event>
 6    1  0.9205235E-004  0.5778289E+03  0.7818608E-02  0.9952503E-01
          2   -1    0    0  502    0  0.00000000000E+00  0.00000000000E+00  0.10522476458E+04  0.10522476458E+04  0.00000000000E+00 0.  1.
         -2   -1    0    0    0  501 -0.00000000000E+00 -0.00000000000E+00 -0.31966228888E+03  0.31966228888E+03  0.00000000000E+00 0. -1.
    9000007    2    1    2  502    0  0.65457276155E+02  0.41170468718E+03  0.42522044721E+03  0.71749524036E+03  0.40025190414E+03 0.  0.
    9000005    1    3    3    0    0  0.12288845191E+03  0.36870827002E+03  0.12415316194E+03  0.40799799951E+03  0.99999687468E+00 0.  0.
          4    1    3    3  502    0 -0.57431175754E+02  0.42996417164E+02  0.30106728527E+03  0.30949724085E+03  0.00000000000E+00 0.  1.
   -9000007    1    1    2    0  501 -0.65457276155E+02 -0.41170468718E+03  0.30736490975E+03  0.65441469436E+03  0.40000000000E+03 0.  1.
<mgrwt>
<rscale>  2 0.57782885E+03</rscale>
<asrwt>0</asrwt>
<pdfrwt beam="1">  1        2 0.16188425E+00 0.57782885E+03</pdfrwt>
<pdfrwt beam="2">  1       -2 0.49178814E-01 0.57782885E+03</pdfrwt>
<totfact> 0.94026319E+01</totfact>
</mgrwt>
</event>
<event>
 6    1  0.9205235E-004  0.4508044E+03  0.7818608E-02  0.1027482E+00
         -2   -1    0    0    0  501 -0.00000000000E+00  0.00000000000E+00  0.76831536700E+02  0.76831536700E+02  0.00000000000E+00 0. -1.
          2   -1    0    0  502    0  0.00000000000E+00 -0.00000000000E+00 -0.29756472917E+04  0.29756472917E+04  0.00000000000E+00 0.  1.
    9000007    2    1    2  502    0  0.17333910617E+03 -0.10969557258E+03 -0.19617393322E+04  0.20131560746E+04  0.40286053280E+03 0.  0.
    9000005    1    3    3    0    0  0.30493185619E+03 -0.74787036824E+02 -0.12788287276E+04  0.13168069153E+04  0.99999687468E+00 0.  0.
          4    1    3    3  502    0 -0.13159275002E+03 -0.34908535753E+02 -0.68291060461E+03  0.69634915927E+03  0.00000000000E+00 0.  1.
   -9000007    1    1    2    0  501 -0.17333910617E+03  0.10969557258E+03 -0.93707642284E+03  0.10393227538E+04  0.40000000000E+03 0.  1.
<mgrwt>
<rscale>  2 0.45080442E+03</rscale>
<asrwt>0</asrwt>
<pdfrwt beam="1">  1        2 0.45779180E+00 0.45080442E+03</pdfrwt>
<pdfrwt beam="2">  1       -2 0.11820239E-01 0.45080442E+03</pdfrwt>
<totfact> 0.10418834E+02</totfact>
</mgrwt>
</event>
<event>
 6    1  0.9205235E-004  0.4592808E+03  0.7818608E-02  0.1024990E+00
         -2   -1    0    0    0  501 -0.00000000000E+00  0.00000000000E+00  0.16928890878E+03  0.16928890878E+03  0.00000000000E+00 0.  1.
          2   -1    0    0  502    0  0.00000000000E+00 -0.00000000000E+00 -0.16312086673E+04  0.16312086673E+04  0.00000000000E+00 0. -1.
    9000007    2    1    2  502    0 -0.21781436247E+03 -0.60134082119E+02 -0.29333950246E+03  0.54485470521E+03  0.39969911403E+03 0.  0.
    9000005    1    3    3    0    0  0.10118376986E+03 -0.87624473651E+02 -0.12487231172E+03  0.18305818172E+03  0.99999687468E+00 0.  0.
          4    1    3    3  502    0 -0.31899813233E+03  0.27490391532E+02 -0.16846719074E+03  0.36179652349E+03  0.00000000000E+00 0.  1.
   -9000007    1    1    2    0  501  0.21781436247E+03  0.60134082119E+02 -0.11685802561E+04  0.12556428709E+04  0.40000000000E+03 0. -1.
<mgrwt>
<rscale>  2 0.45928081E+03</rscale>
<asrwt>0</asrwt>
<pdfrwt beam="1">  1        2 0.25095518E+00 0.45928081E+03</pdfrwt>
<pdfrwt beam="2">  1       -2 0.26044448E-01 0.45928081E+03</pdfrwt>
<totfact> 0.14978924E+02</totfact>
</mgrwt>
</event>
<event>
 6    1  0.9205235E-004  0.4255299E+03  0.7818608E-02  0.1035281E+00
         -2   -1    0    0    0  501 -0.00000000000E+00  0.00000000000E+00  0.63391931277E+03  0.63391931277E+03  0.00000000000E+00 0. -1.
          2   -1    0    0  502    0  0.00000000000E+00 -0.00000000000E+00 -0.30011895421E+03  0.30011895421E+03  0.00000000000E+00 0.  1.
    9000007    2    1    2  502    0  0.48615236809E+02  0.13758713346E+03  0.26936622650E+03  0.50340452711E+03  0.39945499546E+03 0.  0.
    9000005    1    3    3    0    0  0.19657195373E+03  0.71625492793E+00  0.44732146026E+02  0.20160111829E+03  0.99999687468E+00 0.  0.
          4    1    3    3  502    0 -0.14795671692E+03  0.13687087853E+03  0.22463408047E+03  0.30180340882E+03  0.00000000000E+00 0.  1.
   -9000007    1    1    2    0  501 -0.48615236809E+02 -0.13758713346E+03  0.64434132067E+02  0.43063373987E+03  0.40000000000E+03 0.  1.
<mgrwt>
<rscale>  2 0.42552988E+03</rscale>
<asrwt>0</asrwt>
<pdfrwt beam="1">  1        2 0.46172147E-01 0.42552988E+03</pdfrwt>
<pdfrwt beam="2">  1       -2 0.97526048E-01 0.42552988E+03</pdfrwt>
<totfact> 0.98904419E+01</totfact>
</mgrwt>
</event>
<event>
 6    1  0.9205235E-004  0.4283215E+03  0.7818608E-02  0.1034392E+00
          1   -1    0    0  502    0  0.00000000000E+00  0.00000000000E+00  0.32739673289E+04  0.32739673289E+04  0.00000000000E+00 0.  1.
         -1   -1    0    0    0  501 -0.00000000000E+00 -0.00000000000E+00 -0.62714976105E+02  0.62714976105E+02  0.00000000000E+00 0. -1.
    9000007    2    1    2  502    0 -0.94598869816E+02  0.11687415866E+03  0.10645191904E+04  0.11478306002E+04  0.40212618029E+03 0.  0.
    9000005    1    3    3    0    0 -0.41420142828E+02  0.26521461958E+03  0.59999201101E+03  0.65730193666E+03  0.99999687468E+00 0.  0.
          4    1    3    3  502    0 -0.53178726988E+02 -0.14834046092E+03  0.46452717937E+03  0.49052866351E+03  0.00000000000E+00 0.  1.
   -9000007    1    1    2    0  501  0.94598869816E+02 -0.11687415866E+03  0.21467331624E+04  0.21888517048E+04  0.40000000000E+03 0.  1.
<mgrwt>
<rscale>  2 0.42832145E+03</rscale>
<asrwt>0</asrwt>
<pdfrwt beam="1">  1        1 0.50368715E+00 0.42832145E+03</pdfrwt>
<pdfrwt beam="2">  1       -1 0.96484604E-02 0.42832145E+03</pdfrwt>
<totfact> 0.28312657E+01</totfact>
</mgrwt>
</event>
<event>
 6    1  0.9205235E-004  0.4750090E+03  0.7818608E-02  0.1020516E+00
         -1   -1    0    0    0  501 -0.00000000000E+00  0.00000000000E+00  0.12800002606E+04  0.12800002606E+04  0.00000000000E+00 0.  1.
          1   -1    0    0  502    0  0.00000000000E+00 -0.00000000000E+00 -0.17959901942E+03  0.17959901942E+03  0.00000000000E+00 0. -1.
    9000007    2    1    2  502    0 -0.33176607123E+02  0.25374676342E+03  0.64964198858E+03  0.80486879272E+03  0.40036352602E+03 0.  0.
    9000005    1    3    3    0    0  0.23916304522E+02 -0.31955770842E+02 -0.39810823177E+02  0.56383176107E+02  0.99999687468E+00 0.  0.
          4    1    3    3  502    0 -0.57092911645E+02  0.28570253426E+03  0.68945281176E+03  0.74848561661E+03  0.00000000000E+00 0.  1.
   -9000007    1    1    2    0  501  0.33176607123E+02 -0.25374676342E+03  0.45075925263E+03  0.65473048733E+03  0.40000000000E+03 0. -1.
<mgrwt>
<rscale>  2 0.47500899E+03</rscale>
<asrwt>0</asrwt>
<pdfrwt beam="1">  1        1 0.27630619E-01 0.47500899E+03</pdfrwt>
<pdfrwt beam="2">  1       -1 0.19692311E+00 0.47500899E+03</pdfrwt>
<totfact> 0.28600966E+01</totfact>
</mgrwt>
</event>
<event>
 6    1  0.9205235E-004  0.4013848E+03  0.7818608E-02  0.1043301E+00
          1   -1    0    0  502    0  0.00000000000E+00  0.00000000000E+00  0.27735972432E+04  0.27735972432E+04  0.00000000000E+00 0. -1.
         -1   -1    0    0    0  501 -0.00000000000E+00 -0.00000000000E+00 -0.58097066111E+02  0.58097066111E+02  0.00000000000E+00 0.  1.
    9000007    2    1    2  502    0  0.14522655229E+02  0.43568029344E+02  0.13717418877E+04  0.14289129931E+04  0.39750151547E+03 0.  0.
    9000005    1    3    3    0    0  0.66744156051E+02 -0.15977625407E+03  0.83092714658E+03  0.84877803733E+03  0.99999687468E+00 0.  0.
          4    1    3    3  502    0 -0.52221500822E+02  0.20334428341E+03  0.54081474111E+03  0.58013495580E+03  0.00000000000E+00 0.  1.
   -9000007    1    1    2    0  501 -0.14522655229E+02 -0.43568029344E+02  0.13437582894E+04  0.14027813162E+04  0.40000000000E+03 0. -1.
<mgrwt>
<rscale>  2 0.40138476E+03</rscale>
<asrwt>0</asrwt>
<pdfrwt beam="1">  1        1 0.42670716E+00 0.40138476E+03</pdfrwt>
<pdfrwt beam="2">  1       -1 0.89380123E-02 0.40138476E+03</pdfrwt>
<totfact> 0.72801797E+01</totfact>
</mgrwt>
</event>
<event>
 6    1  0.9205235E-004  0.4193505E+03  0.7818608E-02  0.1037278E+00
         -2   -1    0    0    0  501 -0.00000000000E+00  0.00000000000E+00  0.56386415395E+03  0.56386415395E+03  0.00000000000E+00 0. -1.
          2   -1    0    0  502    0  0.00000000000E+00 -0.00000000000E+00 -0.31328870002E+03  0.31328870002E+03  0.00000000000E+00 0.  1.
    9000007    2    1    2  502    0  0.22559861127E+02 -0.12420196966E+03  0.95793425566E+02  0.43005940411E+03  0.39979949235E+03 0.  0.
    9000005    1    3    3    0    0  0.67970288951E+02  0.12021444081E+03  0.11639136911E+03  0.18060847919E+03  0.99999687468E+00 0.  0.
          4    1    3    3  502    0 -0.45410427824E+02 -0.24441641047E+03 -0.20597943544E+02  0.24945092492E+03  0.00000000000E+00 0.  1.
   -9000007    1    1    2    0  501 -0.22559861127E+02  0.12420196966E+03  0.15478202837E+03  0.44709344986E+03  0.40000000000E+03 0. -1.
<mgrwt>
<rscale>  2 0.41935054E+03</rscale>
<asrwt>0</asrwt>
<pdfrwt beam="1">  1        2 0.48198262E-01 0.41935054E+03</pdfrwt>
<pdfrwt beam="2">  1       -2 0.86748331E-01 0.41935054E+03</pdfrwt>
<totfact> 0.12356712E+02</totfact>
</mgrwt>
</event>
<event>
 6    1  0.9205235E-004  0.4162396E+03  0.7818608E-02  0.1038297E+00
         -1   -1    0    0    0  501 -0.00000000000E+00  0.00000000000E+00  0.21629165595E+03  0.21629165595E+03  0.00000000000E+00 0.  1.
          1   -1    0    0  502    0  0.00000000000E+00 -0.00000000000E+00 -0.98732714776E+03  0.98732714776E+03  0.00000000000E+00 0. -1.
    9000007    2    1    2  502    0  0.91340060703E+02 -0.70023797926E+02 -0.64694378836E+03  0.76928587861E+03  0.40002269781E+03 0.  0.
    9000005    1    3    3    0    0  0.18426507991E+03 -0.98647826508E+02 -0.13643711902E+03  0.24960188459E+03  0.99999687468E+00 0.  0.
          4    1    3    3  502    0 -0.92925019203E+02  0.28624028582E+02 -0.51050666933E+03  0.51968399402E+03  0.00000000000E+00 0.  1.
   -9000007    1    1    2    0  501 -0.91340060703E+02  0.70023797926E+02 -0.12409170345E+03  0.43433292510E+03  0.40000000000E+03 0.  1.
<mgrwt>
<rscale>  2 0.41623962E+03</rscale>
<asrwt>0</asrwt>
<pdfrwt beam="1">  1        1 0.15189649E+00 0.41623962E+03</pdfrwt>
<pdfrwt beam="2">  1       -1 0.33275639E-01 0.41623962E+03</pdfrwt>
<totfact> 0.13804824E+02</totfact>
</mgrwt>
</event>
<event>
 6    1  0.9205235E-004  0.4021206E+03  0.7818608E-02  0.1043048E+00
         -1   -1    0    0    0  501 -0.00000000000E+00  0.00000000000E+00  0.26859452972E+03  0.26859452972E+03  0.00000000000E+00 0. -1.
          1   -1    0    0  502    0  0.00000000000E+00 -0.00000000000E+00 -0.60357143677E+03  0.60357143677E+03  0.00000000000E+00 0.  1.
    9000007    2    1    2  502    0 -0.11166833114E+02  0.30324536367E+02 -0.14578186503E+03  0.42850050740E+03  0.40164170227E+03 0.  0.
    9000005    1    3    3    0    0  0.18922128368E+03 -0.26526383317E+02 -0.98229701179E+02  0.21484510094E+03  0.99999687468E+00 0.  0.
          4    1    3    3  502    0 -0.20038811680E+03  0.56850919684E+02 -0.47552163847E+02  0.21365540646E+03  0.00000000000E+00 0.  1.
   -9000007    1    1    2    0  501  0.11166833114E+02 -0.30324536367E+02 -0.18919504202E+03  0.44366545909E+03  0.40000000000E+03 0.  1.
<mgrwt>
<rscale>  2 0.40212059E+03</rscale>
<asrwt>0</asrwt>
<pdfrwt beam="1">  1        1 0.92857145E-01 0.40212059E+03</pdfrwt>
<pdfrwt beam="2">  1       -1 0.41322235E-01 0.40212059E+03</pdfrwt>
<totfact> 0.20223580E+02</totfact>
</mgrwt>
</event>
<event>
 6    1  0.9205235E-004  0.4875907E+03  0.7818608E-02  0.1017070E+00
         -2   -1    0    0    0  501 -0.00000000000E+00  0.00000000000E+00  0.11836279982E+03  0.11836279982E+03  0.00000000000E+00 0. -1.
          2   -1    0    0  502    0  0.00000000000E+00 -0.00000000000E+00 -0.20089722263E+04  0.20089722263E+04  0.00000000000E+00 0.  1.
    9000007    2    1    2  502    0 -0.27499492598E+03 -0.43103640006E+02 -0.93155753289E+03  0.10515745195E+04  0.40066120326E+03 0.  0.
    9000005    1    3    3    0    0 -0.24975746171E+03 -0.76821284554E+02 -0.96376075598E+03  0.99855700599E+03  0.99999687468E+00 0.  0.
          4    1    3    3  502    0 -0.25237464270E+02  0.33717644548E+02  0.32203223097E+02  0.53017513469E+02  0.00000000000E+00 0.  1.
   -9000007    1    1    2    0  501  0.27499492598E+03  0.43103640006E+02 -0.95905189362E+03  0.10757605067E+04  0.40000000000E+03 0.  1.
<mgrwt>
<rscale>  2 0.48759069E+03</rscale>
<asrwt>0</asrwt>
<pdfrwt beam="1">  1        2 0.30907263E+00 0.48759069E+03</pdfrwt>
<pdfrwt beam="2">  1       -2 0.18209663E-01 0.48759069E+03</pdfrwt>
<totfact> 0.17526062E+02</totfact>
</mgrwt>
</event>
<event>
 6    1  0.9205235E-004  0.4909677E+03  0.7818608E-02  0.1016164E+00
          2   -1    0    0  502    0  0.00000000000E+00  0.00000000000E+00  0.58220555356E+03  0.58220555356E+03  0.00000000000E+00 0.  1.
         -2   -1    0    0    0  501 -0.00000000000E+00 -0.00000000000E+00 -0.44972413764E+03  0.44972413764E+03  0.00000000000E+00 0. -1.
    9000007    2    1    2  502    0  0.18407874686E+03 -0.21754737833E+03 -0.79144588561E+02  0.49714243196E+03  0.39959339947E+03 0.  0.
    9000005    1    3    3    0    0  0.27449277645E+03 -0.15812873973E+03 -0.16669470087E+03  0.35796523008E+03  0.99999687468E+00 0.  0.
          4    1    3    3  502    0 -0.90414029591E+02 -0.59418638601E+02  0.87550112310E+02  0.13917720189E+03  0.00000000000E+00 0.  1.
   -9000007    1    1    2    0  501 -0.18407874686E+03  0.21754737833E+03  0.21162600448E+03  0.53478725923E+03  0.40000000000E+03 0.  1.
<mgrwt>
<rscale>  2 0.49096765E+03</rscale>
<asrwt>0</asrwt>
<pdfrwt beam="1">  1        2 0.89570085E-01 0.49096765E+03</pdfrwt>
<pdfrwt beam="2">  1       -2 0.69188329E-01 0.49096765E+03</pdfrwt>
<totfact> 0.10097909E+02</totfact>
</mgrwt>
</event>
<event>
 6    1  0.9205235E-004  0.4288430E+03  0.7818608E-02  0.1034226E+00
         -2   -1    0    0    0  501 -0.00000000000E+00  0.00000000000E+00  0.88312953375E+02  0.88312953375E+02  0.00000000000E+00 0. -1.
          2   -1    0    0  502    0  0.00000000000E+00 -0.00000000000E+00 -0.21329765263E+04  0.21329765263E+04  0.00000000000E+00 0.  1.
    9000007    2    1    2  502    0 -0.14367557082E+02  0.15908910707E+03 -0.11888729602E+04  0.12632219750E+04  0.39597357481E+03 0.  0.
    9000005    1    3    3    0    0 -0.16434790377E+03 -0.44075385196E+02 -0.56858176771E+03  0.59349734593E+03  0.99999687468E+00 0.  0.
          4    1    3    3  502    0  0.14998034669E+03  0.20316449227E+03 -0.62029119251E+03  0.66972462909E+03  0.00000000000E+00 0.  1.
   -9000007    1    1    2    0  501  0.14367557082E+02 -0.15908910707E+03 -0.85579061274E+03  0.95806750469E+03  0.40000000000E+03 0. -1.
<mgrwt>
<rscale>  2 0.42884301E+03</rscale>
<asrwt>0</asrwt>
<pdfrwt beam="1">  1        2 0.32815020E+00 0.42884301E+03</pdfrwt>
<pdfrwt beam="2">  1       -2 0.13586610E-01 0.42884301E+03</pdfrwt>
<totfact> 0.24837845E+02</totfact>
</mgrwt>
</event>
<event>
 6    1  0.9205235E-004  0.4448792E+03  0.7818608E-02  0.1029260E+00
          3   -1    0    0  502    0  0.00000000000E+00  0.00000000000E+00  0.50644189952E+03  0.50644189952E+03  0.00000000000E+00 0.  1.
         -3   -1    0    0    0  501 -0.00000000000E+00 -0.00000000000E+00 -0.40111928858E+03  0.40111928858E+03  0.00000000000E+00 0. -1.
    9000007    2    1    2  502    0 -0.18405041402E+03  0.63866166700E+02  0.12544029227E+03  0.46218700469E+03  0.39991013769E+03 0.  0.
    9000005    1    3    3    0    0  0.84874293841E+02  0.12934816171E+03 -0.79984181503E+01  0.15491793756E+03  0.99999687468E+00 0.  0.
          4    1    3    3  502    0 -0.26892470786E+03 -0.65481995009E+02  0.13343871042E+03  0.30726906712E+03  0.00000000000E+00 0.  1.
   -9000007    1    1    2    0  501  0.18405041402E+03 -0.63866166700E+02 -0.20117681341E+02  0.44537418342E+03  0.40000000000E+03 0. -1.
<mgrwt>
<rscale>  2 0.44487919E+03</rscale>
<asrwt>0</asrwt>
<pdfrwt beam="1">  1        3 0.77914139E-01 0.44487919E+03</pdfrwt>
<pdfrwt beam="2">  1       -3 0.61710660E-01 0.44487919E+03</pdfrwt>
<totfact> 0.10278480E+01</totfact>
</mgrwt>
</event>
<event>
 6    1  0.9205235E-004  0.4071664E+03  0.7818608E-02  0.1041326E+00
         -2   -1    0    0    0  501 -0.00000000000E+00  0.00000000000E+00  0.13637871769E+03  0.13637871769E+03  0.00000000000E+00 0. -1.
          2   -1    0    0  502    0  0.00000000000E+00 -0.00000000000E+00 -0.13547560485E+04  0.13547560485E+04  0.00000000000E+00 0.  1.
    9000007    2    1    2  502    0  0.60042794502E+02 -0.40972807704E+02 -0.37108317987E+03  0.55135219220E+03  0.40125129947E+03 0.  0.
    9000005    1    3    3    0    0 -0.12803418781E+03 -0.88439116893E+02 -0.29278695972E+02  0.15834289588E+03  0.99999687468E+00 0.  0.
          4    1    3    3  502    0  0.18807698231E+03  0.47466309189E+02 -0.34180448389E+03  0.39300929632E+03  0.00000000000E+00 0.  1.
   -9000007    1    1    2    0  501 -0.60042794502E+02  0.40972807704E+02 -0.84729415097E+03  0.93978257401E+03  0.40000000000E+03 0.  1.
<mgrwt>
<rscale>  2 0.40716637E+03</rscale>
<asrwt>0</asrwt>
<pdfrwt beam="1">  1        2 0.20842400E+00 0.40716637E+03</pdfrwt>
<pdfrwt beam="2">  1       -2 0.20981341E-01 0.40716637E+03</pdfrwt>
<totfact> 0.31322743E+02</totfact>
</mgrwt>
</event>
<event>
 6    1  0.9205235E-004  0.4489257E+03  0.7818608E-02  0.1028043E+00
         -1   -1    0    0    0  501 -0.00000000000E+00  0.00000000000E+00  0.44861455711E+03  0.44861455711E+03  0.00000000000E+00 0. -1.
          1   -1    0    0  502    0  0.00000000000E+00 -0.00000000000E+00 -0.45394367804E+03  0.45394367804E+03  0.00000000000E+00 0.  1.
    9000007    2    1    2  502    0 -0.13768976349E+03  0.15037222570E+03  0.43286689511E+02  0.45096796260E+03  0.39991010062E+03 0.  0.
    9000005    1    3    3    0    0 -0.26844173140E+03  0.14947717698E+03 -0.15413778753E+02  0.30764098259E+03  0.99999687468E+00 0.  0.
          4    1    3    3  502    0  0.13075196792E+03  0.89504871329E+00  0.58700468264E+02  0.14332698002E+03  0.00000000000E+00 0.  1.
   -9000007    1    1    2    0  501  0.13768976349E+03 -0.15037222570E+03 -0.48615810438E+02  0.45159027254E+03  0.40000000000E+03 0. -1.
<mgrwt>
<rscale>  2 0.44892574E+03</rscale>
<asrwt>0</asrwt>
<pdfrwt beam="1">  1        1 0.69837489E-01 0.44892574E+03</pdfrwt>
<pdfrwt beam="2">  1       -1 0.69017624E-01 0.44892574E+03</pdfrwt>
<totfact> 0.11197828E+02</totfact>
</mgrwt>
</event>
<event>
 6    1  0.9205235E-004  0.5472128E+03  0.7818608E-02  0.1002141E+00
         -1   -1    0    0    0  501 -0.00000000000E+00  0.00000000000E+00  0.55434881068E+03  0.55434881068E+03  0.00000000000E+00 0.  1.
          1   -1    0    0  502    0  0.00000000000E+00 -0.00000000000E+00 -0.54391855258E+03  0.54391855258E+03  0.00000000000E+00 0. -1.
    9000007    2    1    2  502    0 -0.68418903656E+02  0.36747029054E+03  0.50807930185E+02  0.54931753204E+03  0.39931534459E+03 0.  0.
    9000005    1    3    3    0    0  0.16702809626E+03  0.12440116801E+03  0.10659833336E+02  0.20853936698E+03  0.99999687468E+00 0.  0.
          4    1    3    3  502    0 -0.23544699991E+03  0.24306912253E+03  0.40148096849E+02  0.34077816505E+03  0.00000000000E+00 0.  1.
   -9000007    1    1    2    0  501  0.68418903656E+02 -0.36747029054E+03 -0.40377672087E+02  0.54894983123E+03  0.40000000000E+03 0. -1.
<mgrwt>
<rscale>  2 0.54721276E+03</rscale>
<asrwt>0</asrwt>
<pdfrwt beam="1">  1        1 0.83679777E-01 0.54721276E+03</pdfrwt>
<pdfrwt beam="2">  1       -1 0.85284433E-01 0.54721276E+03</pdfrwt>
<totfact> 0.55774001E+01</totfact>
</mgrwt>
</event>
<event>
 6    1  0.9205235E-004  0.4717066E+03  0.7818608E-02  0.1021440E+00
          3   -1    0    0  502    0  0.00000000000E+00  0.00000000000E+00  0.80440421396E+02  0.80440421396E+02  0.00000000000E+00 0.  1.
         -3   -1    0    0    0  501 -0.00000000000E+00 -0.00000000000E+00 -0.29270264183E+04  0.29270264183E+04  0.00000000000E+00 0. -1.
    9000007    2    1    2  502    0  0.21390894671E+03  0.12879546180E+03 -0.17763605399E+04  0.18379678712E+04  0.40040456967E+03 0.  0.
    9000005    1    3    3    0    0  0.41919097292E+02  0.53389902917E+02 -0.15129312191E+04  0.15144535536E+04  0.99999687468E+00 0.  0.
          4    1    3    3  502    0  0.17198984942E+03  0.75405558882E+02 -0.26342932087E+03  0.32351431762E+03  0.00000000000E+00 0.  1.
   -9000007    1    1    2    0  501 -0.21390894671E+03 -0.12879546180E+03 -0.10702254569E+04  0.11694989684E+04  0.40000000000E+03 0.  1.
<mgrwt>
<rscale>  2 0.47170665E+03</rscale>
<asrwt>0</asrwt>
<pdfrwt beam="1">  1        3 0.12375450E-01 0.47170665E+03</pdfrwt>
<pdfrwt beam="2">  1       -3 0.45031174E+00 0.47170665E+03</pdfrwt>
<totfact> 0.85518743E-01</totfact>
</mgrwt>
</event>
<event>
 6    1  0.9205235E-004  0.4634142E+03  0.7818608E-02  0.1023796E+00
         -2   -1    0    0    0  501 -0.00000000000E+00  0.00000000000E+00  0.34117000459E+03  0.34117000459E+03  0.00000000000E+00 0. -1.
          2   -1    0    0  502    0  0.00000000000E+00 -0.00000000000E+00 -0.71910195890E+03  0.71910195890E+03  0.00000000000E+00 0.  1.
    9000007    2    1    2  502    0  0.21044099933E+03 -0.10156429323E+03 -0.18491096829E+01  0.46358190502E+03  0.40037987412E+03 0.  0.
    9000005    1    3    3    0    0  0.23890541157E+03 -0.10455223839E+03  0.15551729928E+03  0.30363398459E+03  0.99999687468E+00 0.  0.
          4    1    3    3  502    0 -0.28464412239E+02  0.29879451637E+01 -0.15736640896E+03  0.15994792043E+03  0.00000000000E+00 0.  1.
   -9000007    1    1    2    0  501 -0.21044099933E+03  0.10156429323E+03 -0.37608284462E+03  0.59669005847E+03  0.40000000000E+03 0.  1.
<mgrwt>
<rscale>  2 0.46341416E+03</rscale>
<asrwt>0</asrwt>
<pdfrwt beam="1">  1        2 0.11063107E+00 0.46341416E+03</pdfrwt>
<pdfrwt beam="2">  1       -2 0.52487693E-01 0.46341416E+03</pdfrwt>
<totfact> 0.13987529E+02</totfact>
</mgrwt>
</event>
<event>
 6    1  0.9205235E-004  0.4076889E+03  0.7818608E-02  0.1041149E+00
         -1   -1    0    0    0  501 -0.00000000000E+00  0.00000000000E+00  0.44775383376E+02  0.44775383376E+02  0.00000000000E+00 0. -1.
          1   -1    0    0  502    0  0.00000000000E+00 -0.00000000000E+00 -0.37609236219E+04  0.37609236219E+04  0.00000000000E+00 0.  1.
    9000007    2    1    2  502    0 -0.77714697337E+02 -0.60482423095E+01 -0.16419854988E+04  0.16918808422E+04  0.40033517299E+03 0.  0.
    9000005    1    3    3    0    0  0.37565975389E+01  0.14923084237E+03 -0.26817807423E+03  0.30692741134E+03  0.99999687468E+00 0.  0.
          4    1    3    3  502    0 -0.81471294876E+02 -0.15527908468E+03 -0.13738074245E+04  0.13849534309E+04  0.00000000000E+00 0.  1.
   -9000007    1    1    2    0  501  0.77714697337E+02  0.60482423095E+01 -0.20741627398E+04  0.21138181631E+04  0.40000000000E+03 0.  1.
<mgrwt>
<rscale>  2 0.40768888E+03</rscale>
<asrwt>0</asrwt>
<pdfrwt beam="1">  1        1 0.57860395E+00 0.40768888E+03</pdfrwt>
<pdfrwt beam="2">  1       -1 0.68885168E-02 0.40768888E+03</pdfrwt>
<totfact> 0.20301056E+01</totfact>
</mgrwt>
</event>
<event>
 6    1  0.9205235E-004  0.4431911E+03  0.7818608E-02  0.1029772E+00
         -2   -1    0    0    0  501 -0.00000000000E+00  0.00000000000E+00  0.12434869211E+03  0.12434869211E+03  0.00000000000E+00 0.  1.
          2   -1    0    0  502    0  0.00000000000E+00 -0.00000000000E+00 -0.18300754902E+04  0.18300754902E+04  0.00000000000E+00 0. -1.
    9000007    2    1    2  502    0  0.14981098288E+03 -0.12002550074E+03 -0.12135953608E+04  0.12918211315E+04  0.39892190283E+03 0.  0.
    9000005    1    3    3    0    0  0.29721629959E+02 -0.24988358116E+03 -0.86586125509E+03  0.90168835663E+03  0.99999687468E+00 0.  0.
          4    1    3    3  502    0  0.12008935292E+03  0.12985808042E+03 -0.34773410568E+03  0.39013277482E+03  0.00000000000E+00 0.  1.
   -9000007    1    1    2    0  501 -0.14981098288E+03  0.12002550074E+03 -0.49213143730E+03  0.66260305085E+03  0.40000000000E+03 0.  1.
<mgrwt>
<rscale>  2 0.44319107E+03</rscale>
<asrwt>0</asrwt>
<pdfrwt beam="1">  1        2 0.28155008E+00 0.44319107E+03</pdfrwt>
<pdfrwt beam="2">  1       -2 0.19130567E-01 0.44319107E+03</pdfrwt>
<totfact> 0.20209168E+02</totfact>
</mgrwt>
</event>
<event>
 6    1  0.9205235E-004  0.4242828E+03  0.7818608E-02  0.1035681E+00
         -1   -1    0    0    0  501 -0.00000000000E+00  0.00000000000E+00  0.12833466743E+03  0.12833466743E+03  0.00000000000E+00 0.  1.
          1   -1    0    0  502    0  0.00000000000E+00 -0.00000000000E+00 -0.19278886792E+04  0.19278886792E+04  0.00000000000E+00 0. -1.
    9000007    2    1    2  502    0 -0.31623668728E+02 -0.13786883990E+03 -0.36318717993E+03  0.55850590030E+03  0.40002004896E+03 0.  0.
    9000005    1    3    3    0    0  0.39790747787E+02 -0.24695502327E+03 -0.34606428788E+03  0.42700301927E+03  0.99999687468E+00 0.  0.
          4    1    3    3  502    0 -0.71414416515E+02  0.10908618336E+03 -0.17122892041E+02  0.13150288103E+03  0.00000000000E+00 0.  1.
   -9000007    1    1    2    0  501  0.31623668728E+02  0.13786883990E+03 -0.14363668319E+04  0.14977174463E+04  0.40000000000E+03 0. -1.
<mgrwt>
<rscale>  2 0.42428280E+03</rscale>
<asrwt>0</asrwt>
<pdfrwt beam="1">  1        1 0.29659825E+00 0.42428280E+03</pdfrwt>
<pdfrwt beam="2">  1       -1 0.19743795E-01 0.42428280E+03</pdfrwt>
<totfact> 0.75183489E+01</totfact>
</mgrwt>
</event>
<event>
 6    1  0.9205235E-004  0.5257870E+03  0.7818608E-02  0.1007259E+00
          1   -1    0    0  502    0  0.00000000000E+00  0.00000000000E+00  0.17647491612E+04  0.17647491612E+04  0.00000000000E+00 0.  1.
         -1   -1    0    0    0  501 -0.00000000000E+00 -0.00000000000E+00 -0.15875716372E+03  0.15875716372E+03  0.00000000000E+00 0. -1.
    9000007    2    1    2  502    0  0.27247818265E+03  0.20638961841E+03  0.91317888646E+03  0.10535459572E+04  0.39902677932E+03 0.  0.
    9000005    1    3    3    0    0  0.13399975665E+03  0.26426730654E+03  0.29766754781E+03  0.42000013464E+03  0.99999687468E+00 0.  0.
          4    1    3    3  502    0  0.13847842599E+03 -0.57877688133E+02  0.61551133865E+03  0.63354582254E+03  0.00000000000E+00 0.  1.
   -9000007    1    1    2    0  501 -0.27247818265E+03 -0.20638961841E+03  0.69281311100E+03  0.86996036770E+03  0.40000000000E+03 0. -1.
<mgrwt>
<rscale>  2 0.52578698E+03</rscale>
<asrwt>0</asrwt>
<pdfrwt beam="1">  1        1 0.27149986E+00 0.52578698E+03</pdfrwt>
<pdfrwt beam="2">  1       -1 0.24424180E-01 0.52578698E+03</pdfrwt>
<totfact> 0.66431507E+01</totfact>
</mgrwt>
</event>
<event>
 6    1  0.9205235E-004  0.4228139E+03  0.7818608E-02  0.1036154E+00
          2   -1    0    0  502    0  0.00000000000E+00  0.00000000000E+00  0.16220117782E+03  0.16220117782E+03  0.00000000000E+00 0. -1.
         -2   -1    0    0    0  501 -0.00000000000E+00 -0.00000000000E+00 -0.12319844063E+04  0.12319844063E+04  0.00000000000E+00 0.  1.
    9000007    2    1    2  502    0  0.99560906899E+02  0.95858733165E+02 -0.76074071638E+03  0.87015453047E+03  0.39917564860E+03 0.  0.
    9000005    1    3    3    0    0  0.76366208047E+01  0.14180517192E+03 -0.47796508292E+02  0.14984168632E+03  0.99999687468E+00 0.  0.
          4    1    3    3  502    0  0.91924286094E+02 -0.45946438751E+02 -0.71294420809E+03  0.72031284416E+03  0.00000000000E+00 0.  1.
   -9000007    1    1    2    0  501 -0.99560906899E+02 -0.95858733165E+02 -0.30904251209E+03  0.52403105365E+03  0.40000000000E+03 0. -1.
<mgrwt>
<rscale>  2 0.42281387E+03</rscale>
<asrwt>0</asrwt>
<pdfrwt beam="1">  1        2 0.24954028E-01 0.42281387E+03</pdfrwt>
<pdfrwt beam="2">  1       -2 0.18953605E+00 0.42281387E+03</pdfrwt>
<totfact> 0.35754936E+01</totfact>
</mgrwt>
</event>
<event>
 6    1  0.9205235E-004  0.4974146E+03  0.7818608E-02  0.1014456E+00
          2   -1    0    0  502    0  0.00000000000E+00  0.00000000000E+00  0.19392522777E+04  0.19392522777E+04  0.00000000000E+00 0. -1.
         -2   -1    0    0    0  501 -0.00000000000E+00 -0.00000000000E+00 -0.14448591659E+03  0.14448591659E+03  0.00000000000E+00 0.  1.
    9000007    2    1    2  502    0 -0.22029232375E+03 -0.19711910449E+03  0.12537646306E+04  0.13488453302E+04  0.40009164779E+03 0.  0.
    9000005    1    3    3    0    0 -0.39084921039E+02 -0.35726330089E+02  0.98624488332E+03  0.98766592104E+03  0.99999687468E+00 0.  0.
          4    1    3    3  502    0 -0.18120740271E+03 -0.16139277440E+03  0.26751974729E+03  0.36117940918E+03  0.00000000000E+00 0.  1.
   -9000007    1    1    2    0  501  0.22029232375E+03  0.19711910449E+03  0.54100173048E+03  0.73489286406E+03  0.40000000000E+03 0.  1.
<mgrwt>
<rscale>  2 0.49741463E+03</rscale>
<asrwt>0</asrwt>
<pdfrwt beam="1">  1        2 0.29834649E+00 0.49741463E+03</pdfrwt>
<pdfrwt beam="2">  1       -2 0.22228604E-01 0.49741463E+03</pdfrwt>
<totfact> 0.13488319E+02</totfact>
</mgrwt>
</event>
<event>
 6    1  0.9205235E-004  0.4037663E+03  0.7818608E-02  0.1042483E+00
          1   -1    0    0  502    0  0.00000000000E+00  0.00000000000E+00  0.12321848050E+04  0.12321848050E+04  0.00000000000E+00 0. -1.
         -1   -1    0    0    0  501 -0.00000000000E+00 -0.00000000000E+00 -0.13313019441E+03  0.13313019441E+03  0.00000000000E+00 0.  1.
    9000007    2    1    2  502    0  0.40100187377E+02  0.41319946839E+02  0.60270722286E+03  0.72525555504E+03  0.39927967716E+03 0.  0.
    9000005    1    3    3    0    0 -0.98106041214E+02 -0.12480158909E+03  0.39421496963E+03  0.42497843973E+03  0.99999687468E+00 0.  0.
          4    1    3    3  502    0  0.13820622859E+03  0.16612153593E+03  0.20849225323E+03  0.30027711531E+03  0.00000000000E+00 0.  1.
   -9000007    1    1    2    0  501 -0.40100187377E+02 -0.41319946839E+02  0.49634738774E+03  0.64005944439E+03  0.40000000000E+03 0. -1.
<mgrwt>
<rscale>  2 0.40376632E+03</rscale>
<asrwt>0</asrwt>
<pdfrwt beam="1">  1        1 0.18956689E+00 0.40376632E+03</pdfrwt>
<pdfrwt beam="2">  1       -1 0.20481569E-01 0.40376632E+03</pdfrwt>
<totfact> 0.20836869E+02</totfact>
</mgrwt>
</event>
<event>
 6    1  0.9205235E-004  0.4699339E+03  0.7818608E-02  0.1021939E+00
          1   -1    0    0  502    0  0.00000000000E+00  0.00000000000E+00  0.69420196379E+03  0.69420196379E+03  0.00000000000E+00 0. -1.
         -1   -1    0    0    0  501 -0.00000000000E+00 -0.00000000000E+00 -0.72837759246E+03  0.72837759246E+03  0.00000000000E+00 0.  1.
    9000007    2    1    2  502    0 -0.10064553133E+02  0.23901229665E+03 -0.55095105875E+03  0.72667365865E+03  0.40899799983E+03 0.  0.
    9000005    1    3    3    0    0  0.19760845671E+03  0.14411114266E+03 -0.26234233175E+03  0.35866645037E+03  0.99999687468E+00 0.  0.
          4    1    3    3  502    0 -0.20767300984E+03  0.94901153995E+02 -0.28860872699E+03  0.36800720828E+03  0.00000000000E+00 0.  1.
   -9000007    1    1    2    0  501  0.10064553133E+02 -0.23901229665E+03  0.51677543008E+03  0.69590589760E+03  0.40000000000E+03 0. -1.
<mgrwt>
<rscale>  2 0.46993389E+03</rscale>
<asrwt>0</asrwt>
<pdfrwt beam="1">  1        1 0.10680030E+00 0.46993389E+03</pdfrwt>
<pdfrwt beam="2">  1       -1 0.11205809E+00 0.46993389E+03</pdfrwt>
<totfact> 0.21520946E+01</totfact>
</mgrwt>
</event>
<event>
 6    1  0.9205235E-004  0.4046550E+03  0.7818608E-02  0.1042180E+00
          4   -1    0    0  502    0  0.00000000000E+00  0.00000000000E+00  0.32239991427E+03  0.32239991427E+03  0.00000000000E+00 0. -1.
         -4   -1    0    0    0  501 -0.00000000000E+00 -0.00000000000E+00 -0.57127628551E+03  0.57127628551E+03  0.00000000000E+00 0.  1.
    9000007    2    1    2  502    0  0.62872480317E+02 -0.74987762534E+01 -0.27318335246E+03  0.48796693225E+03  0.39934121059E+03 0.  0.
    9000005    1    3    3    0    0  0.52485848053E+02  0.17899828992E+03 -0.23021492844E+03  0.29630232079E+03  0.99999687468E+00 0.  0.
          4    1    3    3  502    0  0.10386632264E+02 -0.18649706617E+03 -0.42968424026E+02  0.19166461145E+03  0.00000000000E+00 0.  1.
   -9000007    1    1    2    0  501 -0.62872480317E+02  0.74987762534E+01  0.24306981214E+02  0.40570926753E+03  0.40000000000E+03 0. -1.
<mgrwt>
<rscale>  2 0.40465500E+03</rscale>
<asrwt>0</asrwt>
<pdfrwt beam="1">  1        4 0.49599987E-01 0.40465500E+03</pdfrwt>
<pdfrwt beam="2">  1       -4 0.87888658E-01 0.40465500E+03</pdfrwt>
<totfact> 0.84466445E+00</totfact>
</mgrwt>
</event>
<event>
 6    1  0.9205235E-004  0.4304157E+03  0.7818608E-02  0.1033729E+00
         -2   -1    0    0    0  501 -0.00000000000E+00  0.00000000000E+00  0.57723177786E+02  0.57723177786E+02  0.00000000000E+00 0. -1.
          2   -1    0    0  502    0  0.00000000000E+00 -0.00000000000E+00 -0.32440229856E+04  0.32440229856E+04  0.00000000000E+00 0.  1.
    9000007    2    1    2  502    0  0.78332604649E+02 -0.13958248618E+03 -0.17621166693E+04  0.18138224827E+04  0.39909594745E+03 0.  0.
    9000005    1    3    3    0    0  0.20322697367E+03 -0.47720197120E+02 -0.49448269305E+03  0.53674253955E+03  0.99999687468E+00 0.  0.
          4    1    3    3  502    0 -0.12489436902E+03 -0.91862289064E+02 -0.12676339762E+04  0.12770799432E+04  0.00000000000E+00 0.  1.
   -9000007    1    1    2    0  501 -0.78332604649E+02  0.13958248618E+03 -0.14241831386E+04  0.14879236807E+04  0.40000000000E+03 0.  1.
<mgrwt>
<rscale>  2 0.43041573E+03</rscale>
<asrwt>0</asrwt>
<pdfrwt beam="1">  1        2 0.49908046E+00 0.43041573E+03</pdfrwt>
<pdfrwt beam="2">  1       -2 0.88804889E-02 0.43041573E+03</pdfrwt>
<totfact> 0.11357840E+02</totfact>
</mgrwt>
</event>
<event>
 6    1  0.9205235E-004  0.4467796E+03  0.7818608E-02  0.1028687E+00
          1   -1    0    0  502    0  0.00000000000E+00  0.00000000000E+00  0.81551800874E+03  0.81551800874E+03  0.00000000000E+00 0.  1.
         -1   -1    0    0    0  501 -0.00000000000E+00 -0.00000000000E+00 -0.24527132114E+03  0.24527132114E+03  0.00000000000E+00 0. -1.
    9000007    2    1    2  502    0 -0.19696057716E+03  0.18747137717E+02  0.26141712162E+03  0.51809178525E+03  0.40116737447E+03 0.  0.
    9000005    1    3    3    0    0  0.17090249729E+02 -0.93843846502E+02 -0.62351375628E+02  0.11396244205E+03  0.99999687468E+00 0.  0.
          4    1    3    3  502    0 -0.21405082689E+03  0.11259098422E+03  0.32376849725E+03  0.40412934319E+03  0.00000000000E+00 0.  1.
   -9000007    1    1    2    0  501  0.19696057716E+03 -0.18747137717E+02  0.30882956598E+03  0.54269754463E+03  0.40000000000E+03 0.  1.
<mgrwt>
<rscale>  2 0.44677960E+03</rscale>
<asrwt>0</asrwt>
<pdfrwt beam="1">  1        1 0.12546431E+00 0.44677960E+03</pdfrwt>
<pdfrwt beam="2">  1       -1 0.37734050E-01 0.44677960E+03</pdfrwt>
<totfact> 0.15126688E+02</totfact>
</mgrwt>
</event>
<event>
 6    1  0.9205235E-004  0.5559143E+03  0.7818608E-02  0.1000134E+00
          2   -1    0    0  502    0  0.00000000000E+00  0.00000000000E+00  0.24676538135E+04  0.24676538135E+04  0.00000000000E+00 0. -1.
         -2   -1    0    0    0  501 -0.00000000000E+00 -0.00000000000E+00 -0.18270079892E+03  0.18270079892E+03  0.00000000000E+00 0.  1.
    9000007    2    1    2  502    0  0.31498711652E+03 -0.22473549609E+03  0.18848058261E+04  0.19649053442E+04  0.39829271023E+03 0.  0.
    9000005    1    3    3    0    0  0.21919527755E+03 -0.32847140682E+03  0.15859256855E+04  0.16343504259E+04  0.99999687468E+00 0.  0.
          4    1    3    3  502    0  0.95791838969E+02  0.10373591073E+03  0.29888014054E+03  0.33055491828E+03  0.00000000000E+00 0.  1.
   -9000007    1    1    2    0  501 -0.31498711652E+03  0.22473549609E+03  0.40014718849E+03  0.68544926817E+03  0.40000000000E+03 0.  1.
<mgrwt>
<rscale>  2 0.55591431E+03</rscale>
<asrwt>0</asrwt>
<pdfrwt beam="1">  1        2 0.37963902E+00 0.55591431E+03</pdfrwt>
<pdfrwt beam="2">  1       -2 0.28107817E-01 0.55591431E+03</pdfrwt>
<totfact> 0.45113594E+01</totfact>
</mgrwt>
</event>
<event>
 6    1  0.9205235E-004  0.5253339E+03  0.7818608E-02  0.1007370E+00
          2   -1    0    0  502    0  0.00000000000E+00  0.00000000000E+00  0.78105170922E+03  0.78105170922E+03  0.00000000000E+00 0.  1.
         -2   -1    0    0    0  501 -0.00000000000E+00 -0.00000000000E+00 -0.35488884613E+03  0.35488884613E+03  0.00000000000E+00 0. -1.
    9000007    2    1    2  502    0 -0.13244732103E+03  0.31172091127E+03  0.25108425556E+03  0.58334238472E+03  0.40315358743E+03 0.  0.
    9000005    1    3    3    0    0 -0.36428429974E+02  0.37018147847E+03  0.28196567524E+03  0.46676225160E+03  0.99999687468E+00 0.  0.
          4    1    3    3  502    0 -0.96018891056E+02 -0.58460567205E+02 -0.30881419676E+02  0.11658013312E+03  0.00000000000E+00 0.  1.
   -9000007    1    1    2    0  501  0.13244732103E+03 -0.31172091127E+03  0.17507860753E+03  0.55259817063E+03  0.40000000000E+03 0. -1.
<mgrwt>
<rscale>  2 0.52533391E+03</rscale>
<asrwt>0</asrwt>
<pdfrwt beam="1">  1        2 0.12016180E+00 0.52533391E+03</pdfrwt>
<pdfrwt beam="2">  1       -2 0.54598284E-01 0.52533391E+03</pdfrwt>
<totfact> 0.11547814E+02</totfact>
</mgrwt>
</event>
<event>
 6    1  0.9205235E-004  0.4376182E+03  0.7818608E-02  0.1031480E+00
         -1   -1    0    0    0  501 -0.00000000000E+00  0.00000000000E+00  0.35123735646E+03  0.35123735646E+03  0.00000000000E+00 0. -1.
          1   -1    0    0  502    0  0.00000000000E+00 -0.00000000000E+00 -0.57243283301E+03  0.57243283301E+03  0.00000000000E+00 0.  1.
    9000007    2    1    2  502    0  0.98847263492E+02  0.14835129512E+03 -0.98710954270E+01  0.43742243131E+03  0.39932700462E+03 0.  0.
    9000005    1    3    3    0    0  0.14488565624E+03 -0.10555646332E+03 -0.36418187602E+01  0.17929942324E+03  0.99999687468E+00 0.  0.
          4    1    3    3  502    0 -0.46038392753E+02  0.25390775845E+03 -0.62292766668E+01  0.25812300807E+03  0.00000000000E+00 0.  1.
   -9000007    1    1    2    0  501 -0.98847263492E+02 -0.14835129512E+03 -0.21132438112E+03  0.48624775817E+03  0.40000000000E+03 0.  1.
<mgrwt>
<rscale>  2 0.43761824E+03</rscale>
<asrwt>0</asrwt>
<pdfrwt beam="1">  1        1 0.88066589E-01 0.43761824E+03</pdfrwt>
<pdfrwt beam="2">  1       -1 0.54036517E-01 0.43761824E+03</pdfrwt>
<totfact> 0.13204774E+02</totfact>
</mgrwt>
</event>
<event>
 6    1  0.9205235E-004  0.5772108E+03  0.7818608E-02  0.9953848E-01
          2   -1    0    0  502    0  0.00000000000E+00  0.00000000000E+00  0.52760627992E+03  0.52760627992E+03  0.00000000000E+00 0. -1.
         -2   -1    0    0    0  501 -0.00000000000E+00 -0.00000000000E+00 -0.67341043580E+03  0.67341043580E+03  0.00000000000E+00 0.  1.
    9000007    2    1    2  502    0  0.39716319457E+03 -0.12460046406E+03  0.76954472019E+02  0.58223946576E+03  0.39977109194E+03 0.  0.
    9000005    1    3    3    0    0  0.37016257529E+03  0.70407275188E+02  0.80658047140E+02  0.38533652449E+03  0.99999687468E+00 0.  0.
          4    1    3    3  502    0  0.27000619283E+02 -0.19500773925E+03 -0.37035751214E+01  0.19690294126E+03  0.00000000000E+00 0.  1.
   -9000007    1    1    2    0  501 -0.39716319457E+03  0.12460046406E+03 -0.22275862790E+03  0.61877724996E+03  0.40000000000E+03 0. -1.
<mgrwt>
<rscale>  2 0.57721082E+03</rscale>
<asrwt>0</asrwt>
<pdfrwt beam="1">  1        2 0.81170198E-01 0.57721082E+03</pdfrwt>
<pdfrwt beam="2">  1       -2 0.10360160E+00 0.57721082E+03</pdfrwt>
<totfact> 0.45036384E+01</totfact>
</mgrwt>
</event>
<event>
 6    1  0.9205235E-004  0.4340358E+03  0.7818608E-02  0.1032593E+00
          2   -1    0    0  502    0  0.00000000000E+00  0.00000000000E+00  0.21273378997E+04  0.21273378997E+04  0.00000000000E+00 0. -1.
         -2   -1    0    0    0  501 -0.00000000000E+00 -0.00000000000E+00 -0.12487996522E+03  0.12487996522E+03  0.00000000000E+00 0.  1.
    9000007    2    1    2  502    0  0.17382073360E+03 -0.67416680040E+00  0.16051244393E+04  0.16622280274E+04  0.39542818274E+03 0.  0.
    9000005    1    3    3    0    0  0.51253116180E+02  0.10963134011E+03  0.13683599159E+04  0.13737014858E+04  0.99999687468E+00 0.  0.
          4    1    3    3  502    0  0.12256761742E+03 -0.11030550691E+03  0.23676452332E+03  0.28852654158E+03  0.00000000000E+00 0.  1.
   -9000007    1    1    2    0  501 -0.17382073360E+03  0.67416680040E+00  0.39733349524E+03  0.58998983751E+03  0.40000000000E+03 0.  1.
<mgrwt>
<rscale>  2 0.43403577E+03</rscale>
<asrwt>0</asrwt>
<pdfrwt beam="1">  1        2 0.32728273E+00 0.43403577E+03</pdfrwt>
<pdfrwt beam="2">  1       -2 0.19212304E-01 0.43403577E+03</pdfrwt>
<totfact> 0.13919672E+02</totfact>
</mgrwt>
</event>
<event>
 6    1  0.9205235E-004  0.5045207E+03  0.7818608E-02  0.1012606E+00
         -1   -1    0    0    0  501 -0.00000000000E+00  0.00000000000E+00  0.32291284176E+03  0.32291284176E+03  0.00000000000E+00 0. -1.
          1   -1    0    0  502    0  0.00000000000E+00 -0.00000000000E+00 -0.98662943055E+03  0.98662943055E+03  0.00000000000E+00 0.  1.
    9000007    2    1    2  502    0 -0.29385331038E+03  0.91946432815E+02 -0.62531285815E+03  0.80330244667E+03  0.39934287991E+03 0.  0.
    9000005    1    3    3    0    0 -0.11841683694E+03  0.15021757848E+03 -0.48138402924E+02  0.19724648029E+03  0.99999687468E+00 0.  0.
          4    1    3    3  502    0 -0.17543647343E+03 -0.58271145664E+02 -0.57717445522E+03  0.60605596639E+03  0.00000000000E+00 0.  1.
   -9000007    1    1    2    0  501  0.29385331038E+03 -0.91946432815E+02 -0.38403730644E+02  0.50623982563E+03  0.40000000000E+03 0. -1.
<mgrwt>
<rscale>  2 0.50452071E+03</rscale>
<asrwt>0</asrwt>
<pdfrwt beam="1">  1        1 0.15178914E+00 0.50452071E+03</pdfrwt>
<pdfrwt beam="2">  1       -1 0.49678899E-01 0.50452071E+03</pdfrwt>
<totfact> 0.66170205E+01</totfact>
</mgrwt>
</event>
<event>
 6    1  0.9205235E-004  0.4545804E+03  0.7818608E-02  0.1026365E+00
          2   -1    0    0  502    0  0.00000000000E+00  0.00000000000E+00  0.73403865169E+03  0.73403865169E+03  0.00000000000E+00 0.  1.
         -2   -1    0    0    0  501 -0.00000000000E+00 -0.00000000000E+00 -0.50860090045E+03  0.50860090045E+03  0.00000000000E+00 0. -1.
    9000007    2    1    2  502    0  0.21129658573E+03  0.45366184882E+02 -0.30245570993E+03  0.54595035011E+03  0.39984745897E+03 0.  0.
    9000005    1    3    3    0    0  0.30023703824E+03  0.84585492010E+02 -0.11074014308E+03  0.33100054966E+03  0.99999687468E+00 0.  0.
          4    1    3    3  502    0 -0.88940452506E+02 -0.39219307128E+02 -0.19171556685E+03  0.21494980046E+03  0.00000000000E+00 0.  1.
   -9000007    1    1    2    0  501 -0.21129658573E+03 -0.45366184882E+02  0.52789346117E+03  0.69668920202E+03  0.40000000000E+03 0.  1.
<mgrwt>
<rscale>  2 0.45458038E+03</rscale>
<asrwt>0</asrwt>
<pdfrwt beam="1">  1        2 0.11292902E+00 0.45458038E+03</pdfrwt>
<pdfrwt beam="2">  1       -2 0.78246293E-01 0.45458038E+03</pdfrwt>
<totfact> 0.58338802E+01</totfact>
</mgrwt>
</event>
<event>
 6    1  0.9205235E-004  0.5483656E+03  0.7818608E-02  0.1001873E+00
          2   -1    0    0  502    0  0.00000000000E+00  0.00000000000E+00  0.14278725885E+04  0.14278725885E+04  0.00000000000E+00 0. -1.
         -2   -1    0    0    0  501 -0.00000000000E+00 -0.00000000000E+00 -0.21895643570E+03  0.21895643570E+03  0.00000000000E+00 0.  1.
    9000007    2    1    2  502    0  0.54183499627E+02 -0.37048365659E+03  0.76584605415E+03  0.94219784141E+03  0.40127621693E+03 0.  0.
    9000005    1    3    3    0    0 -0.12054345080E+03 -0.69967099914E+02  0.53015379220E+02  0.14912326790E+03  0.99999687468E+00 0.  0.
          4    1    3    3  502    0  0.17472695042E+03 -0.30051655667E+03  0.71283067493E+03  0.79307457352E+03  0.00000000000E+00 0.  1.
   -9000007    1    1    2    0  501 -0.54183499627E+02  0.37048365659E+03  0.44307009865E+03  0.70463118278E+03  0.40000000000E+03 0.  1.
<mgrwt>
<rscale>  2 0.54836562E+03</rscale>
<asrwt>0</asrwt>
<pdfrwt beam="1">  1        2 0.21967270E+00 0.54836562E+03</pdfrwt>
<pdfrwt beam="2">  1       -2 0.33685606E-01 0.54836562E+03</pdfrwt>
<totfact> 0.11920335E+02</totfact>
</mgrwt>
</event>
<event>
 6    1  0.9205235E-004  0.6715470E+03  0.7818608E-02  0.9767167E-01
         -1   -1    0    0    0  501 -0.00000000000E+00  0.00000000000E+00  0.33614448565E+03  0.33614448565E+03  0.00000000000E+00 0. -1.
          1   -1    0    0  502    0  0.00000000000E+00 -0.00000000000E+00 -0.13519878802E+04  0.13519878802E+04  0.00000000000E+00 0.  1.
    9000007    2    1    2  502    0  0.43886903763E+03  0.31382881151E+03 -0.43391022187E+03  0.79945876290E+03  0.39970198625E+03 0.  0.
    9000005    1    3    3    0    0  0.43301050014E+03  0.36352170211E+03 -0.47205968368E+03  0.73653748451E+03  0.99999687468E+00 0.  0.
          4    1    3    3  502    0  0.58585374928E+01 -0.49692890604E+02  0.38149461809E+02  0.62921278392E+02  0.00000000000E+00 0.  1.
   -9000007    1    1    2    0  501 -0.43886903763E+03 -0.31382881151E+03 -0.58193317268E+03  0.88867360295E+03  0.40000000000E+03 0.  1.
<mgrwt>
<rscale>  2 0.67154700E+03</rscale>
<asrwt>0</asrwt>
<pdfrwt beam="1">  1        1 0.20799813E+00 0.67154700E+03</pdfrwt>
<pdfrwt beam="2">  1       -1 0.51714537E-01 0.67154700E+03</pdfrwt>
<totfact> 0.32507202E+01</totfact>
</mgrwt>
</event>
<event>
 6    1  0.9205235E-004  0.4719817E+03  0.7818608E-02  0.1021362E+00
          2   -1    0    0  502    0  0.00000000000E+00  0.00000000000E+00  0.10029427536E+04  0.10029427536E+04  0.00000000000E+00 0. -1.
         -2   -1    0    0    0  501 -0.00000000000E+00 -0.00000000000E+00 -0.25867515103E+03  0.25867515103E+03  0.00000000000E+00 0.  1.
    9000007    2    1    2  502    0  0.10066284738E+03  0.22757638716E+03  0.13558544491E+03  0.49193096185E+03  0.40210525677E+03 0.  0.
    9000005    1    3    3    0    0 -0.14191384059E+03  0.53391063738E+02 -0.23701063481E+02  0.15346948961E+03  0.99999687468E+00 0.  0.
          4    1    3    3  502    0  0.24257668797E+03  0.17418532342E+03  0.15928650839E+03  0.33846147225E+03  0.00000000000E+00 0.  1.
   -9000007    1    1    2    0  501 -0.10066284738E+03 -0.22757638716E+03  0.60868215768E+03  0.76968694280E+03  0.40000000000E+03 0. -1.
<mgrwt>
<rscale>  2 0.47198172E+03</rscale>
<asrwt>0</asrwt>
<pdfrwt beam="1">  1        2 0.15429888E+00 0.47198172E+03</pdfrwt>
<pdfrwt beam="2">  1       -2 0.39796178E-01 0.47198172E+03</pdfrwt>
<totfact> 0.15498146E+02</totfact>
</mgrwt>
</event>
<event>
 6    1  0.9205235E-004  0.4110406E+03  0.7818608E-02  0.1040022E+00
         -2   -1    0    0    0  501 -0.00000000000E+00  0.00000000000E+00  0.44158990908E+03  0.44158990908E+03  0.00000000000E+00 0. -1.
          2   -1    0    0  502    0  0.00000000000E+00 -0.00000000000E+00 -0.64883829240E+03  0.64883829240E+03  0.00000000000E+00 0.  1.
    9000007    2    1    2  502    0  0.70835430858E+01  0.94736253109E+02 -0.45285640648E+03  0.61152483411E+03  0.39982316541E+03 0.  0.
    9000005    1    3    3    0    0 -0.15682520595E+03 -0.41280851022E+02 -0.77022499742E+02  0.17953194518E+03  0.99999687468E+00 0.  0.
          4    1    3    3  502    0  0.16390874903E+03  0.13601710413E+03 -0.37583390674E+03  0.43199288892E+03  0.00000000000E+00 0.  1.
   -9000007    1    1    2    0  501 -0.70835430858E+01 -0.94736253109E+02  0.24560802317E+03  0.47890336737E+03  0.40000000000E+03 0. -1.
<mgrwt>
<rscale>  2 0.41104063E+03</rscale>
<asrwt>0</asrwt>
<pdfrwt beam="1">  1        2 0.99821275E-01 0.41104063E+03</pdfrwt>
<pdfrwt beam="2">  1       -2 0.67936909E-01 0.41104063E+03</pdfrwt>
<totfact> 0.92975431E+01</totfact>
</mgrwt>
</event>
<event>
 6    1  0.9205235E-004  0.1084423E+04  0.7818608E-02  0.9220509E-01
         -1   -1    0    0    0  501 -0.00000000000E+00  0.00000000000E+00  0.73692441268E+03  0.73692441268E+03  0.00000000000E+00 0. -1.
          1   -1    0    0  502    0  0.00000000000E+00 -0.00000000000E+00 -0.26097470710E+04  0.26097470710E+04  0.00000000000E+00 0.  1.
    9000007    2    1    2  502    0 -0.43435893978E+03  0.90934322493E+03  0.10651663770E+03  0.10898248256E+04  0.40099821330E+03 0.  0.
    9000005    1    3    3    0    0 -0.29327062736E+03  0.77331866758E+03 -0.64698417437E+02  0.82958803493E+03  0.99999687468E+00 0.  0.
          4    1    3    3  502    0 -0.14108831242E+03  0.13602455736E+03  0.17121505514E+03  0.26023679066E+03  0.00000000000E+00 0.  1.
   -9000007    1    1    2    0  501  0.43435893978E+03 -0.90934322493E+03 -0.19793392960E+04  0.22568466581E+04  0.40000000000E+03 0.  1.
<mgrwt>
<rscale>  2 0.10844227E+04</rscale>
<asrwt>0</asrwt>
<pdfrwt beam="1">  1        1 0.40149955E+00 0.10844227E+04</pdfrwt>
<pdfrwt beam="2">  1       -1 0.11337299E+00 0.10844227E+04</pdfrwt>
<totfact> 0.81223267E-01</totfact>
</mgrwt>
</event>
<event>
 6    1  0.9205235E-004  0.4228290E+03  0.7818608E-02  0.1036149E+00
         -4   -1    0    0    0  501 -0.00000000000E+00  0.00000000000E+00  0.49384039943E+03  0.49384039943E+03  0.00000000000E+00 0.  1.
          4   -1    0    0  502    0  0.00000000000E+00 -0.00000000000E+00 -0.40536318932E+03  0.40536318932E+03  0.00000000000E+00 0. -1.
    9000007    2    1    2  502    0  0.11882664360E+03  0.67172293097E+02 -0.10274626048E+03  0.43530887667E+03  0.40038123816E+03 0.  0.
    9000005    1    3    3    0    0  0.23689889653E+03 -0.18399163835E+01 -0.16123030712E+03  0.28656706789E+03  0.99999687468E+00 0.  0.
          4    1    3    3  502    0 -0.11807225293E+03  0.69012209480E+02  0.58484046634E+02  0.14874180878E+03  0.00000000000E+00 0.  1.
   -9000007    1    1    2    0  501 -0.11882664360E+03 -0.67172293097E+02  0.19122347060E+03  0.46389471208E+03  0.40000000000E+03 0.  1.
<mgrwt>
<rscale>  2 0.42282903E+03</rscale>
<asrwt>0</asrwt>
<pdfrwt beam="1">  1        4 0.62363567E-01 0.42282903E+03</pdfrwt>
<pdfrwt beam="2">  1       -4 0.75975446E-01 0.42282903E+03</pdfrwt>
<totfact> 0.72555976E+00</totfact>
</mgrwt>
</event>
<event>
 6    1  0.9205235E-004  0.4327583E+03  0.7818608E-02  0.1032992E+00
          4   -1    0    0  502    0  0.00000000000E+00  0.00000000000E+00  0.52230702362E+03  0.52230702362E+03  0.00000000000E+00 0.  1.
         -4   -1    0    0    0  501 -0.00000000000E+00 -0.00000000000E+00 -0.39730469930E+03  0.39730469930E+03  0.00000000000E+00 0. -1.
    9000007    2    1    2  502    0  0.16080691991E+03  0.37271749393E+02  0.20608951170E+03  0.47935818149E+03  0.40007915533E+03 0.  0.
    9000005    1    3    3    0    0 -0.67244799177E+02 -0.10047758852E+03 -0.28670217027E+02  0.12426017121E+03  0.99999687468E+00 0.  0.
          4    1    3    3  502    0  0.22805171908E+03  0.13774933791E+03  0.23475972873E+03  0.35509801028E+03  0.00000000000E+00 0.  1.
   -9000007    1    1    2    0  501 -0.16080691991E+03 -0.37271749393E+02 -0.81087187385E+02  0.44025354144E+03  0.40000000000E+03 0. -1.
<mgrwt>
<rscale>  2 0.43275826E+03</rscale>
<asrwt>0</asrwt>
<pdfrwt beam="1">  1        4 0.80354927E-01 0.43275826E+03</pdfrwt>
<pdfrwt beam="2">  1       -4 0.61123800E-01 0.43275826E+03</pdfrwt>
<totfact> 0.66855795E+00</totfact>
</mgrwt>
</event>
<event>
 6    1  0.9205235E-004  0.7595121E+03  0.7818608E-02  0.9620544E-01
          2   -1    0    0  502    0  0.00000000000E+00  0.00000000000E+00  0.16791482227E+04  0.16791482227E+04  0.00000000000E+00 0.  1.
         -2   -1    0    0    0  501 -0.00000000000E+00 -0.00000000000E+00 -0.39257821394E+03  0.39257821394E+03  0.00000000000E+00 0. -1.
    9000007    2    1    2  502    0 -0.51165209738E+03  0.39401251124E+03  0.10092964273E+04  0.12630767184E+04  0.39956199865E+03 0.  0.
    9000005    1    3    3    0    0 -0.26762567883E+03  0.17111827627E+03  0.16833736644E+03  0.35950443304E+03  0.99999687468E+00 0.  0.
          4    1    3    3  502    0 -0.24402641855E+03  0.22289423498E+03  0.84095906081E+03  0.90357228538E+03  0.00000000000E+00 0.  1.
   -9000007    1    1    2    0  501  0.51165209738E+03 -0.39401251124E+03  0.27727358149E+03  0.80864971821E+03  0.40000000000E+03 0. -1.
<mgrwt>
<rscale>  2 0.75951208E+03</rscale>
<asrwt>0</asrwt>
<pdfrwt beam="1">  1        2 0.25833049E+00 0.75951208E+03</pdfrwt>
<pdfrwt beam="2">  1       -2 0.60396649E-01 0.75951208E+03</pdfrwt>
<totfact> 0.26383393E+01</totfact>
</mgrwt>
</event>
<event>
 6    1  0.9205235E-004  0.4264718E+03  0.7818608E-02  0.1034980E+00
          2   -1    0    0  502    0  0.00000000000E+00  0.00000000000E+00  0.10021441682E+04  0.10021441682E+04  0.00000000000E+00 0. -1.
         -2   -1    0    0    0  501 -0.00000000000E+00 -0.00000000000E+00 -0.21951645408E+03  0.21951645408E+03  0.00000000000E+00 0.  1.
    9000007    2    1    2  502    0  0.98283120386E+02 -0.11228302931E+03  0.64520257218E+03  0.77316009823E+03  0.39902772825E+03 0.  0.
    9000005    1    3    3    0    0  0.13524333932E+03  0.12354200864E+03  0.22769515136E+03  0.29223187827E+03  0.99999687468E+00 0.  0.
          4    1    3    3  502    0 -0.36960218936E+02 -0.23582503795E+03  0.41750742083E+03  0.48092821996E+03  0.00000000000E+00 0.  1.
   -9000007    1    1    2    0  501 -0.98283120386E+02  0.11228302931E+03  0.13742514190E+03  0.44850052402E+03  0.40000000000E+03 0.  1.
<mgrwt>
<rscale>  2 0.42647180E+03</rscale>
<asrwt>0</asrwt>
<pdfrwt beam="1">  1        2 0.15417602E+00 0.42647180E+03</pdfrwt>
<pdfrwt beam="2">  1       -2 0.33771763E-01 0.42647180E+03</pdfrwt>
<totfact> 0.21305485E+02</totfact>
</mgrwt>
</event>
