<event>
 4    1  0.2454657E-002  0.4625633E+03  0.7818608E-02  0.1024040E+00
         -1   -1    0    0    0  501 -0.00000000000E+00  0.00000000000E+00  0.12656189063E+03  0.12656189063E+03  0.00000000000E+00 0. -1.
          1   -1    0    0  502    0  0.00000000000E+00 -0.00000000000E+00 -0.27144601224E+04  0.27144601224E+04  0.00000000000E+00 0.  1.
    9000007    1    1    2  502    0 -0.55110562532E+02 -0.22567155464E+03 -0.21663666189E+04  0.22151995739E+04  0.40000000000E+03 0.  1.
   -9000007    1    1    2    0  501  0.55110562532E+02  0.22567155464E+03 -0.42153161287E+03  0.62582243914E+03  0.40000000000E+03 0. -1.
<mgrwt>
<rscale>  2 0.46256332E+03</rscale>
<asrwt>0</asrwt>
<pdfrwt beam="1">  1        1 0.41760921E+00 0.46256332E+03</pdfrwt>
<pdfrwt beam="2">  1       -1 0.19471062E-01 0.46256332E+03</pdfrwt>
<totfact> 0.22737897E+01</totfact>
</mgrwt>
</event>
<event>
 4    1  0.2454657E-002  0.4987150E+03  0.7818608E-02  0.1014115E+00
          1   -1    0    0  502    0  0.00000000000E+00  0.00000000000E+00  0.14015055588E+04  0.14015055588E+04  0.00000000000E+00 0. -1.
         -1   -1    0    0    0  501 -0.00000000000E+00 -0.00000000000E+00 -0.27222048091E+03  0.27222048091E+03  0.00000000000E+00 0.  1.
    9000007    1    1    2  502    0  0.10269039872E+03  0.27959139149E+03  0.10583829041E+04  0.11699961692E+04  0.40000000000E+03 0. -1.
   -9000007    1    1    2    0  501 -0.10269039872E+03 -0.27959139149E+03  0.70902173754E+02  0.50372987050E+03  0.40000000000E+03 0.  1.
<mgrwt>
<rscale>  2 0.49871501E+03</rscale>
<asrwt>0</asrwt>
<pdfrwt beam="1">  1        1 0.21561624E+00 0.49871501E+03</pdfrwt>
<pdfrwt beam="2">  1       -1 0.41880075E-01 0.49871501E+03</pdfrwt>
<totfact> 0.45622836E+01</totfact>
</mgrwt>
</event>
<event>
 4    1  0.2454657E-002  0.6558258E+03  0.7818608E-02  0.9795908E-01
          2   -1    0    0  502    0  0.00000000000E+00  0.00000000000E+00  0.28677113947E+03  0.28677113947E+03  0.00000000000E+00 0. -1.
         -2   -1    0    0    0  501 -0.00000000000E+00 -0.00000000000E+00 -0.16315519686E+04  0.16315519686E+04  0.00000000000E+00 0.  1.
    9000007    1    1    2  502    0  0.23069917529E+03 -0.46570955738E+03 -0.94492588836E+03  0.11502140826E+04  0.40000000000E+03 0.  1.
   -9000007    1    1    2    0  501 -0.23069917529E+03  0.46570955738E+03 -0.39985494072E+03  0.76810902542E+03  0.40000000000E+03 0. -1.
<mgrwt>
<rscale>  2 0.65582582E+03</rscale>
<asrwt>0</asrwt>
<pdfrwt beam="1">  1        2 0.44118637E-01 0.65582582E+03</pdfrwt>
<pdfrwt beam="2">  1       -2 0.25100799E+00 0.65582582E+03</pdfrwt>
<totfact> 0.75995901E+00</totfact>
</mgrwt>
</event>
<event>
 4    1  0.2454657E-002  0.8178331E+03  0.7818608E-02  0.9534557E-01
          2   -1    0    0  502    0  0.00000000000E+00  0.00000000000E+00  0.13571872117E+04  0.13571872117E+04  0.00000000000E+00 0.  1.
         -2   -1    0    0    0  501 -0.00000000000E+00 -0.00000000000E+00 -0.73977692612E+03  0.73977692612E+03  0.00000000000E+00 0. -1.
    9000007    1    1    2  502    0  0.71232903918E+03  0.37924493227E+02  0.91449217837E+03  0.12268442735E+04  0.40000000000E+03 0.  1.
   -9000007    1    1    2    0  501 -0.71232903918E+03 -0.37924493227E+02 -0.29708189276E+03  0.87011986430E+03  0.40000000000E+03 0. -1.
<mgrwt>
<rscale>  2 0.81783307E+03</rscale>
<asrwt>0</asrwt>
<pdfrwt beam="1">  1        2 0.20879803E+00 0.81783307E+03</pdfrwt>
<pdfrwt beam="2">  1       -2 0.11381183E+00 0.81783307E+03</pdfrwt>
<totfact> 0.93876394E+00</totfact>
</mgrwt>
</event>
<event>
 4    1  0.2454657E-002  0.6204685E+03  0.7818608E-02  0.9863827E-01
         -2   -1    0    0    0  501 -0.00000000000E+00  0.00000000000E+00  0.43498720242E+03  0.43498720242E+03  0.00000000000E+00 0.  1.
          2   -1    0    0  502    0  0.00000000000E+00 -0.00000000000E+00 -0.94601612582E+03  0.94601612582E+03  0.00000000000E+00 0. -1.
    9000007    1    1    2  502    0  0.34264901096E+03  0.32798287925E+03 -0.80209162314E+02  0.62563137990E+03  0.40000000000E+03 0. -1.
   -9000007    1    1    2    0  501 -0.34264901096E+03 -0.32798287925E+03 -0.43081976109E+03  0.75537194834E+03  0.40000000000E+03 0. -1.
<mgrwt>
<rscale>  2 0.62046846E+03</rscale>
<asrwt>0</asrwt>
<pdfrwt beam="1">  1        2 0.14554094E+00 0.62046846E+03</pdfrwt>
<pdfrwt beam="2">  1       -2 0.66921109E-01 0.62046846E+03</pdfrwt>
<totfact> 0.57490665E+01</totfact>
</mgrwt>
</event>
<event>
 4    1  0.2454657E-002  0.4348177E+03  0.7818608E-02  0.1032349E+00
         -2   -1    0    0    0  501 -0.00000000000E+00  0.00000000000E+00  0.94031782132E+03  0.94031782132E+03  0.00000000000E+00 0. -1.
          2   -1    0    0  502    0  0.00000000000E+00 -0.00000000000E+00 -0.28860514372E+03  0.28860514372E+03  0.00000000000E+00 0.  1.
    9000007    1    1    2  502    0  0.89563181546E+02  0.14506864401E+03 -0.12553027517E+02  0.43499891203E+03  0.40000000000E+03 0. -1.
   -9000007    1    1    2    0  501 -0.89563181546E+02 -0.14506864401E+03  0.66426570512E+03  0.79392405302E+03  0.40000000000E+03 0. -1.
<mgrwt>
<rscale>  2 0.43481775E+03</rscale>
<asrwt>0</asrwt>
<pdfrwt beam="1">  1        2 0.44400792E-01 0.43481775E+03</pdfrwt>
<pdfrwt beam="2">  1       -2 0.14466428E+00 0.43481775E+03</pdfrwt>
<totfact> 0.39222095E+01</totfact>
</mgrwt>
</event>
<event>
 4    1  0.2454657E-002  0.4073749E+03  0.7818608E-02  0.1041256E+00
         -2   -1    0    0    0  501 -0.00000000000E+00  0.00000000000E+00  0.60617743874E+02  0.60617743874E+02  0.00000000000E+00 0. -1.
          2   -1    0    0  502    0  0.00000000000E+00 -0.00000000000E+00 -0.27378871357E+04  0.27378871357E+04  0.00000000000E+00 0.  1.
    9000007    1    1    2  502    0  0.73820403102E+02 -0.22468348097E+02 -0.13276315603E+04  0.13887259768E+04  0.40000000000E+03 0.  1.
   -9000007    1    1    2    0  501 -0.73820403102E+02  0.22468348097E+02 -0.13496378315E+04  0.14097789028E+04  0.40000000000E+03 0. -1.
<mgrwt>
<rscale>  2 0.40737486E+03</rscale>
<asrwt>0</asrwt>
<pdfrwt beam="1">  1        2 0.42121347E+00 0.40737486E+03</pdfrwt>
<pdfrwt beam="2">  1       -2 0.93258053E-02 0.40737486E+03</pdfrwt>
<totfact> 0.21268844E+02</totfact>
</mgrwt>
</event>
<event>
 4    1  0.2454657E-002  0.5016988E+03  0.7818608E-02  0.1013336E+00
          1   -1    0    0  502    0  0.00000000000E+00  0.00000000000E+00  0.13273059308E+04  0.13273059308E+04  0.00000000000E+00 0. -1.
         -1   -1    0    0    0  501 -0.00000000000E+00 -0.00000000000E+00 -0.19118610977E+03  0.19118610977E+03  0.00000000000E+00 0.  1.
    9000007    1    1    2  502    0  0.22881395639E+01 -0.30281425332E+03  0.49964016253E+03  0.70805508233E+03  0.40000000000E+03 0.  1.
   -9000007    1    1    2    0  501 -0.22881395639E+01  0.30281425332E+03  0.63647965845E+03  0.81043695820E+03  0.40000000000E+03 0. -1.
<mgrwt>
<rscale>  2 0.50169882E+03</rscale>
<asrwt>0</asrwt>
<pdfrwt beam="1">  1        1 0.20420091E+00 0.50169882E+03</pdfrwt>
<pdfrwt beam="2">  1       -1 0.29413249E-01 0.50169882E+03</pdfrwt>
<totfact> 0.95885983E+01</totfact>
</mgrwt>
</event>
<event>
 4    1  0.2454657E-002  0.4673021E+03  0.7818608E-02  0.1022684E+00
         -1   -1    0    0    0  501 -0.00000000000E+00  0.00000000000E+00  0.28425071600E+03  0.28425071600E+03  0.00000000000E+00 0. -1.
          1   -1    0    0  502    0  0.00000000000E+00 -0.00000000000E+00 -0.89945623825E+03  0.89945623825E+03  0.00000000000E+00 0.  1.
    9000007    1    1    2  502    0  0.13918539609E+03  0.19748084444E+03 -0.81541171892E+02  0.47436296348E+03  0.40000000000E+03 0. -1.
   -9000007    1    1    2    0  501 -0.13918539609E+03 -0.19748084444E+03 -0.53366435036E+03  0.70934399077E+03  0.40000000000E+03 0.  1.
<mgrwt>
<rscale>  2 0.46730211E+03</rscale>
<asrwt>0</asrwt>
<pdfrwt beam="1">  1        1 0.13837788E+00 0.46730211E+03</pdfrwt>
<pdfrwt beam="2">  1       -1 0.43730879E-01 0.46730211E+03</pdfrwt>
<totfact> 0.98619142E+01</totfact>
</mgrwt>
</event>
<event>
 4    1  0.2454657E-002  0.4520845E+03  0.7818608E-02  0.1027102E+00
          2   -1    0    0  502    0  0.00000000000E+00  0.00000000000E+00  0.74111110049E+03  0.74111110049E+03  0.00000000000E+00 0.  1.
         -2   -1    0    0    0  501 -0.00000000000E+00 -0.00000000000E+00 -0.28465602558E+03  0.28465602558E+03  0.00000000000E+00 0. -1.
    9000007    1    1    2  502    0  0.72713017070E+02  0.19772009140E+03  0.13763894044E+03  0.47257263497E+03  0.40000000000E+03 0. -1.
   -9000007    1    1    2    0  501 -0.72713017070E+02 -0.19772009140E+03  0.31881613447E+03  0.55319449111E+03  0.40000000000E+03 0.  1.
<mgrwt>
<rscale>  2 0.45208452E+03</rscale>
<asrwt>0</asrwt>
<pdfrwt beam="1">  1        2 0.11401709E+00 0.45208452E+03</pdfrwt>
<pdfrwt beam="2">  1       -2 0.43793235E-01 0.45208452E+03</pdfrwt>
<totfact> 0.19374728E+02</totfact>
</mgrwt>
</event>
<event>
 4    1  0.2454657E-002  0.4579160E+03  0.7818608E-02  0.1025387E+00
          2   -1    0    0  502    0  0.00000000000E+00  0.00000000000E+00  0.76520901035E+03  0.76520901035E+03  0.00000000000E+00 0. -1.
         -2   -1    0    0    0  501 -0.00000000000E+00 -0.00000000000E+00 -0.27404749436E+03  0.27404749436E+03  0.00000000000E+00 0.  1.
    9000007    1    1    2  502    0 -0.13234019094E+03 -0.17936875522E+03  0.24096654126E+03  0.51744753405E+03  0.40000000000E+03 0. -1.
   -9000007    1    1    2    0  501  0.13234019094E+03  0.17936875522E+03  0.25019497473E+03  0.52180897066E+03  0.40000000000E+03 0. -1.
<mgrwt>
<rscale>  2 0.45791601E+03</rscale>
<asrwt>0</asrwt>
<pdfrwt beam="1">  1        2 0.11772446E+00 0.45791601E+03</pdfrwt>
<pdfrwt beam="2">  1       -2 0.42161153E-01 0.45791601E+03</pdfrwt>
<totfact> 0.20029957E+02</totfact>
</mgrwt>
</event>
<event>
 4    1  0.2454657E-002  0.4417401E+03  0.7818608E-02  0.1030214E+00
         -2   -1    0    0    0  501 -0.00000000000E+00  0.00000000000E+00  0.70415055214E+03  0.70415055214E+03  0.00000000000E+00 0.  1.
          2   -1    0    0  502    0  0.00000000000E+00 -0.00000000000E+00 -0.27790952993E+03  0.27790952993E+03  0.00000000000E+00 0. -1.
    9000007    1    1    2  502    0 -0.17473078159E+03 -0.67848978870E+02  0.23928970026E+03  0.50238818718E+03  0.40000000000E+03 0.  1.
   -9000007    1    1    2    0  501  0.17473078159E+03  0.67848978870E+02  0.18695132195E+03  0.47967189489E+03  0.40000000000E+03 0. -1.
<mgrwt>
<rscale>  2 0.44174012E+03</rscale>
<asrwt>0</asrwt>
<pdfrwt beam="1">  1        2 0.42755312E-01 0.44174012E+03</pdfrwt>
<pdfrwt beam="2">  1       -2 0.10833085E+00 0.44174012E+03</pdfrwt>
<totfact> 0.83816684E+01</totfact>
</mgrwt>
</event>
<event>
 4    1  0.2454657E-002  0.4090971E+03  0.7818608E-02  0.1040674E+00
         -2   -1    0    0    0  501 -0.00000000000E+00  0.00000000000E+00  0.41719013184E+03  0.41719013184E+03  0.00000000000E+00 0. -1.
          2   -1    0    0  502    0  0.00000000000E+00 -0.00000000000E+00 -0.40902438808E+03  0.40902438808E+03  0.00000000000E+00 0.  1.
    9000007    1    1    2  502    0  0.11234127701E+02  0.85054237366E+02 -0.53195657642E+02  0.41254115784E+03  0.40000000000E+03 0.  1.
   -9000007    1    1    2    0  501 -0.11234127701E+02 -0.85054237366E+02  0.61361401402E+02  0.41367336209E+03  0.40000000000E+03 0. -1.
<mgrwt>
<rscale>  2 0.40909709E+03</rscale>
<asrwt>0</asrwt>
<pdfrwt beam="1">  1        2 0.62926829E-01 0.40909709E+03</pdfrwt>
<pdfrwt beam="2">  1       -2 0.64183097E-01 0.40909709E+03</pdfrwt>
<totfact> 0.17857347E+02</totfact>
</mgrwt>
</event>
<event>
 4    1  0.2454657E-002  0.4012935E+03  0.7818608E-02  0.1043333E+00
          1   -1    0    0  502    0  0.00000000000E+00  0.00000000000E+00  0.18774187662E+03  0.18774187662E+03  0.00000000000E+00 0.  1.
         -1   -1    0    0    0  501 -0.00000000000E+00 -0.00000000000E+00 -0.85941774131E+03  0.85941774131E+03  0.00000000000E+00 0. -1.
    9000007    1    1    2  502    0 -0.23716914422E+02  0.21770280573E+02 -0.35887143623E+03  0.53835410734E+03  0.40000000000E+03 0. -1.
   -9000007    1    1    2    0  501  0.23716914422E+02 -0.21770280573E+02 -0.31280442846E+03  0.50880551059E+03  0.40000000000E+03 0.  1.
<mgrwt>
<rscale>  2 0.40129346E+03</rscale>
<asrwt>0</asrwt>
<pdfrwt beam="1">  1        1 0.28883366E-01 0.40129346E+03</pdfrwt>
<pdfrwt beam="2">  1       -1 0.13221811E+00 0.40129346E+03</pdfrwt>
<totfact> 0.82181549E+01</totfact>
</mgrwt>
</event>
<event>
 4    1  0.2454657E-002  0.4891452E+03  0.7818608E-02  0.1016652E+00
          2   -1    0    0  502    0  0.00000000000E+00  0.00000000000E+00  0.18065626784E+04  0.18065626784E+04  0.00000000000E+00 0.  1.
         -2   -1    0    0    0  501 -0.00000000000E+00 -0.00000000000E+00 -0.13810548311E+03  0.13810548311E+03  0.00000000000E+00 0. -1.
    9000007    1    1    2  502    0 -0.27866905711E+03  0.40081878195E+02  0.10311484482E+04  0.11412844180E+04  0.40000000000E+03 0.  1.
   -9000007    1    1    2    0  501  0.27866905711E+03 -0.40081878195E+02  0.63730874709E+03  0.80338374359E+03  0.40000000000E+03 0. -1.
<mgrwt>
<rscale>  2 0.48914517E+03</rscale>
<asrwt>0</asrwt>
<pdfrwt beam="1">  1        2 0.27793270E+00 0.48914517E+03</pdfrwt>
<pdfrwt beam="2">  1       -2 0.21246999E-01 0.48914517E+03</pdfrwt>
<totfact> 0.17226926E+02</totfact>
</mgrwt>
</event>
<event>
 4    1  0.2454657E-002  0.4454473E+03  0.7818608E-02  0.1029088E+00
          2   -1    0    0  502    0  0.00000000000E+00  0.00000000000E+00  0.11829127693E+04  0.11829127693E+04  0.00000000000E+00 0.  1.
         -2   -1    0    0    0  501 -0.00000000000E+00 -0.00000000000E+00 -0.27573916884E+03  0.27573916884E+03  0.00000000000E+00 0. -1.
    9000007    1    1    2  502    0 -0.14138127435E+03 -0.13577409187E+03 -0.28494577201E+01  0.44545638189E+03  0.40000000000E+03 0. -1.
   -9000007    1    1    2    0  501  0.14138127435E+03  0.13577409187E+03  0.91002305818E+03  0.10131955562E+04  0.40000000000E+03 0.  1.
<mgrwt>
<rscale>  2 0.44544727E+03</rscale>
<asrwt>0</asrwt>
<pdfrwt beam="1">  1        2 0.18198658E+00 0.44544727E+03</pdfrwt>
<pdfrwt beam="2">  1       -2 0.42421411E-01 0.44544727E+03</pdfrwt>
<totfact> 0.10690452E+02</totfact>
</mgrwt>
</event>
<event>
 4    1  0.2454657E-002  0.4626836E+03  0.7818608E-02  0.1024006E+00
         -2   -1    0    0    0  501 -0.00000000000E+00  0.00000000000E+00  0.12472853473E+03  0.12472853473E+03  0.00000000000E+00 0. -1.
          2   -1    0    0  502    0  0.00000000000E+00 -0.00000000000E+00 -0.17262313352E+04  0.17262313352E+04  0.00000000000E+00 0.  1.
    9000007    1    1    2  502    0 -0.13943395937E+03 -0.18610288583E+03 -0.73068239573E+03  0.86485425163E+03  0.40000000000E+03 0. -1.
   -9000007    1    1    2    0  501  0.13943395937E+03  0.18610288583E+03 -0.87082040475E+03  0.98610561832E+03  0.40000000000E+03 0.  1.
<mgrwt>
<rscale>  2 0.46268360E+03</rscale>
<asrwt>0</asrwt>
<pdfrwt beam="1">  1        2 0.26557404E+00 0.46268360E+03</pdfrwt>
<pdfrwt beam="2">  1       -2 0.19189006E-01 0.46268360E+03</pdfrwt>
<totfact> 0.22793259E+02</totfact>
</mgrwt>
</event>
<event>
 4    1  0.2454657E-002  0.4062058E+03  0.7818608E-02  0.1041652E+00
          2   -1    0    0  502    0  0.00000000000E+00  0.00000000000E+00  0.14545538678E+04  0.14545538678E+04  0.00000000000E+00 0. -1.
         -2   -1    0    0    0  501 -0.00000000000E+00 -0.00000000000E+00 -0.11346030655E+03  0.11346030655E+03  0.00000000000E+00 0.  1.
    9000007    1    1    2  502    0  0.23861498494E+02  0.66586783724E+02  0.65980907355E+03  0.77482332464E+03  0.40000000000E+03 0.  1.
   -9000007    1    1    2    0  501 -0.23861498494E+02 -0.66586783724E+02  0.68128448771E+03  0.79319084971E+03  0.40000000000E+03 0.  1.
<mgrwt>
<rscale>  2 0.40620582E+03</rscale>
<asrwt>0</asrwt>
<pdfrwt beam="1">  1        2 0.22377750E+00 0.40620582E+03</pdfrwt>
<pdfrwt beam="2">  1       -2 0.17455433E-01 0.40620582E+03</pdfrwt>
<totfact> 0.37869601E+02</totfact>
</mgrwt>
</event>
<event>
 4    1  0.2454657E-002  0.4295865E+03  0.7818608E-02  0.1033991E+00
          2   -1    0    0  502    0  0.00000000000E+00  0.00000000000E+00  0.52435073913E+03  0.52435073913E+03  0.00000000000E+00 0. -1.
         -2   -1    0    0    0  501 -0.00000000000E+00 -0.00000000000E+00 -0.36374991231E+03  0.36374991231E+03  0.00000000000E+00 0.  1.
    9000007    1    1    2  502    0  0.15218924815E+03  0.37188051966E+02  0.31780781391E+00  0.42958656807E+03  0.40000000000E+03 0. -1.
   -9000007    1    1    2    0  501 -0.15218924815E+03 -0.37188051966E+02  0.16028301901E+03  0.45851408337E+03  0.40000000000E+03 0. -1.
<mgrwt>
<rscale>  2 0.42958645E+03</rscale>
<asrwt>0</asrwt>
<pdfrwt beam="1">  1        2 0.80669345E-01 0.42958645E+03</pdfrwt>
<pdfrwt beam="2">  1       -2 0.55961525E-01 0.42958645E+03</pdfrwt>
<totfact> 0.17949786E+02</totfact>
</mgrwt>
</event>
<event>
 4    1  0.2454657E-002  0.4496252E+03  0.7818608E-02  0.1027834E+00
          2   -1    0    0  502    0  0.00000000000E+00  0.00000000000E+00  0.92397323580E+03  0.92397323580E+03  0.00000000000E+00 0. -1.
         -2   -1    0    0    0  501 -0.00000000000E+00 -0.00000000000E+00 -0.26621572227E+03  0.26621572227E+03  0.00000000000E+00 0.  1.
    9000007    1    1    2  502    0  0.11415884689E+03 -0.17067687449E+03  0.58003424774E+03  0.73389547373E+03  0.40000000000E+03 0. -1.
   -9000007    1    1    2    0  501 -0.11415884689E+03  0.17067687449E+03  0.77723265795E+02  0.45629348434E+03  0.40000000000E+03 0.  1.
<mgrwt>
<rscale>  2 0.44962522E+03</rscale>
<asrwt>0</asrwt>
<pdfrwt beam="1">  1        2 0.14214973E+00 0.44962522E+03</pdfrwt>
<pdfrwt beam="2">  1       -2 0.40956265E-01 0.44962522E+03</pdfrwt>
<totfact> 0.16501466E+02</totfact>
</mgrwt>
</event>
<event>
 4    1  0.2454657E-002  0.4927808E+03  0.7818608E-02  0.1015681E+00
          2   -1    0    0  502    0  0.00000000000E+00  0.00000000000E+00  0.10039518015E+04  0.10039518015E+04  0.00000000000E+00 0. -1.
         -2   -1    0    0    0  501 -0.00000000000E+00 -0.00000000000E+00 -0.36392102706E+03  0.36392102706E+03  0.00000000000E+00 0.  1.
    9000007    1    1    2  502    0 -0.25856297430E+03  0.12640434417E+03 -0.76053184001E+02  0.49861503858E+03  0.40000000000E+03 0.  1.
   -9000007    1    1    2    0  501  0.25856297430E+03 -0.12640434417E+03  0.71608395847E+03  0.86925779001E+03  0.40000000000E+03 0. -1.
<mgrwt>
<rscale>  2 0.49278075E+03</rscale>
<asrwt>0</asrwt>
<pdfrwt beam="1">  1        2 0.15445412E+00 0.49278075E+03</pdfrwt>
<pdfrwt beam="2">  1       -2 0.55987851E-01 0.49278075E+03</pdfrwt>
<totfact> 0.78013771E+01</totfact>
</mgrwt>
</event>
<event>
 4    1  0.2454657E-002  0.4389377E+03  0.7818608E-02  0.1031073E+00
          2   -1    0    0  502    0  0.00000000000E+00  0.00000000000E+00  0.16333473340E+04  0.16333473340E+04  0.00000000000E+00 0.  1.
         -2   -1    0    0    0  501 -0.00000000000E+00 -0.00000000000E+00 -0.12576804639E+03  0.12576804639E+03  0.00000000000E+00 0. -1.
    9000007    1    1    2  502    0 -0.89841432026E+02  0.15682737616E+03  0.53460643878E+03  0.69171551465E+03  0.40000000000E+03 0. -1.
   -9000007    1    1    2    0  501  0.89841432026E+02 -0.15682737616E+03  0.97297284885E+03  0.10673998658E+04  0.40000000000E+03 0. -1.
<mgrwt>
<rscale>  2 0.43893770E+03</rscale>
<asrwt>0</asrwt>
<pdfrwt beam="1">  1        2 0.25128419E+00 0.43893770E+03</pdfrwt>
<pdfrwt beam="2">  1       -2 0.19348931E-01 0.43893770E+03</pdfrwt>
<totfact> 0.25286370E+02</totfact>
</mgrwt>
</event>
<event>
 4    1  0.2454657E-002  0.4364162E+03  0.7818608E-02  0.1031852E+00
          1   -1    0    0  502    0  0.00000000000E+00  0.00000000000E+00  0.11879360926E+04  0.11879360926E+04  0.00000000000E+00 0. -1.
         -1   -1    0    0    0  501 -0.00000000000E+00 -0.00000000000E+00 -0.16266898816E+03  0.16266898816E+03  0.00000000000E+00 0.  1.
    9000007    1    1    2  502    0 -0.12005695721E+03 -0.12667054284E+03  0.59364949215E+03  0.73680310730E+03  0.40000000000E+03 0.  1.
   -9000007    1    1    2    0  501  0.12005695721E+03  0.12667054284E+03  0.43161761233E+03  0.61380197350E+03  0.40000000000E+03 0.  1.
<mgrwt>
<rscale>  2 0.43641620E+03</rscale>
<asrwt>0</asrwt>
<pdfrwt beam="1">  1        1 0.18275939E+00 0.43641620E+03</pdfrwt>
<pdfrwt beam="2">  1       -1 0.25025999E-01 0.43641620E+03</pdfrwt>
<totfact> 0.15969164E+02</totfact>
</mgrwt>
</event>
<event>
 4    1  0.2454657E-002  0.4949105E+03  0.7818608E-02  0.1015116E+00
          2   -1    0    0  502    0  0.00000000000E+00  0.00000000000E+00  0.18932050256E+03  0.18932050256E+03  0.00000000000E+00 0.  1.
         -2   -1    0    0    0  501 -0.00000000000E+00 -0.00000000000E+00 -0.21025502800E+04  0.21025502800E+04  0.00000000000E+00 0. -1.
    9000007    1    1    2  502    0 -0.23351208732E+02  0.29050157802E+03 -0.16673426258E+04  0.17392434785E+04  0.40000000000E+03 0. -1.
   -9000007    1    1    2    0  501  0.23351208732E+02 -0.29050157802E+03 -0.24588715158E+03  0.55262730397E+03  0.40000000000E+03 0.  1.
<mgrwt>
<rscale>  2 0.49491054E+03</rscale>
<asrwt>0</asrwt>
<pdfrwt beam="1">  1        2 0.29126230E-01 0.49491054E+03</pdfrwt>
<pdfrwt beam="2">  1       -2 0.32346929E+00 0.49491054E+03</pdfrwt>
<totfact> 0.45643771E+00</totfact>
</mgrwt>
</event>
<event>
 4    1  0.2454657E-002  0.4561336E+03  0.7818608E-02  0.1025909E+00
         -1   -1    0    0    0  501 -0.00000000000E+00  0.00000000000E+00  0.28475269236E+03  0.28475269236E+03  0.00000000000E+00 0.  1.
          1   -1    0    0  502    0  0.00000000000E+00 -0.00000000000E+00 -0.11061156368E+04  0.11061156368E+04  0.00000000000E+00 0. -1.
    9000007    1    1    2  502    0  0.20340560200E+03  0.81755870749E+02 -0.81584853997E+03  0.93470139697E+03  0.40000000000E+03 0. -1.
   -9000007    1    1    2    0  501 -0.20340560200E+03 -0.81755870749E+02 -0.55144044226E+01  0.45616693214E+03  0.40000000000E+03 0.  1.
<mgrwt>
<rscale>  2 0.45613360E+03</rscale>
<asrwt>0</asrwt>
<pdfrwt beam="1">  1        1 0.17017164E+00 0.45613360E+03</pdfrwt>
<pdfrwt beam="2">  1       -1 0.43808107E-01 0.45613360E+03</pdfrwt>
<totfact> 0.68421917E+01</totfact>
</mgrwt>
</event>
<event>
 4    1  0.2454657E-002  0.4228099E+03  0.7818608E-02  0.1036156E+00
          2   -1    0    0  502    0  0.00000000000E+00  0.00000000000E+00  0.48599144717E+03  0.48599144717E+03  0.00000000000E+00 0. -1.
         -2   -1    0    0    0  501 -0.00000000000E+00 -0.00000000000E+00 -0.36919469310E+03  0.36919469310E+03  0.00000000000E+00 0.  1.
    9000007    1    1    2  502    0 -0.99800711184E+02  0.93851005341E+02  0.32518599707E+02  0.42405854841E+03  0.40000000000E+03 0.  1.
   -9000007    1    1    2    0  501  0.99800711184E+02 -0.93851005341E+02  0.84278154365E+02  0.43112759186E+03  0.40000000000E+03 0. -1.
<mgrwt>
<rscale>  2 0.42280988E+03</rscale>
<asrwt>0</asrwt>
<pdfrwt beam="1">  1        2 0.74767915E-01 0.42280988E+03</pdfrwt>
<pdfrwt beam="2">  1       -2 0.56799183E-01 0.42280988E+03</pdfrwt>
<totfact> 0.18996044E+02</totfact>
</mgrwt>
</event>
<event>
 4    1  0.2454657E-002  0.4324619E+03  0.7818608E-02  0.1033085E+00
         -1   -1    0    0    0  501 -0.00000000000E+00  0.00000000000E+00  0.14269623942E+03  0.14269623942E+03  0.00000000000E+00 0. -1.
          1   -1    0    0  502    0  0.00000000000E+00 -0.00000000000E+00 -0.19072174910E+04  0.19072174910E+04  0.00000000000E+00 0.  1.
    9000007    1    1    2  502    0  0.12562085725E+03 -0.10603176685E+03 -0.14555040385E+04  0.15183923543E+04  0.40000000000E+03 0.  1.
   -9000007    1    1    2    0  501 -0.12562085725E+03  0.10603176685E+03 -0.30901721309E+03  0.53152137618E+03  0.40000000000E+03 0. -1.
<mgrwt>
<rscale>  2 0.43246195E+03</rscale>
<asrwt>0</asrwt>
<pdfrwt beam="1">  1        1 0.29341808E+00 0.43246195E+03</pdfrwt>
<pdfrwt beam="2">  1       -1 0.21953267E-01 0.43246195E+03</pdfrwt>
<totfact> 0.64984876E+01</totfact>
</mgrwt>
</event>
<event>
 4    1  0.2454657E-002  0.4422681E+03  0.7818608E-02  0.1030053E+00
         -2   -1    0    0    0  501 -0.00000000000E+00  0.00000000000E+00  0.19694433088E+03  0.19694433088E+03  0.00000000000E+00 0. -1.
          2   -1    0    0  502    0  0.00000000000E+00 -0.00000000000E+00 -0.12037263140E+04  0.12037263140E+04  0.00000000000E+00 0.  1.
    9000007    1    1    2  502    0  0.13608165258E+03 -0.13070145117E+03 -0.21049298186E+03  0.48980443130E+03  0.40000000000E+03 0. -1.
   -9000007    1    1    2    0  501 -0.13608165258E+03  0.13070145117E+03 -0.79628900122E+03  0.91086621354E+03  0.40000000000E+03 0.  1.
<mgrwt>
<rscale>  2 0.44226811E+03</rscale>
<asrwt>0</asrwt>
<pdfrwt beam="1">  1        2 0.18518867E+00 0.44226811E+03</pdfrwt>
<pdfrwt beam="2">  1       -2 0.30299127E-01 0.44226811E+03</pdfrwt>
<totfact> 0.19692867E+02</totfact>
</mgrwt>
</event>
<event>
 4    1  0.2454657E-002  0.4175942E+03  0.7818608E-02  0.1037852E+00
          2   -1    0    0  502    0  0.00000000000E+00  0.00000000000E+00  0.59712580995E+03  0.59712580995E+03  0.00000000000E+00 0. -1.
         -2   -1    0    0    0  501 -0.00000000000E+00 -0.00000000000E+00 -0.29207244790E+03  0.29207244790E+03  0.00000000000E+00 0.  1.
    9000007    1    1    2  502    0  0.64927518683E+02 -0.10084304096E+03  0.14787451659E+03  0.44300313120E+03  0.40000000000E+03 0.  1.
   -9000007    1    1    2    0  501 -0.64927518683E+02  0.10084304096E+03  0.15717884546E+03  0.44619512666E+03  0.40000000000E+03 0.  1.
<mgrwt>
<rscale>  2 0.41759418E+03</rscale>
<asrwt>0</asrwt>
<pdfrwt beam="1">  1        2 0.91865509E-01 0.41759418E+03</pdfrwt>
<pdfrwt beam="2">  1       -2 0.44934223E-01 0.41759418E+03</pdfrwt>
<totfact> 0.24043102E+02</totfact>
</mgrwt>
</event>
<event>
 4    1  0.2454657E-002  0.4229245E+03  0.7818608E-02  0.1036119E+00
          1   -1    0    0  502    0  0.00000000000E+00  0.00000000000E+00  0.67438786064E+03  0.67438786064E+03  0.00000000000E+00 0.  1.
         -1   -1    0    0    0  501 -0.00000000000E+00 -0.00000000000E+00 -0.26554113936E+03  0.26554113936E+03  0.00000000000E+00 0. -1.
    9000007    1    1    2  502    0  0.12218218458E+02 -0.13680599983E+03  0.22061457254E+03  0.47700729142E+03  0.40000000000E+03 0.  1.
   -9000007    1    1    2    0  501 -0.12218218458E+02  0.13680599983E+03  0.18823214875E+03  0.46292170858E+03  0.40000000000E+03 0. -1.
<mgrwt>
<rscale>  2 0.42292454E+03</rscale>
<asrwt>0</asrwt>
<pdfrwt beam="1">  1        1 0.10375198E+00 0.42292454E+03</pdfrwt>
<pdfrwt beam="2">  1       -1 0.40852483E-01 0.42292454E+03</pdfrwt>
<totfact> 0.17561624E+02</totfact>
</mgrwt>
</event>
<event>
 4    1  0.2454657E-002  0.5121272E+03  0.7818608E-02  0.1010661E+00
          2   -1    0    0  502    0  0.00000000000E+00  0.00000000000E+00  0.14866969427E+04  0.14866969427E+04  0.00000000000E+00 0. -1.
         -2   -1    0    0    0  501 -0.00000000000E+00 -0.00000000000E+00 -0.19985038999E+03  0.19985038999E+03  0.00000000000E+00 0.  1.
    9000007    1    1    2  502    0 -0.29878033168E+03 -0.11403781948E+03  0.35464772508E+03  0.62293604790E+03  0.40000000000E+03 0.  1.
   -9000007    1    1    2    0  501  0.29878033168E+03  0.11403781948E+03  0.93219882759E+03  0.10636112847E+04  0.40000000000E+03 0. -1.
<mgrwt>
<rscale>  2 0.51212724E+03</rscale>
<asrwt>0</asrwt>
<pdfrwt beam="1">  1        2 0.22872260E+00 0.51212724E+03</pdfrwt>
<pdfrwt beam="2">  1       -2 0.30746215E-01 0.51212724E+03</pdfrwt>
<totfact> 0.13171567E+02</totfact>
</mgrwt>
</event>
<event>
 4    1  0.2454657E-002  0.4295101E+03  0.7818608E-02  0.1034015E+00
          2   -1    0    0  502    0  0.00000000000E+00  0.00000000000E+00  0.11243975043E+04  0.11243975043E+04  0.00000000000E+00 0. -1.
         -2   -1    0    0    0  501 -0.00000000000E+00 -0.00000000000E+00 -0.63455385826E+03  0.63455385826E+03  0.00000000000E+00 0.  1.
    9000007    1    1    2  502    0  0.14693726262E+03  0.53743857783E+02 -0.51236838131E+03  0.66858082500E+03  0.40000000000E+03 0.  1.
   -9000007    1    1    2    0  501 -0.14693726262E+03 -0.53743857783E+02  0.10022120273E+04  0.10903705375E+04  0.40000000000E+03 0. -1.
<mgrwt>
<rscale>  2 0.42951014E+03</rscale>
<asrwt>0</asrwt>
<pdfrwt beam="1">  1        2 0.17298423E+00 0.42951014E+03</pdfrwt>
<pdfrwt beam="2">  1       -2 0.97623670E-01 0.42951014E+03</pdfrwt>
<totfact> 0.19623964E+01</totfact>
</mgrwt>
</event>
<event>
 4    1  0.2454657E-002  0.4963509E+03  0.7818608E-02  0.1014736E+00
         -1   -1    0    0    0  501 -0.00000000000E+00  0.00000000000E+00  0.16191540913E+04  0.16191540913E+04  0.00000000000E+00 0.  1.
          1   -1    0    0  502    0  0.00000000000E+00 -0.00000000000E+00 -0.15265123918E+03  0.15265123918E+03  0.00000000000E+00 0. -1.
    9000007    1    1    2  502    0  0.26087975313E+03 -0.13529968006E+03  0.78370344867E+03  0.92766122290E+03  0.40000000000E+03 0. -1.
   -9000007    1    1    2    0  501 -0.26087975313E+03  0.13529968006E+03  0.68279940346E+03  0.84414410759E+03  0.40000000000E+03 0. -1.
<mgrwt>
<rscale>  2 0.49635093E+03</rscale>
<asrwt>0</asrwt>
<pdfrwt beam="1">  1        1 0.23484807E-01 0.49635093E+03</pdfrwt>
<pdfrwt beam="2">  1       -1 0.24910062E+00 0.49635093E+03</pdfrwt>
<totfact> 0.15989556E+01</totfact>
</mgrwt>
</event>
<event>
 4    1  0.2454657E-002  0.4047396E+03  0.7818608E-02  0.1042151E+00
         -2   -1    0    0    0  501 -0.00000000000E+00  0.00000000000E+00  0.14033226867E+03  0.14033226867E+03  0.00000000000E+00 0. -1.
          2   -1    0    0  502    0  0.00000000000E+00 -0.00000000000E+00 -0.13817061762E+04  0.13817061762E+04  0.00000000000E+00 0.  1.
    9000007    1    1    2  502    0 -0.10912231900E+02 -0.60786961838E+02 -0.32092564736E+03  0.51653402857E+03  0.40000000000E+03 0. -1.
   -9000007    1    1    2    0  501  0.10912231900E+02  0.60786961838E+02 -0.92044826017E+03  0.10055044163E+04  0.40000000000E+03 0.  1.
<mgrwt>
<rscale>  2 0.40473958E+03</rscale>
<asrwt>0</asrwt>
<pdfrwt beam="1">  1        2 0.21257019E+00 0.40473958E+03</pdfrwt>
<pdfrwt beam="2">  1       -2 0.21589579E-01 0.40473958E+03</pdfrwt>
<totfact> 0.28795605E+02</totfact>
</mgrwt>
</event>
<event>
 4    1  0.2454657E-002  0.4313981E+03  0.7818608E-02  0.1033419E+00
          2   -1    0    0  502    0  0.00000000000E+00  0.00000000000E+00  0.76220790497E+03  0.76220790497E+03  0.00000000000E+00 0. -1.
         -2   -1    0    0    0  501 -0.00000000000E+00 -0.00000000000E+00 -0.26092770612E+03  0.26092770612E+03  0.00000000000E+00 0.  1.
    9000007    1    1    2  502    0 -0.96267000693E+02  0.12975735837E+03  0.38030377483E+03  0.57509587776E+03  0.40000000000E+03 0. -1.
   -9000007    1    1    2    0  501  0.96267000693E+02 -0.12975735837E+03  0.12097642403E+03  0.44803973333E+03  0.40000000000E+03 0.  1.
<mgrwt>
<rscale>  2 0.43139808E+03</rscale>
<asrwt>0</asrwt>
<pdfrwt beam="1">  1        2 0.11726275E+00 0.43139808E+03</pdfrwt>
<pdfrwt beam="2">  1       -2 0.40142724E-01 0.43139808E+03</pdfrwt>
<totfact> 0.22192322E+02</totfact>
</mgrwt>
</event>
<event>
 4    1  0.2454657E-002  0.6014576E+03  0.7818608E-02  0.9902387E-01
         -2   -1    0    0    0  501 -0.00000000000E+00  0.00000000000E+00  0.25648793209E+03  0.25648793209E+03  0.00000000000E+00 0. -1.
          2   -1    0    0  502    0  0.00000000000E+00 -0.00000000000E+00 -0.14525827217E+04  0.14525827217E+04  0.00000000000E+00 0.  1.
    9000007    1    1    2  502    0  0.32910395284E+03  0.30568263739E+03 -0.45243019009E+03  0.75262498196E+03  0.40000000000E+03 0. -1.
   -9000007    1    1    2    0  501 -0.32910395284E+03 -0.30568263739E+03 -0.74366459954E+03  0.95644567184E+03  0.40000000000E+03 0.  1.
<mgrwt>
<rscale>  2 0.60145763E+03</rscale>
<asrwt>0</asrwt>
<pdfrwt beam="1">  1        2 0.22347426E+00 0.60145763E+03</pdfrwt>
<pdfrwt beam="2">  1       -2 0.39459682E-01 0.60145763E+03</pdfrwt>
<totfact> 0.84845961E+01</totfact>
</mgrwt>
</event>
<event>
 4    1  0.2454657E-002  0.4844023E+03  0.7818608E-02  0.1017932E+00
          2   -1    0    0  502    0  0.00000000000E+00  0.00000000000E+00  0.24923625628E+04  0.24923625628E+04  0.00000000000E+00 0. -1.
         -2   -1    0    0    0  501 -0.00000000000E+00 -0.00000000000E+00 -0.10098097070E+03  0.10098097070E+03  0.00000000000E+00 0.  1.
    9000007    1    1    2  502    0 -0.17356591358E+03 -0.21099861643E+03  0.85833823696E+03  0.98559122943E+03  0.40000000000E+03 0. -1.
   -9000007    1    1    2    0  501  0.17356591358E+03  0.21099861643E+03  0.15330433551E+04  0.16077523040E+04  0.40000000000E+03 0. -1.
<mgrwt>
<rscale>  2 0.48440225E+03</rscale>
<asrwt>0</asrwt>
<pdfrwt beam="1">  1        2 0.38344035E+00 0.48440225E+03</pdfrwt>
<pdfrwt beam="2">  1       -2 0.15535536E-01 0.48440225E+03</pdfrwt>
<totfact> 0.12503117E+02</totfact>
</mgrwt>
</event>
<event>
 4    1  0.2454657E-002  0.4096604E+03  0.7818608E-02  0.1040485E+00
          1   -1    0    0  502    0  0.00000000000E+00  0.00000000000E+00  0.16404618207E+04  0.16404618207E+04  0.00000000000E+00 0.  1.
         -1   -1    0    0    0  501 -0.00000000000E+00 -0.00000000000E+00 -0.12339364753E+03  0.12339364753E+03  0.00000000000E+00 0. -1.
    9000007    1    1    2  502    0 -0.76045192250E+02 -0.45153203848E+02  0.11231596696E+04  0.11955372543E+04  0.40000000000E+03 0.  1.
   -9000007    1    1    2    0  501  0.76045192250E+02  0.45153203848E+02  0.39390850360E+03  0.56831821394E+03  0.40000000000E+03 0. -1.
<mgrwt>
<rscale>  2 0.40966045E+03</rscale>
<asrwt>0</asrwt>
<pdfrwt beam="1">  1        1 0.25237873E+00 0.40966045E+03</pdfrwt>
<pdfrwt beam="2">  1       -1 0.18983639E-01 0.40966045E+03</pdfrwt>
<totfact> 0.12444624E+02</totfact>
</mgrwt>
</event>
<event>
 4    1  0.2454657E-002  0.4148900E+03  0.7818608E-02  0.1038742E+00
         -2   -1    0    0    0  501 -0.00000000000E+00  0.00000000000E+00  0.14738582010E+03  0.14738582010E+03  0.00000000000E+00 0. -1.
          2   -1    0    0  502    0  0.00000000000E+00 -0.00000000000E+00 -0.12413709025E+04  0.12413709025E+04  0.00000000000E+00 0.  1.
    9000007    1    1    2  502    0 -0.10962077373E+03 -0.10816432566E+02 -0.37807809763E+03  0.56131698456E+03  0.40000000000E+03 0. -1.
   -9000007    1    1    2    0  501  0.10962077373E+03  0.10816432566E+02 -0.71590698479E+03  0.82743973806E+03  0.40000000000E+03 0. -1.
<mgrwt>
<rscale>  2 0.41489000E+03</rscale>
<asrwt>0</asrwt>
<pdfrwt beam="1">  1        2 0.19098014E+00 0.41489000E+03</pdfrwt>
<pdfrwt beam="2">  1       -2 0.22674741E-01 0.41489000E+03</pdfrwt>
<totfact> 0.31660162E+02</totfact>
</mgrwt>
</event>
<event>
 4    1  0.2454657E-002  0.1193329E+04  0.7818608E-02  0.9118715E-01
          2   -1    0    0  502    0  0.00000000000E+00  0.00000000000E+00  0.13979567821E+04  0.13979567821E+04  0.00000000000E+00 0. -1.
         -2   -1    0    0    0  501 -0.00000000000E+00 -0.00000000000E+00 -0.10339033868E+04  0.10339033868E+04  0.00000000000E+00 0.  1.
    9000007    1    1    2  502    0 -0.64244170799E+03 -0.92266120156E+03  0.32969488341E+03  0.12380362503E+04  0.40000000000E+03 0. -1.
   -9000007    1    1    2    0  501  0.64244170799E+03  0.92266120156E+03  0.34358511933E+02  0.11938239185E+04  0.40000000000E+03 0.  1.
<mgrwt>
<rscale>  2 0.11933294E+04</rscale>
<asrwt>0</asrwt>
<pdfrwt beam="1">  1        2 0.21507027E+00 0.11933294E+04</pdfrwt>
<pdfrwt beam="2">  1       -2 0.15906206E+00 0.11933294E+04</pdfrwt>
<totfact> 0.36105930E+00</totfact>
</mgrwt>
</event>
<event>
 4    1  0.2454657E-002  0.4334196E+03  0.7818608E-02  0.1032785E+00
         -1   -1    0    0    0  501 -0.00000000000E+00  0.00000000000E+00  0.21098670190E+03  0.21098670190E+03  0.00000000000E+00 0. -1.
          1   -1    0    0  502    0  0.00000000000E+00 -0.00000000000E+00 -0.10468700740E+04  0.10468700740E+04  0.00000000000E+00 0.  1.
    9000007    1    1    2  502    0 -0.14042361073E+03 -0.90187588394E+02 -0.66112624948E+03  0.79053178893E+03  0.40000000000E+03 0.  1.
   -9000007    1    1    2    0  501  0.14042361073E+03  0.90187588394E+02 -0.17475712263E+03  0.46732498698E+03  0.40000000000E+03 0. -1.
<mgrwt>
<rscale>  2 0.43341965E+03</rscale>
<asrwt>0</asrwt>
<pdfrwt beam="1">  1        1 0.16105693E+00 0.43341965E+03</pdfrwt>
<pdfrwt beam="2">  1       -1 0.32459494E-01 0.43341965E+03</pdfrwt>
<totfact> 0.12966896E+02</totfact>
</mgrwt>
</event>
<event>
 4    1  0.2454657E-002  0.4427479E+03  0.7818608E-02  0.1029907E+00
         -2   -1    0    0    0  501 -0.00000000000E+00  0.00000000000E+00  0.36722766950E+03  0.36722766950E+03  0.00000000000E+00 0.  1.
          2   -1    0    0  502    0  0.00000000000E+00 -0.00000000000E+00 -0.23221978297E+04  0.23221978297E+04  0.00000000000E+00 0. -1.
    9000007    1    1    2  502    0  0.91760296420E+02 -0.16614978470E+03 -0.21575669100E+04  0.22025259758E+04  0.40000000000E+03 0. -1.
   -9000007    1    1    2    0  501 -0.91760296420E+02  0.16614978470E+03  0.20259674973E+03  0.48689952347E+03  0.40000000000E+03 0.  1.
<mgrwt>
<rscale>  2 0.44274790E+03</rscale>
<asrwt>0</asrwt>
<pdfrwt beam="1">  1        2 0.35726122E+00 0.44274790E+03</pdfrwt>
<pdfrwt beam="2">  1       -2 0.56496562E-01 0.44274790E+03</pdfrwt>
<totfact> 0.14368161E+01</totfact>
</mgrwt>
</event>
<event>
 4    1  0.2454657E-002  0.6763933E+03  0.7818608E-02  0.9758477E-01
          1   -1    0    0  502    0  0.00000000000E+00  0.00000000000E+00  0.10295137882E+04  0.10295137882E+04  0.00000000000E+00 0. -1.
         -1   -1    0    0    0  501 -0.00000000000E+00 -0.00000000000E+00 -0.44980030559E+03  0.44980030559E+03  0.00000000000E+00 0.  1.
    9000007    1    1    2  502    0  0.31338092645E+03 -0.44643058822E+03  0.20875242467E+03  0.70787389411E+03  0.40000000000E+03 0.  1.
   -9000007    1    1    2    0  501 -0.31338092645E+03  0.44643058822E+03  0.37096105792E+03  0.77144019966E+03  0.40000000000E+03 0. -1.
<mgrwt>
<rscale>  2 0.67639328E+03</rscale>
<asrwt>0</asrwt>
<pdfrwt beam="1">  1        1 0.15838674E+00 0.67639328E+03</pdfrwt>
<pdfrwt beam="2">  1       -1 0.69200047E-01 0.67639328E+03</pdfrwt>
<totfact> 0.31407817E+01</totfact>
</mgrwt>
</event>
<event>
 4    1  0.2454657E-002  0.4554871E+03  0.7818608E-02  0.1026098E+00
          2   -1    0    0  502    0  0.00000000000E+00  0.00000000000E+00  0.51530695383E+03  0.51530695383E+03  0.00000000000E+00 0. -1.
         -2   -1    0    0    0  501 -0.00000000000E+00 -0.00000000000E+00 -0.46553955829E+03  0.46553955829E+03  0.00000000000E+00 0.  1.
    9000007    1    1    2  502    0 -0.18022500213E+03 -0.12242310018E+03  0.20519177690E+03  0.49957194893E+03  0.40000000000E+03 0. -1.
   -9000007    1    1    2    0  501  0.18022500213E+03  0.12242310018E+03 -0.15542438137E+03  0.48127456319E+03  0.40000000000E+03 0.  1.
<mgrwt>
<rscale>  2 0.45548707E+03</rscale>
<asrwt>0</asrwt>
<pdfrwt beam="1">  1        2 0.79277993E-01 0.45548707E+03</pdfrwt>
<pdfrwt beam="2">  1       -2 0.71621471E-01 0.45548707E+03</pdfrwt>
<totfact> 0.10832792E+02</totfact>
</mgrwt>
</event>
<event>
 4    1  0.2454657E-002  0.4481536E+03  0.7818608E-02  0.1028274E+00
         -1   -1    0    0    0  501 -0.00000000000E+00  0.00000000000E+00  0.13037340758E+03  0.13037340758E+03  0.00000000000E+00 0. -1.
          1   -1    0    0  502    0  0.00000000000E+00 -0.00000000000E+00 -0.15483841053E+04  0.15483841053E+04  0.00000000000E+00 0.  1.
    9000007    1    1    2  502    0  0.93031873173E+01  0.20187887635E+03 -0.76886025987E+03  0.88993692429E+03  0.40000000000E+03 0.  1.
   -9000007    1    1    2    0  501 -0.93031873173E+01 -0.20187887635E+03 -0.64915043787E+03  0.78882058860E+03  0.40000000000E+03 0. -1.
<mgrwt>
<rscale>  2 0.44815358E+03</rscale>
<asrwt>0</asrwt>
<pdfrwt beam="1">  1        1 0.23821294E+00 0.44815358E+03</pdfrwt>
<pdfrwt beam="2">  1       -1 0.20057448E-01 0.44815358E+03</pdfrwt>
<totfact> 0.13018858E+02</totfact>
</mgrwt>
</event>
<event>
 4    1  0.2454657E-002  0.4335748E+03  0.7818608E-02  0.1032737E+00
          2   -1    0    0  502    0  0.00000000000E+00  0.00000000000E+00  0.17970837423E+04  0.17970837423E+04  0.00000000000E+00 0. -1.
         -2   -1    0    0    0  501 -0.00000000000E+00 -0.00000000000E+00 -0.15422744371E+03  0.15422744371E+03  0.00000000000E+00 0.  1.
    9000007    1    1    2  502    0  0.32768100046E+02 -0.16405283747E+03  0.26801796979E+03  0.50972611665E+03  0.40000000000E+03 0.  1.
   -9000007    1    1    2    0  501 -0.32768100046E+02  0.16405283747E+03  0.13748383288E+04  0.14415850693E+04  0.40000000000E+03 0. -1.
<mgrwt>
<rscale>  2 0.43357477E+03</rscale>
<asrwt>0</asrwt>
<pdfrwt beam="1">  1        2 0.27647441E+00 0.43357477E+03</pdfrwt>
<pdfrwt beam="2">  1       -2 0.23727300E-01 0.43357477E+03</pdfrwt>
<totfact> 0.14465055E+02</totfact>
</mgrwt>
</event>
<event>
 4    1  0.2454657E-002  0.4655030E+03  0.7818608E-02  0.1023197E+00
         -3   -1    0    0    0  501 -0.00000000000E+00  0.00000000000E+00  0.40492282092E+03  0.40492282092E+03  0.00000000000E+00 0. -1.
          3   -1    0    0  502    0  0.00000000000E+00 -0.00000000000E+00 -0.94036703103E+03  0.94036703103E+03  0.00000000000E+00 0.  1.
    9000007    1    1    2  502    0  0.23439481314E+03 -0.41858282852E+02 -0.70927514140E+03  0.84838922110E+03  0.40000000000E+03 0.  1.
   -9000007    1    1    2    0  501 -0.23439481314E+03  0.41858282852E+02  0.17383093129E+03  0.49690063086E+03  0.40000000000E+03 0.  1.
<mgrwt>
<rscale>  2 0.46550300E+03</rscale>
<asrwt>0</asrwt>
<pdfrwt beam="1">  1        3 0.14467185E+00 0.46550300E+03</pdfrwt>
<pdfrwt beam="2">  1       -3 0.62295819E-01 0.46550300E+03</pdfrwt>
<totfact> 0.23389157E+00</totfact>
</mgrwt>
</event>
<event>
 4    1  0.2454657E-002  0.4074111E+03  0.7818608E-02  0.1041243E+00
         -2   -1    0    0    0  501 -0.00000000000E+00  0.00000000000E+00  0.16330714462E+03  0.16330714462E+03  0.00000000000E+00 0.  1.
          2   -1    0    0  502    0  0.00000000000E+00 -0.00000000000E+00 -0.10281577630E+04  0.10281577630E+04  0.00000000000E+00 0. -1.
    9000007    1    1    2  502    0 -0.74489133078E+02  0.20861293795E+02 -0.49615763560E+03  0.64199394381E+03  0.40000000000E+03 0. -1.
   -9000007    1    1    2    0  501  0.74489133078E+02 -0.20861293795E+02 -0.36869298281E+03  0.54947096384E+03  0.40000000000E+03 0.  1.
<mgrwt>
<rscale>  2 0.40741112E+03</rscale>
<asrwt>0</asrwt>
<pdfrwt beam="1">  1        2 0.15817812E+00 0.40741112E+03</pdfrwt>
<pdfrwt beam="2">  1       -2 0.25124176E-01 0.40741112E+03</pdfrwt>
<totfact> 0.35329226E+02</totfact>
</mgrwt>
</event>
<event>
 4    1  0.2454657E-002  0.5374747E+03  0.7818608E-02  0.1004435E+00
         -1   -1    0    0    0  501 -0.00000000000E+00  0.00000000000E+00  0.24654888073E+03  0.24654888073E+03  0.00000000000E+00 0.  1.
          1   -1    0    0  502    0  0.00000000000E+00 -0.00000000000E+00 -0.12252965738E+04  0.12252965738E+04  0.00000000000E+00 0. -1.
    9000007    1    1    2  502    0  0.17040243674E+03  0.31597797257E+03 -0.33544601349E+03  0.63356380702E+03  0.40000000000E+03 0.  1.
   -9000007    1    1    2    0  501 -0.17040243674E+03 -0.31597797257E+03 -0.64330167956E+03  0.83828164750E+03  0.40000000000E+03 0. -1.
<mgrwt>
<rscale>  2 0.53747472E+03</rscale>
<asrwt>0</asrwt>
<pdfrwt beam="1">  1        1 0.18850716E+00 0.53747472E+03</pdfrwt>
<pdfrwt beam="2">  1       -1 0.37930597E-01 0.53747472E+03</pdfrwt>
<totfact> 0.72000956E+01</totfact>
</mgrwt>
</event>
<event>
 4    1  0.2454657E-002  0.5153066E+03  0.7818608E-02  0.1009859E+00
          2   -1    0    0  502    0  0.00000000000E+00  0.00000000000E+00  0.21639864067E+04  0.21639864067E+04  0.00000000000E+00 0.  1.
         -2   -1    0    0    0  501 -0.00000000000E+00 -0.00000000000E+00 -0.12622016765E+03  0.12622016765E+03  0.00000000000E+00 0. -1.
    9000007    1    1    2  502    0  0.29559714852E+03 -0.13477106291E+03  0.12098672727E+04  0.13150360190E+04  0.40000000000E+03 0.  1.
   -9000007    1    1    2    0  501 -0.29559714852E+03  0.13477106291E+03  0.82789896637E+03  0.97517055541E+03  0.40000000000E+03 0.  1.
<mgrwt>
<rscale>  2 0.51530662E+03</rscale>
<asrwt>0</asrwt>
<pdfrwt beam="1">  1        2 0.33292096E+00 0.51530662E+03</pdfrwt>
<pdfrwt beam="2">  1       -2 0.19418489E-01 0.51530662E+03</pdfrwt>
<totfact> 0.12882988E+02</totfact>
</mgrwt>
</event>
<event>
 4    1  0.2454657E-002  0.4926398E+03  0.7818608E-02  0.1015718E+00
          2   -1    0    0  502    0  0.00000000000E+00  0.00000000000E+00  0.11463143746E+04  0.11463143746E+04  0.00000000000E+00 0. -1.
         -2   -1    0    0    0  501 -0.00000000000E+00 -0.00000000000E+00 -0.26288692712E+03  0.26288692712E+03  0.00000000000E+00 0.  1.
    9000007    1    1    2  502    0  0.28731454537E+03 -0.12013652620E+02  0.75257521337E+03  0.89947953151E+03  0.40000000000E+03 0. -1.
   -9000007    1    1    2    0  501 -0.28731454537E+03  0.12013652620E+02  0.13085223410E+03  0.50972177018E+03  0.40000000000E+03 0.  1.
<mgrwt>
<rscale>  2 0.49263980E+03</rscale>
<asrwt>0</asrwt>
<pdfrwt beam="1">  1        2 0.17635606E+00 0.49263980E+03</pdfrwt>
<pdfrwt beam="2">  1       -2 0.40444143E-01 0.49263980E+03</pdfrwt>
<totfact> 0.12258006E+02</totfact>
</mgrwt>
</event>
<event>
 4    1  0.2454657E-002  0.5069346E+03  0.7818608E-02  0.1011985E+00
          1   -1    0    0  502    0  0.00000000000E+00  0.00000000000E+00  0.30354635377E+03  0.30354635377E+03  0.00000000000E+00 0.  1.
         -1   -1    0    0    0  501 -0.00000000000E+00 -0.00000000000E+00 -0.87306210973E+03  0.87306210973E+03  0.00000000000E+00 0. -1.
    9000007    1    1    2  502    0  0.27376477927E+03 -0.14844354207E+03 -0.18233814939E+03  0.53872983979E+03  0.40000000000E+03 0.  1.
   -9000007    1    1    2    0  501 -0.27376477927E+03  0.14844354207E+03 -0.38717760657E+03  0.63787862371E+03  0.40000000000E+03 0. -1.
<mgrwt>
<rscale>  2 0.50693455E+03</rscale>
<asrwt>0</asrwt>
<pdfrwt beam="1">  1        1 0.46699439E-01 0.50693455E+03</pdfrwt>
<pdfrwt beam="2">  1       -1 0.13431725E+00 0.50693455E+03</pdfrwt>
<totfact> 0.42157173E+01</totfact>
</mgrwt>
</event>
<event>
 4    1  0.2454657E-002  0.4473194E+03  0.7818608E-02  0.1028524E+00
         -2   -1    0    0    0  501 -0.00000000000E+00  0.00000000000E+00  0.39739266346E+03  0.39739266346E+03  0.00000000000E+00 0. -1.
          2   -1    0    0  502    0  0.00000000000E+00 -0.00000000000E+00 -0.51730666438E+03  0.51730666438E+03  0.00000000000E+00 0.  1.
    9000007    1    1    2  502    0 -0.13332318725E+03  0.14939724386E+03 -0.13462345607E+03  0.46713818475E+03  0.40000000000E+03 0.  1.
   -9000007    1    1    2    0  501  0.13332318725E+03 -0.14939724386E+03  0.14709455155E+02  0.44756114309E+03  0.40000000000E+03 0.  1.
<mgrwt>
<rscale>  2 0.44731936E+03</rscale>
<asrwt>0</asrwt>
<pdfrwt beam="1">  1        2 0.79585640E-01 0.44731936E+03</pdfrwt>
<pdfrwt beam="2">  1       -2 0.61137333E-01 0.44731936E+03</pdfrwt>
<totfact> 0.15142856E+02</totfact>
</mgrwt>
</event>
<event>
 4    1  0.2454657E-002  0.4590806E+03  0.7818608E-02  0.1025048E+00
         -2   -1    0    0    0  501 -0.00000000000E+00  0.00000000000E+00  0.12927526061E+03  0.12927526061E+03  0.00000000000E+00 0. -1.
          2   -1    0    0  502    0  0.00000000000E+00 -0.00000000000E+00 -0.16541888836E+04  0.16541888836E+04  0.00000000000E+00 0.  1.
    9000007    1    1    2  502    0  0.21151595978E+03 -0.77562787403E+02 -0.65525222126E+03  0.80006903496E+03  0.40000000000E+03 0. -1.
   -9000007    1    1    2    0  501 -0.21151595978E+03  0.77562787403E+02 -0.86966140172E+03  0.98339510924E+03  0.40000000000E+03 0.  1.
<mgrwt>
<rscale>  2 0.45908059E+03</rscale>
<asrwt>0</asrwt>
<pdfrwt beam="1">  1        2 0.25449057E+00 0.45908059E+03</pdfrwt>
<pdfrwt beam="2">  1       -2 0.19888504E-01 0.45908059E+03</pdfrwt>
<totfact> 0.23436435E+02</totfact>
</mgrwt>
</event>
<event>
 4    1  0.2454657E-002  0.4194209E+03  0.7818608E-02  0.1037255E+00
         -2   -1    0    0    0  501 -0.00000000000E+00  0.00000000000E+00  0.13394573988E+03  0.13394573988E+03  0.00000000000E+00 0. -1.
          2   -1    0    0  502    0  0.00000000000E+00 -0.00000000000E+00 -0.28439419972E+04  0.28439419972E+04  0.00000000000E+00 0.  1.
    9000007    1    1    2  502    0  0.94609189413E+02 -0.83444725723E+02 -0.24473224757E+04  0.24830024610E+04  0.40000000000E+03 0.  1.
   -9000007    1    1    2    0  501 -0.94609189413E+02  0.83444725723E+02 -0.26267378157E+03  0.49488527610E+03  0.40000000000E+03 0. -1.
<mgrwt>
<rscale>  2 0.41942094E+03</rscale>
<asrwt>0</asrwt>
<pdfrwt beam="1">  1        2 0.43752949E+00 0.41942094E+03</pdfrwt>
<pdfrwt beam="2">  1       -2 0.20607039E-01 0.41942094E+03</pdfrwt>
<totfact> 0.49265580E+01</totfact>
</mgrwt>
</event>
<event>
 4    1  0.2454657E-002  0.5760446E+03  0.7818608E-02  0.9956391E-01
          2   -1    0    0  502    0  0.00000000000E+00  0.00000000000E+00  0.23927260842E+04  0.23927260842E+04  0.00000000000E+00 0.  1.
         -2   -1    0    0    0  501 -0.00000000000E+00 -0.00000000000E+00 -0.14142035002E+03  0.14142035002E+03  0.00000000000E+00 0. -1.
    9000007    1    1    2  502    0  0.39220291234E+03 -0.13417975143E+03  0.13019777978E+04  0.14237182011E+04  0.40000000000E+03 0.  1.
   -9000007    1    1    2    0  501 -0.39220291234E+03  0.13417975143E+03  0.94932793631E+03  0.11104282331E+04  0.40000000000E+03 0. -1.
<mgrwt>
<rscale>  2 0.57604456E+03</rscale>
<asrwt>0</asrwt>
<pdfrwt beam="1">  1        2 0.36811168E+00 0.57604456E+03</pdfrwt>
<pdfrwt beam="2">  1       -2 0.21756979E-01 0.57604456E+03</pdfrwt>
<totfact> 0.78354684E+01</totfact>
</mgrwt>
</event>
<event>
 4    1  0.2454657E-002  0.4102000E+03  0.7818608E-02  0.1040304E+00
         -2   -1    0    0    0  501 -0.00000000000E+00  0.00000000000E+00  0.19570780585E+03  0.19570780585E+03  0.00000000000E+00 0. -1.
          2   -1    0    0  502    0  0.00000000000E+00 -0.00000000000E+00 -0.10989844878E+04  0.10989844878E+04  0.00000000000E+00 0.  1.
    9000007    1    1    2  502    0  0.90903729543E+02 -0.72476132789E+00 -0.14962016991E+03  0.43663509773E+03  0.40000000000E+03 0. -1.
   -9000007    1    1    2    0  501 -0.90903729543E+02  0.72476132789E+00 -0.75365651202E+03  0.85805719590E+03  0.40000000000E+03 0.  1.
<mgrwt>
<rscale>  2 0.41019997E+03</rscale>
<asrwt>0</asrwt>
<pdfrwt beam="1">  1        2 0.16907453E+00 0.41019997E+03</pdfrwt>
<pdfrwt beam="2">  1       -2 0.30108894E-01 0.41019997E+03</pdfrwt>
<totfact> 0.23044259E+02</totfact>
</mgrwt>
</event>
<event>
 4    1  0.2454657E-002  0.4848597E+03  0.7818608E-02  0.1017808E+00
         -2   -1    0    0    0  501 -0.00000000000E+00  0.00000000000E+00  0.41889241132E+03  0.41889241132E+03  0.00000000000E+00 0. -1.
          2   -1    0    0  502    0  0.00000000000E+00 -0.00000000000E+00 -0.61272503577E+03  0.61272503577E+03  0.00000000000E+00 0.  1.
    9000007    1    1    2  502    0  0.15590698208E+03  0.22534845566E+03  0.52638259386E+02  0.48770862190E+03  0.40000000000E+03 0. -1.
   -9000007    1    1    2    0  501 -0.15590698208E+03 -0.22534845566E+03 -0.24647088384E+03  0.54390882518E+03  0.40000000000E+03 0. -1.
<mgrwt>
<rscale>  2 0.48485968E+03</rscale>
<asrwt>0</asrwt>
<pdfrwt beam="1">  1        2 0.94265390E-01 0.48485968E+03</pdfrwt>
<pdfrwt beam="2">  1       -2 0.64444986E-01 0.48485968E+03</pdfrwt>
<totfact> 0.11073084E+02</totfact>
</mgrwt>
</event>
<event>
 4    1  0.2454657E-002  0.4060716E+03  0.7818608E-02  0.1041697E+00
         -3   -1    0    0    0  501 -0.00000000000E+00  0.00000000000E+00  0.45100508570E+02  0.45100508570E+02  0.00000000000E+00 0. -1.
          3   -1    0    0  502    0  0.00000000000E+00 -0.00000000000E+00 -0.36969042435E+04  0.36969042435E+04  0.00000000000E+00 0.  1.
    9000007    1    1    2  502    0 -0.24001606991E+02  0.65712189117E+02 -0.16294535970E+04  0.16792894907E+04  0.40000000000E+03 0.  1.
   -9000007    1    1    2    0  501  0.24001606991E+02 -0.65712189117E+02 -0.20223501380E+04  0.20627152614E+04  0.40000000000E+03 0.  1.
<mgrwt>
<rscale>  2 0.40607163E+03</rscale>
<asrwt>0</asrwt>
<pdfrwt beam="1">  1        3 0.56875472E+00 0.40607163E+03</pdfrwt>
<pdfrwt beam="2">  1       -3 0.69385371E-02 0.40607163E+03</pdfrwt>
<totfact> 0.66590511E-01</totfact>
</mgrwt>
</event>
<event>
 4    1  0.2454657E-002  0.4646657E+03  0.7818608E-02  0.1023437E+00
         -2   -1    0    0    0  501 -0.00000000000E+00  0.00000000000E+00  0.36246077537E+03  0.36246077537E+03  0.00000000000E+00 0. -1.
          2   -1    0    0  502    0  0.00000000000E+00 -0.00000000000E+00 -0.59620542289E+03  0.59620542289E+03  0.00000000000E+00 0.  1.
    9000007    1    1    2  502    0 -0.21123064427E+02 -0.23551652738E+03 -0.13096744070E+03  0.48276980958E+03  0.40000000000E+03 0.  1.
   -9000007    1    1    2    0  501  0.21123064427E+02  0.23551652738E+03 -0.10277720683E+03  0.47589638868E+03  0.40000000000E+03 0.  1.
<mgrwt>
<rscale>  2 0.46466571E+03</rscale>
<asrwt>0</asrwt>
<pdfrwt beam="1">  1        2 0.91723912E-01 0.46466571E+03</pdfrwt>
<pdfrwt beam="2">  1       -2 0.55763196E-01 0.46466571E+03</pdfrwt>
<totfact> 0.15521430E+02</totfact>
</mgrwt>
</event>
<event>
 4    1  0.2454657E-002  0.6251599E+03  0.7818608E-02  0.9854540E-01
          1   -1    0    0  502    0  0.00000000000E+00  0.00000000000E+00  0.10458432443E+04  0.10458432443E+04  0.00000000000E+00 0.  1.
         -1   -1    0    0    0  501 -0.00000000000E+00 -0.00000000000E+00 -0.37529037736E+03  0.37529037736E+03  0.00000000000E+00 0. -1.
    9000007    1    1    2  502    0  0.28493326847E+03  0.38683069598E+03  0.28892749767E+03  0.68869736006E+03  0.40000000000E+03 0.  1.
   -9000007    1    1    2    0  501 -0.28493326847E+03 -0.38683069598E+03  0.38162536924E+03  0.73243626159E+03  0.40000000000E+03 0. -1.
<mgrwt>
<rscale>  2 0.62515994E+03</rscale>
<asrwt>0</asrwt>
<pdfrwt beam="1">  1        1 0.16089896E+00 0.62515994E+03</pdfrwt>
<pdfrwt beam="2">  1       -1 0.57736982E-01 0.62515994E+03</pdfrwt>
<totfact> 0.44047606E+01</totfact>
</mgrwt>
</event>
<event>
 4    1  0.2454657E-002  0.4971018E+03  0.7818608E-02  0.1014538E+00
         -1   -1    0    0    0  501 -0.00000000000E+00  0.00000000000E+00  0.68414733274E+03  0.68414733274E+03  0.00000000000E+00 0.  1.
          1   -1    0    0  502    0  0.00000000000E+00 -0.00000000000E+00 -0.45324305598E+03  0.45324305598E+03  0.00000000000E+00 0. -1.
    9000007    1    1    2  502    0 -0.16862423497E+03  0.24223147694E+03 -0.14083250360E+03  0.51666625118E+03  0.40000000000E+03 0. -1.
   -9000007    1    1    2    0  501  0.16862423497E+03 -0.24223147694E+03  0.37173678036E+03  0.62072413753E+03  0.40000000000E+03 0.  1.
<mgrwt>
<rscale>  2 0.49710182E+03</rscale>
<asrwt>0</asrwt>
<pdfrwt beam="1">  1        1 0.69729701E-01 0.49710182E+03</pdfrwt>
<pdfrwt beam="2">  1       -1 0.10525344E+00 0.49710182E+03</pdfrwt>
<totfact> 0.45039676E+01</totfact>
</mgrwt>
</event>
<event>
 4    1  0.2454657E-002  0.4807321E+03  0.7818608E-02  0.1018934E+00
          2   -1    0    0  502    0  0.00000000000E+00  0.00000000000E+00  0.19727681549E+04  0.19727681549E+04  0.00000000000E+00 0.  1.
         -2   -1    0    0    0  501 -0.00000000000E+00 -0.00000000000E+00 -0.38573703017E+03  0.38573703017E+03  0.00000000000E+00 0. -1.
    9000007    1    1    2  502    0  0.13482591159E+03  0.23005509279E+03 -0.19050986748E+03  0.51710480733E+03  0.40000000000E+03 0. -1.
   -9000007    1    1    2    0  501 -0.13482591159E+03 -0.23005509279E+03  0.17775409922E+04  0.18414003778E+04  0.40000000000E+03 0.  1.
<mgrwt>
<rscale>  2 0.48073212E+03</rscale>
<asrwt>0</asrwt>
<pdfrwt beam="1">  1        2 0.30350279E+00 0.48073212E+03</pdfrwt>
<pdfrwt beam="2">  1       -2 0.59344159E-01 0.48073212E+03</pdfrwt>
<totfact> 0.19860385E+01</totfact>
</mgrwt>
</event>
<event>
 4    1  0.2454657E-002  0.4351988E+03  0.7818608E-02  0.1032230E+00
          1   -1    0    0  502    0  0.00000000000E+00  0.00000000000E+00  0.28508101089E+04  0.28508101089E+04  0.00000000000E+00 0.  1.
         -1   -1    0    0    0  501 -0.00000000000E+00 -0.00000000000E+00 -0.66649173874E+02  0.66649173874E+02  0.00000000000E+00 0. -1.
    9000007    1    1    2  502    0 -0.81631125734E+02  0.15077905673E+03  0.14744737730E+04  0.15373584071E+04  0.40000000000E+03 0. -1.
   -9000007    1    1    2    0  501  0.81631125734E+02 -0.15077905673E+03  0.13096871620E+04  0.13801008757E+04  0.40000000000E+03 0. -1.
<mgrwt>
<rscale>  2 0.43519876E+03</rscale>
<asrwt>0</asrwt>
<pdfrwt beam="1">  1        1 0.43858608E+00 0.43519876E+03</pdfrwt>
<pdfrwt beam="2">  1       -1 0.10253721E-01 0.43519876E+03</pdfrwt>
<totfact> 0.51550755E+01</totfact>
</mgrwt>
</event>
<event>
 4    1  0.2454657E-002  0.4847593E+03  0.7818608E-02  0.1017835E+00
         -2   -1    0    0    0  501 -0.00000000000E+00  0.00000000000E+00  0.16854822542E+03  0.16854822542E+03  0.00000000000E+00 0.  1.
          2   -1    0    0  502    0  0.00000000000E+00 -0.00000000000E+00 -0.15322877376E+04  0.15322877376E+04  0.00000000000E+00 0. -1.
    9000007    1    1    2  502    0  0.22233990581E+03 -0.15986426601E+03 -0.42658543580E+03  0.64572962709E+03  0.40000000000E+03 0.  1.
   -9000007    1    1    2    0  501 -0.22233990581E+03  0.15986426601E+03 -0.93715407642E+03  0.10551063360E+04  0.40000000000E+03 0. -1.
<mgrwt>
<rscale>  2 0.48475934E+03</rscale>
<asrwt>0</asrwt>
<pdfrwt beam="1">  1        2 0.23573657E+00 0.48475934E+03</pdfrwt>
<pdfrwt beam="2">  1       -2 0.25930496E-01 0.48475934E+03</pdfrwt>
<totfact> 0.17028684E+02</totfact>
</mgrwt>
</event>
<event>
 4    1  0.2454657E-002  0.4386273E+03  0.7818608E-02  0.1031169E+00
         -2   -1    0    0    0  501 -0.00000000000E+00  0.00000000000E+00  0.25143090033E+03  0.25143090033E+03  0.00000000000E+00 0.  1.
          2   -1    0    0  502    0  0.00000000000E+00 -0.00000000000E+00 -0.76648907511E+03  0.76648907511E+03  0.00000000000E+00 0. -1.
    9000007    1    1    2  502    0 -0.14831638214E+03  0.10196145545E+03 -0.27843473561E+03  0.51953805405E+03  0.40000000000E+03 0. -1.
   -9000007    1    1    2    0  501  0.14831638214E+03 -0.10196145545E+03 -0.23662343917E+03  0.49838192139E+03  0.40000000000E+03 0.  1.
<mgrwt>
<rscale>  2 0.43862728E+03</rscale>
<asrwt>0</asrwt>
<pdfrwt beam="1">  1        2 0.11792140E+00 0.43862728E+03</pdfrwt>
<pdfrwt beam="2">  1       -2 0.38681677E-01 0.43862728E+03</pdfrwt>
<totfact> 0.23653157E+02</totfact>
</mgrwt>
</event>
<event>
 4    1  0.2454657E-002  0.5920921E+03  0.7818608E-02  0.9921950E-01
         -1   -1    0    0    0  501 -0.00000000000E+00  0.00000000000E+00  0.20955198671E+03  0.20955198671E+03  0.00000000000E+00 0.  1.
          1   -1    0    0  502    0  0.00000000000E+00 -0.00000000000E+00 -0.21823533618E+04  0.21823533618E+04  0.00000000000E+00 0. -1.
    9000007    1    1    2  502    0 -0.40656966759E+03  0.15897853383E+03 -0.15641987898E+04  0.16725103655E+04  0.40000000000E+03 0. -1.
   -9000007    1    1    2    0  501  0.40656966759E+03 -0.15897853383E+03 -0.40860258530E+03  0.71939498298E+03  0.40000000000E+03 0.  1.
<mgrwt>
<rscale>  2 0.59209211E+03</rscale>
<asrwt>0</asrwt>
<pdfrwt beam="1">  1        1 0.33574667E+00 0.59209211E+03</pdfrwt>
<pdfrwt beam="2">  1       -1 0.32238767E-01 0.59209211E+03</pdfrwt>
<totfact> 0.21521915E+01</totfact>
</mgrwt>
</event>
<event>
 4    1  0.2454657E-002  0.4619947E+03  0.7818608E-02  0.1024204E+00
          2   -1    0    0  502    0  0.00000000000E+00  0.00000000000E+00  0.77862024847E+03  0.77862024847E+03  0.00000000000E+00 0. -1.
         -2   -1    0    0    0  501 -0.00000000000E+00 -0.00000000000E+00 -0.41065862717E+03  0.41065862717E+03  0.00000000000E+00 0.  1.
    9000007    1    1    2  502    0 -0.22295390545E+03  0.61078923158E+02  0.52685393879E+03  0.70072401959E+03  0.40000000000E+03 0. -1.
   -9000007    1    1    2    0  501  0.22295390545E+03 -0.61078923158E+02 -0.15889231749E+03  0.48855485605E+03  0.40000000000E+03 0.  1.
<mgrwt>
<rscale>  2 0.46199467E+03</rscale>
<asrwt>0</asrwt>
<pdfrwt beam="1">  1        2 0.11978773E+00 0.46199467E+03</pdfrwt>
<pdfrwt beam="2">  1       -2 0.63178251E-01 0.46199467E+03</pdfrwt>
<totfact> 0.85994441E+01</totfact>
</mgrwt>
</event>
<event>
 4    1  0.2454657E-002  0.4413216E+03  0.7818608E-02  0.1030342E+00
         -2   -1    0    0    0  501 -0.00000000000E+00  0.00000000000E+00  0.84959144843E+02  0.84959144843E+02  0.00000000000E+00 0.  1.
          2   -1    0    0  502    0  0.00000000000E+00 -0.00000000000E+00 -0.29958289038E+04  0.29958289038E+04  0.00000000000E+00 0. -1.
    9000007    1    1    2  502    0 -0.12207118954E+03 -0.14093752412E+03 -0.22018275663E+04  0.22456200464E+04  0.40000000000E+03 0. -1.
   -9000007    1    1    2    0  501  0.12207118954E+03  0.14093752412E+03 -0.70904219265E+03  0.83516800225E+03  0.40000000000E+03 0.  1.
<mgrwt>
<rscale>  2 0.44132161E+03</rscale>
<asrwt>0</asrwt>
<pdfrwt beam="1">  1        2 0.46089673E+00 0.44132161E+03</pdfrwt>
<pdfrwt beam="2">  1       -2 0.13070638E-01 0.44132161E+03</pdfrwt>
<totfact> 0.86064591E+01</totfact>
</mgrwt>
</event>
<event>
 4    1  0.2454657E-002  0.4069631E+03  0.7818608E-02  0.1041395E+00
          2   -1    0    0  502    0  0.00000000000E+00  0.00000000000E+00  0.37541657483E+04  0.37541657483E+04  0.00000000000E+00 0. -1.
         -2   -1    0    0    0  501 -0.00000000000E+00 -0.00000000000E+00 -0.51124694716E+02  0.51124694716E+02  0.00000000000E+00 0.  1.
    9000007    1    1    2  502    0  0.56880691256E+00  0.74957528290E+02  0.11470553174E+04  0.12171092210E+04  0.40000000000E+03 0.  1.
   -9000007    1    1    2    0  501 -0.56880691256E+00 -0.74957528290E+02  0.25559857362E+04  0.25881812221E+04  0.40000000000E+03 0. -1.
<mgrwt>
<rscale>  2 0.40696309E+03</rscale>
<asrwt>0</asrwt>
<pdfrwt beam="1">  1        2 0.57756374E+00 0.40696309E+03</pdfrwt>
<pdfrwt beam="2">  1       -2 0.78653406E-02 0.40696309E+03</pdfrwt>
<totfact> 0.62895068E+01</totfact>
</mgrwt>
</event>
<event>
 4    1  0.2454657E-002  0.4717765E+03  0.7818608E-02  0.1021420E+00
         -1   -1    0    0    0  501 -0.00000000000E+00  0.00000000000E+00  0.14073583445E+03  0.14073583445E+03  0.00000000000E+00 0.  1.
          1   -1    0    0  502    0  0.00000000000E+00 -0.00000000000E+00 -0.15817713421E+04  0.15817713421E+04  0.00000000000E+00 0. -1.
    9000007    1    1    2  502    0 -0.16628823826E+02  0.24959281005E+03 -0.70914433821E+03  0.85173868118E+03  0.40000000000E+03 0.  1.
   -9000007    1    1    2    0  501  0.16628823826E+02 -0.24959281005E+03 -0.73189116942E+03  0.87076849534E+03  0.40000000000E+03 0.  1.
<mgrwt>
<rscale>  2 0.47177652E+03</rscale>
<asrwt>0</asrwt>
<pdfrwt beam="1">  1        1 0.24334944E+00 0.47177652E+03</pdfrwt>
<pdfrwt beam="2">  1       -1 0.21651666E-01 0.47177652E+03</pdfrwt>
<totfact> 0.10855140E+02</totfact>
</mgrwt>
</event>
<event>
 4    1  0.2454657E-002  0.4189884E+03  0.7818608E-02  0.1037396E+00
         -2   -1    0    0    0  501 -0.00000000000E+00  0.00000000000E+00  0.68392398054E+03  0.68392398054E+03  0.00000000000E+00 0. -1.
          2   -1    0    0  502    0  0.00000000000E+00 -0.00000000000E+00 -0.42380136760E+03  0.42380136760E+03  0.00000000000E+00 0.  1.
    9000007    1    1    2  502    0 -0.79267739999E+02  0.96270149344E+02  0.47786457977E+03  0.63553589423E+03  0.40000000000E+03 0. -1.
   -9000007    1    1    2    0  501  0.79267739999E+02 -0.96270149344E+02 -0.21774196683E+03  0.47218945390E+03  0.40000000000E+03 0.  1.
<mgrwt>
<rscale>  2 0.41898844E+03</rscale>
<asrwt>0</asrwt>
<pdfrwt beam="1">  1        2 0.65200210E-01 0.41898844E+03</pdfrwt>
<pdfrwt beam="2">  1       -2 0.10521907E+00 0.41898844E+03</pdfrwt>
<totfact> 0.56560159E+01</totfact>
</mgrwt>
</event>
<event>
 4    1  0.2454657E-002  0.4005851E+03  0.7818608E-02  0.1043577E+00
          1   -1    0    0  502    0  0.00000000000E+00  0.00000000000E+00  0.49416961472E+03  0.49416961472E+03  0.00000000000E+00 0. -1.
         -1   -1    0    0    0  501 -0.00000000000E+00 -0.00000000000E+00 -0.86247478262E+03  0.86247478262E+03  0.00000000000E+00 0.  1.
    9000007    1    1    2  502    0  0.84279352254E+01  0.19934363129E+02 -0.71976867811E+03  0.82373257730E+03  0.40000000000E+03 0.  1.
   -9000007    1    1    2    0  501 -0.84279352254E+01 -0.19934363129E+02  0.35146351021E+03  0.53291182004E+03  0.40000000000E+03 0. -1.
<mgrwt>
<rscale>  2 0.40058508E+03</rscale>
<asrwt>0</asrwt>
<pdfrwt beam="1">  1        1 0.76026095E-01 0.40058508E+03</pdfrwt>
<pdfrwt beam="2">  1       -1 0.13268843E+00 0.40058508E+03</pdfrwt>
<totfact> 0.23362714E+01</totfact>
</mgrwt>
</event>
<event>
 4    1  0.2454657E-002  0.4654855E+03  0.7818608E-02  0.1023202E+00
          2   -1    0    0  502    0  0.00000000000E+00  0.00000000000E+00  0.15586080526E+04  0.15586080526E+04  0.00000000000E+00 0.  1.
         -2   -1    0    0    0  501 -0.00000000000E+00 -0.00000000000E+00 -0.16276504556E+03  0.16276504556E+03  0.00000000000E+00 0. -1.
    9000007    1    1    2  502    0  0.19114391820E+03  0.14191819388E+03  0.10266643768E+04  0.11272606238E+04  0.40000000000E+03 0.  1.
   -9000007    1    1    2    0  501 -0.19114391820E+03 -0.14191819388E+03  0.36917863016E+03  0.59411247436E+03  0.40000000000E+03 0. -1.
<mgrwt>
<rscale>  2 0.46548552E+03</rscale>
<asrwt>0</asrwt>
<pdfrwt beam="1">  1        2 0.23978584E+00 0.46548552E+03</pdfrwt>
<pdfrwt beam="2">  1       -2 0.25040777E-01 0.46548552E+03</pdfrwt>
<totfact> 0.17583643E+02</totfact>
</mgrwt>
</event>
<event>
 4    1  0.2454657E-002  0.4121340E+03  0.7818608E-02  0.1039657E+00
         -2   -1    0    0    0  501 -0.00000000000E+00  0.00000000000E+00  0.13717834777E+03  0.13717834777E+03  0.00000000000E+00 0. -1.
          2   -1    0    0  502    0  0.00000000000E+00 -0.00000000000E+00 -0.12388001359E+04  0.12388001359E+04  0.00000000000E+00 0.  1.
    9000007    1    1    2  502    0  0.99229494254E+02  0.28156194596E+01 -0.56593619340E+03  0.70009870393E+03  0.40000000000E+03 0. -1.
   -9000007    1    1    2    0  501 -0.99229494254E+02 -0.28156194596E+01 -0.53568559471E+03  0.67587977971E+03  0.40000000000E+03 0.  1.
<mgrwt>
<rscale>  2 0.41213398E+03</rscale>
<asrwt>0</asrwt>
<pdfrwt beam="1">  1        2 0.19058463E+00 0.41213398E+03</pdfrwt>
<pdfrwt beam="2">  1       -2 0.21104361E-01 0.41213398E+03</pdfrwt>
<totfact> 0.36035159E+02</totfact>
</mgrwt>
</event>
<event>
 4    1  0.2454657E-002  0.4321379E+03  0.7818608E-02  0.1033187E+00
         -1   -1    0    0    0  501 -0.00000000000E+00  0.00000000000E+00  0.18381453268E+03  0.18381453268E+03  0.00000000000E+00 0. -1.
          1   -1    0    0  502    0  0.00000000000E+00 -0.00000000000E+00 -0.10797967079E+04  0.10797967079E+04  0.00000000000E+00 0.  1.
    9000007    1    1    2  502    0  0.13302925349E+03 -0.95112564936E+02 -0.29433817540E+03  0.52285575811E+03  0.40000000000E+03 0. -1.
   -9000007    1    1    2    0  501 -0.13302925349E+03  0.95112564936E+02 -0.60164399987E+03  0.74075548252E+03  0.40000000000E+03 0.  1.
<mgrwt>
<rscale>  2 0.43213792E+03</rscale>
<asrwt>0</asrwt>
<pdfrwt beam="1">  1        1 0.16612257E+00 0.43213792E+03</pdfrwt>
<pdfrwt beam="2">  1       -1 0.28279159E-01 0.43213792E+03</pdfrwt>
<totfact> 0.15554372E+02</totfact>
</mgrwt>
</event>
<event>
 4    1  0.2454657E-002  0.4018890E+03  0.7818608E-02  0.1043128E+00
         -2   -1    0    0    0  501 -0.00000000000E+00  0.00000000000E+00  0.60509645451E+03  0.60509645451E+03  0.00000000000E+00 0.  1.
          2   -1    0    0  502    0  0.00000000000E+00 -0.00000000000E+00 -0.33487157107E+03  0.33487157107E+03  0.00000000000E+00 0. -1.
    9000007    1    1    2  502    0 -0.23709579062E+02 -0.30864403518E+02  0.34681737036E+03  0.53084559330E+03  0.40000000000E+03 0.  1.
   -9000007    1    1    2    0  501  0.23709579062E+02  0.30864403518E+02 -0.76592486917E+02  0.40912243228E+03  0.40000000000E+03 0. -1.
<mgrwt>
<rscale>  2 0.40188898E+03</rscale>
<asrwt>0</asrwt>
<pdfrwt beam="1">  1        2 0.51518703E-01 0.40188898E+03</pdfrwt>
<pdfrwt beam="2">  1       -2 0.93091762E-01 0.40188898E+03</pdfrwt>
<totfact> 0.97875420E+01</totfact>
</mgrwt>
</event>
<event>
 4    1  0.2454657E-002  0.4175768E+03  0.7818608E-02  0.1037858E+00
          1   -1    0    0  502    0  0.00000000000E+00  0.00000000000E+00  0.59073240187E+03  0.59073240187E+03  0.00000000000E+00 0.  1.
         -1   -1    0    0    0  501 -0.00000000000E+00 -0.00000000000E+00 -0.32749912855E+03  0.32749912855E+03  0.00000000000E+00 0. -1.
    9000007    1    1    2  502    0 -0.74165872359E+02 -0.94179591239E+02 -0.12618113828E+02  0.41776738602E+03  0.40000000000E+03 0. -1.
   -9000007    1    1    2    0  501  0.74165872359E+02  0.94179591239E+02  0.27585138715E+03  0.50046414439E+03  0.40000000000E+03 0.  1.
<mgrwt>
<rscale>  2 0.41757679E+03</rscale>
<asrwt>0</asrwt>
<pdfrwt beam="1">  1        1 0.90881908E-01 0.41757679E+03</pdfrwt>
<pdfrwt beam="2">  1       -1 0.50384481E-01 0.41757679E+03</pdfrwt>
<totfact> 0.14451123E+02</totfact>
</mgrwt>
</event>
<event>
 4    1  0.2454657E-002  0.1155878E+04  0.7818608E-02  0.9152378E-01
          2   -1    0    0  502    0  0.00000000000E+00  0.00000000000E+00  0.24740120449E+04  0.24740120449E+04  0.00000000000E+00 0.  1.
         -2   -1    0    0    0  501 -0.00000000000E+00 -0.00000000000E+00 -0.54112263644E+03  0.54112263644E+03  0.00000000000E+00 0. -1.
    9000007    1    1    2  502    0 -0.76713756293E+03 -0.76652019758E+03  0.89885852347E+03  0.14642403829E+04  0.40000000000E+03 0. -1.
   -9000007    1    1    2    0  501  0.76713756293E+03  0.76652019758E+03  0.10340308850E+04  0.15508942984E+04  0.40000000000E+03 0.  1.
<mgrwt>
<rscale>  2 0.11558777E+04</rscale>
<asrwt>0</asrwt>
<pdfrwt beam="1">  1        2 0.38061723E+00 0.11558777E+04</pdfrwt>
<pdfrwt beam="2">  1       -2 0.83249638E-01 0.11558777E+04</pdfrwt>
<totfact> 0.45090090E+00</totfact>
</mgrwt>
</event>
<event>
 4    1  0.2454657E-002  0.4808831E+03  0.7818608E-02  0.1018893E+00
         -2   -1    0    0    0  501 -0.00000000000E+00  0.00000000000E+00  0.21244058256E+03  0.21244058256E+03  0.00000000000E+00 0. -1.
          2   -1    0    0  502    0  0.00000000000E+00 -0.00000000000E+00 -0.13633472817E+04  0.13633472817E+04  0.00000000000E+00 0.  1.
    9000007    1    1    2  502    0  0.54788032736E+02 -0.26124095053E+03 -0.92919340393E+03  0.10462547227E+04  0.40000000000E+03 0.  1.
   -9000007    1    1    2    0  501 -0.54788032736E+02  0.26124095053E+03 -0.22171329517E+03  0.52953314157E+03  0.40000000000E+03 0. -1.
<mgrwt>
<rscale>  2 0.48088311E+03</rscale>
<asrwt>0</asrwt>
<pdfrwt beam="1">  1        2 0.20974573E+00 0.48088311E+03</pdfrwt>
<pdfrwt beam="2">  1       -2 0.32683168E-01 0.48088311E+03</pdfrwt>
<totfact> 0.13816969E+02</totfact>
</mgrwt>
</event>
<event>
 4    1  0.2454657E-002  0.4036796E+03  0.7818608E-02  0.1042513E+00
          2   -1    0    0  502    0  0.00000000000E+00  0.00000000000E+00  0.44766319016E+03  0.44766319016E+03  0.00000000000E+00 0. -1.
         -2   -1    0    0    0  501 -0.00000000000E+00 -0.00000000000E+00 -0.40780769668E+03  0.40780769668E+03  0.00000000000E+00 0.  1.
    9000007    1    1    2  502    0 -0.45018526735E+01  0.54193505555E+02  0.16009170020E+03  0.43426553535E+03  0.40000000000E+03 0. -1.
   -9000007    1    1    2    0  501  0.45018526735E+01 -0.54193505555E+02 -0.12023620672E+03  0.42120535150E+03  0.40000000000E+03 0.  1.
<mgrwt>
<rscale>  2 0.40367958E+03</rscale>
<asrwt>0</asrwt>
<pdfrwt beam="1">  1        2 0.68871260E-01 0.40367958E+03</pdfrwt>
<pdfrwt beam="2">  1       -2 0.62739646E-01 0.40367958E+03</pdfrwt>
<totfact> 0.16949798E+02</totfact>
</mgrwt>
</event>
<event>
 4    1  0.2454657E-002  0.4098250E+03  0.7818608E-02  0.1040430E+00
         -1   -1    0    0    0  501 -0.00000000000E+00  0.00000000000E+00  0.72731249197E+02  0.72731249197E+02  0.00000000000E+00 0. -1.
          1   -1    0    0  502    0  0.00000000000E+00 -0.00000000000E+00 -0.25248617712E+04  0.25248617712E+04  0.00000000000E+00 0.  1.
    9000007    1    1    2  502    0 -0.85577505057E+02 -0.25160197900E+02 -0.16055830394E+04  0.16570616891E+04  0.40000000000E+03 0.  1.
   -9000007    1    1    2    0  501  0.85577505057E+02  0.25160197900E+02 -0.84654748258E+03  0.94053133132E+03  0.40000000000E+03 0. -1.
<mgrwt>
<rscale>  2 0.40982502E+03</rscale>
<asrwt>0</asrwt>
<pdfrwt beam="1">  1        1 0.38844026E+00 0.40982502E+03</pdfrwt>
<pdfrwt beam="2">  1       -1 0.11189423E-01 0.40982502E+03</pdfrwt>
<totfact> 0.75507953E+01</totfact>
</mgrwt>
</event>
<event>
 4    1  0.2454657E-002  0.4123341E+03  0.7818608E-02  0.1039591E+00
          2   -1    0    0  502    0  0.00000000000E+00  0.00000000000E+00  0.17495662007E+04  0.17495662007E+04  0.00000000000E+00 0. -1.
         -2   -1    0    0    0  501 -0.00000000000E+00 -0.00000000000E+00 -0.10255409005E+03  0.10255409005E+03  0.00000000000E+00 0.  1.
    9000007    1    1    2  502    0  0.86814172450E+02 -0.49826769930E+02  0.10355346854E+04  0.11146082236E+04  0.40000000000E+03 0. -1.
   -9000007    1    1    2    0  501 -0.86814172450E+02  0.49826769930E+02  0.61147742524E+03  0.73751206710E+03  0.40000000000E+03 0. -1.
<mgrwt>
<rscale>  2 0.41233410E+03</rscale>
<asrwt>0</asrwt>
<pdfrwt beam="1">  1        2 0.26916401E+00 0.41233410E+03</pdfrwt>
<pdfrwt beam="2">  1       -2 0.15777554E-01 0.41233410E+03</pdfrwt>
<totfact> 0.31110838E+02</totfact>
</mgrwt>
</event>
<event>
 4    1  0.2454657E-002  0.6256868E+03  0.7818608E-02  0.9853502E-01
         -1   -1    0    0    0  501 -0.00000000000E+00  0.00000000000E+00  0.35778629680E+03  0.35778629680E+03  0.00000000000E+00 0. -1.
          1   -1    0    0  502    0  0.00000000000E+00 -0.00000000000E+00 -0.13409604793E+04  0.13409604793E+04  0.00000000000E+00 0.  1.
    9000007    1    1    2  502    0 -0.35470281542E+03  0.32506906549E+03 -0.12721703289E+03  0.63848896472E+03  0.40000000000E+03 0.  1.
   -9000007    1    1    2    0  501  0.35470281542E+03 -0.32506906549E+03 -0.85595714957E+03  0.10602578113E+04  0.40000000000E+03 0.  1.
<mgrwt>
<rscale>  2 0.62568681E+03</rscale>
<asrwt>0</asrwt>
<pdfrwt beam="1">  1        1 0.20630161E+00 0.62568681E+03</pdfrwt>
<pdfrwt beam="2">  1       -1 0.55044046E-01 0.62568681E+03</pdfrwt>
<totfact> 0.29549100E+01</totfact>
</mgrwt>
</event>
<event>
 4    1  0.2454657E-002  0.4211933E+03  0.7818608E-02  0.1036679E+00
         -2   -1    0    0    0  501 -0.00000000000E+00  0.00000000000E+00  0.30603161424E+03  0.30603161424E+03  0.00000000000E+00 0.  1.
          2   -1    0    0  502    0  0.00000000000E+00 -0.00000000000E+00 -0.66645681657E+03  0.66645681657E+03  0.00000000000E+00 0. -1.
    9000007    1    1    2  502    0  0.11432663040E+03 -0.65827154598E+02 -0.35565825106E+03  0.55126816002E+03  0.40000000000E+03 0.  1.
   -9000007    1    1    2    0  501 -0.11432663040E+03  0.65827154598E+02 -0.47669512621E+01  0.42122027079E+03  0.40000000000E+03 0.  1.
<mgrwt>
<rscale>  2 0.42119330E+03</rscale>
<asrwt>0</asrwt>
<pdfrwt beam="1">  1        2 0.10253182E+00 0.42119330E+03</pdfrwt>
<pdfrwt beam="2">  1       -2 0.47081788E-01 0.42119330E+03</pdfrwt>
<totfact> 0.19201027E+02</totfact>
</mgrwt>
</event>
<event>
 4    1  0.2454657E-002  0.5253954E+03  0.7818608E-02  0.1007355E+00
         -2   -1    0    0    0  501 -0.00000000000E+00  0.00000000000E+00  0.12581384932E+03  0.12581384932E+03  0.00000000000E+00 0. -1.
          2   -1    0    0  502    0  0.00000000000E+00 -0.00000000000E+00 -0.22996945025E+04  0.22996945025E+04  0.00000000000E+00 0.  1.
    9000007    1    1    2  502    0 -0.14994992061E+03  0.30586813252E+03 -0.13468886467E+04  0.14457348719E+04  0.40000000000E+03 0. -1.
   -9000007    1    1    2    0  501  0.14994992061E+03 -0.30586813252E+03 -0.82699200645E+03  0.97977347990E+03  0.40000000000E+03 0.  1.
<mgrwt>
<rscale>  2 0.52539537E+03</rscale>
<asrwt>0</asrwt>
<pdfrwt beam="1">  1        2 0.35379913E+00 0.52539537E+03</pdfrwt>
<pdfrwt beam="2">  1       -2 0.19355978E-01 0.52539537E+03</pdfrwt>
<totfact> 0.10906032E+02</totfact>
</mgrwt>
</event>
<event>
 4    1  0.2454657E-002  0.4360751E+03  0.7818608E-02  0.1031958E+00
         -1   -1    0    0    0  501 -0.00000000000E+00  0.00000000000E+00  0.38927904737E+03  0.38927904737E+03  0.00000000000E+00 0. -1.
          1   -1    0    0  502    0  0.00000000000E+00 -0.00000000000E+00 -0.54222165017E+03  0.54222165017E+03  0.00000000000E+00 0.  1.
    9000007    1    1    2  502    0  0.14964606032E+03  0.88133687630E+02 -0.22307778764E+03  0.48982158957E+03  0.40000000000E+03 0.  1.
   -9000007    1    1    2    0  501 -0.14964606032E+03 -0.88133687630E+02  0.70135184843E+02  0.44167910797E+03  0.40000000000E+03 0. -1.
<mgrwt>
<rscale>  2 0.43607510E+03</rscale>
<asrwt>0</asrwt>
<pdfrwt beam="1">  1        1 0.83418715E-01 0.43607510E+03</pdfrwt>
<pdfrwt beam="2">  1       -1 0.59889084E-01 0.43607510E+03</pdfrwt>
<totfact> 0.11680774E+02</totfact>
</mgrwt>
</event>
<event>
 4    1  0.2454657E-002  0.4492393E+03  0.7818608E-02  0.1027949E+00
         -4   -1    0    0    0  501 -0.00000000000E+00  0.00000000000E+00  0.87686612990E+03  0.87686612990E+03  0.00000000000E+00 0. -1.
          4   -1    0    0  502    0  0.00000000000E+00 -0.00000000000E+00 -0.23267053697E+03  0.23267053697E+03  0.00000000000E+00 0.  1.
    9000007    1    1    2  502    0  0.62256630507E+02  0.19478207919E+03  0.37977116987E+03  0.58825342148E+03  0.40000000000E+03 0. -1.
   -9000007    1    1    2    0  501 -0.62256630507E+02 -0.19478207919E+03  0.26442442306E+03  0.52128324539E+03  0.40000000000E+03 0.  1.
<mgrwt>
<rscale>  2 0.44923930E+03</rscale>
<asrwt>0</asrwt>
<pdfrwt beam="1">  1        4 0.35795468E-01 0.44923930E+03</pdfrwt>
<pdfrwt beam="2">  1       -4 0.13490248E+00 0.44923930E+03</pdfrwt>
<totfact> 0.58334014E+00</totfact>
</mgrwt>
</event>
<event>
 4    1  0.2454657E-002  0.4518932E+03  0.7818608E-02  0.1027159E+00
         -2   -1    0    0    0  501 -0.00000000000E+00  0.00000000000E+00  0.26006417907E+03  0.26006417907E+03  0.00000000000E+00 0.  1.
          2   -1    0    0  502    0  0.00000000000E+00 -0.00000000000E+00 -0.13526717562E+04  0.13526717562E+04  0.00000000000E+00 0. -1.
    9000007    1    1    2  502    0  0.85613845629E+02 -0.19203572988E+03 -0.10685817958E+04  0.11602045106E+04  0.40000000000E+03 0. -1.
   -9000007    1    1    2    0  501 -0.85613845629E+02  0.19203572988E+03 -0.24025781310E+02  0.45253142464E+03  0.40000000000E+03 0.  1.
<mgrwt>
<rscale>  2 0.45189319E+03</rscale>
<asrwt>0</asrwt>
<pdfrwt beam="1">  1        2 0.20810334E+00 0.45189319E+03</pdfrwt>
<pdfrwt beam="2">  1       -2 0.40009874E-01 0.45189319E+03</pdfrwt>
<totfact> 0.95741844E+01</totfact>
</mgrwt>
</event>
<event>
 4    1  0.2454657E-002  0.4101245E+03  0.7818608E-02  0.1040329E+00
          2   -1    0    0  502    0  0.00000000000E+00  0.00000000000E+00  0.40851382764E+03  0.40851382764E+03  0.00000000000E+00 0.  1.
         -2   -1    0    0    0  501 -0.00000000000E+00 -0.00000000000E+00 -0.41274892215E+03  0.41274892215E+03  0.00000000000E+00 0. -1.
    9000007    1    1    2  502    0 -0.80575581446E+02 -0.41348773446E+02 -0.22403197256E+02  0.41073598410E+03  0.40000000000E+03 0. -1.
   -9000007    1    1    2    0  501  0.80575581446E+02  0.41348773446E+02  0.18168102742E+02  0.41052676569E+03  0.40000000000E+03 0.  1.
<mgrwt>
<rscale>  2 0.41012455E+03</rscale>
<asrwt>0</asrwt>
<pdfrwt beam="1">  1        2 0.62848281E-01 0.41012455E+03</pdfrwt>
<pdfrwt beam="2">  1       -2 0.63499834E-01 0.41012455E+03</pdfrwt>
<totfact> 0.18291413E+02</totfact>
</mgrwt>
</event>
<event>
 4    1  0.2454657E-002  0.4253016E+03  0.7818608E-02  0.1035355E+00
          1   -1    0    0  502    0  0.00000000000E+00  0.00000000000E+00  0.39897192529E+03  0.39897192529E+03  0.00000000000E+00 0.  1.
         -1   -1    0    0    0  501 -0.00000000000E+00 -0.00000000000E+00 -0.53471505058E+03  0.53471505058E+03  0.00000000000E+00 0. -1.
    9000007    1    1    2  502    0  0.85831993064E+01 -0.14424895428E+03 -0.24995850788E+03  0.49331601209E+03  0.40000000000E+03 0.  1.
   -9000007    1    1    2    0  501 -0.85831993064E+01  0.14424895428E+03  0.11421538259E+03  0.44037096378E+03  0.40000000000E+03 0.  1.
<mgrwt>
<rscale>  2 0.42530158E+03</rscale>
<asrwt>0</asrwt>
<pdfrwt beam="1">  1        1 0.61380297E-01 0.42530158E+03</pdfrwt>
<pdfrwt beam="2">  1       -1 0.82263853E-01 0.42530158E+03</pdfrwt>
<totfact> 0.92597459E+01</totfact>
</mgrwt>
</event>
<event>
 4    1  0.2454657E-002  0.7072861E+03  0.7818608E-02  0.9704852E-01
         -2   -1    0    0    0  501 -0.00000000000E+00  0.00000000000E+00  0.25367604507E+03  0.25367604507E+03  0.00000000000E+00 0.  1.
          2   -1    0    0  502    0  0.00000000000E+00 -0.00000000000E+00 -0.23216640157E+04  0.23216640157E+04  0.00000000000E+00 0. -1.
    9000007    1    1    2  502    0 -0.29485996155E+03 -0.50330034397E+03 -0.15337055778E+04  0.16889364797E+04  0.40000000000E+03 0. -1.
   -9000007    1    1    2    0  501  0.29485996155E+03  0.50330034397E+03 -0.53428239279E+03  0.88640358100E+03  0.40000000000E+03 0.  1.
<mgrwt>
<rscale>  2 0.70728610E+03</rscale>
<asrwt>0</asrwt>
<pdfrwt beam="1">  1        2 0.35717908E+00 0.70728610E+03</pdfrwt>
<pdfrwt beam="2">  1       -2 0.39027084E-01 0.70728610E+03</pdfrwt>
<totfact> 0.28609439E+01</totfact>
</mgrwt>
</event>
<event>
 4    1  0.2454657E-002  0.4867793E+03  0.7818608E-02  0.1017288E+00
          3   -1    0    0  502    0  0.00000000000E+00  0.00000000000E+00  0.18253176929E+04  0.18253176929E+04  0.00000000000E+00 0. -1.
         -3   -1    0    0    0  501 -0.00000000000E+00 -0.00000000000E+00 -0.14293362077E+03  0.14293362077E+03  0.00000000000E+00 0.  1.
    9000007    1    1    2  502    0  0.38689717753E+02  0.27469478864E+03  0.11393338348E+04  0.12389655799E+04  0.40000000000E+03 0. -1.
   -9000007    1    1    2    0  501 -0.38689717753E+02 -0.27469478864E+03  0.54305023739E+03  0.72928573378E+03  0.40000000000E+03 0.  1.
<mgrwt>
<rscale>  2 0.48677934E+03</rscale>
<asrwt>0</asrwt>
<pdfrwt beam="1">  1        3 0.28081809E+00 0.48677934E+03</pdfrwt>
<pdfrwt beam="2">  1       -3 0.21989789E-01 0.48677934E+03</pdfrwt>
<totfact> 0.25915831E+00</totfact>
</mgrwt>
</event>
<event>
 4    1  0.2454657E-002  0.4321449E+03  0.7818608E-02  0.1033185E+00
         -2   -1    0    0    0  501 -0.00000000000E+00  0.00000000000E+00  0.15019388504E+03  0.15019388504E+03  0.00000000000E+00 0. -1.
          2   -1    0    0  502    0  0.00000000000E+00 -0.00000000000E+00 -0.13480559702E+04  0.13480559702E+04  0.00000000000E+00 0.  1.
    9000007    1    1    2  502    0 -0.16115134496E+03  0.27918158522E+02 -0.39018968824E+03  0.58223463687E+03  0.40000000000E+03 0. -1.
   -9000007    1    1    2    0  501  0.16115134496E+03 -0.27918158522E+02 -0.80767239693E+03  0.91601521839E+03  0.40000000000E+03 0.  1.
<mgrwt>
<rscale>  2 0.43214486E+03</rscale>
<asrwt>0</asrwt>
<pdfrwt beam="1">  1        2 0.20739322E+00 0.43214486E+03</pdfrwt>
<pdfrwt beam="2">  1       -2 0.23106752E-01 0.43214486E+03</pdfrwt>
<totfact> 0.26601183E+02</totfact>
</mgrwt>
</event>
<event>
 4    1  0.2454657E-002  0.4261390E+03  0.7818608E-02  0.1035087E+00
          2   -1    0    0  502    0  0.00000000000E+00  0.00000000000E+00  0.44122022678E+03  0.44122022678E+03  0.00000000000E+00 0.  1.
         -2   -1    0    0    0  501 -0.00000000000E+00 -0.00000000000E+00 -0.45640746358E+03  0.45640746358E+03  0.00000000000E+00 0. -1.
    9000007    1    1    2  502    0 -0.93842328117E+02  0.11308421755E+03  0.13307423930E+03  0.44643384277E+03  0.40000000000E+03 0.  1.
   -9000007    1    1    2    0  501  0.93842328117E+02 -0.11308421755E+03 -0.14826147610E+03  0.45119384759E+03  0.40000000000E+03 0. -1.
<mgrwt>
<rscale>  2 0.42613897E+03</rscale>
<asrwt>0</asrwt>
<pdfrwt beam="1">  1        2 0.67880034E-01 0.42613897E+03</pdfrwt>
<pdfrwt beam="2">  1       -2 0.70216533E-01 0.42613897E+03</pdfrwt>
<totfact> 0.13518581E+02</totfact>
</mgrwt>
</event>
<event>
 4    1  0.2454657E-002  0.4760151E+03  0.7818608E-02  0.1020236E+00
          3   -1    0    0  502    0  0.00000000000E+00  0.00000000000E+00  0.72497672622E+03  0.72497672622E+03  0.00000000000E+00 0. -1.
         -3   -1    0    0    0  501 -0.00000000000E+00 -0.00000000000E+00 -0.31274998164E+03  0.31274998164E+03  0.00000000000E+00 0.  1.
    9000007    1    1    2  502    0  0.17456124959E+03  0.19004936379E+03  0.19294388718E+03  0.51363190529E+03  0.40000000000E+03 0. -1.
   -9000007    1    1    2    0  501 -0.17456124959E+03 -0.19004936379E+03  0.21928285740E+03  0.52409480257E+03  0.40000000000E+03 0.  1.
<mgrwt>
<rscale>  2 0.47601512E+03</rscale>
<asrwt>0</asrwt>
<pdfrwt beam="1">  1        3 0.11153488E+00 0.47601512E+03</pdfrwt>
<pdfrwt beam="2">  1       -3 0.48115382E-01 0.47601512E+03</pdfrwt>
<totfact> 0.75745525E+00</totfact>
</mgrwt>
</event>
<event>
 4    1  0.2454657E-002  0.4715638E+03  0.7818608E-02  0.1021480E+00
         -2   -1    0    0    0  501 -0.00000000000E+00  0.00000000000E+00  0.15926628264E+03  0.15926628264E+03  0.00000000000E+00 0.  1.
          2   -1    0    0  502    0  0.00000000000E+00 -0.00000000000E+00 -0.17150536548E+04  0.17150536548E+04  0.00000000000E+00 0. -1.
    9000007    1    1    2  502    0 -0.24808467858E+03 -0.28747957567E+02 -0.37383006419E+03  0.60176521144E+03  0.40000000000E+03 0.  1.
   -9000007    1    1    2    0  501  0.24808467858E+03  0.28747957567E+02 -0.11819573079E+04  0.12725547260E+04  0.40000000000E+03 0. -1.
<mgrwt>
<rscale>  2 0.47156384E+03</rscale>
<asrwt>0</asrwt>
<pdfrwt beam="1">  1        2 0.26385442E+00 0.47156384E+03</pdfrwt>
<pdfrwt beam="2">  1       -2 0.24502504E-01 0.47156384E+03</pdfrwt>
<totfact> 0.15032386E+02</totfact>
</mgrwt>
</event>
<event>
 4    1  0.2454657E-002  0.4173901E+03  0.7818608E-02  0.1037919E+00
          2   -1    0    0  502    0  0.00000000000E+00  0.00000000000E+00  0.19357590322E+04  0.19357590322E+04  0.00000000000E+00 0.  1.
         -2   -1    0    0    0  501 -0.00000000000E+00 -0.00000000000E+00 -0.10650238522E+03  0.10650238522E+03  0.00000000000E+00 0. -1.
    9000007    1    1    2  502    0 -0.11522119578E+03 -0.30635919874E+02  0.13166051888E+04  0.13811819962E+04  0.40000000000E+03 0.  1.
   -9000007    1    1    2    0  501  0.11522119578E+03  0.30635919874E+02  0.51265145822E+03  0.66107942122E+03  0.40000000000E+03 0. -1.
<mgrwt>
<rscale>  2 0.41739009E+03</rscale>
<asrwt>0</asrwt>
<pdfrwt beam="1">  1        2 0.29780906E+00 0.41739009E+03</pdfrwt>
<pdfrwt beam="2">  1       -2 0.16384984E-01 0.41739009E+03</pdfrwt>
<totfact> 0.23200405E+02</totfact>
</mgrwt>
</event>
<event>
 4    1  0.2454657E-002  0.5701452E+03  0.7818608E-02  0.9969357E-01
          2   -1    0    0  502    0  0.00000000000E+00  0.00000000000E+00  0.11813784408E+04  0.11813784408E+04  0.00000000000E+00 0.  1.
         -2   -1    0    0    0  501 -0.00000000000E+00 -0.00000000000E+00 -0.28044796786E+03  0.28044796786E+03  0.00000000000E+00 0. -1.
    9000007    1    1    2  502    0  0.35100320926E+03  0.20460283094E+03  0.55085089091E+03  0.79278135407E+03  0.40000000000E+03 0.  1.
   -9000007    1    1    2    0  501 -0.35100320926E+03 -0.20460283094E+03  0.35007958208E+03  0.66904505463E+03  0.40000000000E+03 0. -1.
<mgrwt>
<rscale>  2 0.57014522E+03</rscale>
<asrwt>0</asrwt>
<pdfrwt beam="1">  1        2 0.18175053E+00 0.57014522E+03</pdfrwt>
<pdfrwt beam="2">  1       -2 0.43145842E-01 0.57014522E+03</pdfrwt>
<totfact> 0.10212252E+02</totfact>
</mgrwt>
</event>
<event>
 4    1  0.2454657E-002  0.4285968E+03  0.7818608E-02  0.1034304E+00
          2   -1    0    0  502    0  0.00000000000E+00  0.00000000000E+00  0.69626289109E+03  0.69626289109E+03  0.00000000000E+00 0. -1.
         -2   -1    0    0    0  501 -0.00000000000E+00 -0.00000000000E+00 -0.26808550111E+03  0.26808550111E+03  0.00000000000E+00 0.  1.
    9000007    1    1    2  502    0  0.11789701638E+03 -0.98972405059E+02  0.15334130265E+03  0.45520193160E+03  0.40000000000E+03 0. -1.
   -9000007    1    1    2    0  501 -0.11789701638E+03  0.98972405059E+02  0.27483608733E+03  0.50914646059E+03  0.40000000000E+03 0. -1.
<mgrwt>
<rscale>  2 0.42859683E+03</rscale>
<asrwt>0</asrwt>
<pdfrwt beam="1">  1        2 0.10711737E+00 0.42859683E+03</pdfrwt>
<pdfrwt beam="2">  1       -2 0.41243923E-01 0.42859683E+03</pdfrwt>
<totfact> 0.23598871E+02</totfact>
</mgrwt>
</event>
<event>
 4    1  0.2454657E-002  0.4433455E+03  0.7818608E-02  0.1029725E+00
          1   -1    0    0  502    0  0.00000000000E+00  0.00000000000E+00  0.32741679644E+03  0.32741679644E+03  0.00000000000E+00 0. -1.
         -1   -1    0    0    0  501 -0.00000000000E+00 -0.00000000000E+00 -0.79838103166E+03  0.79838103166E+03  0.00000000000E+00 0.  1.
    9000007    1    1    2  502    0  0.95606079443E+02 -0.16557392617E+03 -0.51584692448E+03  0.68018622226E+03  0.40000000000E+03 0.  1.
   -9000007    1    1    2    0  501 -0.95606079443E+02  0.16557392617E+03  0.44882689264E+02  0.44561160583E+03  0.40000000000E+03 0. -1.
<mgrwt>
<rscale>  2 0.44334552E+03</rscale>
<asrwt>0</asrwt>
<pdfrwt beam="1">  1        1 0.50371815E-01 0.44334552E+03</pdfrwt>
<pdfrwt beam="2">  1       -1 0.12282785E+00 0.44334552E+03</pdfrwt>
<totfact> 0.48148737E+01</totfact>
</mgrwt>
</event>
<event>
 4    1  0.2454657E-002  0.4915877E+03  0.7818608E-02  0.1015998E+00
         -4   -1    0    0    0  501 -0.00000000000E+00  0.00000000000E+00  0.86000154612E+03  0.86000154612E+03  0.00000000000E+00 0.  1.
          4   -1    0    0  502    0  0.00000000000E+00 -0.00000000000E+00 -0.28875855137E+03  0.28875855137E+03  0.00000000000E+00 0. -1.
    9000007    1    1    2  502    0 -0.40264840174E+02  0.28290855629E+03  0.37978549903E+03  0.62120490488E+03  0.40000000000E+03 0.  1.
   -9000007    1    1    2    0  501  0.40264840174E+02 -0.28290855629E+03  0.19145749573E+03  0.52755519261E+03  0.40000000000E+03 0. -1.
<mgrwt>
<rscale>  2 0.49158774E+03</rscale>
<asrwt>0</asrwt>
<pdfrwt beam="1">  1        4 0.44424393E-01 0.49158774E+03</pdfrwt>
<pdfrwt beam="2">  1       -4 0.13230793E+00 0.49158774E+03</pdfrwt>
<totfact> 0.39807378E+00</totfact>
</mgrwt>
</event>
<event>
 4    1  0.2454657E-002  0.4376329E+03  0.7818608E-02  0.1031476E+00
         -2   -1    0    0    0  501 -0.00000000000E+00  0.00000000000E+00  0.87107708254E+03  0.87107708254E+03  0.00000000000E+00 0.  1.
          2   -1    0    0  502    0  0.00000000000E+00 -0.00000000000E+00 -0.33034723266E+03  0.33034723266E+03  0.00000000000E+00 0. -1.
    9000007    1    1    2  502    0  0.88921640845E+02  0.15367340162E+03 -0.77027275430E+02  0.44435995964E+03  0.40000000000E+03 0. -1.
   -9000007    1    1    2    0  501 -0.88921640845E+02 -0.15367340162E+03  0.61775712531E+03  0.75706435555E+03  0.40000000000E+03 0.  1.
<mgrwt>
<rscale>  2 0.43763292E+03</rscale>
<asrwt>0</asrwt>
<pdfrwt beam="1">  1        2 0.50822651E-01 0.43763292E+03</pdfrwt>
<pdfrwt beam="2">  1       -2 0.13401186E+00 0.43763292E+03</pdfrwt>
<totfact> 0.41119282E+01</totfact>
</mgrwt>
</event>
<event>
 4    1  0.2454657E-002  0.4429930E+03  0.7818608E-02  0.1029832E+00
          2   -1    0    0  502    0  0.00000000000E+00  0.00000000000E+00  0.22164471124E+04  0.22164471124E+04  0.00000000000E+00 0. -1.
         -2   -1    0    0    0  501 -0.00000000000E+00 -0.00000000000E+00 -0.91001026618E+02  0.91001026618E+02  0.00000000000E+00 0.  1.
    9000007    1    1    2  502    0  0.13443809982E+03 -0.13479300585E+03  0.12524790281E+04  0.13285128802E+04  0.40000000000E+03 0.  1.
   -9000007    1    1    2    0  501 -0.13443809982E+03  0.13479300585E+03  0.87296705772E+03  0.97893525883E+03  0.40000000000E+03 0.  1.
<mgrwt>
<rscale>  2 0.44299295E+03</rscale>
<asrwt>0</asrwt>
<pdfrwt beam="1">  1        2 0.34099182E+00 0.44299295E+03</pdfrwt>
<pdfrwt beam="2">  1       -2 0.14000160E-01 0.44299295E+03</pdfrwt>
<totfact> 0.21253332E+02</totfact>
</mgrwt>
</event>
<event>
 4    1  0.2454657E-002  0.5285438E+03  0.7818608E-02  0.1006586E+00
         -2   -1    0    0    0  501 -0.00000000000E+00  0.00000000000E+00  0.44367193048E+03  0.44367193048E+03  0.00000000000E+00 0. -1.
          2   -1    0    0  502    0  0.00000000000E+00 -0.00000000000E+00 -0.65525278546E+03  0.65525278546E+03  0.00000000000E+00 0.  1.
    9000007    1    1    2  502    0  0.10338887074E+02 -0.34532835314E+03  0.28188503836E+01  0.52855133146E+03  0.40000000000E+03 0.  1.
   -9000007    1    1    2    0  501 -0.10338887074E+02  0.34532835314E+03 -0.21439970536E+03  0.57037338448E+03  0.40000000000E+03 0.  1.
<mgrwt>
<rscale>  2 0.52854381E+03</rscale>
<asrwt>0</asrwt>
<pdfrwt beam="1">  1        2 0.10080812E+00 0.52854381E+03</pdfrwt>
<pdfrwt beam="2">  1       -2 0.68257220E-01 0.52854381E+03</pdfrwt>
<totfact> 0.89913934E+01</totfact>
</mgrwt>
</event>
<event>
 4    1  0.2454657E-002  0.4502008E+03  0.7818608E-02  0.1027662E+00
         -2   -1    0    0    0  501 -0.00000000000E+00  0.00000000000E+00  0.50483160389E+03  0.50483160389E+03  0.00000000000E+00 0.  1.
          2   -1    0    0  502    0  0.00000000000E+00 -0.00000000000E+00 -0.42857470999E+03  0.42857470999E+03  0.00000000000E+00 0. -1.
    9000007    1    1    2  502    0 -0.18888573981E+03 -0.83683610027E+02 -0.79213749135E+02  0.45711660147E+03  0.40000000000E+03 0. -1.
   -9000007    1    1    2    0  501  0.18888573981E+03  0.83683610027E+02  0.15547064303E+03  0.47628971240E+03  0.40000000000E+03 0. -1.
<mgrwt>
<rscale>  2 0.45020081E+03</rscale>
<asrwt>0</asrwt>
<pdfrwt beam="1">  1        2 0.65934570E-01 0.45020081E+03</pdfrwt>
<pdfrwt beam="2">  1       -2 0.77666401E-01 0.45020081E+03</pdfrwt>
<totfact> 0.11176664E+02</totfact>
</mgrwt>
</event>
<event>
 4    1  0.2454657E-002  0.5351130E+03  0.7818608E-02  0.1005000E+00
          2   -1    0    0  502    0  0.00000000000E+00  0.00000000000E+00  0.54640894487E+03  0.54640894487E+03  0.00000000000E+00 0.  1.
         -2   -1    0    0    0  501 -0.00000000000E+00 -0.00000000000E+00 -0.61490557043E+03  0.61490557043E+03  0.00000000000E+00 0. -1.
    9000007    1    1    2  502    0 -0.29510110117E+03  0.19814443021E+03 -0.25744628994E+03  0.59382191551E+03  0.40000000000E+03 0. -1.
   -9000007    1    1    2    0  501  0.29510110117E+03 -0.19814443021E+03  0.18894966439E+03  0.56749259978E+03  0.40000000000E+03 0.  1.
<mgrwt>
<rscale>  2 0.53511296E+03</rscale>
<asrwt>0</asrwt>
<pdfrwt beam="1">  1        2 0.84062914E-01 0.53511296E+03</pdfrwt>
<pdfrwt beam="2">  1       -2 0.94600857E-01 0.53511296E+03</pdfrwt>
<totfact> 0.53749302E+01</totfact>
</mgrwt>
</event>
<event>
 4    1  0.2454657E-002  0.4649171E+03  0.7818608E-02  0.1023365E+00
          2   -1    0    0  502    0  0.00000000000E+00  0.00000000000E+00  0.14432075821E+04  0.14432075821E+04  0.00000000000E+00 0. -1.
         -2   -1    0    0    0  501 -0.00000000000E+00 -0.00000000000E+00 -0.22570727094E+03  0.22570727094E+03  0.00000000000E+00 0.  1.
    9000007    1    1    2  502    0 -0.19707970206E+03  0.13155811616E+03  0.12473229913E+03  0.48135859122E+03  0.40000000000E+03 0.  1.
   -9000007    1    1    2    0  501  0.19707970206E+03 -0.13155811616E+03  0.10927680120E+04  0.11875562618E+04  0.40000000000E+03 0. -1.
<mgrwt>
<rscale>  2 0.46491714E+03</rscale>
<asrwt>0</asrwt>
<pdfrwt beam="1">  1        2 0.22203193E+00 0.46491714E+03</pdfrwt>
<pdfrwt beam="2">  1       -2 0.34724196E-01 0.46491714E+03</pdfrwt>
<totfact> 0.11156611E+02</totfact>
</mgrwt>
</event>
<event>
 4    1  0.2454657E-002  0.5205341E+03  0.7818608E-02  0.1008554E+00
          1   -1    0    0  502    0  0.00000000000E+00  0.00000000000E+00  0.99208242423E+03  0.99208242423E+03  0.00000000000E+00 0.  1.
         -1   -1    0    0    0  501 -0.00000000000E+00 -0.00000000000E+00 -0.28306827825E+03  0.28306827825E+03  0.00000000000E+00 0. -1.
    9000007    1    1    2  502    0 -0.20405729162E+03  0.26328001269E+03  0.23497081330E+03  0.57111034525E+03  0.40000000000E+03 0. -1.
   -9000007    1    1    2    0  501  0.20405729162E+03 -0.26328001269E+03  0.47404333268E+03  0.70404035723E+03  0.40000000000E+03 0.  1.
<mgrwt>
<rscale>  2 0.52053409E+03</rscale>
<asrwt>0</asrwt>
<pdfrwt beam="1">  1        1 0.15262806E+00 0.52053409E+03</pdfrwt>
<pdfrwt beam="2">  1       -1 0.43548966E-01 0.52053409E+03</pdfrwt>
<totfact> 0.83493073E+01</totfact>
</mgrwt>
</event>
<event>
 4    1  0.2454657E-002  0.5037683E+03  0.7818608E-02  0.1012800E+00
         -2   -1    0    0    0  501 -0.00000000000E+00  0.00000000000E+00  0.28008040245E+03  0.28008040245E+03  0.00000000000E+00 0. -1.
          2   -1    0    0  502    0  0.00000000000E+00 -0.00000000000E+00 -0.92503702747E+03  0.92503702747E+03  0.00000000000E+00 0.  1.
    9000007    1    1    2  502    0 -0.10398290652E+03  0.28804515965E+03 -0.40867884515E+03  0.64869165041E+03  0.40000000000E+03 0.  1.
   -9000007    1    1    2    0  501  0.10398290652E+03 -0.28804515965E+03 -0.23627777987E+03  0.55642577951E+03  0.40000000000E+03 0. -1.
<mgrwt>
<rscale>  2 0.50376826E+03</rscale>
<asrwt>0</asrwt>
<pdfrwt beam="1">  1        2 0.14231339E+00 0.50376826E+03</pdfrwt>
<pdfrwt beam="2">  1       -2 0.43089292E-01 0.50376826E+03</pdfrwt>
<totfact> 0.14842574E+02</totfact>
</mgrwt>
</event>
<event>
 4    1  0.2454657E-002  0.5676126E+03  0.7818608E-02  0.9974975E-01
         -2   -1    0    0    0  501 -0.00000000000E+00  0.00000000000E+00  0.11607054844E+03  0.11607054844E+03  0.00000000000E+00 0. -1.
          2   -1    0    0  502    0  0.00000000000E+00 -0.00000000000E+00 -0.37928873419E+04  0.37928873419E+04  0.00000000000E+00 0.  1.
    9000007    1    1    2  502    0 -0.35832316904E+03  0.18381680913E+03 -0.82628502150E+03  0.10024624928E+04  0.40000000000E+03 0. -1.
   -9000007    1    1    2    0  501  0.35832316904E+03 -0.18381680913E+03 -0.28505317720E+04  0.29064953975E+04  0.40000000000E+03 0.  1.
<mgrwt>
<rscale>  2 0.56761264E+03</rscale>
<asrwt>0</asrwt>
<pdfrwt beam="1">  1        2 0.58352105E+00 0.56761264E+03</pdfrwt>
<pdfrwt beam="2">  1       -2 0.17857010E-01 0.56761264E+03</pdfrwt>
<totfact> 0.14676682E+01</totfact>
</mgrwt>
</event>
<event>
 4    1  0.2454657E-002  0.4798803E+03  0.7818608E-02  0.1019168E+00
         -2   -1    0    0    0  501 -0.00000000000E+00  0.00000000000E+00  0.54125937070E+03  0.54125937070E+03  0.00000000000E+00 0.  1.
          2   -1    0    0  502    0  0.00000000000E+00 -0.00000000000E+00 -0.45810464436E+03  0.45810464436E+03  0.00000000000E+00 0. -1.
    9000007    1    1    2  502    0  0.18939772681E+03 -0.18550897538E+03  0.17496226691E+03  0.51078065127E+03  0.40000000000E+03 0.  1.
   -9000007    1    1    2    0  501 -0.18939772681E+03  0.18550897538E+03 -0.91807540564E+02  0.48858336379E+03  0.40000000000E+03 0. -1.
<mgrwt>
<rscale>  2 0.47988028E+03</rscale>
<asrwt>0</asrwt>
<pdfrwt beam="1">  1        2 0.70477638E-01 0.47988028E+03</pdfrwt>
<pdfrwt beam="2">  1       -2 0.83270672E-01 0.47988028E+03</pdfrwt>
<totfact> 0.88536058E+01</totfact>
</mgrwt>
</event>
<event>
 4    1  0.2454657E-002  0.4327418E+03  0.7818608E-02  0.1032997E+00
         -1   -1    0    0    0  501 -0.00000000000E+00  0.00000000000E+00  0.10729002372E+03  0.10729002372E+03  0.00000000000E+00 0. -1.
          1   -1    0    0  502    0  0.00000000000E+00 -0.00000000000E+00 -0.25263845077E+04  0.25263845077E+04  0.00000000000E+00 0.  1.
    9000007    1    1    2  502    0  0.14888713675E+03 -0.71400773020E+02 -0.19416968847E+04  0.19893346229E+04  0.40000000000E+03 0.  1.
   -9000007    1    1    2    0  501 -0.14888713675E+03  0.71400773020E+02 -0.47739759924E+03  0.64433990846E+03  0.40000000000E+03 0. -1.
<mgrwt>
<rscale>  2 0.43274178E+03</rscale>
<asrwt>0</asrwt>
<pdfrwt beam="1">  1        1 0.38867452E+00 0.43274178E+03</pdfrwt>
<pdfrwt beam="2">  1       -1 0.16506158E-01 0.43274178E+03</pdfrwt>
<totfact> 0.40278865E+01</totfact>
</mgrwt>
</event>
<event>
 4    1  0.2454657E-002  0.4827181E+03  0.7818608E-02  0.1018391E+00
          2   -1    0    0  502    0  0.00000000000E+00  0.00000000000E+00  0.25603857785E+04  0.25603857785E+04  0.00000000000E+00 0.  1.
         -2   -1    0    0    0  501 -0.00000000000E+00 -0.00000000000E+00 -0.96973947833E+02  0.96973947833E+02  0.00000000000E+00 0. -1.
    9000007    1    1    2  502    0 -0.26718301531E+03 -0.40373452333E+02  0.15612515914E+04  0.16341735866E+04  0.40000000000E+03 0.  1.
   -9000007    1    1    2    0  501  0.26718301531E+03  0.40373452333E+02  0.90216023921E+03  0.10231861397E+04  0.40000000000E+03 0. -1.
<mgrwt>
<rscale>  2 0.48271812E+03</rscale>
<asrwt>0</asrwt>
<pdfrwt beam="1">  1        2 0.39390545E+00 0.48271812E+03</pdfrwt>
<pdfrwt beam="2">  1       -2 0.14919071E-01 0.48271812E+03</pdfrwt>
<totfact> 0.12261675E+02</totfact>
</mgrwt>
</event>
<event>
 4    1  0.2454657E-002  0.7741934E+03  0.7818608E-02  0.9598141E-01
          2   -1    0    0  502    0  0.00000000000E+00  0.00000000000E+00  0.94859595103E+03  0.94859595103E+03  0.00000000000E+00 0. -1.
         -2   -1    0    0    0  501 -0.00000000000E+00 -0.00000000000E+00 -0.63495519861E+03  0.63495519861E+03  0.00000000000E+00 0.  1.
    9000007    1    1    2  502    0  0.16588830336E+03  0.64176048255E+03  0.10149818671E+03  0.78081837073E+03  0.40000000000E+03 0.  1.
   -9000007    1    1    2    0  501 -0.16588830336E+03 -0.64176048255E+03  0.21214256572E+03  0.80273277892E+03  0.40000000000E+03 0.  1.
<mgrwt>
<rscale>  2 0.77419342E+03</rscale>
<asrwt>0</asrwt>
<pdfrwt beam="1">  1        2 0.14593784E+00 0.77419342E+03</pdfrwt>
<pdfrwt beam="2">  1       -2 0.97685414E-01 0.77419342E+03</pdfrwt>
<totfact> 0.24070035E+01</totfact>
</mgrwt>
</event>
<event>
 4    1  0.2454657E-002  0.6325963E+03  0.7818608E-02  0.9839995E-01
         -2   -1    0    0    0  501 -0.00000000000E+00  0.00000000000E+00  0.25288723092E+03  0.25288723092E+03  0.00000000000E+00 0. -1.
          2   -1    0    0  502    0  0.00000000000E+00 -0.00000000000E+00 -0.19275140985E+04  0.19275140985E+04  0.00000000000E+00 0.  1.
    9000007    1    1    2  502    0 -0.39804960042E+02 -0.48846046174E+03 -0.37603211911E+03  0.73591997672E+03  0.40000000000E+03 0. -1.
   -9000007    1    1    2    0  501  0.39804960042E+02  0.48846046174E+03 -0.12985947484E+04  0.14444813527E+04  0.40000000000E+03 0.  1.
<mgrwt>
<rscale>  2 0.63259628E+03</rscale>
<asrwt>0</asrwt>
<pdfrwt beam="1">  1        2 0.29654063E+00 0.63259628E+03</pdfrwt>
<pdfrwt beam="2">  1       -2 0.38905728E-01 0.63259628E+03</pdfrwt>
<totfact> 0.47820582E+01</totfact>
</mgrwt>
</event>
<event>
 4    1  0.2454657E-002  0.4309040E+03  0.7818608E-02  0.1033575E+00
         -2   -1    0    0    0  501 -0.00000000000E+00  0.00000000000E+00  0.39233952410E+03  0.39233952410E+03  0.00000000000E+00 0.  1.
          2   -1    0    0  502    0  0.00000000000E+00 -0.00000000000E+00 -0.47406721646E+03  0.47406721646E+03  0.00000000000E+00 0. -1.
    9000007    1    1    2  502    0  0.14822148053E+03  0.60898456444E+02 -0.58750251785E+02  0.43489058552E+03  0.40000000000E+03 0.  1.
   -9000007    1    1    2    0  501 -0.14822148053E+03 -0.60898456444E+02 -0.22977440579E+02  0.43151615504E+03  0.40000000000E+03 0.  1.
<mgrwt>
<rscale>  2 0.43090397E+03</rscale>
<asrwt>0</asrwt>
<pdfrwt beam="1">  1        2 0.72933418E-01 0.43090397E+03</pdfrwt>
<pdfrwt beam="2">  1       -2 0.60359927E-01 0.43090397E+03</pdfrwt>
<totfact> 0.17204831E+02</totfact>
</mgrwt>
</event>
<event>
 4    1  0.2454657E-002  0.4586825E+03  0.7818608E-02  0.1025164E+00
         -1   -1    0    0    0  501 -0.00000000000E+00  0.00000000000E+00  0.87957657309E+03  0.87957657309E+03  0.00000000000E+00 0. -1.
          1   -1    0    0  502    0  0.00000000000E+00 -0.00000000000E+00 -0.35580981734E+03  0.35580981734E+03  0.00000000000E+00 0.  1.
    9000007    1    1    2  502    0  0.20329486509E+03 -0.95188378809E+02 -0.91740986560E+02  0.46776707692E+03  0.40000000000E+03 0.  1.
   -9000007    1    1    2    0  501 -0.20329486509E+03  0.95188378809E+02  0.61550774231E+03  0.76761931351E+03  0.40000000000E+03 0. -1.
<mgrwt>
<rscale>  2 0.45868249E+03</rscale>
<asrwt>0</asrwt>
<pdfrwt beam="1">  1        1 0.54739972E-01 0.45868249E+03</pdfrwt>
<pdfrwt beam="2">  1       -1 0.13531947E+00 0.45868249E+03</pdfrwt>
<totfact> 0.33926865E+01</totfact>
</mgrwt>
</event>
<event>
 4    1  0.2454657E-002  0.6110040E+03  0.7818608E-02  0.9882836E-01
         -2   -1    0    0    0  501 -0.00000000000E+00  0.00000000000E+00  0.68610720069E+03  0.68610720069E+03  0.00000000000E+00 0.  1.
          2   -1    0    0  502    0  0.00000000000E+00 -0.00000000000E+00 -0.10625463702E+04  0.10625463702E+04  0.00000000000E+00 0. -1.
    9000007    1    1    2  502    0  0.38150057453E+03 -0.26035206840E+03 -0.79894026140E+03  0.10057989010E+04  0.40000000000E+03 0.  1.
   -9000007    1    1    2    0  501 -0.38150057453E+03  0.26035206840E+03  0.42250109193E+03  0.74285466988E+03  0.40000000000E+03 0.  1.
<mgrwt>
<rscale>  2 0.61100400E+03</rscale>
<asrwt>0</asrwt>
<pdfrwt beam="1">  1        2 0.16346867E+00 0.61100400E+03</pdfrwt>
<pdfrwt beam="2">  1       -2 0.10555495E+00 0.61100400E+03</pdfrwt>
<totfact> 0.17266394E+01</totfact>
</mgrwt>
</event>
<event>
 4    1  0.2454657E-002  0.5160480E+03  0.7818608E-02  0.1009673E+00
          2   -1    0    0  502    0  0.00000000000E+00  0.00000000000E+00  0.18093617526E+04  0.18093617526E+04  0.00000000000E+00 0.  1.
         -2   -1    0    0    0  501 -0.00000000000E+00 -0.00000000000E+00 -0.14758359217E+03  0.14758359217E+03  0.00000000000E+00 0. -1.
    9000007    1    1    2  502    0 -0.16879814841E+03 -0.27894923798E+03  0.88193006610E+03  0.10218151172E+04  0.40000000000E+03 0.  1.
   -9000007    1    1    2    0  501  0.16879814841E+03  0.27894923798E+03  0.77984809436E+03  0.93513022759E+03  0.40000000000E+03 0. -1.
<mgrwt>
<rscale>  2 0.51604796E+03</rscale>
<asrwt>0</asrwt>
<pdfrwt beam="1">  1        2 0.27836333E+00 0.51604796E+03</pdfrwt>
<pdfrwt beam="2">  1       -2 0.22705169E-01 0.51604796E+03</pdfrwt>
<totfact> 0.15220444E+02</totfact>
</mgrwt>
</event>
<event>
 4    1  0.2454657E-002  0.4577915E+03  0.7818608E-02  0.1025424E+00
         -2   -1    0    0    0  501 -0.00000000000E+00  0.00000000000E+00  0.47238051559E+03  0.47238051559E+03  0.00000000000E+00 0. -1.
          2   -1    0    0  502    0  0.00000000000E+00 -0.00000000000E+00 -0.44367526429E+03  0.44367526429E+03  0.00000000000E+00 0.  1.
    9000007    1    1    2  502    0  0.21756530844E+03 -0.47311393488E+02  0.17597475111E+02  0.45812956958E+03  0.40000000000E+03 0.  1.
   -9000007    1    1    2    0  501 -0.21756530844E+03  0.47311393488E+02  0.11107776183E+02  0.45792621030E+03  0.40000000000E+03 0.  1.
<mgrwt>
<rscale>  2 0.45779147E+03</rscale>
<asrwt>0</asrwt>
<pdfrwt beam="1">  1        2 0.68257733E-01 0.45779147E+03</pdfrwt>
<pdfrwt beam="2">  1       -2 0.72673926E-01 0.45779147E+03</pdfrwt>
<totfact> 0.12436945E+02</totfact>
</mgrwt>
</event>
<event>
 4    1  0.2454657E-002  0.5089816E+03  0.7818608E-02  0.1011461E+00
         -1   -1    0    0    0  501 -0.00000000000E+00  0.00000000000E+00  0.31170805445E+03  0.31170805445E+03  0.00000000000E+00 0. -1.
          1   -1    0    0  502    0  0.00000000000E+00 -0.00000000000E+00 -0.84113302233E+03  0.84113302233E+03  0.00000000000E+00 0.  1.
    9000007    1    1    2  502    0  0.29654135787E+03  0.10547733843E+03 -0.32764950581E+03  0.60532342141E+03  0.40000000000E+03 0. -1.
   -9000007    1    1    2    0  501 -0.29654135787E+03 -0.10547733843E+03 -0.20177546207E+03  0.54751765537E+03  0.40000000000E+03 0.  1.
<mgrwt>
<rscale>  2 0.50898158E+03</rscale>
<asrwt>0</asrwt>
<pdfrwt beam="1">  1        1 0.12940508E+00 0.50898158E+03</pdfrwt>
<pdfrwt beam="2">  1       -1 0.47955085E-01 0.50898158E+03</pdfrwt>
<totfact> 0.92352336E+01</totfact>
</mgrwt>
</event>
<event>
 4    1  0.2454657E-002  0.6544952E+03  0.7818608E-02  0.9798381E-01
         -2   -1    0    0    0  501 -0.00000000000E+00  0.00000000000E+00  0.18001141545E+03  0.18001141545E+03  0.00000000000E+00 0. -1.
          2   -1    0    0  502    0  0.00000000000E+00 -0.00000000000E+00 -0.29821694099E+04  0.29821694099E+04  0.00000000000E+00 0.  1.
    9000007    1    1    2  502    0  0.48612991065E+03 -0.17900185634E+03 -0.69039507337E+03  0.95131977375E+03  0.40000000000E+03 0. -1.
   -9000007    1    1    2    0  501 -0.48612991065E+03  0.17900185634E+03 -0.21117629211E+04  0.22108610516E+04  0.40000000000E+03 0.  1.
<mgrwt>
<rscale>  2 0.65449519E+03</rscale>
<asrwt>0</asrwt>
<pdfrwt beam="1">  1        2 0.45879526E+00 0.65449519E+03</pdfrwt>
<pdfrwt beam="2">  1       -2 0.27694066E-01 0.65449519E+03</pdfrwt>
<totfact> 0.22853409E+01</totfact>
</mgrwt>
</event>
<event>
 4    1  0.2454657E-002  0.7619900E+03  0.7818608E-02  0.9616726E-01
         -1   -1    0    0    0  501 -0.00000000000E+00  0.00000000000E+00  0.24916797311E+03  0.24916797311E+03  0.00000000000E+00 0. -1.
          1   -1    0    0  502    0  0.00000000000E+00 -0.00000000000E+00 -0.27086918114E+04  0.27086918114E+04  0.00000000000E+00 0.  1.
    9000007    1    1    2  502    0  0.59487731192E+03  0.25835964691E+03 -0.67697761014E+03  0.10192778856E+04  0.40000000000E+03 0. -1.
   -9000007    1    1    2    0  501 -0.59487731192E+03 -0.25835964691E+03 -0.17825462281E+04  0.19385818989E+04  0.40000000000E+03 0. -1.
<mgrwt>
<rscale>  2 0.76198998E+03</rscale>
<asrwt>0</asrwt>
<pdfrwt beam="1">  1        1 0.41672182E+00 0.76198998E+03</pdfrwt>
<pdfrwt beam="2">  1       -1 0.38333534E-01 0.76198998E+03</pdfrwt>
<totfact> 0.67386541E+00</totfact>
</mgrwt>
</event>
<event>
 4    1  0.2454657E-002  0.4066161E+03  0.7818608E-02  0.1041513E+00
          2   -1    0    0  502    0  0.00000000000E+00  0.00000000000E+00  0.10858219450E+04  0.10858219450E+04  0.00000000000E+00 0. -1.
         -2   -1    0    0    0  501 -0.00000000000E+00 -0.00000000000E+00 -0.15247919561E+03  0.15247919561E+03  0.00000000000E+00 0.  1.
    9000007    1    1    2  502    0 -0.47306294536E+02 -0.55666449475E+02  0.48967872196E+03  0.63649186156E+03  0.40000000000E+03 0.  1.
   -9000007    1    1    2    0  501  0.47306294536E+02  0.55666449475E+02  0.44366402742E+03  0.60180927903E+03  0.40000000000E+03 0. -1.
<mgrwt>
<rscale>  2 0.40661608E+03</rscale>
<asrwt>0</asrwt>
<pdfrwt beam="1">  1        2 0.16704953E+00 0.40661608E+03</pdfrwt>
<pdfrwt beam="2">  1       -2 0.23458338E-01 0.40661608E+03</pdfrwt>
<totfact> 0.36813350E+02</totfact>
</mgrwt>
</event>
<event>
 4    1  0.2454657E-002  0.4012543E+03  0.7818608E-02  0.1043346E+00
         -1   -1    0    0    0  501 -0.00000000000E+00  0.00000000000E+00  0.27270076611E+03  0.27270076611E+03  0.00000000000E+00 0.  1.
          1   -1    0    0  502    0  0.00000000000E+00 -0.00000000000E+00 -0.63123192892E+03  0.63123192892E+03  0.00000000000E+00 0. -1.
    9000007    1    1    2  502    0  0.22661687479E+02  0.22169379818E+02 -0.29420335662E+03  0.49755466888E+03  0.40000000000E+03 0. -1.
   -9000007    1    1    2    0  501 -0.22661687479E+02 -0.22169379818E+02 -0.64327806193E+02  0.40637802614E+03  0.40000000000E+03 0.  1.
<mgrwt>
<rscale>  2 0.40125433E+03</rscale>
<asrwt>0</asrwt>
<pdfrwt beam="1">  1        1 0.97112604E-01 0.40125433E+03</pdfrwt>
<pdfrwt beam="2">  1       -1 0.41953964E-01 0.40125433E+03</pdfrwt>
<totfact> 0.18461200E+02</totfact>
</mgrwt>
</event>
<event>
 4    1  0.2454657E-002  0.5998914E+03  0.7818608E-02  0.9905631E-01
         -2   -1    0    0    0  501 -0.00000000000E+00  0.00000000000E+00  0.11754828212E+04  0.11754828212E+04  0.00000000000E+00 0.  1.
          2   -1    0    0  502    0  0.00000000000E+00 -0.00000000000E+00 -0.30815579440E+03  0.30815579440E+03  0.00000000000E+00 0. -1.
    9000007    1    1    2  502    0 -0.25532896734E+01 -0.44706059634E+03  0.49356784583E+03  0.77683905317E+03  0.40000000000E+03 0.  1.
   -9000007    1    1    2    0  501  0.25532896734E+01  0.44706059634E+03  0.37375918094E+03  0.70679956241E+03  0.40000000000E+03 0. -1.
<mgrwt>
<rscale>  2 0.59989140E+03</rscale>
<asrwt>0</asrwt>
<pdfrwt beam="1">  1        2 0.47408585E-01 0.59989140E+03</pdfrwt>
<pdfrwt beam="2">  1       -2 0.18084351E+00 0.59989140E+03</pdfrwt>
<totfact> 0.19616504E+01</totfact>
</mgrwt>
</event>
<event>
 4    1  0.2454657E-002  0.4110372E+03  0.7818608E-02  0.1040024E+00
         -1   -1    0    0    0  501 -0.00000000000E+00  0.00000000000E+00  0.43740394063E+02  0.43740394063E+02  0.00000000000E+00 0.  1.
          1   -1    0    0  502    0  0.00000000000E+00 -0.00000000000E+00 -0.44638254966E+04  0.44638254966E+04  0.00000000000E+00 0. -1.
    9000007    1    1    2  502    0 -0.44443532930E+01 -0.94508340034E+02 -0.13829050032E+04  0.14426981065E+04  0.40000000000E+03 0.  1.
   -9000007    1    1    2    0  501  0.44443532930E+01  0.94508340034E+02 -0.30371800994E+04  0.30648677842E+04  0.40000000000E+03 0. -1.
<mgrwt>
<rscale>  2 0.41103720E+03</rscale>
<asrwt>0</asrwt>
<pdfrwt beam="1">  1        1 0.68674225E+00 0.41103720E+03</pdfrwt>
<pdfrwt beam="2">  1       -1 0.67292928E-02 0.41103720E+03</pdfrwt>
<totfact> 0.50472564E+00</totfact>
</mgrwt>
</event>
<event>
 4    1  0.2454657E-002  0.5162771E+03  0.7818608E-02  0.1009616E+00
         -2   -1    0    0    0  501 -0.00000000000E+00  0.00000000000E+00  0.11658296095E+03  0.11658296095E+03  0.00000000000E+00 0. -1.
          2   -1    0    0  502    0  0.00000000000E+00 -0.00000000000E+00 -0.26252376228E+04  0.26252376228E+04  0.00000000000E+00 0.  1.
    9000007    1    1    2  502    0 -0.68407713787E+02 -0.31915887001E+03 -0.17469263482E+04  0.18216184193E+04  0.40000000000E+03 0.  1.
   -9000007    1    1    2    0  501  0.68407713787E+02  0.31915887001E+03 -0.76172831370E+03  0.92020216448E+03  0.40000000000E+03 0. -1.
<mgrwt>
<rscale>  2 0.51627706E+03</rscale>
<asrwt>0</asrwt>
<pdfrwt beam="1">  1        2 0.40388266E+00 0.51627706E+03</pdfrwt>
<pdfrwt beam="2">  1       -2 0.17935842E-01 0.51627706E+03</pdfrwt>
<totfact> 0.81953690E+01</totfact>
</mgrwt>
</event>
<event>
 4    1  0.2454657E-002  0.4250162E+03  0.7818608E-02  0.1035446E+00
          2   -1    0    0  502    0  0.00000000000E+00  0.00000000000E+00  0.56674105225E+03  0.56674105225E+03  0.00000000000E+00 0. -1.
         -2   -1    0    0    0  501 -0.00000000000E+00 -0.00000000000E+00 -0.42094910312E+03  0.42094910312E+03  0.00000000000E+00 0.  1.
    9000007    1    1    2  502    0 -0.14328436928E+03  0.10409719139E+02 -0.17045704035E+03  0.45792398424E+03  0.40000000000E+03 0.  1.
   -9000007    1    1    2    0  501  0.14328436928E+03 -0.10409719139E+02  0.31624898948E+03  0.52976617114E+03  0.40000000000E+03 0. -1.
<mgrwt>
<rscale>  2 0.42501620E+03</rscale>
<asrwt>0</asrwt>
<pdfrwt beam="1">  1        2 0.87190931E-01 0.42501620E+03</pdfrwt>
<pdfrwt beam="2">  1       -2 0.64761400E-01 0.42501620E+03</pdfrwt>
<totfact> 0.12080716E+02</totfact>
</mgrwt>
</event>
<event>
 4    1  0.2454657E-002  0.5143222E+03  0.7818608E-02  0.1010107E+00
         -1   -1    0    0    0  501 -0.00000000000E+00  0.00000000000E+00  0.22500979865E+03  0.22500979865E+03  0.00000000000E+00 0. -1.
          1   -1    0    0  502    0  0.00000000000E+00 -0.00000000000E+00 -0.12345406579E+04  0.12345406579E+04  0.00000000000E+00 0.  1.
    9000007    1    1    2  502    0  0.58501774475E+02  0.31796994536E+03 -0.66418752790E+03  0.84004310365E+03  0.40000000000E+03 0.  1.
   -9000007    1    1    2    0  501 -0.58501774475E+02 -0.31796994536E+03 -0.34534333131E+03  0.61950735286E+03  0.40000000000E+03 0. -1.
<mgrwt>
<rscale>  2 0.51432222E+03</rscale>
<asrwt>0</asrwt>
<pdfrwt beam="1">  1        1 0.18992934E+00 0.51432222E+03</pdfrwt>
<pdfrwt beam="2">  1       -1 0.34616891E-01 0.51432222E+03</pdfrwt>
<totfact> 0.83694166E+01</totfact>
</mgrwt>
</event>
<event>
 4    1  0.2454657E-002  0.4509752E+03  0.7818608E-02  0.1027432E+00
          1   -1    0    0  502    0  0.00000000000E+00  0.00000000000E+00  0.21301613147E+04  0.21301613147E+04  0.00000000000E+00 0.  1.
         -1   -1    0    0    0  501 -0.00000000000E+00 -0.00000000000E+00 -0.10411172566E+03  0.10411172566E+03  0.00000000000E+00 0. -1.
    9000007    1    1    2  502    0  0.11251908555E+03 -0.17526569864E+03  0.69127833442E+03  0.82537527548E+03  0.40000000000E+03 0.  1.
   -9000007    1    1    2    0  501 -0.11251908555E+03  0.17526569864E+03  0.13347712546E+04  0.14088977648E+04  0.40000000000E+03 0.  1.
<mgrwt>
<rscale>  2 0.45097518E+03</rscale>
<asrwt>0</asrwt>
<pdfrwt beam="1">  1        1 0.32771709E+00 0.45097518E+03</pdfrwt>
<pdfrwt beam="2">  1       -1 0.16017190E-01 0.45097518E+03</pdfrwt>
<totfact> 0.77421852E+01</totfact>
</mgrwt>
</event>
<event>
 4    1  0.2454657E-002  0.5349453E+03  0.7818608E-02  0.1005040E+00
          1   -1    0    0  502    0  0.00000000000E+00  0.00000000000E+00  0.97459742333E+03  0.97459742333E+03  0.00000000000E+00 0.  1.
         -1   -1    0    0    0  501 -0.00000000000E+00 -0.00000000000E+00 -0.41598393461E+03  0.41598393461E+03  0.00000000000E+00 0. -1.
    9000007    1    1    2  502    0 -0.17919940170E+02  0.35474684301E+03 -0.97783645427E+02  0.54380887102E+03  0.40000000000E+03 0.  1.
   -9000007    1    1    2    0  501  0.17919940170E+02 -0.35474684301E+03  0.65639713415E+03  0.84677248692E+03  0.40000000000E+03 0.  1.
<mgrwt>
<rscale>  2 0.53494527E+03</rscale>
<asrwt>0</asrwt>
<pdfrwt beam="1">  1        1 0.14993806E+00 0.53494527E+03</pdfrwt>
<pdfrwt beam="2">  1       -1 0.63997529E-01 0.53494527E+03</pdfrwt>
<totfact> 0.41285689E+01</totfact>
</mgrwt>
</event>
<event>
 4    1  0.2454657E-002  0.4223240E+03  0.7818608E-02  0.1036313E+00
         -2   -1    0    0    0  501 -0.00000000000E+00  0.00000000000E+00  0.19936558412E+03  0.19936558412E+03  0.00000000000E+00 0. -1.
          2   -1    0    0  502    0  0.00000000000E+00 -0.00000000000E+00 -0.23451373424E+04  0.23451373424E+04  0.00000000000E+00 0.  1.
    9000007    1    1    2  502    0 -0.10180657640E+03 -0.89403461970E+02 -0.20734604018E+04  0.21160329856E+04  0.40000000000E+03 0.  1.
   -9000007    1    1    2    0  501  0.10180657640E+03  0.89403461970E+02 -0.72311356425E+02  0.42846994093E+03  0.40000000000E+03 0. -1.
<mgrwt>
<rscale>  2 0.42232400E+03</rscale>
<asrwt>0</asrwt>
<pdfrwt beam="1">  1        2 0.36079035E+00 0.42232400E+03</pdfrwt>
<pdfrwt beam="2">  1       -2 0.30671630E-01 0.42232400E+03</pdfrwt>
<totfact> 0.46198534E+01</totfact>
</mgrwt>
</event>
<event>
 4    1  0.2454657E-002  0.4861318E+03  0.7818608E-02  0.1017463E+00
          2   -1    0    0  502    0  0.00000000000E+00  0.00000000000E+00  0.26646178540E+03  0.26646178540E+03  0.00000000000E+00 0. -1.
         -2   -1    0    0    0  501 -0.00000000000E+00 -0.00000000000E+00 -0.14393283963E+04  0.14393283963E+04  0.00000000000E+00 0.  1.
    9000007    1    1    2  502    0 -0.48042686800E+02 -0.27205892474E+03 -0.58042996203E+02  0.48958466857E+03  0.40000000000E+03 0. -1.
   -9000007    1    1    2    0  501  0.48042686800E+02  0.27205892474E+03 -0.11148236147E+04  0.12162055132E+04  0.40000000000E+03 0.  1.
<mgrwt>
<rscale>  2 0.48613183E+03</rscale>
<asrwt>0</asrwt>
<pdfrwt beam="1">  1        2 0.40994120E-01 0.48613183E+03</pdfrwt>
<pdfrwt beam="2">  1       -2 0.22143514E+00 0.48613183E+03</pdfrwt>
<totfact> 0.12773307E+01</totfact>
</mgrwt>
</event>
<event>
 4    1  0.2454657E-002  0.4594946E+03  0.7818608E-02  0.1024928E+00
          1   -1    0    0  502    0  0.00000000000E+00  0.00000000000E+00  0.16726099108E+04  0.16726099108E+04  0.00000000000E+00 0. -1.
         -1   -1    0    0    0  501 -0.00000000000E+00 -0.00000000000E+00 -0.18770655220E+03  0.18770655220E+03  0.00000000000E+00 0.  1.
    9000007    1    1    2  502    0  0.18780166915E+03 -0.12595956381E+03  0.12747660812E+04  0.13550512317E+04  0.40000000000E+03 0. -1.
   -9000007    1    1    2    0  501 -0.18780166915E+03  0.12595956381E+03  0.21013727740E+03  0.50526523134E+03  0.40000000000E+03 0.  1.
<mgrwt>
<rscale>  2 0.45949459E+03</rscale>
<asrwt>0</asrwt>
<pdfrwt beam="1">  1        1 0.25732459E+00 0.45949459E+03</pdfrwt>
<pdfrwt beam="2">  1       -1 0.28877932E-01 0.45949459E+03</pdfrwt>
<totfact> 0.58142599E+01</totfact>
</mgrwt>
</event>
<event>
 4    1  0.2454657E-002  0.6434878E+03  0.7818608E-02  0.9819076E-01
         -1   -1    0    0    0  501 -0.00000000000E+00  0.00000000000E+00  0.72016628372E+03  0.72016628372E+03  0.00000000000E+00 0. -1.
          1   -1    0    0  502    0  0.00000000000E+00 -0.00000000000E+00 -0.57501035769E+03  0.57501035769E+03  0.00000000000E+00 0.  1.
    9000007    1    1    2  502    0  0.43277507722E+03 -0.25842264389E+03  0.67393400699E+02  0.64700726487E+03  0.40000000000E+03 0. -1.
   -9000007    1    1    2    0  501 -0.43277507722E+03  0.25842264389E+03  0.77762525339E+02  0.64816937654E+03  0.40000000000E+03 0.  1.
<mgrwt>
<rscale>  2 0.64348779E+03</rscale>
<asrwt>0</asrwt>
<pdfrwt beam="1">  1        1 0.88463132E-01 0.64348779E+03</pdfrwt>
<pdfrwt beam="2">  1       -1 0.11079481E+00 0.64348779E+03</pdfrwt>
<totfact> 0.28316265E+01</totfact>
</mgrwt>
</event>
<event>
 4    1  0.2454657E-002  0.6201455E+03  0.7818608E-02  0.9864470E-01
          2   -1    0    0  502    0  0.00000000000E+00  0.00000000000E+00  0.24496455774E+03  0.24496455774E+03  0.00000000000E+00 0. -1.
         -2   -1    0    0    0  501 -0.00000000000E+00 -0.00000000000E+00 -0.16087129027E+04  0.16087129027E+04  0.00000000000E+00 0.  1.
    9000007    1    1    2  502    0  0.34973967889E+03  0.31978519238E+03 -0.53799040245E+03  0.82098360848E+03  0.40000000000E+03 0. -1.
   -9000007    1    1    2    0  501 -0.34973967889E+03 -0.31978519238E+03 -0.82575794250E+03  0.10326938520E+04  0.40000000000E+03 0. -1.
<mgrwt>
<rscale>  2 0.62014548E+03</rscale>
<asrwt>0</asrwt>
<pdfrwt beam="1">  1        2 0.37686854E-01 0.62014548E+03</pdfrwt>
<pdfrwt beam="2">  1       -2 0.24749430E+00 0.62014548E+03</pdfrwt>
<totfact> 0.95478477E+00</totfact>
</mgrwt>
</event>
<event>
 4    1  0.2454657E-002  0.5144125E+03  0.7818608E-02  0.1010084E+00
         -2   -1    0    0    0  501 -0.00000000000E+00  0.00000000000E+00  0.69155019129E+03  0.69155019129E+03  0.00000000000E+00 0. -1.
          2   -1    0    0  502    0  0.00000000000E+00 -0.00000000000E+00 -0.41128869401E+03  0.41128869401E+03  0.00000000000E+00 0.  1.
    9000007    1    1    2  502    0  0.20514951984E+03  0.25006779031E+03  0.28564356662E+03  0.58839822603E+03  0.40000000000E+03 0.  1.
   -9000007    1    1    2    0  501 -0.20514951984E+03 -0.25006779031E+03 -0.53820693458E+01  0.51444065927E+03  0.40000000000E+03 0.  1.
<mgrwt>
<rscale>  2 0.51441250E+03</rscale>
<asrwt>0</asrwt>
<pdfrwt beam="1">  1        2 0.63275184E-01 0.51441250E+03</pdfrwt>
<pdfrwt beam="2">  1       -2 0.10639234E+00 0.51441250E+03</pdfrwt>
<totfact> 0.56439540E+01</totfact>
</mgrwt>
</event>
<event>
 4    1  0.2454657E-002  0.4101171E+03  0.7818608E-02  0.1040332E+00
         -1   -1    0    0    0  501 -0.00000000000E+00  0.00000000000E+00  0.24248632788E+03  0.24248632788E+03  0.00000000000E+00 0. -1.
          1   -1    0    0  502    0  0.00000000000E+00 -0.00000000000E+00 -0.69754601393E+03  0.69754601393E+03  0.00000000000E+00 0.  1.
    9000007    1    1    2  502    0  0.69571178209E+02  0.57930135577E+02 -0.26274174736E+03  0.48706188031E+03  0.40000000000E+03 0. -1.
   -9000007    1    1    2    0  501 -0.69571178209E+02 -0.57930135577E+02 -0.19231793870E+03  0.45297046150E+03  0.40000000000E+03 0. -1.
<mgrwt>
<rscale>  2 0.41011712E+03</rscale>
<asrwt>0</asrwt>
<pdfrwt beam="1">  1        1 0.10731477E+00 0.41011712E+03</pdfrwt>
<pdfrwt beam="2">  1       -1 0.37305589E-01 0.41011712E+03</pdfrwt>
<totfact> 0.19684593E+02</totfact>
</mgrwt>
</event>
<event>
 4    1  0.2454657E-002  0.4066501E+03  0.7818608E-02  0.1041501E+00
         -3   -1    0    0    0  501 -0.00000000000E+00  0.00000000000E+00  0.21552844980E+03  0.21552844980E+03  0.00000000000E+00 0. -1.
          3   -1    0    0  502    0  0.00000000000E+00 -0.00000000000E+00 -0.77326116478E+03  0.77326116478E+03  0.00000000000E+00 0.  1.
    9000007    1    1    2  502    0 -0.65629247962E+02  0.32513463708E+02 -0.23527805691E+03  0.46980856482E+03  0.40000000000E+03 0. -1.
   -9000007    1    1    2    0  501  0.65629247962E+02 -0.32513463708E+02 -0.32245465806E+03  0.51898104977E+03  0.40000000000E+03 0.  1.
<mgrwt>
<rscale>  2 0.40665012E+03</rscale>
<asrwt>0</asrwt>
<pdfrwt beam="1">  1        3 0.11896326E+00 0.40665012E+03</pdfrwt>
<pdfrwt beam="2">  1       -3 0.33158223E-01 0.40665012E+03</pdfrwt>
<totfact> 0.13491141E+01</totfact>
</mgrwt>
</event>
<event>
 4    1  0.2454657E-002  0.4421128E+03  0.7818608E-02  0.1030101E+00
         -2   -1    0    0    0  501 -0.00000000000E+00  0.00000000000E+00  0.33789229742E+03  0.33789229742E+03  0.00000000000E+00 0.  1.
          2   -1    0    0  502    0  0.00000000000E+00 -0.00000000000E+00 -0.58625244389E+03  0.58625244389E+03  0.00000000000E+00 0. -1.
    9000007    1    1    2  502    0  0.15729483241E+03 -0.10354746475E+03 -0.70973836451E+02  0.44777341058E+03  0.40000000000E+03 0.  1.
   -9000007    1    1    2    0  501 -0.15729483241E+03  0.10354746475E+03 -0.17738631002E+03  0.47637133073E+03  0.40000000000E+03 0.  1.
<mgrwt>
<rscale>  2 0.44211282E+03</rscale>
<asrwt>0</asrwt>
<pdfrwt beam="1">  1        2 0.90192683E-01 0.44211282E+03</pdfrwt>
<pdfrwt beam="2">  1       -2 0.51983431E-01 0.44211282E+03</pdfrwt>
<totfact> 0.18315443E+02</totfact>
</mgrwt>
</event>
<event>
 4    1  0.2454657E-002  0.4133900E+03  0.7818608E-02  0.1039239E+00
         -2   -1    0    0    0  501 -0.00000000000E+00  0.00000000000E+00  0.14003645260E+03  0.14003645260E+03  0.00000000000E+00 0. -1.
          2   -1    0    0  502    0  0.00000000000E+00 -0.00000000000E+00 -0.12338455312E+04  0.12338455312E+04  0.00000000000E+00 0.  1.
    9000007    1    1    2  502    0 -0.98450000916E+02  0.34624428359E+02 -0.61878986504E+03  0.74417212444E+03  0.40000000000E+03 0.  1.
   -9000007    1    1    2    0  501  0.98450000916E+02 -0.34624428359E+02 -0.47501921352E+03  0.62970985933E+03  0.40000000000E+03 0. -1.
<mgrwt>
<rscale>  2 0.41338995E+03</rscale>
<asrwt>0</asrwt>
<pdfrwt beam="1">  1        2 0.18982240E+00 0.41338995E+03</pdfrwt>
<pdfrwt beam="2">  1       -2 0.21544069E-01 0.41338995E+03</pdfrwt>
<totfact> 0.34984602E+02</totfact>
</mgrwt>
</event>
<event>
 4    1  0.2454657E-002  0.4499545E+03  0.7818608E-02  0.1027736E+00
         -1   -1    0    0    0  501 -0.00000000000E+00  0.00000000000E+00  0.22075596037E+03  0.22075596037E+03  0.00000000000E+00 0.  1.
          1   -1    0    0  502    0  0.00000000000E+00 -0.00000000000E+00 -0.96410461230E+03  0.96410461230E+03  0.00000000000E+00 0. -1.
    9000007    1    1    2  502    0  0.17345676922E+03  0.11122848061E+03 -0.50246212951E+03  0.67448292586E+03  0.40000000000E+03 0. -1.
   -9000007    1    1    2    0  501 -0.17345676922E+03 -0.11122848061E+03 -0.24088652242E+03  0.51037764681E+03  0.40000000000E+03 0.  1.
<mgrwt>
<rscale>  2 0.44995447E+03</rscale>
<asrwt>0</asrwt>
<pdfrwt beam="1">  1        1 0.14832378E+00 0.44995447E+03</pdfrwt>
<pdfrwt beam="2">  1       -1 0.33962456E-01 0.44995447E+03</pdfrwt>
<totfact> 0.13822002E+02</totfact>
</mgrwt>
</event>
<event>
 4    1  0.2454657E-002  0.4007998E+03  0.7818608E-02  0.1043503E+00
          2   -1    0    0  502    0  0.00000000000E+00  0.00000000000E+00  0.41479175613E+03  0.41479175613E+03  0.00000000000E+00 0. -1.
         -2   -1    0    0    0  501 -0.00000000000E+00 -0.00000000000E+00 -0.39885193987E+03  0.39885193987E+03  0.00000000000E+00 0.  1.
    9000007    1    1    2  502    0  0.15235953629E+02 -0.20206700067E+02 -0.61325795223E+02  0.40546429950E+03  0.40000000000E+03 0.  1.
   -9000007    1    1    2    0  501 -0.15235953629E+02  0.20206700067E+02  0.77265611481E+02  0.40817939650E+03  0.40000000000E+03 0. -1.
<mgrwt>
<rscale>  2 0.40079976E+03</rscale>
<asrwt>0</asrwt>
<pdfrwt beam="1">  1        2 0.63814116E-01 0.40079976E+03</pdfrwt>
<pdfrwt beam="2">  1       -2 0.61361837E-01 0.40079976E+03</pdfrwt>
<totfact> 0.19342927E+02</totfact>
</mgrwt>
</event>
<event>
 4    1  0.2454657E-002  0.5618410E+03  0.7818608E-02  0.9987898E-01
         -1   -1    0    0    0  501 -0.00000000000E+00  0.00000000000E+00  0.13817414326E+03  0.13817414326E+03  0.00000000000E+00 0.  1.
          1   -1    0    0  502    0  0.00000000000E+00 -0.00000000000E+00 -0.23364139233E+04  0.23364139233E+04  0.00000000000E+00 0. -1.
    9000007    1    1    2  502    0 -0.29102814967E+03 -0.26639805549E+03 -0.12834701575E+04  0.14010570841E+04  0.40000000000E+03 0.  1.
   -9000007    1    1    2    0  501  0.29102814967E+03  0.26639805549E+03 -0.91476962259E+03  0.10735309825E+04  0.40000000000E+03 0. -1.
<mgrwt>
<rscale>  2 0.56184100E+03</rscale>
<asrwt>0</asrwt>
<pdfrwt beam="1">  1        1 0.35944831E+00 0.56184100E+03</pdfrwt>
<pdfrwt beam="2">  1       -1 0.21257560E-01 0.56184100E+03</pdfrwt>
<totfact> 0.34753607E+01</totfact>
</mgrwt>
</event>
<event>
 4    1  0.2454657E-002  0.4269928E+03  0.7818608E-02  0.1034814E+00
         -1   -1    0    0    0  501 -0.00000000000E+00  0.00000000000E+00  0.27511073497E+03  0.27511073497E+03  0.00000000000E+00 0. -1.
          1   -1    0    0  502    0  0.00000000000E+00 -0.00000000000E+00 -0.68738486335E+03  0.68738486335E+03  0.00000000000E+00 0.  1.
    9000007    1    1    2  502    0  0.94264583728E+02 -0.11591839410E+03 -0.29728779140E+03  0.52029118458E+03  0.40000000000E+03 0.  1.
   -9000007    1    1    2    0  501 -0.94264583728E+02  0.11591839410E+03 -0.11498633698E+03  0.44220441374E+03  0.40000000000E+03 0. -1.
<mgrwt>
<rscale>  2 0.42699284E+03</rscale>
<asrwt>0</asrwt>
<pdfrwt beam="1">  1        1 0.10575152E+00 0.42699284E+03</pdfrwt>
<pdfrwt beam="2">  1       -1 0.42324729E-01 0.42699284E+03</pdfrwt>
<totfact> 0.16007677E+02</totfact>
</mgrwt>
</event>
<event>
 4    1  0.2454657E-002  0.4025023E+03  0.7818608E-02  0.1042917E+00
          2   -1    0    0  502    0  0.00000000000E+00  0.00000000000E+00  0.10192583995E+04  0.10192583995E+04  0.00000000000E+00 0.  1.
         -2   -1    0    0    0  501 -0.00000000000E+00 -0.00000000000E+00 -0.18447562732E+03  0.18447562732E+03  0.00000000000E+00 0. -1.
    9000007    1    1    2  502    0 -0.20114732783E+02 -0.40043900862E+02  0.64128635994E+03  0.75713691755E+03  0.40000000000E+03 0.  1.
   -9000007    1    1    2    0  501  0.20114732783E+02  0.40043900862E+02  0.19349641228E+03  0.44659710930E+03  0.40000000000E+03 0. -1.
<mgrwt>
<rscale>  2 0.40250232E+03</rscale>
<asrwt>0</asrwt>
<pdfrwt beam="1">  1        2 0.15680898E+00 0.40250232E+03</pdfrwt>
<pdfrwt beam="2">  1       -2 0.28380866E-01 0.40250232E+03</pdfrwt>
<totfact> 0.28732283E+02</totfact>
</mgrwt>
</event>
<event>
 4    1  0.2454657E-002  0.4288165E+03  0.7818608E-02  0.1034234E+00
          1   -1    0    0  502    0  0.00000000000E+00  0.00000000000E+00  0.13741519745E+04  0.13741519745E+04  0.00000000000E+00 0.  1.
         -1   -1    0    0    0  501 -0.00000000000E+00 -0.00000000000E+00 -0.16765750914E+03  0.16765750914E+03  0.00000000000E+00 0. -1.
    9000007    1    1    2  502    0 -0.10355439010E+03 -0.11471734835E+03  0.25689835248E+03  0.49988033091E+03  0.40000000000E+03 0. -1.
   -9000007    1    1    2    0  501  0.10355439010E+03  0.11471734835E+03  0.94959611286E+03  0.10419291527E+04  0.40000000000E+03 0.  1.
<mgrwt>
<rscale>  2 0.42881649E+03</rscale>
<asrwt>0</asrwt>
<pdfrwt beam="1">  1        1 0.21140799E+00 0.42881649E+03</pdfrwt>
<pdfrwt beam="2">  1       -1 0.25793464E-01 0.42881649E+03</pdfrwt>
<totfact> 0.11256539E+02</totfact>
</mgrwt>
</event>
<event>
 4    1  0.2454657E-002  0.4170954E+03  0.7818608E-02  0.1038016E+00
         -2   -1    0    0    0  501 -0.00000000000E+00  0.00000000000E+00  0.20458147979E+03  0.20458147979E+03  0.00000000000E+00 0.  1.
          2   -1    0    0  502    0  0.00000000000E+00 -0.00000000000E+00 -0.86900417901E+03  0.86900417901E+03  0.00000000000E+00 0. -1.
    9000007    1    1    2  502    0 -0.27475237656E+02 -0.11495086965E+03 -0.41083052126E+03  0.58544880930E+03  0.40000000000E+03 0. -1.
   -9000007    1    1    2    0  501  0.27475237656E+02  0.11495086965E+03 -0.25359217796E+03  0.48813684950E+03  0.40000000000E+03 0.  1.
<mgrwt>
<rscale>  2 0.41709542E+03</rscale>
<asrwt>0</asrwt>
<pdfrwt beam="1">  1        2 0.13369295E+00 0.41709542E+03</pdfrwt>
<pdfrwt beam="2">  1       -2 0.31474073E-01 0.41709542E+03</pdfrwt>
<totfact> 0.29650425E+02</totfact>
</mgrwt>
</event>
<event>
 4    1  0.2454657E-002  0.4484345E+03  0.7818608E-02  0.1028190E+00
          1   -1    0    0  502    0  0.00000000000E+00  0.00000000000E+00  0.39652887475E+03  0.39652887475E+03  0.00000000000E+00 0. -1.
         -1   -1    0    0    0  501 -0.00000000000E+00 -0.00000000000E+00 -0.94003767740E+03  0.94003767740E+03  0.00000000000E+00 0.  1.
    9000007    1    1    2  502    0 -0.34561183897E+01  0.20268576842E+03 -0.72526073659E+03  0.85269959629E+03  0.40000000000E+03 0.  1.
   -9000007    1    1    2    0  501  0.34561183897E+01 -0.20268576842E+03  0.18175193394E+03  0.48386695585E+03  0.40000000000E+03 0. -1.
<mgrwt>
<rscale>  2 0.44843446E+03</rscale>
<asrwt>0</asrwt>
<pdfrwt beam="1">  1        1 0.61004442E-01 0.44843446E+03</pdfrwt>
<pdfrwt beam="2">  1       -1 0.14462118E+00 0.44843446E+03</pdfrwt>
<totfact> 0.24870207E+01</totfact>
</mgrwt>
</event>
<event>
 4    1  0.2454657E-002  0.5463476E+03  0.7818608E-02  0.1002343E+00
         -1   -1    0    0    0  501 -0.00000000000E+00  0.00000000000E+00  0.29623266215E+03  0.29623266215E+03  0.00000000000E+00 0.  1.
          1   -1    0    0  502    0  0.00000000000E+00 -0.00000000000E+00 -0.10783836726E+04  0.10783836726E+04  0.00000000000E+00 0. -1.
    9000007    1    1    2  502    0  0.37210620538E+03  0.57144849352E+01 -0.21503577777E+03  0.58714229037E+03  0.40000000000E+03 0. -1.
   -9000007    1    1    2    0  501 -0.37210620538E+03 -0.57144849352E+01 -0.56711523266E+03  0.78747404436E+03  0.40000000000E+03 0. -1.
<mgrwt>
<rscale>  2 0.54634758E+03</rscale>
<asrwt>0</asrwt>
<pdfrwt beam="1">  1        1 0.16590518E+00 0.54634758E+03</pdfrwt>
<pdfrwt beam="2">  1       -1 0.45574256E-01 0.54634758E+03</pdfrwt>
<totfact> 0.65854017E+01</totfact>
</mgrwt>
</event>
<event>
 4    1  0.2454657E-002  0.4912878E+03  0.7818608E-02  0.1016078E+00
          1   -1    0    0  502    0  0.00000000000E+00  0.00000000000E+00  0.23323000402E+03  0.23323000402E+03  0.00000000000E+00 0. -1.
         -1   -1    0    0    0  501 -0.00000000000E+00 -0.00000000000E+00 -0.26498440960E+04  0.26498440960E+04  0.00000000000E+00 0.  1.
    9000007    1    1    2  502    0 -0.73413231296E+02 -0.27563420073E+03 -0.82930493173E+02  0.49823807747E+03  0.40000000000E+03 0. -1.
   -9000007    1    1    2    0  501  0.73413231296E+02  0.27563420073E+03 -0.23336835988E+04  0.23848360225E+04  0.40000000000E+03 0.  1.
<mgrwt>
<rscale>  2 0.49128781E+03</rscale>
<asrwt>0</asrwt>
<pdfrwt beam="1">  1        1 0.35881539E-01 0.49128781E+03</pdfrwt>
<pdfrwt beam="2">  1       -1 0.40766832E+00 0.49128781E+03</pdfrwt>
<totfact> 0.87284924E-01</totfact>
</mgrwt>
</event>
<event>
 4    1  0.2454657E-002  0.5094371E+03  0.7818608E-02  0.1011345E+00
          1   -1    0    0  502    0  0.00000000000E+00  0.00000000000E+00  0.19565340805E+04  0.19565340805E+04  0.00000000000E+00 0. -1.
         -1   -1    0    0    0  501 -0.00000000000E+00 -0.00000000000E+00 -0.20329637419E+03  0.20329637419E+03  0.00000000000E+00 0.  1.
    9000007    1    1    2  502    0 -0.31231772606E+03 -0.44540308378E+02  0.23999570629E+03  0.56313776300E+03  0.40000000000E+03 0.  1.
   -9000007    1    1    2    0  501  0.31231772606E+03  0.44540308378E+02  0.15132420000E+04  0.15966926917E+04  0.40000000000E+03 0. -1.
<mgrwt>
<rscale>  2 0.50943714E+03</rscale>
<asrwt>0</asrwt>
<pdfrwt beam="1">  1        1 0.30100523E+00 0.50943714E+03</pdfrwt>
<pdfrwt beam="2">  1       -1 0.31276366E-01 0.50943714E+03</pdfrwt>
<totfact> 0.32544517E+01</totfact>
</mgrwt>
</event>
<event>
 4    1  0.2454657E-002  0.4372299E+03  0.7818608E-02  0.1031600E+00
          2   -1    0    0  502    0  0.00000000000E+00  0.00000000000E+00  0.19573311314E+03  0.19573311314E+03  0.00000000000E+00 0. -1.
         -2   -1    0    0    0  501 -0.00000000000E+00 -0.00000000000E+00 -0.98986575876E+03  0.98986575876E+03  0.00000000000E+00 0.  1.
    9000007    1    1    2  502    0  0.17609826870E+03  0.12624047293E+02 -0.46546671485E+03  0.63861508708E+03  0.40000000000E+03 0. -1.
   -9000007    1    1    2    0  501 -0.17609826870E+03 -0.12624047293E+02 -0.32866593077E+03  0.54698378482E+03  0.40000000000E+03 0. -1.
<mgrwt>
<rscale>  2 0.43722988E+03</rscale>
<asrwt>0</asrwt>
<pdfrwt beam="1">  1        2 0.30112787E-01 0.43722988E+03</pdfrwt>
<pdfrwt beam="2">  1       -2 0.15228704E+00 0.43722988E+03</pdfrwt>
<totfact> 0.52673772E+01</totfact>
</mgrwt>
</event>
<event>
 4    1  0.2454657E-002  0.4709453E+03  0.7818608E-02  0.1021654E+00
         -2   -1    0    0    0  501 -0.00000000000E+00  0.00000000000E+00  0.53969852055E+03  0.53969852055E+03  0.00000000000E+00 0. -1.
          2   -1    0    0  502    0  0.00000000000E+00 -0.00000000000E+00 -0.10869992419E+04  0.10869992419E+04  0.00000000000E+00 0.  1.
    9000007    1    1    2  502    0 -0.86404002204E+02  0.23307480026E+03 -0.91508317810E+03  0.10291582662E+04  0.40000000000E+03 0.  1.
   -9000007    1    1    2    0  501  0.86404002204E+02 -0.23307480026E+03  0.36778245672E+03  0.59753949625E+03  0.40000000000E+03 0. -1.
<mgrwt>
<rscale>  2 0.47094534E+03</rscale>
<asrwt>0</asrwt>
<pdfrwt beam="1">  1        2 0.16723065E+00 0.47094534E+03</pdfrwt>
<pdfrwt beam="2">  1       -2 0.83030542E-01 0.47094534E+03</pdfrwt>
<totfact> 0.29721284E+01</totfact>
</mgrwt>
</event>
<event>
 4    1  0.2454657E-002  0.4213177E+03  0.7818608E-02  0.1036638E+00
          2   -1    0    0  502    0  0.00000000000E+00  0.00000000000E+00  0.12480894685E+04  0.12480894685E+04  0.00000000000E+00 0. -1.
         -2   -1    0    0    0  501 -0.00000000000E+00 -0.00000000000E+00 -0.18593572232E+03  0.18593572232E+03  0.00000000000E+00 0.  1.
    9000007    1    1    2  502    0 -0.11747281649E+03 -0.60899221750E+02  0.87872758859E+03  0.97451051958E+03  0.40000000000E+03 0. -1.
   -9000007    1    1    2    0  501  0.11747281649E+03  0.60899221750E+02  0.18342615764E+03  0.45951467129E+03  0.40000000000E+03 0.  1.
<mgrwt>
<rscale>  2 0.42131767E+03</rscale>
<asrwt>0</asrwt>
<pdfrwt beam="1">  1        2 0.19201376E+00 0.42131767E+03</pdfrwt>
<pdfrwt beam="2">  1       -2 0.28605497E-01 0.42131767E+03</pdfrwt>
<totfact> 0.20681570E+02</totfact>
</mgrwt>
</event>
<event>
 4    1  0.2454657E-002  0.4128284E+03  0.7818608E-02  0.1039426E+00
          2   -1    0    0  502    0  0.00000000000E+00  0.00000000000E+00  0.10309441477E+04  0.10309441477E+04  0.00000000000E+00 0. -1.
         -2   -1    0    0    0  501 -0.00000000000E+00 -0.00000000000E+00 -0.43293951797E+03  0.43293951797E+03  0.00000000000E+00 0.  1.
    9000007    1    1    2  502    0  0.46364503986E+02 -0.90981542751E+02 -0.27647530740E+03  0.49685601934E+03  0.40000000000E+03 0.  1.
   -9000007    1    1    2    0  501 -0.46364503986E+02  0.90981542751E+02  0.87447993710E+03  0.96702764632E+03  0.40000000000E+03 0. -1.
<mgrwt>
<rscale>  2 0.41282842E+03</rscale>
<asrwt>0</asrwt>
<pdfrwt beam="1">  1        2 0.15860679E+00 0.41282842E+03</pdfrwt>
<pdfrwt beam="2">  1       -2 0.66606080E-01 0.41282842E+03</pdfrwt>
<totfact> 0.52659879E+01</totfact>
</mgrwt>
</event>
<event>
 4    1  0.2454657E-002  0.4095074E+03  0.7818608E-02  0.1040536E+00
          1   -1    0    0  502    0  0.00000000000E+00  0.00000000000E+00  0.62948478476E+03  0.62948478476E+03  0.00000000000E+00 0.  1.
         -1   -1    0    0    0  501 -0.00000000000E+00 -0.00000000000E+00 -0.28075446169E+03  0.28075446169E+03  0.00000000000E+00 0. -1.
    9000007    1    1    2  502    0 -0.53310223895E+02 -0.69673298361E+02  0.71464732499E+02  0.41569647156E+03  0.40000000000E+03 0. -1.
   -9000007    1    1    2    0  501  0.53310223895E+02  0.69673298361E+02  0.27726559057E+03  0.49454277488E+03  0.40000000000E+03 0.  1.
<mgrwt>
<rscale>  2 0.40950745E+03</rscale>
<asrwt>0</asrwt>
<pdfrwt beam="1">  1        1 0.96843812E-01 0.40950745E+03</pdfrwt>
<pdfrwt beam="2">  1       -1 0.43192994E-01 0.40950745E+03</pdfrwt>
<totfact> 0.17565660E+02</totfact>
</mgrwt>
</event>
<event>
 4    1  0.2454657E-002  0.4940075E+03  0.7818608E-02  0.1015355E+00
         -2   -1    0    0    0  501 -0.00000000000E+00  0.00000000000E+00  0.70772262595E+02  0.70772262595E+02  0.00000000000E+00 0. -1.
          2   -1    0    0  502    0  0.00000000000E+00 -0.00000000000E+00 -0.34531614195E+04  0.34531614195E+04  0.00000000000E+00 0.  1.
    9000007    1    1    2  502    0  0.21907237561E+03  0.18987016349E+03 -0.17573635633E+04  0.18254780410E+04  0.40000000000E+03 0. -1.
   -9000007    1    1    2    0  501 -0.21907237561E+03 -0.18987016349E+03 -0.16250255937E+04  0.16984556411E+04  0.40000000000E+03 0. -1.
<mgrwt>
<rscale>  2 0.49400747E+03</rscale>
<asrwt>0</asrwt>
<pdfrwt beam="1">  1        2 0.53125553E+00 0.49400747E+03</pdfrwt>
<pdfrwt beam="2">  1       -2 0.10888042E-01 0.49400747E+03</pdfrwt>
<totfact> 0.58943071E+01</totfact>
</mgrwt>
</event>
<event>
 4    1  0.2454657E-002  0.4367734E+03  0.7818608E-02  0.1031741E+00
         -2   -1    0    0    0  501 -0.00000000000E+00  0.00000000000E+00  0.15778808419E+03  0.15778808419E+03  0.00000000000E+00 0. -1.
          2   -1    0    0  502    0  0.00000000000E+00 -0.00000000000E+00 -0.14200445926E+04  0.14200445926E+04  0.00000000000E+00 0.  1.
    9000007    1    1    2  502    0  0.17377176550E+03  0.23966537352E+02 -0.32701665684E+03  0.54562891717E+03  0.40000000000E+03 0. -1.
   -9000007    1    1    2    0  501 -0.17377176550E+03 -0.23966537352E+02 -0.93523985155E+03  0.10322037596E+04  0.40000000000E+03 0.  1.
<mgrwt>
<rscale>  2 0.43677342E+03</rscale>
<asrwt>0</asrwt>
<pdfrwt beam="1">  1        2 0.21846840E+00 0.43677342E+03</pdfrwt>
<pdfrwt beam="2">  1       -2 0.24275090E-01 0.43677342E+03</pdfrwt>
<totfact> 0.22215405E+02</totfact>
</mgrwt>
</event>
<event>
 4    1  0.2454657E-002  0.4386440E+03  0.7818608E-02  0.1031164E+00
         -2   -1    0    0    0  501 -0.00000000000E+00  0.00000000000E+00  0.53319454924E+03  0.53319454924E+03  0.00000000000E+00 0. -1.
          2   -1    0    0  502    0  0.00000000000E+00 -0.00000000000E+00 -0.40799474607E+03  0.40799474607E+03  0.00000000000E+00 0.  1.
    9000007    1    1    2  502    0 -0.14964454556E+03  0.10007514102E+03 -0.97352517471E+02  0.44931730049E+03  0.40000000000E+03 0.  1.
   -9000007    1    1    2    0  501  0.14964454556E+03 -0.10007514102E+03  0.22255232064E+03  0.49187199482E+03  0.40000000000E+03 0. -1.
<mgrwt>
<rscale>  2 0.43864396E+03</rscale>
<asrwt>0</asrwt>
<pdfrwt beam="1">  1        2 0.62768422E-01 0.43864396E+03</pdfrwt>
<pdfrwt beam="2">  1       -2 0.82029931E-01 0.43864396E+03</pdfrwt>
<totfact> 0.10461498E+02</totfact>
</mgrwt>
</event>
<event>
 4    1  0.2454657E-002  0.5192032E+03  0.7818608E-02  0.1008885E+00
          2   -1    0    0  502    0  0.00000000000E+00  0.00000000000E+00  0.13345220302E+04  0.13345220302E+04  0.00000000000E+00 0. -1.
         -2   -1    0    0    0  501 -0.00000000000E+00 -0.00000000000E+00 -0.41353035722E+03  0.41353035722E+03  0.00000000000E+00 0.  1.
    9000007    1    1    2  502    0 -0.27899570980E+03 -0.17813871559E+03  0.10856083757E+04  0.12033775606E+04  0.40000000000E+03 0. -1.
   -9000007    1    1    2    0  501  0.27899570980E+03  0.17813871559E+03 -0.16461670273E+03  0.54467482675E+03  0.40000000000E+03 0.  1.
<mgrwt>
<rscale>  2 0.51920324E+03</rscale>
<asrwt>0</asrwt>
<pdfrwt beam="1">  1        2 0.20531108E+00 0.51920324E+03</pdfrwt>
<pdfrwt beam="2">  1       -2 0.63620056E-01 0.51920324E+03</pdfrwt>
<totfact> 0.37899111E+01</totfact>
</mgrwt>
</event>
<event>
 4    1  0.2454657E-002  0.6659339E+03  0.7818608E-02  0.9777331E-01
          2   -1    0    0  502    0  0.00000000000E+00  0.00000000000E+00  0.65969674881E+03  0.65969674881E+03  0.00000000000E+00 0. -1.
         -2   -1    0    0    0  501 -0.00000000000E+00 -0.00000000000E+00 -0.93186805593E+03  0.93186805593E+03  0.00000000000E+00 0.  1.
    9000007    1    1    2  502    0 -0.52799159648E+03  0.68504075496E+02  0.28396465422E+03  0.72395017726E+03  0.40000000000E+03 0. -1.
   -9000007    1    1    2    0  501  0.52799159648E+03 -0.68504075496E+02 -0.55613596134E+03  0.86761462747E+03  0.40000000000E+03 0.  1.
<mgrwt>
<rscale>  2 0.66593388E+03</rscale>
<asrwt>0</asrwt>
<pdfrwt beam="1">  1        2 0.10149181E+00 0.66593388E+03</pdfrwt>
<pdfrwt beam="2">  1       -2 0.14336432E+00 0.66593388E+03</pdfrwt>
<totfact> 0.15251002E+01</totfact>
</mgrwt>
</event>
<event>
 4    1  0.2454657E-002  0.4721549E+03  0.7818608E-02  0.1021314E+00
          2   -1    0    0  502    0  0.00000000000E+00  0.00000000000E+00  0.69709348639E+03  0.69709348639E+03  0.00000000000E+00 0.  1.
         -2   -1    0    0    0  501 -0.00000000000E+00 -0.00000000000E+00 -0.35401429186E+03  0.35401429186E+03  0.00000000000E+00 0. -1.
    9000007    1    1    2  502    0 -0.24220846629E+03  0.65309341187E+02  0.33492485669E+03  0.57888246719E+03  0.40000000000E+03 0.  1.
   -9000007    1    1    2    0  501  0.24220846629E+03 -0.65309341187E+02  0.81543378344E+01  0.47222531107E+03  0.40000000000E+03 0.  1.
<mgrwt>
<rscale>  2 0.47215490E+03</rscale>
<asrwt>0</asrwt>
<pdfrwt beam="1">  1        2 0.10724515E+00 0.47215490E+03</pdfrwt>
<pdfrwt beam="2">  1       -2 0.54463738E-01 0.47215490E+03</pdfrwt>
<totfact> 0.13470416E+02</totfact>
</mgrwt>
</event>
<event>
 4    1  0.2454657E-002  0.4048418E+03  0.7818608E-02  0.1042116E+00
         -1   -1    0    0    0  501 -0.00000000000E+00  0.00000000000E+00  0.17372120111E+03  0.17372120111E+03  0.00000000000E+00 0.  1.
          1   -1    0    0  502    0  0.00000000000E+00 -0.00000000000E+00 -0.94374504473E+03  0.94374504473E+03  0.00000000000E+00 0. -1.
    9000007    1    1    2  502    0  0.61733299737E+02  0.92674395389E+01 -0.37509604635E+03  0.55190028965E+03  0.40000000000E+03 0.  1.
   -9000007    1    1    2    0  501 -0.61733299737E+02 -0.92674395389E+01 -0.39492779727E+03  0.56556595618E+03  0.40000000000E+03 0.  1.
<mgrwt>
<rscale>  2 0.40484180E+03</rscale>
<asrwt>0</asrwt>
<pdfrwt beam="1">  1        1 0.14519154E+00 0.40484180E+03</pdfrwt>
<pdfrwt beam="2">  1       -1 0.26726339E-01 0.40484180E+03</pdfrwt>
<totfact> 0.21788846E+02</totfact>
</mgrwt>
</event>
<event>
 4    1  0.2454657E-002  0.4019862E+03  0.7818608E-02  0.1043094E+00
          1   -1    0    0  502    0  0.00000000000E+00  0.00000000000E+00  0.30779695737E+04  0.30779695737E+04  0.00000000000E+00 0.  1.
         -1   -1    0    0    0  501 -0.00000000000E+00 -0.00000000000E+00 -0.52918507832E+02  0.52918507832E+02  0.00000000000E+00 0. -1.
    9000007    1    1    2  502    0 -0.23088102357E+02  0.32554952589E+02  0.13732827426E+04  0.14309082349E+04  0.40000000000E+03 0. -1.
   -9000007    1    1    2    0  501  0.23088102357E+02 -0.32554952589E+02  0.16517683232E+04  0.16999798467E+04  0.40000000000E+03 0.  1.
<mgrwt>
<rscale>  2 0.40198618E+03</rscale>
<asrwt>0</asrwt>
<pdfrwt beam="1">  1        1 0.47353364E+00 0.40198618E+03</pdfrwt>
<pdfrwt beam="2">  1       -1 0.81413113E-02 0.40198618E+03</pdfrwt>
<totfact> 0.51480966E+01</totfact>
</mgrwt>
</event>
<event>
 4    1  0.2454657E-002  0.5831685E+03  0.7818608E-02  0.9940955E-01
          1   -1    0    0  502    0  0.00000000000E+00  0.00000000000E+00  0.73977113980E+03  0.73977113980E+03  0.00000000000E+00 0.  1.
         -1   -1    0    0    0  501 -0.00000000000E+00 -0.00000000000E+00 -0.59454440292E+03  0.59454440292E+03  0.00000000000E+00 0. -1.
    9000007    1    1    2  502    0  0.10002815174E+03  0.41240738213E+03 -0.24509250583E+03  0.63257870371E+03  0.40000000000E+03 0. -1.
   -9000007    1    1    2    0  501 -0.10002815174E+03 -0.41240738213E+03  0.39031924271E+03  0.70173683900E+03  0.40000000000E+03 0.  1.
<mgrwt>
<rscale>  2 0.58316848E+03</rscale>
<asrwt>0</asrwt>
<pdfrwt beam="1">  1        1 0.11381094E+00 0.58316848E+03</pdfrwt>
<pdfrwt beam="2">  1       -1 0.91468369E-01 0.58316848E+03</pdfrwt>
<totfact> 0.30487892E+01</totfact>
</mgrwt>
</event>
<event>
 4    1  0.2454657E-002  0.4135221E+03  0.7818608E-02  0.1039195E+00
         -2   -1    0    0    0  501 -0.00000000000E+00  0.00000000000E+00  0.94663548437E+02  0.94663548437E+02  0.00000000000E+00 0.  1.
          2   -1    0    0  502    0  0.00000000000E+00 -0.00000000000E+00 -0.19108829478E+04  0.19108829478E+04  0.00000000000E+00 0. -1.
    9000007    1    1    2  502    0 -0.10152376705E+03 -0.26334153897E+02 -0.11425872031E+04  0.12151156651E+04  0.40000000000E+03 0. -1.
   -9000007    1    1    2    0  501  0.10152376705E+03  0.26334153897E+02 -0.67363219627E+03  0.79043083112E+03  0.40000000000E+03 0.  1.
<mgrwt>
<rscale>  2 0.41352214E+03</rscale>
<asrwt>0</asrwt>
<pdfrwt beam="1">  1        2 0.29398197E+00 0.41352214E+03</pdfrwt>
<pdfrwt beam="2">  1       -2 0.14563624E-01 0.41352214E+03</pdfrwt>
<totfact> 0.29170206E+02</totfact>
</mgrwt>
</event>
<event>
 4    1  0.2454657E-002  0.4276738E+03  0.7818608E-02  0.1034597E+00
          2   -1    0    0  502    0  0.00000000000E+00  0.00000000000E+00  0.27518366137E+04  0.27518366137E+04  0.00000000000E+00 0.  1.
         -2   -1    0    0    0  501 -0.00000000000E+00 -0.00000000000E+00 -0.67455719701E+02  0.67455719701E+02  0.00000000000E+00 0. -1.
    9000007    1    1    2  502    0 -0.14875818270E+03 -0.27855399179E+02  0.15128966667E+04  0.15721835912E+04  0.40000000000E+03 0.  1.
   -9000007    1    1    2    0  501  0.14875818270E+03  0.27855399179E+02  0.11714842273E+04  0.12471087423E+04  0.40000000000E+03 0.  1.
<mgrwt>
<rscale>  2 0.42767385E+03</rscale>
<asrwt>0</asrwt>
<pdfrwt beam="1">  1        2 0.42335939E+00 0.42767385E+03</pdfrwt>
<pdfrwt beam="2">  1       -2 0.10377805E-01 0.42767385E+03</pdfrwt>
<totfact> 0.17512396E+02</totfact>
</mgrwt>
</event>
<event>
 4    1  0.2454657E-002  0.4254634E+03  0.7818608E-02  0.1035303E+00
         -1   -1    0    0    0  501 -0.00000000000E+00  0.00000000000E+00  0.23931748929E+03  0.23931748929E+03  0.00000000000E+00 0.  1.
          1   -1    0    0  502    0  0.00000000000E+00 -0.00000000000E+00 -0.75666690004E+03  0.75666690004E+03  0.00000000000E+00 0. -1.
    9000007    1    1    2  502    0  0.72914662232E+02  0.12530977396E+03 -0.26807587102E+03  0.50287549159E+03  0.40000000000E+03 0.  1.
   -9000007    1    1    2    0  501 -0.72914662232E+02 -0.12530977396E+03 -0.24927353974E+03  0.49310889774E+03  0.40000000000E+03 0. -1.
<mgrwt>
<rscale>  2 0.42546338E+03</rscale>
<asrwt>0</asrwt>
<pdfrwt beam="1">  1        1 0.11641029E+00 0.42546338E+03</pdfrwt>
<pdfrwt beam="2">  1       -1 0.36818076E-01 0.42546338E+03</pdfrwt>
<totfact> 0.17798044E+02</totfact>
</mgrwt>
</event>
<event>
 4    1  0.2454657E-002  0.4153973E+03  0.7818608E-02  0.1038575E+00
          2   -1    0    0  502    0  0.00000000000E+00  0.00000000000E+00  0.56883084587E+03  0.56883084587E+03  0.00000000000E+00 0. -1.
         -2   -1    0    0    0  501 -0.00000000000E+00 -0.00000000000E+00 -0.42331450365E+03  0.42331450365E+03  0.00000000000E+00 0.  1.
    9000007    1    1    2  502    0  0.14794022653E+02  0.11106781438E+03 -0.19132446108E+03  0.45734010529E+03  0.40000000000E+03 0. -1.
   -9000007    1    1    2    0  501 -0.14794022653E+02 -0.11106781438E+03  0.33684080329E+03  0.53480524423E+03  0.40000000000E+03 0. -1.
<mgrwt>
<rscale>  2 0.41539731E+03</rscale>
<asrwt>0</asrwt>
<pdfrwt beam="1">  1        2 0.87512438E-01 0.41539731E+03</pdfrwt>
<pdfrwt beam="2">  1       -2 0.65125308E-01 0.41539731E+03</pdfrwt>
<totfact> 0.11896507E+02</totfact>
</mgrwt>
</event>
<event>
 4    1  0.2454657E-002  0.4044187E+03  0.7818608E-02  0.1042260E+00
          1   -1    0    0  502    0  0.00000000000E+00  0.00000000000E+00  0.19433611056E+04  0.19433611056E+04  0.00000000000E+00 0.  1.
         -1   -1    0    0    0  501 -0.00000000000E+00 -0.00000000000E+00 -0.18213328952E+03  0.18213328952E+03  0.00000000000E+00 0. -1.
    9000007    1    1    2  502    0 -0.58825422597E+02  0.96968191156E+01  0.16600630670E+04  0.17086145982E+04  0.40000000000E+03 0.  1.
   -9000007    1    1    2    0  501  0.58825422597E+02 -0.96968191156E+01  0.10116474906E+03  0.41687979694E+03  0.40000000000E+03 0. -1.
<mgrwt>
<rscale>  2 0.40441867E+03</rscale>
<asrwt>0</asrwt>
<pdfrwt beam="1">  1        1 0.29897862E+00 0.40441867E+03</pdfrwt>
<pdfrwt beam="2">  1       -1 0.28020507E-01 0.40441867E+03</pdfrwt>
<totfact> 0.41027362E+01</totfact>
</mgrwt>
</event>
<event>
 4    1  0.2454657E-002  0.4308278E+03  0.7818608E-02  0.1033599E+00
          2   -1    0    0  502    0  0.00000000000E+00  0.00000000000E+00  0.17754351877E+04  0.17754351877E+04  0.00000000000E+00 0. -1.
         -2   -1    0    0    0  501 -0.00000000000E+00 -0.00000000000E+00 -0.10458331387E+03  0.10458331387E+03  0.00000000000E+00 0.  1.
    9000007    1    1    2  502    0  0.55111768717E+02 -0.15025063667E+03  0.81739289692E+03  0.92398252624E+03  0.40000000000E+03 0. -1.
   -9000007    1    1    2    0  501 -0.55111768717E+02  0.15025063667E+03  0.85345897694E+03  0.95603597536E+03  0.40000000000E+03 0.  1.
<mgrwt>
<rscale>  2 0.43082776E+03</rscale>
<asrwt>0</asrwt>
<pdfrwt beam="1">  1        2 0.27314385E+00 0.43082776E+03</pdfrwt>
<pdfrwt beam="2">  1       -2 0.16089742E-01 0.43082776E+03</pdfrwt>
<totfact> 0.29087433E+02</totfact>
</mgrwt>
</event>
<event>
 4    1  0.2454657E-002  0.4398179E+03  0.7818608E-02  0.1030803E+00
         -1   -1    0    0    0  501 -0.00000000000E+00  0.00000000000E+00  0.19013221756E+03  0.19013221756E+03  0.00000000000E+00 0. -1.
          1   -1    0    0  502    0  0.00000000000E+00 -0.00000000000E+00 -0.10630138326E+04  0.10630138326E+04  0.00000000000E+00 0.  1.
    9000007    1    1    2  502    0  0.18247949628E+03  0.11873544599E+02 -0.30664226680E+03  0.53616156838E+03  0.40000000000E+03 0. -1.
   -9000007    1    1    2    0  501 -0.18247949628E+03 -0.11873544599E+02 -0.56623934824E+03  0.71698448179E+03  0.40000000000E+03 0. -1.
<mgrwt>
<rscale>  2 0.43981786E+03</rscale>
<asrwt>0</asrwt>
<pdfrwt beam="1">  1        1 0.16354059E+00 0.43981786E+03</pdfrwt>
<pdfrwt beam="2">  1       -1 0.29251110E-01 0.43981786E+03</pdfrwt>
<totfact> 0.15090484E+02</totfact>
</mgrwt>
</event>
<event>
 4    1  0.2454657E-002  0.4359683E+03  0.7818608E-02  0.1031991E+00
          2   -1    0    0  502    0  0.00000000000E+00  0.00000000000E+00  0.41772554713E+03  0.41772554713E+03  0.00000000000E+00 0. -1.
         -2   -1    0    0    0  501 -0.00000000000E+00 -0.00000000000E+00 -0.46633096791E+03  0.46633096791E+03  0.00000000000E+00 0.  1.
    9000007    1    1    2  502    0 -0.17324618989E+03  0.73545193056E+01 -0.93182088468E+02  0.44581524523E+03  0.40000000000E+03 0.  1.
   -9000007    1    1    2    0  501  0.17324618989E+03 -0.73545193056E+01  0.44576667692E+02  0.43824126981E+03  0.40000000000E+03 0. -1.
<mgrwt>
<rscale>  2 0.43596827E+03</rscale>
<asrwt>0</asrwt>
<pdfrwt beam="1">  1        2 0.64265469E-01 0.43596827E+03</pdfrwt>
<pdfrwt beam="2">  1       -2 0.71743226E-01 0.43596827E+03</pdfrwt>
<totfact> 0.13705458E+02</totfact>
</mgrwt>
</event>
<event>
 4    1  0.2454657E-002  0.4145140E+03  0.7818608E-02  0.1038867E+00
          2   -1    0    0  502    0  0.00000000000E+00  0.00000000000E+00  0.19977892206E+04  0.19977892206E+04  0.00000000000E+00 0. -1.
         -2   -1    0    0    0  501 -0.00000000000E+00 -0.00000000000E+00 -0.89229081727E+02  0.89229081727E+02  0.00000000000E+00 0.  1.
    9000007    1    1    2  502    0  0.59709889834E+02 -0.90865690791E+02  0.75595426931E+03  0.86214192683E+03  0.40000000000E+03 0.  1.
   -9000007    1    1    2    0  501 -0.59709889834E+02  0.90865690791E+02  0.11526058696E+04  0.12248763755E+04  0.40000000000E+03 0.  1.
<mgrwt>
<rscale>  2 0.41451399E+03</rscale>
<asrwt>0</asrwt>
<pdfrwt beam="1">  1        2 0.30735216E+00 0.41451399E+03</pdfrwt>
<pdfrwt beam="2">  1       -2 0.13727552E-01 0.41451399E+03</pdfrwt>
<totfact> 0.28916500E+02</totfact>
</mgrwt>
</event>
<event>
 4    1  0.2454657E-002  0.4002912E+03  0.7818608E-02  0.1043679E+00
          1   -1    0    0  502    0  0.00000000000E+00  0.00000000000E+00  0.11974747932E+04  0.11974747932E+04  0.00000000000E+00 0.  1.
         -1   -1    0    0    0  501 -0.00000000000E+00 -0.00000000000E+00 -0.16333651798E+03  0.16333651798E+03  0.00000000000E+00 0. -1.
    9000007    1    1    2  502    0 -0.13588843249E+02  0.69548082569E+01  0.80636284950E+03  0.90025222637E+03  0.40000000000E+03 0.  1.
   -9000007    1    1    2    0  501  0.13588843249E+02 -0.69548082569E+01  0.22777542568E+03  0.46055908477E+03  0.40000000000E+03 0. -1.
<mgrwt>
<rscale>  2 0.40029118E+03</rscale>
<asrwt>0</asrwt>
<pdfrwt beam="1">  1        1 0.18422689E+00 0.40029118E+03</pdfrwt>
<pdfrwt beam="2">  1       -1 0.25128696E-01 0.40029118E+03</pdfrwt>
<totfact> 0.15687195E+02</totfact>
</mgrwt>
</event>
<event>
 4    1  0.2454657E-002  0.4679778E+03  0.7818608E-02  0.1022493E+00
         -2   -1    0    0    0  501 -0.00000000000E+00  0.00000000000E+00  0.56266762123E+03  0.56266762123E+03  0.00000000000E+00 0.  1.
          2   -1    0    0  502    0  0.00000000000E+00 -0.00000000000E+00 -0.41100812686E+03  0.41100812686E+03  0.00000000000E+00 0. -1.
    9000007    1    1    2  502    0  0.15885023538E+03 -0.18376563526E+03  0.18791248499E+03  0.50429585364E+03  0.40000000000E+03 0.  1.
   -9000007    1    1    2    0  501 -0.15885023538E+03  0.18376563526E+03 -0.36252990623E+02  0.46937989445E+03  0.40000000000E+03 0.  1.
<mgrwt>
<rscale>  2 0.46797778E+03</rscale>
<asrwt>0</asrwt>
<pdfrwt beam="1">  1        2 0.63232020E-01 0.46797778E+03</pdfrwt>
<pdfrwt beam="2">  1       -2 0.86564249E-01 0.46797778E+03</pdfrwt>
<totfact> 0.91689295E+01</totfact>
</mgrwt>
</event>
<event>
 4    1  0.2454657E-002  0.5113355E+03  0.7818608E-02  0.1010862E+00
         -2   -1    0    0    0  501 -0.00000000000E+00  0.00000000000E+00  0.11703238993E+03  0.11703238993E+03  0.00000000000E+00 0. -1.
          2   -1    0    0  502    0  0.00000000000E+00 -0.00000000000E+00 -0.23881162725E+04  0.23881162725E+04  0.00000000000E+00 0.  1.
    9000007    1    1    2  502    0 -0.30660094945E+03  0.86370191981E+02 -0.81746198096E+03  0.96421369135E+03  0.40000000000E+03 0. -1.
   -9000007    1    1    2    0  501  0.30660094945E+03 -0.86370191981E+02 -0.14536219016E+04  0.15409349711E+04  0.40000000000E+03 0. -1.
<mgrwt>
<rscale>  2 0.51133546E+03</rscale>
<asrwt>0</asrwt>
<pdfrwt beam="1">  1        2 0.36740251E+00 0.51133546E+03</pdfrwt>
<pdfrwt beam="2">  1       -2 0.18004983E-01 0.51133546E+03</pdfrwt>
<totfact> 0.11068300E+02</totfact>
</mgrwt>
</event>
<event>
 4    1  0.2454657E-002  0.5516776E+03  0.7818608E-02  0.1001106E+00
         -2   -1    0    0    0  501 -0.00000000000E+00  0.00000000000E+00  0.15590458853E+03  0.15590458853E+03  0.00000000000E+00 0. -1.
          2   -1    0    0  502    0  0.00000000000E+00 -0.00000000000E+00 -0.27030906219E+04  0.27030906219E+04  0.00000000000E+00 0.  1.
    9000007    1    1    2  502    0 -0.32745689119E+03  0.19266590921E+03 -0.20270487387E+04  0.21007795594E+04  0.40000000000E+03 0.  1.
   -9000007    1    1    2    0  501  0.32745689119E+03 -0.19266590921E+03 -0.52013729468E+03  0.75821565104E+03  0.40000000000E+03 0. -1.
<mgrwt>
<rscale>  2 0.55167759E+03</rscale>
<asrwt>0</asrwt>
<pdfrwt beam="1">  1        2 0.41586013E+00 0.55167759E+03</pdfrwt>
<pdfrwt beam="2">  1       -2 0.23985320E-01 0.55167759E+03</pdfrwt>
<totfact> 0.44190503E+01</totfact>
</mgrwt>
</event>
<event>
 4    1  0.2454657E-002  0.4139662E+03  0.7818608E-02  0.1039048E+00
         -1   -1    0    0    0  501 -0.00000000000E+00  0.00000000000E+00  0.23345480942E+03  0.23345480942E+03  0.00000000000E+00 0.  1.
          1   -1    0    0  502    0  0.00000000000E+00 -0.00000000000E+00 -0.84718018051E+03  0.84718018051E+03  0.00000000000E+00 0. -1.
    9000007    1    1    2  502    0 -0.63332475951E+02 -0.85772983829E+02 -0.50430772589E+03  0.65245251908E+03  0.40000000000E+03 0. -1.
   -9000007    1    1    2    0  501  0.63332475951E+02  0.85772983829E+02 -0.10941764520E+03  0.42818247085E+03  0.40000000000E+03 0.  1.
<mgrwt>
<rscale>  2 0.41396619E+03</rscale>
<asrwt>0</asrwt>
<pdfrwt beam="1">  1        1 0.13033542E+00 0.41396619E+03</pdfrwt>
<pdfrwt beam="2">  1       -1 0.35916124E-01 0.41396619E+03</pdfrwt>
<totfact> 0.15596001E+02</totfact>
</mgrwt>
</event>
<event>
 4    1  0.2454657E-002  0.5516389E+03  0.7818608E-02  0.1001115E+00
          1   -1    0    0  502    0  0.00000000000E+00  0.00000000000E+00  0.24480047703E+04  0.24480047703E+04  0.00000000000E+00 0.  1.
         -1   -1    0    0    0  501 -0.00000000000E+00 -0.00000000000E+00 -0.12478384588E+03  0.12478384588E+03  0.00000000000E+00 0. -1.
    9000007    1    1    2  502    0  0.31003971973E+03  0.21950136277E+03  0.10821349725E+04  0.12146281632E+04  0.40000000000E+03 0. -1.
   -9000007    1    1    2    0  501 -0.31003971973E+03 -0.21950136277E+03  0.12410859519E+04  0.13581604530E+04  0.40000000000E+03 0.  1.
<mgrwt>
<rscale>  2 0.55163890E+03</rscale>
<asrwt>0</asrwt>
<pdfrwt beam="1">  1        1 0.37661608E+00 0.55163890E+03</pdfrwt>
<pdfrwt beam="2">  1       -1 0.19197517E-01 0.55163890E+03</pdfrwt>
<totfact> 0.34685548E+01</totfact>
</mgrwt>
</event>
<event>
 4    1  0.2454657E-002  0.4067870E+03  0.7818608E-02  0.1041455E+00
         -1   -1    0    0    0  501 -0.00000000000E+00  0.00000000000E+00  0.48990222755E+02  0.48990222755E+02  0.00000000000E+00 0. -1.
          1   -1    0    0  502    0  0.00000000000E+00 -0.00000000000E+00 -0.36560888856E+04  0.36560888856E+04  0.00000000000E+00 0.  1.
    9000007    1    1    2  502    0 -0.69755061306E+02 -0.24695555191E+02 -0.23147169690E+04  0.23501894149E+04  0.40000000000E+03 0.  1.
   -9000007    1    1    2    0  501  0.69755061306E+02  0.24695555191E+02 -0.12923816938E+04  0.13548896935E+04  0.40000000000E+03 0. -1.
<mgrwt>
<rscale>  2 0.40678697E+03</rscale>
<asrwt>0</asrwt>
<pdfrwt beam="1">  1        1 0.56247523E+00 0.40678697E+03</pdfrwt>
<pdfrwt beam="2">  1       -1 0.75369571E-02 0.40678697E+03</pdfrwt>
<totfact> 0.21420227E+01</totfact>
</mgrwt>
</event>
<event>
 4    1  0.2454657E-002  0.4291275E+03  0.7818608E-02  0.1034136E+00
         -2   -1    0    0    0  501 -0.00000000000E+00  0.00000000000E+00  0.21955339198E+03  0.21955339198E+03  0.00000000000E+00 0.  1.
          2   -1    0    0  502    0  0.00000000000E+00 -0.00000000000E+00 -0.10431179131E+04  0.10431179131E+04  0.00000000000E+00 0. -1.
    9000007    1    1    2  502    0 -0.11724643822E+03 -0.10199830041E+03 -0.69122967718E+03  0.81360238887E+03  0.40000000000E+03 0. -1.
   -9000007    1    1    2    0  501  0.11724643822E+03  0.10199830041E+03 -0.13233484390E+03  0.44906891617E+03  0.40000000000E+03 0.  1.
<mgrwt>
<rscale>  2 0.42912746E+03</rscale>
<asrwt>0</asrwt>
<pdfrwt beam="1">  1        2 0.16047968E+00 0.42912746E+03</pdfrwt>
<pdfrwt beam="2">  1       -2 0.33777444E-01 0.42912746E+03</pdfrwt>
<totfact> 0.20084706E+02</totfact>
</mgrwt>
</event>
<event>
 4    1  0.2454657E-002  0.4542393E+03  0.7818608E-02  0.1026465E+00
          1   -1    0    0  502    0  0.00000000000E+00  0.00000000000E+00  0.80005079863E+03  0.80005079863E+03  0.00000000000E+00 0. -1.
         -1   -1    0    0    0  501 -0.00000000000E+00 -0.00000000000E+00 -0.32635484222E+03  0.32635484222E+03  0.00000000000E+00 0.  1.
    9000007    1    1    2  502    0 -0.20391678518E+03 -0.68929546085E+02 -0.21093354421E+02  0.45472878423E+03  0.40000000000E+03 0.  1.
   -9000007    1    1    2    0  501  0.20391678518E+03  0.68929546085E+02  0.49478931084E+03  0.67167685662E+03  0.40000000000E+03 0. -1.
<mgrwt>
<rscale>  2 0.45423930E+03</rscale>
<asrwt>0</asrwt>
<pdfrwt beam="1">  1        1 0.12308474E+00 0.45423930E+03</pdfrwt>
<pdfrwt beam="2">  1       -1 0.50208438E-01 0.45423930E+03</pdfrwt>
<totfact> 0.92397611E+01</totfact>
</mgrwt>
</event>
<event>
 4    1  0.2454657E-002  0.4073245E+03  0.7818608E-02  0.1041273E+00
          2   -1    0    0  502    0  0.00000000000E+00  0.00000000000E+00  0.64560736430E+03  0.64560736430E+03  0.00000000000E+00 0.  1.
         -2   -1    0    0    0  501 -0.00000000000E+00 -0.00000000000E+00 -0.32457568337E+03  0.32457568337E+03  0.00000000000E+00 0. -1.
    9000007    1    1    2  502    0  0.30700011506E+02 -0.70503694819E+02  0.38187622102E+03  0.55833924264E+03  0.40000000000E+03 0.  1.
   -9000007    1    1    2    0  501 -0.30700011506E+02  0.70503694819E+02 -0.60844540085E+02  0.41184380504E+03  0.40000000000E+03 0. -1.
<mgrwt>
<rscale>  2 0.40732452E+03</rscale>
<asrwt>0</asrwt>
<pdfrwt beam="1">  1        2 0.99324210E-01 0.40732452E+03</pdfrwt>
<pdfrwt beam="2">  1       -2 0.49934720E-01 0.40732452E+03</pdfrwt>
<totfact> 0.17756773E+02</totfact>
</mgrwt>
</event>
<event>
 4    1  0.2454657E-002  0.4614309E+03  0.7818608E-02  0.1024367E+00
         -2   -1    0    0    0  501 -0.00000000000E+00  0.00000000000E+00  0.48057759082E+03  0.48057759082E+03  0.00000000000E+00 0.  1.
          2   -1    0    0  502    0  0.00000000000E+00 -0.00000000000E+00 -0.17974476249E+04  0.17974476249E+04  0.00000000000E+00 0. -1.
    9000007    1    1    2  502    0 -0.20156676271E+03 -0.11085702654E+03 -0.16471565405E+04  0.17105680662E+04  0.40000000000E+03 0. -1.
   -9000007    1    1    2    0  501  0.20156676271E+03  0.11085702654E+03  0.33028650646E+03  0.56745714949E+03  0.40000000000E+03 0.  1.
<mgrwt>
<rscale>  2 0.46143086E+03</rscale>
<asrwt>0</asrwt>
<pdfrwt beam="1">  1        2 0.27653041E+00 0.46143086E+03</pdfrwt>
<pdfrwt beam="2">  1       -2 0.73935013E-01 0.46143086E+03</pdfrwt>
<totfact> 0.15466095E+01</totfact>
</mgrwt>
</event>
<event>
 4    1  0.2454657E-002  0.6353791E+03  0.7818608E-02  0.9834608E-01
          2   -1    0    0  502    0  0.00000000000E+00  0.00000000000E+00  0.92606876412E+03  0.92606876412E+03  0.00000000000E+00 0. -1.
         -2   -1    0    0    0  501 -0.00000000000E+00 -0.00000000000E+00 -0.48324496384E+03  0.48324496384E+03  0.00000000000E+00 0.  1.
    9000007    1    1    2  502    0  0.60602341891E+02 -0.48993266430E+03  0.44189027597E+03  0.77393389600E+03  0.40000000000E+03 0. -1.
   -9000007    1    1    2    0  501 -0.60602341891E+02  0.48993266430E+03  0.93352431024E+00  0.63537983195E+03  0.40000000000E+03 0.  1.
<mgrwt>
<rscale>  2 0.63537915E+03</rscale>
<asrwt>0</asrwt>
<pdfrwt beam="1">  1        2 0.14247212E+00 0.63537915E+03</pdfrwt>
<pdfrwt beam="2">  1       -2 0.74345379E-01 0.63537915E+03</pdfrwt>
<totfact> 0.47028645E+01</totfact>
</mgrwt>
</event>
<event>
 4    1  0.2454657E-002  0.4200197E+03  0.7818608E-02  0.1037060E+00
          2   -1    0    0  502    0  0.00000000000E+00  0.00000000000E+00  0.38562373946E+03  0.38562373946E+03  0.00000000000E+00 0.  1.
         -2   -1    0    0    0  501 -0.00000000000E+00 -0.00000000000E+00 -0.56828039946E+03  0.56828039946E+03  0.00000000000E+00 0. -1.
    9000007    1    1    2  502    0  0.28340154925E+02 -0.12495339307E+03 -0.30192772400E+03  0.51727832483E+03  0.40000000000E+03 0. -1.
   -9000007    1    1    2    0  501 -0.28340154925E+02  0.12495339307E+03  0.11927106400E+03  0.43662581409E+03  0.40000000000E+03 0.  1.
<mgrwt>
<rscale>  2 0.42001966E+03</rscale>
<asrwt>0</asrwt>
<pdfrwt beam="1">  1        2 0.59326729E-01 0.42001966E+03</pdfrwt>
<pdfrwt beam="2">  1       -2 0.87427753E-01 0.42001966E+03</pdfrwt>
<totfact> 0.96590296E+01</totfact>
</mgrwt>
</event>
<event>
 4    1  0.2454657E-002  0.4024229E+03  0.7818608E-02  0.1042944E+00
          1   -1    0    0  502    0  0.00000000000E+00  0.00000000000E+00  0.36470359357E+03  0.36470359357E+03  0.00000000000E+00 0.  1.
         -1   -1    0    0    0  501 -0.00000000000E+00 -0.00000000000E+00 -0.56569838580E+03  0.56569838580E+03  0.00000000000E+00 0. -1.
    9000007    1    1    2  502    0  0.25502242459E+02 -0.35970227489E+02 -0.31622867918E+03  0.51180543097E+03  0.40000000000E+03 0. -1.
   -9000007    1    1    2    0  501 -0.25502242459E+02  0.35970227489E+02  0.11523388694E+03  0.41859654840E+03  0.40000000000E+03 0.  1.
<mgrwt>
<rscale>  2 0.40242294E+03</rscale>
<asrwt>0</asrwt>
<pdfrwt beam="1">  1        1 0.56108245E-01 0.40242294E+03</pdfrwt>
<pdfrwt beam="2">  1       -1 0.87030521E-01 0.40242294E+03</pdfrwt>
<totfact> 0.92517556E+01</totfact>
</mgrwt>
</event>
<event>
 4    1  0.2454657E-002  0.4485540E+03  0.7818608E-02  0.1028154E+00
          2   -1    0    0  502    0  0.00000000000E+00  0.00000000000E+00  0.10230268621E+04  0.10230268621E+04  0.00000000000E+00 0. -1.
         -2   -1    0    0    0  501 -0.00000000000E+00 -0.00000000000E+00 -0.19734031107E+03  0.19734031107E+03  0.00000000000E+00 0.  1.
    9000007    1    1    2  502    0 -0.19716029291E+03  0.48254511632E+02  0.37733243049E+03  0.58615735267E+03  0.40000000000E+03 0.  1.
   -9000007    1    1    2    0  501  0.19716029291E+03 -0.48254511632E+02  0.44835412049E+03  0.63420982045E+03  0.40000000000E+03 0. -1.
<mgrwt>
<rscale>  2 0.44855399E+03</rscale>
<asrwt>0</asrwt>
<pdfrwt beam="1">  1        2 0.15738875E+00 0.44855399E+03</pdfrwt>
<pdfrwt beam="2">  1       -2 0.30360048E-01 0.44855399E+03</pdfrwt>
<totfact> 0.25152878E+02</totfact>
</mgrwt>
</event>
<event>
 4    1  0.2454657E-002  0.4328907E+03  0.7818608E-02  0.1032951E+00
          1   -1    0    0  502    0  0.00000000000E+00  0.00000000000E+00  0.32517785632E+04  0.32517785632E+04  0.00000000000E+00 0. -1.
         -1   -1    0    0    0  501 -0.00000000000E+00 -0.00000000000E+00 -0.67071876862E+02  0.67071876862E+02  0.00000000000E+00 0.  1.
    9000007    1    1    2  502    0 -0.48755920173E+00  0.16551173733E+03  0.96968554420E+03  0.10619248691E+04  0.40000000000E+03 0. -1.
   -9000007    1    1    2    0  501  0.48755920173E+00 -0.16551173733E+03  0.22150211422E+04  0.22569255710E+04  0.40000000000E+03 0.  1.
<mgrwt>
<rscale>  2 0.43289072E+03</rscale>
<asrwt>0</asrwt>
<pdfrwt beam="1">  1        1 0.50027350E+00 0.43289072E+03</pdfrwt>
<pdfrwt beam="2">  1       -1 0.10318753E-01 0.43289072E+03</pdfrwt>
<totfact> 0.26427555E+01</totfact>
</mgrwt>
</event>
<event>
 4    1  0.2454657E-002  0.4367616E+03  0.7818608E-02  0.1031745E+00
          1   -1    0    0  502    0  0.00000000000E+00  0.00000000000E+00  0.26647865395E+03  0.26647865395E+03  0.00000000000E+00 0.  1.
         -1   -1    0    0    0  501 -0.00000000000E+00 -0.00000000000E+00 -0.71888567593E+03  0.71888567593E+03  0.00000000000E+00 0. -1.
    9000007    1    1    2  502    0  0.45384814283E+02 -0.16941339919E+03 -0.25818098214E+03  0.50736387409E+03  0.40000000000E+03 0. -1.
   -9000007    1    1    2    0  501 -0.45384814283E+02  0.16941339919E+03 -0.19422603984E+03  0.47800045580E+03  0.40000000000E+03 0. -1.
<mgrwt>
<rscale>  2 0.43676158E+03</rscale>
<asrwt>0</asrwt>
<pdfrwt beam="1">  1        1 0.40996716E-01 0.43676158E+03</pdfrwt>
<pdfrwt beam="2">  1       -1 0.11059780E+00 0.43676158E+03</pdfrwt>
<totfact> 0.80545454E+01</totfact>
</mgrwt>
</event>
<event>
 4    1  0.2454657E-002  0.4201442E+03  0.7818608E-02  0.1037019E+00
          1   -1    0    0  502    0  0.00000000000E+00  0.00000000000E+00  0.85463555331E+03  0.85463555331E+03  0.00000000000E+00 0. -1.
         -1   -1    0    0    0  501 -0.00000000000E+00 -0.00000000000E+00 -0.37641283821E+03  0.37641283821E+03  0.00000000000E+00 0.  1.
    9000007    1    1    2  502    0 -0.12847747944E+03 -0.38336021485E+01  0.65260402188E+03  0.77615279978E+03  0.40000000000E+03 0. -1.
   -9000007    1    1    2    0  501  0.12847747944E+03  0.38336021485E+01 -0.17438130678E+03  0.45489559174E+03  0.40000000000E+03 0.  1.
<mgrwt>
<rscale>  2 0.42014421E+03</rscale>
<asrwt>0</asrwt>
<pdfrwt beam="1">  1        1 0.13148239E+00 0.42014421E+03</pdfrwt>
<pdfrwt beam="2">  1       -1 0.57909668E-01 0.42014421E+03</pdfrwt>
<totfact> 0.63698743E+01</totfact>
</mgrwt>
</event>
<event>
 4    1  0.2454657E-002  0.4204267E+03  0.7818608E-02  0.1036928E+00
          1   -1    0    0  502    0  0.00000000000E+00  0.00000000000E+00  0.58796158172E+03  0.58796158172E+03  0.00000000000E+00 0. -1.
         -1   -1    0    0    0  501 -0.00000000000E+00 -0.00000000000E+00 -0.12286461198E+04  0.12286461198E+04  0.00000000000E+00 0.  1.
    9000007    1    1    2  502    0 -0.12537102127E+03 -0.32259939591E+02 -0.11097395489E+04  0.11867099322E+04  0.40000000000E+03 0.  1.
   -9000007    1    1    2    0  501  0.12537102127E+03  0.32259939591E+02  0.46905501083E+03  0.62989776937E+03  0.40000000000E+03 0. -1.
<mgrwt>
<rscale>  2 0.42042668E+03</rscale>
<asrwt>0</asrwt>
<pdfrwt beam="1">  1        1 0.90455628E-01 0.42042668E+03</pdfrwt>
<pdfrwt beam="2">  1       -1 0.18902248E+00 0.42042668E+03</pdfrwt>
<totfact> 0.69556220E+00</totfact>
</mgrwt>
</event>
<event>
 4    1  0.2454657E-002  0.4685794E+03  0.7818608E-02  0.1022322E+00
         -2   -1    0    0    0  501 -0.00000000000E+00  0.00000000000E+00  0.60934941310E+02  0.60934941310E+02  0.00000000000E+00 0.  1.
          2   -1    0    0  502    0  0.00000000000E+00 -0.00000000000E+00 -0.36975828810E+04  0.36975828810E+04  0.00000000000E+00 0. -1.
    9000007    1    1    2  502    0 -0.34666780344E+02 -0.24158821338E+03 -0.21184146653E+04  0.21696191705E+04  0.40000000000E+03 0. -1.
   -9000007    1    1    2    0  501  0.34666780344E+02  0.24158821338E+03 -0.15182332744E+04  0.15888986519E+04  0.40000000000E+03 0.  1.
<mgrwt>
<rscale>  2 0.46857940E+03</rscale>
<asrwt>0</asrwt>
<pdfrwt beam="1">  1        2 0.56885890E+00 0.46857940E+03</pdfrwt>
<pdfrwt beam="2">  1       -2 0.93746064E-02 0.46857940E+03</pdfrwt>
<totfact> 0.51314424E+01</totfact>
</mgrwt>
</event>
<event>
 4    1  0.2454657E-002  0.5052979E+03  0.7818608E-02  0.1012405E+00
         -1   -1    0    0    0  501 -0.00000000000E+00  0.00000000000E+00  0.66387463415E+03  0.66387463415E+03  0.00000000000E+00 0. -1.
          1   -1    0    0  502    0  0.00000000000E+00 -0.00000000000E+00 -0.45014750970E+03  0.45014750970E+03  0.00000000000E+00 0.  1.
    9000007    1    1    2  502    0 -0.26532524321E+03  0.15788749309E+03  0.31941580581E+03  0.59778959690E+03  0.40000000000E+03 0. -1.
   -9000007    1    1    2    0  501  0.26532524321E+03 -0.15788749309E+03 -0.10568868136E+03  0.51623254694E+03  0.40000000000E+03 0. -1.
<mgrwt>
<rscale>  2 0.50529788E+03</rscale>
<asrwt>0</asrwt>
<pdfrwt beam="1">  1        1 0.69253463E-01 0.50529788E+03</pdfrwt>
<pdfrwt beam="2">  1       -1 0.10213456E+00 0.50529788E+03</pdfrwt>
<totfact> 0.48650046E+01</totfact>
</mgrwt>
</event>
<event>
 4    1  0.2454657E-002  0.5928153E+03  0.7818608E-02  0.9920425E-01
         -1   -1    0    0    0  501 -0.00000000000E+00  0.00000000000E+00  0.26458708481E+03  0.26458708481E+03  0.00000000000E+00 0.  1.
          1   -1    0    0  502    0  0.00000000000E+00 -0.00000000000E+00 -0.14088490744E+04  0.14088490744E+04  0.00000000000E+00 0. -1.
    9000007    1    1    2  502    0 -0.44328357133E+02  0.43527574074E+03 -0.37196441216E+03  0.69984819613E+03  0.40000000000E+03 0.  1.
   -9000007    1    1    2    0  501  0.44328357133E+02 -0.43527574074E+03 -0.77229757742E+03  0.97358796305E+03  0.40000000000E+03 0. -1.
<mgrwt>
<rscale>  2 0.59281529E+03</rscale>
<asrwt>0</asrwt>
<pdfrwt beam="1">  1        1 0.21674602E+00 0.59281529E+03</pdfrwt>
<pdfrwt beam="2">  1       -1 0.40705704E-01 0.59281529E+03</pdfrwt>
<totfact> 0.46811910E+01</totfact>
</mgrwt>
</event>
<event>
 4    1  0.2454657E-002  0.4738336E+03  0.7818608E-02  0.1020844E+00
          2   -1    0    0  502    0  0.00000000000E+00  0.00000000000E+00  0.59571258287E+03  0.59571258287E+03  0.00000000000E+00 0. -1.
         -2   -1    0    0    0  501 -0.00000000000E+00 -0.00000000000E+00 -0.48504904438E+03  0.48504904438E+03  0.00000000000E+00 0.  1.
    9000007    1    1    2  502    0 -0.18203658473E+03 -0.17714671640E+03  0.31050667858E+03  0.56650920095E+03  0.40000000000E+03 0. -1.
   -9000007    1    1    2    0  501  0.18203658473E+03  0.17714671640E+03 -0.19984314010E+03  0.51425242630E+03  0.40000000000E+03 0.  1.
<mgrwt>
<rscale>  2 0.47383360E+03</rscale>
<asrwt>0</asrwt>
<pdfrwt beam="1">  1        2 0.91648090E-01 0.47383360E+03</pdfrwt>
<pdfrwt beam="2">  1       -2 0.74622930E-01 0.47383360E+03</pdfrwt>
<totfact> 0.83454204E+01</totfact>
</mgrwt>
</event>
<event>
 4    1  0.2454657E-002  0.4184619E+03  0.7818608E-02  0.1037568E+00
          2   -1    0    0  502    0  0.00000000000E+00  0.00000000000E+00  0.69266366991E+03  0.69266366991E+03  0.00000000000E+00 0.  1.
         -2   -1    0    0    0  501 -0.00000000000E+00 -0.00000000000E+00 -0.25375430474E+03  0.25375430474E+03  0.00000000000E+00 0. -1.
    9000007    1    1    2  502    0  0.11584023804E+03 -0.41126561523E+02  0.24836467432E+03  0.48661624127E+03  0.40000000000E+03 0.  1.
   -9000007    1    1    2    0  501 -0.11584023804E+03  0.41126561523E+02  0.19054469085E+03  0.45980173339E+03  0.40000000000E+03 0. -1.
<mgrwt>
<rscale>  2 0.41846189E+03</rscale>
<asrwt>0</asrwt>
<pdfrwt beam="1">  1        2 0.10656364E+00 0.41846189E+03</pdfrwt>
<pdfrwt beam="2">  1       -2 0.39039124E-01 0.41846189E+03</pdfrwt>
<totfact> 0.26431731E+02</totfact>
</mgrwt>
</event>
<event>
 4    1  0.2454657E-002  0.4118160E+03  0.7818608E-02  0.1039763E+00
         -1   -1    0    0    0  501 -0.00000000000E+00  0.00000000000E+00  0.17890127202E+03  0.17890127202E+03  0.00000000000E+00 0. -1.
          1   -1    0    0  502    0  0.00000000000E+00 -0.00000000000E+00 -0.10157864628E+04  0.10157864628E+04  0.00000000000E+00 0.  1.
    9000007    1    1    2  502    0 -0.35390965123E+02 -0.91323048513E+02 -0.26409429598E+03  0.48922205262E+03  0.40000000000E+03 0. -1.
   -9000007    1    1    2    0  501  0.35390965123E+02  0.91323048513E+02 -0.57279089485E+03  0.70546568224E+03  0.40000000000E+03 0.  1.
<mgrwt>
<rscale>  2 0.41181600E+03</rscale>
<asrwt>0</asrwt>
<pdfrwt beam="1">  1        1 0.15627484E+00 0.41181600E+03</pdfrwt>
<pdfrwt beam="2">  1       -1 0.27523273E-01 0.41181600E+03</pdfrwt>
<totfact> 0.18232937E+02</totfact>
</mgrwt>
</event>
<event>
 4    1  0.2454657E-002  0.4126239E+03  0.7818608E-02  0.1039494E+00
          1   -1    0    0  502    0  0.00000000000E+00  0.00000000000E+00  0.16902024427E+04  0.16902024427E+04  0.00000000000E+00 0.  1.
         -1   -1    0    0    0  501 -0.00000000000E+00 -0.00000000000E+00 -0.16011085139E+03  0.16011085139E+03  0.00000000000E+00 0. -1.
    9000007    1    1    2  502    0  0.48474367492E+02 -0.88931083249E+02  0.13284480222E+04  0.13910545100E+04  0.40000000000E+03 0.  1.
   -9000007    1    1    2    0  501 -0.48474367492E+02  0.88931083249E+02  0.20164356910E+03  0.45925878416E+03  0.40000000000E+03 0. -1.
<mgrwt>
<rscale>  2 0.41262392E+03</rscale>
<asrwt>0</asrwt>
<pdfrwt beam="1">  1        1 0.26003113E+00 0.41262392E+03</pdfrwt>
<pdfrwt beam="2">  1       -1 0.24632440E-01 0.41262392E+03</pdfrwt>
<totfact> 0.74813536E+01</totfact>
</mgrwt>
</event>
<event>
 4    1  0.2454657E-002  0.7885924E+03  0.7818608E-02  0.9576677E-01
          2   -1    0    0  502    0  0.00000000000E+00  0.00000000000E+00  0.23701616774E+04  0.23701616774E+04  0.00000000000E+00 0.  1.
         -2   -1    0    0    0  501 -0.00000000000E+00 -0.00000000000E+00 -0.26342890892E+03  0.26342890892E+03  0.00000000000E+00 0. -1.
    9000007    1    1    2  502    0 -0.67956618870E+03 -0.82349597435E+01  0.97019156630E+03  0.12502598509E+04  0.40000000000E+03 0.  1.
   -9000007    1    1    2    0  501  0.67956618870E+03  0.82349597435E+01  0.11365412022E+04  0.13833307354E+04  0.40000000000E+03 0.  1.
<mgrwt>
<rscale>  2 0.78859243E+03</rscale>
<asrwt>0</asrwt>
<pdfrwt beam="1">  1        2 0.36464024E+00 0.78859243E+03</pdfrwt>
<pdfrwt beam="2">  1       -2 0.40527526E-01 0.78859243E+03</pdfrwt>
<totfact> 0.24689244E+01</totfact>
</mgrwt>
</event>
<event>
 4    1  0.2454657E-002  0.5008127E+03  0.7818608E-02  0.1013567E+00
         -1   -1    0    0    0  501 -0.00000000000E+00  0.00000000000E+00  0.24292202977E+03  0.24292202977E+03  0.00000000000E+00 0. -1.
          1   -1    0    0  502    0  0.00000000000E+00 -0.00000000000E+00 -0.10365207547E+04  0.10365207547E+04  0.00000000000E+00 0.  1.
    9000007    1    1    2  502    0 -0.13100740819E+00 -0.30135249554E+03 -0.35688161140E+03  0.61496164782E+03  0.40000000000E+03 0. -1.
   -9000007    1    1    2    0  501  0.13100740819E+00  0.30135249554E+03 -0.43671711356E+03  0.66448113668E+03  0.40000000000E+03 0.  1.
<mgrwt>
<rscale>  2 0.50081268E+03</rscale>
<asrwt>0</asrwt>
<pdfrwt beam="1">  1        1 0.15946473E+00 0.50081268E+03</pdfrwt>
<pdfrwt beam="2">  1       -1 0.37372620E-01 0.50081268E+03</pdfrwt>
<totfact> 0.10208758E+02</totfact>
</mgrwt>
</event>
<event>
 4    1  0.2454657E-002  0.5788572E+03  0.7818608E-02  0.9950268E-01
         -3   -1    0    0    0  501 -0.00000000000E+00  0.00000000000E+00  0.40434727136E+03  0.40434727136E+03  0.00000000000E+00 0.  1.
          3   -1    0    0  502    0  0.00000000000E+00 -0.00000000000E+00 -0.97305452190E+03  0.97305452190E+03  0.00000000000E+00 0. -1.
    9000007    1    1    2  502    0  0.18256367320E+03  0.37649189161E+03 -0.54963275914E+03  0.79823042359E+03  0.40000000000E+03 0. -1.
   -9000007    1    1    2    0  501 -0.18256367320E+03 -0.37649189161E+03 -0.19074491397E+02  0.57917136967E+03  0.40000000000E+03 0.  1.
<mgrwt>
<rscale>  2 0.57885718E+03</rscale>
<asrwt>0</asrwt>
<pdfrwt beam="1">  1        3 0.14970069E+00 0.57885718E+03</pdfrwt>
<pdfrwt beam="2">  1       -3 0.62207273E-01 0.57885718E+03</pdfrwt>
<totfact> 0.21435781E+00</totfact>
</mgrwt>
</event>
<event>
 4    1  0.2454657E-002  0.4038066E+03  0.7818608E-02  0.1042470E+00
          2   -1    0    0  502    0  0.00000000000E+00  0.00000000000E+00  0.15449412880E+04  0.15449412880E+04  0.00000000000E+00 0. -1.
         -2   -1    0    0    0  501 -0.00000000000E+00 -0.00000000000E+00 -0.11059629224E+03  0.11059629224E+03  0.00000000000E+00 0.  1.
    9000007    1    1    2  502    0  0.45756294728E+02  0.31082597563E+02  0.54025550197E+03  0.67448926885E+03  0.40000000000E+03 0.  1.
   -9000007    1    1    2    0  501 -0.45756294728E+02 -0.31082597563E+02  0.89408949380E+03  0.98104831140E+03  0.40000000000E+03 0. -1.
<mgrwt>
<rscale>  2 0.40380660E+03</rscale>
<asrwt>0</asrwt>
<pdfrwt beam="1">  1        2 0.23768326E+00 0.40380660E+03</pdfrwt>
<pdfrwt beam="2">  1       -2 0.17014815E-01 0.40380660E+03</pdfrwt>
<totfact> 0.35319390E+02</totfact>
</mgrwt>
</event>
<event>
 4    1  0.2454657E-002  0.4354865E+03  0.7818608E-02  0.1032141E+00
         -1   -1    0    0    0  501 -0.00000000000E+00  0.00000000000E+00  0.54291141185E+03  0.54291141185E+03  0.00000000000E+00 0.  1.
          1   -1    0    0  502    0  0.00000000000E+00 -0.00000000000E+00 -0.38288969366E+03  0.38288969366E+03  0.00000000000E+00 0. -1.
    9000007    1    1    2  502    0 -0.11632458790E+03  0.12695317269E+03 -0.57058378711E+02  0.43920857959E+03  0.40000000000E+03 0. -1.
   -9000007    1    1    2    0  501  0.11632458790E+03 -0.12695317269E+03  0.21708009690E+03  0.48659252592E+03  0.40000000000E+03 0.  1.
<mgrwt>
<rscale>  2 0.43548653E+03</rscale>
<asrwt>0</asrwt>
<pdfrwt beam="1">  1        1 0.58906107E-01 0.43548653E+03</pdfrwt>
<pdfrwt beam="2">  1       -1 0.83524833E-01 0.43548653E+03</pdfrwt>
<totfact> 0.94486472E+01</totfact>
</mgrwt>
</event>
<event>
 4    1  0.2454657E-002  0.1013602E+04  0.7818608E-02  0.9293751E-01
         -2   -1    0    0    0  501 -0.00000000000E+00  0.00000000000E+00  0.54440604459E+03  0.54440604459E+03  0.00000000000E+00 0.  1.
          2   -1    0    0  502    0  0.00000000000E+00 -0.00000000000E+00 -0.19103586144E+04  0.19103586144E+04  0.00000000000E+00 0. -1.
    9000007    1    1    2  502    0  0.91623214579E+03 -0.16705555179E+03 -0.54776190601E+03  0.11521423558E+04  0.40000000000E+03 0. -1.
   -9000007    1    1    2    0  501 -0.91623214579E+03  0.16705555179E+03 -0.81819066376E+03  0.13026223031E+04  0.40000000000E+03 0.  1.
<mgrwt>
<rscale>  2 0.10136019E+04</rscale>
<asrwt>0</asrwt>
<pdfrwt beam="1">  1        2 0.29390133E+00 0.10136019E+04</pdfrwt>
<pdfrwt beam="2">  1       -2 0.83754774E-01 0.10136019E+04</pdfrwt>
<totfact> 0.93299548E+00</totfact>
</mgrwt>
</event>
<event>
 4    1  0.2454657E-002  0.5612546E+03  0.7818608E-02  0.9989220E-01
         -1   -1    0    0    0  501 -0.00000000000E+00  0.00000000000E+00  0.32424057085E+03  0.32424057085E+03  0.00000000000E+00 0.  1.
          1   -1    0    0  502    0  0.00000000000E+00 -0.00000000000E+00 -0.97958949712E+03  0.97958949712E+03  0.00000000000E+00 0. -1.
    9000007    1    1    2  502    0  0.34521021627E+03  0.18930555605E+03 -0.38683766951E+03  0.68165245508E+03  0.40000000000E+03 0. -1.
   -9000007    1    1    2    0  501 -0.34521021627E+03 -0.18930555605E+03 -0.26851125676E+03  0.62217761289E+03  0.40000000000E+03 0. -1.
<mgrwt>
<rscale>  2 0.56125457E+03</rscale>
<asrwt>0</asrwt>
<pdfrwt beam="1">  1        1 0.15070608E+00 0.56125457E+03</pdfrwt>
<pdfrwt beam="2">  1       -1 0.49883165E-01 0.56125457E+03</pdfrwt>
<totfact> 0.66006140E+01</totfact>
</mgrwt>
</event>
<event>
 4    1  0.2454657E-002  0.4977901E+03  0.7818608E-02  0.1014357E+00
         -1   -1    0    0    0  501 -0.00000000000E+00  0.00000000000E+00  0.94061105076E+03  0.94061105076E+03  0.00000000000E+00 0. -1.
          1   -1    0    0  502    0  0.00000000000E+00 -0.00000000000E+00 -0.45243149069E+03  0.45243149069E+03  0.00000000000E+00 0.  1.
    9000007    1    1    2  502    0  0.14538935875E+03 -0.25817993518E+03 -0.20608239194E+03  0.53876237511E+03  0.40000000000E+03 0.  1.
   -9000007    1    1    2    0  501 -0.14538935875E+03  0.25817993518E+03  0.69426195201E+03  0.85428016633E+03  0.40000000000E+03 0. -1.
<mgrwt>
<rscale>  2 0.49779006E+03</rscale>
<asrwt>0</asrwt>
<pdfrwt beam="1">  1        1 0.69604845E-01 0.49779006E+03</pdfrwt>
<pdfrwt beam="2">  1       -1 0.14470939E+00 0.49779006E+03</pdfrwt>
<totfact> 0.20694749E+01</totfact>
</mgrwt>
</event>
<event>
 4    1  0.2454657E-002  0.4378590E+03  0.7818608E-02  0.1031406E+00
          2   -1    0    0  502    0  0.00000000000E+00  0.00000000000E+00  0.26534237903E+03  0.26534237903E+03  0.00000000000E+00 0. -1.
         -2   -1    0    0    0  501 -0.00000000000E+00 -0.00000000000E+00 -0.72278244502E+03  0.72278244502E+03  0.00000000000E+00 0.  1.
    9000007    1    1    2  502    0  0.17124426458E+03 -0.48948210657E+02 -0.23776568113E+03  0.49824998204E+03  0.40000000000E+03 0.  1.
   -9000007    1    1    2    0  501 -0.17124426458E+03  0.48948210657E+02 -0.21967438487E+03  0.48987484202E+03  0.40000000000E+03 0. -1.
<mgrwt>
<rscale>  2 0.43785902E+03</rscale>
<asrwt>0</asrwt>
<pdfrwt beam="1">  1        2 0.40821905E-01 0.43785902E+03</pdfrwt>
<pdfrwt beam="2">  1       -2 0.11119730E+00 0.43785902E+03</pdfrwt>
<totfact> 0.82850943E+01</totfact>
</mgrwt>
</event>
<event>
 4    1  0.2454657E-002  0.4075824E+03  0.7818608E-02  0.1041185E+00
         -2   -1    0    0    0  501 -0.00000000000E+00  0.00000000000E+00  0.25331738338E+03  0.25331738338E+03  0.00000000000E+00 0.  1.
          2   -1    0    0  502    0  0.00000000000E+00 -0.00000000000E+00 -0.66128882479E+03  0.66128882479E+03  0.00000000000E+00 0. -1.
    9000007    1    1    2  502    0  0.98861200614E+01  0.77625045964E+02 -0.24568080260E+03  0.47590171243E+03  0.40000000000E+03 0. -1.
   -9000007    1    1    2    0  501 -0.98861200614E+01 -0.77625045964E+02 -0.16229063882E+03  0.43870449574E+03  0.40000000000E+03 0. -1.
<mgrwt>
<rscale>  2 0.40758236E+03</rscale>
<asrwt>0</asrwt>
<pdfrwt beam="1">  1        2 0.10173674E+00 0.40758236E+03</pdfrwt>
<pdfrwt beam="2">  1       -2 0.38971905E-01 0.40758236E+03</pdfrwt>
<totfact> 0.28090221E+02</totfact>
</mgrwt>
</event>
<event>
 4    1  0.2454657E-002  0.4240104E+03  0.7818608E-02  0.1035769E+00
         -2   -1    0    0    0  501 -0.00000000000E+00  0.00000000000E+00  0.12429884365E+03  0.12429884365E+03  0.00000000000E+00 0. -1.
          2   -1    0    0  502    0  0.00000000000E+00 -0.00000000000E+00 -0.14496751486E+04  0.14496751486E+04  0.00000000000E+00 0.  1.
    9000007    1    1    2  502    0 -0.34995584714E+02  0.13623545519E+03 -0.70014324962E+03  0.81852633445E+03  0.40000000000E+03 0.  1.
   -9000007    1    1    2    0  501  0.34995584714E+02 -0.13623545519E+03 -0.62523305532E+03  0.75544765779E+03  0.40000000000E+03 0.  1.
<mgrwt>
<rscale>  2 0.42401037E+03</rscale>
<asrwt>0</asrwt>
<pdfrwt beam="1">  1        2 0.22302693E+00 0.42401037E+03</pdfrwt>
<pdfrwt beam="2">  1       -2 0.19122900E-01 0.42401037E+03</pdfrwt>
<totfact> 0.32532813E+02</totfact>
</mgrwt>
</event>
<event>
 4    1  0.2454657E-002  0.4562945E+03  0.7818608E-02  0.1025861E+00
          2   -1    0    0  502    0  0.00000000000E+00  0.00000000000E+00  0.29281121369E+04  0.29281121369E+04  0.00000000000E+00 0.  1.
         -2   -1    0    0    0  501 -0.00000000000E+00 -0.00000000000E+00 -0.12121226914E+03  0.12121226914E+03  0.00000000000E+00 0. -1.
    9000007    1    1    2  502    0  0.76209825421E+02 -0.20590461335E+03  0.42317277269E+03  0.62231812028E+03  0.40000000000E+03 0. -1.
   -9000007    1    1    2    0  501 -0.76209825421E+02  0.20590461335E+03  0.23837270951E+04  0.24270062857E+04  0.40000000000E+03 0.  1.
<mgrwt>
<rscale>  2 0.45629447E+03</rscale>
<asrwt>0</asrwt>
<pdfrwt beam="1">  1        2 0.45047874E+00 0.45629447E+03</pdfrwt>
<pdfrwt beam="2">  1       -2 0.18648044E-01 0.45629447E+03</pdfrwt>
<totfact> 0.51751739E+01</totfact>
</mgrwt>
</event>
<event>
 4    1  0.2454657E-002  0.4333624E+03  0.7818608E-02  0.1032803E+00
         -2   -1    0    0    0  501 -0.00000000000E+00  0.00000000000E+00  0.11254864278E+03  0.11254864278E+03  0.00000000000E+00 0. -1.
          2   -1    0    0  502    0  0.00000000000E+00 -0.00000000000E+00 -0.22474499780E+04  0.22474499780E+04  0.00000000000E+00 0.  1.
    9000007    1    1    2  502    0  0.12984023007E+03 -0.10461579753E+03 -0.46861802789E+03  0.63828348444E+03  0.40000000000E+03 0. -1.
   -9000007    1    1    2    0  501 -0.12984023007E+03  0.10461579753E+03 -0.16662833073E+04  0.17217151363E+04  0.40000000000E+03 0.  1.
<mgrwt>
<rscale>  2 0.43336238E+03</rscale>
<asrwt>0</asrwt>
<pdfrwt beam="1">  1        2 0.34576150E+00 0.43336238E+03</pdfrwt>
<pdfrwt beam="2">  1       -2 0.17315178E-01 0.43336238E+03</pdfrwt>
<totfact> 0.14323656E+02</totfact>
</mgrwt>
</event>
<event>
 4    1  0.2454657E-002  0.4079128E+03  0.7818608E-02  0.1041074E+00
         -2   -1    0    0    0  501 -0.00000000000E+00  0.00000000000E+00  0.24370748443E+03  0.24370748443E+03  0.00000000000E+00 0. -1.
          2   -1    0    0  502    0  0.00000000000E+00 -0.00000000000E+00 -0.95368160367E+03  0.95368160367E+03  0.00000000000E+00 0.  1.
    9000007    1    1    2  502    0  0.66386737749E+02 -0.44560833645E+02 -0.35886012531E+02  0.40948830599E+03  0.40000000000E+03 0. -1.
   -9000007    1    1    2    0  501 -0.66386737749E+02  0.44560833645E+02 -0.67408810671E+03  0.78790078211E+03  0.40000000000E+03 0. -1.
<mgrwt>
<rscale>  2 0.40791282E+03</rscale>
<asrwt>0</asrwt>
<pdfrwt beam="1">  1        2 0.14672025E+00 0.40791282E+03</pdfrwt>
<pdfrwt beam="2">  1       -2 0.37493460E-01 0.40791282E+03</pdfrwt>
<totfact> 0.18795583E+02</totfact>
</mgrwt>
</event>
<event>
 4    1  0.2454657E-002  0.4031025E+03  0.7818608E-02  0.1042711E+00
         -2   -1    0    0    0  501 -0.00000000000E+00  0.00000000000E+00  0.25473587323E+03  0.25473587323E+03  0.00000000000E+00 0. -1.
          2   -1    0    0  502    0  0.00000000000E+00 -0.00000000000E+00 -0.64022393770E+03  0.64022393770E+03  0.00000000000E+00 0.  1.
    9000007    1    1    2  502    0  0.13135137031E+02  0.48157062823E+02 -0.16568450712E+03  0.43582449498E+03  0.40000000000E+03 0. -1.
   -9000007    1    1    2    0  501 -0.13135137031E+02 -0.48157062823E+02 -0.21980355735E+03  0.45913531595E+03  0.40000000000E+03 0.  1.
<mgrwt>
<rscale>  2 0.40310251E+03</rscale>
<asrwt>0</asrwt>
<pdfrwt beam="1">  1        2 0.98495990E-01 0.40310251E+03</pdfrwt>
<pdfrwt beam="2">  1       -2 0.39190134E-01 0.40310251E+03</pdfrwt>
<totfact> 0.28909045E+02</totfact>
</mgrwt>
</event>
<event>
 4    1  0.2454657E-002  0.8322199E+03  0.7818608E-02  0.9514516E-01
         -2   -1    0    0    0  501 -0.00000000000E+00  0.00000000000E+00  0.14294262127E+04  0.14294262127E+04  0.00000000000E+00 0. -1.
          2   -1    0    0  502    0  0.00000000000E+00 -0.00000000000E+00 -0.48682591804E+03  0.48682591804E+03  0.00000000000E+00 0.  1.
    9000007    1    1    2  502    0  0.21092480369E+03 -0.69864205111E+03  0.53719745848E+03  0.99054081076E+03  0.40000000000E+03 0. -1.
   -9000007    1    1    2    0  501 -0.21092480369E+03  0.69864205111E+03  0.40540283621E+03  0.92571132001E+03  0.40000000000E+03 0.  1.
<mgrwt>
<rscale>  2 0.83221992E+03</rscale>
<asrwt>0</asrwt>
<pdfrwt beam="1">  1        2 0.74896296E-01 0.83221992E+03</pdfrwt>
<pdfrwt beam="2">  1       -2 0.21991172E+00 0.83221992E+03</pdfrwt>
<totfact> 0.63700590E+00</totfact>
</mgrwt>
</event>
<event>
 4    1  0.2454657E-002  0.4492690E+03  0.7818608E-02  0.1027940E+00
          2   -1    0    0  502    0  0.00000000000E+00  0.00000000000E+00  0.17078442809E+04  0.17078442809E+04  0.00000000000E+00 0. -1.
         -2   -1    0    0    0  501 -0.00000000000E+00 -0.00000000000E+00 -0.15424332034E+03  0.15424332034E+03  0.00000000000E+00 0.  1.
    9000007    1    1    2  502    0  0.52036310933E+02 -0.19782542842E+03  0.12269593299E+04  0.13066261420E+04  0.40000000000E+03 0. -1.
   -9000007    1    1    2    0  501 -0.52036310933E+02  0.19782542842E+03  0.32664163062E+03  0.55546145919E+03  0.40000000000E+03 0.  1.
<mgrwt>
<rscale>  2 0.44926905E+03</rscale>
<asrwt>0</asrwt>
<pdfrwt beam="1">  1        2 0.26274526E+00 0.44926905E+03</pdfrwt>
<pdfrwt beam="2">  1       -2 0.23729743E-01 0.44926905E+03</pdfrwt>
<totfact> 0.16108542E+02</totfact>
</mgrwt>
</event>
<event>
 4    1  0.2454657E-002  0.4445125E+03  0.7818608E-02  0.1029371E+00
         -1   -1    0    0    0  501 -0.00000000000E+00  0.00000000000E+00  0.16485270364E+03  0.16485270364E+03  0.00000000000E+00 0.  1.
          1   -1    0    0  502    0  0.00000000000E+00 -0.00000000000E+00 -0.12640662553E+04  0.12640662553E+04  0.00000000000E+00 0. -1.
    9000007    1    1    2  502    0  0.18573028102E+03 -0.55638171000E+02 -0.71220796256E+03  0.83954244996E+03  0.40000000000E+03 0.  1.
   -9000007    1    1    2    0  501 -0.18573028102E+03  0.55638171000E+02 -0.38700558915E+03  0.58937650902E+03  0.40000000000E+03 0. -1.
<mgrwt>
<rscale>  2 0.44451248E+03</rscale>
<asrwt>0</asrwt>
<pdfrwt beam="1">  1        1 0.19447173E+00 0.44451248E+03</pdfrwt>
<pdfrwt beam="2">  1       -1 0.25361955E-01 0.44451248E+03</pdfrwt>
<totfact> 0.13777026E+02</totfact>
</mgrwt>
</event>
<event>
 4    1  0.2454657E-002  0.4242376E+03  0.7818608E-02  0.1035696E+00
          1   -1    0    0  502    0  0.00000000000E+00  0.00000000000E+00  0.22952615209E+03  0.22952615209E+03  0.00000000000E+00 0. -1.
         -1   -1    0    0    0  501 -0.00000000000E+00 -0.00000000000E+00 -0.81530887467E+03  0.81530887467E+03  0.00000000000E+00 0.  1.
    9000007    1    1    2  502    0  0.10746325928E+03 -0.91810451640E+02 -0.39505869508E+03  0.57969723449E+03  0.40000000000E+03 0.  1.
   -9000007    1    1    2    0  501 -0.10746325928E+03  0.91810451640E+02 -0.19072402750E+03  0.46513779226E+03  0.40000000000E+03 0. -1.
<mgrwt>
<rscale>  2 0.42423756E+03</rscale>
<asrwt>0</asrwt>
<pdfrwt beam="1">  1        1 0.35311716E-01 0.42423756E+03</pdfrwt>
<pdfrwt beam="2">  1       -1 0.12543213E+00 0.42423756E+03</pdfrwt>
<totfact> 0.72218578E+01</totfact>
</mgrwt>
</event>
<event>
 4    1  0.2454657E-002  0.5017271E+03  0.7818608E-02  0.1013329E+00
         -2   -1    0    0    0  501 -0.00000000000E+00  0.00000000000E+00  0.11760202854E+03  0.11760202854E+03  0.00000000000E+00 0. -1.
          2   -1    0    0  502    0  0.00000000000E+00 -0.00000000000E+00 -0.22048329731E+04  0.22048329731E+04  0.00000000000E+00 0.  1.
    9000007    1    1    2  502    0 -0.37642012303E+02  0.30052147815E+03 -0.84529926910E+03  0.98298572435E+03  0.40000000000E+03 0. -1.
   -9000007    1    1    2    0  501  0.37642012303E+02 -0.30052147815E+03 -0.12419316755E+04  0.13394492773E+04  0.40000000000E+03 0.  1.
<mgrwt>
<rscale>  2 0.50172710E+03</rscale>
<asrwt>0</asrwt>
<pdfrwt beam="1">  1        2 0.33920504E+00 0.50172710E+03</pdfrwt>
<pdfrwt beam="2">  1       -2 0.18092622E-01 0.50172710E+03</pdfrwt>
<totfact> 0.13856435E+02</totfact>
</mgrwt>
</event>
<event>
 4    1  0.2454657E-002  0.4354517E+03  0.7818608E-02  0.1032152E+00
         -2   -1    0    0    0  501 -0.00000000000E+00  0.00000000000E+00  0.12171070807E+03  0.12171070807E+03  0.00000000000E+00 0.  1.
          2   -1    0    0  502    0  0.00000000000E+00 -0.00000000000E+00 -0.16328586529E+04  0.16328586529E+04  0.00000000000E+00 0. -1.
    9000007    1    1    2  502    0 -0.14416178367E+03  0.93997568909E+02 -0.56766094555E+03  0.71544189976E+03  0.40000000000E+03 0.  1.
   -9000007    1    1    2    0  501  0.14416178367E+03 -0.93997568909E+02 -0.94348699931E+03  0.10391274612E+04  0.40000000000E+03 0. -1.
<mgrwt>
<rscale>  2 0.43545168E+03</rscale>
<asrwt>0</asrwt>
<pdfrwt beam="1">  1        2 0.25120905E+00 0.43545168E+03</pdfrwt>
<pdfrwt beam="2">  1       -2 0.18724723E-01 0.43545168E+03</pdfrwt>
<totfact> 0.26783738E+02</totfact>
</mgrwt>
</event>
<event>
 4    1  0.2454657E-002  0.4238220E+03  0.7818608E-02  0.1035830E+00
         -2   -1    0    0    0  501 -0.00000000000E+00  0.00000000000E+00  0.51344623050E+03  0.51344623050E+03  0.00000000000E+00 0. -1.
          2   -1    0    0  502    0  0.00000000000E+00 -0.00000000000E+00 -0.40912625648E+03  0.40912625648E+03  0.00000000000E+00 0.  1.
    9000007    1    1    2  502    0 -0.12417521342E+03 -0.64850373975E+02  0.22775473696E+03  0.48114163698E+03  0.40000000000E+03 0. -1.
   -9000007    1    1    2    0  501  0.12417521342E+03  0.64850373975E+02 -0.12343476294E+03  0.44143085000E+03  0.40000000000E+03 0.  1.
<mgrwt>
<rscale>  2 0.42382196E+03</rscale>
<asrwt>0</asrwt>
<pdfrwt beam="1">  1        2 0.62942502E-01 0.42382196E+03</pdfrwt>
<pdfrwt beam="2">  1       -2 0.78991727E-01 0.42382196E+03</pdfrwt>
<totfact> 0.11359730E+02</totfact>
</mgrwt>
</event>
<event>
 4    1  0.2454657E-002  0.5247039E+03  0.7818608E-02  0.1007525E+00
         -1   -1    0    0    0  501 -0.00000000000E+00  0.00000000000E+00  0.15137592376E+04  0.15137592376E+04  0.00000000000E+00 0.  1.
          1   -1    0    0  502    0  0.00000000000E+00 -0.00000000000E+00 -0.18253549090E+03  0.18253549090E+03  0.00000000000E+00 0. -1.
    9000007    1    1    2  502    0 -0.29509902528E+03  0.16802008739E+03  0.71665058852E+03  0.88820169473E+03  0.40000000000E+03 0. -1.
   -9000007    1    1    2    0  501  0.29509902528E+03 -0.16802008739E+03  0.61457315820E+03  0.80809303380E+03  0.40000000000E+03 0.  1.
<mgrwt>
<rscale>  2 0.52470390E+03</rscale>
<asrwt>0</asrwt>
<pdfrwt beam="1">  1        1 0.28082384E-01 0.52470390E+03</pdfrwt>
<pdfrwt beam="2">  1       -1 0.23288603E+00 0.52470390E+03</pdfrwt>
<totfact> 0.16054463E+01</totfact>
</mgrwt>
</event>
<event>
 4    1  0.2454657E-002  0.4093435E+03  0.7818608E-02  0.1040592E+00
         -1   -1    0    0    0  501 -0.00000000000E+00  0.00000000000E+00  0.34373151371E+03  0.34373151371E+03  0.00000000000E+00 0.  1.
          1   -1    0    0  502    0  0.00000000000E+00 -0.00000000000E+00 -0.49550180376E+03  0.49550180376E+03  0.00000000000E+00 0. -1.
    9000007    1    1    2  502    0  0.19420487008E+02 -0.84763864459E+02 -0.22492734708E+02  0.40996096296E+03  0.40000000000E+03 0.  1.
   -9000007    1    1    2    0  501 -0.19420487008E+02  0.84763864459E+02 -0.12927755534E+03  0.42927235451E+03  0.40000000000E+03 0. -1.
<mgrwt>
<rscale>  2 0.40934346E+03</rscale>
<asrwt>0</asrwt>
<pdfrwt beam="1">  1        1 0.76231046E-01 0.40934346E+03</pdfrwt>
<pdfrwt beam="2">  1       -1 0.52881772E-01 0.40934346E+03</pdfrwt>
<totfact> 0.16818765E+02</totfact>
</mgrwt>
</event>
<event>
 4    1  0.2454657E-002  0.5761533E+03  0.7818608E-02  0.9956154E-01
         -1   -1    0    0    0  501 -0.00000000000E+00  0.00000000000E+00  0.53186902213E+03  0.53186902213E+03  0.00000000000E+00 0.  1.
          1   -1    0    0  502    0  0.00000000000E+00 -0.00000000000E+00 -0.66022601059E+03  0.66022601059E+03  0.00000000000E+00 0. -1.
    9000007    1    1    2  502    0  0.29542356863E+03 -0.29099407697E+03 -0.20355692028E+03  0.61105487277E+03  0.40000000000E+03 0. -1.
   -9000007    1    1    2    0  501 -0.29542356863E+03  0.29099407697E+03  0.75199931820E+02  0.58104015996E+03  0.40000000000E+03 0.  1.
<mgrwt>
<rscale>  2 0.57615331E+03</rscale>
<asrwt>0</asrwt>
<pdfrwt beam="1">  1        1 0.10157323E+00 0.57615331E+03</pdfrwt>
<pdfrwt beam="2">  1       -1 0.81826004E-01 0.57615331E+03</pdfrwt>
<totfact> 0.46054910E+01</totfact>
</mgrwt>
</event>
<event>
 4    1  0.2454657E-002  0.4139566E+03  0.7818608E-02  0.1039051E+00
         -1   -1    0    0    0  501 -0.00000000000E+00  0.00000000000E+00  0.55602594396E+03  0.55602594396E+03  0.00000000000E+00 0. -1.
          1   -1    0    0  502    0  0.00000000000E+00 -0.00000000000E+00 -0.35285989053E+03  0.35285989053E+03  0.00000000000E+00 0.  1.
    9000007    1    1    2  502    0  0.77616365284E+02 -0.73046593187E+02  0.26327893042E+03  0.49058730124E+03  0.40000000000E+03 0. -1.
   -9000007    1    1    2    0  501 -0.77616365284E+02  0.73046593187E+02 -0.60112876985E+02  0.41829853325E+03  0.40000000000E+03 0.  1.
<mgrwt>
<rscale>  2 0.41395665E+03</rscale>
<asrwt>0</asrwt>
<pdfrwt beam="1">  1        1 0.54286137E-01 0.41395665E+03</pdfrwt>
<pdfrwt beam="2">  1       -1 0.85542453E-01 0.41395665E+03</pdfrwt>
<totfact> 0.10005519E+02</totfact>
</mgrwt>
</event>
<event>
 4    1  0.2454657E-002  0.4664611E+03  0.7818608E-02  0.1022924E+00
         -1   -1    0    0    0  501 -0.00000000000E+00  0.00000000000E+00  0.44958777326E+03  0.44958777326E+03  0.00000000000E+00 0. -1.
          1   -1    0    0  502    0  0.00000000000E+00 -0.00000000000E+00 -0.53230012009E+03  0.53230012009E+03  0.00000000000E+00 0.  1.
    9000007    1    1    2  502    0 -0.26001492196E+01 -0.23995672032E+03  0.10657940024E+03  0.47848213860E+03  0.40000000000E+03 0. -1.
   -9000007    1    1    2    0  501  0.26001492196E+01  0.23995672032E+03 -0.18929174708E+03  0.50340575475E+03  0.40000000000E+03 0.  1.
<mgrwt>
<rscale>  2 0.46646113E+03</rscale>
<asrwt>0</asrwt>
<pdfrwt beam="1">  1        1 0.81892326E-01 0.46646113E+03</pdfrwt>
<pdfrwt beam="2">  1       -1 0.69167350E-01 0.46646113E+03</pdfrwt>
<totfact> 0.89723675E+01</totfact>
</mgrwt>
</event>
<event>
 4    1  0.2454657E-002  0.5176140E+03  0.7818608E-02  0.1009281E+00
          1   -1    0    0  502    0  0.00000000000E+00  0.00000000000E+00  0.13328459896E+04  0.13328459896E+04  0.00000000000E+00 0.  1.
         -1   -1    0    0    0  501 -0.00000000000E+00 -0.00000000000E+00 -0.20420839523E+03  0.20420839523E+03  0.00000000000E+00 0. -1.
    9000007    1    1    2  502    0  0.14416797672E+03 -0.29519454066E+03  0.46823785841E+03  0.69797629931E+03  0.40000000000E+03 0. -1.
   -9000007    1    1    2    0  501 -0.14416797672E+03  0.29519454066E+03  0.66039973595E+03  0.83907808551E+03  0.40000000000E+03 0.  1.
<mgrwt>
<rscale>  2 0.51761397E+03</rscale>
<asrwt>0</asrwt>
<pdfrwt beam="1">  1        1 0.20505322E+00 0.51761397E+03</pdfrwt>
<pdfrwt beam="2">  1       -1 0.31416677E-01 0.51761397E+03</pdfrwt>
<totfact> 0.84598501E+01</totfact>
</mgrwt>
</event>
<event>
 4    1  0.2454657E-002  0.4645995E+03  0.7818608E-02  0.1023456E+00
          2   -1    0    0  502    0  0.00000000000E+00  0.00000000000E+00  0.79763526982E+03  0.79763526982E+03  0.00000000000E+00 0.  1.
         -2   -1    0    0    0  501 -0.00000000000E+00 -0.00000000000E+00 -0.28283703545E+03  0.28283703545E+03  0.00000000000E+00 0. -1.
    9000007    1    1    2  502    0 -0.17535294744E+03  0.15844246873E+03  0.14510064921E+03  0.48673079877E+03  0.40000000000E+03 0. -1.
   -9000007    1    1    2    0  501  0.17535294744E+03 -0.15844246873E+03  0.36969758516E+03  0.59374150650E+03  0.40000000000E+03 0.  1.
<mgrwt>
<rscale>  2 0.46459947E+03</rscale>
<asrwt>0</asrwt>
<pdfrwt beam="1">  1        2 0.12271312E+00 0.46459947E+03</pdfrwt>
<pdfrwt beam="2">  1       -2 0.43513390E-01 0.46459947E+03</pdfrwt>
<totfact> 0.17835298E+02</totfact>
</mgrwt>
</event>
<event>
 4    1  0.2454657E-002  0.4058237E+03  0.7818608E-02  0.1041782E+00
         -2   -1    0    0    0  501 -0.00000000000E+00  0.00000000000E+00  0.53392368661E+02  0.53392368661E+02  0.00000000000E+00 0.  1.
          2   -1    0    0  502    0  0.00000000000E+00 -0.00000000000E+00 -0.39173351853E+04  0.39173351853E+04  0.00000000000E+00 0. -1.
    9000007    1    1    2  502    0 -0.48496819927E+02  0.48382968996E+02 -0.10165853880E+04  0.10945952240E+04  0.40000000000E+03 0.  1.
   -9000007    1    1    2    0  501  0.48496819927E+02 -0.48382968996E+02 -0.28473574286E+04  0.28761323299E+04  0.40000000000E+03 0. -1.
<mgrwt>
<rscale>  2 0.40582367E+03</rscale>
<asrwt>0</asrwt>
<pdfrwt beam="1">  1        2 0.60266717E+00 0.40582367E+03</pdfrwt>
<pdfrwt beam="2">  1       -2 0.82142076E-02 0.40582367E+03</pdfrwt>
<totfact> 0.44543069E+01</totfact>
</mgrwt>
</event>
<event>
 4    1  0.2454657E-002  0.5729038E+03  0.7818608E-02  0.9963273E-01
          4   -1    0    0  502    0  0.00000000000E+00  0.00000000000E+00  0.21383077467E+04  0.21383077467E+04  0.00000000000E+00 0.  1.
         -4   -1    0    0    0  501 -0.00000000000E+00 -0.00000000000E+00 -0.16389315403E+03  0.16389315403E+03  0.00000000000E+00 0. -1.
    9000007    1    1    2  502    0 -0.75592781166E+02  0.40311853382E+03  0.69726068494E+03  0.90243630447E+03  0.40000000000E+03 0. -1.
   -9000007    1    1    2    0  501  0.75592781166E+02 -0.40311853382E+03  0.12771539077E+04  0.13997645962E+04  0.40000000000E+03 0.  1.
<mgrwt>
<rscale>  2 0.57290385E+03</rscale>
<asrwt>0</asrwt>
<pdfrwt beam="1">  1        4 0.32897040E+00 0.57290385E+03</pdfrwt>
<pdfrwt beam="2">  1       -4 0.25214333E-01 0.57290385E+03</pdfrwt>
<totfact> 0.63105335E-01</totfact>
</mgrwt>
</event>
<event>
 4    1  0.2454657E-002  0.5384793E+03  0.7818608E-02  0.1004196E+00
         -2   -1    0    0    0  501 -0.00000000000E+00  0.00000000000E+00  0.21041144081E+03  0.21041144081E+03  0.00000000000E+00 0.  1.
          2   -1    0    0  502    0  0.00000000000E+00 -0.00000000000E+00 -0.14137036966E+04  0.14137036966E+04  0.00000000000E+00 0. -1.
    9000007    1    1    2  502    0  0.30616072585E+03 -0.19033004975E+03 -0.73058667266E+03  0.90758845528E+03  0.40000000000E+03 0.  1.
   -9000007    1    1    2    0  501 -0.30616072585E+03  0.19033004975E+03 -0.47270558312E+03  0.71652668213E+03  0.40000000000E+03 0.  1.
<mgrwt>
<rscale>  2 0.53847926E+03</rscale>
<asrwt>0</asrwt>
<pdfrwt beam="1">  1        2 0.21749287E+00 0.53847926E+03</pdfrwt>
<pdfrwt beam="2">  1       -2 0.32370991E-01 0.53847926E+03</pdfrwt>
<totfact> 0.13094916E+02</totfact>
</mgrwt>
</event>
<event>
 4    1  0.2454657E-002  0.4742015E+03  0.7818608E-02  0.1020741E+00
         -2   -1    0    0    0  501 -0.00000000000E+00  0.00000000000E+00  0.22113169096E+03  0.22113169096E+03  0.00000000000E+00 0.  1.
          2   -1    0    0  502    0  0.00000000000E+00 -0.00000000000E+00 -0.10170125184E+04  0.10170125184E+04  0.00000000000E+00 0. -1.
    9000007    1    1    2  502    0 -0.24337272626E+03 -0.75078661574E+02 -0.40467426880E+03  0.62340063614E+03  0.40000000000E+03 0.  1.
   -9000007    1    1    2    0  501  0.24337272626E+03  0.75078661574E+02 -0.39120655866E+03  0.61474357324E+03  0.40000000000E+03 0. -1.
<mgrwt>
<rscale>  2 0.47420153E+03</rscale>
<asrwt>0</asrwt>
<pdfrwt beam="1">  1        2 0.15646347E+00 0.47420153E+03</pdfrwt>
<pdfrwt beam="2">  1       -2 0.34020260E-01 0.47420153E+03</pdfrwt>
<totfact> 0.20476975E+02</totfact>
</mgrwt>
</event>
<event>
 4    1  0.2454657E-002  0.5537961E+03  0.7818608E-02  0.1000619E+00
          2   -1    0    0  502    0  0.00000000000E+00  0.00000000000E+00  0.75458576223E+03  0.75458576223E+03  0.00000000000E+00 0. -1.
         -2   -1    0    0    0  501 -0.00000000000E+00 -0.00000000000E+00 -0.42710311688E+03  0.42710311688E+03  0.00000000000E+00 0.  1.
    9000007    1    1    2  502    0 -0.82991727995E+02  0.37390166045E+03  0.29371548804E+03  0.62686431268E+03  0.40000000000E+03 0.  1.
   -9000007    1    1    2    0  501  0.82991727995E+02 -0.37390166045E+03  0.33767157301E+02  0.55482456643E+03  0.40000000000E+03 0. -1.
<mgrwt>
<rscale>  2 0.55379606E+03</rscale>
<asrwt>0</asrwt>
<pdfrwt beam="1">  1        2 0.11609012E+00 0.55379606E+03</pdfrwt>
<pdfrwt beam="2">  1       -2 0.65708172E-01 0.55379606E+03</pdfrwt>
<totfact> 0.81596706E+01</totfact>
</mgrwt>
</event>
<event>
 4    1  0.2454657E-002  0.4371132E+03  0.7818608E-02  0.1031636E+00
         -1   -1    0    0    0  501 -0.00000000000E+00  0.00000000000E+00  0.50516577489E+03  0.50516577489E+03  0.00000000000E+00 0. -1.
          1   -1    0    0  502    0  0.00000000000E+00 -0.00000000000E+00 -0.86129539156E+03  0.86129539156E+03  0.00000000000E+00 0.  1.
    9000007    1    1    2  502    0 -0.17066789851E+03  0.44050579505E+02  0.33361110001E+03  0.54987666907E+03  0.40000000000E+03 0.  1.
   -9000007    1    1    2    0  501  0.17066789851E+03 -0.44050579505E+02 -0.68974071668E+03  0.81658449739E+03  0.40000000000E+03 0.  1.
<mgrwt>
<rscale>  2 0.43711324E+03</rscale>
<asrwt>0</asrwt>
<pdfrwt beam="1">  1        1 0.13250698E+00 0.43711324E+03</pdfrwt>
<pdfrwt beam="2">  1       -1 0.77717813E-01 0.43711324E+03</pdfrwt>
<totfact> 0.34779260E+01</totfact>
</mgrwt>
</event>
<event>
 4    1  0.2454657E-002  0.4834354E+03  0.7818608E-02  0.1018195E+00
         -1   -1    0    0    0  501 -0.00000000000E+00  0.00000000000E+00  0.66805037892E+03  0.66805037892E+03  0.00000000000E+00 0.  1.
          1   -1    0    0  502    0  0.00000000000E+00 -0.00000000000E+00 -0.63082824453E+03  0.63082824453E+03  0.00000000000E+00 0. -1.
    9000007    1    1    2  502    0 -0.27408543422E+02 -0.27010838496E+03 -0.41482816067E+03  0.63701818715E+03  0.40000000000E+03 0. -1.
   -9000007    1    1    2    0  501  0.27408543422E+02  0.27010838496E+03  0.45205029506E+03  0.66186043630E+03  0.40000000000E+03 0.  1.
<mgrwt>
<rscale>  2 0.48343538E+03</rscale>
<asrwt>0</asrwt>
<pdfrwt beam="1">  1        1 0.97050499E-01 0.48343538E+03</pdfrwt>
<pdfrwt beam="2">  1       -1 0.10277698E+00 0.48343538E+03</pdfrwt>
<totfact> 0.30181468E+01</totfact>
</mgrwt>
</event>
<event>
 4    1  0.2454657E-002  0.4110292E+03  0.7818608E-02  0.1040026E+00
         -2   -1    0    0    0  501 -0.00000000000E+00  0.00000000000E+00  0.22269509496E+03  0.22269509496E+03  0.00000000000E+00 0.  1.
          2   -1    0    0  502    0  0.00000000000E+00 -0.00000000000E+00 -0.76072939331E+03  0.76072939331E+03  0.00000000000E+00 0. -1.
    9000007    1    1    2  502    0  0.83694251669E+02  0.44048171793E+02 -0.29479876703E+03  0.50581743964E+03  0.40000000000E+03 0.  1.
   -9000007    1    1    2    0  501 -0.83694251669E+02 -0.44048171793E+02 -0.24323553133E+03  0.47760704863E+03  0.40000000000E+03 0. -1.
<mgrwt>
<rscale>  2 0.41102916E+03</rscale>
<asrwt>0</asrwt>
<pdfrwt beam="1">  1        2 0.11703529E+00 0.41102916E+03</pdfrwt>
<pdfrwt beam="2">  1       -2 0.34260783E-01 0.41102916E+03</pdfrwt>
<totfact> 0.30136589E+02</totfact>
</mgrwt>
</event>
<event>
 4    1  0.2454657E-002  0.4835056E+03  0.7818608E-02  0.1018176E+00
          2   -1    0    0  502    0  0.00000000000E+00  0.00000000000E+00  0.13784313697E+04  0.13784313697E+04  0.00000000000E+00 0. -1.
         -2   -1    0    0    0  501 -0.00000000000E+00 -0.00000000000E+00 -0.17256957778E+03  0.17256957778E+03  0.00000000000E+00 0.  1.
    9000007    1    1    2  502    0  0.26259240453E+03  0.69447299879E+02  0.70471343329E+03  0.85463367675E+03  0.40000000000E+03 0. -1.
   -9000007    1    1    2    0  501 -0.26259240453E+03 -0.69447299879E+02  0.50114835859E+03  0.69636727069E+03  0.40000000000E+03 0.  1.
<mgrwt>
<rscale>  2 0.48350563E+03</rscale>
<asrwt>0</asrwt>
<pdfrwt beam="1">  1        2 0.21206636E+00 0.48350563E+03</pdfrwt>
<pdfrwt beam="2">  1       -2 0.26549167E-01 0.48350563E+03</pdfrwt>
<totfact> 0.19847558E+02</totfact>
</mgrwt>
</event>
<event>
 4    1  0.2454657E-002  0.4107955E+03  0.7818608E-02  0.1040104E+00
          1   -1    0    0  502    0  0.00000000000E+00  0.00000000000E+00  0.14295719825E+04  0.14295719825E+04  0.00000000000E+00 0.  1.
         -1   -1    0    0    0  501 -0.00000000000E+00 -0.00000000000E+00 -0.15125863156E+03  0.15125863156E+03  0.00000000000E+00 0. -1.
    9000007    1    1    2  502    0  0.21257135745E+02  0.91110269890E+02  0.10095451412E+04  0.10899240062E+04  0.40000000000E+03 0.  1.
   -9000007    1    1    2    0  501 -0.21257135745E+02 -0.91110269890E+02  0.26876820971E+03  0.49090660787E+03  0.40000000000E+03 0. -1.
<mgrwt>
<rscale>  2 0.41079551E+03</rscale>
<asrwt>0</asrwt>
<pdfrwt beam="1">  1        1 0.21993414E+00 0.41079551E+03</pdfrwt>
<pdfrwt beam="2">  1       -1 0.23270560E-01 0.41079551E+03</pdfrwt>
<totfact> 0.12302182E+02</totfact>
</mgrwt>
</event>
<event>
 4    1  0.2454657E-002  0.4668026E+03  0.7818608E-02  0.1022827E+00
         -2   -1    0    0    0  501 -0.00000000000E+00  0.00000000000E+00  0.16826647819E+03  0.16826647819E+03  0.00000000000E+00 0.  1.
          2   -1    0    0  502    0  0.00000000000E+00 -0.00000000000E+00 -0.12954439363E+04  0.12954439363E+04  0.00000000000E+00 0. -1.
    9000007    1    1    2  502    0 -0.17067252134E+03 -0.16963351377E+03 -0.57717757183E+03  0.74231973432E+03  0.40000000000E+03 0.  1.
   -9000007    1    1    2    0  501  0.17067252134E+03  0.16963351377E+03 -0.54999988624E+03  0.72139068014E+03  0.40000000000E+03 0.  1.
<mgrwt>
<rscale>  2 0.46680257E+03</rscale>
<asrwt>0</asrwt>
<pdfrwt beam="1">  1        2 0.19929907E+00 0.46680257E+03</pdfrwt>
<pdfrwt beam="2">  1       -2 0.25887150E-01 0.46680257E+03</pdfrwt>
<totfact> 0.23172832E+02</totfact>
</mgrwt>
</event>
<event>
 4    1  0.2454657E-002  0.4088970E+03  0.7818608E-02  0.1040742E+00
         -2   -1    0    0    0  501 -0.00000000000E+00  0.00000000000E+00  0.20719247330E+03  0.20719247330E+03  0.00000000000E+00 0.  1.
          2   -1    0    0  502    0  0.00000000000E+00 -0.00000000000E+00 -0.92669863791E+03  0.92669863791E+03  0.00000000000E+00 0. -1.
    9000007    1    1    2  502    0 -0.54677222553E+02  0.64862801736E+02 -0.56354302259E+03  0.69625966422E+03  0.40000000000E+03 0. -1.
   -9000007    1    1    2    0  501  0.54677222553E+02 -0.64862801736E+02 -0.15596314202E+03  0.43763144698E+03  0.40000000000E+03 0.  1.
<mgrwt>
<rscale>  2 0.40889703E+03</rscale>
<asrwt>0</asrwt>
<pdfrwt beam="1">  1        2 0.14256902E+00 0.40889703E+03</pdfrwt>
<pdfrwt beam="2">  1       -2 0.31875765E-01 0.40889703E+03</pdfrwt>
<totfact> 0.26547908E+02</totfact>
</mgrwt>
</event>
<event>
 4    1  0.2454657E-002  0.4152258E+03  0.7818608E-02  0.1038631E+00
          1   -1    0    0  502    0  0.00000000000E+00  0.00000000000E+00  0.54764298066E+03  0.54764298066E+03  0.00000000000E+00 0. -1.
         -1   -1    0    0    0  501 -0.00000000000E+00 -0.00000000000E+00 -0.31706198868E+03  0.31706198868E+03  0.00000000000E+00 0.  1.
    9000007    1    1    2  502    0  0.62391861270E+02 -0.92302439359E+02  0.78986128013E+02  0.42267161377E+03  0.40000000000E+03 0.  1.
   -9000007    1    1    2    0  501 -0.62391861270E+02  0.92302439359E+02  0.15159486396E+03  0.44203335558E+03  0.40000000000E+03 0. -1.
<mgrwt>
<rscale>  2 0.41522582E+03</rscale>
<asrwt>0</asrwt>
<pdfrwt beam="1">  1        1 0.84252766E-01 0.41522582E+03</pdfrwt>
<pdfrwt beam="2">  1       -1 0.48778767E-01 0.41522582E+03</pdfrwt>
<totfact> 0.17066621E+02</totfact>
</mgrwt>
</event>
<event>
 4    1  0.2454657E-002  0.4262873E+03  0.7818608E-02  0.1035039E+00
         -1   -1    0    0    0  501 -0.00000000000E+00  0.00000000000E+00  0.17757085385E+03  0.17757085385E+03  0.00000000000E+00 0. -1.
          1   -1    0    0  502    0  0.00000000000E+00 -0.00000000000E+00 -0.10420945814E+04  0.10420945814E+04  0.00000000000E+00 0.  1.
    9000007    1    1    2  502    0  0.16368227889E+02  0.14646830642E+03 -0.35051893077E+03  0.55189166011E+03  0.40000000000E+03 0. -1.
   -9000007    1    1    2    0  501 -0.16368227889E+02 -0.14646830642E+03 -0.51400479679E+03  0.66777377516E+03  0.40000000000E+03 0. -1.
<mgrwt>
<rscale>  2 0.42628733E+03</rscale>
<asrwt>0</asrwt>
<pdfrwt beam="1">  1        1 0.16032224E+00 0.42628733E+03</pdfrwt>
<pdfrwt beam="2">  1       -1 0.27318594E-01 0.42628733E+03</pdfrwt>
<totfact> 0.17613416E+02</totfact>
</mgrwt>
</event>
<event>
 4    1  0.2454657E-002  0.5129606E+03  0.7818608E-02  0.1010450E+00
         -2   -1    0    0    0  501 -0.00000000000E+00  0.00000000000E+00  0.35750221865E+03  0.35750221865E+03  0.00000000000E+00 0.  1.
          2   -1    0    0  502    0  0.00000000000E+00 -0.00000000000E+00 -0.76081145717E+03  0.76081145717E+03  0.00000000000E+00 0. -1.
    9000007    1    1    2  502    0 -0.17564265527E+03 -0.26884615873E+03 -0.30259167729E+03  0.59555883217E+03  0.40000000000E+03 0. -1.
   -9000007    1    1    2    0  501  0.17564265527E+03  0.26884615873E+03 -0.10071756123E+03  0.52275484365E+03  0.40000000000E+03 0.  1.
<mgrwt>
<rscale>  2 0.51296062E+03</rscale>
<asrwt>0</asrwt>
<pdfrwt beam="1">  1        2 0.11704792E+00 0.51296062E+03</pdfrwt>
<pdfrwt beam="2">  1       -2 0.55000341E-01 0.51296062E+03</pdfrwt>
<totfact> 0.11779229E+02</totfact>
</mgrwt>
</event>
<event>
 4    1  0.2454657E-002  0.4086470E+03  0.7818608E-02  0.1040826E+00
         -1   -1    0    0    0  501 -0.00000000000E+00  0.00000000000E+00  0.15084625574E+03  0.15084625574E+03  0.00000000000E+00 0. -1.
          1   -1    0    0  502    0  0.00000000000E+00 -0.00000000000E+00 -0.11289802145E+04  0.11289802145E+04  0.00000000000E+00 0.  1.
    9000007    1    1    2  502    0 -0.58995314280E+02  0.59261173739E+02 -0.57828066912E+03  0.70809665025E+03  0.40000000000E+03 0.  1.
   -9000007    1    1    2    0  501  0.58995314280E+02 -0.59261173739E+02 -0.39985328959E+03  0.57172981995E+03  0.40000000000E+03 0.  1.
<mgrwt>
<rscale>  2 0.40864695E+03</rscale>
<asrwt>0</asrwt>
<pdfrwt beam="1">  1        1 0.17368927E+00 0.40864695E+03</pdfrwt>
<pdfrwt beam="2">  1       -1 0.23207116E-01 0.40864695E+03</pdfrwt>
<totfact> 0.20055527E+02</totfact>
</mgrwt>
</event>
<event>
 4    1  0.2454657E-002  0.4457513E+03  0.7818608E-02  0.1028997E+00
         -2   -1    0    0    0  501 -0.00000000000E+00  0.00000000000E+00  0.26231609806E+03  0.26231609806E+03  0.00000000000E+00 0.  1.
          2   -1    0    0  502    0  0.00000000000E+00 -0.00000000000E+00 -0.81121706618E+03  0.81121706618E+03  0.00000000000E+00 0. -1.
    9000007    1    1    2  502    0  0.91639407221E+01 -0.19649484482E+03 -0.41262592426E+03  0.60741613019E+03  0.40000000000E+03 0.  1.
   -9000007    1    1    2    0  501 -0.91639407221E+01  0.19649484482E+03 -0.13627504386E+03  0.46611703405E+03  0.40000000000E+03 0. -1.
<mgrwt>
<rscale>  2 0.44575128E+03</rscale>
<asrwt>0</asrwt>
<pdfrwt beam="1">  1        2 0.12480262E+00 0.44575128E+03</pdfrwt>
<pdfrwt beam="2">  1       -2 0.40356324E-01 0.44575128E+03</pdfrwt>
<totfact> 0.20241191E+02</totfact>
</mgrwt>
</event>
<event>
 4    1  0.2454657E-002  0.4192411E+03  0.7818608E-02  0.1037314E+00
         -2   -1    0    0    0  501 -0.00000000000E+00  0.00000000000E+00  0.10543843358E+03  0.10543843358E+03  0.00000000000E+00 0.  1.
          2   -1    0    0  502    0  0.00000000000E+00 -0.00000000000E+00 -0.20967908773E+04  0.20967908773E+04  0.00000000000E+00 0. -1.
    9000007    1    1    2  502    0  0.12443329503E+03  0.16715923302E+02 -0.14942127734E+04  0.15519132963E+04  0.40000000000E+03 0. -1.
   -9000007    1    1    2    0  501 -0.12443329503E+03 -0.16715923302E+02 -0.49713967025E+03  0.65031601452E+03  0.40000000000E+03 0.  1.
<mgrwt>
<rscale>  2 0.41924106E+03</rscale>
<asrwt>0</asrwt>
<pdfrwt beam="1">  1        2 0.32258320E+00 0.41924106E+03</pdfrwt>
<pdfrwt beam="2">  1       -2 0.16221298E-01 0.41924106E+03</pdfrwt>
<totfact> 0.19342181E+02</totfact>
</mgrwt>
</event>
<event>
 4    1  0.2454657E-002  0.6580813E+03  0.7818608E-02  0.9791732E-01
         -1   -1    0    0    0  501 -0.00000000000E+00  0.00000000000E+00  0.19835345553E+03  0.19835345553E+03  0.00000000000E+00 0. -1.
          1   -1    0    0  502    0  0.00000000000E+00 -0.00000000000E+00 -0.22801893795E+04  0.22801893795E+04  0.00000000000E+00 0.  1.
    9000007    1    1    2  502    0 -0.43574585524E+03 -0.28843821384E+03 -0.12963361243E+04  0.14538082407E+04  0.40000000000E+03 0. -1.
   -9000007    1    1    2    0  501  0.43574585524E+03  0.28843821384E+03 -0.78549979967E+03  0.10247345943E+04  0.40000000000E+03 0.  1.
<mgrwt>
<rscale>  2 0.65808134E+03</rscale>
<asrwt>0</asrwt>
<pdfrwt beam="1">  1        1 0.35079836E+00 0.65808134E+03</pdfrwt>
<pdfrwt beam="2">  1       -1 0.30515916E-01 0.65808134E+03</pdfrwt>
<totfact> 0.20145530E+01</totfact>
</mgrwt>
</event>
<event>
 4    1  0.2454657E-002  0.4228325E+03  0.7818608E-02  0.1036148E+00
          2   -1    0    0  502    0  0.00000000000E+00  0.00000000000E+00  0.10578938533E+04  0.10578938533E+04  0.00000000000E+00 0. -1.
         -2   -1    0    0    0  501 -0.00000000000E+00 -0.00000000000E+00 -0.22689493971E+03  0.22689493971E+03  0.00000000000E+00 0.  1.
    9000007    1    1    2  502    0  0.13447697611E+03 -0.26518366667E+02  0.91011766285E+02  0.43251638405E+03  0.40000000000E+03 0.  1.
   -9000007    1    1    2    0  501 -0.13447697611E+03  0.26518366667E+02  0.73998714726E+03  0.85227240891E+03  0.40000000000E+03 0. -1.
<mgrwt>
<rscale>  2 0.42283245E+03</rscale>
<asrwt>0</asrwt>
<pdfrwt beam="1">  1        2 0.16275290E+00 0.42283245E+03</pdfrwt>
<pdfrwt beam="2">  1       -2 0.34906914E-01 0.42283245E+03</pdfrwt>
<totfact> 0.18503559E+02</totfact>
</mgrwt>
</event>
<event>
 4    1  0.2454657E-002  0.4837890E+03  0.7818608E-02  0.1018099E+00
          1   -1    0    0  502    0  0.00000000000E+00  0.00000000000E+00  0.10844020057E+04  0.10844020057E+04  0.00000000000E+00 0. -1.
         -1   -1    0    0    0  501 -0.00000000000E+00 -0.00000000000E+00 -0.27936086547E+03  0.27936086547E+03  0.00000000000E+00 0.  1.
    9000007    1    1    2  502    0  0.14474009259E+03  0.23043894552E+03  0.72768400982E+03  0.87382825553E+03  0.40000000000E+03 0. -1.
   -9000007    1    1    2    0  501 -0.14474009259E+03 -0.23043894552E+03  0.77357130465E+02  0.48993461569E+03  0.40000000000E+03 0.  1.
<mgrwt>
<rscale>  2 0.48378901E+03</rscale>
<asrwt>0</asrwt>
<pdfrwt beam="1">  1        1 0.16683108E+00 0.48378901E+03</pdfrwt>
<pdfrwt beam="2">  1       -1 0.42978595E-01 0.48378901E+03</pdfrwt>
<totfact> 0.73213564E+01</totfact>
</mgrwt>
</event>
<event>
 4    1  0.2454657E-002  0.4351113E+03  0.7818608E-02  0.1032257E+00
          1   -1    0    0  502    0  0.00000000000E+00  0.00000000000E+00  0.29091271278E+03  0.29091271278E+03  0.00000000000E+00 0.  1.
         -1   -1    0    0    0  501 -0.00000000000E+00 -0.00000000000E+00 -0.70172331907E+03  0.70172331907E+03  0.00000000000E+00 0. -1.
    9000007    1    1    2  502    0  0.12430896821E+03 -0.11776726051E+03 -0.71685353614E+02  0.44097691226E+03  0.40000000000E+03 0.  1.
   -9000007    1    1    2    0  501 -0.12430896821E+03  0.11776726051E+03 -0.33912525267E+03  0.55165911959E+03  0.40000000000E+03 0. -1.
<mgrwt>
<rscale>  2 0.43511130E+03</rscale>
<asrwt>0</asrwt>
<pdfrwt beam="1">  1        1 0.44755802E-01 0.43511130E+03</pdfrwt>
<pdfrwt beam="2">  1       -1 0.10795743E+00 0.43511130E+03</pdfrwt>
<totfact> 0.76182802E+01</totfact>
</mgrwt>
</event>
<event>
 4    1  0.2454657E-002  0.4449721E+03  0.7818608E-02  0.1029232E+00
          2   -1    0    0  502    0  0.00000000000E+00  0.00000000000E+00  0.61943106327E+03  0.61943106327E+03  0.00000000000E+00 0. -1.
         -2   -1    0    0    0  501 -0.00000000000E+00 -0.00000000000E+00 -0.96337645733E+03  0.96337645733E+03  0.00000000000E+00 0.  1.
    9000007    1    1    2  502    0  0.67887901275E+02 -0.18273302984E+03 -0.81889381092E+03  0.93198025779E+03  0.40000000000E+03 0.  1.
   -9000007    1    1    2    0  501 -0.67887901275E+02  0.18273302984E+03  0.47494841686E+03  0.65082726281E+03  0.40000000000E+03 0. -1.
<mgrwt>
<rscale>  2 0.44497205E+03</rscale>
<asrwt>0</asrwt>
<pdfrwt beam="1">  1        2 0.95297087E-01 0.44497205E+03</pdfrwt>
<pdfrwt beam="2">  1       -2 0.14821176E+00 0.44497205E+03</pdfrwt>
<totfact> 0.15553385E+01</totfact>
</mgrwt>
</event>
<event>
 4    1  0.2454657E-002  0.4388168E+03  0.7818608E-02  0.1031110E+00
          2   -1    0    0  502    0  0.00000000000E+00  0.00000000000E+00  0.98261136592E+03  0.98261136592E+03  0.00000000000E+00 0. -1.
         -2   -1    0    0    0  501 -0.00000000000E+00 -0.00000000000E+00 -0.19834957639E+03  0.19834957639E+03  0.00000000000E+00 0.  1.
    9000007    1    1    2  502    0 -0.11360487706E+03 -0.14019304821E+03  0.45683667269E+03  0.63345079081E+03  0.40000000000E+03 0.  1.
   -9000007    1    1    2    0  501  0.11360487706E+03  0.14019304821E+03  0.32742511684E+03  0.54751015150E+03  0.40000000000E+03 0.  1.
<mgrwt>
<rscale>  2 0.43881677E+03</rscale>
<asrwt>0</asrwt>
<pdfrwt beam="1">  1        2 0.15117098E+00 0.43881677E+03</pdfrwt>
<pdfrwt beam="2">  1       -2 0.30515320E-01 0.43881677E+03</pdfrwt>
<totfact> 0.26433936E+02</totfact>
</mgrwt>
</event>
<event>
 4    1  0.2454657E-002  0.5644447E+03  0.7818608E-02  0.9982048E-01
          1   -1    0    0  502    0  0.00000000000E+00  0.00000000000E+00  0.11717854557E+04  0.11717854557E+04  0.00000000000E+00 0. -1.
         -1   -1    0    0    0  501 -0.00000000000E+00 -0.00000000000E+00 -0.39675567214E+03  0.39675567214E+03  0.00000000000E+00 0.  1.
    9000007    1    1    2  502    0 -0.32016740702E+03 -0.23683456400E+03  0.82748618533E+03  0.10016641983E+04  0.40000000000E+03 0. -1.
   -9000007    1    1    2    0  501  0.32016740702E+03  0.23683456400E+03 -0.52456401735E+02  0.56687692959E+03  0.40000000000E+03 0.  1.
<mgrwt>
<rscale>  2 0.56444466E+03</rscale>
<asrwt>0</asrwt>
<pdfrwt beam="1">  1        1 0.18027468E+00 0.56444466E+03</pdfrwt>
<pdfrwt beam="2">  1       -1 0.61039335E-01 0.56444466E+03</pdfrwt>
<totfact> 0.32147443E+01</totfact>
</mgrwt>
</event>
<event>
 4    1  0.2454657E-002  0.5319884E+03  0.7818608E-02  0.1005751E+00
         -2   -1    0    0    0  501 -0.00000000000E+00  0.00000000000E+00  0.11941023168E+04  0.11941023168E+04  0.00000000000E+00 0.  1.
          2   -1    0    0  502    0  0.00000000000E+00 -0.00000000000E+00 -0.26798119168E+03  0.26798119168E+03  0.00000000000E+00 0. -1.
    9000007    1    1    2  502    0  0.12882575944E+03  0.32621401785E+03  0.71159342910E+03  0.88846883461E+03  0.40000000000E+03 0.  1.
   -9000007    1    1    2    0  501 -0.12882575944E+03 -0.32621401785E+03  0.21452769604E+03  0.57361467390E+03  0.40000000000E+03 0. -1.
<mgrwt>
<rscale>  2 0.53198840E+03</rscale>
<asrwt>0</asrwt>
<pdfrwt beam="1">  1        2 0.41227876E-01 0.53198840E+03</pdfrwt>
<pdfrwt beam="2">  1       -2 0.18370805E+00 0.53198840E+03</pdfrwt>
<totfact> 0.22047831E+01</totfact>
</mgrwt>
</event>
<event>
 4    1  0.2454657E-002  0.4101816E+03  0.7818608E-02  0.1040310E+00
          2   -1    0    0  502    0  0.00000000000E+00  0.00000000000E+00  0.16428342587E+04  0.16428342587E+04  0.00000000000E+00 0. -1.
         -2   -1    0    0    0  501 -0.00000000000E+00 -0.00000000000E+00 -0.17762032123E+03  0.17762032123E+03  0.00000000000E+00 0.  1.
    9000007    1    1    2  502    0 -0.64377258498E+02 -0.64066742565E+02  0.13248925178E+04  0.13869351689E+04  0.40000000000E+03 0. -1.
   -9000007    1    1    2    0  501  0.64377258498E+02  0.64066742565E+02  0.14032141961E+03  0.43351941100E+03  0.40000000000E+03 0.  1.
<mgrwt>
<rscale>  2 0.41018164E+03</rscale>
<asrwt>0</asrwt>
<pdfrwt beam="1">  1        2 0.25274372E+00 0.41018164E+03</pdfrwt>
<pdfrwt beam="2">  1       -2 0.27326204E-01 0.41018164E+03</pdfrwt>
<totfact> 0.13638227E+02</totfact>
</mgrwt>
</event>
<event>
 4    1  0.2454657E-002  0.4323520E+03  0.7818608E-02  0.1033120E+00
          2   -1    0    0  502    0  0.00000000000E+00  0.00000000000E+00  0.27795751139E+03  0.27795751139E+03  0.00000000000E+00 0. -1.
         -2   -1    0    0    0  501 -0.00000000000E+00 -0.00000000000E+00 -0.70851419153E+03  0.70851419153E+03  0.00000000000E+00 0.  1.
    9000007    1    1    2  502    0  0.94346749873E+02  0.13426449292E+03 -0.32647131387E+03  0.54176727665E+03  0.40000000000E+03 0.  1.
   -9000007    1    1    2    0  501 -0.94346749873E+02 -0.13426449292E+03 -0.10408536627E+03  0.44470442627E+03  0.40000000000E+03 0.  1.
<mgrwt>
<rscale>  2 0.43235201E+03</rscale>
<asrwt>0</asrwt>
<pdfrwt beam="1">  1        2 0.42762694E-01 0.43235201E+03</pdfrwt>
<pdfrwt beam="2">  1       -2 0.10900218E+00 0.43235201E+03</pdfrwt>
<totfact> 0.82628471E+01</totfact>
</mgrwt>
</event>
<event>
 4    1  0.2454657E-002  0.5044186E+03  0.7818608E-02  0.1012632E+00
         -2   -1    0    0    0  501 -0.00000000000E+00  0.00000000000E+00  0.88268536098E+03  0.88268536098E+03  0.00000000000E+00 0. -1.
          2   -1    0    0  502    0  0.00000000000E+00 -0.00000000000E+00 -0.47615804827E+03  0.47615804827E+03  0.00000000000E+00 0.  1.
    9000007    1    1    2  502    0 -0.26712082093E+03 -0.15193619478E+03  0.63007032331E+03  0.80711012419E+03  0.40000000000E+03 0.  1.
   -9000007    1    1    2    0  501  0.26712082093E+03  0.15193619478E+03 -0.22354301060E+03  0.55173328506E+03  0.40000000000E+03 0.  1.
<mgrwt>
<rscale>  2 0.50441862E+03</rscale>
<asrwt>0</asrwt>
<pdfrwt beam="1">  1        2 0.73255084E-01 0.50441862E+03</pdfrwt>
<pdfrwt beam="2">  1       -2 0.13579775E+00 0.50441862E+03</pdfrwt>
<totfact> 0.26261463E+01</totfact>
</mgrwt>
</event>
<event>
 4    1  0.2454657E-002  0.4069168E+03  0.7818608E-02  0.1041411E+00
          2   -1    0    0  502    0  0.00000000000E+00  0.00000000000E+00  0.43890417646E+03  0.43890417646E+03  0.00000000000E+00 0.  1.
         -2   -1    0    0    0  501 -0.00000000000E+00 -0.00000000000E+00 -0.37726315351E+03  0.37726315351E+03  0.00000000000E+00 0. -1.
    9000007    1    1    2  502    0 -0.34451248362E+02 -0.66289919519E+02  0.29753623762E+02  0.40800308831E+03  0.40000000000E+03 0.  1.
   -9000007    1    1    2    0  501  0.34451248362E+02  0.66289919519E+02  0.31887399185E+02  0.40816424166E+03  0.40000000000E+03 0.  1.
<mgrwt>
<rscale>  2 0.40691675E+03</rscale>
<asrwt>0</asrwt>
<pdfrwt beam="1">  1        2 0.67523719E-01 0.40691675E+03</pdfrwt>
<pdfrwt beam="2">  1       -2 0.58040485E-01 0.40691675E+03</pdfrwt>
<totfact> 0.20394536E+02</totfact>
</mgrwt>
</event>
<event>
 4    1  0.2454657E-002  0.4208084E+03  0.7818608E-02  0.1036804E+00
          2   -1    0    0  502    0  0.00000000000E+00  0.00000000000E+00  0.87817638577E+02  0.87817638577E+02  0.00000000000E+00 0. -1.
         -2   -1    0    0    0  501 -0.00000000000E+00 -0.00000000000E+00 -0.22781147955E+04  0.22781147955E+04  0.00000000000E+00 0.  1.
    9000007    1    1    2  502    0 -0.12867452614E+03  0.22860511609E+02 -0.14960693128E+04  0.15541245528E+04  0.40000000000E+03 0.  1.
   -9000007    1    1    2    0  501  0.12867452614E+03 -0.22860511609E+02 -0.69422784408E+03  0.81180788132E+03  0.40000000000E+03 0. -1.
<mgrwt>
<rscale>  2 0.42080843E+03</rscale>
<asrwt>0</asrwt>
<pdfrwt beam="1">  1        2 0.13510408E-01 0.42080843E+03</pdfrwt>
<pdfrwt beam="2">  1       -2 0.35047914E+00 0.42080843E+03</pdfrwt>
<totfact> 0.77992892E+00</totfact>
</mgrwt>
</event>
<event>
 4    1  0.2454657E-002  0.4258484E+03  0.7818608E-02  0.1035179E+00
          2   -1    0    0  502    0  0.00000000000E+00  0.00000000000E+00  0.57544413227E+03  0.57544413227E+03  0.00000000000E+00 0. -1.
         -2   -1    0    0    0  501 -0.00000000000E+00 -0.00000000000E+00 -0.37713228492E+03  0.37713228492E+03  0.00000000000E+00 0.  1.
    9000007    1    1    2  502    0  0.25077670977E+02  0.14393751224E+03 -0.93944431049E+02  0.43608766680E+03  0.40000000000E+03 0.  1.
   -9000007    1    1    2    0  501 -0.25077670977E+02 -0.14393751224E+03  0.29225627840E+03  0.51648875038E+03  0.40000000000E+03 0. -1.
<mgrwt>
<rscale>  2 0.42584844E+03</rscale>
<asrwt>0</asrwt>
<pdfrwt beam="1">  1        2 0.88529867E-01 0.42584844E+03</pdfrwt>
<pdfrwt beam="2">  1       -2 0.58020351E-01 0.42584844E+03</pdfrwt>
<totfact> 0.14952543E+02</totfact>
</mgrwt>
</event>
<event>
 4    1  0.2454657E-002  0.4278405E+03  0.7818608E-02  0.1034544E+00
         -2   -1    0    0    0  501 -0.00000000000E+00  0.00000000000E+00  0.18010855640E+03  0.18010855640E+03  0.00000000000E+00 0.  1.
          2   -1    0    0  502    0  0.00000000000E+00 -0.00000000000E+00 -0.12746615600E+04  0.12746615600E+04  0.00000000000E+00 0. -1.
    9000007    1    1    2  502    0  0.21165051832E+02 -0.15033135459E+03 -0.21981052702E+03  0.48100326754E+03  0.40000000000E+03 0.  1.
   -9000007    1    1    2    0  501 -0.21165051832E+02  0.15033135459E+03 -0.87474247655E+03  0.97376684883E+03  0.40000000000E+03 0. -1.
<mgrwt>
<rscale>  2 0.42784048E+03</rscale>
<asrwt>0</asrwt>
<pdfrwt beam="1">  1        2 0.19610178E+00 0.42784048E+03</pdfrwt>
<pdfrwt beam="2">  1       -2 0.27709008E-01 0.42784048E+03</pdfrwt>
<totfact> 0.21147901E+02</totfact>
</mgrwt>
</event>
<event>
 4    1  0.2454657E-002  0.5342039E+03  0.7818608E-02  0.1005218E+00
          2   -1    0    0  502    0  0.00000000000E+00  0.00000000000E+00  0.63407337831E+03  0.63407337831E+03  0.00000000000E+00 0.  1.
         -2   -1    0    0    0  501 -0.00000000000E+00 -0.00000000000E+00 -0.53477257281E+03  0.53477257281E+03  0.00000000000E+00 0. -1.
    9000007    1    1    2  502    0 -0.31194481443E+03 -0.16752381252E+03 -0.18294740450E+03  0.56466233080E+03  0.40000000000E+03 0.  1.
   -9000007    1    1    2    0  501  0.31194481443E+03  0.16752381252E+03  0.28224821000E+03  0.60418362032E+03  0.40000000000E+03 0. -1.
<mgrwt>
<rscale>  2 0.53420389E+03</rscale>
<asrwt>0</asrwt>
<pdfrwt beam="1">  1        2 0.97549750E-01 0.53420389E+03</pdfrwt>
<pdfrwt beam="2">  1       -2 0.82272704E-01 0.53420389E+03</pdfrwt>
<totfact> 0.61961501E+01</totfact>
</mgrwt>
</event>
<event>
 4    1  0.2454657E-002  0.4610719E+03  0.7818608E-02  0.1024471E+00
          2   -1    0    0  502    0  0.00000000000E+00  0.00000000000E+00  0.16494156681E+04  0.16494156681E+04  0.00000000000E+00 0.  1.
         -2   -1    0    0    0  501 -0.00000000000E+00 -0.00000000000E+00 -0.19139883243E+03  0.19139883243E+03  0.00000000000E+00 0. -1.
    9000007    1    1    2  502    0  0.22823274330E+03 -0.22294980570E+02  0.12550179086E+04  0.13370329847E+04  0.40000000000E+03 0.  1.
   -9000007    1    1    2    0  501 -0.22823274330E+03  0.22294980570E+02  0.20299892703E+03  0.50378151579E+03  0.40000000000E+03 0. -1.
<mgrwt>
<rscale>  2 0.46107185E+03</rscale>
<asrwt>0</asrwt>
<pdfrwt beam="1">  1        2 0.25375625E+00 0.46107185E+03</pdfrwt>
<pdfrwt beam="2">  1       -2 0.29445975E-01 0.46107185E+03</pdfrwt>
<totfact> 0.11712120E+02</totfact>
</mgrwt>
</event>
<event>
 4    1  0.2454657E-002  0.4433847E+03  0.7818608E-02  0.1029713E+00
         -1   -1    0    0    0  501 -0.00000000000E+00  0.00000000000E+00  0.90656579229E+03  0.90656579229E+03  0.00000000000E+00 0. -1.
          1   -1    0    0  502    0  0.00000000000E+00 -0.00000000000E+00 -0.24441660497E+03  0.24441660497E+03  0.00000000000E+00 0.  1.
    9000007    1    1    2  502    0  0.41783677306E+02  0.18666588368E+03  0.52434004975E+03  0.68667497085E+03  0.40000000000E+03 0.  1.
   -9000007    1    1    2    0  501 -0.41783677306E+02 -0.18666588368E+03  0.13780913757E+03  0.46430742641E+03  0.40000000000E+03 0.  1.
<mgrwt>
<rscale>  2 0.44338474E+03</rscale>
<asrwt>0</asrwt>
<pdfrwt beam="1">  1        1 0.37602555E-01 0.44338474E+03</pdfrwt>
<pdfrwt beam="2">  1       -1 0.13947166E+00 0.44338474E+03</pdfrwt>
<totfact> 0.50948101E+01</totfact>
</mgrwt>
</event>
<event>
 4    1  0.2454657E-002  0.4082774E+03  0.7818608E-02  0.1040951E+00
         -1   -1    0    0    0  501 -0.00000000000E+00  0.00000000000E+00  0.14885776991E+04  0.14885776991E+04  0.00000000000E+00 0.  1.
          1   -1    0    0  502    0  0.00000000000E+00 -0.00000000000E+00 -0.14951279471E+03  0.14951279471E+03  0.00000000000E+00 0. -1.
    9000007    1    1    2  502    0 -0.30081593623E+02 -0.76062772246E+02  0.25916203657E+03  0.48358598904E+03  0.40000000000E+03 0. -1.
   -9000007    1    1    2    0  501  0.30081593623E+02  0.76062772246E+02  0.10799028678E+04  0.11545045047E+04  0.40000000000E+03 0.  1.
<mgrwt>
<rscale>  2 0.40827741E+03</rscale>
<asrwt>0</asrwt>
<pdfrwt beam="1">  1        1 0.23001969E-01 0.40827741E+03</pdfrwt>
<pdfrwt beam="2">  1       -1 0.22901194E+00 0.40827741E+03</pdfrwt>
<totfact> 0.22454719E+01</totfact>
</mgrwt>
</event>
<event>
 4    1  0.2454657E-002  0.4258748E+03  0.7818608E-02  0.1035171E+00
         -1   -1    0    0    0  501 -0.00000000000E+00  0.00000000000E+00  0.14693399220E+03  0.14693399220E+03  0.00000000000E+00 0.  1.
          1   -1    0    0  502    0  0.00000000000E+00 -0.00000000000E+00 -0.12624828002E+04  0.12624828002E+04  0.00000000000E+00 0. -1.
    9000007    1    1    2  502    0 -0.83444182037E+02  0.12002671861E+03 -0.45259489551E+03  0.62145915726E+03  0.40000000000E+03 0.  1.
   -9000007    1    1    2    0  501  0.83444182037E+02 -0.12002671861E+03 -0.66295391246E+03  0.78795763512E+03  0.40000000000E+03 0.  1.
<mgrwt>
<rscale>  2 0.42587480E+03</rscale>
<asrwt>0</asrwt>
<pdfrwt beam="1">  1        1 0.19422813E+00 0.42587480E+03</pdfrwt>
<pdfrwt beam="2">  1       -1 0.22605229E-01 0.42587480E+03</pdfrwt>
<totfact> 0.16797276E+02</totfact>
</mgrwt>
</event>
<event>
 4    1  0.2454657E-002  0.4336035E+03  0.7818608E-02  0.1032728E+00
         -2   -1    0    0    0  501 -0.00000000000E+00  0.00000000000E+00  0.21404065622E+03  0.21404065622E+03  0.00000000000E+00 0. -1.
          2   -1    0    0  502    0  0.00000000000E+00 -0.00000000000E+00 -0.88563221456E+03  0.88563221456E+03  0.00000000000E+00 0.  1.
    9000007    1    1    2  502    0 -0.16079408653E+03  0.46446672177E+02 -0.38550329463E+03  0.58019377952E+03  0.40000000000E+03 0.  1.
   -9000007    1    1    2    0  501  0.16079408653E+03 -0.46446672177E+02 -0.28608826371E+03  0.51947909126E+03  0.40000000000E+03 0. -1.
<mgrwt>
<rscale>  2 0.43360354E+03</rscale>
<asrwt>0</asrwt>
<pdfrwt beam="1">  1        2 0.13625111E+00 0.43360354E+03</pdfrwt>
<pdfrwt beam="2">  1       -2 0.32929332E-01 0.43360354E+03</pdfrwt>
<totfact> 0.26535264E+02</totfact>
</mgrwt>
</event>
<event>
 4    1  0.2454657E-002  0.4225068E+03  0.7818608E-02  0.1036254E+00
         -2   -1    0    0    0  501 -0.00000000000E+00  0.00000000000E+00  0.24391841757E+03  0.24391841757E+03  0.00000000000E+00 0. -1.
          2   -1    0    0  502    0  0.00000000000E+00 -0.00000000000E+00 -0.78482447997E+03  0.78482447997E+03  0.00000000000E+00 0.  1.
    9000007    1    1    2  502    0 -0.13210378298E+03  0.32566534581E+02 -0.40408765067E+03  0.58463562847E+03  0.40000000000E+03 0.  1.
   -9000007    1    1    2    0  501  0.13210378298E+03 -0.32566534581E+02 -0.13681841172E+03  0.44410726907E+03  0.40000000000E+03 0. -1.
<mgrwt>
<rscale>  2 0.42250679E+03</rscale>
<asrwt>0</asrwt>
<pdfrwt beam="1">  1        2 0.12074223E+00 0.42250679E+03</pdfrwt>
<pdfrwt beam="2">  1       -2 0.37525910E-01 0.42250679E+03</pdfrwt>
<totfact> 0.24348772E+02</totfact>
</mgrwt>
</event>
<event>
 4    1  0.2454657E-002  0.4534821E+03  0.7818608E-02  0.1026689E+00
         -2   -1    0    0    0  501 -0.00000000000E+00  0.00000000000E+00  0.72761228273E+03  0.72761228273E+03  0.00000000000E+00 0. -1.
          2   -1    0    0  502    0  0.00000000000E+00 -0.00000000000E+00 -0.32274655422E+03  0.32274655422E+03  0.00000000000E+00 0.  1.
    9000007    1    1    2  502    0  0.14072026305E+03  0.16076028031E+03  0.38758607928E+03  0.59654759157E+03  0.40000000000E+03 0. -1.
   -9000007    1    1    2    0  501 -0.14072026305E+03 -0.16076028031E+03  0.17279649230E+02  0.45381124538E+03  0.40000000000E+03 0.  1.
<mgrwt>
<rscale>  2 0.45348215E+03</rscale>
<asrwt>0</asrwt>
<pdfrwt beam="1">  1        2 0.49653316E-01 0.45348215E+03</pdfrwt>
<pdfrwt beam="2">  1       -2 0.11194035E+00 0.45348215E+03</pdfrwt>
<totfact> 0.65677138E+01</totfact>
</mgrwt>
</event>
<event>
 4    1  0.2454657E-002  0.4083342E+03  0.7818608E-02  0.1040931E+00
          1   -1    0    0  502    0  0.00000000000E+00  0.00000000000E+00  0.23084494457E+04  0.23084494457E+04  0.00000000000E+00 0.  1.
         -1   -1    0    0    0  501 -0.00000000000E+00 -0.00000000000E+00 -0.10034892498E+03  0.10034892498E+03  0.00000000000E+00 0. -1.
    9000007    1    1    2  502    0  0.23677205625E+02 -0.78588998946E+02  0.46648934487E+03  0.61995899033E+03  0.40000000000E+03 0. -1.
   -9000007    1    1    2    0  501 -0.23677205625E+02  0.78588998946E+02  0.17416111759E+04  0.17888393804E+04  0.40000000000E+03 0.  1.
<mgrwt>
<rscale>  2 0.40833423E+03</rscale>
<asrwt>0</asrwt>
<pdfrwt beam="1">  1        1 0.35514603E+00 0.40833423E+03</pdfrwt>
<pdfrwt beam="2">  1       -1 0.15438298E-01 0.40833423E+03</pdfrwt>
<totfact> 0.63130184E+01</totfact>
</mgrwt>
</event>
<event>
 4    1  0.2454657E-002  0.4459614E+03  0.7818608E-02  0.1028933E+00
         -2   -1    0    0    0  501 -0.00000000000E+00  0.00000000000E+00  0.71507394350E+02  0.71507394350E+02  0.00000000000E+00 0. -1.
          2   -1    0    0  502    0  0.00000000000E+00 -0.00000000000E+00 -0.27895226378E+04  0.27895226378E+04  0.00000000000E+00 0.  1.
    9000007    1    1    2  502    0  0.39825795089E+02  0.19312043464E+03 -0.12812145610E+04  0.13566106101E+04  0.40000000000E+03 0. -1.
   -9000007    1    1    2    0  501 -0.39825795089E+02 -0.19312043464E+03 -0.14368006825E+04  0.15044194220E+04  0.40000000000E+03 0. -1.
<mgrwt>
<rscale>  2 0.44596143E+03</rscale>
<asrwt>0</asrwt>
<pdfrwt beam="1">  1        2 0.42915735E+00 0.44596143E+03</pdfrwt>
<pdfrwt beam="2">  1       -2 0.11001137E-01 0.44596143E+03</pdfrwt>
<totfact> 0.15098564E+02</totfact>
</mgrwt>
</event>
<event>
 4    1  0.2454657E-002  0.4098454E+03  0.7818608E-02  0.1040423E+00
          2   -1    0    0  502    0  0.00000000000E+00  0.00000000000E+00  0.54037704392E+03  0.54037704392E+03  0.00000000000E+00 0.  1.
         -2   -1    0    0    0  501 -0.00000000000E+00 -0.00000000000E+00 -0.31269646785E+03  0.31269646785E+03  0.00000000000E+00 0. -1.
    9000007    1    1    2  502    0 -0.87932592166E+02  0.15526732764E+02  0.14666600821E+03  0.43529775804E+03  0.40000000000E+03 0.  1.
   -9000007    1    1    2    0  501  0.87932592166E+02 -0.15526732764E+02  0.81014567864E+02  0.41777575373E+03  0.40000000000E+03 0.  1.
<mgrwt>
<rscale>  2 0.40984536E+03</rscale>
<asrwt>0</asrwt>
<pdfrwt beam="1">  1        2 0.83134930E-01 0.40984536E+03</pdfrwt>
<pdfrwt beam="2">  1       -2 0.48107149E-01 0.40984536E+03</pdfrwt>
<totfact> 0.23607180E+02</totfact>
</mgrwt>
</event>
<event>
 4    1  0.2454657E-002  0.4177397E+03  0.7818608E-02  0.1037804E+00
          2   -1    0    0  502    0  0.00000000000E+00  0.00000000000E+00  0.10299976859E+04  0.10299976859E+04  0.00000000000E+00 0.  1.
         -2   -1    0    0    0  501 -0.00000000000E+00 -0.00000000000E+00 -0.18831521039E+03  0.18831521039E+03  0.00000000000E+00 0. -1.
    9000007    1    1    2  502    0 -0.73803102379E+02 -0.95181908093E+02  0.22790482919E+03  0.47586458653E+03  0.40000000000E+03 0. -1.
   -9000007    1    1    2    0  501  0.73803102379E+02  0.95181908093E+02  0.61377764636E+03  0.74244830979E+03  0.40000000000E+03 0.  1.
<mgrwt>
<rscale>  2 0.41773974E+03</rscale>
<asrwt>0</asrwt>
<pdfrwt beam="1">  1        2 0.15846118E+00 0.41773974E+03</pdfrwt>
<pdfrwt beam="2">  1       -2 0.28971571E-01 0.41773974E+03</pdfrwt>
<totfact> 0.27215056E+02</totfact>
</mgrwt>
</event>
<event>
 4    1  0.2454657E-002  0.4012396E+03  0.7818608E-02  0.1043351E+00
         -2   -1    0    0    0  501 -0.00000000000E+00  0.00000000000E+00  0.16585187370E+03  0.16585187370E+03  0.00000000000E+00 0.  1.
          2   -1    0    0  502    0  0.00000000000E+00 -0.00000000000E+00 -0.98761651526E+03  0.98761651526E+03  0.00000000000E+00 0. -1.
    9000007    1    1    2  502    0  0.18445204442E+02  0.25553909755E+02 -0.33541238741E+03  0.52296720500E+03  0.40000000000E+03 0.  1.
   -9000007    1    1    2    0  501 -0.18445204442E+02 -0.25553909755E+02 -0.48635225415E+03  0.63050118397E+03  0.40000000000E+03 0. -1.
<mgrwt>
<rscale>  2 0.40123961E+03</rscale>
<asrwt>0</asrwt>
<pdfrwt beam="1">  1        2 0.15194100E+00 0.40123961E+03</pdfrwt>
<pdfrwt beam="2">  1       -2 0.25515673E-01 0.40123961E+03</pdfrwt>
<totfact> 0.36438723E+02</totfact>
</mgrwt>
</event>
<event>
 4    1  0.2454657E-002  0.4098335E+03  0.7818608E-02  0.1040427E+00
         -2   -1    0    0    0  501 -0.00000000000E+00  0.00000000000E+00  0.10572751202E+03  0.10572751202E+03  0.00000000000E+00 0.  1.
          2   -1    0    0  502    0  0.00000000000E+00 -0.00000000000E+00 -0.16691157344E+04  0.16691157344E+04  0.00000000000E+00 0. -1.
    9000007    1    1    2  502    0 -0.18186615648E+02  0.87365533159E+02 -0.97654644379E+03  0.10590592270E+04  0.40000000000E+03 0. -1.
   -9000007    1    1    2    0  501  0.18186615648E+02 -0.87365533159E+02 -0.58684177856E+03  0.71578401940E+03  0.40000000000E+03 0.  1.
<mgrwt>
<rscale>  2 0.40983349E+03</rscale>
<asrwt>0</asrwt>
<pdfrwt beam="1">  1        2 0.25678703E+00 0.40983349E+03</pdfrwt>
<pdfrwt beam="2">  1       -2 0.16265771E-01 0.40983349E+03</pdfrwt>
<totfact> 0.32646910E+02</totfact>
</mgrwt>
</event>
<event>
 4    1  0.2454657E-002  0.4217171E+03  0.7818608E-02  0.1036509E+00
          1   -1    0    0  502    0  0.00000000000E+00  0.00000000000E+00  0.30023430047E+03  0.30023430047E+03  0.00000000000E+00 0.  1.
         -1   -1    0    0    0  501 -0.00000000000E+00 -0.00000000000E+00 -0.64212304996E+03  0.64212304996E+03  0.00000000000E+00 0. -1.
    9000007    1    1    2  502    0 -0.53178624767E+02 -0.12254533966E+03 -0.39769316356E+02  0.42358815485E+03  0.40000000000E+03 0.  1.
   -9000007    1    1    2    0  501  0.53178624767E+02  0.12254533966E+03 -0.30211943313E+03  0.51876919558E+03  0.40000000000E+03 0. -1.
<mgrwt>
<rscale>  2 0.42171712E+03</rscale>
<asrwt>0</asrwt>
<pdfrwt beam="1">  1        1 0.46189893E-01 0.42171712E+03</pdfrwt>
<pdfrwt beam="2">  1       -1 0.98788161E-01 0.42171712E+03</pdfrwt>
<totfact> 0.89740937E+01</totfact>
</mgrwt>
</event>
<event>
 4    1  0.2454657E-002  0.4639344E+03  0.7818608E-02  0.1023646E+00
          1   -1    0    0  502    0  0.00000000000E+00  0.00000000000E+00  0.22695449156E+04  0.22695449156E+04  0.00000000000E+00 0.  1.
         -1   -1    0    0    0  501 -0.00000000000E+00 -0.00000000000E+00 -0.15466069260E+03  0.15466069260E+03  0.00000000000E+00 0. -1.
    9000007    1    1    2  502    0 -0.10050302452E+03 -0.21244822282E+03  0.30358532496E+03  0.55443588885E+03  0.40000000000E+03 0. -1.
   -9000007    1    1    2    0  501  0.10050302452E+03  0.21244822282E+03  0.18112988980E+04  0.18697697193E+04  0.40000000000E+03 0.  1.
<mgrwt>
<rscale>  2 0.46393438E+03</rscale>
<asrwt>0</asrwt>
<pdfrwt beam="1">  1        1 0.34916073E+00 0.46393438E+03</pdfrwt>
<pdfrwt beam="2">  1       -1 0.23793954E-01 0.46393438E+03</pdfrwt>
<totfact> 0.32515982E+01</totfact>
</mgrwt>
</event>
<event>
 4    1  0.2454657E-002  0.4123293E+03  0.7818608E-02  0.1039592E+00
         -1   -1    0    0    0  501 -0.00000000000E+00  0.00000000000E+00  0.13419192753E+03  0.13419192753E+03  0.00000000000E+00 0. -1.
          1   -1    0    0  502    0  0.00000000000E+00 -0.00000000000E+00 -0.13767792627E+04  0.13767792627E+04  0.00000000000E+00 0.  1.
    9000007    1    1    2  502    0  0.70768567279E+02  0.70762080328E+02 -0.83466611409E+03  0.93095810010E+03  0.40000000000E+03 0.  1.
   -9000007    1    1    2    0  501 -0.70768567279E+02 -0.70762080328E+02 -0.40792122109E+03  0.58001309015E+03  0.40000000000E+03 0. -1.
<mgrwt>
<rscale>  2 0.41232931E+03</rscale>
<asrwt>0</asrwt>
<pdfrwt beam="1">  1        1 0.21181220E+00 0.41232931E+03</pdfrwt>
<pdfrwt beam="2">  1       -1 0.20644911E-01 0.41232931E+03</pdfrwt>
<totfact> 0.16303807E+02</totfact>
</mgrwt>
</event>
<event>
 4    1  0.2454657E-002  0.4564345E+03  0.7818608E-02  0.1025820E+00
          1   -1    0    0  502    0  0.00000000000E+00  0.00000000000E+00  0.13397406880E+04  0.13397406880E+04  0.00000000000E+00 0.  1.
         -1   -1    0    0    0  501 -0.00000000000E+00 -0.00000000000E+00 -0.15702956107E+03  0.15702956107E+03  0.00000000000E+00 0. -1.
    9000007    1    1    2  502    0 -0.15132079275E+03  0.15948198571E+03  0.51754475273E+03  0.69006163287E+03  0.40000000000E+03 0.  1.
   -9000007    1    1    2    0  501  0.15132079275E+03 -0.15948198571E+03  0.66516637425E+03  0.80670861624E+03  0.40000000000E+03 0. -1.
<mgrwt>
<rscale>  2 0.45643454E+03</rscale>
<asrwt>0</asrwt>
<pdfrwt beam="1">  1        1 0.20611394E+00 0.45643454E+03</pdfrwt>
<pdfrwt beam="2">  1       -1 0.24158395E-01 0.45643454E+03</pdfrwt>
<totfact> 0.13224481E+02</totfact>
</mgrwt>
</event>
<event>
 4    1  0.2454657E-002  0.5423165E+03  0.7818608E-02  0.1003288E+00
         -2   -1    0    0    0  501 -0.00000000000E+00  0.00000000000E+00  0.14111732828E+03  0.14111732828E+03  0.00000000000E+00 0. -1.
          2   -1    0    0  502    0  0.00000000000E+00 -0.00000000000E+00 -0.23427256038E+04  0.23427256038E+04  0.00000000000E+00 0.  1.
    9000007    1    1    2  502    0 -0.10212712844E+03  0.35167769838E+03 -0.68819178464E+03  0.87619352106E+03  0.40000000000E+03 0. -1.
   -9000007    1    1    2    0  501  0.10212712844E+03 -0.35167769838E+03 -0.15134164909E+04  0.16076494110E+04  0.40000000000E+03 0.  1.
<mgrwt>
<rscale>  2 0.54231647E+03</rscale>
<asrwt>0</asrwt>
<pdfrwt beam="1">  1        2 0.36041931E+00 0.54231647E+03</pdfrwt>
<pdfrwt beam="2">  1       -2 0.21710359E-01 0.54231647E+03</pdfrwt>
<totfact> 0.84288743E+01</totfact>
</mgrwt>
</event>
<event>
 4    1  0.2454657E-002  0.6352686E+03  0.7818608E-02  0.9834821E-01
          1   -1    0    0  502    0  0.00000000000E+00  0.00000000000E+00  0.89549515897E+03  0.89549515897E+03  0.00000000000E+00 0.  1.
         -1   -1    0    0    0  501 -0.00000000000E+00 -0.00000000000E+00 -0.45953842972E+03  0.45953842972E+03  0.00000000000E+00 0. -1.
    9000007    1    1    2  502    0  0.10823064090E+03 -0.48151050341E+03  0.31213739806E+03  0.70781070336E+03  0.40000000000E+03 0.  1.
   -9000007    1    1    2    0  501 -0.10823064090E+03  0.48151050341E+03  0.12381933119E+03  0.64722288533E+03  0.40000000000E+03 0. -1.
<mgrwt>
<rscale>  2 0.63526863E+03</rscale>
<asrwt>0</asrwt>
<pdfrwt beam="1">  1        1 0.13776849E+00 0.63526863E+03</pdfrwt>
<pdfrwt beam="2">  1       -1 0.70698220E-01 0.63526863E+03</pdfrwt>
<totfact> 0.38512677E+01</totfact>
</mgrwt>
</event>
<event>
 4    1  0.2454657E-002  0.4161392E+03  0.7818608E-02  0.1038330E+00
          1   -1    0    0  502    0  0.00000000000E+00  0.00000000000E+00  0.35663265837E+03  0.35663265837E+03  0.00000000000E+00 0.  1.
         -1   -1    0    0    0  501 -0.00000000000E+00 -0.00000000000E+00 -0.48557741429E+03  0.48557741429E+03  0.00000000000E+00 0. -1.
    9000007    1    1    2  502    0 -0.98474372060E+01 -0.11434526508E+03 -0.63484805193E+02  0.42095383613E+03  0.40000000000E+03 0.  1.
   -9000007    1    1    2    0  501  0.98474372060E+01  0.11434526508E+03 -0.65459950726E+02  0.42125623653E+03  0.40000000000E+03 0.  1.
<mgrwt>
<rscale>  2 0.41613917E+03</rscale>
<asrwt>0</asrwt>
<pdfrwt beam="1">  1        1 0.54866563E-01 0.41613917E+03</pdfrwt>
<pdfrwt beam="2">  1       -1 0.74704217E-01 0.41613917E+03</pdfrwt>
<totfact> 0.13110908E+02</totfact>
</mgrwt>
</event>
<event>
 4    1  0.2454657E-002  0.4461717E+03  0.7818608E-02  0.1028870E+00
          2   -1    0    0  502    0  0.00000000000E+00  0.00000000000E+00  0.92423797658E+03  0.92423797658E+03  0.00000000000E+00 0.  1.
         -2   -1    0    0    0  501 -0.00000000000E+00 -0.00000000000E+00 -0.21845009802E+03  0.21845009802E+03  0.00000000000E+00 0. -1.
    9000007    1    1    2  502    0 -0.13206889834E+03 -0.14706113782E+03  0.28524251675E+03  0.52955874606E+03  0.40000000000E+03 0. -1.
   -9000007    1    1    2    0  501  0.13206889834E+03  0.14706113782E+03  0.42054536181E+03  0.61312932853E+03  0.40000000000E+03 0.  1.
<mgrwt>
<rscale>  2 0.44617168E+03</rscale>
<asrwt>0</asrwt>
<pdfrwt beam="1">  1        2 0.14219046E+00 0.44617168E+03</pdfrwt>
<pdfrwt beam="2">  1       -2 0.33607708E-01 0.44617168E+03</pdfrwt>
<totfact> 0.24063926E+02</totfact>
</mgrwt>
</event>
<event>
 4    1  0.2454657E-002  0.5040121E+03  0.7818608E-02  0.1012737E+00
         -1   -1    0    0    0  501 -0.00000000000E+00  0.00000000000E+00  0.50405810786E+03  0.50405810786E+03  0.00000000000E+00 0. -1.
          1   -1    0    0  502    0  0.00000000000E+00 -0.00000000000E+00 -0.99699454233E+03  0.99699454233E+03  0.00000000000E+00 0.  1.
    9000007    1    1    2  502    0  0.30137398753E+03 -0.56585663729E+02  0.28131491957E+03  0.57720559740E+03  0.40000000000E+03 0. -1.
   -9000007    1    1    2    0  501 -0.30137398753E+03  0.56585663729E+02 -0.77425135405E+03  0.92384705279E+03  0.40000000000E+03 0.  1.
<mgrwt>
<rscale>  2 0.50401212E+03</rscale>
<asrwt>0</asrwt>
<pdfrwt beam="1">  1        1 0.15338377E+00 0.50401212E+03</pdfrwt>
<pdfrwt beam="2">  1       -1 0.77547402E-01 0.50401212E+03</pdfrwt>
<totfact> 0.26965195E+01</totfact>
</mgrwt>
</event>
<event>
 4    1  0.2454657E-002  0.5209775E+03  0.7818608E-02  0.1008444E+00
          2   -1    0    0  502    0  0.00000000000E+00  0.00000000000E+00  0.12620475380E+04  0.12620475380E+04  0.00000000000E+00 0. -1.
         -2   -1    0    0    0  501 -0.00000000000E+00 -0.00000000000E+00 -0.27513849570E+03  0.27513849570E+03  0.00000000000E+00 0.  1.
    9000007    1    1    2  502    0  0.31958920824E+03  0.96334400824E+02  0.85260429442E+03  0.99917549093E+03  0.40000000000E+03 0. -1.
   -9000007    1    1    2    0  501 -0.31958920824E+03 -0.96334400824E+02  0.13430474785E+03  0.53801054274E+03  0.40000000000E+03 0.  1.
<mgrwt>
<rscale>  2 0.52097752E+03</rscale>
<asrwt>0</asrwt>
<pdfrwt beam="1">  1        2 0.19416116E+00 0.52097752E+03</pdfrwt>
<pdfrwt beam="2">  1       -2 0.42329000E-01 0.52097752E+03</pdfrwt>
<totfact> 0.95695424E+01</totfact>
</mgrwt>
</event>
<event>
 4    1  0.2454657E-002  0.6425141E+03  0.7818608E-02  0.9820928E-01
         -2   -1    0    0    0  501 -0.00000000000E+00  0.00000000000E+00  0.55846115822E+03  0.55846115822E+03  0.00000000000E+00 0.  1.
          2   -1    0    0  502    0  0.00000000000E+00 -0.00000000000E+00 -0.84415043124E+03  0.84415043124E+03  0.00000000000E+00 0. -1.
    9000007    1    1    2  502    0 -0.34696695174E+03 -0.36392080701E+03  0.10441476884E+03  0.65094305690E+03  0.40000000000E+03 0.  1.
   -9000007    1    1    2    0  501  0.34696695174E+03  0.36392080701E+03 -0.39010404185E+03  0.75166853256E+03  0.40000000000E+03 0. -1.
<mgrwt>
<rscale>  2 0.64251414E+03</rscale>
<asrwt>0</asrwt>
<pdfrwt beam="1">  1        2 0.12986930E+00 0.64251414E+03</pdfrwt>
<pdfrwt beam="2">  1       -2 0.85917102E-01 0.64251414E+03</pdfrwt>
<totfact> 0.38593375E+01</totfact>
</mgrwt>
</event>
<event>
 4    1  0.2454657E-002  0.4429473E+03  0.7818608E-02  0.1029846E+00
         -3   -1    0    0    0  501 -0.00000000000E+00  0.00000000000E+00  0.18535680247E+04  0.18535680247E+04  0.00000000000E+00 0.  1.
          3   -1    0    0  502    0  0.00000000000E+00 -0.00000000000E+00 -0.10792036871E+03  0.10792036871E+03  0.00000000000E+00 0. -1.
    9000007    1    1    2  502    0  0.17846522798E+03  0.65973116579E+02  0.73702118721E+03  0.85988517844E+03  0.40000000000E+03 0.  1.
   -9000007    1    1    2    0  501 -0.17846522798E+03 -0.65973116579E+02  0.10086264688E+04  0.11016032150E+04  0.40000000000E+03 0.  1.
<mgrwt>
<rscale>  2 0.44294728E+03</rscale>
<asrwt>0</asrwt>
<pdfrwt beam="1">  1        3 0.16603135E-01 0.44294728E+03</pdfrwt>
<pdfrwt beam="2">  1       -3 0.28516429E+00 0.44294728E+03</pdfrwt>
<totfact> 0.40143252E+00</totfact>
</mgrwt>
</event>
<event>
 4    1  0.2454657E-002  0.4284917E+03  0.7818608E-02  0.1034337E+00
         -1   -1    0    0    0  501 -0.00000000000E+00  0.00000000000E+00  0.15868093264E+04  0.15868093264E+04  0.00000000000E+00 0. -1.
          1   -1    0    0  502    0  0.00000000000E+00 -0.00000000000E+00 -0.14871028652E+03  0.14871028652E+03  0.00000000000E+00 0.  1.
    9000007    1    1    2  502    0 -0.12599096137E+03  0.87928577500E+02  0.31025341632E+03  0.52902016921E+03  0.40000000000E+03 0.  1.
   -9000007    1    1    2    0  501  0.12599096137E+03 -0.87928577500E+02  0.11278456236E+04  0.12064994438E+04  0.40000000000E+03 0. -1.
<mgrwt>
<rscale>  2 0.42849172E+03</rscale>
<asrwt>0</asrwt>
<pdfrwt beam="1">  1        1 0.22878507E-01 0.42849172E+03</pdfrwt>
<pdfrwt beam="2">  1       -1 0.24412450E+00 0.42849172E+03</pdfrwt>
<totfact> 0.18009430E+01</totfact>
</mgrwt>
</event>
<event>
 4    1  0.2454657E-002  0.5816036E+03  0.7818608E-02  0.9944325E-01
         -2   -1    0    0    0  501 -0.00000000000E+00  0.00000000000E+00  0.39192510671E+03  0.39192510671E+03  0.00000000000E+00 0.  1.
          2   -1    0    0  502    0  0.00000000000E+00 -0.00000000000E+00 -0.89987734365E+03  0.89987734365E+03  0.00000000000E+00 0. -1.
    9000007    1    1    2  502    0 -0.16062458203E+03  0.39046441937E+03 -0.12336422864E+03  0.59454306157E+03  0.40000000000E+03 0.  1.
   -9000007    1    1    2    0  501  0.16062458203E+03 -0.39046441937E+03 -0.38458800829E+03  0.69725938880E+03  0.40000000000E+03 0. -1.
<mgrwt>
<rscale>  2 0.58160358E+03</rscale>
<asrwt>0</asrwt>
<pdfrwt beam="1">  1        2 0.13844267E+00 0.58160358E+03</pdfrwt>
<pdfrwt beam="2">  1       -2 0.60296170E-01 0.58160358E+03</pdfrwt>
<totfact> 0.77290329E+01</totfact>
</mgrwt>
</event>
<event>
 4    1  0.2454657E-002  0.6018314E+03  0.7818608E-02  0.9901614E-01
          1   -1    0    0  502    0  0.00000000000E+00  0.00000000000E+00  0.65047887961E+03  0.65047887961E+03  0.00000000000E+00 0.  1.
         -1   -1    0    0    0  501 -0.00000000000E+00 -0.00000000000E+00 -0.58797412590E+03  0.58797412590E+03  0.00000000000E+00 0. -1.
    9000007    1    1    2  502    0 -0.21675238615E+02 -0.44914498104E+03  0.17378471962E+03  0.62642011361E+03  0.40000000000E+03 0.  1.
   -9000007    1    1    2    0  501  0.21675238615E+02  0.44914498104E+03 -0.11127996591E+03  0.61203289191E+03  0.40000000000E+03 0. -1.
<mgrwt>
<rscale>  2 0.60183140E+03</rscale>
<asrwt>0</asrwt>
<pdfrwt beam="1">  1        1 0.10007367E+00 0.60183140E+03</pdfrwt>
<pdfrwt beam="2">  1       -1 0.90457558E-01 0.60183140E+03</pdfrwt>
<totfact> 0.37789473E+01</totfact>
</mgrwt>
</event>
<event>
 4    1  0.2454657E-002  0.5231943E+03  0.7818608E-02  0.1007896E+00
          2   -1    0    0  502    0  0.00000000000E+00  0.00000000000E+00  0.15209451246E+04  0.15209451246E+04  0.00000000000E+00 0.  1.
         -2   -1    0    0    0  501 -0.00000000000E+00 -0.00000000000E+00 -0.26203377860E+03  0.26203377860E+03  0.00000000000E+00 0. -1.
    9000007    1    1    2  502    0  0.33394846890E+03  0.47018337486E+02  0.13057148837E+03  0.53924133513E+03  0.40000000000E+03 0. -1.
   -9000007    1    1    2    0  501 -0.33394846890E+03 -0.47018337486E+02  0.11283398577E+04  0.12437375681E+04  0.40000000000E+03 0.  1.
<mgrwt>
<rscale>  2 0.52319433E+03</rscale>
<asrwt>0</asrwt>
<pdfrwt beam="1">  1        2 0.23399155E+00 0.52319433E+03</pdfrwt>
<pdfrwt beam="2">  1       -2 0.40312890E-01 0.52319433E+03</pdfrwt>
<totfact> 0.75365368E+01</totfact>
</mgrwt>
</event>
<event>
 4    1  0.2454657E-002  0.4955952E+03  0.7818608E-02  0.1014935E+00
          1   -1    0    0  502    0  0.00000000000E+00  0.00000000000E+00  0.11396174513E+04  0.11396174513E+04  0.00000000000E+00 0. -1.
         -1   -1    0    0    0  501 -0.00000000000E+00 -0.00000000000E+00 -0.21573214690E+03  0.21573214690E+03  0.00000000000E+00 0.  1.
    9000007    1    1    2  502    0  0.16320647266E+03  0.24285436275E+03  0.44087873244E+03  0.66331640334E+03  0.40000000000E+03 0.  1.
   -9000007    1    1    2    0  501 -0.16320647266E+03 -0.24285436275E+03  0.48300657197E+03  0.69203319486E+03  0.40000000000E+03 0. -1.
<mgrwt>
<rscale>  2 0.49559519E+03</rscale>
<asrwt>0</asrwt>
<pdfrwt beam="1">  1        1 0.17532576E+00 0.49559519E+03</pdfrwt>
<pdfrwt beam="2">  1       -1 0.33189562E-01 0.49559519E+03</pdfrwt>
<totfact> 0.10570539E+02</totfact>
</mgrwt>
</event>
<event>
 4    1  0.2454657E-002  0.4465757E+03  0.7818608E-02  0.1028748E+00
         -2   -1    0    0    0  501 -0.00000000000E+00  0.00000000000E+00  0.22006090564E+03  0.22006090564E+03  0.00000000000E+00 0.  1.
          2   -1    0    0  502    0  0.00000000000E+00 -0.00000000000E+00 -0.98688561487E+03  0.98688561487E+03  0.00000000000E+00 0. -1.
    9000007    1    1    2  502    0  0.12326164164E+02 -0.19818658458E+03 -0.55591359520E+03  0.71307067108E+03  0.40000000000E+03 0.  1.
   -9000007    1    1    2    0  501 -0.12326164164E+02  0.19818658458E+03 -0.21091111404E+03  0.49387584943E+03  0.40000000000E+03 0.  1.
<mgrwt>
<rscale>  2 0.44657570E+03</rscale>
<asrwt>0</asrwt>
<pdfrwt beam="1">  1        2 0.15182856E+00 0.44657570E+03</pdfrwt>
<pdfrwt beam="2">  1       -2 0.33855524E-01 0.44657570E+03</pdfrwt>
<totfact> 0.21637960E+02</totfact>
</mgrwt>
</event>
<event>
 4    1  0.2454657E-002  0.4342084E+03  0.7818608E-02  0.1032539E+00
         -2   -1    0    0    0  501 -0.00000000000E+00  0.00000000000E+00  0.88648161093E+03  0.88648161093E+03  0.00000000000E+00 0. -1.
          2   -1    0    0  502    0  0.00000000000E+00 -0.00000000000E+00 -0.39865099563E+03  0.39865099563E+03  0.00000000000E+00 0.  1.
    9000007    1    1    2  502    0 -0.92700513076E+02 -0.14122148152E+03  0.68279365112E+03  0.80916256833E+03  0.40000000000E+03 0. -1.
   -9000007    1    1    2    0  501  0.92700513076E+02  0.14122148152E+03 -0.19496303582E+03  0.47597003824E+03  0.40000000000E+03 0.  1.
<mgrwt>
<rscale>  2 0.43420835E+03</rscale>
<asrwt>0</asrwt>
<pdfrwt beam="1">  1        2 0.61330923E-01 0.43420835E+03</pdfrwt>
<pdfrwt beam="2">  1       -2 0.13638179E+00 0.43420835E+03</pdfrwt>
<totfact> 0.31982014E+01</totfact>
</mgrwt>
</event>
<event>
 4    1  0.2454657E-002  0.4548049E+03  0.7818608E-02  0.1026299E+00
         -1   -1    0    0    0  501 -0.00000000000E+00  0.00000000000E+00  0.24323282307E+03  0.24323282307E+03  0.00000000000E+00 0.  1.
          1   -1    0    0  502    0  0.00000000000E+00 -0.00000000000E+00 -0.86273692358E+03  0.86273692358E+03  0.00000000000E+00 0. -1.
    9000007    1    1    2  502    0 -0.20652281946E+02  0.21545528907E+03 -0.24365066079E+03  0.51595847007E+03  0.40000000000E+03 0.  1.
   -9000007    1    1    2    0  501  0.20652281946E+02 -0.21545528907E+03 -0.37585343972E+03  0.59001127657E+03  0.40000000000E+03 0.  1.
<mgrwt>
<rscale>  2 0.45480490E+03</rscale>
<asrwt>0</asrwt>
<pdfrwt beam="1">  1        1 0.13272875E+00 0.45480490E+03</pdfrwt>
<pdfrwt beam="2">  1       -1 0.37420435E-01 0.45480490E+03</pdfrwt>
<totfact> 0.14014619E+02</totfact>
</mgrwt>
</event>
<event>
 4    1  0.2454657E-002  0.5433225E+03  0.7818608E-02  0.1003051E+00
          1   -1    0    0  502    0  0.00000000000E+00  0.00000000000E+00  0.39408204903E+03  0.39408204903E+03  0.00000000000E+00 0. -1.
         -1   -1    0    0    0  501 -0.00000000000E+00 -0.00000000000E+00 -0.79391958853E+03  0.79391958853E+03  0.00000000000E+00 0.  1.
    9000007    1    1    2  502    0 -0.32038029823E+03  0.18043223499E+03 -0.58754317671E+02  0.54649007014E+03  0.40000000000E+03 0. -1.
   -9000007    1    1    2    0  501  0.32038029823E+03 -0.18043223499E+03 -0.34108322184E+03  0.64151156742E+03  0.40000000000E+03 0.  1.
<mgrwt>
<rscale>  2 0.54332249E+03</rscale>
<asrwt>0</asrwt>
<pdfrwt beam="1">  1        1 0.60628009E-01 0.54332249E+03</pdfrwt>
<pdfrwt beam="2">  1       -1 0.12214147E+00 0.54332249E+03</pdfrwt>
<totfact> 0.37881647E+01</totfact>
</mgrwt>
</event>
<event>
 4    1  0.2454657E-002  0.6419199E+03  0.7818608E-02  0.9822060E-01
         -1   -1    0    0    0  501 -0.00000000000E+00  0.00000000000E+00  0.31844267438E+03  0.31844267438E+03  0.00000000000E+00 0.  1.
          1   -1    0    0  502    0  0.00000000000E+00 -0.00000000000E+00 -0.13411946038E+04  0.13411946038E+04  0.00000000000E+00 0. -1.
    9000007    1    1    2  502    0  0.40003963596E+03 -0.30336361942E+03 -0.35569488834E+03  0.73388013294E+03  0.40000000000E+03 0.  1.
   -9000007    1    1    2    0  501 -0.40003963596E+03  0.30336361942E+03 -0.66705704112E+03  0.92575714528E+03  0.40000000000E+03 0.  1.
<mgrwt>
<rscale>  2 0.64191993E+03</rscale>
<asrwt>0</asrwt>
<pdfrwt beam="1">  1        1 0.20633763E+00 0.64191993E+03</pdfrwt>
<pdfrwt beam="2">  1       -1 0.48991182E-01 0.64191993E+03</pdfrwt>
<totfact> 0.36784937E+01</totfact>
</mgrwt>
</event>
<event>
 4    1  0.2454657E-002  0.4033990E+03  0.7818608E-02  0.1042609E+00
          2   -1    0    0  502    0  0.00000000000E+00  0.00000000000E+00  0.36313549904E+03  0.36313549904E+03  0.00000000000E+00 0. -1.
         -2   -1    0    0    0  501 -0.00000000000E+00 -0.00000000000E+00 -0.50860929197E+03  0.50860929197E+03  0.00000000000E+00 0.  1.
    9000007    1    1    2  502    0 -0.50551315837E+02  0.13239378834E+02  0.77571201590E+02  0.41078949354E+03  0.40000000000E+03 0. -1.
   -9000007    1    1    2    0  501  0.50551315837E+02 -0.13239378834E+02 -0.22304499452E+03  0.46095529747E+03  0.40000000000E+03 0.  1.
<mgrwt>
<rscale>  2 0.40339895E+03</rscale>
<asrwt>0</asrwt>
<pdfrwt beam="1">  1        2 0.55867000E-01 0.40339895E+03</pdfrwt>
<pdfrwt beam="2">  1       -2 0.78247584E-01 0.40339895E+03</pdfrwt>
<totfact> 0.13255445E+02</totfact>
</mgrwt>
</event>
<event>
 4    1  0.2454657E-002  0.4096716E+03  0.7818608E-02  0.1040481E+00
          1   -1    0    0  502    0  0.00000000000E+00  0.00000000000E+00  0.92840560739E+03  0.92840560739E+03  0.00000000000E+00 0.  1.
         -1   -1    0    0    0  501 -0.00000000000E+00 -0.00000000000E+00 -0.19608694628E+03  0.19608694628E+03  0.00000000000E+00 0. -1.
    9000007    1    1    2  502    0 -0.78093890701E+02  0.41619726314E+02  0.20903519677E+03  0.45992017880E+03  0.40000000000E+03 0. -1.
   -9000007    1    1    2    0  501  0.78093890701E+02 -0.41619726314E+02  0.52328346434E+03  0.66457237487E+03  0.40000000000E+03 0.  1.
<mgrwt>
<rscale>  2 0.40967165E+03</rscale>
<asrwt>0</asrwt>
<pdfrwt beam="1">  1        1 0.14283163E+00 0.40967165E+03</pdfrwt>
<pdfrwt beam="2">  1       -1 0.30167223E-01 0.40967165E+03</pdfrwt>
<totfact> 0.18198761E+02</totfact>
</mgrwt>
</event>
<event>
 4    1  0.2454657E-002  0.4655331E+03  0.7818608E-02  0.1023189E+00
         -2   -1    0    0    0  501 -0.00000000000E+00  0.00000000000E+00  0.33258434602E+03  0.33258434602E+03  0.00000000000E+00 0.  1.
          2   -1    0    0  502    0  0.00000000000E+00 -0.00000000000E+00 -0.79637372929E+03  0.79637372929E+03  0.00000000000E+00 0. -1.
    9000007    1    1    2  502    0  0.23676094837E+03  0.25792935911E+02  0.87594627458E+01  0.46561545336E+03  0.40000000000E+03 0.  1.
   -9000007    1    1    2    0  501 -0.23676094837E+03 -0.25792935911E+02 -0.47254884602E+03  0.66334262195E+03  0.40000000000E+03 0. -1.
<mgrwt>
<rscale>  2 0.46553305E+03</rscale>
<asrwt>0</asrwt>
<pdfrwt beam="1">  1        2 0.12251904E+00 0.46553305E+03</pdfrwt>
<pdfrwt beam="2">  1       -2 0.51166822E-01 0.46553305E+03</pdfrwt>
<totfact> 0.12929188E+02</totfact>
</mgrwt>
</event>
<event>
 4    1  0.2454657E-002  0.5192273E+03  0.7818608E-02  0.1008879E+00
         -2   -1    0    0    0  501 -0.00000000000E+00  0.00000000000E+00  0.11875357182E+03  0.11875357182E+03  0.00000000000E+00 0.  1.
          2   -1    0    0  502    0  0.00000000000E+00 -0.00000000000E+00 -0.22734433978E+04  0.22734433978E+04  0.00000000000E+00 0. -1.
    9000007    1    1    2  502    0 -0.27515547899E+03 -0.18408261926E+03 -0.11223705741E+04  0.12366538133E+04  0.40000000000E+03 0.  1.
   -9000007    1    1    2    0  501  0.27515547899E+03  0.18408261926E+03 -0.10323192519E+04  0.11555431563E+04  0.40000000000E+03 0. -1.
<mgrwt>
<rscale>  2 0.51922726E+03</rscale>
<asrwt>0</asrwt>
<pdfrwt beam="1">  1        2 0.34976053E+00 0.51922726E+03</pdfrwt>
<pdfrwt beam="2">  1       -2 0.18269780E-01 0.51922726E+03</pdfrwt>
<totfact> 0.12466928E+02</totfact>
</mgrwt>
</event>
<event>
 4    1  0.2454657E-002  0.6264513E+03  0.7818608E-02  0.9851998E-01
         -1   -1    0    0    0  501 -0.00000000000E+00  0.00000000000E+00  0.51118573911E+03  0.51118573911E+03  0.00000000000E+00 0. -1.
          1   -1    0    0  502    0  0.00000000000E+00 -0.00000000000E+00 -0.76773997344E+03  0.76773997344E+03  0.00000000000E+00 0.  1.
    9000007    1    1    2  502    0  0.28717096864E+03  0.38726479727E+03 -0.13242810695E+03  0.64029555046E+03  0.40000000000E+03 0. -1.
   -9000007    1    1    2    0  501 -0.28717096864E+03 -0.38726479727E+03 -0.12412612737E+03  0.63863016209E+03  0.40000000000E+03 0.  1.
<mgrwt>
<rscale>  2 0.62645127E+03</rscale>
<asrwt>0</asrwt>
<pdfrwt beam="1">  1        1 0.11811384E+00 0.62645127E+03</pdfrwt>
<pdfrwt beam="2">  1       -1 0.78643960E-01 0.62645127E+03</pdfrwt>
<totfact> 0.39629442E+01</totfact>
</mgrwt>
</event>
<event>
 4    1  0.2454657E-002  0.4205954E+03  0.7818608E-02  0.1036873E+00
         -2   -1    0    0    0  501 -0.00000000000E+00  0.00000000000E+00  0.28852131758E+03  0.28852131758E+03  0.00000000000E+00 0.  1.
          2   -1    0    0  502    0  0.00000000000E+00 -0.00000000000E+00 -0.65814027720E+03  0.65814027720E+03  0.00000000000E+00 0. -1.
    9000007    1    1    2  502    0  0.46600806077E+02  0.12136235537E+03 -0.30859553476E+03  0.52166240089E+03  0.40000000000E+03 0. -1.
   -9000007    1    1    2    0  501 -0.46600806077E+02 -0.12136235537E+03 -0.61023424854E+02  0.42499919389E+03  0.40000000000E+03 0.  1.
<mgrwt>
<rscale>  2 0.42059536E+03</rscale>
<asrwt>0</asrwt>
<pdfrwt beam="1">  1        2 0.10125235E+00 0.42059536E+03</pdfrwt>
<pdfrwt beam="2">  1       -2 0.44387895E-01 0.42059536E+03</pdfrwt>
<totfact> 0.21912997E+02</totfact>
</mgrwt>
</event>
<event>
 4    1  0.2454657E-002  0.4066998E+03  0.7818608E-02  0.1041484E+00
          2   -1    0    0  502    0  0.00000000000E+00  0.00000000000E+00  0.27435345932E+04  0.27435345932E+04  0.00000000000E+00 0. -1.
         -2   -1    0    0    0  501 -0.00000000000E+00 -0.00000000000E+00 -0.68350297518E+02  0.68350297518E+02  0.00000000000E+00 0.  1.
    9000007    1    1    2  502    0 -0.17825473697E+02 -0.71322791993E+02  0.18204312716E+04  0.18653082058E+04  0.40000000000E+03 0. -1.
   -9000007    1    1    2    0  501  0.17825473697E+02  0.71322791993E+02  0.85475302410E+03  0.94657668489E+03  0.40000000000E+03 0.  1.
<mgrwt>
<rscale>  2 0.40669975E+03</rscale>
<asrwt>0</asrwt>
<pdfrwt beam="1">  1        2 0.42208216E+00 0.40669975E+03</pdfrwt>
<pdfrwt beam="2">  1       -2 0.10515433E-01 0.40669975E+03</pdfrwt>
<totfact> 0.17405307E+02</totfact>
</mgrwt>
</event>
<event>
 4    1  0.2454657E-002  0.5069829E+03  0.7818608E-02  0.1011972E+00
         -2   -1    0    0    0  501 -0.00000000000E+00  0.00000000000E+00  0.25546763510E+03  0.25546763510E+03  0.00000000000E+00 0. -1.
          2   -1    0    0  502    0  0.00000000000E+00 -0.00000000000E+00 -0.10560474582E+04  0.10560474582E+04  0.00000000000E+00 0.  1.
    9000007    1    1    2  502    0 -0.41661264032E+02 -0.30870053408E+03 -0.25770900506E+03  0.56872279007E+03  0.40000000000E+03 0. -1.
   -9000007    1    1    2    0  501  0.41661264032E+02  0.30870053408E+03 -0.54287081803E+03  0.74279230322E+03  0.40000000000E+03 0.  1.
<mgrwt>
<rscale>  2 0.50698292E+03</rscale>
<asrwt>0</asrwt>
<pdfrwt beam="1">  1        2 0.16246884E+00 0.50698292E+03</pdfrwt>
<pdfrwt beam="2">  1       -2 0.39302714E-01 0.50698292E+03</pdfrwt>
<totfact> 0.14665191E+02</totfact>
</mgrwt>
</event>
<event>
 4    1  0.2454657E-002  0.4608979E+03  0.7818608E-02  0.1024521E+00
         -1   -1    0    0    0  501 -0.00000000000E+00  0.00000000000E+00  0.28165872101E+03  0.28165872101E+03  0.00000000000E+00 0. -1.
          1   -1    0    0  502    0  0.00000000000E+00 -0.00000000000E+00 -0.77450861475E+03  0.77450861475E+03  0.00000000000E+00 0.  1.
    9000007    1    1    2  502    0 -0.21315155498E+03 -0.83625631533E+02 -0.33193879141E+03  0.56798784572E+03  0.40000000000E+03 0.  1.
   -9000007    1    1    2    0  501  0.21315155498E+03  0.83625631533E+02 -0.16091110232E+03  0.48817949004E+03  0.40000000000E+03 0. -1.
<mgrwt>
<rscale>  2 0.46089785E+03</rscale>
<asrwt>0</asrwt>
<pdfrwt beam="1">  1        1 0.11915517E+00 0.46089785E+03</pdfrwt>
<pdfrwt beam="2">  1       -1 0.43332111E-01 0.46089785E+03</pdfrwt>
<totfact> 0.12757284E+02</totfact>
</mgrwt>
</event>
<event>
 4    1  0.2454657E-002  0.4100522E+03  0.7818608E-02  0.1040353E+00
         -2   -1    0    0    0  501 -0.00000000000E+00  0.00000000000E+00  0.61016546280E+02  0.61016546280E+02  0.00000000000E+00 0.  1.
          2   -1    0    0  502    0  0.00000000000E+00 -0.00000000000E+00 -0.28330083378E+04  0.28330083378E+04  0.00000000000E+00 0. -1.
    9000007    1    1    2  502    0  0.20513739297E+02  0.87874928654E+02 -0.16250430633E+04  0.16759796461E+04  0.40000000000E+03 0. -1.
   -9000007    1    1    2    0  501 -0.20513739297E+02 -0.87874928654E+02 -0.11469487283E+04  0.12180452380E+04  0.40000000000E+03 0.  1.
<mgrwt>
<rscale>  2 0.41005221E+03</rscale>
<asrwt>0</asrwt>
<pdfrwt beam="1">  1        2 0.43584739E+00 0.41005221E+03</pdfrwt>
<pdfrwt beam="2">  1       -2 0.93871619E-02 0.41005221E+03</pdfrwt>
<totfact> 0.18530649E+02</totfact>
</mgrwt>
</event>
<event>
 4    1  0.2454657E-002  0.4386419E+03  0.7818608E-02  0.1031164E+00
         -1   -1    0    0    0  501 -0.00000000000E+00  0.00000000000E+00  0.11029728070E+04  0.11029728070E+04  0.00000000000E+00 0.  1.
          1   -1    0    0  502    0  0.00000000000E+00 -0.00000000000E+00 -0.19110494081E+03  0.19110494081E+03  0.00000000000E+00 0. -1.
    9000007    1    1    2  502    0  0.17250846997E+03 -0.51454454082E+02  0.26488386654E+03  0.51241603781E+03  0.40000000000E+03 0.  1.
   -9000007    1    1    2    0  501 -0.17250846997E+03  0.51454454082E+02  0.64698399963E+03  0.78166170997E+03  0.40000000000E+03 0. -1.
<mgrwt>
<rscale>  2 0.43864192E+03</rscale>
<asrwt>0</asrwt>
<pdfrwt beam="1">  1        1 0.29400761E-01 0.43864192E+03</pdfrwt>
<pdfrwt beam="2">  1       -1 0.16968812E+00 0.43864192E+03</pdfrwt>
<totfact> 0.41195559E+01</totfact>
</mgrwt>
</event>
<event>
 4    1  0.2454657E-002  0.5508871E+03  0.7818608E-02  0.1001289E+00
          2   -1    0    0  502    0  0.00000000000E+00  0.00000000000E+00  0.76607049117E+03  0.76607049117E+03  0.00000000000E+00 0. -1.
         -2   -1    0    0    0  501 -0.00000000000E+00 -0.00000000000E+00 -0.59534104268E+03  0.59534104268E+03  0.00000000000E+00 0.  1.
    9000007    1    1    2  502    0  0.32985154637E+03 -0.18621097041E+03  0.47910934375E+03  0.73008378383E+03  0.40000000000E+03 0. -1.
   -9000007    1    1    2    0  501 -0.32985154637E+03  0.18621097041E+03 -0.30837989526E+03  0.63132775002E+03  0.40000000000E+03 0.  1.
<mgrwt>
<rscale>  2 0.55088707E+03</rscale>
<asrwt>0</asrwt>
<pdfrwt beam="1">  1        2 0.11785700E+00 0.55088707E+03</pdfrwt>
<pdfrwt beam="2">  1       -2 0.91590929E-01 0.55088707E+03</pdfrwt>
<totfact> 0.38253091E+01</totfact>
</mgrwt>
</event>
<event>
 4    1  0.2454657E-002  0.1433718E+04  0.7818608E-02  0.8929767E-01
         -1   -1    0    0    0  501 -0.00000000000E+00  0.00000000000E+00  0.78408302845E+03  0.78408302845E+03  0.00000000000E+00 0.  1.
          1   -1    0    0  502    0  0.00000000000E+00 -0.00000000000E+00 -0.26870155105E+04  0.26870155105E+04  0.00000000000E+00 0. -1.
    9000007    1    1    2  502    0 -0.98900442303E+03  0.95781853790E+03 -0.68065450027E+03  0.15870843232E+04  0.40000000000E+03 0. -1.
   -9000007    1    1    2    0  501  0.98900442303E+03 -0.95781853790E+03 -0.12222779818E+04  0.18840142158E+04  0.40000000000E+03 0.  1.
<mgrwt>
<rscale>  2 0.14337176E+04</rscale>
<asrwt>0</asrwt>
<pdfrwt beam="1">  1        1 0.41338701E+00 0.14337176E+04</pdfrwt>
<pdfrwt beam="2">  1       -1 0.12062816E+00 0.14337176E+04</pdfrwt>
<totfact> 0.58903185E-01</totfact>
</mgrwt>
</event>
<event>
 4    1  0.2454657E-002  0.4781350E+03  0.7818608E-02  0.1019649E+00
         -2   -1    0    0    0  501 -0.00000000000E+00  0.00000000000E+00  0.12826760708E+03  0.12826760708E+03  0.00000000000E+00 0.  1.
          2   -1    0    0  502    0  0.00000000000E+00 -0.00000000000E+00 -0.20533085744E+04  0.20533085744E+04  0.00000000000E+00 0. -1.
    9000007    1    1    2  502    0 -0.26168968677E+03  0.11471761422E+02 -0.13587929884E+04  0.14404622448E+04  0.40000000000E+03 0. -1.
   -9000007    1    1    2    0  501  0.26168968677E+03 -0.11471761422E+02 -0.56624797898E+03  0.74111393670E+03  0.40000000000E+03 0.  1.
<mgrwt>
<rscale>  2 0.47813502E+03</rscale>
<asrwt>0</asrwt>
<pdfrwt beam="1">  1        2 0.31589360E+00 0.47813502E+03</pdfrwt>
<pdfrwt beam="2">  1       -2 0.19733480E-01 0.47813502E+03</pdfrwt>
<totfact> 0.14462283E+02</totfact>
</mgrwt>
</event>
<event>
 4    1  0.2454657E-002  0.5704887E+03  0.7818608E-02  0.9968598E-01
          1   -1    0    0  502    0  0.00000000000E+00  0.00000000000E+00  0.25712063146E+04  0.25712063146E+04  0.00000000000E+00 0. -1.
         -1   -1    0    0    0  501 -0.00000000000E+00 -0.00000000000E+00 -0.13388192334E+03  0.13388192334E+03  0.00000000000E+00 0.  1.
    9000007    1    1    2  502    0  0.40163576128E+03  0.64389658055E+02  0.15345830430E+04  0.16371934610E+04  0.40000000000E+03 0. -1.
   -9000007    1    1    2    0  501 -0.40163576128E+03 -0.64389658055E+02  0.90274134826E+03  0.10678947770E+04  0.40000000000E+03 0.  1.
<mgrwt>
<rscale>  2 0.57048866E+03</rscale>
<asrwt>0</asrwt>
<pdfrwt beam="1">  1        1 0.39557017E+00 0.57048866E+03</pdfrwt>
<pdfrwt beam="2">  1       -1 0.20597221E-01 0.57048866E+03</pdfrwt>
<totfact> 0.25374417E+01</totfact>
</mgrwt>
</event>
<event>
 4    1  0.2454657E-002  0.4407340E+03  0.7818608E-02  0.1030522E+00
          2   -1    0    0  502    0  0.00000000000E+00  0.00000000000E+00  0.26601808734E+04  0.26601808734E+04  0.00000000000E+00 0. -1.
         -2   -1    0    0    0  501 -0.00000000000E+00 -0.00000000000E+00 -0.76024879758E+02  0.76024879758E+02  0.00000000000E+00 0.  1.
    9000007    1    1    2  502    0  0.16164968074E+03  0.90087808864E+02  0.15640685054E+04  0.16249789913E+04  0.40000000000E+03 0. -1.
   -9000007    1    1    2    0  501 -0.16164968074E+03 -0.90087808864E+02  0.10200874882E+04  0.11112267618E+04  0.40000000000E+03 0. -1.
<mgrwt>
<rscale>  2 0.44073397E+03</rscale>
<asrwt>0</asrwt>
<pdfrwt beam="1">  1        2 0.40925852E+00 0.44073397E+03</pdfrwt>
<pdfrwt beam="2">  1       -2 0.11696137E-01 0.44073397E+03</pdfrwt>
<totfact> 0.16231794E+02</totfact>
</mgrwt>
</event>
<event>
 4    1  0.2454657E-002  0.6487941E+03  0.7818608E-02  0.9809045E-01
         -2   -1    0    0    0  501 -0.00000000000E+00  0.00000000000E+00  0.31211277197E+03  0.31211277197E+03  0.00000000000E+00 0. -1.
          2   -1    0    0  502    0  0.00000000000E+00 -0.00000000000E+00 -0.13670322640E+04  0.13670322640E+04  0.00000000000E+00 0.  1.
    9000007    1    1    2  502    0  0.42476823480E+03 -0.28373533232E+03 -0.43012711540E+03  0.77842348854E+03  0.40000000000E+03 0. -1.
   -9000007    1    1    2    0  501 -0.42476823480E+03  0.28373533232E+03 -0.62479237658E+03  0.90072154739E+03  0.40000000000E+03 0.  1.
<mgrwt>
<rscale>  2 0.64879411E+03</rscale>
<asrwt>0</asrwt>
<pdfrwt beam="1">  1        2 0.21031266E+00 0.64879411E+03</pdfrwt>
<pdfrwt beam="2">  1       -2 0.48017349E-01 0.64879411E+03</pdfrwt>
<totfact> 0.63951136E+01</totfact>
</mgrwt>
</event>
<event>
 4    1  0.2454657E-002  0.4131162E+03  0.7818608E-02  0.1039330E+00
          1   -1    0    0  502    0  0.00000000000E+00  0.00000000000E+00  0.94009508767E+03  0.94009508767E+03  0.00000000000E+00 0.  1.
         -1   -1    0    0    0  501 -0.00000000000E+00 -0.00000000000E+00 -0.19058606469E+03  0.19058606469E+03  0.00000000000E+00 0. -1.
    9000007    1    1    2  502    0 -0.67614495692E+02  0.78059544280E+02  0.25158858066E+03  0.48369600619E+03  0.40000000000E+03 0. -1.
   -9000007    1    1    2    0  501  0.67614495692E+02 -0.78059544280E+02  0.49792044232E+03  0.64698514617E+03  0.40000000000E+03 0. -1.
<mgrwt>
<rscale>  2 0.41311622E+03</rscale>
<asrwt>0</asrwt>
<pdfrwt beam="1">  1        1 0.14463001E+00 0.41311622E+03</pdfrwt>
<pdfrwt beam="2">  1       -1 0.29320934E-01 0.41311622E+03</pdfrwt>
<totfact> 0.18705391E+02</totfact>
</mgrwt>
</event>
<event>
 4    1  0.2454657E-002  0.6206278E+03  0.7818608E-02  0.9863510E-01
         -2   -1    0    0    0  501 -0.00000000000E+00  0.00000000000E+00  0.14435312273E+04  0.14435312273E+04  0.00000000000E+00 0.  1.
          2   -1    0    0  502    0  0.00000000000E+00 -0.00000000000E+00 -0.29984616132E+03  0.29984616132E+03  0.00000000000E+00 0. -1.
    9000007    1    1    2  502    0  0.90295945362E+01  0.47444428991E+03  0.28259563482E+03  0.68193783487E+03  0.40000000000E+03 0. -1.
   -9000007    1    1    2    0  501 -0.90295945362E+01 -0.47444428991E+03  0.86108943118E+03  0.10614395538E+04  0.40000000000E+03 0.  1.
<mgrwt>
<rscale>  2 0.62062784E+03</rscale>
<asrwt>0</asrwt>
<pdfrwt beam="1">  1        2 0.46130179E-01 0.62062784E+03</pdfrwt>
<pdfrwt beam="2">  1       -2 0.22208172E+00 0.62062784E+03</pdfrwt>
<totfact> 0.10912472E+01</totfact>
</mgrwt>
</event>
<event>
 4    1  0.2454657E-002  0.4981828E+03  0.7818608E-02  0.1014254E+00
         -2   -1    0    0    0  501 -0.00000000000E+00  0.00000000000E+00  0.14555140244E+04  0.14555140244E+04  0.00000000000E+00 0.  1.
          2   -1    0    0  502    0  0.00000000000E+00 -0.00000000000E+00 -0.17758753150E+03  0.17758753150E+03  0.00000000000E+00 0. -1.
    9000007    1    1    2  502    0 -0.16886929117E+03 -0.24427295527E+03  0.80192381849E+03  0.94406987286E+03  0.40000000000E+03 0. -1.
   -9000007    1    1    2    0  501  0.16886929117E+03  0.24427295527E+03  0.47600267436E+03  0.68903168300E+03  0.40000000000E+03 0. -1.
<mgrwt>
<rscale>  2 0.49818281E+03</rscale>
<asrwt>0</asrwt>
<pdfrwt beam="1">  1        2 0.27321160E-01 0.49818281E+03</pdfrwt>
<pdfrwt beam="2">  1       -2 0.22392523E+00 0.49818281E+03</pdfrwt>
<totfact> 0.19343908E+01</totfact>
</mgrwt>
</event>
<event>
 4    1  0.2454657E-002  0.5500959E+03  0.7818608E-02  0.1001472E+00
          1   -1    0    0  502    0  0.00000000000E+00  0.00000000000E+00  0.77521959222E+02  0.77521959222E+02  0.00000000000E+00 0. -1.
         -1   -1    0    0    0  501 -0.00000000000E+00 -0.00000000000E+00 -0.40358223948E+04  0.40358223948E+04  0.00000000000E+00 0.  1.
    9000007    1    1    2  502    0  0.30513657694E+03  0.22247958301E+03 -0.23515821346E+04  0.24150660512E+04  0.40000000000E+03 0.  1.
   -9000007    1    1    2    0  501 -0.30513657694E+03 -0.22247958301E+03 -0.16067183009E+04  0.16982783028E+04  0.40000000000E+03 0. -1.
<mgrwt>
<rscale>  2 0.55009590E+03</rscale>
<asrwt>0</asrwt>
<pdfrwt beam="1">  1        1 0.11926456E-01 0.55009590E+03</pdfrwt>
<pdfrwt beam="2">  1       -1 0.62089569E+00 0.55009590E+03</pdfrwt>
<totfact> 0.20317517E-01</totfact>
</mgrwt>
</event>
<event>
 4    1  0.2454657E-002  0.5886700E+03  0.7818608E-02  0.9929195E-01
         -2   -1    0    0    0  501 -0.00000000000E+00  0.00000000000E+00  0.26478922344E+03  0.26478922344E+03  0.00000000000E+00 0.  1.
          2   -1    0    0  502    0  0.00000000000E+00 -0.00000000000E+00 -0.13514653391E+04  0.13514653391E+04  0.00000000000E+00 0. -1.
    9000007    1    1    2  502    0  0.92342109875E+02 -0.42190675581E+03 -0.39960021486E+03  0.71148626660E+03  0.40000000000E+03 0.  1.
   -9000007    1    1    2    0  501 -0.92342109875E+02  0.42190675581E+03 -0.68707590079E+03  0.90476829592E+03  0.40000000000E+03 0. -1.
<mgrwt>
<rscale>  2 0.58867001E+03</rscale>
<asrwt>0</asrwt>
<pdfrwt beam="1">  1        2 0.20791774E+00 0.58867001E+03</pdfrwt>
<pdfrwt beam="2">  1       -2 0.40736804E-01 0.58867001E+03</pdfrwt>
<totfact> 0.91005341E+01</totfact>
</mgrwt>
</event>
<event>
 4    1  0.2454657E-002  0.4979760E+03  0.7818608E-02  0.1014309E+00
         -1   -1    0    0    0  501 -0.00000000000E+00  0.00000000000E+00  0.94607555770E+03  0.94607555770E+03  0.00000000000E+00 0.  1.
          1   -1    0    0  502    0  0.00000000000E+00 -0.00000000000E+00 -0.64535144269E+03  0.64535144269E+03  0.00000000000E+00 0. -1.
    9000007    1    1    2  502    0  0.20168637730E+03 -0.21749183988E+03  0.76354813161E+03  0.91158424980E+03  0.40000000000E+03 0.  1.
   -9000007    1    1    2    0  501 -0.20168637730E+03  0.21749183988E+03 -0.46282401659E+03  0.67984275060E+03  0.40000000000E+03 0. -1.
<mgrwt>
<rscale>  2 0.49797600E+03</rscale>
<asrwt>0</asrwt>
<pdfrwt beam="1">  1        1 0.99284837E-01 0.49797600E+03</pdfrwt>
<pdfrwt beam="2">  1       -1 0.14555009E+00 0.49797600E+03</pdfrwt>
<totfact> 0.12455426E+01</totfact>
</mgrwt>
</event>
<event>
 4    1  0.2454657E-002  0.4583846E+03  0.7818608E-02  0.1025251E+00
         -2   -1    0    0    0  501 -0.00000000000E+00  0.00000000000E+00  0.38558250172E+03  0.38558250172E+03  0.00000000000E+00 0.  1.
          2   -1    0    0  502    0  0.00000000000E+00 -0.00000000000E+00 -0.54687678196E+03  0.54687678196E+03  0.00000000000E+00 0. -1.
    9000007    1    1    2  502    0  0.18868917345E+03 -0.12046938509E+03 -0.52848529687E+02  0.46142111353E+03  0.40000000000E+03 0.  1.
   -9000007    1    1    2    0  501 -0.18868917345E+03  0.12046938509E+03 -0.10844575055E+03  0.47103817014E+03  0.40000000000E+03 0. -1.
<mgrwt>
<rscale>  2 0.45838464E+03</rscale>
<asrwt>0</asrwt>
<pdfrwt beam="1">  1        2 0.84134889E-01 0.45838464E+03</pdfrwt>
<pdfrwt beam="2">  1       -2 0.59320385E-01 0.45838464E+03</pdfrwt>
<totfact> 0.15114687E+02</totfact>
</mgrwt>
</event>
<event>
 4    1  0.2454657E-002  0.5137740E+03  0.7818608E-02  0.1010245E+00
          2   -1    0    0  502    0  0.00000000000E+00  0.00000000000E+00  0.14059187433E+04  0.14059187433E+04  0.00000000000E+00 0.  1.
         -2   -1    0    0    0  501 -0.00000000000E+00 -0.00000000000E+00 -0.36765006113E+03  0.36765006113E+03  0.00000000000E+00 0. -1.
    9000007    1    1    2  502    0  0.64881964161E+02  0.31583866287E+03  0.11394521438E+04  0.12499259651E+04  0.40000000000E+03 0.  1.
   -9000007    1    1    2    0  501 -0.64881964161E+02 -0.31583866287E+03 -0.10118346166E+03  0.52364283930E+03  0.40000000000E+03 0. -1.
<mgrwt>
<rscale>  2 0.51377401E+03</rscale>
<asrwt>0</asrwt>
<pdfrwt beam="1">  1        2 0.21629519E+00 0.51377401E+03</pdfrwt>
<pdfrwt beam="2">  1       -2 0.56561549E-01 0.51377401E+03</pdfrwt>
<totfact> 0.44279464E+01</totfact>
</mgrwt>
</event>
<event>
 4    1  0.2454657E-002  0.4796891E+03  0.7818608E-02  0.1019221E+00
         -1   -1    0    0    0  501 -0.00000000000E+00  0.00000000000E+00  0.25166337889E+04  0.25166337889E+04  0.00000000000E+00 0. -1.
          1   -1    0    0  502    0  0.00000000000E+00 -0.00000000000E+00 -0.92366217564E+02  0.92366217564E+02  0.00000000000E+00 0.  1.
    9000007    1    1    2  502    0 -0.23254241932E+03  0.12659252209E+03  0.13433052004E+04  0.14263837159E+04  0.40000000000E+03 0.  1.
   -9000007    1    1    2    0  501  0.23254241932E+03 -0.12659252209E+03  0.10809623709E+04  0.11826162906E+04  0.40000000000E+03 0. -1.
<mgrwt>
<rscale>  2 0.47968911E+03</rscale>
<asrwt>0</asrwt>
<pdfrwt beam="1">  1        1 0.14210189E-01 0.47968911E+03</pdfrwt>
<pdfrwt beam="2">  1       -1 0.38717438E+00 0.47968911E+03</pdfrwt>
<totfact> 0.40347223E+00</totfact>
</mgrwt>
</event>
<event>
 4    1  0.2454657E-002  0.4066942E+03  0.7818608E-02  0.1041486E+00
          2   -1    0    0  502    0  0.00000000000E+00  0.00000000000E+00  0.25296612068E+03  0.25296612068E+03  0.00000000000E+00 0. -1.
         -2   -1    0    0    0  501 -0.00000000000E+00 -0.00000000000E+00 -0.65436516794E+03  0.65436516794E+03  0.00000000000E+00 0.  1.
    9000007    1    1    2  502    0 -0.73452311490E+02  0.22209615426E+01 -0.18788646473E+03  0.44799720798E+03  0.40000000000E+03 0.  1.
   -9000007    1    1    2    0  501  0.73452311490E+02 -0.22209615426E+01 -0.21351258253E+03  0.45933408063E+03  0.40000000000E+03 0.  1.
<mgrwt>
<rscale>  2 0.40669420E+03</rscale>
<asrwt>0</asrwt>
<pdfrwt beam="1">  1        2 0.38917865E-01 0.40669420E+03</pdfrwt>
<pdfrwt beam="2">  1       -2 0.10067156E+00 0.40669420E+03</pdfrwt>
<totfact> 0.11089070E+02</totfact>
</mgrwt>
</event>
<event>
 4    1  0.2454657E-002  0.4358359E+03  0.7818608E-02  0.1032032E+00
          3   -1    0    0  502    0  0.00000000000E+00  0.00000000000E+00  0.54391917346E+03  0.54391917346E+03  0.00000000000E+00 0.  1.
         -3   -1    0    0    0  501 -0.00000000000E+00 -0.00000000000E+00 -0.57045187636E+03  0.57045187636E+03  0.00000000000E+00 0. -1.
    9000007    1    1    2  502    0 -0.35934858860E+02 -0.16929740112E+03 -0.36024623622E+03  0.56544696906E+03  0.40000000000E+03 0. -1.
   -9000007    1    1    2    0  501  0.35934858860E+02  0.16929740112E+03  0.33371353333E+03  0.54892408076E+03  0.40000000000E+03 0.  1.
<mgrwt>
<rscale>  2 0.43583589E+03</rscale>
<asrwt>0</asrwt>
<pdfrwt beam="1">  1        3 0.83679873E-01 0.43583589E+03</pdfrwt>
<pdfrwt beam="2">  1       -3 0.87761827E-01 0.43583589E+03</pdfrwt>
<totfact> 0.40568182E+00</totfact>
</mgrwt>
</event>
<event>
 4    1  0.2454657E-002  0.4004259E+03  0.7818608E-02  0.1043632E+00
         -2   -1    0    0    0  501 -0.00000000000E+00  0.00000000000E+00  0.10012752117E+03  0.10012752117E+03  0.00000000000E+00 0.  1.
          2   -1    0    0  502    0  0.00000000000E+00 -0.00000000000E+00 -0.16140949066E+04  0.16140949066E+04  0.00000000000E+00 0. -1.
    9000007    1    1    2  502    0  0.13533427740E+02 -0.12559229232E+02 -0.68087143743E+03  0.78989037354E+03  0.40000000000E+03 0.  1.
   -9000007    1    1    2    0  501 -0.13533427740E+02  0.12559229232E+02 -0.83309594798E+03  0.92433205421E+03  0.40000000000E+03 0. -1.
<mgrwt>
<rscale>  2 0.40042588E+03</rscale>
<asrwt>0</asrwt>
<pdfrwt beam="1">  1        2 0.24832228E+00 0.40042588E+03</pdfrwt>
<pdfrwt beam="2">  1       -2 0.15404235E-01 0.40042588E+03</pdfrwt>
<totfact> 0.38341507E+02</totfact>
</mgrwt>
</event>
<event>
 4    1  0.2454657E-002  0.4231937E+03  0.7818608E-02  0.1036032E+00
          1   -1    0    0  502    0  0.00000000000E+00  0.00000000000E+00  0.69567183564E+03  0.69567183564E+03  0.00000000000E+00 0.  1.
         -1   -1    0    0    0  501 -0.00000000000E+00 -0.00000000000E+00 -0.27864706689E+03  0.27864706689E+03  0.00000000000E+00 0. -1.
    9000007    1    1    2  502    0  0.13546431819E+03 -0.27245908827E+02  0.74113239070E+02  0.42963437160E+03  0.40000000000E+03 0.  1.
   -9000007    1    1    2    0  501 -0.13546431819E+03  0.27245908827E+02  0.34291152968E+03  0.54468453094E+03  0.40000000000E+03 0.  1.
<mgrwt>
<rscale>  2 0.42319372E+03</rscale>
<asrwt>0</asrwt>
<pdfrwt beam="1">  1        1 0.10702644E+00 0.42319372E+03</pdfrwt>
<pdfrwt beam="2">  1       -1 0.42868780E-01 0.42319372E+03</pdfrwt>
<totfact> 0.15371282E+02</totfact>
</mgrwt>
</event>
<event>
 4    1  0.2454657E-002  0.6397059E+03  0.7818608E-02  0.9826289E-01
         -2   -1    0    0    0  501 -0.00000000000E+00  0.00000000000E+00  0.60033074862E+03  0.60033074862E+03  0.00000000000E+00 0. -1.
          2   -1    0    0  502    0  0.00000000000E+00 -0.00000000000E+00 -0.87630565385E+03  0.87630565385E+03  0.00000000000E+00 0.  1.
    9000007    1    1    2  502    0 -0.16159410121E+03 -0.47234628274E+03  0.20997631421E+03  0.67328576169E+03  0.40000000000E+03 0. -1.
   -9000007    1    1    2    0  501  0.16159410121E+03  0.47234628274E+03 -0.48595121944E+03  0.80335064078E+03  0.40000000000E+03 0. -1.
<mgrwt>
<rscale>  2 0.63970592E+03</rscale>
<asrwt>0</asrwt>
<pdfrwt beam="1">  1        2 0.13481625E+00 0.63970592E+03</pdfrwt>
<pdfrwt beam="2">  1       -2 0.92358577E-01 0.63970592E+03</pdfrwt>
<totfact> 0.31078794E+01</totfact>
</mgrwt>
</event>
<event>
 4    1  0.2454657E-002  0.4469899E+03  0.7818608E-02  0.1028624E+00
          1   -1    0    0  502    0  0.00000000000E+00  0.00000000000E+00  0.36440887645E+03  0.36440887645E+03  0.00000000000E+00 0.  1.
         -1   -1    0    0    0  501 -0.00000000000E+00 -0.00000000000E+00 -0.64165489849E+03  0.64165489849E+03  0.00000000000E+00 0. -1.
    9000007    1    1    2  502    0  0.26463413489E+02 -0.19773622543E+03  0.53265141851E+02  0.45015231026E+03  0.40000000000E+03 0.  1.
   -9000007    1    1    2    0  501 -0.26463413489E+02  0.19773622543E+03 -0.33051116389E+03  0.55591146467E+03  0.40000000000E+03 0. -1.
<mgrwt>
<rscale>  2 0.44698985E+03</rscale>
<asrwt>0</asrwt>
<pdfrwt beam="1">  1        1 0.56062905E-01 0.44698985E+03</pdfrwt>
<pdfrwt beam="2">  1       -1 0.98716137E-01 0.44698985E+03</pdfrwt>
<totfact> 0.69849996E+01</totfact>
</mgrwt>
</event>
<event>
 4    1  0.2454657E-002  0.5942549E+03  0.7818608E-02  0.9917398E-01
          2   -1    0    0  502    0  0.00000000000E+00  0.00000000000E+00  0.12395685687E+04  0.12395685687E+04  0.00000000000E+00 0. -1.
         -2   -1    0    0    0  501 -0.00000000000E+00 -0.00000000000E+00 -0.29639800144E+03  0.29639800144E+03  0.00000000000E+00 0.  1.
    9000007    1    1    2  502    0 -0.25268487122E+03 -0.35956810420E+03  0.62292114310E+03  0.86091208391E+03  0.40000000000E+03 0. -1.
   -9000007    1    1    2    0  501  0.25268487122E+03  0.35956810420E+03  0.32024942416E+03  0.67505448623E+03  0.40000000000E+03 0.  1.
<mgrwt>
<rscale>  2 0.59425488E+03</rscale>
<asrwt>0</asrwt>
<pdfrwt beam="1">  1        2 0.19070285E+00 0.59425488E+03</pdfrwt>
<pdfrwt beam="2">  1       -2 0.45599693E-01 0.59425488E+03</pdfrwt>
<totfact> 0.84407994E+01</totfact>
</mgrwt>
</event>
<event>
 4    1  0.2454657E-002  0.4260906E+03  0.7818608E-02  0.1035102E+00
          1   -1    0    0  502    0  0.00000000000E+00  0.00000000000E+00  0.11788373674E+04  0.11788373674E+04  0.00000000000E+00 0.  1.
         -1   -1    0    0    0  501 -0.00000000000E+00 -0.00000000000E+00 -0.17179586422E+03  0.17179586422E+03  0.00000000000E+00 0. -1.
    9000007    1    1    2  502    0 -0.60805103809E+02 -0.13362606493E+03  0.72080787078E+03  0.83732739861E+03  0.40000000000E+03 0.  1.
   -9000007    1    1    2    0  501  0.60805103809E+02  0.13362606493E+03  0.28623363240E+03  0.51330583300E+03  0.40000000000E+03 0. -1.
<mgrwt>
<rscale>  2 0.42609058E+03</rscale>
<asrwt>0</asrwt>
<pdfrwt beam="1">  1        1 0.18135959E+00 0.42609058E+03</pdfrwt>
<pdfrwt beam="2">  1       -1 0.26430134E-01 0.42609058E+03</pdfrwt>
<totfact> 0.14799582E+02</totfact>
</mgrwt>
</event>
<event>
 4    1  0.2454657E-002  0.4892876E+03  0.7818608E-02  0.1016613E+00
         -1   -1    0    0    0  501 -0.00000000000E+00  0.00000000000E+00  0.19505552014E+03  0.19505552014E+03  0.00000000000E+00 0.  1.
          1   -1    0    0  502    0  0.00000000000E+00 -0.00000000000E+00 -0.13743740288E+04  0.13743740288E+04  0.00000000000E+00 0. -1.
    9000007    1    1    2  502    0  0.28131059321E+03  0.16330079558E+02 -0.84631233820E+03  0.97757193861E+03  0.40000000000E+03 0.  1.
   -9000007    1    1    2    0  501 -0.28131059321E+03 -0.16330079558E+02 -0.33300617045E+03  0.59185761033E+03  0.40000000000E+03 0. -1.
<mgrwt>
<rscale>  2 0.48928757E+03</rscale>
<asrwt>0</asrwt>
<pdfrwt beam="1">  1        1 0.21144216E+00 0.48928757E+03</pdfrwt>
<pdfrwt beam="2">  1       -1 0.30008541E-01 0.48928757E+03</pdfrwt>
<totfact> 0.86081884E+01</totfact>
</mgrwt>
</event>
<event>
 4    1  0.2454657E-002  0.4004693E+03  0.7818608E-02  0.1043617E+00
         -1   -1    0    0    0  501 -0.00000000000E+00  0.00000000000E+00  0.86645296112E+03  0.86645296112E+03  0.00000000000E+00 0. -1.
          1   -1    0    0  502    0  0.00000000000E+00 -0.00000000000E+00 -0.30681010359E+03  0.30681010359E+03  0.00000000000E+00 0.  1.
    9000007    1    1    2  502    0  0.16470473677E+02 -0.10217088103E+02 -0.89669455485E+02  0.41038552197E+03  0.40000000000E+03 0.  1.
   -9000007    1    1    2    0  501 -0.16470473677E+02  0.10217088103E+02  0.64931231302E+03  0.76287754275E+03  0.40000000000E+03 0. -1.
<mgrwt>
<rscale>  2 0.40046931E+03</rscale>
<asrwt>0</asrwt>
<pdfrwt beam="1">  1        1 0.47201555E-01 0.40046931E+03</pdfrwt>
<pdfrwt beam="2">  1       -1 0.13330045E+00 0.40046931E+03</pdfrwt>
<totfact> 0.43011905E+01</totfact>
</mgrwt>
</event>
<event>
 4    1  0.2454657E-002  0.6153613E+03  0.7818608E-02  0.9874039E-01
         -1   -1    0    0    0  501 -0.00000000000E+00  0.00000000000E+00  0.15199113429E+04  0.15199113429E+04  0.00000000000E+00 0.  1.
          1   -1    0    0  502    0  0.00000000000E+00 -0.00000000000E+00 -0.28914424011E+03  0.28914424011E+03  0.00000000000E+00 0. -1.
    9000007    1    1    2  502    0 -0.46714048385E+03  0.21196115864E+02  0.95183465589E+03  0.11334278623E+04  0.40000000000E+03 0.  1.
   -9000007    1    1    2    0  501  0.46714048385E+03 -0.21196115864E+02  0.27893244688E+03  0.67562772065E+03  0.40000000000E+03 0. -1.
<mgrwt>
<rscale>  2 0.61536128E+03</rscale>
<asrwt>0</asrwt>
<pdfrwt beam="1">  1        1 0.44483730E-01 0.61536128E+03</pdfrwt>
<pdfrwt beam="2">  1       -1 0.23383251E+00 0.61536128E+03</pdfrwt>
<totfact> 0.86316904E+00</totfact>
</mgrwt>
</event>
<event>
 4    1  0.2454657E-002  0.4080218E+03  0.7818608E-02  0.1041037E+00
         -1   -1    0    0    0  501 -0.00000000000E+00  0.00000000000E+00  0.43093953574E+03  0.43093953574E+03  0.00000000000E+00 0.  1.
          1   -1    0    0  502    0  0.00000000000E+00 -0.00000000000E+00 -0.13636286260E+04  0.13636286260E+04  0.00000000000E+00 0. -1.
    9000007    1    1    2  502    0 -0.73338332066E+02  0.33215191168E+02  0.29327679357E+03  0.50248685308E+03  0.40000000000E+03 0.  1.
   -9000007    1    1    2    0  501  0.73338332066E+02 -0.33215191168E+02 -0.12259658839E+04  0.12920813087E+04  0.40000000000E+03 0. -1.
<mgrwt>
<rscale>  2 0.40802176E+03</rscale>
<asrwt>0</asrwt>
<pdfrwt beam="1">  1        1 0.20978902E+00 0.40802176E+03</pdfrwt>
<pdfrwt beam="2">  1       -1 0.66298390E-01 0.40802176E+03</pdfrwt>
<totfact> 0.20615773E+01</totfact>
</mgrwt>
</event>
<event>
 4    1  0.2454657E-002  0.4402718E+03  0.7818608E-02  0.1030663E+00
         -2   -1    0    0    0  501 -0.00000000000E+00  0.00000000000E+00  0.41316218446E+03  0.41316218446E+03  0.00000000000E+00 0. -1.
          2   -1    0    0  502    0  0.00000000000E+00 -0.00000000000E+00 -0.59020379942E+03  0.59020379942E+03  0.00000000000E+00 0.  1.
    9000007    1    1    2  502    0 -0.14448039466E+02  0.18338631619E+03 -0.31571600438E+03  0.54177106072E+03  0.40000000000E+03 0. -1.
   -9000007    1    1    2    0  501  0.14448039466E+02 -0.18338631619E+03  0.13867438943E+03  0.46159492316E+03  0.40000000000E+03 0. -1.
<mgrwt>
<rscale>  2 0.44027183E+03</rscale>
<asrwt>0</asrwt>
<pdfrwt beam="1">  1        2 0.90800584E-01 0.44027183E+03</pdfrwt>
<pdfrwt beam="2">  1       -2 0.63563413E-01 0.44027183E+03</pdfrwt>
<totfact> 0.11967663E+02</totfact>
</mgrwt>
</event>
<event>
 4    1  0.2454657E-002  0.4163826E+03  0.7818608E-02  0.1038250E+00
          2   -1    0    0  502    0  0.00000000000E+00  0.00000000000E+00  0.45456088235E+03  0.45456088235E+03  0.00000000000E+00 0.  1.
         -2   -1    0    0    0  501 -0.00000000000E+00 -0.00000000000E+00 -0.38148732000E+03  0.38148732000E+03  0.00000000000E+00 0. -1.
    9000007    1    1    2  502    0 -0.54873309535E+02  0.10180056836E+03  0.30616925681E+02  0.41750668492E+03  0.40000000000E+03 0. -1.
   -9000007    1    1    2    0  501  0.54873309535E+02 -0.10180056836E+03  0.42456636670E+02  0.41854151743E+03  0.40000000000E+03 0. -1.
<mgrwt>
<rscale>  2 0.41638256E+03</rscale>
<asrwt>0</asrwt>
<pdfrwt beam="1">  1        2 0.69932444E-01 0.41638256E+03</pdfrwt>
<pdfrwt beam="2">  1       -2 0.58690357E-01 0.41638256E+03</pdfrwt>
<totfact> 0.19147956E+02</totfact>
</mgrwt>
</event>
<event>
 4    1  0.2454657E-002  0.5490059E+03  0.7818608E-02  0.1001724E+00
         -2   -1    0    0    0  501 -0.00000000000E+00  0.00000000000E+00  0.54582084658E+03  0.54582084658E+03  0.00000000000E+00 0. -1.
          2   -1    0    0  502    0  0.00000000000E+00 -0.00000000000E+00 -0.96570506680E+03  0.96570506680E+03  0.00000000000E+00 0.  1.
    9000007    1    1    2  502    0 -0.12667778978E+03  0.35406246849E+03  0.28459483233E+03  0.61838637809E+03  0.40000000000E+03 0. -1.
   -9000007    1    1    2    0  501  0.12667778978E+03 -0.35406246849E+03 -0.70447905255E+03  0.89313953529E+03  0.40000000000E+03 0.  1.
<mgrwt>
<rscale>  2 0.54900591E+03</rscale>
<asrwt>0</asrwt>
<pdfrwt beam="1">  1        2 0.14857001E+00 0.54900591E+03</pdfrwt>
<pdfrwt beam="2">  1       -2 0.83972438E-01 0.54900591E+03</pdfrwt>
<totfact> 0.34093203E+01</totfact>
</mgrwt>
</event>
<event>
 4    1  0.2454657E-002  0.4633068E+03  0.7818608E-02  0.1023827E+00
         -1   -1    0    0    0  501 -0.00000000000E+00  0.00000000000E+00  0.89007195947E+02  0.89007195947E+02  0.00000000000E+00 0. -1.
          1   -1    0    0  502    0  0.00000000000E+00 -0.00000000000E+00 -0.31348275740E+04  0.31348275740E+04  0.00000000000E+00 0.  1.
    9000007    1    1    2  502    0 -0.28262689752E+02 -0.23206549254E+03 -0.74869461106E+03  0.88045260695E+03  0.40000000000E+03 0. -1.
   -9000007    1    1    2    0  501  0.28262689752E+02  0.23206549254E+03 -0.22971257670E+04  0.23433821630E+04  0.40000000000E+03 0.  1.
<mgrwt>
<rscale>  2 0.46330678E+03</rscale>
<asrwt>0</asrwt>
<pdfrwt beam="1">  1        1 0.48228117E+00 0.46330678E+03</pdfrwt>
<pdfrwt beam="2">  1       -1 0.13693415E-01 0.46330678E+03</pdfrwt>
<totfact> 0.20371239E+01</totfact>
</mgrwt>
</event>
<event>
 4    1  0.2454657E-002  0.6449642E+03  0.7818608E-02  0.9816275E-01
          2   -1    0    0  502    0  0.00000000000E+00  0.00000000000E+00  0.19803320900E+04  0.19803320900E+04  0.00000000000E+00 0.  1.
         -2   -1    0    0    0  501 -0.00000000000E+00 -0.00000000000E+00 -0.21106865049E+03  0.21106865049E+03  0.00000000000E+00 0. -1.
    9000007    1    1    2  502    0 -0.46752656343E+03 -0.19338485692E+03  0.80870237618E+03  0.10343975656E+04  0.40000000000E+03 0.  1.
   -9000007    1    1    2    0  501  0.46752656343E+03  0.19338485692E+03  0.96056106334E+03  0.11570031749E+04  0.40000000000E+03 0. -1.
<mgrwt>
<rscale>  2 0.64496418E+03</rscale>
<asrwt>0</asrwt>
<pdfrwt beam="1">  1        2 0.30466646E+00 0.64496418E+03</pdfrwt>
<pdfrwt beam="2">  1       -2 0.32472101E-01 0.64496418E+03</pdfrwt>
<totfact> 0.63062181E+01</totfact>
</mgrwt>
</event>
<event>
 4    1  0.2454657E-002  0.5057783E+03  0.7818608E-02  0.1012282E+00
          2   -1    0    0  502    0  0.00000000000E+00  0.00000000000E+00  0.42629228812E+03  0.42629228812E+03  0.00000000000E+00 0.  1.
         -2   -1    0    0    0  501 -0.00000000000E+00 -0.00000000000E+00 -0.60250926383E+03  0.60250926383E+03  0.00000000000E+00 0. -1.
    9000007    1    1    2  502    0  0.23138548816E+03 -0.20560268818E+03 -0.55480649672E+02  0.50881215788E+03  0.40000000000E+03 0.  1.
   -9000007    1    1    2    0  501 -0.23138548816E+03  0.20560268818E+03 -0.12073632603E+03  0.51998939407E+03  0.40000000000E+03 0.  1.
<mgrwt>
<rscale>  2 0.50577832E+03</rscale>
<asrwt>0</asrwt>
<pdfrwt beam="1">  1        2 0.65583429E-01 0.50577832E+03</pdfrwt>
<pdfrwt beam="2">  1       -2 0.92693732E-01 0.50577832E+03</pdfrwt>
<totfact> 0.75030822E+01</totfact>
</mgrwt>
</event>
<event>
 4    1  0.2454657E-002  0.4249927E+03  0.7818608E-02  0.1035454E+00
         -1   -1    0    0    0  501 -0.00000000000E+00  0.00000000000E+00  0.23160605678E+03  0.23160605678E+03  0.00000000000E+00 0.  1.
          1   -1    0    0  502    0  0.00000000000E+00 -0.00000000000E+00 -0.95389024548E+03  0.95389024548E+03  0.00000000000E+00 0. -1.
    9000007    1    1    2  502    0  0.95283412606E+02 -0.10742359354E+03 -0.61432925548E+03  0.74700682145E+03  0.40000000000E+03 0. -1.
   -9000007    1    1    2    0  501 -0.95283412606E+02  0.10742359354E+03 -0.10795493323E+03  0.43848948080E+03  0.40000000000E+03 0.  1.
<mgrwt>
<rscale>  2 0.42499266E+03</rscale>
<asrwt>0</asrwt>
<pdfrwt beam="1">  1        1 0.14675234E+00 0.42499266E+03</pdfrwt>
<pdfrwt beam="2">  1       -1 0.35631701E-01 0.42499266E+03</pdfrwt>
<totfact> 0.12976392E+02</totfact>
</mgrwt>
</event>
<event>
 4    1  0.2454657E-002  0.4090598E+03  0.7818608E-02  0.1040687E+00
          2   -1    0    0  502    0  0.00000000000E+00  0.00000000000E+00  0.94901599517E+03  0.94901599517E+03  0.00000000000E+00 0. -1.
         -2   -1    0    0    0  501 -0.00000000000E+00 -0.00000000000E+00 -0.17716931777E+03  0.17716931777E+03  0.00000000000E+00 0.  1.
    9000007    1    1    2  502    0  0.20240072110E+02 -0.83188141062E+02  0.34692240443E+03  0.53636282685E+03  0.40000000000E+03 0.  1.
   -9000007    1    1    2    0  501 -0.20240072110E+02  0.83188141062E+02  0.42492427297E+03  0.58982248608E+03  0.40000000000E+03 0. -1.
<mgrwt>
<rscale>  2 0.40905981E+03</rscale>
<asrwt>0</asrwt>
<pdfrwt beam="1">  1        2 0.14600246E+00 0.40905981E+03</pdfrwt>
<pdfrwt beam="2">  1       -2 0.27256819E-01 0.40905981E+03</pdfrwt>
<totfact> 0.34213623E+02</totfact>
</mgrwt>
</event>
<event>
 4    1  0.2454657E-002  0.4879128E+03  0.7818608E-02  0.1016983E+00
          2   -1    0    0  502    0  0.00000000000E+00  0.00000000000E+00  0.25622126297E+03  0.25622126297E+03  0.00000000000E+00 0.  1.
         -2   -1    0    0    0  501 -0.00000000000E+00 -0.00000000000E+00 -0.95431390242E+03  0.95431390242E+03  0.00000000000E+00 0. -1.
    9000007    1    1    2  502    0 -0.25057106274E+03 -0.12358398449E+03 -0.44740166871E+03  0.66198724449E+03  0.40000000000E+03 0. -1.
   -9000007    1    1    2    0  501  0.25057106274E+03  0.12358398449E+03 -0.25069097074E+03  0.54854792089E+03  0.40000000000E+03 0. -1.
<mgrwt>
<rscale>  2 0.48791276E+03</rscale>
<asrwt>0</asrwt>
<pdfrwt beam="1">  1        2 0.39418656E-01 0.48791276E+03</pdfrwt>
<pdfrwt beam="2">  1       -2 0.14681752E+00 0.48791276E+03</pdfrwt>
<totfact> 0.42796505E+01</totfact>
</mgrwt>
</event>
<event>
 4    1  0.2454657E-002  0.4282268E+03  0.7818608E-02  0.1034422E+00
         -1   -1    0    0    0  501 -0.00000000000E+00  0.00000000000E+00  0.31683686654E+03  0.31683686654E+03  0.00000000000E+00 0. -1.
          1   -1    0    0  502    0  0.00000000000E+00 -0.00000000000E+00 -0.64967244667E+03  0.64967244667E+03  0.00000000000E+00 0.  1.
    9000007    1    1    2  502    0  0.11803348373E+03 -0.97192179177E+02 -0.67803382816E+01  0.42828051083E+03  0.40000000000E+03 0. -1.
   -9000007    1    1    2    0  501 -0.11803348373E+03  0.97192179177E+02 -0.32605524184E+03  0.53822880238E+03  0.40000000000E+03 0.  1.
<mgrwt>
<rscale>  2 0.42822684E+03</rscale>
<asrwt>0</asrwt>
<pdfrwt beam="1">  1        1 0.99949606E-01 0.42822684E+03</pdfrwt>
<pdfrwt beam="2">  1       -1 0.48744134E-01 0.42822684E+03</pdfrwt>
<totfact> 0.13405863E+02</totfact>
</mgrwt>
</event>
<event>
 4    1  0.2454657E-002  0.5006809E+03  0.7818608E-02  0.1013601E+00
          2   -1    0    0  502    0  0.00000000000E+00  0.00000000000E+00  0.25406351658E+04  0.25406351658E+04  0.00000000000E+00 0.  1.
         -2   -1    0    0    0  501 -0.00000000000E+00 -0.00000000000E+00 -0.10370607430E+03  0.10370607430E+03  0.00000000000E+00 0. -1.
    9000007    1    1    2  502    0 -0.60023290556E+02  0.29509082514E+03  0.92706843038E+03  0.10536305164E+04  0.40000000000E+03 0.  1.
   -9000007    1    1    2    0  501  0.60023290556E+02 -0.29509082514E+03  0.15098606611E+04  0.15907107236E+04  0.40000000000E+03 0.  1.
<mgrwt>
<rscale>  2 0.50068093E+03</rscale>
<asrwt>0</asrwt>
<pdfrwt beam="1">  1        2 0.39086690E+00 0.50068093E+03</pdfrwt>
<pdfrwt beam="2">  1       -2 0.15954783E-01 0.50068093E+03</pdfrwt>
<totfact> 0.11199302E+02</totfact>
</mgrwt>
</event>
<event>
 4    1  0.2454657E-002  0.4388533E+03  0.7818608E-02  0.1031099E+00
          2   -1    0    0  502    0  0.00000000000E+00  0.00000000000E+00  0.80340878901E+03  0.80340878901E+03  0.00000000000E+00 0. -1.
         -2   -1    0    0    0  501 -0.00000000000E+00 -0.00000000000E+00 -0.27581797863E+03  0.27581797863E+03  0.00000000000E+00 0.  1.
    9000007    1    1    2  502    0  0.32408959585E+02 -0.17760031887E+03  0.45901342997E+03  0.63504766972E+03  0.40000000000E+03 0. -1.
   -9000007    1    1    2    0  501 -0.32408959585E+02  0.17760031887E+03  0.68577380410E+02  0.44417909792E+03  0.40000000000E+03 0.  1.
<mgrwt>
<rscale>  2 0.43885329E+03</rscale>
<asrwt>0</asrwt>
<pdfrwt beam="1">  1        2 0.12360135E+00 0.43885329E+03</pdfrwt>
<pdfrwt beam="2">  1       -2 0.42433535E-01 0.43885329E+03</pdfrwt>
<totfact> 0.18602082E+02</totfact>
</mgrwt>
</event>
<event>
 4    1  0.2454657E-002  0.4055286E+03  0.7818608E-02  0.1041882E+00
         -1   -1    0    0    0  501 -0.00000000000E+00  0.00000000000E+00  0.55051502314E+03  0.55051502314E+03  0.00000000000E+00 0. -1.
          1   -1    0    0  502    0  0.00000000000E+00 -0.00000000000E+00 -0.35831785092E+03  0.35831785092E+03  0.00000000000E+00 0.  1.
    9000007    1    1    2  502    0  0.35159751116E+02  0.56720492688E+02 -0.89216787519E+02  0.41522651356E+03  0.40000000000E+03 0.  1.
   -9000007    1    1    2    0  501 -0.35159751116E+02 -0.56720492688E+02  0.28141395974E+03  0.49360636050E+03  0.40000000000E+03 0. -1.
<mgrwt>
<rscale>  2 0.40552857E+03</rscale>
<asrwt>0</asrwt>
<pdfrwt beam="1">  1        1 0.55125823E-01 0.40552857E+03</pdfrwt>
<pdfrwt beam="2">  1       -1 0.84694619E-01 0.40552857E+03</pdfrwt>
<totfact> 0.10029722E+02</totfact>
</mgrwt>
</event>
<event>
 4    1  0.2454657E-002  0.4395943E+03  0.7818608E-02  0.1030871E+00
         -2   -1    0    0    0  501 -0.00000000000E+00  0.00000000000E+00  0.34701315826E+03  0.34701315826E+03  0.00000000000E+00 0. -1.
          2   -1    0    0  502    0  0.00000000000E+00 -0.00000000000E+00 -0.59776326374E+03  0.59776326374E+03  0.00000000000E+00 0.  1.
    9000007    1    1    2  502    0 -0.17481477658E+03  0.51797343180E+02 -0.18285566950E+01  0.43959812840E+03  0.40000000000E+03 0.  1.
   -9000007    1    1    2    0  501  0.17481477658E+03 -0.51797343180E+02 -0.24892154879E+03  0.50517829360E+03  0.40000000000E+03 0. -1.
<mgrwt>
<rscale>  2 0.43959433E+03</rscale>
<asrwt>0</asrwt>
<pdfrwt beam="1">  1        2 0.91963578E-01 0.43959433E+03</pdfrwt>
<pdfrwt beam="2">  1       -2 0.53386640E-01 0.43959433E+03</pdfrwt>
<totfact> 0.16955188E+02</totfact>
</mgrwt>
</event>
<event>
 4    1  0.2454657E-002  0.5775497E+03  0.7818608E-02  0.9953110E-01
         -1   -1    0    0    0  501 -0.00000000000E+00  0.00000000000E+00  0.49662615755E+03  0.49662615755E+03  0.00000000000E+00 0.  1.
          1   -1    0    0  502    0  0.00000000000E+00 -0.00000000000E+00 -0.77306233278E+03  0.77306233278E+03  0.00000000000E+00 0. -1.
    9000007    1    1    2  502    0 -0.11465075948E+03  0.40052323506E+03  0.91706307647E+02  0.58478517879E+03  0.40000000000E+03 0. -1.
   -9000007    1    1    2    0  501  0.11465075948E+03 -0.40052323506E+03 -0.36814248287E+03  0.68490331155E+03  0.40000000000E+03 0. -1.
<mgrwt>
<rscale>  2 0.57754970E+03</rscale>
<asrwt>0</asrwt>
<pdfrwt beam="1">  1        1 0.11893267E+00 0.57754970E+03</pdfrwt>
<pdfrwt beam="2">  1       -1 0.76404024E-01 0.57754970E+03</pdfrwt>
<totfact> 0.41899756E+01</totfact>
</mgrwt>
</event>
<event>
 4    1  0.2454657E-002  0.4828313E+03  0.7818608E-02  0.1018360E+00
         -1   -1    0    0    0  501 -0.00000000000E+00  0.00000000000E+00  0.48427615575E+03  0.48427615575E+03  0.00000000000E+00 0.  1.
          1   -1    0    0  502    0  0.00000000000E+00 -0.00000000000E+00 -0.49708488305E+03  0.49708488305E+03  0.00000000000E+00 0. -1.
    9000007    1    1    2  502    0  0.21080414403E+03 -0.16937444102E+03 -0.93591305318E+02  0.49181848363E+03  0.40000000000E+03 0. -1.
   -9000007    1    1    2    0  501 -0.21080414403E+03  0.16937444102E+03  0.80782578019E+02  0.48954255517E+03  0.40000000000E+03 0.  1.
<mgrwt>
<rscale>  2 0.48283133E+03</rscale>
<asrwt>0</asrwt>
<pdfrwt beam="1">  1        1 0.76474597E-01 0.48283133E+03</pdfrwt>
<pdfrwt beam="2">  1       -1 0.74504024E-01 0.48283133E+03</pdfrwt>
<totfact> 0.84488836E+01</totfact>
</mgrwt>
</event>
<event>
 4    1  0.2454657E-002  0.5214692E+03  0.7818608E-02  0.1008322E+00
          2   -1    0    0  502    0  0.00000000000E+00  0.00000000000E+00  0.21102634286E+04  0.21102634286E+04  0.00000000000E+00 0. -1.
         -2   -1    0    0    0  501 -0.00000000000E+00 -0.00000000000E+00 -0.13670199605E+03  0.13670199605E+03  0.00000000000E+00 0.  1.
    9000007    1    1    2  502    0 -0.17453007148E+03 -0.28542844371E+03  0.71770697311E+03  0.88714905263E+03  0.40000000000E+03 0. -1.
   -9000007    1    1    2    0  501  0.17453007148E+03  0.28542844371E+03  0.12558544594E+04  0.13598163720E+04  0.40000000000E+03 0. -1.
<mgrwt>
<rscale>  2 0.52146922E+03</rscale>
<asrwt>0</asrwt>
<pdfrwt beam="1">  1        2 0.32465589E+00 0.52146922E+03</pdfrwt>
<pdfrwt beam="2">  1       -2 0.21031078E-01 0.52146922E+03</pdfrwt>
<totfact> 0.11979024E+02</totfact>
</mgrwt>
</event>
<event>
 4    1  0.2454657E-002  0.4175510E+03  0.7818608E-02  0.1037866E+00
         -2   -1    0    0    0  501 -0.00000000000E+00  0.00000000000E+00  0.27555555071E+03  0.27555555071E+03  0.00000000000E+00 0. -1.
          2   -1    0    0  502    0  0.00000000000E+00 -0.00000000000E+00 -0.14438350631E+04  0.14438350631E+04  0.00000000000E+00 0.  1.
    9000007    1    1    2  502    0  0.11242066964E+02  0.11925780244E+03  0.60218915711E+02  0.42187098184E+03  0.40000000000E+03 0. -1.
   -9000007    1    1    2    0  501 -0.11242066964E+02 -0.11925780244E+03 -0.12284984281E+04  0.12975196320E+04  0.40000000000E+03 0.  1.
<mgrwt>
<rscale>  2 0.41755096E+03</rscale>
<asrwt>0</asrwt>
<pdfrwt beam="1">  1        2 0.22212847E+00 0.41755096E+03</pdfrwt>
<pdfrwt beam="2">  1       -2 0.42393162E-01 0.41755096E+03</pdfrwt>
<totfact> 0.76564806E+01</totfact>
</mgrwt>
</event>
<event>
 4    1  0.2454657E-002  0.4897349E+03  0.7818608E-02  0.1016494E+00
         -1   -1    0    0    0  501 -0.00000000000E+00  0.00000000000E+00  0.26606247684E+03  0.26606247684E+03  0.00000000000E+00 0. -1.
          1   -1    0    0  502    0  0.00000000000E+00 -0.00000000000E+00 -0.90708298537E+03  0.90708298537E+03  0.00000000000E+00 0.  1.
    9000007    1    1    2  502    0 -0.20607590975E+03 -0.19332098945E+03 -0.36676100543E+03  0.61184468670E+03  0.40000000000E+03 0. -1.
   -9000007    1    1    2    0  501  0.20607590975E+03  0.19332098945E+03 -0.27425950310E+03  0.56130077550E+03  0.40000000000E+03 0.  1.
<mgrwt>
<rscale>  2 0.48973491E+03</rscale>
<asrwt>0</asrwt>
<pdfrwt beam="1">  1        1 0.13955123E+00 0.48973491E+03</pdfrwt>
<pdfrwt beam="2">  1       -1 0.40932689E-01 0.48973491E+03</pdfrwt>
<totfact> 0.10938517E+02</totfact>
</mgrwt>
</event>
<event>
 4    1  0.2454657E-002  0.4487780E+03  0.7818608E-02  0.1028087E+00
          2   -1    0    0  502    0  0.00000000000E+00  0.00000000000E+00  0.42015447535E+03  0.42015447535E+03  0.00000000000E+00 0. -1.
         -2   -1    0    0    0  501 -0.00000000000E+00 -0.00000000000E+00 -0.72519196945E+03  0.72519196945E+03  0.00000000000E+00 0.  1.
    9000007    1    1    2  502    0  0.16989074941E+03 -0.11197688967E+03 -0.48595056876E+03  0.66147535542E+03  0.40000000000E+03 0.  1.
   -9000007    1    1    2    0  501 -0.16989074941E+03  0.11197688967E+03  0.18091307466E+03  0.48387108938E+03  0.40000000000E+03 0. -1.
<mgrwt>
<rscale>  2 0.44877800E+03</rscale>
<asrwt>0</asrwt>
<pdfrwt beam="1">  1        2 0.64639151E-01 0.44877800E+03</pdfrwt>
<pdfrwt beam="2">  1       -2 0.11156799E+00 0.44877800E+03</pdfrwt>
<totfact> 0.49479763E+01</totfact>
</mgrwt>
</event>
<event>
 4    1  0.2454657E-002  0.4620823E+03  0.7818608E-02  0.1024179E+00
         -2   -1    0    0    0  501 -0.00000000000E+00  0.00000000000E+00  0.13101020913E+03  0.13101020913E+03  0.00000000000E+00 0.  1.
          2   -1    0    0  502    0  0.00000000000E+00 -0.00000000000E+00 -0.19622084269E+04  0.19622084269E+04  0.00000000000E+00 0. -1.
    9000007    1    1    2  502    0  0.22971322699E+03  0.27420225489E+02 -0.48482454364E+03  0.66975732436E+03  0.40000000000E+03 0.  1.
   -9000007    1    1    2    0  501 -0.22971322699E+03 -0.27420225489E+02 -0.13463736742E+04  0.14234613117E+04  0.40000000000E+03 0. -1.
<mgrwt>
<rscale>  2 0.46208228E+03</rscale>
<asrwt>0</asrwt>
<pdfrwt beam="1">  1        2 0.30187821E+00 0.46208228E+03</pdfrwt>
<pdfrwt beam="2">  1       -2 0.20155417E-01 0.46208228E+03</pdfrwt>
<totfact> 0.15643497E+02</totfact>
</mgrwt>
</event>
<event>
 4    1  0.2454657E-002  0.4283500E+03  0.7818608E-02  0.1034382E+00
         -2   -1    0    0    0  501 -0.00000000000E+00  0.00000000000E+00  0.11157685511E+03  0.11157685511E+03  0.00000000000E+00 0.  1.
          2   -1    0    0  502    0  0.00000000000E+00 -0.00000000000E+00 -0.16450496249E+04  0.16450496249E+04  0.00000000000E+00 0. -1.
    9000007    1    1    2  502    0 -0.10136365786E+03 -0.11493114606E+03 -0.75011874475E+03  0.86380662807E+03  0.40000000000E+03 0.  1.
   -9000007    1    1    2    0  501  0.10136365786E+03  0.11493114606E+03 -0.78335402502E+03  0.89281985192E+03  0.40000000000E+03 0.  1.
<mgrwt>
<rscale>  2 0.42835004E+03</rscale>
<asrwt>0</asrwt>
<pdfrwt beam="1">  1        2 0.25308457E+00 0.42835004E+03</pdfrwt>
<pdfrwt beam="2">  1       -2 0.17165669E-01 0.42835004E+03</pdfrwt>
<totfact> 0.30633301E+02</totfact>
</mgrwt>
</event>
<event>
 4    1  0.2454657E-002  0.4283750E+03  0.7818608E-02  0.1034375E+00
          2   -1    0    0  502    0  0.00000000000E+00  0.00000000000E+00  0.12228716462E+04  0.12228716462E+04  0.00000000000E+00 0. -1.
         -2   -1    0    0    0  501 -0.00000000000E+00 -0.00000000000E+00 -0.15297310159E+03  0.15297310159E+03  0.00000000000E+00 0.  1.
    9000007    1    1    2  502    0 -0.15163499247E+03  0.22626867635E+02  0.62986695150E+03  0.76173323590E+03  0.40000000000E+03 0. -1.
   -9000007    1    1    2    0  501  0.15163499247E+03 -0.22626867635E+02  0.44003159307E+03  0.61411151184E+03  0.40000000000E+03 0.  1.
<mgrwt>
<rscale>  2 0.42837501E+03</rscale>
<asrwt>0</asrwt>
<pdfrwt beam="1">  1        2 0.18813409E+00 0.42837501E+03</pdfrwt>
<pdfrwt beam="2">  1       -2 0.23534324E-01 0.42837501E+03</pdfrwt>
<totfact> 0.30340759E+02</totfact>
</mgrwt>
</event>
<event>
 4    1  0.2454657E-002  0.4046243E+03  0.7818608E-02  0.1042190E+00
          1   -1    0    0  502    0  0.00000000000E+00  0.00000000000E+00  0.27970059747E+03  0.27970059747E+03  0.00000000000E+00 0. -1.
         -1   -1    0    0    0  501 -0.00000000000E+00 -0.00000000000E+00 -0.66399497569E+03  0.66399497569E+03  0.00000000000E+00 0.  1.
    9000007    1    1    2  502    0  0.32160706624E+02 -0.51831287696E+02 -0.35454279670E+03  0.53797898484E+03  0.40000000000E+03 0. -1.
   -9000007    1    1    2    0  501 -0.32160706624E+02  0.51831287696E+02 -0.29751581510E+02  0.40571658832E+03  0.40000000000E+03 0. -1.
<mgrwt>
<rscale>  2 0.40462426E+03</rscale>
<asrwt>0</asrwt>
<pdfrwt beam="1">  1        1 0.43030862E-01 0.40462426E+03</pdfrwt>
<pdfrwt beam="2">  1       -1 0.10215307E+00 0.40462426E+03</pdfrwt>
<totfact> 0.91256506E+01</totfact>
</mgrwt>
</event>
<event>
 4    1  0.2454657E-002  0.4702514E+03  0.7818608E-02  0.1021849E+00
          2   -1    0    0  502    0  0.00000000000E+00  0.00000000000E+00  0.54863447087E+03  0.54863447087E+03  0.00000000000E+00 0. -1.
         -2   -1    0    0    0  501 -0.00000000000E+00 -0.00000000000E+00 -0.40310182956E+03  0.40310182956E+03  0.00000000000E+00 0.  1.
    9000007    1    1    2  502    0 -0.17648657760E+03 -0.17317306297E+03  0.68339658773E+02  0.47519125705E+03  0.40000000000E+03 0. -1.
   -9000007    1    1    2    0  501  0.17648657760E+03  0.17317306297E+03  0.77192982543E+02  0.47654504338E+03  0.40000000000E+03 0. -1.
<mgrwt>
<rscale>  2 0.47025145E+03</rscale>
<asrwt>0</asrwt>
<pdfrwt beam="1">  1        2 0.84405304E-01 0.47025145E+03</pdfrwt>
<pdfrwt beam="2">  1       -2 0.62015666E-01 0.47025145E+03</pdfrwt>
<totfact> 0.13703715E+02</totfact>
</mgrwt>
</event>
<event>
 4    1  0.2454657E-002  0.4035342E+03  0.7818608E-02  0.1042563E+00
          2   -1    0    0  502    0  0.00000000000E+00  0.00000000000E+00  0.16286554501E+04  0.16286554501E+04  0.00000000000E+00 0.  1.
         -2   -1    0    0    0  501 -0.00000000000E+00 -0.00000000000E+00 -0.11520414155E+03  0.11520414155E+03  0.00000000000E+00 0. -1.
    9000007    1    1    2  502    0  0.12531613777E+02 -0.51795482844E+02  0.43980251068E+03  0.59688027425E+03  0.40000000000E+03 0. -1.
   -9000007    1    1    2    0  501 -0.12531613777E+02  0.51795482844E+02  0.10736487979E+04  0.11469793174E+04  0.40000000000E+03 0.  1.
<mgrwt>
<rscale>  2 0.40353415E+03</rscale>
<asrwt>0</asrwt>
<pdfrwt beam="1">  1        2 0.25056236E+00 0.40353415E+03</pdfrwt>
<pdfrwt beam="2">  1       -2 0.17723715E-01 0.40353415E+03</pdfrwt>
<totfact> 0.29696071E+02</totfact>
</mgrwt>
</event>
<event>
 4    1  0.2454657E-002  0.4693338E+03  0.7818608E-02  0.1022108E+00
          2   -1    0    0  502    0  0.00000000000E+00  0.00000000000E+00  0.50701992402E+03  0.50701992402E+03  0.00000000000E+00 0.  1.
         -2   -1    0    0    0  501 -0.00000000000E+00 -0.00000000000E+00 -0.65125825630E+03  0.65125825630E+03  0.00000000000E+00 0. -1.
    9000007    1    1    2  502    0  0.22067259904E+03 -0.10760035889E+03 -0.40627211513E+03  0.62075056563E+03  0.40000000000E+03 0. -1.
   -9000007    1    1    2    0  501 -0.22067259904E+03  0.10760035889E+03  0.26203378285E+03  0.53752761469E+03  0.40000000000E+03 0. -1.
<mgrwt>
<rscale>  2 0.46933382E+03</rscale>
<asrwt>0</asrwt>
<pdfrwt beam="1">  1        2 0.78003065E-01 0.46933382E+03</pdfrwt>
<pdfrwt beam="2">  1       -2 0.10019358E+00 0.46933382E+03</pdfrwt>
<totfact> 0.51588156E+01</totfact>
</mgrwt>
</event>
<event>
 4    1  0.2454657E-002  0.4028085E+03  0.7818608E-02  0.1042811E+00
          2   -1    0    0  502    0  0.00000000000E+00  0.00000000000E+00  0.11170541209E+04  0.11170541209E+04  0.00000000000E+00 0. -1.
         -2   -1    0    0    0  501 -0.00000000000E+00 -0.00000000000E+00 -0.14978437976E+03  0.14978437976E+03  0.00000000000E+00 0.  1.
    9000007    1    1    2  502    0 -0.11688225053E+02  0.46022793762E+02  0.37345420267E+03  0.54929295794E+03  0.40000000000E+03 0.  1.
   -9000007    1    1    2    0  501  0.11688225053E+02 -0.46022793762E+02  0.59381553846E+03  0.71754554271E+03  0.40000000000E+03 0. -1.
<mgrwt>
<rscale>  2 0.40280853E+03</rscale>
<asrwt>0</asrwt>
<pdfrwt beam="1">  1        2 0.17185448E+00 0.40280853E+03</pdfrwt>
<pdfrwt beam="2">  1       -2 0.23043751E-01 0.40280853E+03</pdfrwt>
<totfact> 0.36403279E+02</totfact>
</mgrwt>
</event>
<event>
 4    1  0.2454657E-002  0.5770976E+03  0.7818608E-02  0.9954095E-01
          2   -1    0    0  502    0  0.00000000000E+00  0.00000000000E+00  0.28549370071E+04  0.28549370071E+04  0.00000000000E+00 0. -1.
         -2   -1    0    0    0  501 -0.00000000000E+00 -0.00000000000E+00 -0.12203488745E+03  0.12203488745E+03  0.00000000000E+00 0.  1.
    9000007    1    1    2  502    0 -0.24364323369E+03 -0.33716402028E+03  0.10539118396E+04  0.12015705421E+04  0.40000000000E+03 0.  1.
   -9000007    1    1    2    0  501  0.24364323369E+03  0.33716402028E+03  0.16789902800E+04  0.17754013524E+04  0.40000000000E+03 0. -1.
<mgrwt>
<rscale>  2 0.57709757E+03</rscale>
<asrwt>0</asrwt>
<pdfrwt beam="1">  1        2 0.43922103E+00 0.57709757E+03</pdfrwt>
<pdfrwt beam="2">  1       -2 0.18774600E-01 0.57709757E+03</pdfrwt>
<totfact> 0.55115543E+01</totfact>
</mgrwt>
</event>
<event>
 4    1  0.2454657E-002  0.4167561E+03  0.7818608E-02  0.1038127E+00
         -2   -1    0    0    0  501 -0.00000000000E+00  0.00000000000E+00  0.10796872166E+03  0.10796872166E+03  0.00000000000E+00 0.  1.
          2   -1    0    0  502    0  0.00000000000E+00 -0.00000000000E+00 -0.16090244824E+04  0.16090244824E+04  0.00000000000E+00 0. -1.
    9000007    1    1    2  502    0 -0.10633637086E+03  0.48767156472E+02 -0.73772159150E+03  0.84730089454E+03  0.40000000000E+03 0.  1.
   -9000007    1    1    2    0  501  0.10633637086E+03 -0.48767156472E+02 -0.76333416927E+03  0.86969230956E+03  0.40000000000E+03 0.  1.
<mgrwt>
<rscale>  2 0.41675611E+03</rscale>
<asrwt>0</asrwt>
<pdfrwt beam="1">  1        2 0.24754223E+00 0.41675611E+03</pdfrwt>
<pdfrwt beam="2">  1       -2 0.16610572E-01 0.41675611E+03</pdfrwt>
<totfact> 0.33916677E+02</totfact>
</mgrwt>
</event>
<event>
 4    1  0.2454657E-002  0.4061641E+03  0.7818608E-02  0.1041666E+00
          1   -1    0    0  502    0  0.00000000000E+00  0.00000000000E+00  0.65485171268E+03  0.65485171268E+03  0.00000000000E+00 0. -1.
         -1   -1    0    0    0  501 -0.00000000000E+00 -0.00000000000E+00 -0.25685834380E+03  0.25685834380E+03  0.00000000000E+00 0.  1.
    9000007    1    1    2  502    0  0.33853217263E+02 -0.61832644695E+02  0.26221352994E+03  0.48345139524E+03  0.40000000000E+03 0. -1.
   -9000007    1    1    2    0  501 -0.33853217263E+02  0.61832644695E+02  0.13577983894E+03  0.42825866125E+03  0.40000000000E+03 0.  1.
<mgrwt>
<rscale>  2 0.40616415E+03</rscale>
<asrwt>0</asrwt>
<pdfrwt beam="1">  1        1 0.10074642E+00 0.40616415E+03</pdfrwt>
<pdfrwt beam="2">  1       -1 0.39516669E-01 0.40616415E+03</pdfrwt>
<totfact> 0.19494119E+02</totfact>
</mgrwt>
</event>
<event>
 4    1  0.2454657E-002  0.4009552E+03  0.7818608E-02  0.1043449E+00
         -1   -1    0    0    0  501 -0.00000000000E+00  0.00000000000E+00  0.67443192574E+03  0.67443192574E+03  0.00000000000E+00 0. -1.
          1   -1    0    0  502    0  0.00000000000E+00 -0.00000000000E+00 -0.24719460902E+03  0.24719460902E+03  0.00000000000E+00 0.  1.
    9000007    1    1    2  502    0  0.23507161301E+02  0.14577396265E+02  0.12655721061E+03  0.42045429558E+03  0.40000000000E+03 0.  1.
   -9000007    1    1    2    0  501 -0.23507161301E+02 -0.14577396265E+02  0.30068010611E+03  0.50117223918E+03  0.40000000000E+03 0. -1.
<mgrwt>
<rscale>  2 0.40095522E+03</rscale>
<asrwt>0</asrwt>
<pdfrwt beam="1">  1        1 0.38029940E-01 0.40095522E+03</pdfrwt>
<pdfrwt beam="2">  1       -1 0.10375876E+00 0.40095522E+03</pdfrwt>
<totfact> 0.10313308E+02</totfact>
</mgrwt>
</event>
<event>
 4    1  0.2454657E-002  0.4588548E+03  0.7818608E-02  0.1025114E+00
         -3   -1    0    0    0  501 -0.00000000000E+00  0.00000000000E+00  0.14786909264E+03  0.14786909264E+03  0.00000000000E+00 0.  1.
          3   -1    0    0  502    0  0.00000000000E+00 -0.00000000000E+00 -0.14286223092E+04  0.14286223092E+04  0.00000000000E+00 0. -1.
    9000007    1    1    2  502    0  0.12114697559E+02  0.22450151808E+03 -0.68579618381E+03  0.82514489833E+03  0.40000000000E+03 0. -1.
   -9000007    1    1    2    0  501 -0.12114697559E+02 -0.22450151808E+03 -0.59495703280E+03  0.75134650355E+03  0.40000000000E+03 0.  1.
<mgrwt>
<rscale>  2 0.45885477E+03</rscale>
<asrwt>0</asrwt>
<pdfrwt beam="1">  1        3 0.21978804E+00 0.45885477E+03</pdfrwt>
<pdfrwt beam="2">  1       -3 0.22749092E-01 0.45885477E+03</pdfrwt>
<totfact> 0.53837938E+00</totfact>
</mgrwt>
</event>
<event>
 4    1  0.2454657E-002  0.4581559E+03  0.7818608E-02  0.1025317E+00
          2   -1    0    0  502    0  0.00000000000E+00  0.00000000000E+00  0.15893968528E+04  0.15893968528E+04  0.00000000000E+00 0. -1.
         -2   -1    0    0    0  501 -0.00000000000E+00 -0.00000000000E+00 -0.13568206940E+03  0.13568206940E+03  0.00000000000E+00 0.  1.
    9000007    1    1    2  502    0  0.17187515328E+03 -0.14270852879E+03  0.58606501218E+03  0.74389447572E+03  0.40000000000E+03 0.  1.
   -9000007    1    1    2    0  501 -0.17187515328E+03  0.14270852879E+03  0.86764977119E+03  0.98118444644E+03  0.40000000000E+03 0.  1.
<mgrwt>
<rscale>  2 0.45815586E+03</rscale>
<asrwt>0</asrwt>
<pdfrwt beam="1">  1        2 0.24452258E+00 0.45815586E+03</pdfrwt>
<pdfrwt beam="2">  1       -2 0.20874166E-01 0.45815586E+03</pdfrwt>
<totfact> 0.23358083E+02</totfact>
</mgrwt>
</event>
<event>
 4    1  0.2454657E-002  0.4113808E+03  0.7818608E-02  0.1039909E+00
          1   -1    0    0  502    0  0.00000000000E+00  0.00000000000E+00  0.14420726392E+04  0.14420726392E+04  0.00000000000E+00 0.  1.
         -1   -1    0    0    0  501 -0.00000000000E+00 -0.00000000000E+00 -0.11742768779E+03  0.11742768779E+03  0.00000000000E+00 0. -1.
    9000007    1    1    2  502    0  0.54036992576E+02 -0.79461509648E+02  0.64289416923E+03  0.76324769303E+03  0.40000000000E+03 0. -1.
   -9000007    1    1    2    0  501 -0.54036992576E+02  0.79461509648E+02  0.68175078220E+03  0.79625263397E+03  0.40000000000E+03 0. -1.
<mgrwt>
<rscale>  2 0.41138076E+03</rscale>
<asrwt>0</asrwt>
<pdfrwt beam="1">  1        1 0.22185732E+00 0.41138076E+03</pdfrwt>
<pdfrwt beam="2">  1       -1 0.18065799E-01 0.41138076E+03</pdfrwt>
<totfact> 0.18324336E+02</totfact>
</mgrwt>
</event>
<event>
 4    1  0.2454657E-002  0.4990993E+03  0.7818608E-02  0.1014014E+00
         -2   -1    0    0    0  501 -0.00000000000E+00  0.00000000000E+00  0.34407584920E+03  0.34407584920E+03  0.00000000000E+00 0. -1.
          2   -1    0    0  502    0  0.00000000000E+00 -0.00000000000E+00 -0.81692185920E+03  0.81692185920E+03  0.00000000000E+00 0.  1.
    9000007    1    1    2  502    0  0.23430950788E+03  0.18493004158E+03 -0.43223699881E+03  0.66024911125E+03  0.40000000000E+03 0.  1.
   -9000007    1    1    2    0  501 -0.23430950788E+03 -0.18493004158E+03 -0.40609011189E+02  0.50074859715E+03  0.40000000000E+03 0. -1.
<mgrwt>
<rscale>  2 0.49909925E+03</rscale>
<asrwt>0</asrwt>
<pdfrwt beam="1">  1        2 0.12568029E+00 0.49909925E+03</pdfrwt>
<pdfrwt beam="2">  1       -2 0.52934746E-01 0.49909925E+03</pdfrwt>
<totfact> 0.11631292E+02</totfact>
</mgrwt>
</event>
<event>
 4    1  0.2454657E-002  0.4440902E+03  0.7818608E-02  0.1029499E+00
         -2   -1    0    0    0  501 -0.00000000000E+00  0.00000000000E+00  0.13999920473E+04  0.13999920473E+04  0.00000000000E+00 0. -1.
          2   -1    0    0  502    0  0.00000000000E+00 -0.00000000000E+00 -0.14714539988E+03  0.14714539988E+03  0.00000000000E+00 0.  1.
    9000007    1    1    2  502    0 -0.48728715555E+02 -0.18665910526E+03  0.46666433562E+03  0.64419850313E+03  0.40000000000E+03 0.  1.
   -9000007    1    1    2    0  501  0.48728715555E+02  0.18665910526E+03  0.78618231177E+03  0.90293894402E+03  0.40000000000E+03 0. -1.
<mgrwt>
<rscale>  2 0.44409020E+03</rscale>
<asrwt>0</asrwt>
<pdfrwt beam="1">  1        2 0.22637755E-01 0.44409020E+03</pdfrwt>
<pdfrwt beam="2">  1       -2 0.21538338E+00 0.44409020E+03</pdfrwt>
<totfact> 0.27255155E+01</totfact>
</mgrwt>
</event>
<event>
 4    1  0.2454657E-002  0.1042335E+04  0.7818608E-02  0.9263294E-01
         -2   -1    0    0    0  501 -0.00000000000E+00  0.00000000000E+00  0.16067218278E+04  0.16067218278E+04  0.00000000000E+00 0. -1.
          2   -1    0    0  502    0  0.00000000000E+00 -0.00000000000E+00 -0.81068335316E+03  0.81068335316E+03  0.00000000000E+00 0.  1.
    9000007    1    1    2  502    0  0.96089613098E+03 -0.56044469130E+02  0.89032061066E+03  0.13708147748E+04  0.40000000000E+03 0. -1.
   -9000007    1    1    2    0  501 -0.96089613098E+03  0.56044469130E+02 -0.94282136021E+02  0.10465904061E+04  0.40000000000E+03 0.  1.
<mgrwt>
<rscale>  2 0.10423351E+04</rscale>
<asrwt>0</asrwt>
<pdfrwt beam="1">  1        2 0.12472052E+00 0.10423351E+04</pdfrwt>
<pdfrwt beam="2">  1       -2 0.24718797E+00 0.10423351E+04</pdfrwt>
<totfact> 0.22457307E+00</totfact>
</mgrwt>
</event>
<event>
 4    1  0.2454657E-002  0.5352883E+03  0.7818608E-02  0.1004958E+00
         -2   -1    0    0    0  501 -0.00000000000E+00  0.00000000000E+00  0.28728443286E+03  0.28728443286E+03  0.00000000000E+00 0.  1.
          2   -1    0    0  502    0  0.00000000000E+00 -0.00000000000E+00 -0.12112000373E+04  0.12112000373E+04  0.00000000000E+00 0. -1.
    9000007    1    1    2  502    0  0.68970040561E+02  0.34896521404E+03 -0.77675583577E+03  0.94333621552E+03  0.40000000000E+03 0. -1.
   -9000007    1    1    2    0  501 -0.68970040561E+02 -0.34896521404E+03 -0.14715976866E+03  0.55514825463E+03  0.40000000000E+03 0.  1.
<mgrwt>
<rscale>  2 0.53528832E+03</rscale>
<asrwt>0</asrwt>
<pdfrwt beam="1">  1        2 0.18633847E+00 0.53528832E+03</pdfrwt>
<pdfrwt beam="2">  1       -2 0.44197605E-01 0.53528832E+03</pdfrwt>
<totfact> 0.93899149E+01</totfact>
</mgrwt>
</event>
<event>
 4    1  0.2454657E-002  0.4508071E+03  0.7818608E-02  0.1027482E+00
          2   -1    0    0  502    0  0.00000000000E+00  0.00000000000E+00  0.52244794534E+03  0.52244794534E+03  0.00000000000E+00 0. -1.
         -2   -1    0    0    0  501 -0.00000000000E+00 -0.00000000000E+00 -0.73133452757E+03  0.73133452757E+03  0.00000000000E+00 0.  1.
    9000007    1    1    2  502    0 -0.28023151351E+02 -0.20601401727E+03 -0.53335292278E+03  0.69834977809E+03  0.40000000000E+03 0.  1.
   -9000007    1    1    2    0  501  0.28023151351E+02  0.20601401727E+03  0.32446634055E+03  0.55543269482E+03  0.40000000000E+03 0. -1.
<mgrwt>
<rscale>  2 0.45080713E+03</rscale>
<asrwt>0</asrwt>
<pdfrwt beam="1">  1        2 0.80376607E-01 0.45080713E+03</pdfrwt>
<pdfrwt beam="2">  1       -2 0.11251300E+00 0.45080713E+03</pdfrwt>
<totfact> 0.37869558E+01</totfact>
</mgrwt>
</event>
<event>
 4    1  0.2454657E-002  0.4946083E+03  0.7818608E-02  0.1015196E+00
          2   -1    0    0  502    0  0.00000000000E+00  0.00000000000E+00  0.13494050130E+04  0.13494050130E+04  0.00000000000E+00 0. -1.
         -2   -1    0    0    0  501 -0.00000000000E+00 -0.00000000000E+00 -0.18322467723E+03  0.18322467723E+03  0.00000000000E+00 0.  1.
    9000007    1    1    2  502    0 -0.29081037761E+03 -0.81696345347E+01  0.50440288309E+03  0.70644156667E+03  0.40000000000E+03 0. -1.
   -9000007    1    1    2    0  501  0.29081037761E+03  0.81696345347E+01  0.66177745273E+03  0.82618812361E+03  0.40000000000E+03 0. -1.
<mgrwt>
<rscale>  2 0.49460835E+03</rscale>
<asrwt>0</asrwt>
<pdfrwt beam="1">  1        2 0.20760076E+00 0.49460835E+03</pdfrwt>
<pdfrwt beam="2">  1       -2 0.28188413E-01 0.49460835E+03</pdfrwt>
<totfact> 0.18458394E+02</totfact>
</mgrwt>
</event>
<event>
 4    1  0.2454657E-002  0.4876430E+03  0.7818608E-02  0.1017056E+00
          2   -1    0    0  502    0  0.00000000000E+00  0.00000000000E+00  0.19572304848E+04  0.19572304848E+04  0.00000000000E+00 0. -1.
         -2   -1    0    0    0  501 -0.00000000000E+00 -0.00000000000E+00 -0.12475175234E+03  0.12475175234E+03  0.00000000000E+00 0.  1.
    9000007    1    1    2  502    0 -0.25501483921E+03 -0.11297404620E+03  0.74806940983E+03  0.89297454906E+03  0.40000000000E+03 0. -1.
   -9000007    1    1    2    0  501  0.25501483921E+03  0.11297404620E+03  0.10844093227E+04  0.11890076881E+04  0.40000000000E+03 0. -1.
<mgrwt>
<rscale>  2 0.48764301E+03</rscale>
<asrwt>0</asrwt>
<pdfrwt beam="1">  1        2 0.30111236E+00 0.48764301E+03</pdfrwt>
<pdfrwt beam="2">  1       -2 0.19192579E-01 0.48764301E+03</pdfrwt>
<totfact> 0.17068328E+02</totfact>
</mgrwt>
</event>
<event>
 4    1  0.2454657E-002  0.6129748E+03  0.7818608E-02  0.9878847E-01
         -2   -1    0    0    0  501 -0.00000000000E+00  0.00000000000E+00  0.15482588876E+04  0.15482588876E+04  0.00000000000E+00 0. -1.
          2   -1    0    0  502    0  0.00000000000E+00 -0.00000000000E+00 -0.36638144350E+03  0.36638144350E+03  0.00000000000E+00 0.  1.
    9000007    1    1    2  502    0  0.25471174809E+03  0.38840708526E+03  0.11471890652E+04  0.13006847773E+04  0.40000000000E+03 0. -1.
   -9000007    1    1    2    0  501 -0.25471174809E+03 -0.38840708526E+03  0.34688378941E+02  0.61395555387E+03  0.40000000000E+03 0.  1.
<mgrwt>
<rscale>  2 0.61297483E+03</rscale>
<asrwt>0</asrwt>
<pdfrwt beam="1">  1        2 0.56366377E-01 0.61297483E+03</pdfrwt>
<pdfrwt beam="2">  1       -2 0.23819367E+00 0.61297483E+03</pdfrwt>
<totfact> 0.69629259E+00</totfact>
</mgrwt>
</event>
<event>
 4    1  0.2454657E-002  0.4151764E+03  0.7818608E-02  0.1038648E+00
         -2   -1    0    0    0  501 -0.00000000000E+00  0.00000000000E+00  0.14989600953E+03  0.14989600953E+03  0.00000000000E+00 0.  1.
          2   -1    0    0  502    0  0.00000000000E+00 -0.00000000000E+00 -0.18242598436E+04  0.18242598436E+04  0.00000000000E+00 0. -1.
    9000007    1    1    2  502    0 -0.59102621432E+02  0.94225061764E+02 -0.23705801897E+03  0.47808784390E+03  0.40000000000E+03 0.  1.
   -9000007    1    1    2    0  501  0.59102621432E+02 -0.94225061764E+02 -0.14373058151E+04  0.14960680093E+04  0.40000000000E+03 0. -1.
<mgrwt>
<rscale>  2 0.41517645E+03</rscale>
<asrwt>0</asrwt>
<pdfrwt beam="1">  1        2 0.28065539E+00 0.41517645E+03</pdfrwt>
<pdfrwt beam="2">  1       -2 0.23060922E-01 0.41517645E+03</pdfrwt>
<totfact> 0.14756208E+02</totfact>
</mgrwt>
</event>
<event>
 4    1  0.2454657E-002  0.7533630E+03  0.7818608E-02  0.9630089E-01
          2   -1    0    0  502    0  0.00000000000E+00  0.00000000000E+00  0.34364050644E+04  0.34364050644E+04  0.00000000000E+00 0.  1.
         -2   -1    0    0    0  501 -0.00000000000E+00 -0.00000000000E+00 -0.16530413245E+03  0.16530413245E+03  0.00000000000E+00 0. -1.
    9000007    1    1    2  502    0  0.62553457445E+03  0.12752346397E+03  0.15823247099E+04  0.17525145436E+04  0.40000000000E+03 0.  1.
   -9000007    1    1    2    0  501 -0.62553457445E+03 -0.12752346397E+03  0.16887762220E+04  0.18491946532E+04  0.40000000000E+03 0. -1.
<mgrwt>
<rscale>  2 0.75336295E+03</rscale>
<asrwt>0</asrwt>
<pdfrwt beam="1">  1        2 0.52867765E+00 0.75336295E+03</pdfrwt>
<pdfrwt beam="2">  1       -2 0.25431407E-01 0.75336295E+03</pdfrwt>
<totfact> 0.13449070E+01</totfact>
</mgrwt>
</event>
<event>
 4    1  0.2454657E-002  0.1106236E+04  0.7818608E-02  0.9199135E-01
         -2   -1    0    0    0  501 -0.00000000000E+00  0.00000000000E+00  0.15409035991E+04  0.15409035991E+04  0.00000000000E+00 0.  1.
          2   -1    0    0  502    0  0.00000000000E+00 -0.00000000000E+00 -0.81763058443E+03  0.81763058443E+03  0.00000000000E+00 0. -1.
    9000007    1    1    2  502    0  0.80108896736E+03 -0.64962607902E+03  0.16192923070E+03  0.11180244416E+04  0.40000000000E+03 0.  1.
   -9000007    1    1    2    0  501 -0.80108896736E+03  0.64962607902E+03  0.56134378402E+03  0.12405097420E+04  0.40000000000E+03 0. -1.
<mgrwt>
<rscale>  2 0.11062358E+04</rscale>
<asrwt>0</asrwt>
<pdfrwt beam="1">  1        2 0.12578932E+00 0.11062358E+04</pdfrwt>
<pdfrwt beam="2">  1       -2 0.23706209E+00 0.11062358E+04</pdfrwt>
<totfact> 0.25447632E+00</totfact>
</mgrwt>
</event>
<event>
 4    1  0.2454657E-002  0.4480607E+03  0.7818608E-02  0.1028302E+00
          2   -1    0    0  502    0  0.00000000000E+00  0.00000000000E+00  0.12029675209E+04  0.12029675209E+04  0.00000000000E+00 0. -1.
         -2   -1    0    0    0  501 -0.00000000000E+00 -0.00000000000E+00 -0.17769743987E+03  0.17769743987E+03  0.00000000000E+00 0.  1.
    9000007    1    1    2  502    0  0.19556826840E+03  0.50114389579E+02  0.68291366220E+03  0.81677993956E+03  0.40000000000E+03 0.  1.
   -9000007    1    1    2    0  501 -0.19556826840E+03 -0.50114389579E+02  0.34235641885E+03  0.56388502124E+03  0.40000000000E+03 0.  1.
<mgrwt>
<rscale>  2 0.44806071E+03</rscale>
<asrwt>0</asrwt>
<pdfrwt beam="1">  1        2 0.18507192E+00 0.44806071E+03</pdfrwt>
<pdfrwt beam="2">  1       -2 0.27338068E-01 0.44806071E+03</pdfrwt>
<totfact> 0.23774952E+02</totfact>
</mgrwt>
</event>
<event>
 4    1  0.2454657E-002  0.4601848E+03  0.7818608E-02  0.1024728E+00
          2   -1    0    0  502    0  0.00000000000E+00  0.00000000000E+00  0.12226213303E+04  0.12226213303E+04  0.00000000000E+00 0. -1.
         -2   -1    0    0    0  501 -0.00000000000E+00 -0.00000000000E+00 -0.23474445205E+03  0.23474445205E+03  0.00000000000E+00 0.  1.
    9000007    1    1    2  502    0 -0.17997554366E+03 -0.13920808357E+03  0.12085968570E+03  0.47579107860E+03  0.40000000000E+03 0.  1.
   -9000007    1    1    2    0  501  0.17997554366E+03  0.13920808357E+03  0.86701719256E+03  0.98157470375E+03  0.40000000000E+03 0. -1.
<mgrwt>
<rscale>  2 0.46018484E+03</rscale>
<asrwt>0</asrwt>
<pdfrwt beam="1">  1        2 0.18809559E+00 0.46018484E+03</pdfrwt>
<pdfrwt beam="2">  1       -2 0.36114532E-01 0.46018484E+03</pdfrwt>
<totfact> 0.13798298E+02</totfact>
</mgrwt>
</event>
<event>
 4    1  0.2454657E-002  0.4181700E+03  0.7818608E-02  0.1037664E+00
          2   -1    0    0  502    0  0.00000000000E+00  0.00000000000E+00  0.32972649496E+03  0.32972649496E+03  0.00000000000E+00 0. -1.
         -2   -1    0    0    0  501 -0.00000000000E+00 -0.00000000000E+00 -0.69518656089E+03  0.69518656089E+03  0.00000000000E+00 0.  1.
    9000007    1    1    2  502    0  0.10119790472E+03  0.68008603720E+02 -0.43227576095E+03  0.60143870810E+03  0.40000000000E+03 0.  1.
   -9000007    1    1    2    0  501 -0.10119790472E+03 -0.68008603720E+02  0.66815695017E+02  0.42347434775E+03  0.40000000000E+03 0. -1.
<mgrwt>
<rscale>  2 0.41817004E+03</rscale>
<asrwt>0</asrwt>
<pdfrwt beam="1">  1        2 0.50727153E-01 0.41817004E+03</pdfrwt>
<pdfrwt beam="2">  1       -2 0.10695178E+00 0.41817004E+03</pdfrwt>
<totfact> 0.71784071E+01</totfact>
</mgrwt>
</event>
<event>
 4    1  0.2454657E-002  0.4887359E+03  0.7818608E-02  0.1016762E+00
         -2   -1    0    0    0  501 -0.00000000000E+00  0.00000000000E+00  0.36188408798E+03  0.36188408798E+03  0.00000000000E+00 0.  1.
          2   -1    0    0  502    0  0.00000000000E+00 -0.00000000000E+00 -0.82879577339E+03  0.82879577339E+03  0.00000000000E+00 0. -1.
    9000007    1    1    2  502    0 -0.70146538082E+02  0.27192315592E+03 -0.50208529156E+03  0.70067994087E+03  0.40000000000E+03 0. -1.
   -9000007    1    1    2    0  501  0.70146538082E+02 -0.27192315592E+03  0.35173606148E+02  0.48999992051E+03  0.40000000000E+03 0. -1.
<mgrwt>
<rscale>  2 0.48873586E+03</rscale>
<asrwt>0</asrwt>
<pdfrwt beam="1">  1        2 0.12750704E+00 0.48873586E+03</pdfrwt>
<pdfrwt beam="2">  1       -2 0.55674475E-01 0.48873586E+03</pdfrwt>
<totfact> 0.10296961E+02</totfact>
</mgrwt>
</event>
<event>
 4    1  0.2454657E-002  0.5224901E+03  0.7818608E-02  0.1008070E+00
          1   -1    0    0  502    0  0.00000000000E+00  0.00000000000E+00  0.94425232153E+03  0.94425232153E+03  0.00000000000E+00 0.  1.
         -1   -1    0    0    0  501 -0.00000000000E+00 -0.00000000000E+00 -0.30068425724E+03  0.30068425724E+03  0.00000000000E+00 0. -1.
    9000007    1    1    2  502    0  0.32360862266E+03 -0.90957780242E+02  0.19967509520E+03  0.55934426080E+03  0.40000000000E+03 0. -1.
   -9000007    1    1    2    0  501 -0.32360862266E+03  0.90957780242E+02  0.44389296909E+03  0.68559231796E+03  0.40000000000E+03 0.  1.
<mgrwt>
<rscale>  2 0.52249006E+03</rscale>
<asrwt>0</asrwt>
<pdfrwt beam="1">  1        1 0.14526959E+00 0.52249006E+03</pdfrwt>
<pdfrwt beam="2">  1       -1 0.46259117E-01 0.52249006E+03</pdfrwt>
<totfact> 0.81363370E+01</totfact>
</mgrwt>
</event>
<event>
 4    1  0.2454657E-002  0.4066199E+03  0.7818608E-02  0.1041511E+00
          2   -1    0    0  502    0  0.00000000000E+00  0.00000000000E+00  0.89694676235E+03  0.89694676235E+03  0.00000000000E+00 0. -1.
         -2   -1    0    0    0  501 -0.00000000000E+00 -0.00000000000E+00 -0.25744732177E+03  0.25744732177E+03  0.00000000000E+00 0.  1.
    9000007    1    1    2  502    0  0.72506432335E+02 -0.90871323375E+01  0.12160133718E+02  0.40680170545E+03  0.40000000000E+03 0.  1.
   -9000007    1    1    2    0  501 -0.72506432335E+02  0.90871323375E+01  0.62733930686E+03  0.74759237866E+03  0.40000000000E+03 0. -1.
<mgrwt>
<rscale>  2 0.40661992E+03</rscale>
<asrwt>0</asrwt>
<pdfrwt beam="1">  1        2 0.13799181E+00 0.40661992E+03</pdfrwt>
<pdfrwt beam="2">  1       -2 0.39607281E-01 0.40661992E+03</pdfrwt>
<totfact> 0.18419190E+02</totfact>
</mgrwt>
</event>
<event>
 4    1  0.2454657E-002  0.4464572E+03  0.7818608E-02  0.1028784E+00
          1   -1    0    0  502    0  0.00000000000E+00  0.00000000000E+00  0.10966337046E+04  0.10966337046E+04  0.00000000000E+00 0. -1.
         -1   -1    0    0    0  501 -0.00000000000E+00 -0.00000000000E+00 -0.18722180966E+03  0.18722180966E+03  0.00000000000E+00 0.  1.
    9000007    1    1    2  502    0 -0.12329452272E+03 -0.15531404855E+03  0.56434912754E+03  0.71959289238E+03  0.40000000000E+03 0. -1.
   -9000007    1    1    2    0  501  0.12329452272E+03  0.15531404855E+03  0.34506276740E+03  0.56426262188E+03  0.40000000000E+03 0.  1.
<mgrwt>
<rscale>  2 0.44645716E+03</rscale>
<asrwt>0</asrwt>
<pdfrwt beam="1">  1        1 0.16871287E+00 0.44645716E+03</pdfrwt>
<pdfrwt beam="2">  1       -1 0.28803356E-01 0.44645716E+03</pdfrwt>
<totfact> 0.14621738E+02</totfact>
</mgrwt>
</event>
<event>
 4    1  0.2454657E-002  0.4181091E+03  0.7818608E-02  0.1037683E+00
          2   -1    0    0  502    0  0.00000000000E+00  0.00000000000E+00  0.30979520370E+04  0.30979520370E+04  0.00000000000E+00 0.  1.
         -2   -1    0    0    0  501 -0.00000000000E+00 -0.00000000000E+00 -0.62189642666E+02  0.62189642666E+02  0.00000000000E+00 0. -1.
    9000007    1    1    2  502    0 -0.97007162187E+02 -0.73517656859E+02  0.10369952942E+04  0.11181120139E+04  0.40000000000E+03 0. -1.
   -9000007    1    1    2    0  501  0.97007162187E+02  0.73517656859E+02  0.19987671002E+04  0.20420296658E+04  0.40000000000E+03 0.  1.
<mgrwt>
<rscale>  2 0.41810912E+03</rscale>
<asrwt>0</asrwt>
<pdfrwt beam="1">  1        2 0.47660789E+00 0.41810912E+03</pdfrwt>
<pdfrwt beam="2">  1       -2 0.95676397E-02 0.41810912E+03</pdfrwt>
<totfact> 0.12462147E+02</totfact>
</mgrwt>
</event>
<event>
 4    1  0.2454657E-002  0.4222873E+03  0.7818608E-02  0.1036324E+00
         -1   -1    0    0    0  501 -0.00000000000E+00  0.00000000000E+00  0.24958123302E+03  0.24958123302E+03  0.00000000000E+00 0.  1.
          1   -1    0    0  502    0  0.00000000000E+00 -0.00000000000E+00 -0.73253846386E+03  0.73253846386E+03  0.00000000000E+00 0. -1.
    9000007    1    1    2  502    0  0.13270960420E+03  0.26735021805E+02 -0.31852990977E+03  0.52894981223E+03  0.40000000000E+03 0.  1.
   -9000007    1    1    2    0  501 -0.13270960420E+03 -0.26735021805E+02 -0.16442732108E+03  0.45316988465E+03  0.40000000000E+03 0.  1.
<mgrwt>
<rscale>  2 0.42228734E+03</rscale>
<asrwt>0</asrwt>
<pdfrwt beam="1">  1        1 0.11269822E+00 0.42228734E+03</pdfrwt>
<pdfrwt beam="2">  1       -1 0.38397114E-01 0.42228734E+03</pdfrwt>
<totfact> 0.17356140E+02</totfact>
</mgrwt>
</event>
<event>
 4    1  0.2454657E-002  0.4012916E+03  0.7818608E-02  0.1043333E+00
         -1   -1    0    0    0  501 -0.00000000000E+00  0.00000000000E+00  0.53177768197E+03  0.53177768197E+03  0.00000000000E+00 0. -1.
          1   -1    0    0  502    0  0.00000000000E+00 -0.00000000000E+00 -0.37993921661E+03  0.37993921661E+03  0.00000000000E+00 0.  1.
    9000007    1    1    2  502    0  0.12391783885E+01 -0.32146148908E+02 -0.12945393417E+03  0.42165534685E+03  0.40000000000E+03 0.  1.
   -9000007    1    1    2    0  501 -0.12391783885E+01  0.32146148908E+02  0.28129239953E+03  0.49006155173E+03  0.40000000000E+03 0. -1.
<mgrwt>
<rscale>  2 0.40129155E+03</rscale>
<asrwt>0</asrwt>
<pdfrwt beam="1">  1        1 0.58452187E-01 0.40129155E+03</pdfrwt>
<pdfrwt beam="2">  1       -1 0.81811951E-01 0.40129155E+03</pdfrwt>
<totfact> 0.10011043E+02</totfact>
</mgrwt>
</event>
<event>
 4    1  0.2454657E-002  0.4201671E+03  0.7818608E-02  0.1037012E+00
          2   -1    0    0  502    0  0.00000000000E+00  0.00000000000E+00  0.14007146394E+04  0.14007146394E+04  0.00000000000E+00 0. -1.
         -2   -1    0    0    0  501 -0.00000000000E+00 -0.00000000000E+00 -0.14747501357E+03  0.14747501357E+03  0.00000000000E+00 0.  1.
    9000007    1    1    2  502    0 -0.40265799335E+02 -0.12214357325E+03  0.92176652105E+03  0.10130122933E+04  0.40000000000E+03 0. -1.
   -9000007    1    1    2    0  501  0.40265799335E+02  0.12214357325E+03  0.33147310473E+03  0.53517735961E+03  0.40000000000E+03 0.  1.
<mgrwt>
<rscale>  2 0.42016709E+03</rscale>
<asrwt>0</asrwt>
<pdfrwt beam="1">  1        2 0.21549455E+00 0.42016709E+03</pdfrwt>
<pdfrwt beam="2">  1       -2 0.22688465E-01 0.42016709E+03</pdfrwt>
<totfact> 0.25714424E+02</totfact>
</mgrwt>
</event>
<event>
 4    1  0.2454657E-002  0.6012325E+03  0.7818608E-02  0.9902852E-01
          2   -1    0    0  502    0  0.00000000000E+00  0.00000000000E+00  0.12289114076E+04  0.12289114076E+04  0.00000000000E+00 0.  1.
         -2   -1    0    0    0  501 -0.00000000000E+00 -0.00000000000E+00 -0.47170076965E+03  0.47170076965E+03  0.00000000000E+00 0. -1.
    9000007    1    1    2  502    0  0.17129486469E+03 -0.41489589721E+03 -0.14307807463E+03  0.61802254945E+03  0.40000000000E+03 0. -1.
   -9000007    1    1    2    0  501 -0.17129486469E+03  0.41489589721E+03  0.90028871255E+03  0.10825896278E+04  0.40000000000E+03 0.  1.
<mgrwt>
<rscale>  2 0.60123251E+03</rscale>
<asrwt>0</asrwt>
<pdfrwt beam="1">  1        2 0.18906329E+00 0.60123251E+03</pdfrwt>
<pdfrwt beam="2">  1       -2 0.72569349E-01 0.60123251E+03</pdfrwt>
<totfact> 0.32413192E+01</totfact>
</mgrwt>
</event>
<event>
 4    1  0.2454657E-002  0.4427478E+03  0.7818608E-02  0.1029907E+00
         -2   -1    0    0    0  501 -0.00000000000E+00  0.00000000000E+00  0.64987939263E+03  0.64987939263E+03  0.00000000000E+00 0.  1.
          2   -1    0    0  502    0  0.00000000000E+00 -0.00000000000E+00 -0.30628594660E+03  0.30628594660E+03  0.00000000000E+00 0. -1.
    9000007    1    1    2  502    0  0.10533979020E+03  0.15788976516E+03  0.11287682953E+03  0.45691008742E+03  0.40000000000E+03 0. -1.
   -9000007    1    1    2    0  501 -0.10533979020E+03 -0.15788976516E+03  0.23071661650E+03  0.49925525182E+03  0.40000000000E+03 0.  1.
<mgrwt>
<rscale>  2 0.44274784E+03</rscale>
<asrwt>0</asrwt>
<pdfrwt beam="1">  1        2 0.47120915E-01 0.44274784E+03</pdfrwt>
<pdfrwt beam="2">  1       -2 0.99981445E-01 0.44274784E+03</pdfrwt>
<totfact> 0.91141560E+01</totfact>
</mgrwt>
</event>
<event>
 4    1  0.2454657E-002  0.6445045E+03  0.7818608E-02  0.9817146E-01
         -2   -1    0    0    0  501 -0.00000000000E+00  0.00000000000E+00  0.43810171523E+03  0.43810171523E+03  0.00000000000E+00 0.  1.
          2   -1    0    0  502    0  0.00000000000E+00 -0.00000000000E+00 -0.99903558110E+03  0.99903558110E+03  0.00000000000E+00 0. -1.
    9000007    1    1    2  502    0 -0.28459025665E+03 -0.41760555280E+03 -0.44263913583E+03  0.78186662320E+03  0.40000000000E+03 0. -1.
   -9000007    1    1    2    0  501  0.28459025665E+03  0.41760555280E+03 -0.11829473003E+03  0.65527067313E+03  0.40000000000E+03 0.  1.
<mgrwt>
<rscale>  2 0.64450447E+03</rscale>
<asrwt>0</asrwt>
<pdfrwt beam="1">  1        2 0.15369778E+00 0.64450447E+03</pdfrwt>
<pdfrwt beam="2">  1       -2 0.67400264E-01 0.64450447E+03</pdfrwt>
<totfact> 0.52212257E+01</totfact>
</mgrwt>
</event>
<event>
 4    1  0.2454657E-002  0.4124337E+03  0.7818608E-02  0.1039557E+00
         -1   -1    0    0    0  501 -0.00000000000E+00  0.00000000000E+00  0.39067226457E+03  0.39067226457E+03  0.00000000000E+00 0.  1.
          1   -1    0    0  502    0  0.00000000000E+00 -0.00000000000E+00 -0.47870336630E+03  0.47870336630E+03  0.00000000000E+00 0. -1.
    9000007    1    1    2  502    0 -0.45205872012E+02  0.89766454265E+02  0.86712276837E+02  0.42145059750E+03  0.40000000000E+03 0.  1.
   -9000007    1    1    2    0  501  0.45205872012E+02 -0.89766454265E+02 -0.17474337856E+03  0.44792503338E+03  0.40000000000E+03 0. -1.
<mgrwt>
<rscale>  2 0.41243374E+03</rscale>
<asrwt>0</asrwt>
<pdfrwt beam="1">  1        1 0.73646672E-01 0.41243374E+03</pdfrwt>
<pdfrwt beam="2">  1       -1 0.60103425E-01 0.41243374E+03</pdfrwt>
<totfact> 0.13774075E+02</totfact>
</mgrwt>
</event>
<event>
 4    1  0.2454657E-002  0.4276477E+03  0.7818608E-02  0.1034606E+00
          2   -1    0    0  502    0  0.00000000000E+00  0.00000000000E+00  0.82557738943E+03  0.82557738943E+03  0.00000000000E+00 0.  1.
         -2   -1    0    0    0  501 -0.00000000000E+00 -0.00000000000E+00 -0.22162077922E+03  0.22162077922E+03  0.00000000000E+00 0. -1.
    9000007    1    1    2  502    0  0.13144994806E+03  0.74856260877E+02  0.31310044387E+03  0.53001361925E+03  0.40000000000E+03 0. -1.
   -9000007    1    1    2    0  501 -0.13144994806E+03 -0.74856260877E+02  0.29085616633E+03  0.51718454939E+03  0.40000000000E+03 0.  1.
<mgrwt>
<rscale>  2 0.42764769E+03</rscale>
<asrwt>0</asrwt>
<pdfrwt beam="1">  1        2 0.12701190E+00 0.42764769E+03</pdfrwt>
<pdfrwt beam="2">  1       -2 0.34095505E-01 0.42764769E+03</pdfrwt>
<totfact> 0.27321030E+02</totfact>
</mgrwt>
</event>
<event>
 4    1  0.2454657E-002  0.4372672E+03  0.7818608E-02  0.1031589E+00
          2   -1    0    0  502    0  0.00000000000E+00  0.00000000000E+00  0.17678646327E+04  0.17678646327E+04  0.00000000000E+00 0. -1.
         -2   -1    0    0    0  501 -0.00000000000E+00 -0.00000000000E+00 -0.11394012536E+03  0.11394012536E+03  0.00000000000E+00 0.  1.
    9000007    1    1    2  502    0  0.11643554024E+02  0.17625839613E+03  0.10389836519E+04  0.11272486964E+04  0.40000000000E+03 0. -1.
   -9000007    1    1    2    0  501 -0.11643554024E+02 -0.17625839613E+03  0.61494085547E+03  0.75455606173E+03  0.40000000000E+03 0.  1.
<mgrwt>
<rscale>  2 0.43726719E+03</rscale>
<asrwt>0</asrwt>
<pdfrwt beam="1">  1        2 0.27197916E+00 0.43726719E+03</pdfrwt>
<pdfrwt beam="2">  1       -2 0.17529251E-01 0.43726719E+03</pdfrwt>
<totfact> 0.25367799E+02</totfact>
</mgrwt>
</event>
<event>
 4    1  0.2454657E-002  0.4161731E+03  0.7818608E-02  0.1038319E+00
          1   -1    0    0  502    0  0.00000000000E+00  0.00000000000E+00  0.45690159761E+03  0.45690159761E+03  0.00000000000E+00 0.  1.
         -1   -1    0    0    0  501 -0.00000000000E+00 -0.00000000000E+00 -0.40763938180E+03  0.40763938180E+03  0.00000000000E+00 0. -1.
    9000007    1    1    2  502    0 -0.69295837081E+02 -0.91641237887E+02  0.13905823574E+03  0.43879063623E+03  0.40000000000E+03 0.  1.
   -9000007    1    1    2    0  501  0.69295837081E+02  0.91641237887E+02 -0.89796019926E+02  0.42575034317E+03  0.40000000000E+03 0. -1.
<mgrwt>
<rscale>  2 0.41617308E+03</rscale>
<asrwt>0</asrwt>
<pdfrwt beam="1">  1        1 0.70292553E-01 0.41617308E+03</pdfrwt>
<pdfrwt beam="2">  1       -1 0.62713751E-01 0.41617308E+03</pdfrwt>
<totfact> 0.13482207E+02</totfact>
</mgrwt>
</event>
<event>
 4    1  0.2454657E-002  0.4384040E+03  0.7818608E-02  0.1031238E+00
          2   -1    0    0  502    0  0.00000000000E+00  0.00000000000E+00  0.98972532810E+03  0.98972532810E+03  0.00000000000E+00 0.  1.
         -2   -1    0    0    0  501 -0.00000000000E+00 -0.00000000000E+00 -0.20601160636E+03  0.20601160636E+03  0.00000000000E+00 0. -1.
    9000007    1    1    2  502    0  0.12805417791E+03 -0.12569884068E+03  0.53505475097E+03  0.69172368585E+03  0.40000000000E+03 0.  1.
   -9000007    1    1    2    0  501 -0.12805417791E+03  0.12569884068E+03  0.24865897077E+03  0.50401324861E+03  0.40000000000E+03 0.  1.
<mgrwt>
<rscale>  2 0.43840400E+03</rscale>
<asrwt>0</asrwt>
<pdfrwt beam="1">  1        2 0.15226543E+00 0.43840400E+03</pdfrwt>
<pdfrwt beam="2">  1       -2 0.31694094E-01 0.43840400E+03</pdfrwt>
<totfact> 0.24391322E+02</totfact>
</mgrwt>
</event>
<event>
 4    1  0.2454657E-002  0.4130459E+03  0.7818608E-02  0.1039354E+00
         -2   -1    0    0    0  501 -0.00000000000E+00  0.00000000000E+00  0.97651492326E+02  0.97651492326E+02  0.00000000000E+00 0.  1.
          2   -1    0    0  502    0  0.00000000000E+00 -0.00000000000E+00 -0.21997083763E+04  0.21997083763E+04  0.00000000000E+00 0. -1.
    9000007    1    1    2  502    0  0.66272028865E+02  0.78834864150E+02 -0.52998036590E+03  0.67192715815E+03  0.40000000000E+03 0.  1.
   -9000007    1    1    2    0  501 -0.66272028865E+02 -0.78834864150E+02 -0.15720765181E+04  0.16254327105E+04  0.40000000000E+03 0. -1.
<mgrwt>
<rscale>  2 0.41304590E+03</rscale>
<asrwt>0</asrwt>
<pdfrwt beam="1">  1        2 0.33841666E+00 0.41304590E+03</pdfrwt>
<pdfrwt beam="2">  1       -2 0.15023307E-01 0.41304590E+03</pdfrwt>
<totfact> 0.19387333E+02</totfact>
</mgrwt>
</event>
<event>
 4    1  0.2454657E-002  0.4915234E+03  0.7818608E-02  0.1016015E+00
          1   -1    0    0  502    0  0.00000000000E+00  0.00000000000E+00  0.77600249957E+03  0.77600249957E+03  0.00000000000E+00 0.  1.
         -1   -1    0    0    0  501 -0.00000000000E+00 -0.00000000000E+00 -0.37831407619E+03  0.37831407619E+03  0.00000000000E+00 0. -1.
    9000007    1    1    2  502    0  0.28561981370E+03 -0.40705779999E+01 -0.44009357255E+02  0.49348968693E+03  0.40000000000E+03 0. -1.
   -9000007    1    1    2    0  501 -0.28561981370E+03  0.40705779999E+01  0.44169778063E+03  0.66082688883E+03  0.40000000000E+03 0.  1.
<mgrwt>
<rscale>  2 0.49152339E+03</rscale>
<asrwt>0</asrwt>
<pdfrwt beam="1">  1        1 0.11938500E+00 0.49152339E+03</pdfrwt>
<pdfrwt beam="2">  1       -1 0.58202166E-01 0.49152339E+03</pdfrwt>
<totfact> 0.72761245E+01</totfact>
</mgrwt>
</event>
<event>
 4    1  0.2454657E-002  0.4336142E+03  0.7818608E-02  0.1032724E+00
         -1   -1    0    0    0  501 -0.00000000000E+00  0.00000000000E+00  0.51357085354E+03  0.51357085354E+03  0.00000000000E+00 0.  1.
          1   -1    0    0  502    0  0.00000000000E+00 -0.00000000000E+00 -0.38246960841E+03  0.38246960841E+03  0.00000000000E+00 0. -1.
    9000007    1    1    2  502    0 -0.91023774888E+01  0.16714785754E+03  0.15822113750E+03  0.46157901589E+03  0.40000000000E+03 0.  1.
   -9000007    1    1    2    0  501  0.91023774888E+01 -0.16714785754E+03 -0.27119892369E+02  0.43446144607E+03  0.40000000000E+03 0. -1.
<mgrwt>
<rscale>  2 0.43361418E+03</rscale>
<asrwt>0</asrwt>
<pdfrwt beam="1">  1        1 0.58841478E-01 0.43361418E+03</pdfrwt>
<pdfrwt beam="2">  1       -1 0.79010900E-01 0.43361418E+03</pdfrwt>
<totfact> 0.10640894E+02</totfact>
</mgrwt>
</event>
<event>
 4    1  0.2454657E-002  0.4501363E+03  0.7818608E-02  0.1027681E+00
          1   -1    0    0  502    0  0.00000000000E+00  0.00000000000E+00  0.30219522294E+03  0.30219522294E+03  0.00000000000E+00 0.  1.
         -1   -1    0    0    0  501 -0.00000000000E+00 -0.00000000000E+00 -0.72054666091E+03  0.72054666091E+03  0.00000000000E+00 0. -1.
    9000007    1    1    2  502    0 -0.19895029428E+03 -0.55149571153E+02 -0.74409485894E+02  0.45624496313E+03  0.40000000000E+03 0.  1.
   -9000007    1    1    2    0  501  0.19895029428E+03  0.55149571153E+02 -0.34394195207E+03  0.56649692072E+03  0.40000000000E+03 0. -1.
<mgrwt>
<rscale>  2 0.45013631E+03</rscale>
<asrwt>0</asrwt>
<pdfrwt beam="1">  1        1 0.46491574E-01 0.45013631E+03</pdfrwt>
<pdfrwt beam="2">  1       -1 0.11085333E+00 0.45013631E+03</pdfrwt>
<totfact> 0.68103865E+01</totfact>
</mgrwt>
</event>
<event>
 4    1  0.2454657E-002  0.4128419E+03  0.7818608E-02  0.1039422E+00
         -1   -1    0    0    0  501 -0.00000000000E+00  0.00000000000E+00  0.93660349659E+03  0.93660349659E+03  0.00000000000E+00 0.  1.
          1   -1    0    0  502    0  0.00000000000E+00 -0.00000000000E+00 -0.18208044033E+03  0.18208044033E+03  0.00000000000E+00 0. -1.
    9000007    1    1    2  502    0 -0.99798401337E+02  0.21879593279E+02  0.39072054937E+03  0.56841972627E+03  0.40000000000E+03 0. -1.
   -9000007    1    1    2    0  501  0.99798401337E+02 -0.21879593279E+02  0.36380250689E+03  0.55026421066E+03  0.40000000000E+03 0. -1.
<mgrwt>
<rscale>  2 0.41284190E+03</rscale>
<asrwt>0</asrwt>
<pdfrwt beam="1">  1        1 0.28012376E-01 0.41284190E+03</pdfrwt>
<pdfrwt beam="2">  1       -1 0.14409284E+00 0.41284190E+03</pdfrwt>
<totfact> 0.68529105E+01</totfact>
</mgrwt>
</event>
<event>
 4    1  0.2454657E-002  0.4056439E+03  0.7818608E-02  0.1041843E+00
         -2   -1    0    0    0  501 -0.00000000000E+00  0.00000000000E+00  0.17838986465E+03  0.17838986465E+03  0.00000000000E+00 0.  1.
          2   -1    0    0  502    0  0.00000000000E+00 -0.00000000000E+00 -0.94211130110E+03  0.94211130110E+03  0.00000000000E+00 0. -1.
    9000007    1    1    2  502    0  0.63633544883E+02 -0.22309531881E+02 -0.30082421387E+03  0.50501698080E+03  0.40000000000E+03 0.  1.
   -9000007    1    1    2    0  501 -0.63633544883E+02  0.22309531881E+02 -0.46289722258E+03  0.61548418495E+03  0.40000000000E+03 0.  1.
<mgrwt>
<rscale>  2 0.40564386E+03</rscale>
<asrwt>0</asrwt>
<pdfrwt beam="1">  1        2 0.14494020E+00 0.40564386E+03</pdfrwt>
<pdfrwt beam="2">  1       -2 0.27444595E-01 0.40564386E+03</pdfrwt>
<totfact> 0.34146718E+02</totfact>
</mgrwt>
</event>
<event>
 4    1  0.2454657E-002  0.7764125E+03  0.7818608E-02  0.9594801E-01
          2   -1    0    0  502    0  0.00000000000E+00  0.00000000000E+00  0.27363284316E+04  0.27363284316E+04  0.00000000000E+00 0.  1.
         -2   -1    0    0    0  501 -0.00000000000E+00 -0.00000000000E+00 -0.23080710001E+03  0.23080710001E+03  0.00000000000E+00 0. -1.
    9000007    1    1    2  502    0 -0.24736549856E+03 -0.61775942598E+03  0.93624170496E+03  0.12162914652E+04  0.40000000000E+03 0. -1.
   -9000007    1    1    2    0  501  0.24736549856E+03  0.61775942598E+03  0.15692796267E+04  0.17508440664E+04  0.40000000000E+03 0.  1.
<mgrwt>
<rscale>  2 0.77641252E+03</rscale>
<asrwt>0</asrwt>
<pdfrwt beam="1">  1        2 0.42097358E+00 0.77641252E+03</pdfrwt>
<pdfrwt beam="2">  1       -2 0.35508786E-01 0.77641252E+03</pdfrwt>
<totfact> 0.19717259E+01</totfact>
</mgrwt>
</event>
<event>
 4    1  0.2454657E-002  0.4071440E+03  0.7818608E-02  0.1041334E+00
          1   -1    0    0  502    0  0.00000000000E+00  0.00000000000E+00  0.28112136361E+03  0.28112136361E+03  0.00000000000E+00 0.  1.
         -1   -1    0    0    0  501 -0.00000000000E+00 -0.00000000000E+00 -0.93008327791E+03  0.93008327791E+03  0.00000000000E+00 0. -1.
    9000007    1    1    2  502    0  0.42787351085E+02  0.62733712251E+02  0.41902337493E+02  0.40929461510E+03  0.40000000000E+03 0.  1.
   -9000007    1    1    2    0  501 -0.42787351085E+02 -0.62733712251E+02 -0.69086425179E+03  0.80191002641E+03  0.40000000000E+03 0. -1.
<mgrwt>
<rscale>  2 0.40714405E+03</rscale>
<asrwt>0</asrwt>
<pdfrwt beam="1">  1        1 0.43249440E-01 0.40714405E+03</pdfrwt>
<pdfrwt beam="2">  1       -1 0.14308974E+00 0.40714405E+03</pdfrwt>
<totfact> 0.40089123E+01</totfact>
</mgrwt>
</event>
<event>
 4    1  0.2454657E-002  0.5241640E+03  0.7818608E-02  0.1007657E+00
          1   -1    0    0  502    0  0.00000000000E+00  0.00000000000E+00  0.11139165717E+04  0.11139165717E+04  0.00000000000E+00 0. -1.
         -1   -1    0    0    0  501 -0.00000000000E+00 -0.00000000000E+00 -0.24716088678E+03  0.24716088678E+03  0.00000000000E+00 0.  1.
    9000007    1    1    2  502    0  0.33813460657E+03  0.20319379725E+02  0.40244746302E+03  0.66084177369E+03  0.40000000000E+03 0. -1.
   -9000007    1    1    2    0  501 -0.33813460657E+03 -0.20319379725E+02  0.46430822195E+03  0.70023568484E+03  0.40000000000E+03 0. -1.
<mgrwt>
<rscale>  2 0.52416399E+03</rscale>
<asrwt>0</asrwt>
<pdfrwt beam="1">  1        1 0.17137178E+00 0.52416399E+03</pdfrwt>
<pdfrwt beam="2">  1       -1 0.38024752E-01 0.52416399E+03</pdfrwt>
<totfact> 0.86433245E+01</totfact>
</mgrwt>
</event>
<event>
 4    1  0.2454657E-002  0.4328119E+03  0.7818608E-02  0.1032975E+00
          2   -1    0    0  502    0  0.00000000000E+00  0.00000000000E+00  0.43945750702E+03  0.43945750702E+03  0.00000000000E+00 0.  1.
         -2   -1    0    0    0  501 -0.00000000000E+00 -0.00000000000E+00 -0.63866038155E+03  0.63866038155E+03  0.00000000000E+00 0. -1.
    9000007    1    1    2  502    0 -0.16408034657E+03 -0.20093853297E+02 -0.41046657053E+03  0.59649721592E+03  0.40000000000E+03 0. -1.
   -9000007    1    1    2    0  501  0.16408034657E+03  0.20093853297E+02  0.21126369600E+03  0.48162067265E+03  0.40000000000E+03 0.  1.
<mgrwt>
<rscale>  2 0.43281188E+03</rscale>
<asrwt>0</asrwt>
<pdfrwt beam="1">  1        2 0.67608847E-01 0.43281188E+03</pdfrwt>
<pdfrwt beam="2">  1       -2 0.98255444E-01 0.43281188E+03</pdfrwt>
<totfact> 0.63748984E+01</totfact>
</mgrwt>
</event>
<event>
 4    1  0.2454657E-002  0.4592623E+03  0.7818608E-02  0.1024995E+00
         -1   -1    0    0    0  501 -0.00000000000E+00  0.00000000000E+00  0.32481273534E+03  0.32481273534E+03  0.00000000000E+00 0.  1.
          1   -1    0    0  502    0  0.00000000000E+00 -0.00000000000E+00 -0.84038353399E+03  0.84038353399E+03  0.00000000000E+00 0. -1.
    9000007    1    1    2  502    0 -0.22141517326E+03  0.43556525062E+02 -0.53554474381E+03  0.70549983873E+03  0.40000000000E+03 0. -1.
   -9000007    1    1    2    0  501  0.22141517326E+03 -0.43556525062E+02  0.19973945160E+02  0.45969643060E+03  0.40000000000E+03 0.  1.
<mgrwt>
<rscale>  2 0.45926229E+03</rscale>
<asrwt>0</asrwt>
<pdfrwt beam="1">  1        1 0.12928977E+00 0.45926229E+03</pdfrwt>
<pdfrwt beam="2">  1       -1 0.49971190E-01 0.45926229E+03</pdfrwt>
<totfact> 0.86156686E+01</totfact>
</mgrwt>
</event>
<event>
 4    1  0.2454657E-002  0.4140235E+03  0.7818608E-02  0.1039029E+00
          1   -1    0    0  502    0  0.00000000000E+00  0.00000000000E+00  0.19152071173E+03  0.19152071173E+03  0.00000000000E+00 0. -1.
         -1   -1    0    0    0  501 -0.00000000000E+00 -0.00000000000E+00 -0.10928609636E+04  0.10928609636E+04  0.00000000000E+00 0.  1.
    9000007    1    1    2  502    0 -0.60525202466E+02  0.88046500779E+02 -0.17743520106E+03  0.45044282324E+03  0.40000000000E+03 0. -1.
   -9000007    1    1    2    0  501  0.60525202466E+02 -0.88046500779E+02 -0.72390505077E+03  0.83393885205E+03  0.40000000000E+03 0.  1.
<mgrwt>
<rscale>  2 0.41402353E+03</rscale>
<asrwt>0</asrwt>
<pdfrwt beam="1">  1        1 0.29464726E-01 0.41402353E+03</pdfrwt>
<pdfrwt beam="2">  1       -1 0.16813245E+00 0.41402353E+03</pdfrwt>
<totfact> 0.42306950E+01</totfact>
</mgrwt>
</event>
<event>
 4    1  0.2454657E-002  0.4416312E+03  0.7818608E-02  0.1030248E+00
          2   -1    0    0  502    0  0.00000000000E+00  0.00000000000E+00  0.23431579038E+04  0.23431579038E+04  0.00000000000E+00 0.  1.
         -2   -1    0    0    0  501 -0.00000000000E+00 -0.00000000000E+00 -0.83743157779E+02  0.83743157779E+02  0.00000000000E+00 0. -1.
    9000007    1    1    2  502    0 -0.18522206407E+03  0.27034944223E+02  0.10353950919E+04  0.11256469684E+04  0.40000000000E+03 0. -1.
   -9000007    1    1    2    0  501  0.18522206407E+03 -0.27034944223E+02  0.12240196541E+04  0.13012540931E+04  0.40000000000E+03 0.  1.
<mgrwt>
<rscale>  2 0.44163118E+03</rscale>
<asrwt>0</asrwt>
<pdfrwt beam="1">  1        2 0.36048578E+00 0.44163118E+03</pdfrwt>
<pdfrwt beam="2">  1       -2 0.12883565E-01 0.44163118E+03</pdfrwt>
<totfact> 0.20808878E+02</totfact>
</mgrwt>
</event>
<event>
 4    1  0.2454657E-002  0.4877557E+03  0.7818608E-02  0.1017025E+00
         -2   -1    0    0    0  501 -0.00000000000E+00  0.00000000000E+00  0.12817051312E+03  0.12817051312E+03  0.00000000000E+00 0.  1.
          2   -1    0    0  502    0  0.00000000000E+00 -0.00000000000E+00 -0.18814205657E+04  0.18814205657E+04  0.00000000000E+00 0. -1.
    9000007    1    1    2  502    0 -0.25542076793E+03 -0.11254284146E+03 -0.99304048777E+03  0.11063611843E+04  0.40000000000E+03 0. -1.
   -9000007    1    1    2    0  501  0.25542076793E+03  0.11254284146E+03 -0.76020956476E+03  0.90322989444E+03  0.40000000000E+03 0.  1.
<mgrwt>
<rscale>  2 0.48775574E+03</rscale>
<asrwt>0</asrwt>
<pdfrwt beam="1">  1        2 0.28944932E+00 0.48775574E+03</pdfrwt>
<pdfrwt beam="2">  1       -2 0.19718541E-01 0.48775574E+03</pdfrwt>
<totfact> 0.17888705E+02</totfact>
</mgrwt>
</event>
<event>
 4    1  0.2454657E-002  0.4074461E+03  0.7818608E-02  0.1041231E+00
         -2   -1    0    0    0  501 -0.00000000000E+00  0.00000000000E+00  0.13719824176E+03  0.13719824176E+03  0.00000000000E+00 0.  1.
          2   -1    0    0  502    0  0.00000000000E+00 -0.00000000000E+00 -0.19825511455E+04  0.19825511455E+04  0.00000000000E+00 0. -1.
    9000007    1    1    2  502    0 -0.65350113466E+02  0.41733876217E+02 -0.26106828148E+03  0.48391011702E+03  0.40000000000E+03 0.  1.
   -9000007    1    1    2    0  501  0.65350113466E+02 -0.41733876217E+02 -0.15842846223E+04  0.16358392703E+04  0.40000000000E+03 0. -1.
<mgrwt>
<rscale>  2 0.40744614E+03</rscale>
<asrwt>0</asrwt>
<pdfrwt beam="1">  1        2 0.30500786E+00 0.40744614E+03</pdfrwt>
<pdfrwt beam="2">  1       -2 0.21107422E-01 0.40744614E+03</pdfrwt>
<totfact> 0.14206381E+02</totfact>
</mgrwt>
</event>
<event>
 4    1  0.2454657E-002  0.8126542E+03  0.7818608E-02  0.9541879E-01
          1   -1    0    0  502    0  0.00000000000E+00  0.00000000000E+00  0.12140978029E+04  0.12140978029E+04  0.00000000000E+00 0. -1.
         -1   -1    0    0    0  501 -0.00000000000E+00 -0.00000000000E+00 -0.88588529808E+03  0.88588529808E+03  0.00000000000E+00 0.  1.
    9000007    1    1    2  502    0  0.20895020912E+00 -0.70739433014E+03 -0.48822761030E+03  0.94803638192E+03  0.40000000000E+03 0.  1.
   -9000007    1    1    2    0  501 -0.20895020912E+00  0.70739433014E+03  0.81644011514E+03  0.11519467191E+04  0.40000000000E+03 0. -1.
<mgrwt>
<rscale>  2 0.81265416E+03</rscale>
<asrwt>0</asrwt>
<pdfrwt beam="1">  1        1 0.18678428E+00 0.81265416E+03</pdfrwt>
<pdfrwt beam="2">  1       -1 0.13629005E+00 0.81265416E+03</pdfrwt>
<totfact> 0.48246622E+00</totfact>
</mgrwt>
</event>
<event>
 4    1  0.2454657E-002  0.6334150E+03  0.7818608E-02  0.9838407E-01
          2   -1    0    0  502    0  0.00000000000E+00  0.00000000000E+00  0.29069919388E+03  0.29069919388E+03  0.00000000000E+00 0.  1.
         -2   -1    0    0    0  501 -0.00000000000E+00 -0.00000000000E+00 -0.13964010780E+04  0.13964010780E+04  0.00000000000E+00 0. -1.
    9000007    1    1    2  502    0 -0.33170586557E+03  0.36219576799E+03 -0.46190820380E+03  0.78394753928E+03  0.40000000000E+03 0.  1.
   -9000007    1    1    2    0  501  0.33170586557E+03 -0.36219576799E+03 -0.64379368034E+03  0.90315273262E+03  0.40000000000E+03 0. -1.
<mgrwt>
<rscale>  2 0.63341499E+03</rscale>
<asrwt>0</asrwt>
<pdfrwt beam="1">  1        2 0.44722952E-01 0.63341499E+03</pdfrwt>
<pdfrwt beam="2">  1       -2 0.21483094E+00 0.63341499E+03</pdfrwt>
<totfact> 0.12516365E+01</totfact>
</mgrwt>
</event>
<event>
 4    1  0.2454657E-002  0.4019761E+03  0.7818608E-02  0.1043098E+00
         -1   -1    0    0    0  501 -0.00000000000E+00  0.00000000000E+00  0.11351042981E+04  0.11351042981E+04  0.00000000000E+00 0. -1.
          1   -1    0    0  502    0  0.00000000000E+00 -0.00000000000E+00 -0.15046852239E+03  0.15046852239E+03  0.00000000000E+00 0.  1.
    9000007    1    1    2  502    0  0.27279046735E+02 -0.28993478030E+02  0.34303177863E+03  0.52844637316E+03  0.40000000000E+03 0.  1.
   -9000007    1    1    2    0  501 -0.27279046735E+02  0.28993478030E+02  0.64160399708E+03  0.75712644732E+03  0.40000000000E+03 0. -1.
<mgrwt>
<rscale>  2 0.40197608E+03</rscale>
<asrwt>0</asrwt>
<pdfrwt beam="1">  1        1 0.23149004E-01 0.40197608E+03</pdfrwt>
<pdfrwt beam="2">  1       -1 0.17463142E+00 0.40197608E+03</pdfrwt>
<totfact> 0.51941802E+01</totfact>
</mgrwt>
</event>
<event>
 4    1  0.2454657E-002  0.5167859E+03  0.7818608E-02  0.1009488E+00
          2   -1    0    0  502    0  0.00000000000E+00  0.00000000000E+00  0.37755291482E+04  0.37755291482E+04  0.00000000000E+00 0. -1.
         -2   -1    0    0    0  501 -0.00000000000E+00 -0.00000000000E+00 -0.83549184858E+02  0.83549184858E+02  0.00000000000E+00 0.  1.
    9000007    1    1    2  502    0  0.13105338734E+03  0.29982106378E+03  0.10903710719E+04  0.12066386099E+04  0.40000000000E+03 0.  1.
   -9000007    1    1    2    0  501 -0.13105338734E+03 -0.29982106378E+03  0.26016088915E+04  0.26524397232E+04  0.40000000000E+03 0. -1.
<mgrwt>
<rscale>  2 0.51678589E+03</rscale>
<asrwt>0</asrwt>
<pdfrwt beam="1">  1        2 0.58085051E+00 0.51678589E+03</pdfrwt>
<pdfrwt beam="2">  1       -2 0.12853724E-01 0.51678589E+03</pdfrwt>
<totfact> 0.26636261E+01</totfact>
</mgrwt>
</event>
<event>
 4    1  0.2454657E-002  0.4625997E+03  0.7818608E-02  0.1024030E+00
          2   -1    0    0  502    0  0.00000000000E+00  0.00000000000E+00  0.22235469198E+04  0.22235469198E+04  0.00000000000E+00 0.  1.
         -2   -1    0    0    0  501 -0.00000000000E+00 -0.00000000000E+00 -0.96873540093E+02  0.96873540093E+02  0.00000000000E+00 0. -1.
    9000007    1    1    2  502    0  0.15411003744E+03 -0.17392127825E+03  0.11570169683E+04  0.12460685293E+04  0.40000000000E+03 0.  1.
   -9000007    1    1    2    0  501 -0.15411003744E+03  0.17392127825E+03  0.96965641134E+03  0.10743519306E+04  0.40000000000E+03 0.  1.
<mgrwt>
<rscale>  2 0.46259973E+03</rscale>
<asrwt>0</asrwt>
<pdfrwt beam="1">  1        2 0.34208410E+00 0.46259973E+03</pdfrwt>
<pdfrwt beam="2">  1       -2 0.14903623E-01 0.46259973E+03</pdfrwt>
<totfact> 0.18918491E+02</totfact>
</mgrwt>
</event>
<event>
 4    1  0.2454657E-002  0.4093196E+03  0.7818608E-02  0.1040600E+00
          2   -1    0    0  502    0  0.00000000000E+00  0.00000000000E+00  0.28350300950E+04  0.28350300950E+04  0.00000000000E+00 0.  1.
         -2   -1    0    0    0  501 -0.00000000000E+00 -0.00000000000E+00 -0.85624030445E+02  0.85624030445E+02  0.00000000000E+00 0. -1.
    9000007    1    1    2  502    0  0.86687343388E+02 -0.52767263672E+01  0.56188298424E+03  0.69516546759E+03  0.40000000000E+03 0. -1.
   -9000007    1    1    2    0  501 -0.86687343388E+02  0.52767263672E+01  0.21875230803E+04  0.22254886578E+04  0.40000000000E+03 0.  1.
<mgrwt>
<rscale>  2 0.40931961E+03</rscale>
<asrwt>0</asrwt>
<pdfrwt beam="1">  1        2 0.43615840E+00 0.40931961E+03</pdfrwt>
<pdfrwt beam="2">  1       -2 0.13172930E-01 0.40931961E+03</pdfrwt>
<totfact> 0.10657548E+02</totfact>
</mgrwt>
</event>
<event>
 4    1  0.2454657E-002  0.4589587E+03  0.7818608E-02  0.1025084E+00
         -2   -1    0    0    0  501 -0.00000000000E+00  0.00000000000E+00  0.89701655761E+02  0.89701655761E+02  0.00000000000E+00 0. -1.
          2   -1    0    0  502    0  0.00000000000E+00 -0.00000000000E+00 -0.23490212187E+04  0.23490212187E+04  0.00000000000E+00 0.  1.
    9000007    1    1    2  502    0  0.29144662042E+02  0.22314489170E+03 -0.11515710144E+04  0.12396607823E+04  0.40000000000E+03 0.  1.
   -9000007    1    1    2    0  501 -0.29144662042E+02 -0.22314489170E+03 -0.11077485486E+04  0.11990620922E+04  0.40000000000E+03 0. -1.
<mgrwt>
<rscale>  2 0.45895866E+03</rscale>
<asrwt>0</asrwt>
<pdfrwt beam="1">  1        2 0.36138790E+00 0.45895866E+03</pdfrwt>
<pdfrwt beam="2">  1       -2 0.13800254E-01 0.45895866E+03</pdfrwt>
<totfact> 0.18380744E+02</totfact>
</mgrwt>
</event>
<event>
 4    1  0.2454657E-002  0.4553033E+03  0.7818608E-02  0.1026152E+00
          2   -1    0    0  502    0  0.00000000000E+00  0.00000000000E+00  0.56194999360E+03  0.56194999360E+03  0.00000000000E+00 0. -1.
         -2   -1    0    0    0  501 -0.00000000000E+00 -0.00000000000E+00 -0.12055989026E+04  0.12055989026E+04  0.00000000000E+00 0.  1.
    9000007    1    1    2  502    0 -0.29937422137E+02 -0.21541778781E+03 -0.10580750714E+04  0.11518784351E+04  0.40000000000E+03 0.  1.
   -9000007    1    1    2    0  501  0.29937422137E+02  0.21541778781E+03  0.41442616241E+03  0.61567046108E+03  0.40000000000E+03 0. -1.
<mgrwt>
<rscale>  2 0.45530328E+03</rscale>
<asrwt>0</asrwt>
<pdfrwt beam="1">  1        2 0.86453845E-01 0.45530328E+03</pdfrwt>
<pdfrwt beam="2">  1       -2 0.18547675E+00 0.45530328E+03</pdfrwt>
<totfact> 0.94634595E+00</totfact>
</mgrwt>
</event>
<event>
 4    1  0.2454657E-002  0.4716054E+03  0.7818608E-02  0.1021468E+00
          2   -1    0    0  502    0  0.00000000000E+00  0.00000000000E+00  0.23427669271E+04  0.23427669271E+04  0.00000000000E+00 0.  1.
         -2   -1    0    0    0  501 -0.00000000000E+00 -0.00000000000E+00 -0.10876538929E+03  0.10876538929E+03  0.00000000000E+00 0. -1.
    9000007    1    1    2  502    0 -0.14520676566E+03 -0.20328962638E+03  0.15540920122E+04  0.16240731694E+04  0.40000000000E+03 0.  1.
   -9000007    1    1    2    0  501  0.14520676566E+03  0.20328962638E+03  0.67990952556E+03  0.82745914699E+03  0.40000000000E+03 0. -1.
<mgrwt>
<rscale>  2 0.47160543E+03</rscale>
<asrwt>0</asrwt>
<pdfrwt beam="1">  1        2 0.36042564E+00 0.47160543E+03</pdfrwt>
<pdfrwt beam="2">  1       -2 0.16733139E-01 0.47160543E+03</pdfrwt>
<totfact> 0.13375257E+02</totfact>
</mgrwt>
</event>
<event>
 4    1  0.2454657E-002  0.4695107E+03  0.7818608E-02  0.1022058E+00
         -1   -1    0    0    0  501 -0.00000000000E+00  0.00000000000E+00  0.21172746669E+03  0.21172746669E+03  0.00000000000E+00 0. -1.
          1   -1    0    0  502    0  0.00000000000E+00 -0.00000000000E+00 -0.14374979317E+04  0.14374979317E+04  0.00000000000E+00 0.  1.
    9000007    1    1    2  502    0 -0.52807312654E+02 -0.24010771447E+03 -0.10458813391E+04  0.11464327727E+04  0.40000000000E+03 0.  1.
   -9000007    1    1    2    0  501  0.52807312654E+02  0.24010771447E+03 -0.17988912587E+03  0.50279262567E+03  0.40000000000E+03 0.  1.
<mgrwt>
<rscale>  2 0.46951073E+03</rscale>
<asrwt>0</asrwt>
<pdfrwt beam="1">  1        1 0.22115353E+00 0.46951073E+03</pdfrwt>
<pdfrwt beam="2">  1       -1 0.32573456E-01 0.46951073E+03</pdfrwt>
<totfact> 0.67780783E+01</totfact>
</mgrwt>
</event>
<event>
 4    1  0.2454657E-002  0.4952045E+03  0.7818608E-02  0.1015038E+00
          1   -1    0    0  502    0  0.00000000000E+00  0.00000000000E+00  0.26614446498E+04  0.26614446498E+04  0.00000000000E+00 0. -1.
         -1   -1    0    0    0  501 -0.00000000000E+00 -0.00000000000E+00 -0.15828397786E+03  0.15828397786E+03  0.00000000000E+00 0.  1.
    9000007    1    1    2  502    0  0.28586823982E+03  0.59218574588E+02  0.21629646554E+04  0.22189284780E+04  0.40000000000E+03 0. -1.
   -9000007    1    1    2    0  501 -0.28586823982E+03 -0.59218574588E+02  0.34019601651E+03  0.60080014960E+03  0.40000000000E+03 0.  1.
<mgrwt>
<rscale>  2 0.49520449E+03</rscale>
<asrwt>0</asrwt>
<pdfrwt beam="1">  1        1 0.40945299E+00 0.49520449E+03</pdfrwt>
<pdfrwt beam="2">  1       -1 0.24351383E-01 0.49520449E+03</pdfrwt>
<totfact> 0.16898344E+01</totfact>
</mgrwt>
</event>
<event>
 4    1  0.2454657E-002  0.4933503E+03  0.7818608E-02  0.1015529E+00
         -2   -1    0    0    0  501 -0.00000000000E+00  0.00000000000E+00  0.83526994059E+03  0.83526994059E+03  0.00000000000E+00 0.  1.
          2   -1    0    0  502    0  0.00000000000E+00 -0.00000000000E+00 -0.29139694040E+03  0.29139694040E+03  0.00000000000E+00 0. -1.
    9000007    1    1    2  502    0 -0.27759045671E+03 -0.79612055461E+02  0.27279407899E+03  0.56374741735E+03  0.40000000000E+03 0.  1.
   -9000007    1    1    2    0  501  0.27759045671E+03  0.79612055461E+02  0.27107892119E+03  0.56291946364E+03  0.40000000000E+03 0. -1.
<mgrwt>
<rscale>  2 0.49335032E+03</rscale>
<asrwt>0</asrwt>
<pdfrwt beam="1">  1        2 0.44830299E-01 0.49335032E+03</pdfrwt>
<pdfrwt beam="2">  1       -2 0.12850307E+00 0.49335032E+03</pdfrwt>
<totfact> 0.52175481E+01</totfact>
</mgrwt>
</event>
<event>
 4    1  0.2454657E-002  0.4079940E+03  0.7818608E-02  0.1041046E+00
         -1   -1    0    0    0  501 -0.00000000000E+00  0.00000000000E+00  0.12068851988E+03  0.12068851988E+03  0.00000000000E+00 0.  1.
          1   -1    0    0  502    0  0.00000000000E+00 -0.00000000000E+00 -0.14104318108E+04  0.14104318108E+04  0.00000000000E+00 0. -1.
    9000007    1    1    2  502    0 -0.80317781092E+02 -0.28500411976E+01 -0.75870957004E+03  0.86145184448E+03  0.40000000000E+03 0. -1.
   -9000007    1    1    2    0  501  0.80317781092E+02  0.28500411976E+01 -0.53103372085E+03  0.66966848617E+03  0.40000000000E+03 0.  1.
<mgrwt>
<rscale>  2 0.40799396E+03</rscale>
<asrwt>0</asrwt>
<pdfrwt beam="1">  1        1 0.21698950E+00 0.40799396E+03</pdfrwt>
<pdfrwt beam="2">  1       -1 0.18567465E-01 0.40799396E+03</pdfrwt>
<totfact> 0.18420058E+02</totfact>
</mgrwt>
</event>
<event>
 4    1  0.2454657E-002  0.4040349E+03  0.7818608E-02  0.1042391E+00
         -2   -1    0    0    0  501 -0.00000000000E+00  0.00000000000E+00  0.17582947064E+03  0.17582947064E+03  0.00000000000E+00 0. -1.
          2   -1    0    0  502    0  0.00000000000E+00 -0.00000000000E+00 -0.14823185551E+04  0.14823185551E+04  0.00000000000E+00 0.  1.
    9000007    1    1    2  502    0  0.42336034778E+02  0.38103709472E+02 -0.14644498187E+03  0.42975616951E+03  0.40000000000E+03 0. -1.
   -9000007    1    1    2    0  501 -0.42336034778E+02 -0.38103709472E+02 -0.11600441026E+04  0.12283918562E+04  0.40000000000E+03 0.  1.
<mgrwt>
<rscale>  2 0.40403494E+03</rscale>
<asrwt>0</asrwt>
<pdfrwt beam="1">  1        2 0.22804901E+00 0.40403494E+03</pdfrwt>
<pdfrwt beam="2">  1       -2 0.27050687E-01 0.40403494E+03</pdfrwt>
<totfact> 0.16983436E+02</totfact>
</mgrwt>
</event>
<event>
 4    1  0.2454657E-002  0.8007003E+03  0.7818608E-02  0.9559004E-01
          1   -1    0    0  502    0  0.00000000000E+00  0.00000000000E+00  0.14847170399E+04  0.14847170399E+04  0.00000000000E+00 0. -1.
         -1   -1    0    0    0  501 -0.00000000000E+00 -0.00000000000E+00 -0.58957803135E+03  0.58957803135E+03  0.00000000000E+00 0.  1.
    9000007    1    1    2  502    0  0.69337279845E+03 -0.18844147121E+02  0.98407541010E+03  0.12686707028E+04  0.40000000000E+03 0. -1.
   -9000007    1    1    2    0  501 -0.69337279845E+03  0.18844147121E+02 -0.88936401511E+02  0.80562436844E+03  0.40000000000E+03 0.  1.
<mgrwt>
<rscale>  2 0.80070028E+03</rscale>
<asrwt>0</asrwt>
<pdfrwt beam="1">  1        1 0.22841800E+00 0.80070028E+03</pdfrwt>
<pdfrwt beam="2">  1       -1 0.90704313E-01 0.80070028E+03</pdfrwt>
<totfact> 0.82091160E+00</totfact>
</mgrwt>
</event>
<event>
 4    1  0.2454657E-002  0.4656838E+03  0.7818608E-02  0.1023146E+00
         -1   -1    0    0    0  501 -0.00000000000E+00  0.00000000000E+00  0.10035342497E+03  0.10035342497E+03  0.00000000000E+00 0. -1.
          1   -1    0    0  502    0  0.00000000000E+00 -0.00000000000E+00 -0.21612333346E+04  0.21612333346E+04  0.00000000000E+00 0.  1.
    9000007    1    1    2  502    0 -0.21579417494E+03 -0.10146050431E+03 -0.10181049730E+04  0.11195530786E+04  0.40000000000E+03 0.  1.
   -9000007    1    1    2    0  501  0.21579417494E+03  0.10146050431E+03 -0.10427749367E+04  0.11420336810E+04  0.40000000000E+03 0.  1.
<mgrwt>
<rscale>  2 0.46568376E+03</rscale>
<asrwt>0</asrwt>
<pdfrwt beam="1">  1        1 0.33249745E+00 0.46568376E+03</pdfrwt>
<pdfrwt beam="2">  1       -1 0.15438988E-01 0.46568376E+03</pdfrwt>
<totfact> 0.78157023E+01</totfact>
</mgrwt>
</event>
<event>
 4    1  0.2454657E-002  0.4346813E+03  0.7818608E-02  0.1032391E+00
         -1   -1    0    0    0  501 -0.00000000000E+00  0.00000000000E+00  0.79558853703E+02  0.79558853703E+02  0.00000000000E+00 0.  1.
          1   -1    0    0  502    0  0.00000000000E+00 -0.00000000000E+00 -0.39679158984E+04  0.39679158984E+04  0.00000000000E+00 0. -1.
    9000007    1    1    2  502    0 -0.16353119953E+03 -0.46961267526E+02 -0.32264411806E+04  0.32555906539E+04  0.40000000000E+03 0. -1.
   -9000007    1    1    2    0  501  0.16353119953E+03  0.46961267526E+02 -0.66191586416E+03  0.79188409827E+03  0.40000000000E+03 0.  1.
<mgrwt>
<rscale>  2 0.43468128E+03</rscale>
<asrwt>0</asrwt>
<pdfrwt beam="1">  1        1 0.61044869E+00 0.43468128E+03</pdfrwt>
<pdfrwt beam="2">  1       -1 0.12239822E-01 0.43468128E+03</pdfrwt>
<totfact> 0.55442147E+00</totfact>
</mgrwt>
</event>
<event>
 4    1  0.2454657E-002  0.6064691E+03  0.7818608E-02  0.9892075E-01
         -3   -1    0    0    0  501 -0.00000000000E+00  0.00000000000E+00  0.15116924612E+03  0.15116924612E+03  0.00000000000E+00 0.  1.
          3   -1    0    0  502    0  0.00000000000E+00 -0.00000000000E+00 -0.24861649678E+04  0.24861649678E+04  0.00000000000E+00 0. -1.
    9000007    1    1    2  502    0 -0.25052069288E+03  0.38084660079E+03 -0.13602118751E+04  0.14892887887E+04  0.40000000000E+03 0.  1.
   -9000007    1    1    2    0  501  0.25052069288E+03 -0.38084660079E+03 -0.97478384659E+03  0.11480454253E+04  0.40000000000E+03 0. -1.
<mgrwt>
<rscale>  2 0.60646908E+03</rscale>
<asrwt>0</asrwt>
<pdfrwt beam="1">  1        3 0.38248691E+00 0.60646908E+03</pdfrwt>
<pdfrwt beam="2">  1       -3 0.23256808E-01 0.60646908E+03</pdfrwt>
<totfact> 0.66232247E-01</totfact>
</mgrwt>
</event>
<event>
 4    1  0.2454657E-002  0.4021815E+03  0.7818608E-02  0.1043027E+00
         -2   -1    0    0    0  501 -0.00000000000E+00  0.00000000000E+00  0.32690007439E+03  0.32690007439E+03  0.00000000000E+00 0. -1.
          2   -1    0    0  502    0  0.00000000000E+00 -0.00000000000E+00 -0.53153302553E+03  0.53153302553E+03  0.00000000000E+00 0.  1.
    9000007    1    1    2  502    0  0.37835527514E+02 -0.17843942429E+02 -0.21515144680E+03  0.45611410687E+03  0.40000000000E+03 0.  1.
   -9000007    1    1    2    0  501 -0.37835527514E+02  0.17843942429E+02  0.10518495653E+02  0.40231899306E+03  0.40000000000E+03 0. -1.
<mgrwt>
<rscale>  2 0.40218147E+03</rscale>
<asrwt>0</asrwt>
<pdfrwt beam="1">  1        2 0.81774311E-01 0.40218147E+03</pdfrwt>
<pdfrwt beam="2">  1       -2 0.50292319E-01 0.40218147E+03</pdfrwt>
<totfact> 0.22017391E+02</totfact>
</mgrwt>
</event>
<event>
 4    1  0.2454657E-002  0.4316750E+03  0.7818608E-02  0.1033332E+00
          2   -1    0    0  502    0  0.00000000000E+00  0.00000000000E+00  0.31622185780E+03  0.31622185780E+03  0.00000000000E+00 0.  1.
         -2   -1    0    0    0  501 -0.00000000000E+00 -0.00000000000E+00 -0.62051546636E+03  0.62051546636E+03  0.00000000000E+00 0. -1.
    9000007    1    1    2  502    0  0.83011605392E+02  0.13947193086E+03 -0.25722985400E+03  0.50250427254E+03  0.40000000000E+03 0.  1.
   -9000007    1    1    2    0  501 -0.83011605392E+02 -0.13947193086E+03 -0.47063754560E+02  0.43423305162E+03  0.40000000000E+03 0.  1.
<mgrwt>
<rscale>  2 0.43167505E+03</rscale>
<asrwt>0</asrwt>
<pdfrwt beam="1">  1        2 0.48649517E-01 0.43167505E+03</pdfrwt>
<pdfrwt beam="2">  1       -2 0.95463918E-01 0.43167505E+03</pdfrwt>
<totfact> 0.98110203E+01</totfact>
</mgrwt>
</event>
<event>
 4    1  0.2454657E-002  0.5197798E+03  0.7818608E-02  0.1008741E+00
         -2   -1    0    0    0  501 -0.00000000000E+00  0.00000000000E+00  0.16439228610E+03  0.16439228610E+03  0.00000000000E+00 0. -1.
          2   -1    0    0  502    0  0.00000000000E+00 -0.00000000000E+00 -0.16495157779E+04  0.16495157779E+04  0.00000000000E+00 0.  1.
    9000007    1    1    2  502    0 -0.69530646669E+02  0.32455596932E+03 -0.68757946370E+03  0.86193770480E+03  0.40000000000E+03 0. -1.
   -9000007    1    1    2    0  501  0.69530646669E+02 -0.32455596932E+03 -0.79754402812E+03  0.95197035923E+03  0.40000000000E+03 0. -1.
<mgrwt>
<rscale>  2 0.51977985E+03</rscale>
<asrwt>0</asrwt>
<pdfrwt beam="1">  1        2 0.25377167E+00 0.51977985E+03</pdfrwt>
<pdfrwt beam="2">  1       -2 0.25291119E-01 0.51977985E+03</pdfrwt>
<totfact> 0.15312017E+02</totfact>
</mgrwt>
</event>
<event>
 4    1  0.2454657E-002  0.5012162E+03  0.7818608E-02  0.1013462E+00
          2   -1    0    0  502    0  0.00000000000E+00  0.00000000000E+00  0.15324998737E+04  0.15324998737E+04  0.00000000000E+00 0.  1.
         -2   -1    0    0    0  501 -0.00000000000E+00 -0.00000000000E+00 -0.29839997098E+03  0.29839997098E+03  0.00000000000E+00 0. -1.
    9000007    1    1    2  502    0 -0.61115572502E+02 -0.29577446599E+03  0.12315942408E+04  0.13296774128E+04  0.40000000000E+03 0.  1.
   -9000007    1    1    2    0  501  0.61115572502E+02  0.29577446599E+03  0.25056619029E+01  0.50122243194E+03  0.40000000000E+03 0. -1.
<mgrwt>
<rscale>  2 0.50121617E+03</rscale>
<asrwt>0</asrwt>
<pdfrwt beam="1">  1        2 0.23576921E+00 0.50121617E+03</pdfrwt>
<pdfrwt beam="2">  1       -2 0.45907689E-01 0.50121617E+03</pdfrwt>
<totfact> 0.57719384E+01</totfact>
</mgrwt>
</event>
<event>
 4    1  0.2454657E-002  0.4132442E+03  0.7818608E-02  0.1039288E+00
          1   -1    0    0  502    0  0.00000000000E+00  0.00000000000E+00  0.16142643092E+04  0.16142643092E+04  0.00000000000E+00 0.  1.
         -1   -1    0    0    0  501 -0.00000000000E+00 -0.00000000000E+00 -0.12134390976E+03  0.12134390976E+03  0.00000000000E+00 0. -1.
    9000007    1    1    2  502    0  0.82761706515E+02  0.62620241282E+02  0.10571677120E+04  0.11350657981E+04  0.40000000000E+03 0.  1.
   -9000007    1    1    2    0  501 -0.82761706515E+02 -0.62620241282E+02  0.43575268748E+03  0.60054242093E+03  0.40000000000E+03 0. -1.
<mgrwt>
<rscale>  2 0.41324423E+03</rscale>
<asrwt>0</asrwt>
<pdfrwt beam="1">  1        1 0.24834834E+00 0.41324423E+03</pdfrwt>
<pdfrwt beam="2">  1       -1 0.18668295E-01 0.41324423E+03</pdfrwt>
<totfact> 0.13306587E+02</totfact>
</mgrwt>
</event>
<event>
 4    1  0.2454657E-002  0.4229427E+03  0.7818608E-02  0.1036113E+00
          1   -1    0    0  502    0  0.00000000000E+00  0.00000000000E+00  0.63157477352E+03  0.63157477352E+03  0.00000000000E+00 0.  1.
         -1   -1    0    0    0  501 -0.00000000000E+00 -0.00000000000E+00 -0.30607056315E+03  0.30607056315E+03  0.00000000000E+00 0. -1.
    9000007    1    1    2  502    0  0.13659433602E+03 -0.14917025934E+02  0.29082497398E+03  0.51328325103E+03  0.40000000000E+03 0.  1.
   -9000007    1    1    2    0  501 -0.13659433602E+03  0.14917025934E+02  0.34679236384E+02  0.42436208564E+03  0.40000000000E+03 0. -1.
<mgrwt>
<rscale>  2 0.42294270E+03</rscale>
<asrwt>0</asrwt>
<pdfrwt beam="1">  1        1 0.97165350E-01 0.42294270E+03</pdfrwt>
<pdfrwt beam="2">  1       -1 0.47087779E-01 0.42294270E+03</pdfrwt>
<totfact> 0.14898378E+02</totfact>
</mgrwt>
</event>
<event>
 4    1  0.2454657E-002  0.8479041E+03  0.7818608E-02  0.9493154E-01
          2   -1    0    0  502    0  0.00000000000E+00  0.00000000000E+00  0.28896495145E+03  0.28896495145E+03  0.00000000000E+00 0.  1.
         -2   -1    0    0    0  501 -0.00000000000E+00 -0.00000000000E+00 -0.26232435966E+04  0.26232435966E+04  0.00000000000E+00 0. -1.
    9000007    1    1    2  502    0 -0.72088499918E+03  0.19815686338E+03 -0.83650279793E+03  0.11910828080E+04  0.40000000000E+03 0. -1.
   -9000007    1    1    2    0  501  0.72088499918E+03 -0.19815686338E+03 -0.14977758472E+04  0.17211257400E+04  0.40000000000E+03 0.  1.
<mgrwt>
<rscale>  2 0.84790408E+03</rscale>
<asrwt>0</asrwt>
<pdfrwt beam="1">  1        2 0.44456144E-01 0.84790408E+03</pdfrwt>
<pdfrwt beam="2">  1       -2 0.40357596E+00 0.84790408E+03</pdfrwt>
<totfact> 0.84149042E-01</totfact>
</mgrwt>
</event>
<event>
 4    1  0.2454657E-002  0.4822164E+03  0.7818608E-02  0.1018528E+00
          2   -1    0    0  502    0  0.00000000000E+00  0.00000000000E+00  0.40125739581E+04  0.40125739581E+04  0.00000000000E+00 0. -1.
         -2   -1    0    0    0  501 -0.00000000000E+00 -0.00000000000E+00 -0.67185865520E+02  0.67185865520E+02  0.00000000000E+00 0.  1.
    9000007    1    1    2  502    0  0.25742218224E+03  0.79160808468E+02  0.27289717241E+04  0.27712486868E+04  0.40000000000E+03 0. -1.
   -9000007    1    1    2    0  501 -0.25742218224E+03 -0.79160808468E+02  0.12164163685E+04  0.13085111368E+04  0.40000000000E+03 0.  1.
<mgrwt>
<rscale>  2 0.48221636E+03</rscale>
<asrwt>0</asrwt>
<pdfrwt beam="1">  1        2 0.61731888E+00 0.48221636E+03</pdfrwt>
<pdfrwt beam="2">  1       -2 0.10336290E-01 0.48221636E+03</pdfrwt>
<totfact> 0.25448282E+01</totfact>
</mgrwt>
</event>
<event>
 4    1  0.2454657E-002  0.5421192E+03  0.7818608E-02  0.1003335E+00
         -1   -1    0    0    0  501 -0.00000000000E+00  0.00000000000E+00  0.46274610315E+03  0.46274610315E+03  0.00000000000E+00 0.  1.
          1   -1    0    0  502    0  0.00000000000E+00 -0.00000000000E+00 -0.63511978775E+03  0.63511978775E+03  0.00000000000E+00 0. -1.
    9000007    1    1    2  502    0  0.33027014492E+03 -0.15752725285E+03 -0.83706013458E+02  0.54854343557E+03  0.40000000000E+03 0.  1.
   -9000007    1    1    2    0  501 -0.33027014492E+03  0.15752725285E+03 -0.88667671145E+02  0.54932245533E+03  0.40000000000E+03 0. -1.
<mgrwt>
<rscale>  2 0.54211918E+03</rscale>
<asrwt>0</asrwt>
<pdfrwt beam="1">  1        1 0.97710736E-01 0.54211918E+03</pdfrwt>
<pdfrwt beam="2">  1       -1 0.71191709E-01 0.54211918E+03</pdfrwt>
<totfact> 0.65393304E+01</totfact>
</mgrwt>
</event>
<event>
 4    1  0.2454657E-002  0.4125162E+03  0.7818608E-02  0.1039530E+00
         -2   -1    0    0    0  501 -0.00000000000E+00  0.00000000000E+00  0.13809864697E+03  0.13809864697E+03  0.00000000000E+00 0. -1.
          2   -1    0    0  502    0  0.00000000000E+00 -0.00000000000E+00 -0.12390081414E+04  0.12390081414E+04  0.00000000000E+00 0.  1.
    9000007    1    1    2  502    0  0.87763106344E+02 -0.49671127898E+02 -0.49953467287E+03  0.64784602583E+03  0.40000000000E+03 0.  1.
   -9000007    1    1    2    0  501 -0.87763106344E+02  0.49671127898E+02 -0.60137482156E+03  0.72926076255E+03  0.40000000000E+03 0.  1.
<mgrwt>
<rscale>  2 0.41251616E+03</rscale>
<asrwt>0</asrwt>
<pdfrwt beam="1">  1        2 0.19061663E+00 0.41251616E+03</pdfrwt>
<pdfrwt beam="2">  1       -2 0.21245947E-01 0.41251616E+03</pdfrwt>
<totfact> 0.35606169E+02</totfact>
</mgrwt>
</event>
<event>
 4    1  0.2454657E-002  0.4095044E+03  0.7818608E-02  0.1040537E+00
         -1   -1    0    0    0  501 -0.00000000000E+00  0.00000000000E+00  0.15460340241E+03  0.15460340241E+03  0.00000000000E+00 0. -1.
          1   -1    0    0  502    0  0.00000000000E+00 -0.00000000000E+00 -0.10853118382E+04  0.10853118382E+04  0.00000000000E+00 0.  1.
    9000007    1    1    2  502    0 -0.19820237713E+02  0.85445869292E+02 -0.48041800402E+03  0.63126483902E+03  0.40000000000E+03 0. -1.
   -9000007    1    1    2    0  501  0.19820237713E+02 -0.85445869292E+02 -0.45029043174E+03  0.60865040156E+03  0.40000000000E+03 0. -1.
<mgrwt>
<rscale>  2 0.40950438E+03</rscale>
<asrwt>0</asrwt>
<pdfrwt beam="1">  1        1 0.16697105E+00 0.40950438E+03</pdfrwt>
<pdfrwt beam="2">  1       -1 0.23785139E-01 0.40950438E+03</pdfrwt>
<totfact> 0.20712066E+02</totfact>
</mgrwt>
</event>
<event>
 4    1  0.2454657E-002  0.4639371E+03  0.7818608E-02  0.1023645E+00
         -2   -1    0    0    0  501 -0.00000000000E+00  0.00000000000E+00  0.17796780297E+03  0.17796780297E+03  0.00000000000E+00 0.  1.
          2   -1    0    0  502    0  0.00000000000E+00 -0.00000000000E+00 -0.12248988683E+04  0.12248988683E+04  0.00000000000E+00 0. -1.
    9000007    1    1    2  502    0  0.93021017796E+02 -0.21583503571E+03 -0.60231840966E+03  0.76027964527E+03  0.40000000000E+03 0.  1.
   -9000007    1    1    2    0  501 -0.93021017796E+02  0.21583503571E+03 -0.44461265564E+03  0.64258702597E+03  0.40000000000E+03 0.  1.
<mgrwt>
<rscale>  2 0.46393714E+03</rscale>
<asrwt>0</asrwt>
<pdfrwt beam="1">  1        2 0.18844599E+00 0.46393714E+03</pdfrwt>
<pdfrwt beam="2">  1       -2 0.27379661E-01 0.46393714E+03</pdfrwt>
<totfact> 0.22989011E+02</totfact>
</mgrwt>
</event>
<event>
 4    1  0.2454657E-002  0.4180102E+03  0.7818608E-02  0.1037716E+00
          2   -1    0    0  502    0  0.00000000000E+00  0.00000000000E+00  0.10444979393E+04  0.10444979393E+04  0.00000000000E+00 0.  1.
         -2   -1    0    0    0  501 -0.00000000000E+00 -0.00000000000E+00 -0.24310595182E+03  0.24310595182E+03  0.00000000000E+00 0. -1.
    9000007    1    1    2  502    0  0.86816442276E+02  0.84825726329E+02  0.76022924931E+03  0.86757190480E+03  0.40000000000E+03 0.  1.
   -9000007    1    1    2    0  501 -0.86816442276E+02 -0.84825726329E+02  0.41162738152E+02  0.42003198629E+03  0.40000000000E+03 0. -1.
<mgrwt>
<rscale>  2 0.41801017E+03</rscale>
<asrwt>0</asrwt>
<pdfrwt beam="1">  1        2 0.16069199E+00 0.41801017E+03</pdfrwt>
<pdfrwt beam="2">  1       -2 0.37400916E-01 0.41801017E+03</pdfrwt>
<totfact> 0.16551008E+02</totfact>
</mgrwt>
</event>
<event>
 4    1  0.2454657E-002  0.4289685E+03  0.7818608E-02  0.1034186E+00
         -2   -1    0    0    0  501 -0.00000000000E+00  0.00000000000E+00  0.79458653581E+03  0.79458653581E+03  0.00000000000E+00 0. -1.
          2   -1    0    0  502    0  0.00000000000E+00 -0.00000000000E+00 -0.51321962231E+03  0.51321962231E+03  0.00000000000E+00 0.  1.
    9000007    1    1    2  502    0 -0.12920619450E+03  0.85555523908E+02 -0.34371762254E+03  0.54968699495E+03  0.40000000000E+03 0.  1.
   -9000007    1    1    2    0  501  0.12920619450E+03 -0.85555523908E+02  0.62508453604E+03  0.75811916317E+03  0.40000000000E+03 0. -1.
<mgrwt>
<rscale>  2 0.42896852E+03</rscale>
<asrwt>0</asrwt>
<pdfrwt beam="1">  1        2 0.78956865E-01 0.42896852E+03</pdfrwt>
<pdfrwt beam="2">  1       -2 0.12224408E+00 0.42896852E+03</pdfrwt>
<totfact> 0.31663331E+01</totfact>
</mgrwt>
</event>
<event>
 4    1  0.2454657E-002  0.5279900E+03  0.7818608E-02  0.1006721E+00
          2   -1    0    0  502    0  0.00000000000E+00  0.00000000000E+00  0.15434075404E+04  0.15434075404E+04  0.00000000000E+00 0. -1.
         -2   -1    0    0    0  501 -0.00000000000E+00 -0.00000000000E+00 -0.18072362362E+03  0.18072362362E+03  0.00000000000E+00 0.  1.
    9000007    1    1    2  502    0 -0.25982323596E+03  0.22641852060E+03  0.70177752230E+03  0.87821702968E+03  0.40000000000E+03 0.  1.
   -9000007    1    1    2    0  501  0.25982323596E+03 -0.22641852060E+03  0.66090639450E+03  0.84591413435E+03  0.40000000000E+03 0. -1.
<mgrwt>
<rscale>  2 0.52799002E+03</rscale>
<asrwt>0</asrwt>
<pdfrwt beam="1">  1        2 0.23744730E+00 0.52799002E+03</pdfrwt>
<pdfrwt beam="2">  1       -2 0.27803635E-01 0.52799002E+03</pdfrwt>
<totfact> 0.14721710E+02</totfact>
</mgrwt>
</event>
<event>
 4    1  0.2454657E-002  0.5498558E+03  0.7818608E-02  0.1001527E+00
         -2   -1    0    0    0  501 -0.00000000000E+00  0.00000000000E+00  0.12529550001E+03  0.12529550001E+03  0.00000000000E+00 0. -1.
          2   -1    0    0  502    0  0.00000000000E+00 -0.00000000000E+00 -0.25965609962E+04  0.25965609962E+04  0.00000000000E+00 0.  1.
    9000007    1    1    2  502    0 -0.15155788610E+03  0.34550201429E+03 -0.15974540466E+04  0.16894380325E+04  0.40000000000E+03 0.  1.
   -9000007    1    1    2    0  501  0.15155788610E+03 -0.34550201429E+03 -0.87381144959E+03  0.10324184637E+04  0.40000000000E+03 0. -1.
<mgrwt>
<rscale>  2 0.54985583E+03</rscale>
<asrwt>0</asrwt>
<pdfrwt beam="1">  1        2 0.39947092E+00 0.54985583E+03</pdfrwt>
<pdfrwt beam="2">  1       -2 0.19276231E-01 0.54985583E+03</pdfrwt>
<totfact> 0.74701208E+01</totfact>
</mgrwt>
</event>
<event>
 4    1  0.2454657E-002  0.4214274E+03  0.7818608E-02  0.1036603E+00
          1   -1    0    0  502    0  0.00000000000E+00  0.00000000000E+00  0.14806339415E+04  0.14806339415E+04  0.00000000000E+00 0. -1.
         -1   -1    0    0    0  501 -0.00000000000E+00 -0.00000000000E+00 -0.12142800781E+03  0.12142800781E+03  0.00000000000E+00 0.  1.
    9000007    1    1    2  502    0 -0.60903963164E+02  0.11786319800E+03  0.59120771417E+03  0.72603552769E+03  0.40000000000E+03 0.  1.
   -9000007    1    1    2    0  501  0.60903963164E+02 -0.11786319800E+03  0.76799821948E+03  0.87602642158E+03  0.40000000000E+03 0.  1.
<mgrwt>
<rscale>  2 0.42142737E+03</rscale>
<asrwt>0</asrwt>
<pdfrwt beam="1">  1        1 0.22778983E+00 0.42142737E+03</pdfrwt>
<pdfrwt beam="2">  1       -1 0.18681233E-01 0.42142737E+03</pdfrwt>
<totfact> 0.16314252E+02</totfact>
</mgrwt>
</event>
<event>
 4    1  0.2454657E-002  0.4021609E+03  0.7818608E-02  0.1043034E+00
          2   -1    0    0  502    0  0.00000000000E+00  0.00000000000E+00  0.49643410189E+03  0.49643410189E+03  0.00000000000E+00 0. -1.
         -2   -1    0    0    0  501 -0.00000000000E+00 -0.00000000000E+00 -0.32606155625E+03  0.32606155625E+03  0.00000000000E+00 0.  1.
    9000007    1    1    2  502    0  0.28874244446E+02 -0.29994087907E+02  0.73322561369E+02  0.40879036841E+03  0.40000000000E+03 0.  1.
   -9000007    1    1    2    0  501 -0.28874244446E+02  0.29994087907E+02  0.97049984267E+02  0.41370528973E+03  0.40000000000E+03 0. -1.
<mgrwt>
<rscale>  2 0.40216087E+03</rscale>
<asrwt>0</asrwt>
<pdfrwt beam="1">  1        2 0.76374477E-01 0.40216087E+03</pdfrwt>
<pdfrwt beam="2">  1       -2 0.50163316E-01 0.40216087E+03</pdfrwt>
<totfact> 0.23933349E+02</totfact>
</mgrwt>
</event>
<event>
 4    1  0.2454657E-002  0.4178618E+03  0.7818608E-02  0.1037764E+00
          1   -1    0    0  502    0  0.00000000000E+00  0.00000000000E+00  0.22585546536E+04  0.22585546536E+04  0.00000000000E+00 0. -1.
         -1   -1    0    0    0  501 -0.00000000000E+00 -0.00000000000E+00 -0.79026804181E+02  0.79026804181E+02  0.00000000000E+00 0.  1.
    9000007    1    1    2  502    0  0.54302704025E+02  0.10798008087E+03  0.91748540216E+03  0.10081606741E+04  0.40000000000E+03 0. -1.
   -9000007    1    1    2    0  501 -0.54302704025E+02 -0.10798008087E+03  0.12620424473E+04  0.13294207837E+04  0.40000000000E+03 0. -1.
<mgrwt>
<rscale>  2 0.41786180E+03</rscale>
<asrwt>0</asrwt>
<pdfrwt beam="1">  1        1 0.34746990E+00 0.41786180E+03</pdfrwt>
<pdfrwt beam="2">  1       -1 0.12157972E-01 0.41786180E+03</pdfrwt>
<totfact> 0.99595106E+01</totfact>
</mgrwt>
</event>
<event>
 4    1  0.2454657E-002  0.4781979E+03  0.7818608E-02  0.1019632E+00
          1   -1    0    0  502    0  0.00000000000E+00  0.00000000000E+00  0.23144090954E+04  0.23144090954E+04  0.00000000000E+00 0.  1.
         -1   -1    0    0    0  501 -0.00000000000E+00 -0.00000000000E+00 -0.10391622234E+03  0.10391622234E+03  0.00000000000E+00 0. -1.
    9000007    1    1    2  502    0  0.86656021486E+02  0.24731352579E+03  0.83705733154E+03  0.96402189933E+03  0.40000000000E+03 0.  1.
   -9000007    1    1    2    0  501 -0.86656021486E+02 -0.24731352579E+03  0.13734355415E+04  0.14543034184E+04  0.40000000000E+03 0.  1.
<mgrwt>
<rscale>  2 0.47819792E+03</rscale>
<asrwt>0</asrwt>
<pdfrwt beam="1">  1        1 0.35606290E+00 0.47819792E+03</pdfrwt>
<pdfrwt beam="2">  1       -1 0.15987113E-01 0.47819792E+03</pdfrwt>
<totfact> 0.58297443E+01</totfact>
</mgrwt>
</event>
<event>
 4    1  0.2454657E-002  0.4026212E+03  0.7818608E-02  0.1042876E+00
          1   -1    0    0  502    0  0.00000000000E+00  0.00000000000E+00  0.24938862397E+04  0.24938862397E+04  0.00000000000E+00 0. -1.
         -1   -1    0    0    0  501 -0.00000000000E+00 -0.00000000000E+00 -0.73325625813E+02  0.73325625813E+02  0.00000000000E+00 0.  1.
    9000007    1    1    2  502    0  0.45627435164E+02 -0.46871554322E+01  0.16427935815E+04  0.16914120088E+04  0.40000000000E+03 0. -1.
   -9000007    1    1    2    0  501 -0.45627435164E+02  0.46871554322E+01  0.77776703242E+03  0.87579985669E+03  0.40000000000E+03 0.  1.
<mgrwt>
<rscale>  2 0.40262120E+03</rscale>
<asrwt>0</asrwt>
<pdfrwt beam="1">  1        1 0.38367474E+00 0.40262120E+03</pdfrwt>
<pdfrwt beam="2">  1       -1 0.11280867E-01 0.40262120E+03</pdfrwt>
<totfact> 0.78333020E+01</totfact>
</mgrwt>
</event>
<event>
 4    1  0.2454657E-002  0.5977628E+03  0.7818608E-02  0.9910058E-01
          1   -1    0    0  502    0  0.00000000000E+00  0.00000000000E+00  0.28526041044E+04  0.28526041044E+04  0.00000000000E+00 0.  1.
         -1   -1    0    0    0  501 -0.00000000000E+00 -0.00000000000E+00 -0.16577590121E+03  0.16577590121E+03  0.00000000000E+00 0. -1.
    9000007    1    1    2  502    0  0.34616813416E+03 -0.27836671693E+03  0.20895018871E+04  0.21733243068E+04  0.40000000000E+03 0.  1.
   -9000007    1    1    2    0  501 -0.34616813416E+03  0.27836671693E+03  0.59732631602E+03  0.84505569877E+03  0.40000000000E+03 0. -1.
<mgrwt>
<rscale>  2 0.59776283E+03</rscale>
<asrwt>0</asrwt>
<pdfrwt beam="1">  1        1 0.43886213E+00 0.59776283E+03</pdfrwt>
<pdfrwt beam="2">  1       -1 0.25503987E-01 0.59776283E+03</pdfrwt>
<totfact> 0.11258200E+01</totfact>
</mgrwt>
</event>
<event>
 4    1  0.2454657E-002  0.4927080E+03  0.7818608E-02  0.1015700E+00
         -2   -1    0    0    0  501 -0.00000000000E+00  0.00000000000E+00  0.65286001489E+02  0.65286001489E+02  0.00000000000E+00 0.  1.
          2   -1    0    0  502    0  0.00000000000E+00 -0.00000000000E+00 -0.37847207670E+04  0.37847207670E+04  0.00000000000E+00 0. -1.
    9000007    1    1    2  502    0  0.28453984121E+03  0.42405564044E+02 -0.16049435526E+04  0.16788701440E+04  0.40000000000E+03 0. -1.
   -9000007    1    1    2    0  501 -0.28453984121E+03 -0.42405564044E+02 -0.21144912128E+04  0.21711366245E+04  0.40000000000E+03 0.  1.
<mgrwt>
<rscale>  2 0.49270798E+03</rscale>
<asrwt>0</asrwt>
<pdfrwt beam="1">  1        2 0.58226471E+00 0.49270798E+03</pdfrwt>
<pdfrwt beam="2">  1       -2 0.10044001E-01 0.49270798E+03</pdfrwt>
<totfact> 0.39494043E+01</totfact>
</mgrwt>
</event>
<event>
 4    1  0.2454657E-002  0.4057886E+03  0.7818608E-02  0.1041794E+00
          1   -1    0    0  502    0  0.00000000000E+00  0.00000000000E+00  0.58233525092E+03  0.58233525092E+03  0.00000000000E+00 0. -1.
         -1   -1    0    0    0  501 -0.00000000000E+00 -0.00000000000E+00 -0.29707441759E+03  0.29707441759E+03  0.00000000000E+00 0.  1.
    9000007    1    1    2  502    0  0.67535056824E+02  0.10167858368E+02  0.46129668747E+02  0.40840214934E+03  0.40000000000E+03 0.  1.
   -9000007    1    1    2    0  501 -0.67535056824E+02 -0.10167858368E+02  0.23913116458E+03  0.47100751917E+03  0.40000000000E+03 0. -1.
<mgrwt>
<rscale>  2 0.40578858E+03</rscale>
<asrwt>0</asrwt>
<pdfrwt beam="1">  1        1 0.89590038E-01 0.40578858E+03</pdfrwt>
<pdfrwt beam="2">  1       -1 0.45703757E-01 0.40578858E+03</pdfrwt>
<totfact> 0.17693216E+02</totfact>
</mgrwt>
</event>
<event>
 4    1  0.2454657E-002  0.4422590E+03  0.7818608E-02  0.1030056E+00
         -2   -1    0    0    0  501 -0.00000000000E+00  0.00000000000E+00  0.29540316267E+03  0.29540316267E+03  0.00000000000E+00 0.  1.
          2   -1    0    0  502    0  0.00000000000E+00 -0.00000000000E+00 -0.75629303321E+03  0.75629303321E+03  0.00000000000E+00 0. -1.
    9000007    1    1    2  502    0  0.18820432626E+03 -0.13120577744E+02 -0.44889679206E+02  0.44453132767E+03  0.40000000000E+03 0.  1.
   -9000007    1    1    2    0  501 -0.18820432626E+03  0.13120577744E+02 -0.41600019134E+03  0.60716486820E+03  0.40000000000E+03 0. -1.
<mgrwt>
<rscale>  2 0.44225899E+03</rscale>
<asrwt>0</asrwt>
<pdfrwt beam="1">  1        2 0.11635278E+00 0.44225899E+03</pdfrwt>
<pdfrwt beam="2">  1       -2 0.45446640E-01 0.44225899E+03</pdfrwt>
<totfact> 0.17564103E+02</totfact>
</mgrwt>
</event>
<event>
 4    1  0.2454657E-002  0.4040808E+03  0.7818608E-02  0.1042376E+00
          1   -1    0    0  502    0  0.00000000000E+00  0.00000000000E+00  0.46884825816E+03  0.46884825816E+03  0.00000000000E+00 0. -1.
         -1   -1    0    0    0  501 -0.00000000000E+00 -0.00000000000E+00 -0.36350786361E+03  0.36350786361E+03  0.00000000000E+00 0.  1.
    9000007    1    1    2  502    0  0.32693930535E+02  0.47036181114E+02  0.13790572805E+03  0.42696520380E+03  0.40000000000E+03 0. -1.
   -9000007    1    1    2    0  501 -0.32693930535E+02 -0.47036181114E+02 -0.32565333503E+02  0.40539091797E+03  0.40000000000E+03 0.  1.
<mgrwt>
<rscale>  2 0.40408080E+03</rscale>
<asrwt>0</asrwt>
<pdfrwt beam="1">  1        1 0.72130501E-01 0.40408080E+03</pdfrwt>
<pdfrwt beam="2">  1       -1 0.55924287E-01 0.40408080E+03</pdfrwt>
<totfact> 0.16292127E+02</totfact>
</mgrwt>
</event>
<event>
 4    1  0.2454657E-002  0.4404487E+03  0.7818608E-02  0.1030609E+00
         -1   -1    0    0    0  501 -0.00000000000E+00  0.00000000000E+00  0.31779870889E+03  0.31779870889E+03  0.00000000000E+00 0. -1.
          1   -1    0    0  502    0  0.00000000000E+00 -0.00000000000E+00 -0.62964902941E+03  0.62964902941E+03  0.00000000000E+00 0.  1.
    9000007    1    1    2  502    0 -0.23628897154E+02 -0.18285723019E+03 -0.73169416046E+02  0.44648499959E+03  0.40000000000E+03 0.  1.
   -9000007    1    1    2    0  501  0.23628897154E+02  0.18285723019E+03 -0.23868090448E+03  0.50096273871E+03  0.40000000000E+03 0.  1.
<mgrwt>
<rscale>  2 0.44044874E+03</rscale>
<asrwt>0</asrwt>
<pdfrwt beam="1">  1        1 0.96869081E-01 0.44044874E+03</pdfrwt>
<pdfrwt beam="2">  1       -1 0.48892109E-01 0.44044874E+03</pdfrwt>
<totfact> 0.13927930E+02</totfact>
</mgrwt>
</event>
<event>
 4    1  0.2454657E-002  0.5189984E+03  0.7818608E-02  0.1008936E+00
         -2   -1    0    0    0  501 -0.00000000000E+00  0.00000000000E+00  0.94985641949E+02  0.94985641949E+02  0.00000000000E+00 0.  1.
          2   -1    0    0  502    0  0.00000000000E+00 -0.00000000000E+00 -0.28381820149E+04  0.28381820149E+04  0.00000000000E+00 0. -1.
    9000007    1    1    2  502    0 -0.31618269628E+03 -0.96890708605E+02 -0.13290193031E+04  0.14267626344E+04  0.40000000000E+03 0. -1.
   -9000007    1    1    2    0  501  0.31618269628E+03  0.96890708605E+02 -0.14141770698E+04  0.15064050225E+04  0.40000000000E+03 0.  1.
<mgrwt>
<rscale>  2 0.51899837E+03</rscale>
<asrwt>0</asrwt>
<pdfrwt beam="1">  1        2 0.43664332E+00 0.51899837E+03</pdfrwt>
<pdfrwt beam="2">  1       -2 0.14613178E-01 0.51899837E+03</pdfrwt>
<totfact> 0.87290062E+01</totfact>
</mgrwt>
</event>
<event>
 4    1  0.2454657E-002  0.4309920E+03  0.7818608E-02  0.1033547E+00
          1   -1    0    0  502    0  0.00000000000E+00  0.00000000000E+00  0.75096884421E+03  0.75096884421E+03  0.00000000000E+00 0. -1.
         -1   -1    0    0    0  501 -0.00000000000E+00 -0.00000000000E+00 -0.24944751985E+03  0.24944751985E+03  0.00000000000E+00 0.  1.
    9000007    1    1    2  502    0  0.12736402165E+03  0.97634526859E+02  0.29660071191E+03  0.52318837635E+03  0.40000000000E+03 0.  1.
   -9000007    1    1    2    0  501 -0.12736402165E+03 -0.97634526859E+02  0.20492061245E+03  0.47722798771E+03  0.40000000000E+03 0. -1.
<mgrwt>
<rscale>  2 0.43099199E+03</rscale>
<asrwt>0</asrwt>
<pdfrwt beam="1">  1        1 0.11553367E+00 0.43099199E+03</pdfrwt>
<pdfrwt beam="2">  1       -1 0.38376542E-01 0.43099199E+03</pdfrwt>
<totfact> 0.16714056E+02</totfact>
</mgrwt>
</event>
<event>
 4    1  0.2454657E-002  0.4337542E+03  0.7818608E-02  0.1032681E+00
         -2   -1    0    0    0  501 -0.00000000000E+00  0.00000000000E+00  0.15633384358E+03  0.15633384358E+03  0.00000000000E+00 0. -1.
          2   -1    0    0  502    0  0.00000000000E+00 -0.00000000000E+00 -0.12313688841E+04  0.12313688841E+04  0.00000000000E+00 0.  1.
    9000007    1    1    2  502    0  0.16754426472E+03  0.84648272184E+01 -0.64196153027E+03  0.77476276388E+03  0.40000000000E+03 0. -1.
   -9000007    1    1    2    0  501 -0.16754426472E+03 -0.84648272184E+01 -0.43307351024E+03  0.61293996379E+03  0.40000000000E+03 0. -1.
<mgrwt>
<rscale>  2 0.43375423E+03</rscale>
<asrwt>0</asrwt>
<pdfrwt beam="1">  1        2 0.18944137E+00 0.43375423E+03</pdfrwt>
<pdfrwt beam="2">  1       -2 0.24051360E-01 0.43375423E+03</pdfrwt>
<totfact> 0.28850856E+02</totfact>
</mgrwt>
</event>
<event>
 4    1  0.2454657E-002  0.4624961E+03  0.7818608E-02  0.1024060E+00
         -2   -1    0    0    0  501 -0.00000000000E+00  0.00000000000E+00  0.21220837246E+03  0.21220837246E+03  0.00000000000E+00 0. -1.
          2   -1    0    0  502    0  0.00000000000E+00 -0.00000000000E+00 -0.11098322422E+04  0.11098322422E+04  0.00000000000E+00 0.  1.
    9000007    1    1    2  502    0 -0.19777060961E+03 -0.12161192269E+03 -0.24856650919E+03  0.52505998063E+03  0.40000000000E+03 0. -1.
   -9000007    1    1    2    0  501  0.19777060961E+03  0.12161192269E+03 -0.64905736059E+03  0.79698063408E+03  0.40000000000E+03 0.  1.
<mgrwt>
<rscale>  2 0.46249613E+03</rscale>
<asrwt>0</asrwt>
<pdfrwt beam="1">  1        2 0.17074342E+00 0.46249613E+03</pdfrwt>
<pdfrwt beam="2">  1       -2 0.32647442E-01 0.46249613E+03</pdfrwt>
<totfact> 0.19435209E+02</totfact>
</mgrwt>
</event>
<event>
 4    1  0.2454657E-002  0.4985668E+03  0.7818608E-02  0.1014154E+00
          3   -1    0    0  502    0  0.00000000000E+00  0.00000000000E+00  0.28692019851E+03  0.28692019851E+03  0.00000000000E+00 0. -1.
         -3   -1    0    0    0  501 -0.00000000000E+00 -0.00000000000E+00 -0.11169802556E+04  0.11169802556E+04  0.00000000000E+00 0.  1.
    9000007    1    1    2  502    0 -0.27410281573E+03 -0.11591570770E+03 -0.82512966404E+02  0.50534858712E+03  0.40000000000E+03 0. -1.
   -9000007    1    1    2    0  501  0.27410281573E+03  0.11591570770E+03 -0.74754709067E+03  0.89855186698E+03  0.40000000000E+03 0.  1.
<mgrwt>
<rscale>  2 0.49856675E+03</rscale>
<asrwt>0</asrwt>
<pdfrwt beam="1">  1        3 0.44141570E-01 0.49856675E+03</pdfrwt>
<pdfrwt beam="2">  1       -3 0.17184311E+00 0.49856675E+03</pdfrwt>
<totfact> 0.30218763E+00</totfact>
</mgrwt>
</event>
<event>
 4    1  0.2454657E-002  0.4100112E+03  0.7818608E-02  0.1040367E+00
          2   -1    0    0  502    0  0.00000000000E+00  0.00000000000E+00  0.31299003707E+04  0.31299003707E+04  0.00000000000E+00 0. -1.
         -2   -1    0    0    0  501 -0.00000000000E+00 -0.00000000000E+00 -0.53773066938E+02  0.53773066938E+02  0.00000000000E+00 0.  1.
    9000007    1    1    2  502    0  0.25390613399E+02 -0.86397291639E+02  0.15922704720E+04  0.16442124045E+04  0.40000000000E+03 0.  1.
   -9000007    1    1    2    0  501 -0.25390613399E+02  0.86397291639E+02  0.14838568318E+04  0.15394610331E+04  0.40000000000E+03 0. -1.
<mgrwt>
<rscale>  2 0.41001119E+03</rscale>
<asrwt>0</asrwt>
<pdfrwt beam="1">  1        2 0.48152299E+00 0.41001119E+03</pdfrwt>
<pdfrwt beam="2">  1       -2 0.82727820E-02 0.41001119E+03</pdfrwt>
<totfact> 0.15049250E+02</totfact>
</mgrwt>
</event>
<event>
 4    1  0.2454657E-002  0.4014376E+03  0.7818608E-02  0.1043283E+00
         -2   -1    0    0    0  501 -0.00000000000E+00  0.00000000000E+00  0.60694373607E+03  0.60694373607E+03  0.00000000000E+00 0.  1.
          2   -1    0    0  502    0  0.00000000000E+00 -0.00000000000E+00 -0.26674549204E+03  0.26674549204E+03  0.00000000000E+00 0. -1.
    9000007    1    1    2  502    0 -0.28718256612E+02  0.18093919618E+02  0.19977982504E+03  0.44840172466E+03  0.40000000000E+03 0.  1.
   -9000007    1    1    2    0  501  0.28718256612E+02 -0.18093919618E+02  0.14041841900E+03  0.42528750344E+03  0.40000000000E+03 0. -1.
<mgrwt>
<rscale>  2 0.40143758E+03</rscale>
<asrwt>0</asrwt>
<pdfrwt beam="1">  1        2 0.41037768E-01 0.40143758E+03</pdfrwt>
<pdfrwt beam="2">  1       -2 0.93375959E-01 0.40143758E+03</pdfrwt>
<totfact> 0.12468200E+02</totfact>
</mgrwt>
</event>
<event>
 4    1  0.2454657E-002  0.5194634E+03  0.7818608E-02  0.1008820E+00
         -2   -1    0    0    0  501 -0.00000000000E+00  0.00000000000E+00  0.16401374346E+03  0.16401374346E+03  0.00000000000E+00 0.  1.
          2   -1    0    0  502    0  0.00000000000E+00 -0.00000000000E+00 -0.18926214517E+04  0.18926214517E+04  0.00000000000E+00 0. -1.
    9000007    1    1    2  502    0  0.37498832441E+02  0.32929632406E+03 -0.49253109618E+03  0.71584154125E+03  0.40000000000E+03 0.  1.
   -9000007    1    1    2    0  501 -0.37498832441E+02 -0.32929632406E+03 -0.12360766120E+04  0.13407936539E+04  0.40000000000E+03 0. -1.
<mgrwt>
<rscale>  2 0.51946341E+03</rscale>
<asrwt>0</asrwt>
<pdfrwt beam="1">  1        2 0.29117252E+00 0.51946341E+03</pdfrwt>
<pdfrwt beam="2">  1       -2 0.25232884E-01 0.51946341E+03</pdfrwt>
<totfact> 0.11369380E+02</totfact>
</mgrwt>
</event>
<event>
 4    1  0.2454657E-002  0.5018631E+03  0.7818608E-02  0.1013294E+00
         -2   -1    0    0    0  501 -0.00000000000E+00  0.00000000000E+00  0.14619642053E+03  0.14619642053E+03  0.00000000000E+00 0. -1.
          2   -1    0    0  502    0  0.00000000000E+00 -0.00000000000E+00 -0.18498392999E+04  0.18498392999E+04  0.00000000000E+00 0.  1.
    9000007    1    1    2  502    0 -0.15106145395E+03  0.26276795930E+03 -0.59027565570E+03  0.77478507537E+03  0.40000000000E+03 0. -1.
   -9000007    1    1    2    0  501  0.15106145395E+03 -0.26276795930E+03 -0.11133672237E+04  0.12212506451E+04  0.40000000000E+03 0.  1.
<mgrwt>
<rscale>  2 0.50186309E+03</rscale>
<asrwt>0</asrwt>
<pdfrwt beam="1">  1        2 0.28459067E+00 0.50186309E+03</pdfrwt>
<pdfrwt beam="2">  1       -2 0.22491756E-01 0.50186309E+03</pdfrwt>
<totfact> 0.14747787E+02</totfact>
</mgrwt>
</event>
<event>
 4    1  0.2454657E-002  0.4099925E+03  0.7818608E-02  0.1040374E+00
          1   -1    0    0  502    0  0.00000000000E+00  0.00000000000E+00  0.14923948225E+04  0.14923948225E+04  0.00000000000E+00 0.  1.
         -1   -1    0    0    0  501 -0.00000000000E+00 -0.00000000000E+00 -0.11417591601E+03  0.11417591601E+03  0.00000000000E+00 0. -1.
    9000007    1    1    2  502    0  0.77092921391E+02  0.46373998974E+02  0.59574895267E+03  0.72319477385E+03  0.40000000000E+03 0. -1.
   -9000007    1    1    2    0  501 -0.77092921391E+02 -0.46373998974E+02  0.78246995378E+03  0.88337596462E+03  0.40000000000E+03 0.  1.
<mgrwt>
<rscale>  2 0.40999252E+03</rscale>
<asrwt>0</asrwt>
<pdfrwt beam="1">  1        1 0.22959919E+00 0.40999252E+03</pdfrwt>
<pdfrwt beam="2">  1       -1 0.17565527E-01 0.40999252E+03</pdfrwt>
<totfact> 0.17741495E+02</totfact>
</mgrwt>
</event>
<event>
 4    1  0.2454657E-002  0.4256804E+03  0.7818608E-02  0.1035233E+00
         -2   -1    0    0    0  501 -0.00000000000E+00  0.00000000000E+00  0.14772790142E+03  0.14772790142E+03  0.00000000000E+00 0.  1.
          2   -1    0    0  502    0  0.00000000000E+00 -0.00000000000E+00 -0.12628649996E+04  0.12628649996E+04  0.00000000000E+00 0. -1.
    9000007    1    1    2  502    0 -0.12267204934E+03  0.78456158995E+02 -0.67707914174E+03  0.79977494631E+03  0.40000000000E+03 0. -1.
   -9000007    1    1    2    0  501  0.12267204934E+03 -0.78456158995E+02 -0.43805795641E+03  0.61081795467E+03  0.40000000000E+03 0.  1.
<mgrwt>
<rscale>  2 0.42568040E+03</rscale>
<asrwt>0</asrwt>
<pdfrwt beam="1">  1        2 0.19428693E+00 0.42568040E+03</pdfrwt>
<pdfrwt beam="2">  1       -2 0.22727368E-01 0.42568040E+03</pdfrwt>
<totfact> 0.30618922E+02</totfact>
</mgrwt>
</event>
<event>
 4    1  0.2454657E-002  0.4671660E+03  0.7818608E-02  0.1022723E+00
         -1   -1    0    0    0  501 -0.00000000000E+00  0.00000000000E+00  0.31532818374E+03  0.31532818374E+03  0.00000000000E+00 0.  1.
          1   -1    0    0  502    0  0.00000000000E+00 -0.00000000000E+00 -0.10776082488E+04  0.10776082488E+04  0.00000000000E+00 0. -1.
    9000007    1    1    2  502    0  0.22382920789E+03 -0.90247387819E+02  0.35420304228E+02  0.46850688710E+03  0.40000000000E+03 0.  1.
   -9000007    1    1    2    0  501 -0.22382920789E+03  0.90247387819E+02 -0.79770036927E+03  0.92442954542E+03  0.40000000000E+03 0. -1.
<mgrwt>
<rscale>  2 0.46716604E+03</rscale>
<asrwt>0</asrwt>
<pdfrwt beam="1">  1        1 0.16578589E+00 0.46716604E+03</pdfrwt>
<pdfrwt beam="2">  1       -1 0.48512028E-01 0.46716604E+03</pdfrwt>
<totfact> 0.59377801E+01</totfact>
</mgrwt>
</event>
<event>
 4    1  0.2454657E-002  0.4244296E+03  0.7818608E-02  0.1035634E+00
          2   -1    0    0  502    0  0.00000000000E+00  0.00000000000E+00  0.47279909787E+03  0.47279909787E+03  0.00000000000E+00 0. -1.
         -2   -1    0    0    0  501 -0.00000000000E+00 -0.00000000000E+00 -0.38101168189E+03  0.38101168189E+03  0.00000000000E+00 0.  1.
    9000007    1    1    2  502    0  0.10534113928E+03  0.95098408879E+02  0.44655074339E+02  0.42677223277E+03  0.40000000000E+03 0.  1.
   -9000007    1    1    2    0  501 -0.10534113928E+03 -0.95098408879E+02  0.47132341639E+02  0.42703854700E+03  0.40000000000E+03 0. -1.
<mgrwt>
<rscale>  2 0.42442957E+03</rscale>
<asrwt>0</asrwt>
<pdfrwt beam="1">  1        2 0.72738323E-01 0.42442957E+03</pdfrwt>
<pdfrwt beam="2">  1       -2 0.58617182E-01 0.42442957E+03</pdfrwt>
<totfact> 0.18354867E+02</totfact>
</mgrwt>
</event>
<event>
 4    1  0.2454657E-002  0.4922541E+03  0.7818608E-02  0.1015821E+00
         -2   -1    0    0    0  501 -0.00000000000E+00  0.00000000000E+00  0.17287190546E+03  0.17287190546E+03  0.00000000000E+00 0.  1.
          2   -1    0    0  502    0  0.00000000000E+00 -0.00000000000E+00 -0.15982783480E+04  0.15982783480E+04  0.00000000000E+00 0. -1.
    9000007    1    1    2  502    0  0.40559704064E+02 -0.28402288332E+03 -0.40212571770E+03  0.63562503151E+03  0.40000000000E+03 0.  1.
   -9000007    1    1    2    0  501 -0.40559704064E+02  0.28402288332E+03 -0.10232807248E+04  0.11355252219E+04  0.40000000000E+03 0. -1.
<mgrwt>
<rscale>  2 0.49225409E+03</rscale>
<asrwt>0</asrwt>
<pdfrwt beam="1">  1        2 0.24588898E+00 0.49225409E+03</pdfrwt>
<pdfrwt beam="2">  1       -2 0.26595677E-01 0.49225409E+03</pdfrwt>
<totfact> 0.14961580E+02</totfact>
</mgrwt>
</event>
<event>
 4    1  0.2454657E-002  0.4065923E+03  0.7818608E-02  0.1041521E+00
         -1   -1    0    0    0  501 -0.00000000000E+00  0.00000000000E+00  0.62639674733E+02  0.62639674733E+02  0.00000000000E+00 0. -1.
          1   -1    0    0  502    0  0.00000000000E+00 -0.00000000000E+00 -0.26715698436E+04  0.26715698436E+04  0.00000000000E+00 0.  1.
    9000007    1    1    2  502    0  0.71975788943E+02  0.11694695541E+02 -0.14549986332E+04  0.15107409780E+04  0.40000000000E+03 0. -1.
   -9000007    1    1    2    0  501 -0.71975788943E+02 -0.11694695541E+02 -0.11539315357E+04  0.12234685403E+04  0.40000000000E+03 0. -1.
<mgrwt>
<rscale>  2 0.40659228E+03</rscale>
<asrwt>0</asrwt>
<pdfrwt beam="1">  1        1 0.41101073E+00 0.40659228E+03</pdfrwt>
<pdfrwt beam="2">  1       -1 0.96368734E-02 0.40659228E+03</pdfrwt>
<totfact> 0.75964705E+01</totfact>
</mgrwt>
</event>
<event>
 4    1  0.2454657E-002  0.4174035E+03  0.7818608E-02  0.1037915E+00
          2   -1    0    0  502    0  0.00000000000E+00  0.00000000000E+00  0.27102660458E+04  0.27102660458E+04  0.00000000000E+00 0.  1.
         -2   -1    0    0    0  501 -0.00000000000E+00 -0.00000000000E+00 -0.11859536484E+03  0.11859536484E+03  0.00000000000E+00 0. -1.
    9000007    1    1    2  502    0 -0.96501984921E+02 -0.70093382420E+02  0.33865296904E+03  0.53750492909E+03  0.40000000000E+03 0. -1.
   -9000007    1    1    2    0  501  0.96501984921E+02  0.70093382420E+02  0.22530177119E+04  0.22913564816E+04  0.40000000000E+03 0.  1.
<mgrwt>
<rscale>  2 0.41740354E+03</rscale>
<asrwt>0</asrwt>
<pdfrwt beam="1">  1        2 0.41696396E+00 0.41740354E+03</pdfrwt>
<pdfrwt beam="2">  1       -2 0.18245443E-01 0.41740354E+03</pdfrwt>
<totfact> 0.72658882E+01</totfact>
</mgrwt>
</event>
<event>
 4    1  0.2454657E-002  0.4529106E+03  0.7818608E-02  0.1026858E+00
          1   -1    0    0  502    0  0.00000000000E+00  0.00000000000E+00  0.73275255230E+03  0.73275255230E+03  0.00000000000E+00 0.  1.
         -1   -1    0    0    0  501 -0.00000000000E+00 -0.00000000000E+00 -0.29078338481E+03  0.29078338481E+03  0.00000000000E+00 0. -1.
    9000007    1    1    2  502    0 -0.15870774865E+03  0.14120865552E+03  0.31980248750E+03  0.55443815245E+03  0.40000000000E+03 0.  1.
   -9000007    1    1    2    0  501  0.15870774865E+03 -0.14120865552E+03  0.12216667999E+03  0.46909778466E+03  0.40000000000E+03 0. -1.
<mgrwt>
<rscale>  2 0.45291062E+03</rscale>
<asrwt>0</asrwt>
<pdfrwt beam="1">  1        1 0.11273116E+00 0.45291062E+03</pdfrwt>
<pdfrwt beam="2">  1       -1 0.44735906E-01 0.45291062E+03</pdfrwt>
<totfact> 0.13111363E+02</totfact>
</mgrwt>
</event>
<event>
 4    1  0.2454657E-002  0.4099010E+03  0.7818608E-02  0.1040404E+00
         -1   -1    0    0    0  501 -0.00000000000E+00  0.00000000000E+00  0.31613845946E+03  0.31613845946E+03  0.00000000000E+00 0. -1.
          1   -1    0    0  502    0  0.00000000000E+00 -0.00000000000E+00 -0.64316594978E+03  0.64316594978E+03  0.00000000000E+00 0.  1.
    9000007    1    1    2  502    0  0.89387375901E+02  0.53621659791E+01  0.36370714797E+02  0.41151146362E+03  0.40000000000E+03 0. -1.
   -9000007    1    1    2    0  501 -0.89387375901E+02 -0.53621659791E+01 -0.36339820511E+03  0.54779294562E+03  0.40000000000E+03 0.  1.
<mgrwt>
<rscale>  2 0.40990103E+03</rscale>
<asrwt>0</asrwt>
<pdfrwt beam="1">  1        1 0.98948607E-01 0.40990103E+03</pdfrwt>
<pdfrwt beam="2">  1       -1 0.48636686E-01 0.40990103E+03</pdfrwt>
<totfact> 0.13686557E+02</totfact>
</mgrwt>
</event>
<event>
 4    1  0.2454657E-002  0.5858171E+03  0.7818608E-02  0.9935276E-01
          2   -1    0    0  502    0  0.00000000000E+00  0.00000000000E+00  0.48775677407E+03  0.48775677407E+03  0.00000000000E+00 0.  1.
         -2   -1    0    0    0  501 -0.00000000000E+00 -0.00000000000E+00 -0.74352349735E+03  0.74352349735E+03  0.00000000000E+00 0. -1.
    9000007    1    1    2  502    0 -0.14559160756E+03  0.40247325510E+03  0.14788651418E+02  0.58600370432E+03  0.40000000000E+03 0.  1.
   -9000007    1    1    2    0  501  0.14559160756E+03 -0.40247325510E+03 -0.27055537470E+03  0.64527656710E+03  0.40000000000E+03 0. -1.
<mgrwt>
<rscale>  2 0.58581707E+03</rscale>
<asrwt>0</asrwt>
<pdfrwt beam="1">  1        2 0.75039503E-01 0.58581707E+03</pdfrwt>
<pdfrwt beam="2">  1       -2 0.11438823E+00 0.58581707E+03</pdfrwt>
<totfact> 0.38824918E+01</totfact>
</mgrwt>
</event>
<event>
 4    1  0.2454657E-002  0.5616750E+03  0.7818608E-02  0.9988272E-01
          3   -1    0    0  502    0  0.00000000000E+00  0.00000000000E+00  0.38264751186E+03  0.38264751186E+03  0.00000000000E+00 0. -1.
         -3   -1    0    0    0  501 -0.00000000000E+00 -0.00000000000E+00 -0.10545467970E+04  0.10545467970E+04  0.00000000000E+00 0.  1.
    9000007    1    1    2  502    0 -0.33324764525E+03  0.21077196776E+03 -0.67160635464E+03  0.87551922369E+03  0.40000000000E+03 0.  1.
   -9000007    1    1    2    0  501  0.33324764525E+03 -0.21077196776E+03 -0.29293047524E+00  0.56167508514E+03  0.40000000000E+03 0. -1.
<mgrwt>
<rscale>  2 0.56167501E+03</rscale>
<asrwt>0</asrwt>
<pdfrwt beam="1">  1        3 0.58868847E-01 0.56167501E+03</pdfrwt>
<pdfrwt beam="2">  1       -3 0.16223797E+00 0.56167501E+03</pdfrwt>
<totfact> 0.19468761E+00</totfact>
</mgrwt>
</event>
<event>
 4    1  0.2454657E-002  0.5473054E+03  0.7818608E-02  0.1002120E+00
         -4   -1    0    0    0  501 -0.00000000000E+00  0.00000000000E+00  0.16724905197E+03  0.16724905197E+03  0.00000000000E+00 0. -1.
          4   -1    0    0  502    0  0.00000000000E+00 -0.00000000000E+00 -0.18040533234E+04  0.18040533234E+04  0.00000000000E+00 0.  1.
    9000007    1    1    2  502    0  0.26924707872E+03  0.25893858198E+03 -0.90224121973E+03  0.10552641362E+04  0.40000000000E+03 0. -1.
   -9000007    1    1    2    0  501 -0.26924707872E+03 -0.25893858198E+03 -0.73456305168E+03  0.91603823912E+03  0.40000000000E+03 0. -1.
<mgrwt>
<rscale>  2 0.54730538E+03</rscale>
<asrwt>0</asrwt>
<pdfrwt beam="1">  1        4 0.27754667E+00 0.54730538E+03</pdfrwt>
<pdfrwt beam="2">  1       -4 0.25730623E-01 0.54730538E+03</pdfrwt>
<totfact> 0.12536704E+00</totfact>
</mgrwt>
</event>
<event>
 4    1  0.2454657E-002  0.4055896E+03  0.7818608E-02  0.1041861E+00
          1   -1    0    0  502    0  0.00000000000E+00  0.00000000000E+00  0.40160692039E+03  0.40160692039E+03  0.00000000000E+00 0. -1.
         -1   -1    0    0    0  501 -0.00000000000E+00 -0.00000000000E+00 -0.55044968676E+03  0.55044968676E+03  0.00000000000E+00 0.  1.
    9000007    1    1    2  502    0 -0.66632581524E+02 -0.79364152052E+01  0.16636608905E+03  0.43838403620E+03  0.40000000000E+03 0. -1.
   -9000007    1    1    2    0  501  0.66632581524E+02  0.79364152052E+01 -0.31520885542E+03  0.51367257095E+03  0.40000000000E+03 0.  1.
<mgrwt>
<rscale>  2 0.40558956E+03</rscale>
<asrwt>0</asrwt>
<pdfrwt beam="1">  1        1 0.61785681E-01 0.40558956E+03</pdfrwt>
<pdfrwt beam="2">  1       -1 0.84684567E-01 0.40558956E+03</pdfrwt>
<totfact> 0.86521650E+01</totfact>
</mgrwt>
</event>
<event>
 4    1  0.2454657E-002  0.4441472E+03  0.7818608E-02  0.1029482E+00
          2   -1    0    0  502    0  0.00000000000E+00  0.00000000000E+00  0.10743493177E+04  0.10743493177E+04  0.00000000000E+00 0. -1.
         -2   -1    0    0    0  501 -0.00000000000E+00 -0.00000000000E+00 -0.19880912021E+03  0.19880912021E+03  0.00000000000E+00 0.  1.
    9000007    1    1    2  502    0  0.10191127835E+03  0.16395365461E+03  0.26178686559E+03  0.51555705068E+03  0.40000000000E+03 0.  1.
   -9000007    1    1    2    0  501 -0.10191127835E+03 -0.16395365461E+03  0.61375333189E+03  0.75760138723E+03  0.40000000000E+03 0.  1.
<mgrwt>
<rscale>  2 0.44414717E+03</rscale>
<asrwt>0</asrwt>
<pdfrwt beam="1">  1        2 0.16528451E+00 0.44414717E+03</pdfrwt>
<pdfrwt beam="2">  1       -2 0.30586019E-01 0.44414717E+03</pdfrwt>
<totfact> 0.23086150E+02</totfact>
</mgrwt>
</event>
<event>
 4    1  0.2454657E-002  0.4562527E+03  0.7818608E-02  0.1025874E+00
         -1   -1    0    0    0  501 -0.00000000000E+00  0.00000000000E+00  0.30731449974E+03  0.30731449974E+03  0.00000000000E+00 0.  1.
          1   -1    0    0  502    0  0.00000000000E+00 -0.00000000000E+00 -0.81347588105E+03  0.81347588105E+03  0.00000000000E+00 0. -1.
    9000007    1    1    2  502    0 -0.21727053854E+03 -0.30983941509E+02 -0.23858851024E+02  0.45687606232E+03  0.40000000000E+03 0.  1.
   -9000007    1    1    2    0  501  0.21727053854E+03  0.30983941509E+02 -0.48230253029E+03  0.66391431847E+03  0.40000000000E+03 0. -1.
<mgrwt>
<rscale>  2 0.45625266E+03</rscale>
<asrwt>0</asrwt>
<pdfrwt beam="1">  1        1 0.12515013E+00 0.45625266E+03</pdfrwt>
<pdfrwt beam="2">  1       -1 0.47279154E-01 0.45625266E+03</pdfrwt>
<totfact> 0.10066457E+02</totfact>
</mgrwt>
</event>
<event>
 4    1  0.2454657E-002  0.4725830E+03  0.7818608E-02  0.1021194E+00
          1   -1    0    0  502    0  0.00000000000E+00  0.00000000000E+00  0.13216566678E+04  0.13216566678E+04  0.00000000000E+00 0.  1.
         -1   -1    0    0    0  501 -0.00000000000E+00 -0.00000000000E+00 -0.26283695136E+03  0.26283695136E+03  0.00000000000E+00 0. -1.
    9000007    1    1    2  502    0 -0.17950446786E+03  0.17638833596E+03  0.55987801692E+02  0.47588794162E+03  0.40000000000E+03 0. -1.
   -9000007    1    1    2    0  501  0.17950446786E+03 -0.17638833596E+03  0.10028319148E+04  0.11086056776E+04  0.40000000000E+03 0.  1.
<mgrwt>
<rscale>  2 0.47258301E+03</rscale>
<asrwt>0</asrwt>
<pdfrwt beam="1">  1        1 0.20333179E+00 0.47258301E+03</pdfrwt>
<pdfrwt beam="2">  1       -1 0.40436455E-01 0.47258301E+03</pdfrwt>
<totfact> 0.55437475E+01</totfact>
</mgrwt>
</event>
<event>
 4    1  0.2454657E-002  0.4337396E+03  0.7818608E-02  0.1032685E+00
          1   -1    0    0  502    0  0.00000000000E+00  0.00000000000E+00  0.34866088750E+04  0.34866088750E+04  0.00000000000E+00 0.  1.
         -1   -1    0    0    0  501 -0.00000000000E+00 -0.00000000000E+00 -0.65990874328E+02  0.65990874328E+02  0.00000000000E+00 0. -1.
    9000007    1    1    2  502    0  0.87920212916E+02  0.14282896548E+03  0.24688183192E+04  0.25066300027E+04  0.40000000000E+03 0.  1.
   -9000007    1    1    2    0  501 -0.87920212916E+02 -0.14282896548E+03  0.95179968153E+03  0.10459697467E+04  0.40000000000E+03 0. -1.
<mgrwt>
<rscale>  2 0.43373964E+03</rscale>
<asrwt>0</asrwt>
<pdfrwt beam="1">  1        1 0.53640122E+00 0.43373964E+03</pdfrwt>
<pdfrwt beam="2">  1       -1 0.10152445E-01 0.43373964E+03</pdfrwt>
<totfact> 0.18092964E+01</totfact>
</mgrwt>
</event>
<event>
 4    1  0.2454657E-002  0.4062465E+03  0.7818608E-02  0.1041638E+00
         -2   -1    0    0    0  501 -0.00000000000E+00  0.00000000000E+00  0.21600369328E+03  0.21600369328E+03  0.00000000000E+00 0. -1.
          2   -1    0    0  502    0  0.00000000000E+00 -0.00000000000E+00 -0.97121598354E+03  0.97121598354E+03  0.00000000000E+00 0.  1.
    9000007    1    1    2  502    0 -0.35401747731E+02  0.61505727143E+02 -0.10344297262E+03  0.41920959769E+03  0.40000000000E+03 0. -1.
   -9000007    1    1    2    0  501  0.35401747731E+02 -0.61505727143E+02 -0.65176931765E+03  0.76801007913E+03  0.40000000000E+03 0.  1.
<mgrwt>
<rscale>  2 0.40624652E+03</rscale>
<asrwt>0</asrwt>
<pdfrwt beam="1">  1        2 0.14941784E+00 0.40624652E+03</pdfrwt>
<pdfrwt beam="2">  1       -2 0.33231337E-01 0.40624652E+03</pdfrwt>
<totfact> 0.23010492E+02</totfact>
</mgrwt>
</event>
<event>
 4    1  0.2454657E-002  0.4221875E+03  0.7818608E-02  0.1036357E+00
         -1   -1    0    0    0  501 -0.00000000000E+00  0.00000000000E+00  0.13411446767E+03  0.13411446767E+03  0.00000000000E+00 0. -1.
          1   -1    0    0  502    0  0.00000000000E+00 -0.00000000000E+00 -0.14892629266E+04  0.14892629266E+04  0.00000000000E+00 0.  1.
    9000007    1    1    2  502    0 -0.12060454089E+03  0.60801515108E+02 -0.94381734873E+03  0.10339407465E+04  0.40000000000E+03 0.  1.
   -9000007    1    1    2    0  501  0.12060454089E+03 -0.60801515108E+02 -0.41133111026E+03  0.58943664781E+03  0.40000000000E+03 0. -1.
<mgrwt>
<rscale>  2 0.42218749E+03</rscale>
<asrwt>0</asrwt>
<pdfrwt beam="1">  1        1 0.22911737E+00 0.42218749E+03</pdfrwt>
<pdfrwt beam="2">  1       -1 0.20632995E-01 0.42218749E+03</pdfrwt>
<totfact> 0.13667647E+02</totfact>
</mgrwt>
</event>
<event>
 4    1  0.2454657E-002  0.4088937E+03  0.7818608E-02  0.1040743E+00
          2   -1    0    0  502    0  0.00000000000E+00  0.00000000000E+00  0.17613615747E+03  0.17613615747E+03  0.00000000000E+00 0. -1.
         -2   -1    0    0    0  501 -0.00000000000E+00 -0.00000000000E+00 -0.95676275736E+03  0.95676275736E+03  0.00000000000E+00 0.  1.
    9000007    1    1    2  502    0  0.23939863190E+02 -0.81369021266E+02 -0.34005760349E+03  0.53182065432E+03  0.40000000000E+03 0.  1.
   -9000007    1    1    2    0  501 -0.23939863190E+02  0.81369021266E+02 -0.44056899640E+03  0.60107826051E+03  0.40000000000E+03 0. -1.
<mgrwt>
<rscale>  2 0.40889367E+03</rscale>
<asrwt>0</asrwt>
<pdfrwt beam="1">  1        2 0.27097871E-01 0.40889367E+03</pdfrwt>
<pdfrwt beam="2">  1       -2 0.14719427E+00 0.40889367E+03</pdfrwt>
<totfact> 0.64960025E+01</totfact>
</mgrwt>
</event>
<event>
 4    1  0.2454657E-002  0.4050022E+03  0.7818608E-02  0.1042061E+00
          2   -1    0    0  502    0  0.00000000000E+00  0.00000000000E+00  0.24754103323E+04  0.24754103323E+04  0.00000000000E+00 0.  1.
         -2   -1    0    0    0  501 -0.00000000000E+00 -0.00000000000E+00 -0.67303621541E+02  0.67303621541E+02  0.00000000000E+00 0. -1.
    9000007    1    1    2  502    0 -0.35155658469E+02 -0.52828483285E+02  0.10459255934E+04  0.11216002478E+04  0.40000000000E+03 0. -1.
   -9000007    1    1    2    0  501  0.35155658469E+02  0.52828483285E+02  0.13621811173E+04  0.14211137060E+04  0.40000000000E+03 0.  1.
<mgrwt>
<rscale>  2 0.40500218E+03</rscale>
<asrwt>0</asrwt>
<pdfrwt beam="1">  1        2 0.38083229E+00 0.40500218E+03</pdfrwt>
<pdfrwt beam="2">  1       -2 0.10354405E-01 0.40500218E+03</pdfrwt>
<totfact> 0.25286181E+02</totfact>
</mgrwt>
</event>
<event>
 4    1  0.2454657E-002  0.4922968E+03  0.7818608E-02  0.1015809E+00
          1   -1    0    0  502    0  0.00000000000E+00  0.00000000000E+00  0.23194733831E+04  0.23194733831E+04  0.00000000000E+00 0.  1.
         -1   -1    0    0    0  501 -0.00000000000E+00 -0.00000000000E+00 -0.16205470031E+03  0.16205470031E+03  0.00000000000E+00 0. -1.
    9000007    1    1    2  502    0 -0.22768438012E+03  0.17468820365E+03  0.18182220812E+04  0.18836899113E+04  0.40000000000E+03 0.  1.
   -9000007    1    1    2    0  501  0.22768438012E+03 -0.17468820365E+03  0.33919660153E+03  0.59783817203E+03  0.40000000000E+03 0. -1.
<mgrwt>
<rscale>  2 0.49229681E+03</rscale>
<asrwt>0</asrwt>
<pdfrwt beam="1">  1        1 0.35684203E+00 0.49229681E+03</pdfrwt>
<pdfrwt beam="2">  1       -1 0.24931494E-01 0.49229681E+03</pdfrwt>
<totfact> 0.27666047E+01</totfact>
</mgrwt>
</event>
<event>
 4    1  0.2454657E-002  0.6353943E+03  0.7818608E-02  0.9834578E-01
         -2   -1    0    0    0  501 -0.00000000000E+00  0.00000000000E+00  0.26093497750E+03  0.26093497750E+03  0.00000000000E+00 0. -1.
          2   -1    0    0  502    0  0.00000000000E+00 -0.00000000000E+00 -0.15709226056E+04  0.15709226056E+04  0.00000000000E+00 0.  1.
    9000007    1    1    2  502    0 -0.45312346072E+03 -0.19597207860E+03 -0.54250528068E+03  0.83548662815E+03  0.40000000000E+03 0.  1.
   -9000007    1    1    2    0  501  0.45312346072E+03  0.19597207860E+03 -0.76748234739E+03  0.99637095492E+03  0.40000000000E+03 0. -1.
<mgrwt>
<rscale>  2 0.63539431E+03</rscale>
<asrwt>0</asrwt>
<pdfrwt beam="1">  1        2 0.24168040E+00 0.63539431E+03</pdfrwt>
<pdfrwt beam="2">  1       -2 0.40143843E-01 0.63539431E+03</pdfrwt>
<totfact> 0.70309836E+01</totfact>
</mgrwt>
</event>
<event>
 4    1  0.2454657E-002  0.5467044E+03  0.7818608E-02  0.1002260E+00
          1   -1    0    0  502    0  0.00000000000E+00  0.00000000000E+00  0.60850560355E+03  0.60850560355E+03  0.00000000000E+00 0. -1.
         -1   -1    0    0    0  501 -0.00000000000E+00 -0.00000000000E+00 -0.49401996330E+03  0.49401996330E+03  0.00000000000E+00 0.  1.
    9000007    1    1    2  502    0 -0.20847442008E+03 -0.30890788317E+03  0.15444613853E+02  0.54692248099E+03  0.40000000000E+03 0.  1.
   -9000007    1    1    2    0  501  0.20847442008E+03  0.30890788317E+03  0.99041026398E+02  0.55560308586E+03  0.40000000000E+03 0. -1.
<mgrwt>
<rscale>  2 0.54670437E+03</rscale>
<asrwt>0</asrwt>
<pdfrwt beam="1">  1        1 0.93616246E-01 0.54670437E+03</pdfrwt>
<pdfrwt beam="2">  1       -1 0.76003071E-01 0.54670437E+03</pdfrwt>
<totfact> 0.60750572E+01</totfact>
</mgrwt>
</event>
<event>
 4    1  0.2454657E-002  0.6587519E+03  0.7818608E-02  0.9790494E-01
          1   -1    0    0  502    0  0.00000000000E+00  0.00000000000E+00  0.65070412455E+03  0.65070412455E+03  0.00000000000E+00 0.  1.
         -1   -1    0    0    0  501 -0.00000000000E+00 -0.00000000000E+00 -0.81948065743E+03  0.81948065743E+03  0.00000000000E+00 0. -1.
    9000007    1    1    2  502    0  0.39401563377E+03  0.34453704049E+03 -0.40158111241E+03  0.77150598297E+03  0.40000000000E+03 0. -1.
   -9000007    1    1    2    0  501 -0.39401563377E+03 -0.34453704049E+03  0.23280457953E+03  0.69867879900E+03  0.40000000000E+03 0.  1.
<mgrwt>
<rscale>  2 0.65875192E+03</rscale>
<asrwt>0</asrwt>
<pdfrwt beam="1">  1        1 0.10010833E+00 0.65875192E+03</pdfrwt>
<pdfrwt beam="2">  1       -1 0.12607395E+00 0.65875192E+03</pdfrwt>
<totfact> 0.17308237E+01</totfact>
</mgrwt>
</event>
<event>
 4    1  0.2454657E-002  0.4276253E+03  0.7818608E-02  0.1034613E+00
         -1   -1    0    0    0  501 -0.00000000000E+00  0.00000000000E+00  0.27141565983E+03  0.27141565983E+03  0.00000000000E+00 0. -1.
          1   -1    0    0  502    0  0.00000000000E+00 -0.00000000000E+00 -0.72690574707E+03  0.72690574707E+03  0.00000000000E+00 0.  1.
    9000007    1    1    2  502    0 -0.15104286311E+03 -0.70316251227E+01 -0.92749244876E+02  0.43756806633E+03  0.40000000000E+03 0. -1.
   -9000007    1    1    2    0  501  0.15104286311E+03  0.70316251227E+01 -0.36274084236E+03  0.56075334058E+03  0.40000000000E+03 0.  1.
<mgrwt>
<rscale>  2 0.42762529E+03</rscale>
<asrwt>0</asrwt>
<pdfrwt beam="1">  1        1 0.11183165E+00 0.42762529E+03</pdfrwt>
<pdfrwt beam="2">  1       -1 0.41756256E-01 0.42762529E+03</pdfrwt>
<totfact> 0.15091280E+02</totfact>
</mgrwt>
</event>
<event>
 4    1  0.2454657E-002  0.9537396E+03  0.7818608E-02  0.9360790E-01
         -2   -1    0    0    0  501 -0.00000000000E+00  0.00000000000E+00  0.61789608029E+03  0.61789608029E+03  0.00000000000E+00 0. -1.
          2   -1    0    0  502    0  0.00000000000E+00 -0.00000000000E+00 -0.16121825559E+04  0.16121825559E+04  0.00000000000E+00 0.  1.
    9000007    1    1    2  502    0  0.80862710787E+03  0.30942121579E+03 -0.16848933009E+03  0.96850810153E+03  0.40000000000E+03 0.  1.
   -9000007    1    1    2    0  501 -0.80862710787E+03 -0.30942121579E+03 -0.82579714548E+03  0.12615705346E+04  0.40000000000E+03 0. -1.
<mgrwt>
<rscale>  2 0.95373963E+03</rscale>
<asrwt>0</asrwt>
<pdfrwt beam="1">  1        2 0.24802809E+00 0.95373963E+03</pdfrwt>
<pdfrwt beam="2">  1       -2 0.95060935E-01 0.95373963E+03</pdfrwt>
<totfact> 0.10232676E+01</totfact>
</mgrwt>
</event>
<event>
 4    1  0.2454657E-002  0.4344615E+03  0.7818608E-02  0.1032460E+00
         -2   -1    0    0    0  501 -0.00000000000E+00  0.00000000000E+00  0.13631136436E+03  0.13631136436E+03  0.00000000000E+00 0. -1.
          2   -1    0    0  502    0  0.00000000000E+00 -0.00000000000E+00 -0.21092032326E+04  0.21092032326E+04  0.00000000000E+00 0.  1.
    9000007    1    1    2  502    0 -0.11103418611E+03  0.12817262686E+03 -0.32843574656E+03  0.54463460447E+03  0.40000000000E+03 0. -1.
   -9000007    1    1    2    0  501  0.11103418611E+03 -0.12817262686E+03 -0.16444561216E+04  0.17008799925E+04  0.40000000000E+03 0.  1.
<mgrwt>
<rscale>  2 0.43446152E+03</rscale>
<asrwt>0</asrwt>
<pdfrwt beam="1">  1        2 0.32449280E+00 0.43446152E+03</pdfrwt>
<pdfrwt beam="2">  1       -2 0.20970979E-01 0.43446152E+03</pdfrwt>
<totfact> 0.12229060E+02</totfact>
</mgrwt>
</event>
<event>
 4    1  0.2454657E-002  0.5836821E+03  0.7818608E-02  0.9939851E-01
         -1   -1    0    0    0  501 -0.00000000000E+00  0.00000000000E+00  0.20972709435E+04  0.20972709435E+04  0.00000000000E+00 0.  1.
          1   -1    0    0  502    0  0.00000000000E+00 -0.00000000000E+00 -0.26074553008E+03  0.26074553008E+03  0.00000000000E+00 0. -1.
    9000007    1    1    2  502    0 -0.13471514381E+02 -0.42485686928E+03  0.19433865168E+03  0.61518481175E+03  0.40000000000E+03 0. -1.
   -9000007    1    1    2    0  501  0.13471514381E+02  0.42485686928E+03  0.16421867618E+04  0.17428316619E+04  0.40000000000E+03 0.  1.
<mgrwt>
<rscale>  2 0.58368214E+03</rscale>
<asrwt>0</asrwt>
<pdfrwt beam="1">  1        1 0.40114698E-01 0.58368214E+03</pdfrwt>
<pdfrwt beam="2">  1       -1 0.32265706E+00 0.58368214E+03</pdfrwt>
<totfact> 0.26831938E+00</totfact>
</mgrwt>
</event>
<event>
 4    1  0.2454657E-002  0.4151034E+03  0.7818608E-02  0.1038672E+00
          1   -1    0    0  502    0  0.00000000000E+00  0.00000000000E+00  0.66008199884E+03  0.66008199884E+03  0.00000000000E+00 0.  1.
         -1   -1    0    0    0  501 -0.00000000000E+00 -0.00000000000E+00 -0.26215631733E+03  0.26215631733E+03  0.00000000000E+00 0. -1.
    9000007    1    1    2  502    0 -0.71731193124E+02  0.84649296797E+02  0.16893511445E+03  0.44816285032E+03  0.40000000000E+03 0. -1.
   -9000007    1    1    2    0  501  0.71731193124E+02 -0.84649296797E+02  0.22899056707E+03  0.47407546585E+03  0.40000000000E+03 0. -1.
<mgrwt>
<rscale>  2 0.41510344E+03</rscale>
<asrwt>0</asrwt>
<pdfrwt beam="1">  1        1 0.10155108E+00 0.41510344E+03</pdfrwt>
<pdfrwt beam="2">  1       -1 0.40331741E-01 0.41510344E+03</pdfrwt>
<totfact> 0.18559324E+02</totfact>
</mgrwt>
</event>
<event>
 4    1  0.2454657E-002  0.5096529E+03  0.7818608E-02  0.1011290E+00
          3   -1    0    0  502    0  0.00000000000E+00  0.00000000000E+00  0.73371374078E+03  0.73371374078E+03  0.00000000000E+00 0. -1.
         -3   -1    0    0    0  501 -0.00000000000E+00 -0.00000000000E+00 -0.35768631809E+03  0.35768631809E+03  0.00000000000E+00 0.  1.
    9000007    1    1    2  502    0  0.94167201250E+02 -0.30146076085E+03  0.24329561748E+03  0.56474667738E+03  0.40000000000E+03 0. -1.
   -9000007    1    1    2    0  501 -0.94167201250E+02  0.30146076085E+03  0.13273180521E+03  0.52665338149E+03  0.40000000000E+03 0. -1.
<mgrwt>
<rscale>  2 0.50965287E+03</rscale>
<asrwt>0</asrwt>
<pdfrwt beam="1">  1        3 0.11287904E+00 0.50965287E+03</pdfrwt>
<pdfrwt beam="2">  1       -3 0.55028665E-01 0.50965287E+03</pdfrwt>
<totfact> 0.55892022E+00</totfact>
</mgrwt>
</event>
<event>
 4    1  0.2454657E-002  0.5720105E+03  0.7818608E-02  0.9965240E-01
         -2   -1    0    0    0  501 -0.00000000000E+00  0.00000000000E+00  0.29803636775E+03  0.29803636775E+03  0.00000000000E+00 0. -1.
          2   -1    0    0  502    0  0.00000000000E+00 -0.00000000000E+00 -0.12694552342E+04  0.12694552342E+04  0.00000000000E+00 0.  1.
    9000007    1    1    2  502    0 -0.12492598837E+02 -0.40870518023E+03 -0.77387729224E+03  0.96233157114E+03  0.40000000000E+03 0.  1.
   -9000007    1    1    2    0  501  0.12492598837E+02  0.40870518023E+03 -0.19754157423E+03  0.60516003083E+03  0.40000000000E+03 0. -1.
<mgrwt>
<rscale>  2 0.57201048E+03</rscale>
<asrwt>0</asrwt>
<pdfrwt beam="1">  1        2 0.19530081E+00 0.57201048E+03</pdfrwt>
<pdfrwt beam="2">  1       -2 0.45851748E-01 0.57201048E+03</pdfrwt>
<totfact> 0.80429982E+01</totfact>
</mgrwt>
</event>
<event>
 4    1  0.2454657E-002  0.4505940E+03  0.7818608E-02  0.1027545E+00
         -2   -1    0    0    0  501 -0.00000000000E+00  0.00000000000E+00  0.66286456251E+02  0.66286456251E+02  0.00000000000E+00 0. -1.
          2   -1    0    0  502    0  0.00000000000E+00 -0.00000000000E+00 -0.31372295894E+04  0.31372295894E+04  0.00000000000E+00 0.  1.
    9000007    1    1    2  502    0  0.95513342836E+02  0.18415244828E+03 -0.17818677778E+04  0.18379574805E+04  0.40000000000E+03 0. -1.
   -9000007    1    1    2    0  501 -0.95513342836E+02 -0.18415244828E+03 -0.12890753554E+04  0.13655585651E+04  0.40000000000E+03 0. -1.
<mgrwt>
<rscale>  2 0.45059397E+03</rscale>
<asrwt>0</asrwt>
<pdfrwt beam="1">  1        2 0.48265084E+00 0.45059397E+03</pdfrwt>
<pdfrwt beam="2">  1       -2 0.10197913E-01 0.45059397E+03</pdfrwt>
<totfact> 0.10559424E+02</totfact>
</mgrwt>
</event>
<event>
 4    1  0.2454657E-002  0.5784470E+03  0.7818608E-02  0.9951159E-01
         -2   -1    0    0    0  501 -0.00000000000E+00  0.00000000000E+00  0.35174425924E+03  0.35174425924E+03  0.00000000000E+00 0.  1.
          2   -1    0    0  502    0  0.00000000000E+00 -0.00000000000E+00 -0.95178826561E+03  0.95178826561E+03  0.00000000000E+00 0. -1.
    9000007    1    1    2  502    0 -0.40495992510E+03 -0.10299679487E+03 -0.28469339919E+03  0.64471017693E+03  0.40000000000E+03 0.  1.
   -9000007    1    1    2    0  501  0.40495992510E+03  0.10299679487E+03 -0.31535060718E+03  0.65882234793E+03  0.40000000000E+03 0. -1.
<mgrwt>
<rscale>  2 0.57844696E+03</rscale>
<asrwt>0</asrwt>
<pdfrwt beam="1">  1        2 0.14642896E+00 0.57844696E+03</pdfrwt>
<pdfrwt beam="2">  1       -2 0.54114502E-01 0.57844696E+03</pdfrwt>
<totfact> 0.89533953E+01</totfact>
</mgrwt>
</event>
<event>
 4    1  0.2454657E-002  0.4045177E+03  0.7818608E-02  0.1042226E+00
          1   -1    0    0  502    0  0.00000000000E+00  0.00000000000E+00  0.12236422957E+04  0.12236422957E+04  0.00000000000E+00 0. -1.
         -1   -1    0    0    0  501 -0.00000000000E+00 -0.00000000000E+00 -0.13709272558E+03  0.13709272558E+03  0.00000000000E+00 0.  1.
    9000007    1    1    2  502    0 -0.49869495523E+02 -0.33876435509E+02  0.43667757013E+03  0.59524942648E+03  0.40000000000E+03 0. -1.
   -9000007    1    1    2    0  501  0.49869495523E+02  0.33876435509E+02  0.64987199997E+03  0.76548559477E+03  0.40000000000E+03 0.  1.
<mgrwt>
<rscale>  2 0.40451771E+03</rscale>
<asrwt>0</asrwt>
<pdfrwt beam="1">  1        1 0.18825265E+00 0.40451771E+03</pdfrwt>
<pdfrwt beam="2">  1       -1 0.21091189E-01 0.40451771E+03</pdfrwt>
<totfact> 0.20126491E+02</totfact>
</mgrwt>
</event>
<event>
 4    1  0.2454657E-002  0.4205262E+03  0.7818608E-02  0.1036895E+00
         -2   -1    0    0    0  501 -0.00000000000E+00  0.00000000000E+00  0.16946757053E+03  0.16946757053E+03  0.00000000000E+00 0.  1.
          2   -1    0    0  502    0  0.00000000000E+00 -0.00000000000E+00 -0.12440411530E+04  0.12440411530E+04  0.00000000000E+00 0. -1.
    9000007    1    1    2  502    0  0.10775969646E+03 -0.72319558822E+02 -0.25353762301E+03  0.49104337594E+03  0.40000000000E+03 0.  1.
   -9000007    1    1    2    0  501 -0.10775969646E+03  0.72319558822E+02 -0.82103595944E+03  0.92246534757E+03  0.40000000000E+03 0. -1.
<mgrwt>
<rscale>  2 0.42052618E+03</rscale>
<asrwt>0</asrwt>
<pdfrwt beam="1">  1        2 0.19139094E+00 0.42052618E+03</pdfrwt>
<pdfrwt beam="2">  1       -2 0.26071935E-01 0.42052618E+03</pdfrwt>
<totfact> 0.24596205E+02</totfact>
</mgrwt>
</event>
<event>
 4    1  0.2454657E-002  0.4484322E+03  0.7818608E-02  0.1028191E+00
          2   -1    0    0  502    0  0.00000000000E+00  0.00000000000E+00  0.49687226795E+03  0.49687226795E+03  0.00000000000E+00 0.  1.
         -2   -1    0    0    0  501 -0.00000000000E+00 -0.00000000000E+00 -0.42515991710E+03  0.42515991710E+03  0.00000000000E+00 0. -1.
    9000007    1    1    2  502    0  0.18423431884E+03  0.84552474534E+02 -0.65240773888E+02  0.45315313501E+03  0.40000000000E+03 0. -1.
   -9000007    1    1    2    0  501 -0.18423431884E+03 -0.84552474534E+02  0.13695312473E+03  0.46887905004E+03  0.40000000000E+03 0.  1.
<mgrwt>
<rscale>  2 0.44843216E+03</rscale>
<asrwt>0</asrwt>
<pdfrwt beam="1">  1        2 0.76441888E-01 0.44843216E+03</pdfrwt>
<pdfrwt beam="2">  1       -2 0.65409218E-01 0.44843216E+03</pdfrwt>
<totfact> 0.13743019E+02</totfact>
</mgrwt>
</event>
<event>
 4    1  0.2454657E-002  0.5628712E+03  0.7818608E-02  0.9985579E-01
         -1   -1    0    0    0  501 -0.00000000000E+00  0.00000000000E+00  0.14755258368E+03  0.14755258368E+03  0.00000000000E+00 0.  1.
          1   -1    0    0  502    0  0.00000000000E+00 -0.00000000000E+00 -0.23741301656E+04  0.23741301656E+04  0.00000000000E+00 0. -1.
    9000007    1    1    2  502    0 -0.37729608519E+03  0.12029807916E+03 -0.15031054771E+04  0.16050389525E+04  0.40000000000E+03 0. -1.
   -9000007    1    1    2    0  501  0.37729608519E+03 -0.12029807916E+03 -0.72347210484E+03  0.91664379681E+03  0.40000000000E+03 0.  1.
<mgrwt>
<rscale>  2 0.56287118E+03</rscale>
<asrwt>0</asrwt>
<pdfrwt beam="1">  1        1 0.36525082E+00 0.56287118E+03</pdfrwt>
<pdfrwt beam="2">  1       -1 0.22700396E-01 0.56287118E+03</pdfrwt>
<totfact> 0.29368545E+01</totfact>
</mgrwt>
</event>
<event>
 4    1  0.2454657E-002  0.4776607E+03  0.7818608E-02  0.1019780E+00
          1   -1    0    0  502    0  0.00000000000E+00  0.00000000000E+00  0.47519331096E+03  0.47519331096E+03  0.00000000000E+00 0.  1.
         -1   -1    0    0    0  501 -0.00000000000E+00 -0.00000000000E+00 -0.50520997325E+03  0.50520997325E+03  0.00000000000E+00 0. -1.
    9000007    1    1    2  502    0 -0.18192460570E+03 -0.18725172666E+03  0.94187848959E+02  0.48685842109E+03  0.40000000000E+03 0.  1.
   -9000007    1    1    2    0  501  0.18192460570E+03  0.18725172666E+03 -0.12420451125E+03  0.49354486312E+03  0.40000000000E+03 0. -1.
<mgrwt>
<rscale>  2 0.47766073E+03</rscale>
<asrwt>0</asrwt>
<pdfrwt beam="1">  1        1 0.73106664E-01 0.47766073E+03</pdfrwt>
<pdfrwt beam="2">  1       -1 0.77724610E-01 0.47766073E+03</pdfrwt>
<totfact> 0.82286443E+01</totfact>
</mgrwt>
</event>
<event>
 4    1  0.2454657E-002  0.5168853E+03  0.7818608E-02  0.1009463E+00
         -1   -1    0    0    0  501 -0.00000000000E+00  0.00000000000E+00  0.24642056388E+03  0.24642056388E+03  0.00000000000E+00 0.  1.
          1   -1    0    0  502    0  0.00000000000E+00 -0.00000000000E+00 -0.15646622354E+04  0.15646622354E+04  0.00000000000E+00 0. -1.
    9000007    1    1    2  502    0  0.16049059319E+03 -0.28533001149E+03 -0.11609146557E+04  0.12707845151E+04  0.40000000000E+03 0. -1.
   -9000007    1    1    2    0  501 -0.16049059319E+03  0.28533001149E+03 -0.15732701576E+03  0.54029828414E+03  0.40000000000E+03 0.  1.
<mgrwt>
<rscale>  2 0.51688533E+03</rscale>
<asrwt>0</asrwt>
<pdfrwt beam="1">  1        1 0.24071726E+00 0.51688533E+03</pdfrwt>
<pdfrwt beam="2">  1       -1 0.37910857E-01 0.51688533E+03</pdfrwt>
<totfact> 0.42183145E+01</totfact>
</mgrwt>
</event>
<event>
 4    1  0.2454657E-002  0.5688423E+03  0.7818608E-02  0.9972244E-01
          3   -1    0    0  502    0  0.00000000000E+00  0.00000000000E+00  0.28297121268E+03  0.28297121268E+03  0.00000000000E+00 0. -1.
         -3   -1    0    0    0  501 -0.00000000000E+00 -0.00000000000E+00 -0.13498945991E+04  0.13498945991E+04  0.00000000000E+00 0.  1.
    9000007    1    1    2  502    0  0.19028721458E+03  0.35689266055E+03 -0.21423087429E+03  0.60784575567E+03  0.40000000000E+03 0. -1.
   -9000007    1    1    2    0  501 -0.19028721458E+03 -0.35689266055E+03 -0.85269251216E+03  0.10250200561E+04  0.40000000000E+03 0.  1.
<mgrwt>
<rscale>  2 0.56884233E+03</rscale>
<asrwt>0</asrwt>
<pdfrwt beam="1">  1        3 0.43534034E-01 0.56884233E+03</pdfrwt>
<pdfrwt beam="2">  1       -3 0.20767609E+00 0.56884233E+03</pdfrwt>
<totfact> 0.18212901E+00</totfact>
</mgrwt>
</event>
<event>
 4    1  0.2454657E-002  0.4631425E+03  0.7818608E-02  0.1023874E+00
         -2   -1    0    0    0  501 -0.00000000000E+00  0.00000000000E+00  0.14462079598E+04  0.14462079598E+04  0.00000000000E+00 0. -1.
          2   -1    0    0  502    0  0.00000000000E+00 -0.00000000000E+00 -0.16531918515E+03  0.16531918515E+03  0.00000000000E+00 0.  1.
    9000007    1    1    2  502    0 -0.19500563837E+03 -0.12835036555E+03  0.38206081096E+03  0.60039277028E+03  0.40000000000E+03 0. -1.
   -9000007    1    1    2    0  501  0.19500563837E+03  0.12835036555E+03  0.89882796372E+03  0.10111343747E+04  0.40000000000E+03 0. -1.
<mgrwt>
<rscale>  2 0.46314254E+03</rscale>
<asrwt>0</asrwt>
<pdfrwt beam="1">  1        2 0.25433722E-01 0.46314254E+03</pdfrwt>
<pdfrwt beam="2">  1       -2 0.22249352E+00 0.46314254E+03</pdfrwt>
<totfact> 0.21505384E+01</totfact>
</mgrwt>
</event>
<event>
 4    1  0.2454657E-002  0.5714013E+03  0.7818608E-02  0.9966582E-01
         -2   -1    0    0    0  501 -0.00000000000E+00  0.00000000000E+00  0.26678340152E+03  0.26678340152E+03  0.00000000000E+00 0.  1.
          2   -1    0    0  502    0  0.00000000000E+00 -0.00000000000E+00 -0.12697067941E+04  0.12697067941E+04  0.00000000000E+00 0. -1.
    9000007    1    1    2  502    0 -0.29902901730E+03  0.27763489052E+03 -0.64748087864E+03  0.86355716304E+03  0.40000000000E+03 0.  1.
   -9000007    1    1    2    0  501  0.29902901730E+03 -0.27763489052E+03 -0.35544251394E+03  0.67293303258E+03  0.40000000000E+03 0.  1.
<mgrwt>
<rscale>  2 0.57140133E+03</rscale>
<asrwt>0</asrwt>
<pdfrwt beam="1">  1        2 0.19533951E+00 0.57140133E+03</pdfrwt>
<pdfrwt beam="2">  1       -2 0.41043600E-01 0.57140133E+03</pdfrwt>
<totfact> 0.10003888E+02</totfact>
</mgrwt>
</event>
<event>
 4    1  0.2454657E-002  0.4043154E+03  0.7818608E-02  0.1042296E+00
         -2   -1    0    0    0  501 -0.00000000000E+00  0.00000000000E+00  0.31300956460E+03  0.31300956460E+03  0.00000000000E+00 0.  1.
          2   -1    0    0  502    0  0.00000000000E+00 -0.00000000000E+00 -0.52243011907E+03  0.52243011907E+03  0.00000000000E+00 0. -1.
    9000007    1    1    2  502    0  0.12275035213E+02 -0.57621527699E+02 -0.11235064537E+03  0.41963506105E+03  0.40000000000E+03 0. -1.
   -9000007    1    1    2    0  501 -0.12275035213E+02  0.57621527699E+02 -0.97069909099E+02  0.41580462263E+03  0.40000000000E+03 0. -1.
<mgrwt>
<rscale>  2 0.40431537E+03</rscale>
<asrwt>0</asrwt>
<pdfrwt beam="1">  1        2 0.80373864E-01 0.40431537E+03</pdfrwt>
<pdfrwt beam="2">  1       -2 0.48155318E-01 0.40431537E+03</pdfrwt>
<totfact> 0.24504056E+02</totfact>
</mgrwt>
</event>
<event>
 4    1  0.2454657E-002  0.4359107E+03  0.7818608E-02  0.1032009E+00
         -1   -1    0    0    0  501 -0.00000000000E+00  0.00000000000E+00  0.99575873242E+03  0.99575873242E+03  0.00000000000E+00 0. -1.
          1   -1    0    0  502    0  0.00000000000E+00 -0.00000000000E+00 -0.19653318987E+03  0.19653318987E+03  0.00000000000E+00 0.  1.
    9000007    1    1    2  502    0 -0.16957093641E+03 -0.35549889453E+02  0.50118868506E+03  0.66423504511E+03  0.40000000000E+03 0. -1.
   -9000007    1    1    2    0  501  0.16957093641E+03  0.35549889453E+02  0.29803685750E+03  0.52805687718E+03  0.40000000000E+03 0.  1.
<mgrwt>
<rscale>  2 0.43591065E+03</rscale>
<asrwt>0</asrwt>
<pdfrwt beam="1">  1        1 0.30235876E-01 0.43591065E+03</pdfrwt>
<pdfrwt beam="2">  1       -1 0.15319365E+00 0.43591065E+03</pdfrwt>
<totfact> 0.52693266E+01</totfact>
</mgrwt>
</event>
<event>
 4    1  0.2454657E-002  0.4459203E+03  0.7818608E-02  0.1028946E+00
         -1   -1    0    0    0  501 -0.00000000000E+00  0.00000000000E+00  0.22711361231E+03  0.22711361231E+03  0.00000000000E+00 0. -1.
          1   -1    0    0  502    0  0.00000000000E+00 -0.00000000000E+00 -0.88481856658E+03  0.88481856658E+03  0.00000000000E+00 0.  1.
    9000007    1    1    2  502    0 -0.18673072584E+03 -0.63059958051E+02 -0.27189103261E+03  0.52227354508E+03  0.40000000000E+03 0.  1.
   -9000007    1    1    2    0  501  0.18673072584E+03  0.63059958051E+02 -0.38581392166E+03  0.58965863382E+03  0.40000000000E+03 0. -1.
<mgrwt>
<rscale>  2 0.44592031E+03</rscale>
<asrwt>0</asrwt>
<pdfrwt beam="1">  1        1 0.13612593E+00 0.44592031E+03</pdfrwt>
<pdfrwt beam="2">  1       -1 0.34940556E-01 0.44592031E+03</pdfrwt>
<totfact> 0.15199271E+02</totfact>
</mgrwt>
</event>
<event>
 4    1  0.2454657E-002  0.4284725E+03  0.7818608E-02  0.1034344E+00
          2   -1    0    0  502    0  0.00000000000E+00  0.00000000000E+00  0.16100288040E+04  0.16100288040E+04  0.00000000000E+00 0. -1.
         -2   -1    0    0    0  501 -0.00000000000E+00 -0.00000000000E+00 -0.11488583278E+03  0.11488583278E+03  0.00000000000E+00 0.  1.
    9000007    1    1    2  502    0 -0.10529117527E+02  0.15322473266E+03  0.67305439040E+03  0.79786646342E+03  0.40000000000E+03 0.  1.
   -9000007    1    1    2    0  501  0.10529117527E+02 -0.15322473266E+03  0.82208858083E+03  0.92704817337E+03  0.40000000000E+03 0. -1.
<mgrwt>
<rscale>  2 0.42847250E+03</rscale>
<asrwt>0</asrwt>
<pdfrwt beam="1">  1        2 0.24769672E+00 0.42847250E+03</pdfrwt>
<pdfrwt beam="2">  1       -2 0.17674745E-01 0.42847250E+03</pdfrwt>
<totfact> 0.30440803E+02</totfact>
</mgrwt>
</event>
<event>
 4    1  0.2454657E-002  0.5565185E+03  0.7818608E-02  0.9999963E-01
         -2   -1    0    0    0  501 -0.00000000000E+00  0.00000000000E+00  0.38286987616E+03  0.38286987616E+03  0.00000000000E+00 0. -1.
          2   -1    0    0  502    0  0.00000000000E+00 -0.00000000000E+00 -0.91227713284E+03  0.91227713284E+03  0.00000000000E+00 0.  1.
    9000007    1    1    2  502    0  0.36876180329E+03 -0.11716476196E+03 -0.48266840009E+03  0.73666928364E+03  0.40000000000E+03 0. -1.
   -9000007    1    1    2    0  501 -0.36876180329E+03  0.11716476196E+03 -0.46738856594E+02  0.55847772536E+03  0.40000000000E+03 0.  1.
<mgrwt>
<rscale>  2 0.55651851E+03</rscale>
<asrwt>0</asrwt>
<pdfrwt beam="1">  1        2 0.14035033E+00 0.55651851E+03</pdfrwt>
<pdfrwt beam="2">  1       -2 0.58903058E-01 0.55651851E+03</pdfrwt>
<totfact> 0.79850778E+01</totfact>
</mgrwt>
</event>
<event>
 4    1  0.2454657E-002  0.5416413E+03  0.7818608E-02  0.1003447E+00
          2   -1    0    0  502    0  0.00000000000E+00  0.00000000000E+00  0.14849221736E+04  0.14849221736E+04  0.00000000000E+00 0. -1.
         -2   -1    0    0    0  501 -0.00000000000E+00 -0.00000000000E+00 -0.24980705188E+03  0.24980705188E+03  0.00000000000E+00 0.  1.
    9000007    1    1    2  502    0  0.11673999773E+03 -0.34604487874E+03  0.10141924284E+04  0.11497658748E+04  0.40000000000E+03 0. -1.
   -9000007    1    1    2    0  501 -0.11673999773E+03  0.34604487874E+03  0.22092269337E+03  0.58496335066E+03  0.40000000000E+03 0. -1.
<mgrwt>
<rscale>  2 0.54164129E+03</rscale>
<asrwt>0</asrwt>
<pdfrwt beam="1">  1        2 0.22844956E+00 0.54164129E+03</pdfrwt>
<pdfrwt beam="2">  1       -2 0.38431855E-01 0.54164129E+03</pdfrwt>
<totfact> 0.86306878E+01</totfact>
</mgrwt>
</event>
<event>
 4    1  0.2454657E-002  0.4599620E+03  0.7818608E-02  0.1024792E+00
          2   -1    0    0  502    0  0.00000000000E+00  0.00000000000E+00  0.11153605483E+04  0.11153605483E+04  0.00000000000E+00 0. -1.
         -2   -1    0    0    0  501 -0.00000000000E+00 -0.00000000000E+00 -0.18975225426E+03  0.18975225426E+03  0.00000000000E+00 0.  1.
    9000007    1    1    2  502    0 -0.14532513849E+03  0.17448678593E+03  0.47526271265E+03  0.66139222884E+03  0.40000000000E+03 0. -1.
   -9000007    1    1    2    0  501  0.14532513849E+03 -0.17448678593E+03  0.45034558139E+03  0.64372057371E+03  0.40000000000E+03 0. -1.
<mgrwt>
<rscale>  2 0.45996199E+03</rscale>
<asrwt>0</asrwt>
<pdfrwt beam="1">  1        2 0.17159393E+00 0.45996199E+03</pdfrwt>
<pdfrwt beam="2">  1       -2 0.29192655E-01 0.45996199E+03</pdfrwt>
<totfact> 0.23727010E+02</totfact>
</mgrwt>
</event>
<event>
 4    1  0.2454657E-002  0.4074447E+03  0.7818608E-02  0.1041232E+00
          1   -1    0    0  502    0  0.00000000000E+00  0.00000000000E+00  0.87545952885E+03  0.87545952885E+03  0.00000000000E+00 0.  1.
         -1   -1    0    0    0  501 -0.00000000000E+00 -0.00000000000E+00 -0.19057738788E+03  0.19057738788E+03  0.00000000000E+00 0. -1.
    9000007    1    1    2  502    0 -0.76538700347E+02  0.12368667477E+02  0.38007283164E+03  0.55719522067E+03  0.40000000000E+03 0.  1.
   -9000007    1    1    2    0  501  0.76538700347E+02 -0.12368667477E+02  0.30480930933E+03  0.50884169605E+03  0.40000000000E+03 0. -1.
<mgrwt>
<rscale>  2 0.40744467E+03</rscale>
<asrwt>0</asrwt>
<pdfrwt beam="1">  1        1 0.13468608E+00 0.40744467E+03</pdfrwt>
<pdfrwt beam="2">  1       -1 0.29319599E-01 0.40744467E+03</pdfrwt>
<totfact> 0.21072591E+02</totfact>
</mgrwt>
</event>
<event>
 4    1  0.2454657E-002  0.4315502E+03  0.7818608E-02  0.1033371E+00
          2   -1    0    0  502    0  0.00000000000E+00  0.00000000000E+00  0.10503223606E+04  0.10503223606E+04  0.00000000000E+00 0. -1.
         -2   -1    0    0    0  501 -0.00000000000E+00 -0.00000000000E+00 -0.23456238986E+03  0.23456238986E+03  0.00000000000E+00 0.  1.
    9000007    1    1    2  502    0 -0.10989653121E+03  0.11898859719E+03  0.72526865148E+03  0.84394913985E+03  0.40000000000E+03 0. -1.
   -9000007    1    1    2    0  501  0.10989653121E+03 -0.11898859719E+03  0.90491319258E+02  0.44093561060E+03  0.40000000000E+03 0.  1.
<mgrwt>
<rscale>  2 0.43155015E+03</rscale>
<asrwt>0</asrwt>
<pdfrwt beam="1">  1        2 0.16158805E+00 0.43155015E+03</pdfrwt>
<pdfrwt beam="2">  1       -2 0.36086522E-01 0.43155015E+03</pdfrwt>
<totfact> 0.17545626E+02</totfact>
</mgrwt>
</event>
<event>
 4    1  0.2454657E-002  0.5147344E+03  0.7818608E-02  0.1010003E+00
         -1   -1    0    0    0  501 -0.00000000000E+00  0.00000000000E+00  0.89235907738E+03  0.89235907738E+03  0.00000000000E+00 0.  1.
          1   -1    0    0  502    0  0.00000000000E+00 -0.00000000000E+00 -0.70720214974E+03  0.70720214974E+03  0.00000000000E+00 0. -1.
    9000007    1    1    2  502    0  0.32163045476E+03 -0.38799149474E+02 -0.51660062197E+03  0.72926519597E+03  0.40000000000E+03 0. -1.
   -9000007    1    1    2    0  501 -0.32163045476E+03  0.38799149474E+02  0.70175754960E+03  0.87029603116E+03  0.40000000000E+03 0.  1.
<mgrwt>
<rscale>  2 0.51473442E+03</rscale>
<asrwt>0</asrwt>
<pdfrwt beam="1">  1        1 0.10880033E+00 0.51473442E+03</pdfrwt>
<pdfrwt beam="2">  1       -1 0.13728601E+00 0.51473442E+03</pdfrwt>
<totfact> 0.12623536E+01</totfact>
</mgrwt>
</event>
<event>
 4    1  0.2454657E-002  0.5535759E+03  0.7818608E-02  0.1000670E+00
          1   -1    0    0  502    0  0.00000000000E+00  0.00000000000E+00  0.13589593150E+04  0.13589593150E+04  0.00000000000E+00 0. -1.
         -1   -1    0    0    0  501 -0.00000000000E+00 -0.00000000000E+00 -0.24966514296E+03  0.24966514296E+03  0.00000000000E+00 0.  1.
    9000007    1    1    2  502    0 -0.37351360716E+03  0.83269865162E+02  0.30442015211E+03  0.63175779710E+03  0.40000000000E+03 0. -1.
   -9000007    1    1    2    0  501  0.37351360716E+03 -0.83269865162E+02  0.80487401996E+03  0.97686666090E+03  0.40000000000E+03 0. -1.
<mgrwt>
<rscale>  2 0.55357591E+03</rscale>
<asrwt>0</asrwt>
<pdfrwt beam="1">  1        1 0.20907066E+00 0.55357591E+03</pdfrwt>
<pdfrwt beam="2">  1       -1 0.38410023E-01 0.55357591E+03</pdfrwt>
<totfact> 0.56592775E+01</totfact>
</mgrwt>
</event>
<event>
 4    1  0.2454657E-002  0.7819502E+03  0.7818608E-02  0.9586517E-01
          1   -1    0    0  502    0  0.00000000000E+00  0.00000000000E+00  0.17027354650E+04  0.17027354650E+04  0.00000000000E+00 0.  1.
         -1   -1    0    0    0  501 -0.00000000000E+00 -0.00000000000E+00 -0.71999526621E+03  0.71999526621E+03  0.00000000000E+00 0. -1.
    9000007    1    1    2  502    0 -0.12274710585E+03  0.66059009819E+03 -0.36626610677E+03  0.86347958330E+03  0.40000000000E+03 0.  1.
   -9000007    1    1    2    0  501  0.12274710585E+03 -0.66059009819E+03  0.13490063056E+04  0.15592511479E+04  0.40000000000E+03 0.  1.
<mgrwt>
<rscale>  2 0.78195021E+03</rscale>
<asrwt>0</asrwt>
<pdfrwt beam="1">  1        1 0.26195930E+00 0.78195021E+03</pdfrwt>
<pdfrwt beam="2">  1       -1 0.11076850E+00 0.78195021E+03</pdfrwt>
<totfact> 0.37073541E+00</totfact>
</mgrwt>
</event>
<event>
 4    1  0.2454657E-002  0.4747807E+03  0.7818608E-02  0.1020580E+00
          2   -1    0    0  502    0  0.00000000000E+00  0.00000000000E+00  0.24769398343E+04  0.24769398343E+04  0.00000000000E+00 0.  1.
         -2   -1    0    0    0  501 -0.00000000000E+00 -0.00000000000E+00 -0.94010474140E+02  0.94010474140E+02  0.00000000000E+00 0. -1.
    9000007    1    1    2  502    0  0.21556495312E+03  0.13765348527E+03  0.96166482563E+03  0.10724812203E+04  0.40000000000E+03 0.  1.
   -9000007    1    1    2    0  501 -0.21556495312E+03 -0.13765348527E+03  0.14212645345E+04  0.14984690881E+04  0.40000000000E+03 0.  1.
<mgrwt>
<rscale>  2 0.47478072E+03</rscale>
<asrwt>0</asrwt>
<pdfrwt beam="1">  1        2 0.38106762E+00 0.47478072E+03</pdfrwt>
<pdfrwt beam="2">  1       -2 0.14463152E-01 0.47478072E+03</pdfrwt>
<totfact> 0.14404032E+02</totfact>
</mgrwt>
</event>
<event>
 4    1  0.2454657E-002  0.5238903E+03  0.7818608E-02  0.1007725E+00
          1   -1    0    0  502    0  0.00000000000E+00  0.00000000000E+00  0.78747587499E+03  0.78747587499E+03  0.00000000000E+00 0.  1.
         -1   -1    0    0    0  501 -0.00000000000E+00 -0.00000000000E+00 -0.37463584332E+03  0.37463584332E+03  0.00000000000E+00 0. -1.
    9000007    1    1    2  502    0 -0.20938840279E+03 -0.26573963794E+03  0.35979692798E+03  0.63554298657E+03  0.40000000000E+03 0.  1.
   -9000007    1    1    2    0  501  0.20938840279E+03  0.26573963794E+03  0.53043103701E+02  0.52656873174E+03  0.40000000000E+03 0.  1.
<mgrwt>
<rscale>  2 0.52389031E+03</rscale>
<asrwt>0</asrwt>
<pdfrwt beam="1">  1        1 0.12115013E+00 0.52389031E+03</pdfrwt>
<pdfrwt beam="2">  1       -1 0.57636284E-01 0.52389031E+03</pdfrwt>
<totfact> 0.72185170E+01</totfact>
</mgrwt>
</event>
<event>
 4    1  0.2454657E-002  0.5395466E+03  0.7818608E-02  0.1003943E+00
         -2   -1    0    0    0  501 -0.00000000000E+00  0.00000000000E+00  0.18394505682E+03  0.18394505682E+03  0.00000000000E+00 0.  1.
          2   -1    0    0  502    0  0.00000000000E+00 -0.00000000000E+00 -0.16864577195E+04  0.16864577195E+04  0.00000000000E+00 0. -1.
    9000007    1    1    2  502    0  0.81894410632E+02 -0.35270926045E+03 -0.98334149353E+03  0.11216376464E+04  0.40000000000E+03 0.  1.
   -9000007    1    1    2    0  501 -0.81894410632E+02  0.35270926045E+03 -0.51917116911E+03  0.74876512989E+03  0.40000000000E+03 0.  1.
<mgrwt>
<rscale>  2 0.53954658E+03</rscale>
<asrwt>0</asrwt>
<pdfrwt beam="1">  1        2 0.25945503E+00 0.53954658E+03</pdfrwt>
<pdfrwt beam="2">  1       -2 0.28299240E-01 0.53954658E+03</pdfrwt>
<totfact> 0.11898369E+02</totfact>
</mgrwt>
</event>
<event>
 4    1  0.2454657E-002  0.4852257E+03  0.7818608E-02  0.1017709E+00
         -2   -1    0    0    0  501 -0.00000000000E+00  0.00000000000E+00  0.80415894256E+02  0.80415894256E+02  0.00000000000E+00 0.  1.
          2   -1    0    0  502    0  0.00000000000E+00 -0.00000000000E+00 -0.29280110344E+04  0.29280110344E+04  0.00000000000E+00 0. -1.
    9000007    1    1    2  502    0 -0.16365346015E+03  0.22059365869E+03 -0.14119493203E+04  0.14929986271E+04  0.40000000000E+03 0.  1.
   -9000007    1    1    2    0  501  0.16365346015E+03 -0.22059365869E+03 -0.14356458198E+04  0.15154283016E+04  0.40000000000E+03 0. -1.
<mgrwt>
<rscale>  2 0.48522574E+03</rscale>
<asrwt>0</asrwt>
<pdfrwt beam="1">  1        2 0.45046322E+00 0.48522574E+03</pdfrwt>
<pdfrwt beam="2">  1       -2 0.12371676E-01 0.48522574E+03</pdfrwt>
<totfact> 0.10249171E+02</totfact>
</mgrwt>
</event>
<event>
 4    1  0.2454657E-002  0.4295182E+03  0.7818608E-02  0.1034012E+00
          2   -1    0    0  502    0  0.00000000000E+00  0.00000000000E+00  0.82934793751E+03  0.82934793751E+03  0.00000000000E+00 0. -1.
         -2   -1    0    0    0  501 -0.00000000000E+00 -0.00000000000E+00 -0.22294332754E+03  0.22294332754E+03  0.00000000000E+00 0.  1.
    9000007    1    1    2  502    0  0.15526007659E+03 -0.19498446406E+02  0.32802992220E+03  0.54045306055E+03  0.40000000000E+03 0. -1.
   -9000007    1    1    2    0  501 -0.15526007659E+03  0.19498446406E+02  0.27837468777E+03  0.51183820450E+03  0.40000000000E+03 0.  1.
<mgrwt>
<rscale>  2 0.42951820E+03</rscale>
<asrwt>0</asrwt>
<pdfrwt beam="1">  1        2 0.12759199E+00 0.42951820E+03</pdfrwt>
<pdfrwt beam="2">  1       -2 0.34298974E-01 0.42951820E+03</pdfrwt>
<totfact> 0.26851535E+02</totfact>
</mgrwt>
</event>
<event>
 4    1  0.2454657E-002  0.5096581E+03  0.7818608E-02  0.1011288E+00
          2   -1    0    0  502    0  0.00000000000E+00  0.00000000000E+00  0.11470716557E+04  0.11470716557E+04  0.00000000000E+00 0.  1.
         -2   -1    0    0    0  501 -0.00000000000E+00 -0.00000000000E+00 -0.23488429113E+03  0.23488429113E+03  0.00000000000E+00 0. -1.
    9000007    1    1    2  502    0 -0.13110733702E+03  0.28733641143E+03  0.32513644884E+03  0.60453706050E+03  0.40000000000E+03 0. -1.
   -9000007    1    1    2    0  501  0.13110733702E+03 -0.28733641143E+03  0.58705091568E+03  0.77741888628E+03  0.40000000000E+03 0.  1.
<mgrwt>
<rscale>  2 0.50965807E+03</rscale>
<asrwt>0</asrwt>
<pdfrwt beam="1">  1        2 0.17647256E+00 0.50965807E+03</pdfrwt>
<pdfrwt beam="2">  1       -2 0.36136045E-01 0.50965807E+03</pdfrwt>
<totfact> 0.15176989E+02</totfact>
</mgrwt>
</event>
<event>
 4    1  0.2454657E-002  0.4301309E+03  0.7818608E-02  0.1033819E+00
         -1   -1    0    0    0  501 -0.00000000000E+00  0.00000000000E+00  0.15538032941E+03  0.15538032941E+03  0.00000000000E+00 0. -1.
          1   -1    0    0  502    0  0.00000000000E+00 -0.00000000000E+00 -0.13050760408E+04  0.13050760408E+04  0.00000000000E+00 0.  1.
    9000007    1    1    2  502    0 -0.82385308864E+02  0.13500097810E+03 -0.35867906133E+03  0.56005649022E+03  0.40000000000E+03 0. -1.
   -9000007    1    1    2    0  501  0.82385308864E+02 -0.13500097810E+03 -0.79101665011E+03  0.90039988003E+03  0.40000000000E+03 0. -1.
<mgrwt>
<rscale>  2 0.43013091E+03</rscale>
<asrwt>0</asrwt>
<pdfrwt beam="1">  1        1 0.20078092E+00 0.43013091E+03</pdfrwt>
<pdfrwt beam="2">  1       -1 0.23904667E-01 0.43013091E+03</pdfrwt>
<totfact> 0.14277642E+02</totfact>
</mgrwt>
</event>
<event>
 4    1  0.2454657E-002  0.5006809E+03  0.7818608E-02  0.1013601E+00
         -1   -1    0    0    0  501 -0.00000000000E+00  0.00000000000E+00  0.11332948088E+04  0.11332948088E+04  0.00000000000E+00 0.  1.
          1   -1    0    0  502    0  0.00000000000E+00 -0.00000000000E+00 -0.30147590024E+03  0.30147590024E+03  0.00000000000E+00 0. -1.
    9000007    1    1    2  502    0 -0.12313186063E+03  0.27480883541E+03  0.78610147878E+03  0.93200691310E+03  0.40000000000E+03 0.  1.
   -9000007    1    1    2    0  501  0.12313186063E+03 -0.27480883541E+03  0.45717429776E+02  0.50276379594E+03  0.40000000000E+03 0. -1.
<mgrwt>
<rscale>  2 0.50068089E+03</rscale>
<asrwt>0</asrwt>
<pdfrwt beam="1">  1        1 0.46380908E-01 0.50068089E+03</pdfrwt>
<pdfrwt beam="2">  1       -1 0.17435305E+00 0.50068089E+03</pdfrwt>
<totfact> 0.21067362E+01</totfact>
</mgrwt>
</event>
<event>
 4    1  0.2454657E-002  0.4767231E+03  0.7818608E-02  0.1020040E+00
          1   -1    0    0  502    0  0.00000000000E+00  0.00000000000E+00  0.25896929465E+03  0.25896929465E+03  0.00000000000E+00 0.  1.
         -1   -1    0    0    0  501 -0.00000000000E+00 -0.00000000000E+00 -0.89863520201E+03  0.89863520201E+03  0.00000000000E+00 0. -1.
    9000007    1    1    2  502    0  0.32205776399E+02  0.25734746757E+03 -0.40844069366E+03  0.62776486946E+03  0.40000000000E+03 0. -1.
   -9000007    1    1    2    0  501 -0.32205776399E+02 -0.25734746757E+03 -0.23122521371E+03  0.52983962720E+03  0.40000000000E+03 0.  1.
<mgrwt>
<rscale>  2 0.47672312E+03</rscale>
<asrwt>0</asrwt>
<pdfrwt beam="1">  1        1 0.39841431E-01 0.47672312E+03</pdfrwt>
<pdfrwt beam="2">  1       -1 0.13825157E+00 0.47672312E+03</pdfrwt>
<totfact> 0.48192955E+01</totfact>
</mgrwt>
</event>
<event>
 4    1  0.2454657E-002  0.4202735E+03  0.7818608E-02  0.1036977E+00
          2   -1    0    0  502    0  0.00000000000E+00  0.00000000000E+00  0.88925372547E+03  0.88925372547E+03  0.00000000000E+00 0.  1.
         -2   -1    0    0    0  501 -0.00000000000E+00 -0.00000000000E+00 -0.19868458062E+03  0.19868458062E+03  0.00000000000E+00 0. -1.
    9000007    1    1    2  502    0 -0.11944590885E+03  0.48605161031E+02  0.35454615299E+03  0.54984794391E+03  0.40000000000E+03 0.  1.
   -9000007    1    1    2    0  501  0.11944590885E+03 -0.48605161031E+02  0.33602299185E+03  0.53809036218E+03  0.40000000000E+03 0. -1.
<mgrwt>
<rscale>  2 0.42027347E+03</rscale>
<asrwt>0</asrwt>
<pdfrwt beam="1">  1        2 0.13680826E+00 0.42027347E+03</pdfrwt>
<pdfrwt beam="2">  1       -2 0.30566859E-01 0.42027347E+03</pdfrwt>
<totfact> 0.30329952E+02</totfact>
</mgrwt>
</event>
<event>
 4    1  0.2454657E-002  0.4646409E+03  0.7818608E-02  0.1023444E+00
         -2   -1    0    0    0  501 -0.00000000000E+00  0.00000000000E+00  0.41293029530E+03  0.41293029530E+03  0.00000000000E+00 0. -1.
          2   -1    0    0  502    0  0.00000000000E+00 -0.00000000000E+00 -0.52289905605E+03  0.52289905605E+03  0.00000000000E+00 0.  1.
    9000007    1    1    2  502    0  0.15793207420E+03 -0.17592208691E+03 -0.49492811447E+02  0.46726936462E+03  0.40000000000E+03 0. -1.
   -9000007    1    1    2    0  501 -0.15793207420E+03  0.17592208691E+03 -0.60475949309E+02  0.46855998673E+03  0.40000000000E+03 0. -1.
<mgrwt>
<rscale>  2 0.46464085E+03</rscale>
<asrwt>0</asrwt>
<pdfrwt beam="1">  1        2 0.80446008E-01 0.46464085E+03</pdfrwt>
<pdfrwt beam="2">  1       -2 0.63527738E-01 0.46464085E+03</pdfrwt>
<totfact> 0.13774455E+02</totfact>
</mgrwt>
</event>
<event>
 4    1  0.2454657E-002  0.5934012E+03  0.7818608E-02  0.9919192E-01
         -1   -1    0    0    0  501 -0.00000000000E+00  0.00000000000E+00  0.26692375872E+03  0.26692375872E+03  0.00000000000E+00 0.  1.
          1   -1    0    0  502    0  0.00000000000E+00 -0.00000000000E+00 -0.15944987503E+04  0.15944987503E+04  0.00000000000E+00 0. -1.
    9000007    1    1    2  502    0  0.23153717295E+03 -0.37217680888E+03 -0.10505170011E+04  0.12065284950E+04  0.40000000000E+03 0. -1.
   -9000007    1    1    2    0  501 -0.23153717295E+03  0.37217680888E+03 -0.27705799040E+03  0.65489401400E+03  0.40000000000E+03 0.  1.
<mgrwt>
<rscale>  2 0.59340125E+03</rscale>
<asrwt>0</asrwt>
<pdfrwt beam="1">  1        1 0.24530750E+00 0.59340125E+03</pdfrwt>
<pdfrwt beam="2">  1       -1 0.41065194E-01 0.59340125E+03</pdfrwt>
<totfact> 0.34438527E+01</totfact>
</mgrwt>
</event>
<event>
 4    1  0.2454657E-002  0.4228845E+03  0.7818608E-02  0.1036132E+00
          2   -1    0    0  502    0  0.00000000000E+00  0.00000000000E+00  0.10723594763E+04  0.10723594763E+04  0.00000000000E+00 0.  1.
         -2   -1    0    0    0  501 -0.00000000000E+00 -0.00000000000E+00 -0.24817112947E+03  0.24817112947E+03  0.00000000000E+00 0. -1.
    9000007    1    1    2  502    0  0.42886788466E+02  0.13035354665E+03  0.33936295623E+02  0.42424402873E+03  0.40000000000E+03 0. -1.
   -9000007    1    1    2    0  501 -0.42886788466E+02 -0.13035354665E+03  0.79025205122E+03  0.89628657706E+03  0.40000000000E+03 0.  1.
<mgrwt>
<rscale>  2 0.42288453E+03</rscale>
<asrwt>0</asrwt>
<pdfrwt beam="1">  1        2 0.16497838E+00 0.42288453E+03</pdfrwt>
<pdfrwt beam="2">  1       -2 0.38180174E-01 0.42288453E+03</pdfrwt>
<totfact> 0.15292508E+02</totfact>
</mgrwt>
</event>
<event>
 4    1  0.2454657E-002  0.5500464E+03  0.7818608E-02  0.1001483E+00
         -4   -1    0    0    0  501 -0.00000000000E+00  0.00000000000E+00  0.60055775954E+03  0.60055775954E+03  0.00000000000E+00 0. -1.
          4   -1    0    0  502    0  0.00000000000E+00 -0.00000000000E+00 -0.55474821520E+03  0.55474821520E+03  0.00000000000E+00 0.  1.
    9000007    1    1    2  502    0 -0.94530542294E+02  0.36553391449E+03  0.19799182714E+03  0.58459544104E+03  0.40000000000E+03 0. -1.
   -9000007    1    1    2    0  501  0.94530542294E+02 -0.36553391449E+03 -0.15218228280E+03  0.57071053369E+03  0.40000000000E+03 0. -1.
<mgrwt>
<rscale>  2 0.55004642E+03</rscale>
<asrwt>0</asrwt>
<pdfrwt beam="1">  1        4 0.85345878E-01 0.55004642E+03</pdfrwt>
<pdfrwt beam="2">  1       -4 0.92393502E-01 0.55004642E+03</pdfrwt>
<totfact> 0.23254803E+00</totfact>
</mgrwt>
</event>
<event>
 4    1  0.2454657E-002  0.4045434E+03  0.7818608E-02  0.1042218E+00
         -2   -1    0    0    0  501 -0.00000000000E+00  0.00000000000E+00  0.10753864482E+03  0.10753864482E+03  0.00000000000E+00 0.  1.
          2   -1    0    0  502    0  0.00000000000E+00 -0.00000000000E+00 -0.15339736757E+04  0.15339736757E+04  0.00000000000E+00 0. -1.
    9000007    1    1    2  502    0 -0.51798707569E+02  0.31181148980E+02 -0.64018641816E+03  0.75729387965E+03  0.40000000000E+03 0. -1.
   -9000007    1    1    2    0  501  0.51798707569E+02 -0.31181148980E+02 -0.78624861271E+03  0.88421844085E+03  0.40000000000E+03 0. -1.
<mgrwt>
<rscale>  2 0.40454341E+03</rscale>
<asrwt>0</asrwt>
<pdfrwt beam="1">  1        2 0.23599595E+00 0.40454341E+03</pdfrwt>
<pdfrwt beam="2">  1       -2 0.16544407E-01 0.40454341E+03</pdfrwt>
<totfact> 0.37544272E+02</totfact>
</mgrwt>
</event>
<event>
 4    1  0.2454657E-002  0.4118530E+03  0.7818608E-02  0.1039751E+00
          2   -1    0    0  502    0  0.00000000000E+00  0.00000000000E+00  0.14052823590E+04  0.14052823590E+04  0.00000000000E+00 0. -1.
         -2   -1    0    0    0  501 -0.00000000000E+00 -0.00000000000E+00 -0.14393641645E+03  0.14393641645E+03  0.00000000000E+00 0.  1.
    9000007    1    1    2  502    0  0.53545441188E+02 -0.82193767570E+02  0.94187786326E+03  0.10279867893E+04  0.40000000000E+03 0. -1.
   -9000007    1    1    2    0  501 -0.53545441188E+02  0.82193767570E+02  0.31946807933E+03  0.52123198617E+03  0.40000000000E+03 0.  1.
<mgrwt>
<rscale>  2 0.41185304E+03</rscale>
<asrwt>0</asrwt>
<pdfrwt beam="1">  1        2 0.21619728E+00 0.41185304E+03</pdfrwt>
<pdfrwt beam="2">  1       -2 0.22144065E-01 0.41185304E+03</pdfrwt>
<totfact> 0.26706620E+02</totfact>
</mgrwt>
</event>
<event>
 4    1  0.2454657E-002  0.4973003E+03  0.7818608E-02  0.1014486E+00
         -2   -1    0    0    0  501 -0.00000000000E+00  0.00000000000E+00  0.13125743081E+03  0.13125743081E+03  0.00000000000E+00 0.  1.
          2   -1    0    0  502    0  0.00000000000E+00 -0.00000000000E+00 -0.21137325654E+04  0.21137325654E+04  0.00000000000E+00 0. -1.
    9000007    1    1    2  502    0 -0.60032231850E+02 -0.28931603515E+03 -0.62129319746E+03  0.79580957161E+03  0.40000000000E+03 0. -1.
   -9000007    1    1    2    0  501  0.60032231850E+02  0.28931603515E+03 -0.13611819371E+04  0.14491804246E+04  0.40000000000E+03 0. -1.
<mgrwt>
<rscale>  2 0.49730035E+03</rscale>
<asrwt>0</asrwt>
<pdfrwt beam="1">  1        2 0.32518962E+00 0.49730035E+03</pdfrwt>
<pdfrwt beam="2">  1       -2 0.20193451E-01 0.49730035E+03</pdfrwt>
<totfact> 0.12851168E+02</totfact>
</mgrwt>
</event>
<event>
 4    1  0.2454657E-002  0.4977945E+03  0.7818608E-02  0.1014356E+00
         -1   -1    0    0    0  501 -0.00000000000E+00  0.00000000000E+00  0.32232165444E+03  0.32232165444E+03  0.00000000000E+00 0.  1.
          1   -1    0    0  502    0  0.00000000000E+00 -0.00000000000E+00 -0.92176414239E+03  0.92176414239E+03  0.00000000000E+00 0. -1.
    9000007    1    1    2  502    0  0.21420192732E+02 -0.29553440559E+03 -0.46318238959E+02  0.49994478576E+03  0.40000000000E+03 0.  1.
   -9000007    1    1    2    0  501 -0.21420192732E+02  0.29553440559E+03 -0.55312424899E+03  0.74414101107E+03  0.40000000000E+03 0. -1.
<mgrwt>
<rscale>  2 0.49779455E+03</rscale>
<asrwt>0</asrwt>
<pdfrwt beam="1">  1        1 0.14180987E+00 0.49779455E+03</pdfrwt>
<pdfrwt beam="2">  1       -1 0.49587947E-01 0.49779455E+03</pdfrwt>
<totfact> 0.74694452E+01</totfact>
</mgrwt>
</event>
<event>
 4    1  0.2454657E-002  0.4624849E+03  0.7818608E-02  0.1024063E+00
          2   -1    0    0  502    0  0.00000000000E+00  0.00000000000E+00  0.16319775428E+04  0.16319775428E+04  0.00000000000E+00 0.  1.
         -2   -1    0    0    0  501 -0.00000000000E+00 -0.00000000000E+00 -0.19212491640E+03  0.19212491640E+03  0.00000000000E+00 0. -1.
    9000007    1    1    2  502    0  0.14748738211E+03 -0.17927568384E+03  0.12341021627E+04  0.13179151895E+04  0.40000000000E+03 0.  1.
   -9000007    1    1    2    0  501 -0.14748738211E+03  0.17927568384E+03  0.20575046367E+03  0.50618726969E+03  0.40000000000E+03 0. -1.
<mgrwt>
<rscale>  2 0.46248492E+03</rscale>
<asrwt>0</asrwt>
<pdfrwt beam="1">  1        2 0.25107346E+00 0.46248492E+03</pdfrwt>
<pdfrwt beam="2">  1       -2 0.29557680E-01 0.46248492E+03</pdfrwt>
<totfact> 0.11883441E+02</totfact>
</mgrwt>
</event>
<event>
 4    1  0.2454657E-002  0.4336839E+03  0.7818608E-02  0.1032703E+00
         -4   -1    0    0    0  501 -0.00000000000E+00  0.00000000000E+00  0.35290592374E+03  0.35290592374E+03  0.00000000000E+00 0. -1.
          4   -1    0    0  502    0  0.00000000000E+00 -0.00000000000E+00 -0.54500921593E+03  0.54500921593E+03  0.00000000000E+00 0.  1.
    9000007    1    1    2  502    0  0.15798813946E+03  0.55870408031E+02 -0.16282992493E+03  0.46324436225E+03  0.40000000000E+03 0. -1.
   -9000007    1    1    2    0  501 -0.15798813946E+03 -0.55870408031E+02 -0.29273367258E+02  0.43467077741E+03  0.40000000000E+03 0.  1.
<mgrwt>
<rscale>  2 0.43368393E+03</rscale>
<asrwt>0</asrwt>
<pdfrwt beam="1">  1        4 0.83847571E-01 0.43368393E+03</pdfrwt>
<pdfrwt beam="2">  1       -4 0.54293219E-01 0.43368393E+03</pdfrwt>
<totfact> 0.78145909E+00</totfact>
</mgrwt>
</event>
<event>
 4    1  0.2454657E-002  0.4392079E+03  0.7818608E-02  0.1030990E+00
         -2   -1    0    0    0  501 -0.00000000000E+00  0.00000000000E+00  0.15472618349E+03  0.15472618349E+03  0.00000000000E+00 0. -1.
          2   -1    0    0  502    0  0.00000000000E+00 -0.00000000000E+00 -0.18754368296E+04  0.18754368296E+04  0.00000000000E+00 0.  1.
    9000007    1    1    2  502    0 -0.49822607604E+02  0.17441711273E+03 -0.27263641626E+03  0.51694703492E+03  0.40000000000E+03 0. -1.
   -9000007    1    1    2    0  501  0.49822607604E+02 -0.17441711273E+03 -0.14480742299E+04  0.15132159782E+04  0.40000000000E+03 0.  1.
<mgrwt>
<rscale>  2 0.43920795E+03</rscale>
<asrwt>0</asrwt>
<pdfrwt beam="1">  1        2 0.28852875E+00 0.43920795E+03</pdfrwt>
<pdfrwt beam="2">  1       -2 0.23804027E-01 0.43920795E+03</pdfrwt>
<totfact> 0.13047387E+02</totfact>
</mgrwt>
</event>
<event>
 4    1  0.2454657E-002  0.8353716E+03  0.7818608E-02  0.9510184E-01
          2   -1    0    0  502    0  0.00000000000E+00  0.00000000000E+00  0.11527856385E+04  0.11527856385E+04  0.00000000000E+00 0. -1.
         -2   -1    0    0    0  501 -0.00000000000E+00 -0.00000000000E+00 -0.63430209438E+03  0.63430209438E+03  0.00000000000E+00 0.  1.
    9000007    1    1    2  502    0 -0.16914859040E+00  0.73337959851E+03  0.68360621098E+02  0.83816396883E+03  0.40000000000E+03 0.  1.
   -9000007    1    1    2    0  501  0.16914859040E+00 -0.73337959851E+03  0.45012292298E+03  0.94892376402E+03  0.40000000000E+03 0. -1.
<mgrwt>
<rscale>  2 0.83537157E+03</rscale>
<asrwt>0</asrwt>
<pdfrwt beam="1">  1        2 0.17735164E+00 0.83537157E+03</pdfrwt>
<pdfrwt beam="2">  1       -2 0.97584938E-01 0.83537157E+03</pdfrwt>
<totfact> 0.17863056E+01</totfact>
</mgrwt>
</event>
<event>
 4    1  0.2454657E-002  0.5211997E+03  0.7818608E-02  0.1008389E+00
          2   -1    0    0  502    0  0.00000000000E+00  0.00000000000E+00  0.25954623648E+04  0.25954623648E+04  0.00000000000E+00 0.  1.
         -2   -1    0    0    0  501 -0.00000000000E+00 -0.00000000000E+00 -0.10472559082E+03  0.10472559082E+03  0.00000000000E+00 0. -1.
    9000007    1    1    2  502    0 -0.27496447703E+03 -0.18985166443E+03  0.12783499341E+04  0.13805171756E+04  0.40000000000E+03 0.  1.
   -9000007    1    1    2    0  501  0.27496447703E+03  0.18985166443E+03  0.12123868399E+04  0.13196707800E+04  0.40000000000E+03 0.  1.
<mgrwt>
<rscale>  2 0.52119969E+03</rscale>
<asrwt>0</asrwt>
<pdfrwt beam="1">  1        2 0.39930186E+00 0.52119969E+03</pdfrwt>
<pdfrwt beam="2">  1       -2 0.16111631E-01 0.52119969E+03</pdfrwt>
<totfact> 0.10220870E+02</totfact>
</mgrwt>
</event>
<event>
 4    1  0.2454657E-002  0.6084118E+03  0.7818608E-02  0.9888106E-01
         -2   -1    0    0    0  501 -0.00000000000E+00  0.00000000000E+00  0.34563519793E+03  0.34563519793E+03  0.00000000000E+00 0.  1.
          2   -1    0    0  502    0  0.00000000000E+00 -0.00000000000E+00 -0.10778996029E+04  0.10778996029E+04  0.00000000000E+00 0. -1.
    9000007    1    1    2  502    0 -0.40509871434E+02  0.45664410841E+03 -0.42320201162E+03  0.74112403420E+03  0.40000000000E+03 0. -1.
   -9000007    1    1    2    0  501  0.40509871434E+02 -0.45664410841E+03 -0.30906239335E+03  0.68241076663E+03  0.40000000000E+03 0.  1.
<mgrwt>
<rscale>  2 0.60841178E+03</rscale>
<asrwt>0</asrwt>
<pdfrwt beam="1">  1        2 0.16583070E+00 0.60841178E+03</pdfrwt>
<pdfrwt beam="2">  1       -2 0.53174647E-01 0.60841178E+03</pdfrwt>
<totfact> 0.77092734E+01</totfact>
</mgrwt>
</event>
<event>
 4    1  0.2454657E-002  0.4892586E+03  0.7818608E-02  0.1016621E+00
         -2   -1    0    0    0  501 -0.00000000000E+00  0.00000000000E+00  0.47870048702E+03  0.47870048702E+03  0.00000000000E+00 0.  1.
          2   -1    0    0  502    0  0.00000000000E+00 -0.00000000000E+00 -0.50294395230E+03  0.50294395230E+03  0.00000000000E+00 0. -1.
    9000007    1    1    2  502    0 -0.26105795375E+03 -0.10593727726E+03 -0.49356106381E+02  0.49174178912E+03  0.40000000000E+03 0. -1.
   -9000007    1    1    2    0  501  0.26105795375E+03  0.10593727726E+03  0.25112641097E+02  0.48990265020E+03  0.40000000000E+03 0.  1.
<mgrwt>
<rscale>  2 0.48925858E+03</rscale>
<asrwt>0</asrwt>
<pdfrwt beam="1">  1        2 0.77375993E-01 0.48925858E+03</pdfrwt>
<pdfrwt beam="2">  1       -2 0.73646229E-01 0.48925858E+03</pdfrwt>
<totfact> 0.10452499E+02</totfact>
</mgrwt>
</event>
<event>
 4    1  0.2454657E-002  0.4070890E+03  0.7818608E-02  0.1041352E+00
         -2   -1    0    0    0  501 -0.00000000000E+00  0.00000000000E+00  0.12062655983E+03  0.12062655983E+03  0.00000000000E+00 0.  1.
          2   -1    0    0  502    0  0.00000000000E+00 -0.00000000000E+00 -0.13779862095E+04  0.13779862095E+04  0.00000000000E+00 0. -1.
    9000007    1    1    2  502    0 -0.41670555001E+02 -0.63126801931E+02 -0.66978855931E+03  0.78379725852E+03  0.40000000000E+03 0.  1.
   -9000007    1    1    2    0  501  0.41670555001E+02  0.63126801931E+02 -0.58757109037E+03  0.71481551083E+03  0.40000000000E+03 0.  1.
<mgrwt>
<rscale>  2 0.40708897E+03</rscale>
<asrwt>0</asrwt>
<pdfrwt beam="1">  1        2 0.21199788E+00 0.40708897E+03</pdfrwt>
<pdfrwt beam="2">  1       -2 0.18557932E-01 0.40708897E+03</pdfrwt>
<totfact> 0.37589122E+02</totfact>
</mgrwt>
</event>
<event>
 4    1  0.2454657E-002  0.4217416E+03  0.7818608E-02  0.1036501E+00
         -2   -1    0    0    0  501 -0.00000000000E+00  0.00000000000E+00  0.76635576015E+02  0.76635576015E+02  0.00000000000E+00 0.  1.
          2   -1    0    0  502    0  0.00000000000E+00 -0.00000000000E+00 -0.32346179031E+04  0.32346179031E+04  0.00000000000E+00 0. -1.
    9000007    1    1    2  502    0  0.45253960016E+02 -0.12576999610E+03 -0.24589234226E+04  0.24948287338E+04  0.40000000000E+03 0. -1.
   -9000007    1    1    2    0  501 -0.45253960016E+02  0.12576999610E+03 -0.69905890450E+03  0.81642474533E+03  0.40000000000E+03 0.  1.
<mgrwt>
<rscale>  2 0.42174164E+03</rscale>
<asrwt>0</asrwt>
<pdfrwt beam="1">  1        2 0.49763358E+00 0.42174164E+03</pdfrwt>
<pdfrwt beam="2">  1       -2 0.11790087E-01 0.42174164E+03</pdfrwt>
<totfact> 0.73014297E+01</totfact>
</mgrwt>
</event>
<event>
 4    1  0.2454657E-002  0.6887163E+03  0.7818608E-02  0.9736726E-01
         -2   -1    0    0    0  501 -0.00000000000E+00  0.00000000000E+00  0.24398772587E+03  0.24398772587E+03  0.00000000000E+00 0.  1.
          2   -1    0    0  502    0  0.00000000000E+00 -0.00000000000E+00 -0.20603822480E+04  0.20603822480E+04  0.00000000000E+00 0. -1.
    9000007    1    1    2  502    0  0.48007783952E+03 -0.28957787648E+03 -0.63444705545E+03  0.93640437030E+03  0.40000000000E+03 0.  1.
   -9000007    1    1    2    0  501 -0.48007783952E+03  0.28957787648E+03 -0.11819474667E+04  0.13679656036E+04  0.40000000000E+03 0. -1.
<mgrwt>
<rscale>  2 0.68871625E+03</rscale>
<asrwt>0</asrwt>
<pdfrwt beam="1">  1        2 0.31698189E+00 0.68871625E+03</pdfrwt>
<pdfrwt beam="2">  1       -2 0.37536573E-01 0.68871625E+03</pdfrwt>
<totfact> 0.43056240E+01</totfact>
</mgrwt>
</event>
<event>
 4    1  0.2454657E-002  0.4384062E+03  0.7818608E-02  0.1031237E+00
          1   -1    0    0  502    0  0.00000000000E+00  0.00000000000E+00  0.93712698860E+03  0.93712698860E+03  0.00000000000E+00 0. -1.
         -1   -1    0    0    0  501 -0.00000000000E+00 -0.00000000000E+00 -0.49169087839E+03  0.49169087839E+03  0.00000000000E+00 0.  1.
    9000007    1    1    2  502    0 -0.17896460192E+03 -0.13102051575E+02  0.76814404115E+03  0.88444630162E+03  0.40000000000E+03 0. -1.
   -9000007    1    1    2    0  501  0.17896460192E+03  0.13102051575E+02 -0.32270793094E+03  0.54437156537E+03  0.40000000000E+03 0.  1.
<mgrwt>
<rscale>  2 0.43840620E+03</rscale>
<asrwt>0</asrwt>
<pdfrwt beam="1">  1        1 0.14417338E+00 0.43840620E+03</pdfrwt>
<pdfrwt beam="2">  1       -1 0.75644750E-01 0.43840620E+03</pdfrwt>
<totfact> 0.31975155E+01</totfact>
</mgrwt>
</event>
<event>
 4    1  0.2454657E-002  0.5152174E+03  0.7818608E-02  0.1009882E+00
          2   -1    0    0  502    0  0.00000000000E+00  0.00000000000E+00  0.10353700366E+04  0.10353700366E+04  0.00000000000E+00 0.  1.
         -2   -1    0    0    0  501 -0.00000000000E+00 -0.00000000000E+00 -0.37111144196E+03  0.37111144196E+03  0.00000000000E+00 0. -1.
    9000007    1    1    2  502    0 -0.18216899658E+03  0.26881850750E+03 -0.58884138035E+02  0.51857137889E+03  0.40000000000E+03 0. -1.
   -9000007    1    1    2    0  501  0.18216899658E+03 -0.26881850750E+03  0.72314273269E+03  0.88791009969E+03  0.40000000000E+03 0.  1.
<mgrwt>
<rscale>  2 0.51521737E+03</rscale>
<asrwt>0</asrwt>
<pdfrwt beam="1">  1        2 0.15928770E+00 0.51521737E+03</pdfrwt>
<pdfrwt beam="2">  1       -2 0.57094068E-01 0.51521737E+03</pdfrwt>
<totfact> 0.71414909E+01</totfact>
</mgrwt>
</event>
<event>
 4    1  0.2454657E-002  0.4321148E+03  0.7818608E-02  0.1033194E+00
          1   -1    0    0  502    0  0.00000000000E+00  0.00000000000E+00  0.53364197344E+03  0.53364197344E+03  0.00000000000E+00 0. -1.
         -1   -1    0    0    0  501 -0.00000000000E+00 -0.00000000000E+00 -0.35054484824E+03  0.35054484824E+03  0.00000000000E+00 0.  1.
    9000007    1    1    2  502    0  0.71586246813E+02 -0.14696463595E+03  0.72638683378E+02  0.43817755907E+03  0.40000000000E+03 0.  1.
   -9000007    1    1    2    0  501 -0.71586246813E+02  0.14696463595E+03  0.11045844182E+03  0.44600926260E+03  0.40000000000E+03 0. -1.
<mgrwt>
<rscale>  2 0.43211479E+03</rscale>
<asrwt>0</asrwt>
<pdfrwt beam="1">  1        1 0.82098765E-01 0.43211479E+03</pdfrwt>
<pdfrwt beam="2">  1       -1 0.53929977E-01 0.43211479E+03</pdfrwt>
<totfact> 0.14616013E+02</totfact>
</mgrwt>
</event>
<event>
 4    1  0.2454657E-002  0.5890100E+03  0.7818608E-02  0.9928473E-01
          2   -1    0    0  502    0  0.00000000000E+00  0.00000000000E+00  0.84287897580E+03  0.84287897580E+03  0.00000000000E+00 0. -1.
         -2   -1    0    0    0  501 -0.00000000000E+00 -0.00000000000E+00 -0.45958691820E+03  0.45958691820E+03  0.00000000000E+00 0.  1.
    9000007    1    1    2  502    0 -0.78350757583E+02  0.42519869400E+03 -0.18777184378E+02  0.58930921700E+03  0.40000000000E+03 0.  1.
   -9000007    1    1    2    0  501  0.78350757583E+02 -0.42519869400E+03  0.40206924198E+03  0.71315667699E+03  0.40000000000E+03 0. -1.
<mgrwt>
<rscale>  2 0.58900999E+03</rscale>
<asrwt>0</asrwt>
<pdfrwt beam="1">  1        2 0.12967369E+00 0.58900999E+03</pdfrwt>
<pdfrwt beam="2">  1       -2 0.70705680E-01 0.58900999E+03</pdfrwt>
<totfact> 0.60025472E+01</totfact>
</mgrwt>
</event>
<event>
 4    1  0.2454657E-002  0.4219165E+03  0.7818608E-02  0.1036444E+00
          1   -1    0    0  502    0  0.00000000000E+00  0.00000000000E+00  0.20716520336E+04  0.20716520336E+04  0.00000000000E+00 0. -1.
         -1   -1    0    0    0  501 -0.00000000000E+00 -0.00000000000E+00 -0.25149567274E+03  0.25149567274E+03  0.00000000000E+00 0.  1.
    9000007    1    1    2  502    0 -0.12500348656E+03  0.48863417329E+02  0.18525512907E+04  0.18999894183E+04  0.40000000000E+03 0. -1.
   -9000007    1    1    2    0  501  0.12500348656E+03 -0.48863417329E+02 -0.32394929841E+02  0.42315828798E+03  0.40000000000E+03 0.  1.
<mgrwt>
<rscale>  2 0.42191647E+03</rscale>
<asrwt>0</asrwt>
<pdfrwt beam="1">  1        1 0.31871569E+00 0.42191647E+03</pdfrwt>
<pdfrwt beam="2">  1       -1 0.38691643E-01 0.42191647E+03</pdfrwt>
<totfact> 0.19146932E+01</totfact>
</mgrwt>
</event>
<event>
 4    1  0.2454657E-002  0.4066145E+03  0.7818608E-02  0.1041513E+00
         -1   -1    0    0    0  501 -0.00000000000E+00  0.00000000000E+00  0.21272828033E+04  0.21272828033E+04  0.00000000000E+00 0.  1.
          1   -1    0    0  502    0  0.00000000000E+00 -0.00000000000E+00 -0.81975137550E+02  0.81975137550E+02  0.00000000000E+00 0. -1.
    9000007    1    1    2  502    0 -0.72387219129E+02 -0.97681760879E+01  0.77102384361E+03  0.87167258427E+03  0.40000000000E+03 0. -1.
   -9000007    1    1    2    0  501  0.72387219129E+02  0.97681760879E+01  0.12742838221E+04  0.13375853566E+04  0.40000000000E+03 0.  1.
<mgrwt>
<rscale>  2 0.40661447E+03</rscale>
<asrwt>0</asrwt>
<pdfrwt beam="1">  1        1 0.12611561E-01 0.40661447E+03</pdfrwt>
<pdfrwt beam="2">  1       -1 0.32727424E+00 0.40661447E+03</pdfrwt>
<totfact> 0.11827521E+01</totfact>
</mgrwt>
</event>
<event>
 4    1  0.2454657E-002  0.5193742E+03  0.7818608E-02  0.1008842E+00
          4   -1    0    0  502    0  0.00000000000E+00  0.00000000000E+00  0.45584057463E+03  0.45584057463E+03  0.00000000000E+00 0.  1.
         -4   -1    0    0    0  501 -0.00000000000E+00 -0.00000000000E+00 -0.72097006024E+03  0.72097006024E+03  0.00000000000E+00 0. -1.
    9000007    1    1    2  502    0  0.19855055167E+03  0.26519283782E+03  0.11652806142E+03  0.53228596816E+03  0.40000000000E+03 0. -1.
   -9000007    1    1    2    0  501 -0.19855055167E+03 -0.26519283782E+03 -0.38165754703E+03  0.64452466672E+03  0.40000000000E+03 0.  1.
<mgrwt>
<rscale>  2 0.51937420E+03</rscale>
<asrwt>0</asrwt>
<pdfrwt beam="1">  1        4 0.70129320E-01 0.51937420E+03</pdfrwt>
<pdfrwt beam="2">  1       -4 0.11091847E+00 0.51937420E+03</pdfrwt>
<totfact> 0.23384006E+00</totfact>
</mgrwt>
</event>
<event>
 4    1  0.2454657E-002  0.4156578E+03  0.7818608E-02  0.1038489E+00
         -1   -1    0    0    0  501 -0.00000000000E+00  0.00000000000E+00  0.20463047229E+03  0.20463047229E+03  0.00000000000E+00 0.  1.
          1   -1    0    0  502    0  0.00000000000E+00 -0.00000000000E+00 -0.15872695285E+04  0.15872695285E+04  0.00000000000E+00 0. -1.
    9000007    1    1    2  502    0 -0.11226487239E+03  0.12961610691E+02 -0.13042923597E+04  0.13689229213E+04  0.40000000000E+03 0. -1.
   -9000007    1    1    2    0  501  0.11226487239E+03 -0.12961610691E+02 -0.78346696529E+02  0.42297707950E+03  0.40000000000E+03 0.  1.
<mgrwt>
<rscale>  2 0.41565780E+03</rscale>
<asrwt>0</asrwt>
<pdfrwt beam="1">  1        1 0.24419530E+00 0.41565780E+03</pdfrwt>
<pdfrwt beam="2">  1       -1 0.31481612E-01 0.41565780E+03</pdfrwt>
<totfact> 0.57568553E+01</totfact>
</mgrwt>
</event>
<event>
 4    1  0.2454657E-002  0.4214988E+03  0.7818608E-02  0.1036580E+00
          1   -1    0    0  502    0  0.00000000000E+00  0.00000000000E+00  0.59544419300E+03  0.59544419300E+03  0.00000000000E+00 0.  1.
         -1   -1    0    0    0  501 -0.00000000000E+00 -0.00000000000E+00 -0.36060931214E+03  0.36060931214E+03  0.00000000000E+00 0. -1.
    9000007    1    1    2  502    0  0.12834635992E+03 -0.34474282578E+02 -0.81180364301E+02  0.42924528630E+03  0.40000000000E+03 0. -1.
   -9000007    1    1    2    0  501 -0.12834635992E+03  0.34474282578E+02  0.31601524515E+03  0.52680821884E+03  0.40000000000E+03 0.  1.
<mgrwt>
<rscale>  2 0.42149883E+03</rscale>
<asrwt>0</asrwt>
<pdfrwt beam="1">  1        1 0.91606799E-01 0.42149883E+03</pdfrwt>
<pdfrwt beam="2">  1       -1 0.55478356E-01 0.42149883E+03</pdfrwt>
<totfact> 0.11902206E+02</totfact>
</mgrwt>
</event>
<event>
 4    1  0.2454657E-002  0.4472785E+03  0.7818608E-02  0.1028537E+00
          1   -1    0    0  502    0  0.00000000000E+00  0.00000000000E+00  0.12006197111E+04  0.12006197111E+04  0.00000000000E+00 0.  1.
         -1   -1    0    0    0  501 -0.00000000000E+00 -0.00000000000E+00 -0.16674298626E+03  0.16674298626E+03  0.00000000000E+00 0. -1.
    9000007    1    1    2  502    0 -0.17837519282E+03 -0.90776157063E+02  0.49906021939E+03  0.67016350444E+03  0.40000000000E+03 0.  1.
   -9000007    1    1    2    0  501  0.17837519282E+03  0.90776157063E+02  0.53481650546E+03  0.69719919292E+03  0.40000000000E+03 0.  1.
<mgrwt>
<rscale>  2 0.44727846E+03</rscale>
<asrwt>0</asrwt>
<pdfrwt beam="1">  1        1 0.18471072E+00 0.44727846E+03</pdfrwt>
<pdfrwt beam="2">  1       -1 0.25652768E-01 0.44727846E+03</pdfrwt>
<totfact> 0.14978967E+02</totfact>
</mgrwt>
</event>
<event>
 4    1  0.2454657E-002  0.8237330E+03  0.7818608E-02  0.9526286E-01
         -1   -1    0    0    0  501 -0.00000000000E+00  0.00000000000E+00  0.77839311728E+03  0.77839311728E+03  0.00000000000E+00 0.  1.
          1   -1    0    0  502    0  0.00000000000E+00 -0.00000000000E+00 -0.94426365569E+03  0.94426365569E+03  0.00000000000E+00 0. -1.
    9000007    1    1    2  502    0 -0.57092035180E+03 -0.43884613009E+03 -0.32168373251E+03  0.88431691025E+03  0.40000000000E+03 0. -1.
   -9000007    1    1    2    0  501  0.57092035180E+03  0.43884613009E+03  0.15581319409E+03  0.83833986273E+03  0.40000000000E+03 0.  1.
<mgrwt>
<rscale>  2 0.82373295E+03</rscale>
<asrwt>0</asrwt>
<pdfrwt beam="1">  1        1 0.14527133E+00 0.82373295E+03</pdfrwt>
<pdfrwt beam="2">  1       -1 0.11975279E+00 0.82373295E+03</pdfrwt>
<totfact> 0.10652631E+01</totfact>
</mgrwt>
</event>
<event>
 4    1  0.2454657E-002  0.4239993E+03  0.7818608E-02  0.1035772E+00
         -4   -1    0    0    0  501 -0.00000000000E+00  0.00000000000E+00  0.14794452070E+03  0.14794452070E+03  0.00000000000E+00 0.  1.
          4   -1    0    0  502    0  0.00000000000E+00 -0.00000000000E+00 -0.12458235982E+04  0.12458235982E+04  0.00000000000E+00 0. -1.
    9000007    1    1    2  502    0 -0.13966813043E+03 -0.16376843414E+02 -0.43959785814E+03  0.61075499551E+03  0.40000000000E+03 0. -1.
   -9000007    1    1    2    0  501  0.13966813043E+03  0.16376843414E+02 -0.65828121936E+03  0.78301312340E+03  0.40000000000E+03 0.  1.
<mgrwt>
<rscale>  2 0.42399928E+03</rscale>
<asrwt>0</asrwt>
<pdfrwt beam="1">  1        4 0.19166516E+00 0.42399928E+03</pdfrwt>
<pdfrwt beam="2">  1       -4 0.22760696E-01 0.42399928E+03</pdfrwt>
<totfact> 0.53620980E+00</totfact>
</mgrwt>
</event>
<event>
 4    1  0.2454657E-002  0.4625867E+03  0.7818608E-02  0.1024034E+00
         -2   -1    0    0    0  501 -0.00000000000E+00  0.00000000000E+00  0.11816841237E+03  0.11816841237E+03  0.00000000000E+00 0. -1.
          2   -1    0    0  502    0  0.00000000000E+00 -0.00000000000E+00 -0.26395934477E+04  0.26395934477E+04  0.00000000000E+00 0.  1.
    9000007    1    1    2  502    0 -0.21966382022E+03  0.75724748266E+02 -0.20333321192E+04  0.20852879749E+04  0.40000000000E+03 0.  1.
   -9000007    1    1    2    0  501  0.21966382022E+03 -0.75724748266E+02 -0.48809291614E+03  0.67247388514E+03  0.40000000000E+03 0. -1.
<mgrwt>
<rscale>  2 0.46258667E+03</rscale>
<asrwt>0</asrwt>
<pdfrwt beam="1">  1        2 0.40609127E+00 0.46258667E+03</pdfrwt>
<pdfrwt beam="2">  1       -2 0.18179757E-01 0.46258667E+03</pdfrwt>
<totfact> 0.79418729E+01</totfact>
</mgrwt>
</event>
<event>
 4    1  0.2454657E-002  0.4111640E+03  0.7818608E-02  0.1039981E+00
          2   -1    0    0  502    0  0.00000000000E+00  0.00000000000E+00  0.14135605428E+04  0.14135605428E+04  0.00000000000E+00 0. -1.
         -2   -1    0    0    0  501 -0.00000000000E+00 -0.00000000000E+00 -0.12109678193E+03  0.12109678193E+03  0.00000000000E+00 0.  1.
    9000007    1    1    2  502    0  0.80655514486E+02 -0.50502732711E+02  0.73166172170E+03  0.83927630315E+03  0.40000000000E+03 0. -1.
   -9000007    1    1    2    0  501 -0.80655514486E+02  0.50502732711E+02  0.56080203917E+03  0.69538102157E+03  0.40000000000E+03 0.  1.
<mgrwt>
<rscale>  2 0.41116400E+03</rscale>
<asrwt>0</asrwt>
<pdfrwt beam="1">  1        2 0.21747084E+00 0.41116400E+03</pdfrwt>
<pdfrwt beam="2">  1       -2 0.18630275E-01 0.41116400E+03</pdfrwt>
<totfact> 0.35668908E+02</totfact>
</mgrwt>
</event>
<event>
 4    1  0.2454657E-002  0.4178929E+03  0.7818608E-02  0.1037754E+00
         -2   -1    0    0    0  501 -0.00000000000E+00  0.00000000000E+00  0.16123295549E+03  0.16123295549E+03  0.00000000000E+00 0.  1.
          2   -1    0    0  502    0  0.00000000000E+00 -0.00000000000E+00 -0.12023017382E+04  0.12023017382E+04  0.00000000000E+00 0. -1.
    9000007    1    1    2  502    0  0.11530659130E+03  0.36590293506E+02 -0.73518708454E+03  0.84565625928E+03  0.40000000000E+03 0.  1.
   -9000007    1    1    2    0  501 -0.11530659130E+03 -0.36590293506E+02 -0.30588169820E+03  0.51787843445E+03  0.40000000000E+03 0. -1.
<mgrwt>
<rscale>  2 0.41789288E+03</rscale>
<asrwt>0</asrwt>
<pdfrwt beam="1">  1        2 0.18496949E+00 0.41789288E+03</pdfrwt>
<pdfrwt beam="2">  1       -2 0.24805071E-01 0.41789288E+03</pdfrwt>
<totfact> 0.28429143E+02</totfact>
</mgrwt>
</event>
<event>
 4    1  0.2454657E-002  0.1078653E+04  0.7818608E-02  0.9226252E-01
         -2   -1    0    0    0  501 -0.00000000000E+00  0.00000000000E+00  0.64906150813E+03  0.64906150813E+03  0.00000000000E+00 0.  1.
          2   -1    0    0  502    0  0.00000000000E+00 -0.00000000000E+00 -0.23097868224E+04  0.23097868224E+04  0.00000000000E+00 0. -1.
    9000007    1    1    2  502    0 -0.24118782981E+03  0.97227552785E+03 -0.15304320408E+04  0.18723550685E+04  0.40000000000E+03 0. -1.
   -9000007    1    1    2    0  501  0.24118782981E+03 -0.97227552785E+03 -0.13029327355E+03  0.10864932620E+04  0.40000000000E+03 0.  1.
<mgrwt>
<rscale>  2 0.10786525E+04</rscale>
<asrwt>0</asrwt>
<pdfrwt beam="1">  1        2 0.35535182E+00 0.10786525E+04</pdfrwt>
<pdfrwt beam="2">  1       -2 0.99855616E-01 0.10786525E+04</pdfrwt>
<totfact> 0.36919657E+00</totfact>
</mgrwt>
</event>
<event>
 4    1  0.2454657E-002  0.5490350E+03  0.7818608E-02  0.1001718E+00
         -2   -1    0    0    0  501 -0.00000000000E+00  0.00000000000E+00  0.15570430411E+03  0.15570430411E+03  0.00000000000E+00 0. -1.
          2   -1    0    0  502    0  0.00000000000E+00 -0.00000000000E+00 -0.21704121044E+04  0.21704121044E+04  0.00000000000E+00 0.  1.
    9000007    1    1    2  502    0 -0.98993127823E+02 -0.36282193473E+03 -0.62510611613E+03  0.83198380519E+03  0.40000000000E+03 0. -1.
   -9000007    1    1    2    0  501  0.98993127823E+02  0.36282193473E+03 -0.13896016841E+04  0.14941326033E+04  0.40000000000E+03 0. -1.
<mgrwt>
<rscale>  2 0.54903497E+03</rscale>
<asrwt>0</asrwt>
<pdfrwt beam="1">  1        2 0.33390953E+00 0.54903497E+03</pdfrwt>
<pdfrwt beam="2">  1       -2 0.23954510E-01 0.54903497E+03</pdfrwt>
<totfact> 0.87912503E+01</totfact>
</mgrwt>
</event>
<event>
 4    1  0.2454657E-002  0.4012136E+03  0.7818608E-02  0.1043360E+00
         -1   -1    0    0    0  501 -0.00000000000E+00  0.00000000000E+00  0.17806868646E+03  0.17806868646E+03  0.00000000000E+00 0. -1.
          1   -1    0    0  502    0  0.00000000000E+00 -0.00000000000E+00 -0.11274711330E+04  0.11274711330E+04  0.00000000000E+00 0.  1.
    9000007    1    1    2  502    0 -0.28946200130E+02 -0.11597185062E+02 -0.76532255394E+03  0.86411283336E+03  0.40000000000E+03 0.  1.
   -9000007    1    1    2    0  501  0.28946200130E+02  0.11597185062E+02 -0.18407989259E+03  0.44142698610E+03  0.40000000000E+03 0. -1.
<mgrwt>
<rscale>  2 0.40121363E+03</rscale>
<asrwt>0</asrwt>
<pdfrwt beam="1">  1        1 0.17345710E+00 0.40121363E+03</pdfrwt>
<pdfrwt beam="2">  1       -1 0.27395183E-01 0.40121363E+03</pdfrwt>
<totfact> 0.15213760E+02</totfact>
</mgrwt>
</event>
<event>
 4    1  0.2454657E-002  0.5128577E+03  0.7818608E-02  0.1010476E+00
          1   -1    0    0  502    0  0.00000000000E+00  0.00000000000E+00  0.36451413497E+04  0.36451413497E+04  0.00000000000E+00 0. -1.
         -1   -1    0    0    0  501 -0.00000000000E+00 -0.00000000000E+00 -0.73125245843E+02  0.73125245843E+02  0.00000000000E+00 0.  1.
    9000007    1    1    2  502    0  0.21093260094E+03  0.24193068307E+03  0.15720958083E+04  0.16536348593E+04  0.40000000000E+03 0. -1.
   -9000007    1    1    2    0  501 -0.21093260094E+03 -0.24193068307E+03  0.19999202956E+04  0.20646317363E+04  0.40000000000E+03 0.  1.
<mgrwt>
<rscale>  2 0.51285770E+03</rscale>
<asrwt>0</asrwt>
<pdfrwt beam="1">  1        1 0.56079084E+00 0.51285770E+03</pdfrwt>
<pdfrwt beam="2">  1       -1 0.11250041E-01 0.51285770E+03</pdfrwt>
<totfact> 0.11355190E+01</totfact>
</mgrwt>
</event>
<event>
 4    1  0.2454657E-002  0.4244822E+03  0.7818608E-02  0.1035617E+00
          2   -1    0    0  502    0  0.00000000000E+00  0.00000000000E+00  0.32879806988E+03  0.32879806988E+03  0.00000000000E+00 0.  1.
         -2   -1    0    0    0  501 -0.00000000000E+00 -0.00000000000E+00 -0.55520376951E+03  0.55520376951E+03  0.00000000000E+00 0. -1.
    9000007    1    1    2  502    0 -0.14205587560E+03  0.23036227502E+01 -0.16350944175E+03  0.45488516794E+03  0.40000000000E+03 0. -1.
   -9000007    1    1    2    0  501  0.14205587560E+03 -0.23036227502E+01 -0.62896257884E+02  0.42911667146E+03  0.40000000000E+03 0.  1.
<mgrwt>
<rscale>  2 0.42448225E+03</rscale>
<asrwt>0</asrwt>
<pdfrwt beam="1">  1        2 0.50584318E-01 0.42448225E+03</pdfrwt>
<pdfrwt beam="2">  1       -2 0.85415965E-01 0.42448225E+03</pdfrwt>
<totfact> 0.12132491E+02</totfact>
</mgrwt>
</event>
<event>
 4    1  0.2454657E-002  0.5528132E+03  0.7818608E-02  0.1000845E+00
          2   -1    0    0  502    0  0.00000000000E+00  0.00000000000E+00  0.29439679682E+04  0.29439679682E+04  0.00000000000E+00 0. -1.
         -2   -1    0    0    0  501 -0.00000000000E+00 -0.00000000000E+00 -0.16857534674E+03  0.16857534674E+03  0.00000000000E+00 0.  1.
    9000007    1    1    2  502    0  0.24612501701E+02  0.38078430469E+03  0.42304116639E+03  0.69610795887E+03  0.40000000000E+03 0.  1.
   -9000007    1    1    2    0  501 -0.24612501701E+02 -0.38078430469E+03  0.23523514551E+04  0.24164353561E+04  0.40000000000E+03 0. -1.
<mgrwt>
<rscale>  2 0.55281323E+03</rscale>
<asrwt>0</asrwt>
<pdfrwt beam="1">  1        2 0.45291811E+00 0.55281323E+03</pdfrwt>
<pdfrwt beam="2">  1       -2 0.25934671E-01 0.55281323E+03</pdfrwt>
<totfact> 0.27712568E+01</totfact>
</mgrwt>
</event>
<event>
 4    1  0.2454657E-002  0.4025227E+03  0.7818608E-02  0.1042910E+00
         -2   -1    0    0    0  501 -0.00000000000E+00  0.00000000000E+00  0.39559029020E+03  0.39559029020E+03  0.00000000000E+00 0. -1.
          2   -1    0    0  502    0  0.00000000000E+00 -0.00000000000E+00 -0.55232654566E+03  0.55232654566E+03  0.00000000000E+00 0.  1.
    9000007    1    1    2  502    0 -0.44706796513E+02 -0.50792867990E+01 -0.31932003652E+03  0.51379936019E+03  0.40000000000E+03 0.  1.
   -9000007    1    1    2    0  501  0.44706796513E+02  0.50792867990E+01  0.16258378107E+03  0.43411747566E+03  0.40000000000E+03 0. -1.
<mgrwt>
<rscale>  2 0.40252267E+03</rscale>
<asrwt>0</asrwt>
<pdfrwt beam="1">  1        2 0.84973315E-01 0.40252267E+03</pdfrwt>
<pdfrwt beam="2">  1       -2 0.60860045E-01 0.40252267E+03</pdfrwt>
<totfact> 0.14223744E+02</totfact>
</mgrwt>
</event>
<event>
 4    1  0.2454657E-002  0.4633612E+03  0.7818608E-02  0.1023811E+00
         -1   -1    0    0    0  501 -0.00000000000E+00  0.00000000000E+00  0.98169645492E+02  0.98169645492E+02  0.00000000000E+00 0.  1.
          1   -1    0    0  502    0  0.00000000000E+00 -0.00000000000E+00 -0.24679836239E+04  0.24679836239E+04  0.00000000000E+00 0. -1.
    9000007    1    1    2  502    0 -0.20890200073E+03  0.10518362368E+03 -0.75202472002E+03  0.88331467785E+03  0.40000000000E+03 0.  1.
   -9000007    1    1    2    0  501  0.20890200073E+03 -0.10518362368E+03 -0.16177892584E+04  0.16828385915E+04  0.40000000000E+03 0. -1.
<mgrwt>
<rscale>  2 0.46336124E+03</rscale>
<asrwt>0</asrwt>
<pdfrwt beam="1">  1        1 0.37968972E+00 0.46336124E+03</pdfrwt>
<pdfrwt beam="2">  1       -1 0.15103025E-01 0.46336124E+03</pdfrwt>
<totfact> 0.50576550E+01</totfact>
</mgrwt>
</event>
<event>
 4    1  0.2454657E-002  0.4276399E+03  0.7818608E-02  0.1034608E+00
          4   -1    0    0  502    0  0.00000000000E+00  0.00000000000E+00  0.12365159222E+04  0.12365159222E+04  0.00000000000E+00 0. -1.
         -4   -1    0    0    0  501 -0.00000000000E+00 -0.00000000000E+00 -0.23532170627E+03  0.23532170627E+03  0.00000000000E+00 0.  1.
    9000007    1    1    2  502    0  0.14067345397E+03 -0.55559716354E+02  0.52039530714E+02  0.43079463262E+03  0.40000000000E+03 0.  1.
   -9000007    1    1    2    0  501 -0.14067345397E+03  0.55559716354E+02  0.94915468520E+03  0.10410429958E+04  0.40000000000E+03 0. -1.
<mgrwt>
<rscale>  2 0.42763992E+03</rscale>
<asrwt>0</asrwt>
<pdfrwt beam="1">  1        4 0.19023322E+00 0.42763992E+03</pdfrwt>
<pdfrwt beam="2">  1       -4 0.36203340E-01 0.42763992E+03</pdfrwt>
<totfact> 0.22472383E+00</totfact>
</mgrwt>
</event>
<event>
 4    1  0.2454657E-002  0.4297869E+03  0.7818608E-02  0.1033927E+00
          2   -1    0    0  502    0  0.00000000000E+00  0.00000000000E+00  0.94461245264E+03  0.94461245264E+03  0.00000000000E+00 0.  1.
         -2   -1    0    0    0  501 -0.00000000000E+00 -0.00000000000E+00 -0.19818659101E+03  0.19818659101E+03  0.00000000000E+00 0. -1.
    9000007    1    1    2  502    0  0.10431742894E+03  0.11762066976E+03  0.30727772780E+03  0.52833355935E+03  0.40000000000E+03 0.  1.
   -9000007    1    1    2    0  501 -0.10431742894E+03 -0.11762066976E+03  0.43914813383E+03  0.61446548429E+03  0.40000000000E+03 0.  1.
<mgrwt>
<rscale>  2 0.42978686E+03</rscale>
<asrwt>0</asrwt>
<pdfrwt beam="1">  1        2 0.14532499E+00 0.42978686E+03</pdfrwt>
<pdfrwt beam="2">  1       -2 0.30490245E-01 0.42978686E+03</pdfrwt>
<totfact> 0.28013985E+02</totfact>
</mgrwt>
</event>
<event>
 4    1  0.2454657E-002  0.6685541E+03  0.7818608E-02  0.9772573E-01
         -1   -1    0    0    0  501 -0.00000000000E+00  0.00000000000E+00  0.57294291840E+03  0.57294291840E+03  0.00000000000E+00 0.  1.
          1   -1    0    0  502    0  0.00000000000E+00 -0.00000000000E+00 -0.78795819147E+03  0.78795819147E+03  0.00000000000E+00 0. -1.
    9000007    1    1    2  502    0  0.49334421849E+03 -0.20874869778E+03 -0.17537141914E+03  0.69117267842E+03  0.40000000000E+03 0. -1.
   -9000007    1    1    2    0  501 -0.49334421849E+03  0.20874869778E+03 -0.39643853936E+02  0.66972843145E+03  0.40000000000E+03 0.  1.
<mgrwt>
<rscale>  2 0.66855406E+03</rscale>
<asrwt>0</asrwt>
<pdfrwt beam="1">  1        1 0.12122434E+00 0.66855406E+03</pdfrwt>
<pdfrwt beam="2">  1       -1 0.88145065E-01 0.66855406E+03</pdfrwt>
<totfact> 0.29650570E+01</totfact>
</mgrwt>
</event>
<event>
 4    1  0.2454657E-002  0.4107080E+03  0.7818608E-02  0.1040134E+00
          1   -1    0    0  502    0  0.00000000000E+00  0.00000000000E+00  0.60042386660E+03  0.60042386660E+03  0.00000000000E+00 0.  1.
         -1   -1    0    0    0  501 -0.00000000000E+00 -0.00000000000E+00 -0.31204706468E+03  0.31204706468E+03  0.00000000000E+00 0. -1.
    9000007    1    1    2  502    0 -0.33076509002E+02  0.87103279854E+02  0.28824470672E+03  0.50176293981E+03  0.40000000000E+03 0.  1.
   -9000007    1    1    2    0  501  0.33076509002E+02 -0.87103279854E+02  0.13209520234E+00  0.41070799147E+03  0.40000000000E+03 0. -1.
<mgrwt>
<rscale>  2 0.41070797E+03</rscale>
<asrwt>0</asrwt>
<pdfrwt beam="1">  1        1 0.92372902E-01 0.41070797E+03</pdfrwt>
<pdfrwt beam="2">  1       -1 0.48007241E-01 0.41070797E+03</pdfrwt>
<totfact> 0.15467493E+02</totfact>
</mgrwt>
</event>
<event>
 4    1  0.2454657E-002  0.4285077E+03  0.7818608E-02  0.1034332E+00
          2   -1    0    0  502    0  0.00000000000E+00  0.00000000000E+00  0.33976451620E+04  0.33976451620E+04  0.00000000000E+00 0.  1.
         -2   -1    0    0    0  501 -0.00000000000E+00 -0.00000000000E+00 -0.60760764970E+02  0.60760764970E+02  0.00000000000E+00 0. -1.
    9000007    1    1    2  502    0  0.24554720612E+02  0.15170985110E+03  0.22434158451E+04  0.22839731757E+04  0.40000000000E+03 0.  1.
   -9000007    1    1    2    0  501 -0.24554720612E+02 -0.15170985110E+03  0.10934685520E+04  0.11744327513E+04  0.40000000000E+03 0. -1.
<mgrwt>
<rscale>  2 0.42850766E+03</rscale>
<asrwt>0</asrwt>
<pdfrwt beam="1">  1        2 0.52271449E+00 0.42850766E+03</pdfrwt>
<pdfrwt beam="2">  1       -2 0.93478127E-02 0.42850766E+03</pdfrwt>
<totfact> 0.83373710E+01</totfact>
</mgrwt>
</event>
<event>
 4    1  0.2454657E-002  0.4655600E+03  0.7818608E-02  0.1023181E+00
          2   -1    0    0  502    0  0.00000000000E+00  0.00000000000E+00  0.23763653958E+04  0.23763653958E+04  0.00000000000E+00 0.  1.
         -2   -1    0    0    0  501 -0.00000000000E+00 -0.00000000000E+00 -0.98033712564E+02  0.98033712564E+02  0.00000000000E+00 0. -1.
    9000007    1    1    2  502    0  0.23811065900E+03 -0.70290225313E+01  0.14655971303E+04  0.15377649500E+04  0.40000000000E+03 0.  1.
   -9000007    1    1    2    0  501 -0.23811065900E+03  0.70290225313E+01  0.81273455291E+03  0.93663415835E+03  0.40000000000E+03 0. -1.
<mgrwt>
<rscale>  2 0.46555998E+03</rscale>
<asrwt>0</asrwt>
<pdfrwt beam="1">  1        2 0.36559463E+00 0.46555998E+03</pdfrwt>
<pdfrwt beam="2">  1       -2 0.15082111E-01 0.46555998E+03</pdfrwt>
<totfact> 0.15290447E+02</totfact>
</mgrwt>
</event>
<event>
 4    1  0.2454657E-002  0.4460928E+03  0.7818608E-02  0.1028894E+00
         -2   -1    0    0    0  501 -0.00000000000E+00  0.00000000000E+00  0.12823767865E+03  0.12823767865E+03  0.00000000000E+00 0. -1.
          2   -1    0    0  502    0  0.00000000000E+00 -0.00000000000E+00 -0.22097282749E+04  0.22097282749E+04  0.00000000000E+00 0.  1.
    9000007    1    1    2  502    0  0.15967824163E+03  0.11619673386E+03 -0.40287985322E+03  0.60109150547E+03  0.40000000000E+03 0. -1.
   -9000007    1    1    2    0  501 -0.15967824163E+03 -0.11619673386E+03 -0.16786107430E+04  0.17368744481E+04  0.40000000000E+03 0.  1.
<mgrwt>
<rscale>  2 0.44609284E+03</rscale>
<asrwt>0</asrwt>
<pdfrwt beam="1">  1        2 0.33995819E+00 0.44609284E+03</pdfrwt>
<pdfrwt beam="2">  1       -2 0.19728874E-01 0.44609284E+03</pdfrwt>
<totfact> 0.11974591E+02</totfact>
</mgrwt>
</event>
<event>
 4    1  0.2454657E-002  0.6970114E+03  0.7818608E-02  0.9722357E-01
         -2   -1    0    0    0  501 -0.00000000000E+00  0.00000000000E+00  0.10967942030E+04  0.10967942030E+04  0.00000000000E+00 0.  1.
          2   -1    0    0  502    0  0.00000000000E+00 -0.00000000000E+00 -0.48507226427E+03  0.48507226427E+03  0.00000000000E+00 0. -1.
    9000007    1    1    2  502    0 -0.46121702602E+03  0.33630899441E+03  0.72787435059E+02  0.70080160924E+03  0.40000000000E+03 0. -1.
   -9000007    1    1    2    0  501  0.46121702602E+03 -0.33630899441E+03  0.53893450367E+03  0.88106485803E+03  0.40000000000E+03 0.  1.
<mgrwt>
<rscale>  2 0.69701140E+03</rscale>
<asrwt>0</asrwt>
<pdfrwt beam="1">  1        2 0.74626502E-01 0.69701140E+03</pdfrwt>
<pdfrwt beam="2">  1       -2 0.16873757E+00 0.69701140E+03</pdfrwt>
<totfact> 0.14165078E+01</totfact>
</mgrwt>
</event>
<event>
 4    1  0.2454657E-002  0.4794204E+03  0.7818608E-02  0.1019295E+00
          2   -1    0    0  502    0  0.00000000000E+00  0.00000000000E+00  0.72032889971E+03  0.72032889971E+03  0.00000000000E+00 0.  1.
         -2   -1    0    0    0  501 -0.00000000000E+00 -0.00000000000E+00 -0.31931057059E+03  0.31931057059E+03  0.00000000000E+00 0. -1.
    9000007    1    1    2  502    0  0.22954195142E+03  0.13097487420E+03  0.18659886365E+03  0.51445413892E+03  0.40000000000E+03 0. -1.
   -9000007    1    1    2    0  501 -0.22954195142E+03 -0.13097487420E+03  0.21441946546E+03  0.52518533138E+03  0.40000000000E+03 0.  1.
<mgrwt>
<rscale>  2 0.47942041E+03</rscale>
<asrwt>0</asrwt>
<pdfrwt beam="1">  1        2 0.11081983E+00 0.47942041E+03</pdfrwt>
<pdfrwt beam="2">  1       -2 0.49124703E-01 0.47942041E+03</pdfrwt>
<totfact> 0.15941444E+02</totfact>
</mgrwt>
</event>
<event>
 4    1  0.2454657E-002  0.4490429E+03  0.7818608E-02  0.1028008E+00
         -1   -1    0    0    0  501 -0.00000000000E+00  0.00000000000E+00  0.60797938031E+03  0.60797938031E+03  0.00000000000E+00 0.  1.
          1   -1    0    0  502    0  0.00000000000E+00 -0.00000000000E+00 -0.43431944239E+03  0.43431944239E+03  0.00000000000E+00 0. -1.
    9000007    1    1    2  502    0 -0.64063874760E+02 -0.19374043912E+03 -0.16654701819E+03  0.47893365623E+03  0.40000000000E+03 0. -1.
   -9000007    1    1    2    0  501  0.64063874760E+02  0.19374043912E+03  0.34020695612E+03  0.56336516647E+03  0.40000000000E+03 0.  1.
<mgrwt>
<rscale>  2 0.44904291E+03</rscale>
<asrwt>0</asrwt>
<pdfrwt beam="1">  1        1 0.66818376E-01 0.44904291E+03</pdfrwt>
<pdfrwt beam="2">  1       -1 0.93535289E-01 0.44904291E+03</pdfrwt>
<totfact> 0.62583523E+01</totfact>
</mgrwt>
</event>
<event>
 4    1  0.2454657E-002  0.4487979E+03  0.7818608E-02  0.1028081E+00
         -1   -1    0    0    0  501 -0.00000000000E+00  0.00000000000E+00  0.83259375757E+03  0.83259375757E+03  0.00000000000E+00 0. -1.
          1   -1    0    0  502    0  0.00000000000E+00 -0.00000000000E+00 -0.24802711460E+03  0.24802711460E+03  0.00000000000E+00 0.  1.
    9000007    1    1    2  502    0  0.92822173442E+02  0.18111773445E+03  0.37707935290E+03  0.58618122454E+03  0.40000000000E+03 0. -1.
   -9000007    1    1    2    0  501 -0.92822173442E+02 -0.18111773445E+03  0.20748729006E+03  0.49443964763E+03  0.40000000000E+03 0.  1.
<mgrwt>
<rscale>  2 0.44879794E+03</rscale>
<asrwt>0</asrwt>
<pdfrwt beam="1">  1        1 0.38158018E-01 0.44879794E+03</pdfrwt>
<pdfrwt beam="2">  1       -1 0.12809135E+00 0.44879794E+03</pdfrwt>
<totfact> 0.61929047E+01</totfact>
</mgrwt>
</event>
<event>
 4    1  0.2454657E-002  0.4358125E+03  0.7818608E-02  0.1032039E+00
         -1   -1    0    0    0  501 -0.00000000000E+00  0.00000000000E+00  0.55332620917E+03  0.55332620917E+03  0.00000000000E+00 0.  1.
          1   -1    0    0  502    0  0.00000000000E+00 -0.00000000000E+00 -0.40659647154E+03  0.40659647154E+03  0.00000000000E+00 0. -1.
    9000007    1    1    2  502    0 -0.23196214947E+02  0.17144811015E+03 -0.11607231967E+03  0.45100476966E+03  0.40000000000E+03 0. -1.
   -9000007    1    1    2    0  501  0.23196214947E+02 -0.17144811015E+03  0.26280205730E+03  0.50891791105E+03  0.40000000000E+03 0.  1.
<mgrwt>
<rscale>  2 0.43581248E+03</rscale>
<asrwt>0</asrwt>
<pdfrwt beam="1">  1        1 0.62553303E-01 0.43581248E+03</pdfrwt>
<pdfrwt beam="2">  1       -1 0.85127110E-01 0.43581248E+03</pdfrwt>
<totfact> 0.83888099E+01</totfact>
</mgrwt>
</event>
<event>
 4    1  0.2454657E-002  0.5126379E+03  0.7818608E-02  0.1010532E+00
         -2   -1    0    0    0  501 -0.00000000000E+00  0.00000000000E+00  0.13281404121E+03  0.13281404121E+03  0.00000000000E+00 0. -1.
          2   -1    0    0  502    0  0.00000000000E+00 -0.00000000000E+00 -0.19964284834E+04  0.19964284834E+04  0.00000000000E+00 0.  1.
    9000007    1    1    2  502    0 -0.51827511877E+02  0.31640399081E+03 -0.83145002714E+03  0.97678386761E+03  0.40000000000E+03 0. -1.
   -9000007    1    1    2    0  501  0.51827511877E+02 -0.31640399081E+03 -0.10321644151E+04  0.11524586570E+04  0.40000000000E+03 0. -1.
<mgrwt>
<rscale>  2 0.51263786E+03</rscale>
<asrwt>0</asrwt>
<pdfrwt beam="1">  1        2 0.30714284E+00 0.51263786E+03</pdfrwt>
<pdfrwt beam="2">  1       -2 0.20432929E-01 0.51263786E+03</pdfrwt>
<totfact> 0.14533098E+02</totfact>
</mgrwt>
</event>
<event>
 4    1  0.2454657E-002  0.4257628E+03  0.7818608E-02  0.1035207E+00
         -1   -1    0    0    0  501 -0.00000000000E+00  0.00000000000E+00  0.19873484588E+03  0.19873484588E+03  0.00000000000E+00 0.  1.
          1   -1    0    0  502    0  0.00000000000E+00 -0.00000000000E+00 -0.91275288798E+03  0.91275288798E+03  0.00000000000E+00 0. -1.
    9000007    1    1    2  502    0 -0.13574450147E+03 -0.53360775892E+02 -0.37141344825E+03  0.56499724922E+03  0.40000000000E+03 0. -1.
   -9000007    1    1    2    0  501  0.13574450147E+03  0.53360775892E+02 -0.34260459385E+03  0.54649048465E+03  0.40000000000E+03 0.  1.
<mgrwt>
<rscale>  2 0.42576278E+03</rscale>
<asrwt>0</asrwt>
<pdfrwt beam="1">  1        1 0.14042352E+00 0.42576278E+03</pdfrwt>
<pdfrwt beam="2">  1       -1 0.30574591E-01 0.42576278E+03</pdfrwt>
<totfact> 0.18263398E+02</totfact>
</mgrwt>
</event>
<event>
 4    1  0.2454657E-002  0.5464239E+03  0.7818608E-02  0.1002325E+00
          2   -1    0    0  502    0  0.00000000000E+00  0.00000000000E+00  0.14614008741E+04  0.14614008741E+04  0.00000000000E+00 0. -1.
         -2   -1    0    0    0  501 -0.00000000000E+00 -0.00000000000E+00 -0.33930413756E+03  0.33930413756E+03  0.00000000000E+00 0.  1.
    9000007    1    1    2  502    0 -0.15404073624E+03  0.33889598557E+03  0.11289527331E+04  0.12542381397E+04  0.40000000000E+03 0. -1.
   -9000007    1    1    2    0  501  0.15404073624E+03 -0.33889598557E+03 -0.68559965874E+01  0.54646687195E+03  0.40000000000E+03 0.  1.
<mgrwt>
<rscale>  2 0.54642386E+03</rscale>
<asrwt>0</asrwt>
<pdfrwt beam="1">  1        2 0.22483090E+00 0.54642386E+03</pdfrwt>
<pdfrwt beam="2">  1       -2 0.52200637E-01 0.54642386E+03</pdfrwt>
<totfact> 0.48421945E+01</totfact>
</mgrwt>
</event>
<event>
 4    1  0.2454657E-002  0.4072943E+03  0.7818608E-02  0.1041283E+00
         -2   -1    0    0    0  501 -0.00000000000E+00  0.00000000000E+00  0.47461356456E+03  0.47461356456E+03  0.00000000000E+00 0.  1.
          2   -1    0    0  502    0  0.00000000000E+00 -0.00000000000E+00 -0.39489995133E+03  0.39489995133E+03  0.00000000000E+00 0. -1.
    9000007    1    1    2  502    0 -0.75609314724E+02  0.13110901810E+02  0.18722961515E+03  0.44826732315E+03  0.40000000000E+03 0.  1.
   -9000007    1    1    2    0  501  0.75609314724E+02 -0.13110901810E+02 -0.10751600192E+03  0.42124619273E+03  0.40000000000E+03 0. -1.
<mgrwt>
<rscale>  2 0.40729432E+03</rscale>
<asrwt>0</asrwt>
<pdfrwt beam="1">  1        2 0.60753839E-01 0.40729432E+03</pdfrwt>
<pdfrwt beam="2">  1       -2 0.73017472E-01 0.40729432E+03</pdfrwt>
<totfact> 0.14067087E+02</totfact>
</mgrwt>
</event>
<event>
 4    1  0.2454657E-002  0.4837442E+03  0.7818608E-02  0.1018111E+00
         -2   -1    0    0    0  501 -0.00000000000E+00  0.00000000000E+00  0.13757745471E+03  0.13757745471E+03  0.00000000000E+00 0.  1.
          2   -1    0    0  502    0  0.00000000000E+00 -0.00000000000E+00 -0.17046808252E+04  0.17046808252E+04  0.00000000000E+00 0. -1.
    9000007    1    1    2  502    0 -0.26574482950E+03 -0.58207645507E+02 -0.74029467022E+03  0.88433288029E+03  0.40000000000E+03 0.  1.
   -9000007    1    1    2    0  501  0.26574482950E+03  0.58207645507E+02 -0.82680870024E+03  0.95792539960E+03  0.40000000000E+03 0.  1.
<mgrwt>
<rscale>  2 0.48374419E+03</rscale>
<asrwt>0</asrwt>
<pdfrwt beam="1">  1        2 0.26225859E+00 0.48374419E+03</pdfrwt>
<pdfrwt beam="2">  1       -2 0.21165762E-01 0.48374419E+03</pdfrwt>
<totfact> 0.19689751E+02</totfact>
</mgrwt>
</event>
<event>
 4    1  0.2454657E-002  0.6259217E+03  0.7818608E-02  0.9853040E-01
          2   -1    0    0  502    0  0.00000000000E+00  0.00000000000E+00  0.34470701732E+04  0.34470701732E+04  0.00000000000E+00 0. -1.
         -2   -1    0    0    0  501 -0.00000000000E+00 -0.00000000000E+00 -0.12024720421E+03  0.12024720421E+03  0.00000000000E+00 0.  1.
    9000007    1    1    2  502    0 -0.31137616680E+03  0.36718240620E+03  0.20810277360E+04  0.21731209066E+04  0.40000000000E+03 0. -1.
   -9000007    1    1    2    0  501  0.31137616680E+03 -0.36718240620E+03  0.12457952329E+04  0.13941964708E+04  0.40000000000E+03 0.  1.
<mgrwt>
<rscale>  2 0.62592175E+03</rscale>
<asrwt>0</asrwt>
<pdfrwt beam="1">  1        2 0.53031841E+00 0.62592175E+03</pdfrwt>
<pdfrwt beam="2">  1       -2 0.18499572E-01 0.62592175E+03</pdfrwt>
<totfact> 0.23797033E+01</totfact>
</mgrwt>
</event>
<event>
 4    1  0.2454657E-002  0.4600393E+03  0.7818608E-02  0.1024770E+00
         -2   -1    0    0    0  501 -0.00000000000E+00  0.00000000000E+00  0.13118609462E+04  0.13118609462E+04  0.00000000000E+00 0. -1.
          2   -1    0    0  502    0  0.00000000000E+00 -0.00000000000E+00 -0.16585809685E+03  0.16585809685E+03  0.00000000000E+00 0.  1.
    9000007    1    1    2  502    0  0.88821795477E+02  0.20915750141E+03  0.45085421140E+03  0.64413173473E+03  0.40000000000E+03 0.  1.
   -9000007    1    1    2    0  501 -0.88821795477E+02 -0.20915750141E+03  0.69514863795E+03  0.83358730832E+03  0.40000000000E+03 0.  1.
<mgrwt>
<rscale>  2 0.46003932E+03</rscale>
<asrwt>0</asrwt>
<pdfrwt beam="1">  1        2 0.25516631E-01 0.46003932E+03</pdfrwt>
<pdfrwt beam="2">  1       -2 0.20182475E+00 0.46003932E+03</pdfrwt>
<totfact> 0.28889849E+01</totfact>
</mgrwt>
</event>
<event>
 4    1  0.2454657E-002  0.6076978E+03  0.7818608E-02  0.9889563E-01
         -2   -1    0    0    0  501 -0.00000000000E+00  0.00000000000E+00  0.48327154603E+03  0.48327154603E+03  0.00000000000E+00 0. -1.
          2   -1    0    0  502    0  0.00000000000E+00 -0.00000000000E+00 -0.86014584006E+03  0.86014584006E+03  0.00000000000E+00 0.  1.
    9000007    1    1    2  502    0  0.44600414964E+03 -0.10186685684E+03  0.35950822157E+02  0.60876023164E+03  0.40000000000E+03 0. -1.
   -9000007    1    1    2    0  501 -0.44600414964E+03  0.10186685684E+03 -0.41282511619E+03  0.73465715444E+03  0.40000000000E+03 0.  1.
<mgrwt>
<rscale>  2 0.60769775E+03</rscale>
<asrwt>0</asrwt>
<pdfrwt beam="1">  1        2 0.13233013E+00 0.60769775E+03</pdfrwt>
<pdfrwt beam="2">  1       -2 0.74349470E-01 0.60769775E+03</pdfrwt>
<totfact> 0.52214205E+01</totfact>
</mgrwt>
</event>
<event>
 4    1  0.2454657E-002  0.5789083E+03  0.7818608E-02  0.9950157E-01
         -1   -1    0    0    0  501 -0.00000000000E+00  0.00000000000E+00  0.14473544223E+03  0.14473544223E+03  0.00000000000E+00 0.  1.
          1   -1    0    0  502    0  0.00000000000E+00 -0.00000000000E+00 -0.25934769274E+04  0.25934769274E+04  0.00000000000E+00 0. -1.
    9000007    1    1    2  502    0  0.13569081473E+03  0.39588232069E+03 -0.77614077095E+03  0.96826096966E+03  0.40000000000E+03 0.  1.
   -9000007    1    1    2    0  501 -0.13569081473E+03 -0.39588232069E+03 -0.16726007143E+04  0.17699514000E+04  0.40000000000E+03 0. -1.
<mgrwt>
<rscale>  2 0.57890829E+03</rscale>
<asrwt>0</asrwt>
<pdfrwt beam="1">  1        1 0.39899643E+00 0.57890829E+03</pdfrwt>
<pdfrwt beam="2">  1       -1 0.22266992E-01 0.57890829E+03</pdfrwt>
<totfact> 0.21477244E+01</totfact>
</mgrwt>
</event>
<event>
 4    1  0.2454657E-002  0.4572039E+03  0.7818608E-02  0.1025595E+00
         -2   -1    0    0    0  501 -0.00000000000E+00  0.00000000000E+00  0.46131798126E+03  0.46131798126E+03  0.00000000000E+00 0. -1.
          2   -1    0    0  502    0  0.00000000000E+00 -0.00000000000E+00 -0.50264910998E+03  0.50264910998E+03  0.00000000000E+00 0.  1.
    9000007    1    1    2  502    0  0.21129894455E+03 -0.66243481556E+02 -0.17195239685E+03  0.48847013173E+03  0.40000000000E+03 0.  1.
   -9000007    1    1    2    0  501 -0.21129894455E+03  0.66243481556E+02  0.13062126813E+03  0.47549695951E+03  0.40000000000E+03 0. -1.
<mgrwt>
<rscale>  2 0.45720394E+03</rscale>
<asrwt>0</asrwt>
<pdfrwt beam="1">  1        2 0.77330632E-01 0.45720394E+03</pdfrwt>
<pdfrwt beam="2">  1       -2 0.70971997E-01 0.45720394E+03</pdfrwt>
<totfact> 0.11368091E+02</totfact>
</mgrwt>
</event>
<event>
 4    1  0.2454657E-002  0.5346457E+03  0.7818608E-02  0.1005112E+00
          2   -1    0    0  502    0  0.00000000000E+00  0.00000000000E+00  0.63025653632E+03  0.63025653632E+03  0.00000000000E+00 0. -1.
         -2   -1    0    0    0  501 -0.00000000000E+00 -0.00000000000E+00 -0.49686167088E+03  0.49686167088E+03  0.00000000000E+00 0.  1.
    9000007    1    1    2  502    0  0.62044311794E+02 -0.34927995641E+03  0.23310720025E+03  0.58325376243E+03  0.40000000000E+03 0. -1.
   -9000007    1    1    2    0  501 -0.62044311794E+02  0.34927995641E+03 -0.99712334812E+02  0.54386444478E+03  0.40000000000E+03 0.  1.
<mgrwt>
<rscale>  2 0.53464566E+03</rscale>
<asrwt>0</asrwt>
<pdfrwt beam="1">  1        2 0.96962545E-01 0.53464566E+03</pdfrwt>
<pdfrwt beam="2">  1       -2 0.76440257E-01 0.53464566E+03</pdfrwt>
<totfact> 0.73552003E+01</totfact>
</mgrwt>
</event>
<event>
 4    1  0.2454657E-002  0.5552072E+03  0.7818608E-02  0.1000296E+00
          1   -1    0    0  502    0  0.00000000000E+00  0.00000000000E+00  0.10121939321E+04  0.10121939321E+04  0.00000000000E+00 0. -1.
         -1   -1    0    0    0  501 -0.00000000000E+00 -0.00000000000E+00 -0.38732791054E+03  0.38732791054E+03  0.00000000000E+00 0.  1.
    9000007    1    1    2  502    0 -0.37803399625E+03  0.73111972809E+02 -0.11078548949E+02  0.55531774430E+03  0.40000000000E+03 0.  1.
   -9000007    1    1    2    0  501  0.37803399625E+03 -0.73111972809E+02  0.63594457046E+03  0.84420409830E+03  0.40000000000E+03 0. -1.
<mgrwt>
<rscale>  2 0.55520723E+03</rscale>
<asrwt>0</asrwt>
<pdfrwt beam="1">  1        1 0.15572214E+00 0.55520723E+03</pdfrwt>
<pdfrwt beam="2">  1       -1 0.59588910E-01 0.55520723E+03</pdfrwt>
<totfact> 0.44333332E+01</totfact>
</mgrwt>
</event>
<event>
 4    1  0.2454657E-002  0.4340695E+03  0.7818608E-02  0.1032582E+00
          1   -1    0    0  502    0  0.00000000000E+00  0.00000000000E+00  0.20366838129E+04  0.20366838129E+04  0.00000000000E+00 0.  1.
         -1   -1    0    0    0  501 -0.00000000000E+00 -0.00000000000E+00 -0.20078085813E+03  0.20078085813E+03  0.00000000000E+00 0. -1.
    9000007    1    1    2  502    0  0.19329093704E+02 -0.16745966033E+03  0.17394714700E+04  0.17928126915E+04  0.40000000000E+03 0.  1.
   -9000007    1    1    2    0  501 -0.19329093704E+02  0.16745966033E+03  0.96431484803E+02  0.44465197960E+03  0.40000000000E+03 0. -1.
<mgrwt>
<rscale>  2 0.43406952E+03</rscale>
<asrwt>0</asrwt>
<pdfrwt beam="1">  1        1 0.31333596E+00 0.43406952E+03</pdfrwt>
<pdfrwt beam="2">  1       -1 0.30889364E-01 0.43406952E+03</pdfrwt>
<totfact> 0.29914315E+01</totfact>
</mgrwt>
</event>
<event>
 4    1  0.2454657E-002  0.4720100E+03  0.7818608E-02  0.1021354E+00
         -2   -1    0    0    0  501 -0.00000000000E+00  0.00000000000E+00  0.12323254268E+03  0.12323254268E+03  0.00000000000E+00 0.  1.
          2   -1    0    0  502    0  0.00000000000E+00 -0.00000000000E+00 -0.18266251932E+04  0.18266251932E+04  0.00000000000E+00 0. -1.
    9000007    1    1    2  502    0 -0.26933718258E+01 -0.25057167876E+03 -0.95037842432E+03  0.10611373944E+04  0.40000000000E+03 0. -1.
   -9000007    1    1    2    0  501  0.26933718258E+01  0.25057167876E+03 -0.75301422617E+03  0.88872034143E+03  0.40000000000E+03 0.  1.
<mgrwt>
<rscale>  2 0.47200998E+03</rscale>
<asrwt>0</asrwt>
<pdfrwt beam="1">  1        2 0.28101925E+00 0.47200998E+03</pdfrwt>
<pdfrwt beam="2">  1       -2 0.18958853E-01 0.47200998E+03</pdfrwt>
<totfact> 0.20531426E+02</totfact>
</mgrwt>
</event>
<event>
 4    1  0.2454657E-002  0.5961555E+03  0.7818608E-02  0.9913414E-01
         -2   -1    0    0    0  501 -0.00000000000E+00  0.00000000000E+00  0.36678506772E+03  0.36678506772E+03  0.00000000000E+00 0. -1.
          2   -1    0    0  502    0  0.00000000000E+00 -0.00000000000E+00 -0.15710674259E+04  0.15710674259E+04  0.00000000000E+00 0.  1.
    9000007    1    1    2  502    0 -0.26221194277E+03  0.35587399635E+03 -0.23100813469E+01  0.59615999587E+03  0.40000000000E+03 0. -1.
   -9000007    1    1    2    0  501  0.26221194277E+03 -0.35587399635E+03 -0.12019722768E+04  0.13416924977E+04  0.40000000000E+03 0.  1.
<mgrwt>
<rscale>  2 0.59615552E+03</rscale>
<asrwt>0</asrwt>
<pdfrwt beam="1">  1        2 0.24170268E+00 0.59615552E+03</pdfrwt>
<pdfrwt beam="2">  1       -2 0.56428473E-01 0.59615552E+03</pdfrwt>
<totfact> 0.35629130E+01</totfact>
</mgrwt>
</event>
<event>
 4    1  0.2454657E-002  0.6449790E+03  0.7818608E-02  0.9816247E-01
         -1   -1    0    0    0  501 -0.00000000000E+00  0.00000000000E+00  0.25607671840E+03  0.25607671840E+03  0.00000000000E+00 0.  1.
          1   -1    0    0  502    0  0.00000000000E+00 -0.00000000000E+00 -0.17844652641E+04  0.17844652641E+04  0.00000000000E+00 0. -1.
    9000007    1    1    2  502    0 -0.42187515296E+03  0.27931932695E+03 -0.10696634753E+04  0.12490708072E+04  0.40000000000E+03 0. -1.
   -9000007    1    1    2    0  501  0.42187515296E+03 -0.27931932695E+03 -0.45872507042E+03  0.79147117529E+03  0.40000000000E+03 0.  1.
<mgrwt>
<rscale>  2 0.64497902E+03</rscale>
<asrwt>0</asrwt>
<pdfrwt beam="1">  1        1 0.27453313E+00 0.64497902E+03</pdfrwt>
<pdfrwt beam="2">  1       -1 0.39396416E-01 0.64497902E+03</pdfrwt>
<totfact> 0.27480545E+01</totfact>
</mgrwt>
</event>
<event>
 4    1  0.2454657E-002  0.6928310E+03  0.7818608E-02  0.9729571E-01
         -1   -1    0    0    0  501 -0.00000000000E+00  0.00000000000E+00  0.41739605997E+03  0.41739605997E+03  0.00000000000E+00 0.  1.
          1   -1    0    0  502    0  0.00000000000E+00 -0.00000000000E+00 -0.18979088481E+04  0.18979088481E+04  0.00000000000E+00 0. -1.
    9000007    1    1    2  502    0  0.54351695589E+03 -0.15685688909E+03 -0.13550988503E+02  0.69296348698E+03  0.40000000000E+03 0. -1.
   -9000007    1    1    2    0  501 -0.54351695589E+03  0.15685688909E+03 -0.14669617996E+04  0.16223414211E+04  0.40000000000E+03 0. -1.
<mgrwt>
<rscale>  2 0.69283098E+03</rscale>
<asrwt>0</asrwt>
<pdfrwt beam="1">  1        1 0.29198598E+00 0.69283098E+03</pdfrwt>
<pdfrwt beam="2">  1       -1 0.64214777E-01 0.69283098E+03</pdfrwt>
<totfact> 0.90680504E+00</totfact>
</mgrwt>
</event>
<event>
 4    1  0.2454657E-002  0.4397080E+03  0.7818608E-02  0.1030836E+00
         -2   -1    0    0    0  501 -0.00000000000E+00  0.00000000000E+00  0.30805776866E+03  0.30805776866E+03  0.00000000000E+00 0.  1.
          2   -1    0    0  502    0  0.00000000000E+00 -0.00000000000E+00 -0.63061898302E+03  0.63061898302E+03  0.00000000000E+00 0. -1.
    9000007    1    1    2  502    0  0.16970610523E+03 -0.67401258094E+02 -0.19364883580E+03  0.48046119859E+03  0.40000000000E+03 0. -1.
   -9000007    1    1    2    0  501 -0.16970610523E+03  0.67401258094E+02 -0.12891237856E+03  0.45821555309E+03  0.40000000000E+03 0.  1.
<mgrwt>
<rscale>  2 0.43970796E+03</rscale>
<asrwt>0</asrwt>
<pdfrwt beam="1">  1        2 0.97018304E-01 0.43970796E+03</pdfrwt>
<pdfrwt beam="2">  1       -2 0.47393503E-01 0.43970796E+03</pdfrwt>
<totfact> 0.20233579E+02</totfact>
</mgrwt>
</event>
<event>
 4    1  0.2454657E-002  0.4057851E+03  0.7818608E-02  0.1041795E+00
          3   -1    0    0  502    0  0.00000000000E+00  0.00000000000E+00  0.17922497023E+03  0.17922497023E+03  0.00000000000E+00 0.  1.
         -3   -1    0    0    0  501 -0.00000000000E+00 -0.00000000000E+00 -0.92153862080E+03  0.92153862080E+03  0.00000000000E+00 0. -1.
    9000007    1    1    2  502    0 -0.66808018398E+02  0.14079884077E+02 -0.40147505077E+03  0.57082726884E+03  0.40000000000E+03 0. -1.
   -9000007    1    1    2    0  501  0.66808018398E+02 -0.14079884077E+02 -0.34083859981E+03  0.52993632219E+03  0.40000000000E+03 0. -1.
<mgrwt>
<rscale>  2 0.40578511E+03</rscale>
<asrwt>0</asrwt>
<pdfrwt beam="1">  1        3 0.27573072E-01 0.40578511E+03</pdfrwt>
<pdfrwt beam="2">  1       -3 0.14177517E+00 0.40578511E+03</pdfrwt>
<totfact> 0.12373919E+01</totfact>
</mgrwt>
</event>
<event>
 4    1  0.2454657E-002  0.4290186E+03  0.7818608E-02  0.1034170E+00
         -2   -1    0    0    0  501 -0.00000000000E+00  0.00000000000E+00  0.16388880762E+03  0.16388880762E+03  0.00000000000E+00 0. -1.
          2   -1    0    0  502    0  0.00000000000E+00 -0.00000000000E+00 -0.11433940163E+04  0.11433940163E+04  0.00000000000E+00 0.  1.
    9000007    1    1    2  502    0  0.14483149249E+03 -0.55505320481E+02 -0.40258587719E+03  0.58833017119E+03  0.40000000000E+03 0.  1.
   -9000007    1    1    2    0  501 -0.14483149249E+03  0.55505320481E+02 -0.57691933150E+03  0.71895265274E+03  0.40000000000E+03 0.  1.
<mgrwt>
<rscale>  2 0.42901865E+03</rscale>
<asrwt>0</asrwt>
<pdfrwt beam="1">  1        2 0.17590677E+00 0.42901865E+03</pdfrwt>
<pdfrwt beam="2">  1       -2 0.25213663E-01 0.42901865E+03</pdfrwt>
<totfact> 0.29858559E+02</totfact>
</mgrwt>
</event>
<event>
 4    1  0.2454657E-002  0.4624047E+03  0.7818608E-02  0.1024086E+00
         -2   -1    0    0    0  501 -0.00000000000E+00  0.00000000000E+00  0.19477788739E+04  0.19477788739E+04  0.00000000000E+00 0. -1.
          2   -1    0    0  502    0  0.00000000000E+00 -0.00000000000E+00 -0.36677398897E+03  0.36677398897E+03  0.00000000000E+00 0.  1.
    9000007    1    1    2  502    0  0.14814043177E+03 -0.17852864692E+03 -0.17822872850E+03  0.49556386567E+03  0.40000000000E+03 0.  1.
   -9000007    1    1    2    0  501 -0.14814043177E+03  0.17852864692E+03  0.17592336134E+04  0.18189889972E+04  0.40000000000E+03 0. -1.
<mgrwt>
<rscale>  2 0.46240466E+03</rscale>
<asrwt>0</asrwt>
<pdfrwt beam="1">  1        2 0.56426768E-01 0.46240466E+03</pdfrwt>
<pdfrwt beam="2">  1       -2 0.29965828E+00 0.46240466E+03</pdfrwt>
<totfact> 0.30705796E+00</totfact>
</mgrwt>
</event>
<event>
 4    1  0.2454657E-002  0.5416740E+03  0.7818608E-02  0.1003440E+00
          2   -1    0    0  502    0  0.00000000000E+00  0.00000000000E+00  0.54068533706E+04  0.54068533706E+04  0.00000000000E+00 0. -1.
         -2   -1    0    0    0  501 -0.00000000000E+00 -0.00000000000E+00 -0.63605592494E+02  0.63605592494E+02  0.00000000000E+00 0.  1.
    9000007    1    1    2  502    0  0.33606068336E+03 -0.14308725365E+03  0.16235314487E+04  0.17115095997E+04  0.40000000000E+03 0. -1.
   -9000007    1    1    2    0  501 -0.33606068336E+03  0.14308725365E+03  0.37197163295E+04  0.37589493634E+04  0.40000000000E+03 0.  1.
<mgrwt>
<rscale>  2 0.54167402E+03</rscale>
<asrwt>0</asrwt>
<pdfrwt beam="1">  1        2 0.83182323E+00 0.54167402E+03</pdfrwt>
<pdfrwt beam="2">  1       -2 0.97854801E-02 0.54167402E+03</pdfrwt>
<totfact> 0.81377464E-01</totfact>
</mgrwt>
</event>
<event>
 4    1  0.2454657E-002  0.4046997E+03  0.7818608E-02  0.1042164E+00
         -2   -1    0    0    0  501 -0.00000000000E+00  0.00000000000E+00  0.12814197920E+03  0.12814197920E+03  0.00000000000E+00 0. -1.
          2   -1    0    0  502    0  0.00000000000E+00 -0.00000000000E+00 -0.12980293281E+04  0.12980293281E+04  0.00000000000E+00 0.  1.
    9000007    1    1    2  502    0 -0.60939532569E+02  0.82612059889E+01 -0.49664817753E+03  0.64065691786E+03  0.40000000000E+03 0. -1.
   -9000007    1    1    2    0  501  0.60939532569E+02 -0.82612059889E+01 -0.67323917134E+03  0.78551438941E+03  0.40000000000E+03 0.  1.
<mgrwt>
<rscale>  2 0.40469973E+03</rscale>
<asrwt>0</asrwt>
<pdfrwt beam="1">  1        2 0.19969683E+00 0.40469973E+03</pdfrwt>
<pdfrwt beam="2">  1       -2 0.19714150E-01 0.40469973E+03</pdfrwt>
<totfact> 0.37560311E+02</totfact>
</mgrwt>
</event>
<event>
 4    1  0.2454657E-002  0.4983587E+03  0.7818608E-02  0.1014208E+00
         -2   -1    0    0    0  501 -0.00000000000E+00  0.00000000000E+00  0.32606941693E+03  0.32606941693E+03  0.00000000000E+00 0. -1.
          2   -1    0    0  502    0  0.00000000000E+00 -0.00000000000E+00 -0.78560920899E+03  0.78560920899E+03  0.00000000000E+00 0.  1.
    9000007    1    1    2  502    0  0.99681545591E+02  0.28004459738E+03 -0.32677329430E+03  0.59593806131E+03  0.40000000000E+03 0.  1.
   -9000007    1    1    2    0  501 -0.99681545591E+02 -0.28004459738E+03 -0.13276649776E+03  0.51574056461E+03  0.40000000000E+03 0. -1.
<mgrwt>
<rscale>  2 0.49835869E+03</rscale>
<asrwt>0</asrwt>
<pdfrwt beam="1">  1        2 0.12086295E+00 0.49835869E+03</pdfrwt>
<pdfrwt beam="2">  1       -2 0.50164526E-01 0.49835869E+03</pdfrwt>
<totfact> 0.13657558E+02</totfact>
</mgrwt>
</event>
<event>
 4    1  0.2454657E-002  0.4474894E+03  0.7818608E-02  0.1028473E+00
         -2   -1    0    0    0  501 -0.00000000000E+00  0.00000000000E+00  0.74373609425E+03  0.74373609425E+03  0.00000000000E+00 0. -1.
          2   -1    0    0  502    0  0.00000000000E+00 -0.00000000000E+00 -0.38989214037E+03  0.38989214037E+03  0.00000000000E+00 0.  1.
    9000007    1    1    2  502    0 -0.85731447678E+01 -0.20043264154E+03 -0.13838102172E+03  0.46839732042E+03  0.40000000000E+03 0.  1.
   -9000007    1    1    2    0  501  0.85731447678E+01  0.20043264154E+03  0.49222497560E+03  0.66523091421E+03  0.40000000000E+03 0. -1.
<mgrwt>
<rscale>  2 0.44748938E+03</rscale>
<asrwt>0</asrwt>
<pdfrwt beam="1">  1        2 0.59983407E-01 0.44748938E+03</pdfrwt>
<pdfrwt beam="2">  1       -2 0.11442094E+00 0.44748938E+03</pdfrwt>
<totfact> 0.50596187E+01</totfact>
</mgrwt>
</event>
<event>
 4    1  0.2454657E-002  0.4521722E+03  0.7818608E-02  0.1027076E+00
          2   -1    0    0  502    0  0.00000000000E+00  0.00000000000E+00  0.15538726828E+04  0.15538726828E+04  0.00000000000E+00 0. -1.
         -2   -1    0    0    0  501 -0.00000000000E+00 -0.00000000000E+00 -0.15137014647E+03  0.15137014647E+03  0.00000000000E+00 0.  1.
    9000007    1    1    2  502    0 -0.21060803024E+03 -0.10194329591E+02  0.39296593511E+03  0.59906751949E+03  0.40000000000E+03 0. -1.
   -9000007    1    1    2    0  501  0.21060803024E+03  0.10194329591E+02  0.10095366012E+04  0.11061753097E+04  0.40000000000E+03 0.  1.
<mgrwt>
<rscale>  2 0.45217216E+03</rscale>
<asrwt>0</asrwt>
<pdfrwt beam="1">  1        2 0.23905732E+00 0.45217216E+03</pdfrwt>
<pdfrwt beam="2">  1       -2 0.23287716E-01 0.45217216E+03</pdfrwt>
<totfact> 0.20162000E+02</totfact>
</mgrwt>
</event>
<event>
 4    1  0.2454657E-002  0.4153660E+03  0.7818608E-02  0.1038585E+00
          2   -1    0    0  502    0  0.00000000000E+00  0.00000000000E+00  0.23888418703E+03  0.23888418703E+03  0.00000000000E+00 0. -1.
         -2   -1    0    0    0  501 -0.00000000000E+00 -0.00000000000E+00 -0.77338306039E+03  0.77338306039E+03  0.00000000000E+00 0.  1.
    9000007    1    1    2  502    0 -0.10117115065E+03 -0.47888678030E+02 -0.39741939519E+03  0.57486616084E+03  0.40000000000E+03 0.  1.
   -9000007    1    1    2    0  501  0.10117115065E+03  0.47888678030E+02 -0.13707947817E+03  0.43740108658E+03  0.40000000000E+03 0. -1.
<mgrwt>
<rscale>  2 0.41536602E+03</rscale>
<asrwt>0</asrwt>
<pdfrwt beam="1">  1        2 0.36751414E-01 0.41536602E+03</pdfrwt>
<pdfrwt beam="2">  1       -2 0.11898201E+00 0.41536602E+03</pdfrwt>
<totfact> 0.79083702E+01</totfact>
</mgrwt>
</event>
<event>
 4    1  0.2454657E-002  0.6975480E+03  0.7818608E-02  0.9721435E-01
         -2   -1    0    0    0  501 -0.00000000000E+00  0.00000000000E+00  0.50847058993E+03  0.50847058993E+03  0.00000000000E+00 0.  1.
          2   -1    0    0  502    0  0.00000000000E+00 -0.00000000000E+00 -0.13834573256E+04  0.13834573256E+04  0.00000000000E+00 0. -1.
    9000007    1    1    2  502    0  0.54999813669E+03 -0.15516207492E+03 -0.96273927191E+03  0.11888818804E+04  0.40000000000E+03 0.  1.
   -9000007    1    1    2    0  501 -0.54999813669E+03  0.15516207492E+03  0.87752536259E+02  0.70304603511E+03  0.40000000000E+03 0. -1.
<mgrwt>
<rscale>  2 0.69754801E+03</rscale>
<asrwt>0</asrwt>
<pdfrwt beam="1">  1        2 0.21283958E+00 0.69754801E+03</pdfrwt>
<pdfrwt beam="2">  1       -2 0.78226246E-01 0.69754801E+03</pdfrwt>
<totfact> 0.22109852E+01</totfact>
</mgrwt>
</event>
<event>
 4    1  0.2454657E-002  0.4314014E+03  0.7818608E-02  0.1033418E+00
          2   -1    0    0  502    0  0.00000000000E+00  0.00000000000E+00  0.23688446084E+04  0.23688446084E+04  0.00000000000E+00 0. -1.
         -2   -1    0    0    0  501 -0.00000000000E+00 -0.00000000000E+00 -0.91487304675E+02  0.91487304675E+02  0.00000000000E+00 0.  1.
    9000007    1    1    2  502    0 -0.16326946101E+02  0.16075021220E+03  0.67633924215E+03  0.80221067705E+03  0.40000000000E+03 0.  1.
   -9000007    1    1    2    0  501  0.16326946101E+02 -0.16075021220E+03  0.16010180616E+04  0.16581212361E+04  0.40000000000E+03 0. -1.
<mgrwt>
<rscale>  2 0.43140144E+03</rscale>
<asrwt>0</asrwt>
<pdfrwt beam="1">  1        2 0.36443759E+00 0.43140144E+03</pdfrwt>
<pdfrwt beam="2">  1       -2 0.14074972E-01 0.43140144E+03</pdfrwt>
<totfact> 0.17429603E+02</totfact>
</mgrwt>
</event>
<event>
 4    1  0.2454657E-002  0.6300609E+03  0.7818608E-02  0.9844930E-01
         -2   -1    0    0    0  501 -0.00000000000E+00  0.00000000000E+00  0.38847937085E+03  0.38847937085E+03  0.00000000000E+00 0. -1.
          2   -1    0    0  502    0  0.00000000000E+00 -0.00000000000E+00 -0.10236669132E+04  0.10236669132E+04  0.00000000000E+00 0.  1.
    9000007    1    1    2  502    0 -0.43392471371E+03 -0.22064929857E+03 -0.34714747162E+03  0.71936648322E+03  0.40000000000E+03 0. -1.
   -9000007    1    1    2    0  501  0.43392471371E+03  0.22064929857E+03 -0.28804007077E+03  0.69277980087E+03  0.40000000000E+03 0.  1.
<mgrwt>
<rscale>  2 0.63006093E+03</rscale>
<asrwt>0</asrwt>
<pdfrwt beam="1">  1        2 0.15748721E+00 0.63006093E+03</pdfrwt>
<pdfrwt beam="2">  1       -2 0.59766058E-01 0.63006093E+03</pdfrwt>
<totfact> 0.65187199E+01</totfact>
</mgrwt>
</event>
<event>
 4    1  0.2454657E-002  0.4396331E+03  0.7818608E-02  0.1030859E+00
          2   -1    0    0  502    0  0.00000000000E+00  0.00000000000E+00  0.36168436553E+03  0.36168436553E+03  0.00000000000E+00 0. -1.
         -2   -1    0    0    0  501 -0.00000000000E+00 -0.00000000000E+00 -0.87489801280E+03  0.87489801280E+03  0.00000000000E+00 0.  1.
    9000007    1    1    2  502    0  0.58320180373E+02  0.17284676494E+03 -0.64233712764E+03  0.77837923477E+03  0.40000000000E+03 0.  1.
   -9000007    1    1    2    0  501 -0.58320180373E+02 -0.17284676494E+03  0.12912348036E+03  0.45820314356E+03  0.40000000000E+03 0. -1.
<mgrwt>
<rscale>  2 0.43963308E+03</rscale>
<asrwt>0</asrwt>
<pdfrwt beam="1">  1        2 0.55643749E-01 0.43963308E+03</pdfrwt>
<pdfrwt beam="2">  1       -2 0.13459969E+00 0.43963308E+03</pdfrwt>
<totfact> 0.36797011E+01</totfact>
</mgrwt>
</event>
<event>
 4    1  0.2454657E-002  0.4029069E+03  0.7818608E-02  0.1042778E+00
          2   -1    0    0  502    0  0.00000000000E+00  0.00000000000E+00  0.45499827769E+03  0.45499827769E+03  0.00000000000E+00 0. -1.
         -2   -1    0    0    0  501 -0.00000000000E+00 -0.00000000000E+00 -0.37633635152E+03  0.37633635152E+03  0.00000000000E+00 0.  1.
    9000007    1    1    2  502    0 -0.33857470033E+02  0.34462552075E+02 -0.55425486257E+02  0.40670134042E+03  0.40000000000E+03 0.  1.
   -9000007    1    1    2    0  501  0.33857470033E+02 -0.34462552075E+02  0.13408741243E+03  0.42463328879E+03  0.40000000000E+03 0. -1.
<mgrwt>
<rscale>  2 0.40290693E+03</rscale>
<asrwt>0</asrwt>
<pdfrwt beam="1">  1        2 0.69999735E-01 0.40290693E+03</pdfrwt>
<pdfrwt beam="2">  1       -2 0.57897900E-01 0.40290693E+03</pdfrwt>
<totfact> 0.19692766E+02</totfact>
</mgrwt>
</event>
<event>
 4    1  0.2454657E-002  0.4200922E+03  0.7818608E-02  0.1037036E+00
          2   -1    0    0  502    0  0.00000000000E+00  0.00000000000E+00  0.15723361693E+04  0.15723361693E+04  0.00000000000E+00 0.  1.
         -2   -1    0    0    0  501 -0.00000000000E+00 -0.00000000000E+00 -0.11296300996E+03  0.11296300996E+03  0.00000000000E+00 0. -1.
    9000007    1    1    2  502    0 -0.22218423006E+02  0.12642702304E+03  0.79714699739E+03  0.90106647142E+03  0.40000000000E+03 0.  1.
   -9000007    1    1    2    0  501  0.22218423006E+02 -0.12642702304E+03  0.66222616199E+03  0.78423270787E+03  0.40000000000E+03 0.  1.
<mgrwt>
<rscale>  2 0.42009219E+03</rscale>
<asrwt>0</asrwt>
<pdfrwt beam="1">  1        2 0.24189786E+00 0.42009219E+03</pdfrwt>
<pdfrwt beam="2">  1       -2 0.17378926E-01 0.42009219E+03</pdfrwt>
<totfact> 0.32865641E+02</totfact>
</mgrwt>
</event>
<event>
 4    1  0.2454657E-002  0.5542630E+03  0.7818608E-02  0.1000512E+00
         -2   -1    0    0    0  501 -0.00000000000E+00  0.00000000000E+00  0.62304822134E+03  0.62304822134E+03  0.00000000000E+00 0.  1.
          2   -1    0    0  502    0  0.00000000000E+00 -0.00000000000E+00 -0.99579521568E+03  0.99579521568E+03  0.00000000000E+00 0. -1.
    9000007    1    1    2  502    0 -0.59691365651E+02  0.37900449766E+03 -0.76148813325E+03  0.94184480965E+03  0.40000000000E+03 0. -1.
   -9000007    1    1    2    0  501  0.59691365651E+02 -0.37900449766E+03  0.38874113891E+03  0.67699862737E+03  0.40000000000E+03 0.  1.
<mgrwt>
<rscale>  2 0.55426300E+03</rscale>
<asrwt>0</asrwt>
<pdfrwt beam="1">  1        2 0.15319926E+00 0.55426300E+03</pdfrwt>
<pdfrwt beam="2">  1       -2 0.95853573E-01 0.55426300E+03</pdfrwt>
<totfact> 0.24058161E+01</totfact>
</mgrwt>
</event>
<event>
 4    1  0.2454657E-002  0.4635003E+03  0.7818608E-02  0.1023771E+00
          1   -1    0    0  502    0  0.00000000000E+00  0.00000000000E+00  0.70846571553E+03  0.70846571553E+03  0.00000000000E+00 0.  1.
         -1   -1    0    0    0  501 -0.00000000000E+00 -0.00000000000E+00 -0.31632470697E+03  0.31632470697E+03  0.00000000000E+00 0. -1.
    9000007    1    1    2  502    0  0.19976931623E+03  0.12216687009E+03  0.91843114218E+02  0.47251209665E+03  0.40000000000E+03 0.  1.
   -9000007    1    1    2    0  501 -0.19976931623E+03 -0.12216687009E+03  0.30029789434E+03  0.55227832585E+03  0.40000000000E+03 0.  1.
<mgrwt>
<rscale>  2 0.46350030E+03</rscale>
<asrwt>0</asrwt>
<pdfrwt beam="1">  1        1 0.10899472E+00 0.46350030E+03</pdfrwt>
<pdfrwt beam="2">  1       -1 0.48665340E-01 0.46350030E+03</pdfrwt>
<totfact> 0.11789232E+02</totfact>
</mgrwt>
</event>
<event>
 4    1  0.2454657E-002  0.1233148E+04  0.7818608E-02  0.9084326E-01
         -2   -1    0    0    0  501 -0.00000000000E+00  0.00000000000E+00  0.12817228696E+04  0.12817228696E+04  0.00000000000E+00 0.  1.
          2   -1    0    0  502    0  0.00000000000E+00 -0.00000000000E+00 -0.30294051987E+04  0.30294051987E+04  0.00000000000E+00 0. -1.
    9000007    1    1    2  502    0 -0.57174456837E+03  0.10167415428E+04  0.80745321191E+03  0.14739863995E+04  0.40000000000E+03 0.  1.
   -9000007    1    1    2    0  501  0.57174456837E+03 -0.10167415428E+04 -0.25551355410E+04  0.28371416689E+04  0.40000000000E+03 0. -1.
<mgrwt>
<rscale>  2 0.12331485E+04</rscale>
<asrwt>0</asrwt>
<pdfrwt beam="1">  1        2 0.46606233E+00 0.12331485E+04</pdfrwt>
<pdfrwt beam="2">  1       -2 0.19718814E+00 0.12331485E+04</pdfrwt>
<totfact> 0.22657737E-01</totfact>
</mgrwt>
</event>
<event>
 4    1  0.2454657E-002  0.5126463E+03  0.7818608E-02  0.1010530E+00
         -2   -1    0    0    0  501 -0.00000000000E+00  0.00000000000E+00  0.10825347310E+04  0.10825347310E+04  0.00000000000E+00 0.  1.
          2   -1    0    0  502    0  0.00000000000E+00 -0.00000000000E+00 -0.24344418103E+03  0.24344418103E+03  0.00000000000E+00 0. -1.
    9000007    1    1    2  502    0  0.30736227470E+03  0.91294357326E+02  0.38463831777E+03  0.64090004141E+03  0.40000000000E+03 0.  1.
   -9000007    1    1    2    0  501 -0.30736227470E+03 -0.91294357326E+02  0.45445223218E+03  0.68507887058E+03  0.40000000000E+03 0. -1.
<mgrwt>
<rscale>  2 0.51264630E+03</rscale>
<asrwt>0</asrwt>
<pdfrwt beam="1">  1        2 0.37452952E-01 0.51264630E+03</pdfrwt>
<pdfrwt beam="2">  1       -2 0.16654380E+00 0.51264630E+03</pdfrwt>
<totfact> 0.32287602E+01</totfact>
</mgrwt>
</event>
<event>
 4    1  0.2454657E-002  0.4294276E+03  0.7818608E-02  0.1034041E+00
          2   -1    0    0  502    0  0.00000000000E+00  0.00000000000E+00  0.12338705033E+04  0.12338705033E+04  0.00000000000E+00 0. -1.
         -2   -1    0    0    0  501 -0.00000000000E+00 -0.00000000000E+00 -0.16819871999E+03  0.16819871999E+03  0.00000000000E+00 0.  1.
    9000007    1    1    2  502    0 -0.47073223845E+02 -0.14897043320E+03  0.76685771855E+03  0.87890775333E+03  0.40000000000E+03 0.  1.
   -9000007    1    1    2    0  501  0.47073223845E+02  0.14897043320E+03  0.29881406481E+03  0.52316147001E+03  0.40000000000E+03 0.  1.
<mgrwt>
<rscale>  2 0.42942762E+03</rscale>
<asrwt>0</asrwt>
<pdfrwt beam="1">  1        2 0.18982623E+00 0.42942762E+03</pdfrwt>
<pdfrwt beam="2">  1       -2 0.25876727E-01 0.42942762E+03</pdfrwt>
<totfact> 0.25243715E+02</totfact>
</mgrwt>
</event>
<event>
 4    1  0.2454657E-002  0.9089296E+03  0.7818608E-02  0.9414487E-01
         -1   -1    0    0    0  501 -0.00000000000E+00  0.00000000000E+00  0.50622694361E+03  0.50622694361E+03  0.00000000000E+00 0. -1.
          1   -1    0    0  502    0  0.00000000000E+00 -0.00000000000E+00 -0.18393249042E+04  0.18393249042E+04  0.00000000000E+00 0.  1.
    9000007    1    1    2  502    0 -0.81585486142E+03  0.23106129055E+02 -0.10603082971E+04  0.13965696306E+04  0.40000000000E+03 0.  1.
   -9000007    1    1    2    0  501  0.81585486142E+03 -0.23106129055E+02 -0.27278966346E+03  0.94898221722E+03  0.40000000000E+03 0. -1.
<mgrwt>
<rscale>  2 0.90892962E+03</rscale>
<asrwt>0</asrwt>
<pdfrwt beam="1">  1        1 0.28297306E+00 0.90892962E+03</pdfrwt>
<pdfrwt beam="2">  1       -1 0.77881069E-01 0.90892962E+03</pdfrwt>
<totfact> 0.64607374E+00</totfact>
</mgrwt>
</event>
<event>
 4    1  0.2454657E-002  0.5315239E+03  0.7818608E-02  0.1005863E+00
          1   -1    0    0  502    0  0.00000000000E+00  0.00000000000E+00  0.12171251122E+03  0.12171251122E+03  0.00000000000E+00 0. -1.
         -1   -1    0    0    0  501 -0.00000000000E+00 -0.00000000000E+00 -0.30560698463E+04  0.30560698463E+04  0.00000000000E+00 0.  1.
    9000007    1    1    2  502    0 -0.16765991077E+02  0.34962345676E+03 -0.68802847957E+03  0.86942558548E+03  0.40000000000E+03 0. -1.
   -9000007    1    1    2    0  501  0.16765991077E+02 -0.34962345676E+03 -0.22463288555E+04  0.23083567720E+04  0.40000000000E+03 0.  1.
<mgrwt>
<rscale>  2 0.53152390E+03</rscale>
<asrwt>0</asrwt>
<pdfrwt beam="1">  1        1 0.18725003E-01 0.53152390E+03</pdfrwt>
<pdfrwt beam="2">  1       -1 0.47016456E+00 0.53152390E+03</pdfrwt>
<totfact> 0.74884179E-01</totfact>
</mgrwt>
</event>
<event>
 4    1  0.2454657E-002  0.4683518E+03  0.7818608E-02  0.1022386E+00
          2   -1    0    0  502    0  0.00000000000E+00  0.00000000000E+00  0.45864823141E+03  0.45864823141E+03  0.00000000000E+00 0.  1.
         -2   -1    0    0    0  501 -0.00000000000E+00 -0.00000000000E+00 -0.49732955695E+03  0.49732955695E+03  0.00000000000E+00 0. -1.
    9000007    1    1    2  502    0 -0.22849422473E+03  0.84521096991E+02  0.74255478134E+02  0.47420175306E+03  0.40000000000E+03 0.  1.
   -9000007    1    1    2    0  501  0.22849422473E+03 -0.84521096991E+02 -0.11293680367E+03  0.48177603531E+03  0.40000000000E+03 0.  1.
<mgrwt>
<rscale>  2 0.46835182E+03</rscale>
<asrwt>0</asrwt>
<pdfrwt beam="1">  1        2 0.70561266E-01 0.46835182E+03</pdfrwt>
<pdfrwt beam="2">  1       -2 0.76512239E-01 0.46835182E+03</pdfrwt>
<totfact> 0.10690449E+02</totfact>
</mgrwt>
</event>
<event>
 4    1  0.2454657E-002  0.4206121E+03  0.7818608E-02  0.1036867E+00
          1   -1    0    0  502    0  0.00000000000E+00  0.00000000000E+00  0.66031344987E+03  0.66031344987E+03  0.00000000000E+00 0.  1.
         -1   -1    0    0    0  501 -0.00000000000E+00 -0.00000000000E+00 -0.27876186850E+03  0.27876186850E+03  0.00000000000E+00 0. -1.
    9000007    1    1    2  502    0  0.12439499934E+03 -0.37953155286E+02  0.98198744842E+02  0.43192308499E+03  0.40000000000E+03 0. -1.
   -9000007    1    1    2    0  501 -0.12439499934E+03  0.37953155286E+02  0.28335283653E+03  0.50715223338E+03  0.40000000000E+03 0.  1.
<mgrwt>
<rscale>  2 0.42061212E+03</rscale>
<asrwt>0</asrwt>
<pdfrwt beam="1">  1        1 0.10158668E+00 0.42061212E+03</pdfrwt>
<pdfrwt beam="2">  1       -1 0.42886441E-01 0.42061212E+03</pdfrwt>
<totfact> 0.16588401E+02</totfact>
</mgrwt>
</event>
<event>
 4    1  0.2454657E-002  0.4208333E+03  0.7818608E-02  0.1036795E+00
         -2   -1    0    0    0  501 -0.00000000000E+00  0.00000000000E+00  0.13645421419E+03  0.13645421419E+03  0.00000000000E+00 0.  1.
          2   -1    0    0  502    0  0.00000000000E+00 -0.00000000000E+00 -0.13675148905E+04  0.13675148905E+04  0.00000000000E+00 0. -1.
    9000007    1    1    2  502    0  0.10096873630E+03  0.83102143008E+02 -0.78522522594E+03  0.89088680949E+03  0.40000000000E+03 0. -1.
   -9000007    1    1    2    0  501 -0.10096873630E+03 -0.83102143008E+02 -0.44583545040E+03  0.61308229523E+03  0.40000000000E+03 0.  1.
<mgrwt>
<rscale>  2 0.42083328E+03</rscale>
<asrwt>0</asrwt>
<pdfrwt beam="1">  1        2 0.21038690E+00 0.42083328E+03</pdfrwt>
<pdfrwt beam="2">  1       -2 0.20992957E-01 0.42083328E+03</pdfrwt>
<totfact> 0.30739194E+02</totfact>
</mgrwt>
</event>
<event>
 4    1  0.2454657E-002  0.4417181E+03  0.7818608E-02  0.1030221E+00
         -2   -1    0    0    0  501 -0.00000000000E+00  0.00000000000E+00  0.20097519049E+03  0.20097519049E+03  0.00000000000E+00 0.  1.
          2   -1    0    0  502    0  0.00000000000E+00 -0.00000000000E+00 -0.10683083567E+04  0.10683083567E+04  0.00000000000E+00 0. -1.
    9000007    1    1    2  502    0 -0.18115125482E+03  0.47949354238E+02 -0.24197177576E+03  0.50365192143E+03  0.40000000000E+03 0.  1.
   -9000007    1    1    2    0  501  0.18115125482E+03 -0.47949354238E+02 -0.62536139041E+03  0.76563162573E+03  0.40000000000E+03 0. -1.
<mgrwt>
<rscale>  2 0.44171814E+03</rscale>
<asrwt>0</asrwt>
<pdfrwt beam="1">  1        2 0.16435513E+00 0.44171814E+03</pdfrwt>
<pdfrwt beam="2">  1       -2 0.30919260E-01 0.44171814E+03</pdfrwt>
<totfact> 0.22825934E+02</totfact>
</mgrwt>
</event>
<event>
 4    1  0.2454657E-002  0.5499613E+03  0.7818608E-02  0.1001503E+00
         -1   -1    0    0    0  501 -0.00000000000E+00  0.00000000000E+00  0.33097778521E+03  0.33097778521E+03  0.00000000000E+00 0. -1.
          1   -1    0    0  502    0  0.00000000000E+00 -0.00000000000E+00 -0.96958996403E+03  0.96958996403E+03  0.00000000000E+00 0.  1.
    9000007    1    1    2  502    0 -0.22180102391E+03 -0.30538789600E+03 -0.16336168443E+03  0.57371116528E+03  0.40000000000E+03 0. -1.
   -9000007    1    1    2    0  501  0.22180102391E+03  0.30538789600E+03 -0.47525049439E+03  0.72685658396E+03  0.40000000000E+03 0.  1.
<mgrwt>
<rscale>  2 0.54996133E+03</rscale>
<asrwt>0</asrwt>
<pdfrwt beam="1">  1        1 0.14916768E+00 0.54996133E+03</pdfrwt>
<pdfrwt beam="2">  1       -1 0.50919660E-01 0.54996133E+03</pdfrwt>
<totfact> 0.64731111E+01</totfact>
</mgrwt>
</event>
<event>
 4    1  0.2454657E-002  0.5476050E+03  0.7818608E-02  0.1002050E+00
         -3   -1    0    0    0  501 -0.00000000000E+00  0.00000000000E+00  0.79156689393E+03  0.79156689393E+03  0.00000000000E+00 0.  1.
          3   -1    0    0  502    0  0.00000000000E+00 -0.00000000000E+00 -0.40532123774E+03  0.40532123774E+03  0.00000000000E+00 0. -1.
    9000007    1    1    2  502    0 -0.26198716773E+03 -0.26689699766E+03  0.40135898196E+02  0.54907392374E+03  0.40000000000E+03 0.  1.
   -9000007    1    1    2    0  501  0.26198716773E+03  0.26689699766E+03  0.34610975799E+03  0.64781420792E+03  0.40000000000E+03 0.  1.
<mgrwt>
<rscale>  2 0.54760504E+03</rscale>
<asrwt>0</asrwt>
<pdfrwt beam="1">  1        3 0.62357114E-01 0.54760504E+03</pdfrwt>
<pdfrwt beam="2">  1       -3 0.12177952E+00 0.54760504E+03</pdfrwt>
<totfact> 0.35704750E+00</totfact>
</mgrwt>
</event>
<event>
 4    1  0.2454657E-002  0.5396566E+03  0.7818608E-02  0.1003917E+00
         -2   -1    0    0    0  501 -0.00000000000E+00  0.00000000000E+00  0.14152610758E+04  0.14152610758E+04  0.00000000000E+00 0.  1.
          2   -1    0    0  502    0  0.00000000000E+00 -0.00000000000E+00 -0.21283206732E+03  0.21283206732E+03  0.00000000000E+00 0. -1.
    9000007    1    1    2  502    0  0.15345605378E+03 -0.32814697065E+03  0.74941825515E+03  0.92350252623E+03  0.40000000000E+03 0.  1.
   -9000007    1    1    2    0  501 -0.15345605378E+03  0.32814697065E+03  0.45301075332E+03  0.70459061689E+03  0.40000000000E+03 0. -1.
<mgrwt>
<rscale>  2 0.53965655E+03</rscale>
<asrwt>0</asrwt>
<pdfrwt beam="1">  1        2 0.32743396E-01 0.53965655E+03</pdfrwt>
<pdfrwt beam="2">  1       -2 0.21773247E+00 0.53965655E+03</pdfrwt>
<totfact> 0.17155471E+01</totfact>
</mgrwt>
</event>
<event>
 4    1  0.2454657E-002  0.4263330E+03  0.7818608E-02  0.1035025E+00
         -2   -1    0    0    0  501 -0.00000000000E+00  0.00000000000E+00  0.20692037273E+03  0.20692037273E+03  0.00000000000E+00 0. -1.
          2   -1    0    0  502    0  0.00000000000E+00 -0.00000000000E+00 -0.88495940406E+03  0.88495940406E+03  0.00000000000E+00 0.  1.
    9000007    1    1    2  502    0  0.53995979115E+01 -0.14741325795E+03 -0.29203440197E+03  0.51676292070E+03  0.40000000000E+03 0. -1.
   -9000007    1    1    2    0  501 -0.53995979115E+01  0.14741325795E+03 -0.38600462936E+03  0.57511685609E+03  0.40000000000E+03 0.  1.
<mgrwt>
<rscale>  2 0.42633300E+03</rscale>
<asrwt>0</asrwt>
<pdfrwt beam="1">  1        2 0.13614760E+00 0.42633300E+03</pdfrwt>
<pdfrwt beam="2">  1       -2 0.31833903E-01 0.42633300E+03</pdfrwt>
<totfact> 0.28306413E+02</totfact>
</mgrwt>
</event>
<event>
 4    1  0.2454657E-002  0.4845834E+03  0.7818608E-02  0.1017883E+00
          2   -1    0    0  502    0  0.00000000000E+00  0.00000000000E+00  0.17127742101E+04  0.17127742101E+04  0.00000000000E+00 0. -1.
         -2   -1    0    0    0  501 -0.00000000000E+00 -0.00000000000E+00 -0.15254062660E+03  0.15254062660E+03  0.00000000000E+00 0.  1.
    9000007    1    1    2  502    0 -0.13058463993E+03 -0.24035124927E+03  0.48338499407E+03  0.68445753974E+03  0.40000000000E+03 0.  1.
   -9000007    1    1    2    0  501  0.13058463993E+03  0.24035124927E+03  0.10768485894E+04  0.11808572969E+04  0.40000000000E+03 0. -1.
<mgrwt>
<rscale>  2 0.48458340E+03</rscale>
<asrwt>0</asrwt>
<pdfrwt beam="1">  1        2 0.26350371E+00 0.48458340E+03</pdfrwt>
<pdfrwt beam="2">  1       -2 0.23467790E-01 0.48458340E+03</pdfrwt>
<totfact> 0.16248922E+02</totfact>
</mgrwt>
</event>
<event>
 4    1  0.2454657E-002  0.5217376E+03  0.7818608E-02  0.1008256E+00
          2   -1    0    0  502    0  0.00000000000E+00  0.00000000000E+00  0.30099396679E+04  0.30099396679E+04  0.00000000000E+00 0.  1.
         -2   -1    0    0    0  501 -0.00000000000E+00 -0.00000000000E+00 -0.14052664868E+03  0.14052664868E+03  0.00000000000E+00 0. -1.
    9000007    1    1    2  502    0  0.57749223493E+02 -0.32996235858E+03  0.23751640232E+04  0.24317923982E+04  0.40000000000E+03 0.  1.
   -9000007    1    1    2    0  501 -0.57749223493E+02  0.32996235858E+03  0.49424899606E+03  0.71867391841E+03  0.40000000000E+03 0. -1.
<mgrwt>
<rscale>  2 0.52173761E+03</rscale>
<asrwt>0</asrwt>
<pdfrwt beam="1">  1        2 0.46306759E+00 0.52173761E+03</pdfrwt>
<pdfrwt beam="2">  1       -2 0.21619487E-01 0.52173761E+03</pdfrwt>
<totfact> 0.35201615E+01</totfact>
</mgrwt>
</event>
<event>
 4    1  0.2454657E-002  0.6246607E+03  0.7818608E-02  0.9855524E-01
         -2   -1    0    0    0  501 -0.00000000000E+00  0.00000000000E+00  0.24940421233E+03  0.24940421233E+03  0.00000000000E+00 0. -1.
          2   -1    0    0  502    0  0.00000000000E+00 -0.00000000000E+00 -0.15645833001E+04  0.15645833001E+04  0.00000000000E+00 0.  1.
    9000007    1    1    2  502    0 -0.47908983571E+03  0.25960589830E+02 -0.66275219120E+03  0.91073678406E+03  0.40000000000E+03 0.  1.
   -9000007    1    1    2    0  501  0.47908983571E+03 -0.25960589830E+02 -0.65242689656E+03  0.90325072835E+03  0.40000000000E+03 0. -1.
<mgrwt>
<rscale>  2 0.62466073E+03</rscale>
<asrwt>0</asrwt>
<pdfrwt beam="1">  1        2 0.24070512E+00 0.62466073E+03</pdfrwt>
<pdfrwt beam="2">  1       -2 0.38369880E-01 0.62466073E+03</pdfrwt>
<totfact> 0.77462507E+01</totfact>
</mgrwt>
</event>
<event>
 4    1  0.2454657E-002  0.4595795E+03  0.7818608E-02  0.1024903E+00
          2   -1    0    0  502    0  0.00000000000E+00  0.00000000000E+00  0.13643393019E+04  0.13643393019E+04  0.00000000000E+00 0.  1.
         -2   -1    0    0    0  501 -0.00000000000E+00 -0.00000000000E+00 -0.15758356408E+03  0.15758356408E+03  0.00000000000E+00 0. -1.
    9000007    1    1    2  502    0  0.21427310902E+02 -0.22528691899E+03  0.50242267015E+03  0.68091252375E+03  0.40000000000E+03 0. -1.
   -9000007    1    1    2    0  501 -0.21427310902E+02  0.22528691899E+03  0.70433306769E+03  0.84101034224E+03  0.40000000000E+03 0.  1.
<mgrwt>
<rscale>  2 0.45957951E+03</rscale>
<asrwt>0</asrwt>
<pdfrwt beam="1">  1        2 0.20989835E+00 0.45957951E+03</pdfrwt>
<pdfrwt beam="2">  1       -2 0.24243626E-01 0.45957951E+03</pdfrwt>
<totfact> 0.23850259E+02</totfact>
</mgrwt>
</event>
<event>
 4    1  0.2454657E-002  0.5110848E+03  0.7818608E-02  0.1010925E+00
         -2   -1    0    0    0  501 -0.00000000000E+00  0.00000000000E+00  0.23057192195E+03  0.23057192195E+03  0.00000000000E+00 0.  1.
          2   -1    0    0  502    0  0.00000000000E+00 -0.00000000000E+00 -0.12751412849E+04  0.12751412849E+04  0.00000000000E+00 0. -1.
    9000007    1    1    2  502    0  0.28293288804E+03 -0.14545333705E+03 -0.77375912805E+03  0.92731379837E+03  0.40000000000E+03 0. -1.
   -9000007    1    1    2    0  501 -0.28293288804E+03  0.14545333705E+03 -0.27081023489E+03  0.57839940847E+03  0.40000000000E+03 0.  1.
<mgrwt>
<rscale>  2 0.51108482E+03</rscale>
<asrwt>0</asrwt>
<pdfrwt beam="1">  1        2 0.19617558E+00 0.51108482E+03</pdfrwt>
<pdfrwt beam="2">  1       -2 0.35472603E-01 0.51108482E+03</pdfrwt>
<totfact> 0.13238129E+02</totfact>
</mgrwt>
</event>
<event>
 4    1  0.2454657E-002  0.5173136E+03  0.7818608E-02  0.1009356E+00
          2   -1    0    0  502    0  0.00000000000E+00  0.00000000000E+00  0.26784155186E+04  0.26784155186E+04  0.00000000000E+00 0.  1.
         -2   -1    0    0    0  501 -0.00000000000E+00 -0.00000000000E+00 -0.14230617175E+03  0.14230617175E+03  0.00000000000E+00 0. -1.
    9000007    1    1    2  502    0  0.12196686941E+02 -0.32781787241E+03  0.20378179270E+04  0.21024545703E+04  0.40000000000E+03 0.  1.
   -9000007    1    1    2    0  501 -0.12196686941E+02  0.32781787241E+03  0.49829141986E+03  0.71826712005E+03  0.40000000000E+03 0. -1.
<mgrwt>
<rscale>  2 0.51731356E+03</rscale>
<asrwt>0</asrwt>
<pdfrwt beam="1">  1        2 0.41206389E+00 0.51731356E+03</pdfrwt>
<pdfrwt beam="2">  1       -2 0.21893259E-01 0.51731356E+03</pdfrwt>
<totfact> 0.54037142E+01</totfact>
</mgrwt>
</event>
<event>
 4    1  0.2454657E-002  0.4136367E+03  0.7818608E-02  0.1039157E+00
         -2   -1    0    0    0  501 -0.00000000000E+00  0.00000000000E+00  0.47981797664E+03  0.47981797664E+03  0.00000000000E+00 0. -1.
          2   -1    0    0  502    0  0.00000000000E+00 -0.00000000000E+00 -0.42642244925E+03  0.42642244925E+03  0.00000000000E+00 0.  1.
    9000007    1    1    2  502    0 -0.88551008477E+02  0.57043876201E+02  0.21007335692E+03  0.46392467083E+03  0.40000000000E+03 0.  1.
   -9000007    1    1    2    0  501  0.88551008477E+02 -0.57043876201E+02 -0.15667782953E+03  0.44231575507E+03  0.40000000000E+03 0. -1.
<mgrwt>
<rscale>  2 0.41363666E+03</rscale>
<asrwt>0</asrwt>
<pdfrwt beam="1">  1        2 0.65603454E-01 0.41363666E+03</pdfrwt>
<pdfrwt beam="2">  1       -2 0.73818150E-01 0.41363666E+03</pdfrwt>
<totfact> 0.12606689E+02</totfact>
</mgrwt>
</event>
<event>
 4    1  0.2454657E-002  0.4836322E+03  0.7818608E-02  0.1018142E+00
         -1   -1    0    0    0  501 -0.00000000000E+00  0.00000000000E+00  0.12997567082E+04  0.12997567082E+04  0.00000000000E+00 0. -1.
          1   -1    0    0  502    0  0.00000000000E+00 -0.00000000000E+00 -0.20487145048E+03  0.20487145048E+03  0.00000000000E+00 0.  1.
    9000007    1    1    2  502    0 -0.17869847512E+02 -0.27125775538E+03  0.28508990506E+03  0.56140569579E+03  0.40000000000E+03 0.  1.
   -9000007    1    1    2    0  501  0.17869847512E+02  0.27125775538E+03  0.80979535270E+03  0.94322246292E+03  0.40000000000E+03 0. -1.
<mgrwt>
<rscale>  2 0.48363220E+03</rscale>
<asrwt>0</asrwt>
<pdfrwt beam="1">  1        1 0.31518685E-01 0.48363220E+03</pdfrwt>
<pdfrwt beam="2">  1       -1 0.19996257E+00 0.48363220E+03</pdfrwt>
<totfact> 0.22990915E+01</totfact>
</mgrwt>
</event>
<event>
 4    1  0.2454657E-002  0.5598600E+03  0.7818608E-02  0.9992371E-01
         -2   -1    0    0    0  501 -0.00000000000E+00  0.00000000000E+00  0.14995185912E+03  0.14995185912E+03  0.00000000000E+00 0. -1.
          2   -1    0    0  502    0  0.00000000000E+00 -0.00000000000E+00 -0.40331513120E+04  0.40331513120E+04  0.00000000000E+00 0.  1.
    9000007    1    1    2  502    0 -0.76945053957E+02  0.38408687875E+03 -0.48993299365E+03  0.74396075839E+03  0.40000000000E+03 0. -1.
   -9000007    1    1    2    0  501  0.76945053957E+02 -0.38408687875E+03 -0.33932664592E+04  0.34391424127E+04  0.40000000000E+03 0.  1.
<mgrwt>
<rscale>  2 0.55986005E+03</rscale>
<asrwt>0</asrwt>
<pdfrwt beam="1">  1        2 0.62048479E+00 0.55986005E+03</pdfrwt>
<pdfrwt beam="2">  1       -2 0.23069518E-01 0.55986005E+03</pdfrwt>
<totfact> 0.61734318E+00</totfact>
</mgrwt>
</event>
<event>
 4    1  0.2454657E-002  0.4056685E+03  0.7818608E-02  0.1041834E+00
          2   -1    0    0  502    0  0.00000000000E+00  0.00000000000E+00  0.24950794137E+04  0.24950794137E+04  0.00000000000E+00 0. -1.
         -2   -1    0    0    0  501 -0.00000000000E+00 -0.00000000000E+00 -0.65976972613E+02  0.65976972613E+02  0.00000000000E+00 0.  1.
    9000007    1    1    2  502    0 -0.64530172487E+02 -0.20070181412E+02  0.11920495773E+04  0.12591859077E+04  0.40000000000E+03 0. -1.
   -9000007    1    1    2    0  501  0.64530172487E+02  0.20070181412E+02  0.12370528637E+04  0.13018704786E+04  0.40000000000E+03 0.  1.
<mgrwt>
<rscale>  2 0.40566853E+03</rscale>
<asrwt>0</asrwt>
<pdfrwt beam="1">  1        2 0.38385830E+00 0.40566853E+03</pdfrwt>
<pdfrwt beam="2">  1       -2 0.10150305E-01 0.40566853E+03</pdfrwt>
<totfact> 0.25460261E+02</totfact>
</mgrwt>
</event>
<event>
 4    1  0.2454657E-002  0.4377825E+03  0.7818608E-02  0.1031429E+00
          1   -1    0    0  502    0  0.00000000000E+00  0.00000000000E+00  0.70588934076E+03  0.70588934076E+03  0.00000000000E+00 0. -1.
         -1   -1    0    0    0  501 -0.00000000000E+00 -0.00000000000E+00 -0.39647401866E+03  0.39647401866E+03  0.00000000000E+00 0.  1.
    9000007    1    1    2  502    0  0.87425839724E+02  0.15495228209E+03  0.46415455045E+03  0.63803834828E+03  0.40000000000E+03 0. -1.
   -9000007    1    1    2    0  501 -0.87425839724E+02 -0.15495228209E+03 -0.15473922834E+03  0.46432501113E+03  0.40000000000E+03 0.  1.
<mgrwt>
<rscale>  2 0.43778247E+03</rscale>
<asrwt>0</asrwt>
<pdfrwt beam="1">  1        1 0.10859836E+00 0.43778247E+03</pdfrwt>
<pdfrwt beam="2">  1       -1 0.60996003E-01 0.43778247E+03</pdfrwt>
<totfact> 0.77248330E+01</totfact>
</mgrwt>
</event>
<event>
 4    1  0.2454657E-002  0.4173294E+03  0.7818608E-02  0.1037939E+00
         -2   -1    0    0    0  501 -0.00000000000E+00  0.00000000000E+00  0.11385900122E+03  0.11385900122E+03  0.00000000000E+00 0.  1.
          2   -1    0    0  502    0  0.00000000000E+00 -0.00000000000E+00 -0.20248797767E+04  0.20248797767E+04  0.00000000000E+00 0. -1.
    9000007    1    1    2  502    0 -0.31887218492E+02 -0.11466046459E+03 -0.42665878003E+03  0.59682621543E+03  0.40000000000E+03 0.  1.
   -9000007    1    1    2    0  501  0.31887218492E+02  0.11466046459E+03 -0.14843619954E+04  0.15419125625E+04  0.40000000000E+03 0. -1.
<mgrwt>
<rscale>  2 0.41732939E+03</rscale>
<asrwt>0</asrwt>
<pdfrwt beam="1">  1        2 0.31151995E+00 0.41732939E+03</pdfrwt>
<pdfrwt beam="2">  1       -2 0.17516771E-01 0.41732939E+03</pdfrwt>
<totfact> 0.18562343E+02</totfact>
</mgrwt>
</event>
<event>
 4    1  0.2454657E-002  0.4881320E+03  0.7818608E-02  0.1016924E+00
         -1   -1    0    0    0  501 -0.00000000000E+00  0.00000000000E+00  0.14109346953E+03  0.14109346953E+03  0.00000000000E+00 0.  1.
          1   -1    0    0  502    0  0.00000000000E+00 -0.00000000000E+00 -0.18655052501E+04  0.18655052501E+04  0.00000000000E+00 0. -1.
    9000007    1    1    2  502    0 -0.25775284716E+03 -0.10879499647E+03 -0.55338457287E+03  0.73790742439E+03  0.40000000000E+03 0.  1.
   -9000007    1    1    2    0  501  0.25775284716E+03  0.10879499647E+03 -0.11710272077E+04  0.12686912952E+04  0.40000000000E+03 0. -1.
<mgrwt>
<rscale>  2 0.48813203E+03</rscale>
<asrwt>0</asrwt>
<pdfrwt beam="1">  1        1 0.28700080E+00 0.48813203E+03</pdfrwt>
<pdfrwt beam="2">  1       -1 0.21706689E-01 0.48813203E+03</pdfrwt>
<totfact> 0.69846104E+01</totfact>
</mgrwt>
</event>
<event>
 4    1  0.2454657E-002  0.6400207E+03  0.7818608E-02  0.9825687E-01
         -2   -1    0    0    0  501 -0.00000000000E+00  0.00000000000E+00  0.12957013447E+04  0.12957013447E+04  0.00000000000E+00 0.  1.
          2   -1    0    0  502    0  0.00000000000E+00 -0.00000000000E+00 -0.32579536737E+03  0.32579536737E+03  0.00000000000E+00 0. -1.
    9000007    1    1    2  502    0  0.49958390881E+03 -0.65089225354E+01  0.62450579392E+03  0.89422253083E+03  0.40000000000E+03 0.  1.
   -9000007    1    1    2    0  501 -0.49958390881E+03  0.65089225354E+01  0.34540018342E+03  0.72727418126E+03  0.40000000000E+03 0.  1.
<mgrwt>
<rscale>  2 0.64002066E+03</rscale>
<asrwt>0</asrwt>
<pdfrwt beam="1">  1        2 0.50122365E-01 0.64002066E+03</pdfrwt>
<pdfrwt beam="2">  1       -2 0.19933867E+00 0.64002066E+03</pdfrwt>
<totfact> 0.13841563E+01</totfact>
</mgrwt>
</event>
<event>
 4    1  0.2454657E-002  0.4608730E+03  0.7818608E-02  0.1024528E+00
         -1   -1    0    0    0  501 -0.00000000000E+00  0.00000000000E+00  0.16915642076E+03  0.16915642076E+03  0.00000000000E+00 0. -1.
          1   -1    0    0  502    0  0.00000000000E+00 -0.00000000000E+00 -0.14683069005E+04  0.14683069005E+04  0.00000000000E+00 0.  1.
    9000007    1    1    2  502    0  0.13024538861E+03  0.18825525367E+03 -0.33800429196E+03  0.57153372881E+03  0.40000000000E+03 0. -1.
   -9000007    1    1    2    0  501 -0.13024538861E+03 -0.18825525367E+03 -0.96114618777E+03  0.10659295924E+04  0.40000000000E+03 0.  1.
<mgrwt>
<rscale>  2 0.46087298E+03</rscale>
<asrwt>0</asrwt>
<pdfrwt beam="1">  1        1 0.22589337E+00 0.46087298E+03</pdfrwt>
<pdfrwt beam="2">  1       -1 0.26024064E-01 0.46087298E+03</pdfrwt>
<totfact> 0.95184214E+01</totfact>
</mgrwt>
</event>
<event>
 4    1  0.2454657E-002  0.4782780E+03  0.7818608E-02  0.1019610E+00
          2   -1    0    0  502    0  0.00000000000E+00  0.00000000000E+00  0.15303169604E+04  0.15303169604E+04  0.00000000000E+00 0.  1.
         -2   -1    0    0    0  501 -0.00000000000E+00 -0.00000000000E+00 -0.16676724438E+03  0.16676724438E+03  0.00000000000E+00 0. -1.
    9000007    1    1    2  502    0  0.25332640100E+03 -0.67642742073E+02  0.40856453724E+03  0.62902685721E+03  0.40000000000E+03 0. -1.
   -9000007    1    1    2    0  501 -0.25332640100E+03  0.67642742073E+02  0.95498517877E+03  0.10680573476E+04  0.40000000000E+03 0.  1.
<mgrwt>
<rscale>  2 0.47827796E+03</rscale>
<asrwt>0</asrwt>
<pdfrwt beam="1">  1        2 0.23543337E+00 0.47827796E+03</pdfrwt>
<pdfrwt beam="2">  1       -2 0.25656500E-01 0.47827796E+03</pdfrwt>
<totfact> 0.17414300E+02</totfact>
</mgrwt>
</event>
<event>
 4    1  0.2454657E-002  0.4766076E+03  0.7818608E-02  0.1020072E+00
         -2   -1    0    0    0  501 -0.00000000000E+00  0.00000000000E+00  0.38787741874E+03  0.38787741874E+03  0.00000000000E+00 0. -1.
          2   -1    0    0  502    0  0.00000000000E+00 -0.00000000000E+00 -0.60705789783E+03  0.60705789783E+03  0.00000000000E+00 0.  1.
    9000007    1    1    2  502    0 -0.23615282253E+03 -0.10670812466E+03 -0.20304125120E+03  0.51805456194E+03  0.40000000000E+03 0.  1.
   -9000007    1    1    2    0  501  0.23615282253E+03  0.10670812466E+03 -0.16139227885E+02  0.47688075463E+03  0.40000000000E+03 0. -1.
<mgrwt>
<rscale>  2 0.47660757E+03</rscale>
<asrwt>0</asrwt>
<pdfrwt beam="1">  1        2 0.93393522E-01 0.47660757E+03</pdfrwt>
<pdfrwt beam="2">  1       -2 0.59673449E-01 0.47660757E+03</pdfrwt>
<totfact> 0.13181555E+02</totfact>
</mgrwt>
</event>
<event>
 4    1  0.2454657E-002  0.5124652E+03  0.7818608E-02  0.1010576E+00
         -1   -1    0    0    0  501 -0.00000000000E+00  0.00000000000E+00  0.79269975965E+03  0.79269975965E+03  0.00000000000E+00 0. -1.
          1   -1    0    0  502    0  0.00000000000E+00 -0.00000000000E+00 -0.53846309395E+03  0.53846309395E+03  0.00000000000E+00 0.  1.
    9000007    1    1    2  502    0 -0.35833824444E+02 -0.31833397102E+03  0.53995716594E+03  0.74442885565E+03  0.40000000000E+03 0. -1.
   -9000007    1    1    2    0  501  0.35833824444E+02  0.31833397102E+03 -0.28572050024E+03  0.58673399794E+03  0.40000000000E+03 0.  1.
<mgrwt>
<rscale>  2 0.51246520E+03</rscale>
<asrwt>0</asrwt>
<pdfrwt beam="1">  1        1 0.82840476E-01 0.51246520E+03</pdfrwt>
<pdfrwt beam="2">  1       -1 0.12195381E+00 0.51246520E+03</pdfrwt>
<totfact> 0.25107290E+01</totfact>
</mgrwt>
</event>
<event>
 4    1  0.2454657E-002  0.5449293E+03  0.7818608E-02  0.1002674E+00
          2   -1    0    0  502    0  0.00000000000E+00  0.00000000000E+00  0.27716794667E+04  0.27716794667E+04  0.00000000000E+00 0.  1.
         -2   -1    0    0    0  501 -0.00000000000E+00 -0.00000000000E+00 -0.12872880082E+03  0.12872880082E+03  0.00000000000E+00 0. -1.
    9000007    1    1    2  502    0  0.36427528786E+03 -0.65203610385E+02  0.72753764111E+03  0.90898790717E+03  0.40000000000E+03 0. -1.
   -9000007    1    1    2    0  501 -0.36427528786E+03  0.65203610385E+02  0.19154130247E+04  0.19914203603E+04  0.40000000000E+03 0.  1.
<mgrwt>
<rscale>  2 0.54492935E+03</rscale>
<asrwt>0</asrwt>
<pdfrwt beam="1">  1        2 0.42641218E+00 0.54492935E+03</pdfrwt>
<pdfrwt beam="2">  1       -2 0.19804433E-01 0.54492935E+03</pdfrwt>
<totfact> 0.56571098E+01</totfact>
</mgrwt>
</event>
<event>
 4    1  0.2454657E-002  0.4387702E+03  0.7818608E-02  0.1031125E+00
         -2   -1    0    0    0  501 -0.00000000000E+00  0.00000000000E+00  0.13656317727E+03  0.13656317727E+03  0.00000000000E+00 0.  1.
          2   -1    0    0  502    0  0.00000000000E+00 -0.00000000000E+00 -0.16608981472E+04  0.16608981472E+04  0.00000000000E+00 0. -1.
    9000007    1    1    2  502    0  0.13433354033E+03  0.12030713108E+03 -0.11116512916E+04  0.11951099949E+04  0.40000000000E+03 0. -1.
   -9000007    1    1    2    0  501 -0.13433354033E+03 -0.12030713108E+03 -0.41268367834E+03  0.60235132955E+03  0.40000000000E+03 0.  1.
<mgrwt>
<rscale>  2 0.43877022E+03</rscale>
<asrwt>0</asrwt>
<pdfrwt beam="1">  1        2 0.25552279E+00 0.43877022E+03</pdfrwt>
<pdfrwt beam="2">  1       -2 0.21009720E-01 0.43877022E+03</pdfrwt>
<totfact> 0.21182711E+02</totfact>
</mgrwt>
</event>
<event>
 4    1  0.2454657E-002  0.4082191E+03  0.7818608E-02  0.1040970E+00
         -2   -1    0    0    0  501 -0.00000000000E+00  0.00000000000E+00  0.10779754525E+03  0.10779754525E+03  0.00000000000E+00 0. -1.
          2   -1    0    0  502    0  0.00000000000E+00 -0.00000000000E+00 -0.17153088941E+04  0.17153088941E+04  0.00000000000E+00 0.  1.
    9000007    1    1    2  502    0  0.55620785383E+02  0.59575065500E+02 -0.10902362585E+04  0.11641554706E+04  0.40000000000E+03 0.  1.
   -9000007    1    1    2    0  501 -0.55620785383E+02 -0.59575065500E+02 -0.51727509028E+03  0.65895096875E+03  0.40000000000E+03 0. -1.
<mgrwt>
<rscale>  2 0.40821913E+03</rscale>
<asrwt>0</asrwt>
<pdfrwt beam="1">  1        2 0.26389366E+00 0.40821913E+03</pdfrwt>
<pdfrwt beam="2">  1       -2 0.16584239E-01 0.40821913E+03</pdfrwt>
<totfact> 0.29849822E+02</totfact>
</mgrwt>
</event>
<event>
 4    1  0.2454657E-002  0.5135340E+03  0.7818608E-02  0.1010305E+00
         -1   -1    0    0    0  501 -0.00000000000E+00  0.00000000000E+00  0.51148288660E+03  0.51148288660E+03  0.00000000000E+00 0. -1.
          1   -1    0    0  502    0  0.00000000000E+00 -0.00000000000E+00 -0.51872577797E+03  0.51872577797E+03  0.00000000000E+00 0.  1.
    9000007    1    1    2  502    0 -0.29819287252E+03  0.12164797372E+03 -0.43649170269E+02  0.51538574757E+03  0.40000000000E+03 0.  1.
   -9000007    1    1    2    0  501  0.29819287252E+03 -0.12164797372E+03  0.36406278903E+02  0.51482291700E+03  0.40000000000E+03 0. -1.
<mgrwt>
<rscale>  2 0.51353405E+03</rscale>
<asrwt>0</asrwt>
<pdfrwt beam="1">  1        1 0.79803965E-01 0.51353405E+03</pdfrwt>
<pdfrwt beam="2">  1       -1 0.78689676E-01 0.51353405E+03</pdfrwt>
<totfact> 0.70911042E+01</totfact>
</mgrwt>
</event>
<event>
 4    1  0.2454657E-002  0.4333876E+03  0.7818608E-02  0.1032795E+00
          4   -1    0    0  502    0  0.00000000000E+00  0.00000000000E+00  0.57194435978E+03  0.57194435978E+03  0.00000000000E+00 0.  1.
         -4   -1    0    0    0  501 -0.00000000000E+00 -0.00000000000E+00 -0.49218654535E+03  0.49218654535E+03  0.00000000000E+00 0. -1.
    9000007    1    1    2  502    0  0.15728402266E+03 -0.55556862524E+02 -0.26705385069E+03  0.50906049535E+03  0.40000000000E+03 0. -1.
   -9000007    1    1    2    0  501 -0.15728402266E+03  0.55556862524E+02  0.34681166512E+03  0.55507040979E+03  0.40000000000E+03 0.  1.
<mgrwt>
<rscale>  2 0.43338762E+03</rscale>
<asrwt>0</asrwt>
<pdfrwt beam="1">  1        4 0.87991440E-01 0.43338762E+03</pdfrwt>
<pdfrwt beam="2">  1       -4 0.75721007E-01 0.43338762E+03</pdfrwt>
<totfact> 0.33941380E+00</totfact>
</mgrwt>
</event>
<event>
 4    1  0.2454657E-002  0.5174650E+03  0.7818608E-02  0.1009318E+00
         -2   -1    0    0    0  501 -0.00000000000E+00  0.00000000000E+00  0.17096488870E+03  0.17096488870E+03  0.00000000000E+00 0.  1.
          2   -1    0    0  502    0  0.00000000000E+00 -0.00000000000E+00 -0.24341104888E+04  0.24341104888E+04  0.00000000000E+00 0. -1.
    9000007    1    1    2  502    0  0.31354751736E+03 -0.97252324074E+02 -0.19093416099E+04  0.19782202717E+04  0.40000000000E+03 0. -1.
   -9000007    1    1    2    0  501 -0.31354751736E+03  0.97252324074E+02 -0.35380399024E+03  0.62685510582E+03  0.40000000000E+03 0.  1.
<mgrwt>
<rscale>  2 0.51746503E+03</rscale>
<asrwt>0</asrwt>
<pdfrwt beam="1">  1        2 0.37447849E+00 0.51746503E+03</pdfrwt>
<pdfrwt beam="2">  1       -2 0.26302294E-01 0.51746503E+03</pdfrwt>
<totfact> 0.53523974E+01</totfact>
</mgrwt>
</event>
<event>
 4    1  0.2454657E-002  0.6342465E+03  0.7818608E-02  0.9836797E-01
         -4   -1    0    0    0  501 -0.00000000000E+00  0.00000000000E+00  0.68380414674E+03  0.68380414674E+03  0.00000000000E+00 0.  1.
          4   -1    0    0  502    0  0.00000000000E+00 -0.00000000000E+00 -0.62599156869E+03  0.62599156869E+03  0.00000000000E+00 0. -1.
    9000007    1    1    2  502    0 -0.48592045721E+03  0.78421504655E+02 -0.13183370022E+03  0.64780301608E+03  0.40000000000E+03 0.  1.
   -9000007    1    1    2    0  501  0.48592045721E+03 -0.78421504655E+02  0.18964627827E+03  0.66199269935E+03  0.40000000000E+03 0. -1.
<mgrwt>
<rscale>  2 0.63424650E+03</rscale>
<asrwt>0</asrwt>
<pdfrwt beam="1">  1        4 0.96306395E-01 0.63424650E+03</pdfrwt>
<pdfrwt beam="2">  1       -4 0.10520064E+00 0.63424650E+03</pdfrwt>
<totfact> 0.12905793E+00</totfact>
</mgrwt>
</event>
<event>
 4    1  0.2454657E-002  0.4215474E+03  0.7818608E-02  0.1036564E+00
          2   -1    0    0  502    0  0.00000000000E+00  0.00000000000E+00  0.71615679108E+03  0.71615679108E+03  0.00000000000E+00 0.  1.
         -2   -1    0    0    0  501 -0.00000000000E+00 -0.00000000000E+00 -0.39033959367E+03  0.39033959367E+03  0.00000000000E+00 0. -1.
    9000007    1    1    2  502    0 -0.13013774197E+03 -0.27683235287E+02 -0.17102370915E+03  0.45491900652E+03  0.40000000000E+03 0. -1.
   -9000007    1    1    2    0  501  0.13013774197E+03  0.27683235287E+02  0.49684090655E+03  0.65157737823E+03  0.40000000000E+03 0.  1.
<mgrwt>
<rscale>  2 0.42154738E+03</rscale>
<asrwt>0</asrwt>
<pdfrwt beam="1">  1        2 0.11017797E+00 0.42154738E+03</pdfrwt>
<pdfrwt beam="2">  1       -2 0.60052245E-01 0.42154738E+03</pdfrwt>
<totfact> 0.10687234E+02</totfact>
</mgrwt>
</event>
<event>
 4    1  0.2454657E-002  0.4774245E+03  0.7818608E-02  0.1019845E+00
         -1   -1    0    0    0  501 -0.00000000000E+00  0.00000000000E+00  0.13212891965E+03  0.13212891965E+03  0.00000000000E+00 0. -1.
          1   -1    0    0  502    0  0.00000000000E+00 -0.00000000000E+00 -0.18156204154E+04  0.18156204154E+04  0.00000000000E+00 0.  1.
    9000007    1    1    2  502    0 -0.24140084022E+03  0.98284234528E+02 -0.62428042999E+03  0.78591361592E+03  0.40000000000E+03 0. -1.
   -9000007    1    1    2    0  501  0.24140084022E+03 -0.98284234528E+02 -0.10592110658E+04  0.11618357191E+04  0.40000000000E+03 0.  1.
<mgrwt>
<rscale>  2 0.47742450E+03</rscale>
<asrwt>0</asrwt>
<pdfrwt beam="1">  1        1 0.27932622E+00 0.47742450E+03</pdfrwt>
<pdfrwt beam="2">  1       -1 0.20327526E-01 0.47742450E+03</pdfrwt>
<totfact> 0.84186107E+01</totfact>
</mgrwt>
</event>
<event>
 4    1  0.2454657E-002  0.7181026E+03  0.7818608E-02  0.9686766E-01
          2   -1    0    0  502    0  0.00000000000E+00  0.00000000000E+00  0.28418746392E+04  0.28418746392E+04  0.00000000000E+00 0.  1.
         -2   -1    0    0    0  501 -0.00000000000E+00 -0.00000000000E+00 -0.31627079504E+03  0.31627079504E+03  0.00000000000E+00 0. -1.
    9000007    1    1    2  502    0 -0.54775413826E+03 -0.23587443676E+03  0.22937660387E+04  0.24035461274E+04  0.40000000000E+03 0.  1.
   -9000007    1    1    2    0  501  0.54775413826E+03  0.23587443676E+03  0.23183780541E+03  0.75459930686E+03  0.40000000000E+03 0. -1.
<mgrwt>
<rscale>  2 0.71810260E+03</rscale>
<asrwt>0</asrwt>
<pdfrwt beam="1">  1        2 0.43721147E+00 0.71810260E+03</pdfrwt>
<pdfrwt beam="2">  1       -2 0.48657047E-01 0.71810260E+03</pdfrwt>
<totfact> 0.92893435E+00</totfact>
</mgrwt>
</event>
<event>
 4    1  0.2454657E-002  0.5194307E+03  0.7818608E-02  0.1008828E+00
         -2   -1    0    0    0  501 -0.00000000000E+00  0.00000000000E+00  0.23542324555E+03  0.23542324555E+03  0.00000000000E+00 0.  1.
          2   -1    0    0  502    0  0.00000000000E+00 -0.00000000000E+00 -0.12118344205E+04  0.12118344205E+04  0.00000000000E+00 0. -1.
    9000007    1    1    2  502    0  0.19573864195E+02  0.33079464540E+03 -0.31961404098E+03  0.60988635727E+03  0.40000000000E+03 0.  1.
   -9000007    1    1    2    0  501 -0.19573864195E+02 -0.33079464540E+03 -0.65679713402E+03  0.83737130882E+03  0.40000000000E+03 0. -1.
<mgrwt>
<rscale>  2 0.51943068E+03</rscale>
<asrwt>0</asrwt>
<pdfrwt beam="1">  1        2 0.18643607E+00 0.51943068E+03</pdfrwt>
<pdfrwt beam="2">  1       -2 0.36218960E-01 0.51943068E+03</pdfrwt>
<totfact> 0.13828636E+02</totfact>
</mgrwt>
</event>
<event>
 4    1  0.2454657E-002  0.5360216E+03  0.7818608E-02  0.1004782E+00
          1   -1    0    0  502    0  0.00000000000E+00  0.00000000000E+00  0.21088995507E+04  0.21088995507E+04  0.00000000000E+00 0. -1.
         -1   -1    0    0    0  501 -0.00000000000E+00 -0.00000000000E+00 -0.14037353086E+03  0.14037353086E+03  0.00000000000E+00 0.  1.
    9000007    1    1    2  502    0 -0.27845971795E+02 -0.35572991103E+03  0.79130488158E+03  0.95576282799E+03  0.40000000000E+03 0.  1.
   -9000007    1    1    2    0  501  0.27845971795E+02  0.35572991103E+03  0.11772211382E+04  0.12935102535E+04  0.40000000000E+03 0. -1.
<mgrwt>
<rscale>  2 0.53602161E+03</rscale>
<asrwt>0</asrwt>
<pdfrwt beam="1">  1        1 0.32444606E+00 0.53602161E+03</pdfrwt>
<pdfrwt beam="2">  1       -1 0.21595929E-01 0.53602161E+03</pdfrwt>
<totfact> 0.48221835E+01</totfact>
</mgrwt>
</event>
<event>
 4    1  0.2454657E-002  0.4258601E+03  0.7818608E-02  0.1035176E+00
          1   -1    0    0  502    0  0.00000000000E+00  0.00000000000E+00  0.24424808425E+03  0.24424808425E+03  0.00000000000E+00 0. -1.
         -1   -1    0    0    0  501 -0.00000000000E+00 -0.00000000000E+00 -0.77763189141E+03  0.77763189141E+03  0.00000000000E+00 0.  1.
    9000007    1    1    2  502    0 -0.14083284965E+03  0.39024361418E+02 -0.15810734221E+03  0.45426283580E+03  0.40000000000E+03 0. -1.
   -9000007    1    1    2    0  501  0.14083284965E+03 -0.39024361418E+02 -0.37527646496E+03  0.56761713987E+03  0.40000000000E+03 0.  1.
<mgrwt>
<rscale>  2 0.42586006E+03</rscale>
<asrwt>0</asrwt>
<pdfrwt beam="1">  1        1 0.37576628E-01 0.42586006E+03</pdfrwt>
<pdfrwt beam="2">  1       -1 0.11963568E+00 0.42586006E+03</pdfrwt>
<totfact> 0.74830940E+01</totfact>
</mgrwt>
</event>
<event>
 4    1  0.2454657E-002  0.6033835E+03  0.7818608E-02  0.9898411E-01
          2   -1    0    0  502    0  0.00000000000E+00  0.00000000000E+00  0.21900606972E+04  0.21900606972E+04  0.00000000000E+00 0.  1.
         -2   -1    0    0    0  501 -0.00000000000E+00 -0.00000000000E+00 -0.18554730472E+03  0.18554730472E+03  0.00000000000E+00 0. -1.
    9000007    1    1    2  502    0 -0.10665026359E+03  0.43897312324E+03  0.13854331991E+04  0.15111243598E+04  0.40000000000E+03 0.  1.
   -9000007    1    1    2    0  501  0.10665026359E+03 -0.43897312324E+03  0.61908019341E+03  0.86448364214E+03  0.40000000000E+03 0. -1.
<mgrwt>
<rscale>  2 0.60338353E+03</rscale>
<asrwt>0</asrwt>
<pdfrwt beam="1">  1        2 0.33693240E+00 0.60338353E+03</pdfrwt>
<pdfrwt beam="2">  1       -2 0.28545741E-01 0.60338353E+03</pdfrwt>
<totfact> 0.61938026E+01</totfact>
</mgrwt>
</event>
<event>
 4    1  0.2454657E-002  0.4454584E+03  0.7818608E-02  0.1029085E+00
         -1   -1    0    0    0  501 -0.00000000000E+00  0.00000000000E+00  0.32695183639E+03  0.32695183639E+03  0.00000000000E+00 0.  1.
          1   -1    0    0  502    0  0.00000000000E+00 -0.00000000000E+00 -0.60777255724E+03  0.60777255724E+03  0.00000000000E+00 0. -1.
    9000007    1    1    2  502    0  0.15047275550E+03  0.12566289825E+03 -0.12289367884E+03  0.46209963259E+03  0.40000000000E+03 0.  1.
   -9000007    1    1    2    0  501 -0.15047275550E+03 -0.12566289825E+03 -0.15792704201E+03  0.47262476103E+03  0.40000000000E+03 0.  1.
<mgrwt>
<rscale>  2 0.44545843E+03</rscale>
<asrwt>0</asrwt>
<pdfrwt beam="1">  1        1 0.93503469E-01 0.44545843E+03</pdfrwt>
<pdfrwt beam="2">  1       -1 0.50300283E-01 0.44545843E+03</pdfrwt>
<totfact> 0.13884408E+02</totfact>
</mgrwt>
</event>
<event>
 4    1  0.2454657E-002  0.4258323E+03  0.7818608E-02  0.1035185E+00
         -2   -1    0    0    0  501 -0.00000000000E+00  0.00000000000E+00  0.11803524072E+03  0.11803524072E+03  0.00000000000E+00 0. -1.
          2   -1    0    0  502    0  0.00000000000E+00 -0.00000000000E+00 -0.15483584751E+04  0.15483584751E+04  0.00000000000E+00 0.  1.
    9000007    1    1    2  502    0 -0.12740430923E+03 -0.71423350428E+02 -0.78880375289E+03  0.89640644441E+03  0.40000000000E+03 0.  1.
   -9000007    1    1    2    0  501  0.12740430923E+03  0.71423350428E+02 -0.64151948147E+03  0.76998727139E+03  0.40000000000E+03 0.  1.
<mgrwt>
<rscale>  2 0.42583231E+03</rscale>
<asrwt>0</asrwt>
<pdfrwt beam="1">  1        2 0.23820899E+00 0.42583231E+03</pdfrwt>
<pdfrwt beam="2">  1       -2 0.18159268E-01 0.42583231E+03</pdfrwt>
<totfact> 0.31398271E+02</totfact>
</mgrwt>
</event>
<event>
 4    1  0.2454657E-002  0.5071428E+03  0.7818608E-02  0.1011931E+00
         -2   -1    0    0    0  501 -0.00000000000E+00  0.00000000000E+00  0.33519261709E+03  0.33519261709E+03  0.00000000000E+00 0.  1.
          2   -1    0    0  502    0  0.00000000000E+00 -0.00000000000E+00 -0.11552936403E+04  0.11552936403E+04  0.00000000000E+00 0. -1.
    9000007    1    1    2  502    0  0.30227766679E+03 -0.76302149312E+02  0.21829634738E+02  0.50761239030E+03  0.40000000000E+03 0.  1.
   -9000007    1    1    2    0  501 -0.30227766679E+03  0.76302149312E+02 -0.84193065794E+03  0.98287386709E+03  0.40000000000E+03 0. -1.
<mgrwt>
<rscale>  2 0.50714279E+03</rscale>
<asrwt>0</asrwt>
<pdfrwt beam="1">  1        2 0.17773749E+00 0.50714279E+03</pdfrwt>
<pdfrwt beam="2">  1       -2 0.51568094E-01 0.50714279E+03</pdfrwt>
<totfact> 0.74577643E+01</totfact>
</mgrwt>
</event>
<event>
 4    1  0.2454657E-002  0.7410563E+03  0.7818608E-02  0.9649487E-01
          1   -1    0    0  502    0  0.00000000000E+00  0.00000000000E+00  0.19657519519E+04  0.19657519519E+04  0.00000000000E+00 0.  1.
         -1   -1    0    0    0  501 -0.00000000000E+00 -0.00000000000E+00 -0.28862701210E+03  0.28862701210E+03  0.00000000000E+00 0. -1.
    9000007    1    1    2  502    0 -0.61308101822E+03 -0.11530855822E+03  0.63665331450E+03  0.97698098311E+03  0.40000000000E+03 0.  1.
   -9000007    1    1    2    0  501  0.61308101822E+03  0.11530855822E+03  0.10404716253E+04  0.12773979809E+04  0.40000000000E+03 0. -1.
<mgrwt>
<rscale>  2 0.74105627E+03</rscale>
<asrwt>0</asrwt>
<pdfrwt beam="1">  1        1 0.30242337E+00 0.74105627E+03</pdfrwt>
<pdfrwt beam="2">  1       -1 0.44404157E-01 0.74105627E+03</pdfrwt>
<totfact> 0.16467912E+01</totfact>
</mgrwt>
</event>
<event>
 4    1  0.2454657E-002  0.6577892E+03  0.7818608E-02  0.9792272E-01
          2   -1    0    0  502    0  0.00000000000E+00  0.00000000000E+00  0.28021372997E+03  0.28021372997E+03  0.00000000000E+00 0. -1.
         -2   -1    0    0    0  501 -0.00000000000E+00 -0.00000000000E+00 -0.18644382659E+04  0.18644382659E+04  0.00000000000E+00 0.  1.
    9000007    1    1    2  502    0  0.38135367607E+03 -0.35672957388E+03 -0.34764841268E+03  0.74400674323E+03  0.40000000000E+03 0. -1.
   -9000007    1    1    2    0  501 -0.38135367607E+03  0.35672957388E+03 -0.12365761232E+04  0.14006452526E+04  0.40000000000E+03 0.  1.
<mgrwt>
<rscale>  2 0.65778919E+03</rscale>
<asrwt>0</asrwt>
<pdfrwt beam="1">  1        2 0.43109805E-01 0.65778919E+03</pdfrwt>
<pdfrwt beam="2">  1       -2 0.28683666E+00 0.65778919E+03</pdfrwt>
<totfact> 0.47548310E+00</totfact>
</mgrwt>
</event>
<event>
 4    1  0.2454657E-002  0.4140412E+03  0.7818608E-02  0.1039023E+00
          1   -1    0    0  502    0  0.00000000000E+00  0.00000000000E+00  0.11467523463E+04  0.11467523463E+04  0.00000000000E+00 0. -1.
         -1   -1    0    0    0  501 -0.00000000000E+00 -0.00000000000E+00 -0.20942253058E+03  0.20942253058E+03  0.00000000000E+00 0.  1.
    9000007    1    1    2  502    0  0.19150349826E+02  0.10518268993E+03  0.83140753029E+03  0.92879955619E+03  0.40000000000E+03 0. -1.
   -9000007    1    1    2    0  501 -0.19150349826E+02 -0.10518268993E+03  0.10592228539E+03  0.42737532065E+03  0.40000000000E+03 0.  1.
<mgrwt>
<rscale>  2 0.41404122E+03</rscale>
<asrwt>0</asrwt>
<pdfrwt beam="1">  1        1 0.17642343E+00 0.41404122E+03</pdfrwt>
<pdfrwt beam="2">  1       -1 0.32218852E-01 0.41404122E+03</pdfrwt>
<totfact> 0.11124335E+02</totfact>
</mgrwt>
</event>
<event>
 4    1  0.2454657E-002  0.6532976E+03  0.7818608E-02  0.9800611E-01
          1   -1    0    0  502    0  0.00000000000E+00  0.00000000000E+00  0.26468492324E+04  0.26468492324E+04  0.00000000000E+00 0.  1.
         -1   -1    0    0    0  501 -0.00000000000E+00 -0.00000000000E+00 -0.18911857295E+03  0.18911857295E+03  0.00000000000E+00 0. -1.
    9000007    1    1    2  502    0 -0.36808242999E+03  0.36237155115E+03  0.68451176772E+03  0.94623156600E+03  0.40000000000E+03 0.  1.
   -9000007    1    1    2    0  501  0.36808242999E+03 -0.36237155115E+03  0.17732188918E+04  0.18897362394E+04  0.40000000000E+03 0.  1.
<mgrwt>
<rscale>  2 0.65329765E+03</rscale>
<asrwt>0</asrwt>
<pdfrwt beam="1">  1        1 0.40720755E+00 0.65329765E+03</pdfrwt>
<pdfrwt beam="2">  1       -1 0.29095167E-01 0.65329765E+03</pdfrwt>
<totfact> 0.12345258E+01</totfact>
</mgrwt>
</event>
<event>
 4    1  0.2454657E-002  0.4881748E+03  0.7818608E-02  0.1016912E+00
         -1   -1    0    0    0  501 -0.00000000000E+00  0.00000000000E+00  0.59938024228E+03  0.59938024228E+03  0.00000000000E+00 0. -1.
          1   -1    0    0  502    0  0.00000000000E+00 -0.00000000000E+00 -0.40134815098E+03  0.40134815098E+03  0.00000000000E+00 0.  1.
    9000007    1    1    2  502    0  0.27741616961E+03 -0.36808918907E+02  0.14735900822E+03  0.50993068644E+03  0.40000000000E+03 0.  1.
   -9000007    1    1    2    0  501 -0.27741616961E+03  0.36808918907E+02  0.50673083079E+02  0.49079770682E+03  0.40000000000E+03 0.  1.
<mgrwt>
<rscale>  2 0.48817479E+03</rscale>
<asrwt>0</asrwt>
<pdfrwt beam="1">  1        1 0.61745869E-01 0.48817479E+03</pdfrwt>
<pdfrwt beam="2">  1       -1 0.92212346E-01 0.48817479E+03</pdfrwt>
<totfact> 0.71318877E+01</totfact>
</mgrwt>
</event>
<event>
 4    1  0.2454657E-002  0.4132847E+03  0.7818608E-02  0.1039274E+00
         -1   -1    0    0    0  501 -0.00000000000E+00  0.00000000000E+00  0.30926955998E+03  0.30926955998E+03  0.00000000000E+00 0. -1.
          1   -1    0    0  502    0  0.00000000000E+00 -0.00000000000E+00 -0.95344830089E+03  0.95344830089E+03  0.00000000000E+00 0.  1.
    9000007    1    1    2  502    0  0.99466969087E+02 -0.30175666176E+02 -0.73162298955E+03  0.84028355190E+03  0.40000000000E+03 0.  1.
   -9000007    1    1    2    0  501 -0.99466969087E+02  0.30175666176E+02  0.87444248633E+02  0.42243430896E+03  0.40000000000E+03 0. -1.
<mgrwt>
<rscale>  2 0.41328471E+03</rscale>
<asrwt>0</asrwt>
<pdfrwt beam="1">  1        1 0.14668435E+00 0.41328471E+03</pdfrwt>
<pdfrwt beam="2">  1       -1 0.47579933E-01 0.41328471E+03</pdfrwt>
<totfact> 0.77113501E+01</totfact>
</mgrwt>
</event>
<event>
 4    1  0.2454657E-002  0.4045222E+03  0.7818608E-02  0.1042225E+00
         -2   -1    0    0    0  501 -0.00000000000E+00  0.00000000000E+00  0.15028884977E+03  0.15028884977E+03  0.00000000000E+00 0. -1.
          2   -1    0    0  502    0  0.00000000000E+00 -0.00000000000E+00 -0.13232380621E+04  0.13232380621E+04  0.00000000000E+00 0.  1.
    9000007    1    1    2  502    0  0.59673658420E+02 -0.87910551337E+01 -0.27637574957E+03  0.48992018034E+03  0.40000000000E+03 0.  1.
   -9000007    1    1    2    0  501 -0.59673658420E+02  0.87910551337E+01 -0.89657346273E+03  0.98360673149E+03  0.40000000000E+03 0.  1.
<mgrwt>
<rscale>  2 0.40452222E+03</rscale>
<asrwt>0</asrwt>
<pdfrwt beam="1">  1        2 0.20357508E+00 0.40452222E+03</pdfrwt>
<pdfrwt beam="2">  1       -2 0.23121362E-01 0.40452222E+03</pdfrwt>
<totfact> 0.27520427E+02</totfact>
</mgrwt>
</event>
<event>
 4    1  0.2454657E-002  0.8450371E+03  0.7818608E-02  0.9497022E-01
          1   -1    0    0  502    0  0.00000000000E+00  0.00000000000E+00  0.13376583070E+04  0.13376583070E+04  0.00000000000E+00 0. -1.
         -1   -1    0    0    0  501 -0.00000000000E+00 -0.00000000000E+00 -0.55275881748E+03  0.55275881748E+03  0.00000000000E+00 0.  1.
    9000007    1    1    2  502    0  0.47666525462E+03 -0.57173239517E+03  0.56734331307E+03  0.10178242145E+04  0.40000000000E+03 0. -1.
   -9000007    1    1    2    0  501 -0.47666525462E+03  0.57173239517E+03  0.21755617640E+03  0.87259290997E+03  0.40000000000E+03 0.  1.
<mgrwt>
<rscale>  2 0.84503710E+03</rscale>
<asrwt>0</asrwt>
<pdfrwt beam="1">  1        1 0.20579358E+00 0.84503710E+03</pdfrwt>
<pdfrwt beam="2">  1       -1 0.85039819E-01 0.84503710E+03</pdfrwt>
<totfact> 0.11890251E+01</totfact>
</mgrwt>
</event>
<event>
 4    1  0.2454657E-002  0.4676714E+03  0.7818608E-02  0.1022580E+00
          1   -1    0    0  502    0  0.00000000000E+00  0.00000000000E+00  0.12498919263E+04  0.12498919263E+04  0.00000000000E+00 0. -1.
         -1   -1    0    0    0  501 -0.00000000000E+00 -0.00000000000E+00 -0.18243118610E+03  0.18243118610E+03  0.00000000000E+00 0.  1.
    9000007    1    1    2  502    0 -0.23246777919E+03  0.68375752814E+02  0.67838455948E+03  0.82396730668E+03  0.40000000000E+03 0. -1.
   -9000007    1    1    2    0  501  0.23246777919E+03 -0.68375752814E+02  0.38907618068E+03  0.60835580568E+03  0.40000000000E+03 0.  1.
<mgrwt>
<rscale>  2 0.46767137E+03</rscale>
<asrwt>0</asrwt>
<pdfrwt beam="1">  1        1 0.19229106E+00 0.46767137E+03</pdfrwt>
<pdfrwt beam="2">  1       -1 0.28066337E-01 0.46767137E+03</pdfrwt>
<totfact> 0.11828090E+02</totfact>
</mgrwt>
</event>
<event>
 4    1  0.2454657E-002  0.4370099E+03  0.7818608E-02  0.1031668E+00
          2   -1    0    0  502    0  0.00000000000E+00  0.00000000000E+00  0.71872146216E+03  0.71872146216E+03  0.00000000000E+00 0.  1.
         -2   -1    0    0    0  501 -0.00000000000E+00 -0.00000000000E+00 -0.33506716056E+03  0.33506716056E+03  0.00000000000E+00 0. -1.
    9000007    1    1    2  502    0  0.13847851844E+03  0.10863391194E+03 -0.47877494220E+02  0.43962470511E+03  0.40000000000E+03 0. -1.
   -9000007    1    1    2    0  501 -0.13847851844E+03 -0.10863391194E+03  0.43153179582E+03  0.61416391761E+03  0.40000000000E+03 0.  1.
<mgrwt>
<rscale>  2 0.43700987E+03</rscale>
<asrwt>0</asrwt>
<pdfrwt beam="1">  1        2 0.11057253E+00 0.43700987E+03</pdfrwt>
<pdfrwt beam="2">  1       -2 0.51548794E-01 0.43700987E+03</pdfrwt>
<totfact> 0.14555135E+02</totfact>
</mgrwt>
</event>
<event>
 4    1  0.2454657E-002  0.4050217E+03  0.7818608E-02  0.1042055E+00
          2   -1    0    0  502    0  0.00000000000E+00  0.00000000000E+00  0.31123350036E+03  0.31123350036E+03  0.00000000000E+00 0. -1.
         -2   -1    0    0    0  501 -0.00000000000E+00 -0.00000000000E+00 -0.59523142074E+03  0.59523142074E+03  0.00000000000E+00 0.  1.
    9000007    1    1    2  502    0 -0.22804545684E+02 -0.59351059044E+02 -0.29536869845E+03  0.50128361587E+03  0.40000000000E+03 0.  1.
   -9000007    1    1    2    0  501  0.22804545684E+02  0.59351059044E+02  0.11370778072E+02  0.40518130523E+03  0.40000000000E+03 0. -1.
<mgrwt>
<rscale>  2 0.40502172E+03</rscale>
<asrwt>0</asrwt>
<pdfrwt beam="1">  1        2 0.47882077E-01 0.40502172E+03</pdfrwt>
<pdfrwt beam="2">  1       -2 0.91574065E-01 0.40502172E+03</pdfrwt>
<totfact> 0.11011023E+02</totfact>
</mgrwt>
</event>
<event>
 4    1  0.2454657E-002  0.4350502E+03  0.7818608E-02  0.1032276E+00
          1   -1    0    0  502    0  0.00000000000E+00  0.00000000000E+00  0.13268607455E+04  0.13268607455E+04  0.00000000000E+00 0.  1.
         -1   -1    0    0    0  501 -0.00000000000E+00 -0.00000000000E+00 -0.14338031006E+03  0.14338031006E+03  0.00000000000E+00 0. -1.
    9000007    1    1    2  502    0  0.69844933072E+02 -0.15617405707E+03  0.64442200213E+03  0.77752708480E+03  0.40000000000E+03 0.  1.
   -9000007    1    1    2    0  501 -0.69844933072E+02  0.15617405707E+03  0.53905843335E+03  0.69271397080E+03  0.40000000000E+03 0.  1.
<mgrwt>
<rscale>  2 0.43505017E+03</rscale>
<asrwt>0</asrwt>
<pdfrwt beam="1">  1        1 0.20413241E+00 0.43505017E+03</pdfrwt>
<pdfrwt beam="2">  1       -1 0.22058510E-01 0.43505017E+03</pdfrwt>
<totfact> 0.15762004E+02</totfact>
</mgrwt>
</event>
<event>
 4    1  0.2454657E-002  0.4914300E+03  0.7818608E-02  0.1016040E+00
         -1   -1    0    0    0  501 -0.00000000000E+00  0.00000000000E+00  0.11295372284E+03  0.11295372284E+03  0.00000000000E+00 0.  1.
          1   -1    0    0  502    0  0.00000000000E+00 -0.00000000000E+00 -0.21391767241E+04  0.21391767241E+04  0.00000000000E+00 0. -1.
    9000007    1    1    2  502    0  0.26455616437E+03 -0.10730069418E+03 -0.10386796721E+04  0.11490686943E+04  0.40000000000E+03 0. -1.
   -9000007    1    1    2    0  501 -0.26455616437E+03  0.10730069418E+03 -0.98754332914E+03  0.11030617526E+04  0.40000000000E+03 0.  1.
<mgrwt>
<rscale>  2 0.49142996E+03</rscale>
<asrwt>0</asrwt>
<pdfrwt beam="1">  1        1 0.32910411E+00 0.49142996E+03</pdfrwt>
<pdfrwt beam="2">  1       -1 0.17377496E-01 0.49142996E+03</pdfrwt>
<totfact> 0.66403870E+01</totfact>
</mgrwt>
</event>
<event>
 4    1  0.2454657E-002  0.4901094E+03  0.7818608E-02  0.1016393E+00
          2   -1    0    0  502    0  0.00000000000E+00  0.00000000000E+00  0.15800480978E+04  0.15800480978E+04  0.00000000000E+00 0. -1.
         -2   -1    0    0    0  501 -0.00000000000E+00 -0.00000000000E+00 -0.15262288469E+03  0.15262288469E+03  0.00000000000E+00 0.  1.
    9000007    1    1    2  502    0  0.26727054714E+03 -0.93668026694E+02  0.76792337316E+03  0.91099591198E+03  0.40000000000E+03 0.  1.
   -9000007    1    1    2    0  501 -0.26727054714E+03  0.93668026694E+02  0.65950183991E+03  0.82167507047E+03  0.40000000000E+03 0. -1.
<mgrwt>
<rscale>  2 0.49010942E+03</rscale>
<asrwt>0</asrwt>
<pdfrwt beam="1">  1        2 0.24308431E+00 0.49010942E+03</pdfrwt>
<pdfrwt beam="2">  1       -2 0.23480445E-01 0.49010942E+03</pdfrwt>
<totfact> 0.19138946E+02</totfact>
</mgrwt>
</event>
<event>
 4    1  0.2454657E-002  0.4065874E+03  0.7818608E-02  0.1041522E+00
          2   -1    0    0  502    0  0.00000000000E+00  0.00000000000E+00  0.31240811922E+04  0.31240811922E+04  0.00000000000E+00 0.  1.
         -2   -1    0    0    0  501 -0.00000000000E+00 -0.00000000000E+00 -0.70485450274E+02  0.70485450274E+02  0.00000000000E+00 0. -1.
    9000007    1    1    2  502    0  0.71805801274E+02 -0.12539876093E+02  0.72932941258E+03  0.83500581653E+03  0.40000000000E+03 0. -1.
   -9000007    1    1    2    0  501 -0.71805801274E+02  0.12539876093E+02  0.23242663294E+04  0.23595608260E+04  0.40000000000E+03 0.  1.
<mgrwt>
<rscale>  2 0.40658741E+03</rscale>
<asrwt>0</asrwt>
<pdfrwt beam="1">  1        2 0.48062777E+00 0.40658741E+03</pdfrwt>
<pdfrwt beam="2">  1       -2 0.10843918E-01 0.40658741E+03</pdfrwt>
<totfact> 0.98407289E+01</totfact>
</mgrwt>
</event>
<event>
 4    1  0.2454657E-002  0.4846267E+03  0.7818608E-02  0.1017871E+00
         -2   -1    0    0    0  501 -0.00000000000E+00  0.00000000000E+00  0.30202921560E+03  0.30202921560E+03  0.00000000000E+00 0. -1.
          2   -1    0    0  502    0  0.00000000000E+00 -0.00000000000E+00 -0.10028080955E+04  0.10028080955E+04  0.00000000000E+00 0.  1.
    9000007    1    1    2  502    0  0.13024676166E+02  0.27330083807E+03 -0.41222348025E+02  0.48637667734E+03  0.40000000000E+03 0. -1.
   -9000007    1    1    2    0  501 -0.13024676166E+02 -0.27330083807E+03 -0.65955653185E+03  0.81846063374E+03  0.40000000000E+03 0.  1.
<mgrwt>
<rscale>  2 0.48462665E+03</rscale>
<asrwt>0</asrwt>
<pdfrwt beam="1">  1        2 0.15427817E+00 0.48462665E+03</pdfrwt>
<pdfrwt beam="2">  1       -2 0.46466033E-01 0.48462665E+03</pdfrwt>
<totfact> 0.11420585E+02</totfact>
</mgrwt>
</event>
<event>
 4    1  0.2454657E-002  0.5469821E+03  0.7818608E-02  0.1002195E+00
         -2   -1    0    0    0  501 -0.00000000000E+00  0.00000000000E+00  0.31148078747E+03  0.31148078747E+03  0.00000000000E+00 0.  1.
          2   -1    0    0  502    0  0.00000000000E+00 -0.00000000000E+00 -0.14118909823E+04  0.14118909823E+04  0.00000000000E+00 0. -1.
    9000007    1    1    2  502    0  0.24410875262E+03  0.28213532920E+03 -0.10374037742E+04  0.11727727904E+04  0.40000000000E+03 0.  1.
   -9000007    1    1    2    0  501 -0.24410875262E+03 -0.28213532920E+03 -0.63006420627E+02  0.55059897941E+03  0.40000000000E+03 0.  1.
<mgrwt>
<rscale>  2 0.54698211E+03</rscale>
<asrwt>0</asrwt>
<pdfrwt beam="1">  1        2 0.21721400E+00 0.54698211E+03</pdfrwt>
<pdfrwt beam="2">  1       -2 0.47920122E-01 0.54698211E+03</pdfrwt>
<totfact> 0.61348409E+01</totfact>
</mgrwt>
</event>
<event>
 4    1  0.2454657E-002  0.4497377E+03  0.7818608E-02  0.1027800E+00
          1   -1    0    0  502    0  0.00000000000E+00  0.00000000000E+00  0.26036106934E+04  0.26036106934E+04  0.00000000000E+00 0.  1.
         -1   -1    0    0    0  501 -0.00000000000E+00 -0.00000000000E+00 -0.80407676459E+02  0.80407676459E+02  0.00000000000E+00 0. -1.
    9000007    1    1    2  502    0  0.50677979324E+01  0.20551954197E+03  0.10146969340E+04  0.11098981181E+04  0.40000000000E+03 0. -1.
   -9000007    1    1    2    0  501 -0.50677979324E+01 -0.20551954197E+03  0.15085060829E+04  0.15741202517E+04  0.40000000000E+03 0. -1.
<mgrwt>
<rscale>  2 0.44973766E+03</rscale>
<asrwt>0</asrwt>
<pdfrwt beam="1">  1        1 0.40055543E+00 0.44973766E+03</pdfrwt>
<pdfrwt beam="2">  1       -1 0.12370414E-01 0.44973766E+03</pdfrwt>
<totfact> 0.56513130E+01</totfact>
</mgrwt>
</event>
<event>
 4    1  0.2454657E-002  0.4179752E+03  0.7818608E-02  0.1037727E+00
          1   -1    0    0  502    0  0.00000000000E+00  0.00000000000E+00  0.77915088984E+03  0.77915088984E+03  0.00000000000E+00 0. -1.
         -1   -1    0    0    0  501 -0.00000000000E+00 -0.00000000000E+00 -0.24742215901E+03  0.24742215901E+03  0.00000000000E+00 0.  1.
    9000007    1    1    2  502    0  0.77743620652E+02  0.93054800449E+02  0.10869058704E+03  0.43187603563E+03  0.40000000000E+03 0.  1.
   -9000007    1    1    2    0  501 -0.77743620652E+02 -0.93054800449E+02  0.42303814379E+03  0.59469701323E+03  0.40000000000E+03 0. -1.
<mgrwt>
<rscale>  2 0.41797520E+03</rscale>
<asrwt>0</asrwt>
<pdfrwt beam="1">  1        1 0.11986937E+00 0.41797520E+03</pdfrwt>
<pdfrwt beam="2">  1       -1 0.38064948E-01 0.41797520E+03</pdfrwt>
<totfact> 0.16047265E+02</totfact>
</mgrwt>
</event>
<event>
 4    1  0.2454657E-002  0.4946287E+03  0.7818608E-02  0.1015190E+00
          1   -1    0    0  502    0  0.00000000000E+00  0.00000000000E+00  0.74640510737E+03  0.74640510737E+03  0.00000000000E+00 0.  1.
         -1   -1    0    0    0  501 -0.00000000000E+00 -0.00000000000E+00 -0.32814940219E+03  0.32814940219E+03  0.00000000000E+00 0. -1.
    9000007    1    1    2  502    0 -0.26077343350E+03 -0.12905321592E+03  0.22712658324E+03  0.54428301551E+03  0.40000000000E+03 0. -1.
   -9000007    1    1    2    0  501  0.26077343350E+03  0.12905321592E+03  0.19112912193E+03  0.53027149406E+03  0.40000000000E+03 0. -1.
<mgrwt>
<rscale>  2 0.49462866E+03</rscale>
<asrwt>0</asrwt>
<pdfrwt beam="1">  1        1 0.11483155E+00 0.49462866E+03</pdfrwt>
<pdfrwt beam="2">  1       -1 0.50484524E-01 0.49462866E+03</pdfrwt>
<totfact> 0.10134918E+02</totfact>
</mgrwt>
</event>
<event>
 4    1  0.2454657E-002  0.7216973E+03  0.7818608E-02  0.9680830E-01
          1   -1    0    0  502    0  0.00000000000E+00  0.00000000000E+00  0.90358580570E+03  0.90358580570E+03  0.00000000000E+00 0.  1.
         -1   -1    0    0    0  501 -0.00000000000E+00 -0.00000000000E+00 -0.67582184053E+03  0.67582184053E+03  0.00000000000E+00 0. -1.
    9000007    1    1    2  502    0 -0.36991004564E+03 -0.47330066671E+03 -0.18897697788E+03  0.74602899484E+03  0.40000000000E+03 0. -1.
   -9000007    1    1    2    0  501  0.36991004564E+03  0.47330066671E+03  0.41674094305E+03  0.83337865139E+03  0.40000000000E+03 0.  1.
<mgrwt>
<rscale>  2 0.72169728E+03</rscale>
<asrwt>0</asrwt>
<pdfrwt beam="1">  1        1 0.13901320E+00 0.72169728E+03</pdfrwt>
<pdfrwt beam="2">  1       -1 0.10397259E+00 0.72169728E+03</pdfrwt>
<totfact> 0.16263412E+01</totfact>
</mgrwt>
</event>
<event>
 4    1  0.2454657E-002  0.4751908E+03  0.7818608E-02  0.1020465E+00
         -2   -1    0    0    0  501 -0.00000000000E+00  0.00000000000E+00  0.24601854046E+03  0.24601854046E+03  0.00000000000E+00 0.  1.
          2   -1    0    0  502    0  0.00000000000E+00 -0.00000000000E+00 -0.12290068604E+04  0.12290068604E+04  0.00000000000E+00 0. -1.
    9000007    1    1    2  502    0  0.15371734360E+03  0.20537112258E+03 -0.12039741961E+03  0.49020593464E+03  0.40000000000E+03 0.  1.
   -9000007    1    1    2    0  501 -0.15371734360E+03 -0.20537112258E+03 -0.86259090030E+03  0.98481946619E+03  0.40000000000E+03 0. -1.
<mgrwt>
<rscale>  2 0.47519082E+03</rscale>
<asrwt>0</asrwt>
<pdfrwt beam="1">  1        2 0.18907798E+00 0.47519082E+03</pdfrwt>
<pdfrwt beam="2">  1       -2 0.37849007E-01 0.47519082E+03</pdfrwt>
<totfact> 0.12487514E+02</totfact>
</mgrwt>
</event>
<event>
 4    1  0.2454657E-002  0.4109786E+03  0.7818608E-02  0.1040043E+00
         -2   -1    0    0    0  501 -0.00000000000E+00  0.00000000000E+00  0.42619391082E+03  0.42619391082E+03  0.00000000000E+00 0. -1.
          2   -1    0    0  502    0  0.00000000000E+00 -0.00000000000E+00 -0.40079088315E+03  0.40079088315E+03  0.00000000000E+00 0.  1.
    9000007    1    1    2  502    0  0.28579104614E+02  0.89925690852E+02 -0.31036843627E+02  0.41214885752E+03  0.40000000000E+03 0.  1.
   -9000007    1    1    2    0  501 -0.28579104614E+02 -0.89925690852E+02  0.56439871296E+02  0.41483593645E+03  0.40000000000E+03 0. -1.
<mgrwt>
<rscale>  2 0.41097858E+03</rscale>
<asrwt>0</asrwt>
<pdfrwt beam="1">  1        2 0.61660136E-01 0.41097858E+03</pdfrwt>
<pdfrwt beam="2">  1       -2 0.65568294E-01 0.41097858E+03</pdfrwt>
<totfact> 0.17451272E+02</totfact>
</mgrwt>
</event>
<event>
 4    1  0.2454657E-002  0.4017232E+03  0.7818608E-02  0.1043185E+00
         -2   -1    0    0    0  501 -0.00000000000E+00  0.00000000000E+00  0.14595144787E+04  0.14595144787E+04  0.00000000000E+00 0. -1.
          2   -1    0    0  502    0  0.00000000000E+00 -0.00000000000E+00 -0.14322424547E+03  0.14322424547E+03  0.00000000000E+00 0.  1.
    9000007    1    1    2  502    0 -0.20428372404E+02 -0.31052166566E+02  0.10407763699E+04  0.11156150804E+04  0.40000000000E+03 0. -1.
   -9000007    1    1    2    0  501  0.20428372404E+02  0.31052166566E+02  0.27551386336E+03  0.48712364380E+03  0.40000000000E+03 0.  1.
<mgrwt>
<rscale>  2 0.40172323E+03</rscale>
<asrwt>0</asrwt>
<pdfrwt beam="1">  1        2 0.22034500E-01 0.40172323E+03</pdfrwt>
<pdfrwt beam="2">  1       -2 0.22454068E+00 0.40172323E+03</pdfrwt>
<totfact> 0.24819656E+01</totfact>
</mgrwt>
</event>
<event>
 4    1  0.2454657E-002  0.4176010E+03  0.7818608E-02  0.1037850E+00
          4   -1    0    0  502    0  0.00000000000E+00  0.00000000000E+00  0.11405623713E+03  0.11405623713E+03  0.00000000000E+00 0.  1.
         -4   -1    0    0    0  501 -0.00000000000E+00 -0.00000000000E+00 -0.15822685714E+04  0.15822685714E+04  0.00000000000E+00 0. -1.
    9000007    1    1    2  502    0  0.40647863863E+02 -0.11286413029E+03 -0.88974766294E+03  0.98287408372E+03  0.40000000000E+03 0. -1.
   -9000007    1    1    2    0  501 -0.40647863863E+02  0.11286413029E+03 -0.57846467129E+03  0.71345072477E+03  0.40000000000E+03 0.  1.
<mgrwt>
<rscale>  2 0.41760096E+03</rscale>
<asrwt>0</asrwt>
<pdfrwt beam="1">  1        4 0.17547113E-01 0.41760096E+03</pdfrwt>
<pdfrwt beam="2">  1       -4 0.24342594E+00 0.41760096E+03</pdfrwt>
<totfact> 0.40971589E+00</totfact>
</mgrwt>
</event>
<event>
 4    1  0.2454657E-002  0.4577397E+03  0.7818608E-02  0.1025439E+00
         -1   -1    0    0    0  501 -0.00000000000E+00  0.00000000000E+00  0.22865098258E+03  0.22865098258E+03  0.00000000000E+00 0. -1.
          1   -1    0    0  502    0  0.00000000000E+00 -0.00000000000E+00 -0.13203719896E+04  0.13203719896E+04  0.00000000000E+00 0.  1.
    9000007    1    1    2  502    0  0.12182433795E+03  0.18623765425E+03 -0.11743122280E+03  0.47256293260E+03  0.40000000000E+03 0. -1.
   -9000007    1    1    2    0  501 -0.12182433795E+03 -0.18623765425E+03 -0.97428978427E+03  0.10764600396E+04  0.40000000000E+03 0.  1.
<mgrwt>
<rscale>  2 0.45773970E+03</rscale>
<asrwt>0</asrwt>
<pdfrwt beam="1">  1        1 0.20313415E+00 0.45773970E+03</pdfrwt>
<pdfrwt beam="2">  1       -1 0.35177075E-01 0.45773970E+03</pdfrwt>
<totfact> 0.71411982E+01</totfact>
</mgrwt>
</event>
<event>
 4    1  0.2454657E-002  0.4473063E+03  0.7818608E-02  0.1028528E+00
          2   -1    0    0  502    0  0.00000000000E+00  0.00000000000E+00  0.10456923933E+04  0.10456923933E+04  0.00000000000E+00 0.  1.
         -2   -1    0    0    0  501 -0.00000000000E+00 -0.00000000000E+00 -0.23950440624E+03  0.23950440624E+03  0.00000000000E+00 0. -1.
    9000007    1    1    2  502    0  0.93467725601E+02 -0.17704989794E+03  0.11492611982E+03  0.46183427234E+03  0.40000000000E+03 0. -1.
   -9000007    1    1    2    0  501 -0.93467725601E+02  0.17704989794E+03  0.69126186720E+03  0.82336252716E+03  0.40000000000E+03 0.  1.
<mgrwt>
<rscale>  2 0.44730625E+03</rscale>
<asrwt>0</asrwt>
<pdfrwt beam="1">  1        2 0.16087575E+00 0.44730625E+03</pdfrwt>
<pdfrwt beam="2">  1       -2 0.36846832E-01 0.44730625E+03</pdfrwt>
<totfact> 0.16945641E+02</totfact>
</mgrwt>
</event>
<event>
 4    1  0.2454657E-002  0.4712601E+03  0.7818608E-02  0.1021565E+00
          2   -1    0    0  502    0  0.00000000000E+00  0.00000000000E+00  0.16168412554E+04  0.16168412554E+04  0.00000000000E+00 0. -1.
         -2   -1    0    0    0  501 -0.00000000000E+00 -0.00000000000E+00 -0.14176801881E+03  0.14176801881E+03  0.00000000000E+00 0.  1.
    9000007    1    1    2  502    0 -0.12251019552E+03  0.21697322095E+03  0.89262135792E+03  0.10093854641E+04  0.40000000000E+03 0. -1.
   -9000007    1    1    2    0  501  0.12251019552E+03 -0.21697322095E+03  0.58245187869E+03  0.74922381009E+03  0.40000000000E+03 0.  1.
<mgrwt>
<rscale>  2 0.47126015E+03</rscale>
<asrwt>0</asrwt>
<pdfrwt beam="1">  1        2 0.24874480E+00 0.47126015E+03</pdfrwt>
<pdfrwt beam="2">  1       -2 0.21810466E-01 0.47126015E+03</pdfrwt>
<totfact> 0.20869820E+02</totfact>
</mgrwt>
</event>
<event>
 4    1  0.2454657E-002  0.4437007E+03  0.7818608E-02  0.1029617E+00
          4   -1    0    0  502    0  0.00000000000E+00  0.00000000000E+00  0.56037593935E+03  0.56037593935E+03  0.00000000000E+00 0.  1.
         -4   -1    0    0    0  501 -0.00000000000E+00 -0.00000000000E+00 -0.35640250693E+03  0.35640250693E+03  0.00000000000E+00 0. -1.
    9000007    1    1    2  502    0 -0.15879225712E+02 -0.19135879962E+03  0.15673547642E+03  0.47057023872E+03  0.40000000000E+03 0.  1.
   -9000007    1    1    2    0  501  0.15879225712E+02  0.19135879962E+03  0.47237956002E+02  0.44620820755E+03  0.40000000000E+03 0.  1.
<mgrwt>
<rscale>  2 0.44370073E+03</rscale>
<asrwt>0</asrwt>
<pdfrwt beam="1">  1        4 0.86211683E-01 0.44370073E+03</pdfrwt>
<pdfrwt beam="2">  1       -4 0.54831155E-01 0.44370073E+03</pdfrwt>
<totfact> 0.71893308E+00</totfact>
</mgrwt>
</event>
<event>
 4    1  0.2454657E-002  0.4206828E+03  0.7818608E-02  0.1036844E+00
         -2   -1    0    0    0  501 -0.00000000000E+00  0.00000000000E+00  0.12065939011E+03  0.12065939011E+03  0.00000000000E+00 0. -1.
          2   -1    0    0  502    0  0.00000000000E+00 -0.00000000000E+00 -0.17307652019E+04  0.17307652019E+04  0.00000000000E+00 0.  1.
    9000007    1    1    2  502    0 -0.69158050184E+02  0.11041361532E+03 -0.11666233713E+04  0.12401548665E+04  0.40000000000E+03 0.  1.
   -9000007    1    1    2    0  501  0.69158050184E+02 -0.11041361532E+03 -0.44348244054E+03  0.61126972559E+03  0.40000000000E+03 0. -1.
<mgrwt>
<rscale>  2 0.42068278E+03</rscale>
<asrwt>0</asrwt>
<pdfrwt beam="1">  1        2 0.26627154E+00 0.42068278E+03</pdfrwt>
<pdfrwt beam="2">  1       -2 0.18562985E-01 0.42068278E+03</pdfrwt>
<totfact> 0.24130658E+02</totfact>
</mgrwt>
</event>
<event>
 4    1  0.2454657E-002  0.4170605E+03  0.7818608E-02  0.1038027E+00
          2   -1    0    0  502    0  0.00000000000E+00  0.00000000000E+00  0.63081446585E+03  0.63081446585E+03  0.00000000000E+00 0. -1.
         -2   -1    0    0    0  501 -0.00000000000E+00 -0.00000000000E+00 -0.35587647626E+03  0.35587647626E+03  0.00000000000E+00 0.  1.
    9000007    1    1    2  502    0 -0.11741197443E+03 -0.12405504531E+02 -0.96642244399E+02  0.42811119080E+03  0.40000000000E+03 0.  1.
   -9000007    1    1    2    0  501  0.11741197443E+03  0.12405504531E+02  0.37158023400E+03  0.55857975131E+03  0.40000000000E+03 0. -1.
<mgrwt>
<rscale>  2 0.41706051E+03</rscale>
<asrwt>0</asrwt>
<pdfrwt beam="1">  1        2 0.97048380E-01 0.41706051E+03</pdfrwt>
<pdfrwt beam="2">  1       -2 0.54750227E-01 0.41706051E+03</pdfrwt>
<totfact> 0.15127054E+02</totfact>
</mgrwt>
</event>
<event>
 4    1  0.2454657E-002  0.4126521E+03  0.7818608E-02  0.1039485E+00
          1   -1    0    0  502    0  0.00000000000E+00  0.00000000000E+00  0.11674143984E+03  0.11674143984E+03  0.00000000000E+00 0. -1.
         -1   -1    0    0    0  501 -0.00000000000E+00 -0.00000000000E+00 -0.26754903731E+04  0.26754903731E+04  0.00000000000E+00 0.  1.
    9000007    1    1    2  502    0 -0.61115392540E+02  0.80911230056E+02 -0.22209202645E+04  0.22589308400E+04  0.40000000000E+03 0.  1.
   -9000007    1    1    2    0  501  0.61115392540E+02 -0.80911230056E+02 -0.33782866870E+03  0.53330097295E+03  0.40000000000E+03 0. -1.
<mgrwt>
<rscale>  2 0.41265205E+03</rscale>
<asrwt>0</asrwt>
<pdfrwt beam="1">  1        1 0.17960224E-01 0.41265205E+03</pdfrwt>
<pdfrwt beam="2">  1       -1 0.41161385E+00 0.41265205E+03</pdfrwt>
<totfact> 0.20587795E+00</totfact>
</mgrwt>
</event>
<event>
 4    1  0.2454657E-002  0.5678039E+03  0.7818608E-02  0.9974550E-01
          1   -1    0    0  502    0  0.00000000000E+00  0.00000000000E+00  0.12212236710E+04  0.12212236710E+04  0.00000000000E+00 0.  1.
         -1   -1    0    0    0  501 -0.00000000000E+00 -0.00000000000E+00 -0.26695665898E+03  0.26695665898E+03  0.00000000000E+00 0. -1.
    9000007    1    1    2  502    0 -0.19422524476E+03  0.35309739371E+03  0.39880568037E+03  0.69386395341E+03  0.40000000000E+03 0. -1.
   -9000007    1    1    2    0  501  0.19422524476E+03 -0.35309739371E+03  0.55546133166E+03  0.79431637658E+03  0.40000000000E+03 0. -1.
<mgrwt>
<rscale>  2 0.56780385E+03</rscale>
<asrwt>0</asrwt>
<pdfrwt beam="1">  1        1 0.18788056E+00 0.56780385E+03</pdfrwt>
<pdfrwt beam="2">  1       -1 0.41070256E-01 0.56780385E+03</pdfrwt>
<totfact> 0.62544133E+01</totfact>
</mgrwt>
</event>
<event>
 4    1  0.2454657E-002  0.4187200E+03  0.7818608E-02  0.1037484E+00
         -1   -1    0    0    0  501 -0.00000000000E+00  0.00000000000E+00  0.14183620435E+03  0.14183620435E+03  0.00000000000E+00 0.  1.
          1   -1    0    0  502    0  0.00000000000E+00 -0.00000000000E+00 -0.12543734744E+04  0.12543734744E+04  0.00000000000E+00 0. -1.
    9000007    1    1    2  502    0  0.38241611305E+02  0.11774564739E+03 -0.64048359854E+03  0.76520957804E+03  0.40000000000E+03 0. -1.
   -9000007    1    1    2    0  501 -0.38241611305E+02 -0.11774564739E+03 -0.47205367149E+03  0.63100010070E+03  0.40000000000E+03 0. -1.
<mgrwt>
<rscale>  2 0.41872002E+03</rscale>
<asrwt>0</asrwt>
<pdfrwt beam="1">  1        1 0.19298054E+00 0.41872002E+03</pdfrwt>
<pdfrwt beam="2">  1       -1 0.21820954E-01 0.41872002E+03</pdfrwt>
<totfact> 0.18065759E+02</totfact>
</mgrwt>
</event>
<event>
 4    1  0.2454657E-002  0.4398095E+03  0.7818608E-02  0.1030805E+00
          1   -1    0    0  502    0  0.00000000000E+00  0.00000000000E+00  0.25559034854E+04  0.25559034854E+04  0.00000000000E+00 0. -1.
         -1   -1    0    0    0  501 -0.00000000000E+00 -0.00000000000E+00 -0.77085021133E+02  0.77085021133E+02  0.00000000000E+00 0.  1.
    9000007    1    1    2  502    0  0.12584168916E+03 -0.13265099093E+03  0.10617138317E+04  0.11492034965E+04  0.40000000000E+03 0.  1.
   -9000007    1    1    2    0  501 -0.12584168916E+03  0.13265099093E+03  0.14171046327E+04  0.14837850100E+04  0.40000000000E+03 0. -1.
<mgrwt>
<rscale>  2 0.43980952E+03</rscale>
<asrwt>0</asrwt>
<pdfrwt beam="1">  1        1 0.39321586E+00 0.43980952E+03</pdfrwt>
<pdfrwt beam="2">  1       -1 0.11859236E-01 0.43980952E+03</pdfrwt>
<totfact> 0.65232834E+01</totfact>
</mgrwt>
</event>
<event>
 4    1  0.2454657E-002  0.6921899E+03  0.7818608E-02  0.9730683E-01
         -2   -1    0    0    0  501 -0.00000000000E+00  0.00000000000E+00  0.25140742610E+03  0.25140742610E+03  0.00000000000E+00 0. -1.
          2   -1    0    0  502    0  0.00000000000E+00 -0.00000000000E+00 -0.19736913824E+04  0.19736913824E+04  0.00000000000E+00 0.  1.
    9000007    1    1    2  502    0  0.15927038205E+03  0.54199610353E+03 -0.65476738509E+03  0.95281013818E+03  0.40000000000E+03 0.  1.
   -9000007    1    1    2    0  501 -0.15927038205E+03 -0.54199610353E+03 -0.10675165712E+04  0.12722886703E+04  0.40000000000E+03 0.  1.
<mgrwt>
<rscale>  2 0.69218988E+03</rscale>
<asrwt>0</asrwt>
<pdfrwt beam="1">  1        2 0.30364483E+00 0.69218988E+03</pdfrwt>
<pdfrwt beam="2">  1       -2 0.38678065E-01 0.69218988E+03</pdfrwt>
<totfact> 0.45282925E+01</totfact>
</mgrwt>
</event>
<event>
 4    1  0.2454657E-002  0.5006412E+03  0.7818608E-02  0.1013612E+00
          1   -1    0    0  502    0  0.00000000000E+00  0.00000000000E+00  0.14265428237E+04  0.14265428237E+04  0.00000000000E+00 0. -1.
         -1   -1    0    0    0  501 -0.00000000000E+00 -0.00000000000E+00 -0.54004728035E+03  0.54004728035E+03  0.00000000000E+00 0.  1.
    9000007    1    1    2  502    0 -0.12401696865E+03  0.27433811481E+03  0.12509040043E+04  0.13473687089E+04  0.40000000000E+03 0. -1.
   -9000007    1    1    2    0  501  0.12401696865E+03 -0.27433811481E+03 -0.36440846097E+03  0.61922139512E+03  0.40000000000E+03 0.  1.
<mgrwt>
<rscale>  2 0.50064120E+03</rscale>
<asrwt>0</asrwt>
<pdfrwt beam="1">  1        1 0.21946813E+00 0.50064120E+03</pdfrwt>
<pdfrwt beam="2">  1       -1 0.83084198E-01 0.50064120E+03</pdfrwt>
<totfact> 0.11478082E+01</totfact>
</mgrwt>
</event>
<event>
 4    1  0.2454657E-002  0.4040466E+03  0.7818608E-02  0.1042387E+00
         -2   -1    0    0    0  501 -0.00000000000E+00  0.00000000000E+00  0.53969887180E+02  0.53969887180E+02  0.00000000000E+00 0. -1.
          2   -1    0    0  502    0  0.00000000000E+00 -0.00000000000E+00 -0.34159225702E+04  0.34159225702E+04  0.00000000000E+00 0.  1.
    9000007    1    1    2  502    0  0.55723377455E+02 -0.12188939871E+02 -0.10939854724E+04  0.11662151940E+04  0.40000000000E+03 0. -1.
   -9000007    1    1    2    0  501 -0.55723377455E+02  0.12188939871E+02 -0.22679672106E+04  0.23036772633E+04  0.40000000000E+03 0.  1.
<mgrwt>
<rscale>  2 0.40404661E+03</rscale>
<asrwt>0</asrwt>
<pdfrwt beam="1">  1        2 0.52552662E+00 0.40404661E+03</pdfrwt>
<pdfrwt beam="2">  1       -2 0.83030585E-02 0.40404661E+03</pdfrwt>
<totfact> 0.98587547E+01</totfact>
</mgrwt>
</event>
<event>
 4    1  0.2454657E-002  0.5739554E+03  0.7818608E-02  0.9960964E-01
          2   -1    0    0  502    0  0.00000000000E+00  0.00000000000E+00  0.98086914864E+03  0.98086914864E+03  0.00000000000E+00 0.  1.
         -2   -1    0    0    0  501 -0.00000000000E+00 -0.00000000000E+00 -0.33801790314E+03  0.33801790314E+03  0.00000000000E+00 0. -1.
    9000007    1    1    2  502    0  0.80668933724E+02  0.40363013014E+03  0.26861242371E+03  0.63370134369E+03  0.40000000000E+03 0. -1.
   -9000007    1    1    2    0  501 -0.80668933724E+02 -0.40363013014E+03  0.37423882180E+03  0.68518570809E+03  0.40000000000E+03 0.  1.
<mgrwt>
<rscale>  2 0.57395536E+03</rscale>
<asrwt>0</asrwt>
<pdfrwt beam="1">  1        2 0.15090294E+00 0.57395536E+03</pdfrwt>
<pdfrwt beam="2">  1       -2 0.52002755E-01 0.57395536E+03</pdfrwt>
<totfact> 0.93099418E+01</totfact>
</mgrwt>
</event>
<event>
 4    1  0.2454657E-002  0.4031126E+03  0.7818608E-02  0.1042707E+00
          1   -1    0    0  502    0  0.00000000000E+00  0.00000000000E+00  0.13843556721E+04  0.13843556721E+04  0.00000000000E+00 0.  1.
         -1   -1    0    0    0  501 -0.00000000000E+00 -0.00000000000E+00 -0.13456488053E+03  0.13456488053E+03  0.00000000000E+00 0. -1.
    9000007    1    1    2  502    0 -0.31386145519E+02 -0.38919257083E+02  0.35351732123E+03  0.53616629427E+03  0.40000000000E+03 0. -1.
   -9000007    1    1    2    0  501  0.31386145519E+02  0.38919257083E+02  0.89627347032E+03  0.98275425835E+03  0.40000000000E+03 0.  1.
<mgrwt>
<rscale>  2 0.40311264E+03</rscale>
<asrwt>0</asrwt>
<pdfrwt beam="1">  1        1 0.21297779E+00 0.40311264E+03</pdfrwt>
<pdfrwt beam="2">  1       -1 0.20702290E-01 0.40311264E+03</pdfrwt>
<totfact> 0.16057718E+02</totfact>
</mgrwt>
</event>
<event>
 4    1  0.2454657E-002  0.4340045E+03  0.7818608E-02  0.1032602E+00
          2   -1    0    0  502    0  0.00000000000E+00  0.00000000000E+00  0.98007980358E+03  0.98007980358E+03  0.00000000000E+00 0.  1.
         -2   -1    0    0    0  501 -0.00000000000E+00 -0.00000000000E+00 -0.25598781840E+03  0.25598781840E+03  0.00000000000E+00 0. -1.
    9000007    1    1    2  502    0  0.13184561754E+03 -0.10476949426E+03  0.53506232189E+02  0.43729032767E+03  0.40000000000E+03 0. -1.
   -9000007    1    1    2    0  501 -0.13184561754E+03  0.10476949426E+03  0.67058575299E+03  0.79877729431E+03  0.40000000000E+03 0.  1.
<mgrwt>
<rscale>  2 0.43400451E+03</rscale>
<asrwt>0</asrwt>
<pdfrwt beam="1">  1        2 0.15078151E+00 0.43400451E+03</pdfrwt>
<pdfrwt beam="2">  1       -2 0.39382742E-01 0.43400451E+03</pdfrwt>
<totfact> 0.16410985E+02</totfact>
</mgrwt>
</event>
<event>
 4    1  0.2454657E-002  0.5213285E+03  0.7818608E-02  0.1008357E+00
          2   -1    0    0  502    0  0.00000000000E+00  0.00000000000E+00  0.55402887514E+03  0.55402887514E+03  0.00000000000E+00 0.  1.
         -2   -1    0    0    0  501 -0.00000000000E+00 -0.00000000000E+00 -0.57176550506E+03  0.57176550506E+03  0.00000000000E+00 0. -1.
    9000007    1    1    2  502    0 -0.59117521418E+01 -0.33428796931E+03 -0.22100594607E+03  0.56623936938E+03  0.40000000000E+03 0. -1.
   -9000007    1    1    2    0  501  0.59117521418E+01  0.33428796931E+03  0.20326931614E+03  0.55955501081E+03  0.40000000000E+03 0. -1.
<mgrwt>
<rscale>  2 0.52132849E+03</rscale>
<asrwt>0</asrwt>
<pdfrwt beam="1">  1        2 0.85235212E-01 0.52132849E+03</pdfrwt>
<pdfrwt beam="2">  1       -2 0.87963923E-01 0.52132849E+03</pdfrwt>
<totfact> 0.62608253E+01</totfact>
</mgrwt>
</event>
<event>
 4    1  0.2454657E-002  0.5875696E+03  0.7818608E-02  0.9931536E-01
         -2   -1    0    0    0  501 -0.00000000000E+00  0.00000000000E+00  0.74898606705E+03  0.74898606705E+03  0.00000000000E+00 0.  1.
          2   -1    0    0  502    0  0.00000000000E+00 -0.00000000000E+00 -0.54054088618E+03  0.54054088618E+03  0.00000000000E+00 0. -1.
    9000007    1    1    2  502    0 -0.29635186605E+03  0.31211151325E+03 -0.14320247500E+03  0.60476852933E+03  0.40000000000E+03 0. -1.
   -9000007    1    1    2    0  501  0.29635186605E+03 -0.31211151325E+03  0.35164765587E+03  0.68475842390E+03  0.40000000000E+03 0.  1.
<mgrwt>
<rscale>  2 0.58756959E+03</rscale>
<asrwt>0</asrwt>
<pdfrwt beam="1">  1        2 0.83160137E-01 0.58756959E+03</pdfrwt>
<pdfrwt beam="2">  1       -2 0.11522863E+00 0.58756959E+03</pdfrwt>
<totfact> 0.33852668E+01</totfact>
</mgrwt>
</event>
<event>
 4    1  0.2454657E-002  0.5632358E+03  0.7818608E-02  0.9984759E-01
         -1   -1    0    0    0  501 -0.00000000000E+00  0.00000000000E+00  0.42838884690E+03  0.42838884690E+03  0.00000000000E+00 0. -1.
          1   -1    0    0  502    0  0.00000000000E+00 -0.00000000000E+00 -0.74054249583E+03  0.74054249583E+03  0.00000000000E+00 0.  1.
    9000007    1    1    2  502    0  0.30383618691E+03 -0.25479048451E+03 -0.15363740712E+03  0.58381424472E+03  0.40000000000E+03 0. -1.
   -9000007    1    1    2    0  501 -0.30383618691E+03  0.25479048451E+03 -0.15851624181E+03  0.58511709801E+03  0.40000000000E+03 0. -1.
<mgrwt>
<rscale>  2 0.56323585E+03</rscale>
<asrwt>0</asrwt>
<pdfrwt beam="1">  1        1 0.11392961E+00 0.56323585E+03</pdfrwt>
<pdfrwt beam="2">  1       -1 0.65905977E-01 0.56323585E+03</pdfrwt>
<totfact> 0.60671211E+01</totfact>
</mgrwt>
</event>
<event>
 4    1  0.2454657E-002  0.4209802E+03  0.7818608E-02  0.1036748E+00
          2   -1    0    0  502    0  0.00000000000E+00  0.00000000000E+00  0.19556359507E+04  0.19556359507E+04  0.00000000000E+00 0. -1.
         -2   -1    0    0    0  501 -0.00000000000E+00 -0.00000000000E+00 -0.10270576559E+03  0.10270576559E+03  0.00000000000E+00 0.  1.
    9000007    1    1    2  502    0 -0.13087895052E+03 -0.97481851889E+01  0.57345679530E+03  0.71139090723E+03  0.40000000000E+03 0.  1.
   -9000007    1    1    2    0  501  0.13087895052E+03  0.97481851889E+01  0.12794733898E+04  0.13469508091E+04  0.40000000000E+03 0. -1.
<mgrwt>
<rscale>  2 0.42098020E+03</rscale>
<asrwt>0</asrwt>
<pdfrwt beam="1">  1        2 0.30086704E+00 0.42098020E+03</pdfrwt>
<pdfrwt beam="2">  1       -2 0.15800888E-01 0.42098020E+03</pdfrwt>
<totfact> 0.24056358E+02</totfact>
</mgrwt>
</event>
<event>
 4    1  0.2454657E-002  0.4262313E+03  0.7818608E-02  0.1035057E+00
         -1   -1    0    0    0  501 -0.00000000000E+00  0.00000000000E+00  0.49254131361E+03  0.49254131361E+03  0.00000000000E+00 0.  1.
          1   -1    0    0  502    0  0.00000000000E+00 -0.00000000000E+00 -0.43424975524E+03  0.43424975524E+03  0.00000000000E+00 0. -1.
    9000007    1    1    2  502    0 -0.50550801233E+02 -0.13826701096E+03 -0.15068951338E+03  0.45208459305E+03  0.40000000000E+03 0. -1.
   -9000007    1    1    2    0  501  0.50550801233E+02  0.13826701096E+03  0.20898107175E+03  0.47470647581E+03  0.40000000000E+03 0.  1.
<mgrwt>
<rscale>  2 0.42623133E+03</rscale>
<asrwt>0</asrwt>
<pdfrwt beam="1">  1        1 0.66807655E-01 0.42623133E+03</pdfrwt>
<pdfrwt beam="2">  1       -1 0.75775586E-01 0.42623133E+03</pdfrwt>
<totfact> 0.98371621E+01</totfact>
</mgrwt>
</event>
<event>
 4    1  0.2454657E-002  0.4397000E+03  0.7818608E-02  0.1030839E+00
         -2   -1    0    0    0  501 -0.00000000000E+00  0.00000000000E+00  0.51798495482E+03  0.51798495482E+03  0.00000000000E+00 0.  1.
          2   -1    0    0  502    0  0.00000000000E+00 -0.00000000000E+00 -0.37343162507E+03  0.37343162507E+03  0.00000000000E+00 0. -1.
    9000007    1    1    2  502    0  0.17748989121E+03  0.42818299448E+02  0.62352704867E+02  0.44409900704E+03  0.40000000000E+03 0. -1.
   -9000007    1    1    2    0  501 -0.17748989121E+03 -0.42818299448E+02  0.82200624875E+02  0.44731757285E+03  0.40000000000E+03 0.  1.
<mgrwt>
<rscale>  2 0.43969998E+03</rscale>
<asrwt>0</asrwt>
<pdfrwt beam="1">  1        2 0.57451019E-01 0.43969998E+03</pdfrwt>
<pdfrwt beam="2">  1       -2 0.79689993E-01 0.43969998E+03</pdfrwt>
<totfact> 0.12309834E+02</totfact>
</mgrwt>
</event>
<event>
 4    1  0.2454657E-002  0.5627462E+03  0.7818608E-02  0.9985860E-01
         -3   -1    0    0    0  501 -0.00000000000E+00  0.00000000000E+00  0.20216470015E+03  0.20216470015E+03  0.00000000000E+00 0. -1.
          3   -1    0    0  502    0  0.00000000000E+00 -0.00000000000E+00 -0.16370590889E+04  0.16370590889E+04  0.00000000000E+00 0.  1.
    9000007    1    1    2  502    0 -0.33612901850E+03 -0.20904688733E+03 -0.90841749616E+03  0.10685998622E+04  0.40000000000E+03 0.  1.
   -9000007    1    1    2    0  501  0.33612901850E+03  0.20904688733E+03 -0.52647689256E+03  0.77062392682E+03  0.40000000000E+03 0. -1.
<mgrwt>
<rscale>  2 0.56274623E+03</rscale>
<asrwt>0</asrwt>
<pdfrwt beam="1">  1        3 0.25185524E+00 0.56274623E+03</pdfrwt>
<pdfrwt beam="2">  1       -3 0.31102262E-01 0.56274623E+03</pdfrwt>
<totfact> 0.19547285E+00</totfact>
</mgrwt>
</event>
<event>
 4    1  0.2454657E-002  0.4535370E+03  0.7818608E-02  0.1026673E+00
         -2   -1    0    0    0  501 -0.00000000000E+00  0.00000000000E+00  0.67898564324E+03  0.67898564324E+03  0.00000000000E+00 0. -1.
          2   -1    0    0  502    0  0.00000000000E+00 -0.00000000000E+00 -0.43899507051E+03  0.43899507051E+03  0.00000000000E+00 0.  1.
    9000007    1    1    2  502    0  0.18656037030E+03  0.10436004218E+03 -0.19119264162E+03  0.49218941108E+03  0.40000000000E+03 0.  1.
   -9000007    1    1    2    0  501 -0.18656037030E+03 -0.10436004218E+03  0.43118321435E+03  0.62579130267E+03  0.40000000000E+03 0. -1.
<mgrwt>
<rscale>  2 0.45353698E+03</rscale>
<asrwt>0</asrwt>
<pdfrwt beam="1">  1        2 0.67537703E-01 0.45353698E+03</pdfrwt>
<pdfrwt beam="2">  1       -2 0.10445933E+00 0.45353698E+03</pdfrwt>
<totfact> 0.55123177E+01</totfact>
</mgrwt>
</event>
<event>
 4    1  0.2454657E-002  0.4284411E+03  0.7818608E-02  0.1034354E+00
          2   -1    0    0  502    0  0.00000000000E+00  0.00000000000E+00  0.67101765628E+03  0.67101765628E+03  0.00000000000E+00 0. -1.
         -2   -1    0    0    0  501 -0.00000000000E+00 -0.00000000000E+00 -0.51733785799E+03  0.51733785799E+03  0.00000000000E+00 0.  1.
    9000007    1    1    2  502    0  0.11283716016E+03  0.10406511016E+03  0.48471650976E+03  0.64692493127E+03  0.40000000000E+03 0.  1.
   -9000007    1    1    2    0  501 -0.11283716016E+03 -0.10406511016E+03 -0.33103671147E+03  0.54143058300E+03  0.40000000000E+03 0.  1.
<mgrwt>
<rscale>  2 0.42844109E+03</rscale>
<asrwt>0</asrwt>
<pdfrwt beam="1">  1        2 0.10323349E+00 0.42844109E+03</pdfrwt>
<pdfrwt beam="2">  1       -2 0.79590440E-01 0.42844109E+03</pdfrwt>
<totfact> 0.62993936E+01</totfact>
</mgrwt>
</event>
<event>
 4    1  0.2454657E-002  0.4363117E+03  0.7818608E-02  0.1031884E+00
         -2   -1    0    0    0  501 -0.00000000000E+00  0.00000000000E+00  0.43127259201E+03  0.43127259201E+03  0.00000000000E+00 0.  1.
          2   -1    0    0  502    0  0.00000000000E+00 -0.00000000000E+00 -0.49326277657E+03  0.49326277657E+03  0.00000000000E+00 0. -1.
    9000007    1    1    2  502    0  0.17373224162E+03 -0.13601812152E+02  0.11888421249E+03  0.45221826262E+03  0.40000000000E+03 0.  1.
   -9000007    1    1    2    0  501 -0.17373224162E+03  0.13601812152E+02 -0.18087439705E+03  0.47231710596E+03  0.40000000000E+03 0. -1.
<mgrwt>
<rscale>  2 0.43631170E+03</rscale>
<asrwt>0</asrwt>
<pdfrwt beam="1">  1        2 0.75886581E-01 0.43631170E+03</pdfrwt>
<pdfrwt beam="2">  1       -2 0.66349629E-01 0.43631170E+03</pdfrwt>
<totfact> 0.13453802E+02</totfact>
</mgrwt>
</event>
<event>
 4    1  0.2454657E-002  0.6793796E+03  0.7818608E-02  0.9753160E-01
         -3   -1    0    0    0  501 -0.00000000000E+00  0.00000000000E+00  0.24306484487E+04  0.24306484487E+04  0.00000000000E+00 0.  1.
          3   -1    0    0  502    0  0.00000000000E+00 -0.00000000000E+00 -0.21230638156E+03  0.21230638156E+03  0.00000000000E+00 0. -1.
    9000007    1    1    2  502    0 -0.46214679705E+03  0.29660922866E+03  0.15385665825E+04  0.16818869835E+04  0.40000000000E+03 0.  1.
   -9000007    1    1    2    0  501  0.46214679705E+03 -0.29660922866E+03  0.67977548469E+03  0.96106784679E+03  0.40000000000E+03 0. -1.
<mgrwt>
<rscale>  2 0.67937964E+03</rscale>
<asrwt>0</asrwt>
<pdfrwt beam="1">  1        3 0.32662522E-01 0.67937964E+03</pdfrwt>
<pdfrwt beam="2">  1       -3 0.37394590E+00 0.67937964E+03</pdfrwt>
<totfact> 0.37042513E-01</totfact>
</mgrwt>
</event>
<event>
 4    1  0.2454657E-002  0.4537936E+03  0.7818608E-02  0.1026597E+00
         -2   -1    0    0    0  501 -0.00000000000E+00  0.00000000000E+00  0.15813415127E+03  0.15813415127E+03  0.00000000000E+00 0. -1.
          2   -1    0    0  502    0  0.00000000000E+00 -0.00000000000E+00 -0.13431655584E+04  0.13431655584E+04  0.00000000000E+00 0.  1.
    9000007    1    1    2  502    0 -0.20451973478E+03  0.64033416798E+02 -0.46148577608E+03  0.64722308512E+03  0.40000000000E+03 0. -1.
   -9000007    1    1    2    0  501  0.20451973478E+03 -0.64033416798E+02 -0.72354563100E+03  0.85407662451E+03  0.40000000000E+03 0.  1.
<mgrwt>
<rscale>  2 0.45379357E+03</rscale>
<asrwt>0</asrwt>
<pdfrwt beam="1">  1        2 0.20664086E+00 0.45379357E+03</pdfrwt>
<pdfrwt beam="2">  1       -2 0.24328331E-01 0.45379357E+03</pdfrwt>
<totfact> 0.24374012E+02</totfact>
</mgrwt>
</event>
<event>
 4    1  0.2454657E-002  0.6106978E+03  0.7818608E-02  0.9883457E-01
         -2   -1    0    0    0  501 -0.00000000000E+00  0.00000000000E+00  0.55027206879E+03  0.55027206879E+03  0.00000000000E+00 0.  1.
          2   -1    0    0  502    0  0.00000000000E+00 -0.00000000000E+00 -0.13989982763E+04  0.13989982763E+04  0.00000000000E+00 0. -1.
    9000007    1    1    2  502    0  0.46143912767E+03 -0.50740604747E+01  0.27543569494E+03  0.66993778568E+03  0.40000000000E+03 0.  1.
   -9000007    1    1    2    0  501 -0.46143912767E+03  0.50740604747E+01 -0.11241619025E+04  0.12793325594E+04  0.40000000000E+03 0. -1.
<mgrwt>
<rscale>  2 0.61069781E+03</rscale>
<asrwt>0</asrwt>
<pdfrwt beam="1">  1        2 0.21523050E+00 0.61069781E+03</pdfrwt>
<pdfrwt beam="2">  1       -2 0.84657241E-01 0.61069781E+03</pdfrwt>
<totfact> 0.18353231E+01</totfact>
</mgrwt>
</event>
<event>
 4    1  0.2454657E-002  0.5243019E+03  0.7818608E-02  0.1007623E+00
         -1   -1    0    0    0  501 -0.00000000000E+00  0.00000000000E+00  0.48233197408E+03  0.48233197408E+03  0.00000000000E+00 0.  1.
          1   -1    0    0  502    0  0.00000000000E+00 -0.00000000000E+00 -0.58435443099E+03  0.58435443099E+03  0.00000000000E+00 0. -1.
    9000007    1    1    2  502    0  0.50058708121E+02  0.33524113887E+03 -0.13482405902E+03  0.54135942066E+03  0.40000000000E+03 0.  1.
   -9000007    1    1    2    0  501 -0.50058708121E+02 -0.33524113887E+03  0.32801602114E+02  0.52532698441E+03  0.40000000000E+03 0. -1.
<mgrwt>
<rscale>  2 0.52430191E+03</rscale>
<asrwt>0</asrwt>
<pdfrwt beam="1">  1        1 0.89900682E-01 0.52430191E+03</pdfrwt>
<pdfrwt beam="2">  1       -1 0.74204919E-01 0.52430191E+03</pdfrwt>
<totfact> 0.67797080E+01</totfact>
</mgrwt>
</event>
<event>
 4    1  0.2454657E-002  0.4016175E+03  0.7818608E-02  0.1043221E+00
          2   -1    0    0  502    0  0.00000000000E+00  0.00000000000E+00  0.11295692980E+04  0.11295692980E+04  0.00000000000E+00 0. -1.
         -2   -1    0    0    0  501 -0.00000000000E+00 -0.00000000000E+00 -0.14440935074E+03  0.14440935074E+03  0.00000000000E+00 0.  1.
    9000007    1    1    2  502    0 -0.17048384472E+02  0.31717015511E+02  0.55993360270E+03  0.68907347643E+03  0.40000000000E+03 0. -1.
   -9000007    1    1    2    0  501  0.17048384472E+02 -0.31717015511E+02  0.42522634456E+03  0.58490517231E+03  0.40000000000E+03 0. -1.
<mgrwt>
<rscale>  2 0.40161750E+03</rscale>
<asrwt>0</asrwt>
<pdfrwt beam="1">  1        2 0.17377989E+00 0.40161750E+03</pdfrwt>
<pdfrwt beam="2">  1       -2 0.22216824E-01 0.40161750E+03</pdfrwt>
<totfact> 0.38166878E+02</totfact>
</mgrwt>
</event>
<event>
 4    1  0.2454657E-002  0.4438637E+03  0.7818608E-02  0.1029568E+00
         -1   -1    0    0    0  501 -0.00000000000E+00  0.00000000000E+00  0.14179579916E+03  0.14179579916E+03  0.00000000000E+00 0. -1.
          1   -1    0    0  502    0  0.00000000000E+00 -0.00000000000E+00 -0.14919880942E+04  0.14919880942E+04  0.00000000000E+00 0.  1.
    9000007    1    1    2  502    0  0.98282822998E+02  0.16539497066E+03 -0.88927263831E+03  0.99389176215E+03  0.40000000000E+03 0.  1.
   -9000007    1    1    2    0  501 -0.98282822998E+02 -0.16539497066E+03 -0.46091965671E+03  0.63989213119E+03  0.40000000000E+03 0. -1.
<mgrwt>
<rscale>  2 0.44386373E+03</rscale>
<asrwt>0</asrwt>
<pdfrwt beam="1">  1        1 0.22953663E+00 0.44386373E+03</pdfrwt>
<pdfrwt beam="2">  1       -1 0.21814738E-01 0.44386373E+03</pdfrwt>
<totfact> 0.12369691E+02</totfact>
</mgrwt>
</event>
<event>
 4    1  0.2454657E-002  0.6229777E+03  0.7818608E-02  0.9858849E-01
         -3   -1    0    0    0  501 -0.00000000000E+00  0.00000000000E+00  0.53819595853E+03  0.53819595853E+03  0.00000000000E+00 0.  1.
          3   -1    0    0  502    0  0.00000000000E+00 -0.00000000000E+00 -0.76695910368E+03  0.76695910368E+03  0.00000000000E+00 0. -1.
    9000007    1    1    2  502    0 -0.20140679273E+03  0.43305480953E+03 -0.27392829360E+03  0.68054233832E+03  0.40000000000E+03 0.  1.
   -9000007    1    1    2    0  501  0.20140679273E+03 -0.43305480953E+03  0.45165148453E+02  0.62461272389E+03  0.40000000000E+03 0.  1.
<mgrwt>
<rscale>  2 0.62297766E+03</rscale>
<asrwt>0</asrwt>
<pdfrwt beam="1">  1        3 0.11799371E+00 0.62297766E+03</pdfrwt>
<pdfrwt beam="2">  1       -3 0.82799378E-01 0.62297766E+03</pdfrwt>
<totfact> 0.20744715E+00</totfact>
</mgrwt>
</event>
<event>
 4    1  0.2454657E-002  0.4050220E+03  0.7818608E-02  0.1042054E+00
          2   -1    0    0  502    0  0.00000000000E+00  0.00000000000E+00  0.68770216713E+03  0.68770216713E+03  0.00000000000E+00 0. -1.
         -2   -1    0    0    0  501 -0.00000000000E+00 -0.00000000000E+00 -0.26847428817E+03  0.26847428817E+03  0.00000000000E+00 0.  1.
    9000007    1    1    2  502    0 -0.53293889299E+02  0.34678462014E+02  0.36926009785E+03  0.54808380219E+03  0.40000000000E+03 0. -1.
   -9000007    1    1    2    0  501  0.53293889299E+02 -0.34678462014E+02  0.49967781113E+02  0.40809265310E+03  0.40000000000E+03 0.  1.
<mgrwt>
<rscale>  2 0.40502202E+03</rscale>
<asrwt>0</asrwt>
<pdfrwt beam="1">  1        2 0.10580033E+00 0.40502202E+03</pdfrwt>
<pdfrwt beam="2">  1       -2 0.41303737E-01 0.40502202E+03</pdfrwt>
<totfact> 0.23936592E+02</totfact>
</mgrwt>
</event>
<event>
 4    1  0.2454657E-002  0.5068102E+03  0.7818608E-02  0.1012016E+00
         -2   -1    0    0    0  501 -0.00000000000E+00  0.00000000000E+00  0.82916633470E+03  0.82916633470E+03  0.00000000000E+00 0.  1.
          2   -1    0    0  502    0  0.00000000000E+00 -0.00000000000E+00 -0.37252638433E+03  0.37252638433E+03  0.00000000000E+00 0. -1.
    9000007    1    1    2  502    0  0.25973432524E+03  0.17144869209E+03 -0.18278285300E+02  0.50713969421E+03  0.40000000000E+03 0. -1.
   -9000007    1    1    2    0  501 -0.25973432524E+03 -0.17144869209E+03  0.47491823567E+03  0.69455302483E+03  0.40000000000E+03 0.  1.
<mgrwt>
<rscale>  2 0.50681019E+03</rscale>
<asrwt>0</asrwt>
<pdfrwt beam="1">  1        2 0.57311752E-01 0.50681019E+03</pdfrwt>
<pdfrwt beam="2">  1       -2 0.12756405E+00 0.50681019E+03</pdfrwt>
<totfact> 0.40474518E+01</totfact>
</mgrwt>
</event>
<event>
 4    1  0.2454657E-002  0.8691571E+03  0.7818608E-02  0.9464980E-01
         -2   -1    0    0    0  501 -0.00000000000E+00  0.00000000000E+00  0.28915765838E+03  0.28915765838E+03  0.00000000000E+00 0.  1.
          2   -1    0    0  502    0  0.00000000000E+00 -0.00000000000E+00 -0.34095790672E+04  0.34095790672E+04  0.00000000000E+00 0. -1.
    9000007    1    1    2  502    0 -0.42986919934E+03 -0.64081708815E+03 -0.24543694249E+04  0.26037210571E+04  0.40000000000E+03 0. -1.
   -9000007    1    1    2    0  501  0.42986919934E+03  0.64081708815E+03 -0.66605198386E+03  0.10950156685E+04  0.40000000000E+03 0.  1.
<mgrwt>
<rscale>  2 0.86915710E+03</rscale>
<asrwt>0</asrwt>
<pdfrwt beam="1">  1        2 0.52455069E+00 0.86915710E+03</pdfrwt>
<pdfrwt beam="2">  1       -2 0.44485788E-01 0.86915710E+03</pdfrwt>
<totfact> 0.47545328E+00</totfact>
</mgrwt>
</event>
<event>
 4    1  0.2454657E-002  0.9508021E+03  0.7818608E-02  0.9364213E-01
         -1   -1    0    0    0  501 -0.00000000000E+00  0.00000000000E+00  0.78930122639E+03  0.78930122639E+03  0.00000000000E+00 0. -1.
          1   -1    0    0  502    0  0.00000000000E+00 -0.00000000000E+00 -0.22432383583E+04  0.22432383583E+04  0.00000000000E+00 0.  1.
    9000007    1    1    2  502    0  0.57681902936E+03  0.64133028088E+03  0.33379408965E+03  0.10076920244E+04  0.40000000000E+03 0. -1.
   -9000007    1    1    2    0  501 -0.57681902936E+03 -0.64133028088E+03 -0.17877312216E+04  0.20248475603E+04  0.40000000000E+03 0.  1.
<mgrwt>
<rscale>  2 0.95080215E+03</rscale>
<asrwt>0</asrwt>
<pdfrwt beam="1">  1        1 0.34511359E+00 0.95080215E+03</pdfrwt>
<pdfrwt beam="2">  1       -1 0.12143096E+00 0.95080215E+03</pdfrwt>
<totfact> 0.12512328E+00</totfact>
</mgrwt>
</event>
<event>
 4    1  0.2454657E-002  0.4400218E+03  0.7818608E-02  0.1030740E+00
         -2   -1    0    0    0  501 -0.00000000000E+00  0.00000000000E+00  0.52225091085E+03  0.52225091085E+03  0.00000000000E+00 0.  1.
          2   -1    0    0  502    0  0.00000000000E+00 -0.00000000000E+00 -0.37761975685E+03  0.37761975685E+03  0.00000000000E+00 0. -1.
    9000007    1    1    2  502    0  0.33346392425E+02 -0.18029748539E+03  0.11583574072E+02  0.44017422041E+03  0.40000000000E+03 0. -1.
   -9000007    1    1    2    0  501 -0.33346392425E+02  0.18029748539E+03  0.13304757992E+03  0.45969644729E+03  0.40000000000E+03 0.  1.
<mgrwt>
<rscale>  2 0.44002178E+03</rscale>
<asrwt>0</asrwt>
<pdfrwt beam="1">  1        2 0.58095347E-01 0.44002178E+03</pdfrwt>
<pdfrwt beam="2">  1       -2 0.80346294E-01 0.44002178E+03</pdfrwt>
<totfact> 0.11938385E+02</totfact>
</mgrwt>
</event>
<event>
 4    1  0.2454657E-002  0.4200660E+03  0.7818608E-02  0.1037045E+00
          1   -1    0    0  502    0  0.00000000000E+00  0.00000000000E+00  0.83845254143E+02  0.83845254143E+02  0.00000000000E+00 0.  1.
         -1   -1    0    0    0  501 -0.00000000000E+00 -0.00000000000E+00 -0.21792899080E+04  0.21792899080E+04  0.00000000000E+00 0. -1.
    9000007    1    1    2  502    0 -0.11963454825E+01 -0.12827306558E+03 -0.12572966367E+04  0.13256131575E+04  0.40000000000E+03 0. -1.
   -9000007    1    1    2    0  501  0.11963454825E+01  0.12827306558E+03 -0.83814801719E+03  0.93752200471E+03  0.40000000000E+03 0.  1.
<mgrwt>
<rscale>  2 0.42006596E+03</rscale>
<asrwt>0</asrwt>
<pdfrwt beam="1">  1        1 0.12899270E-01 0.42006596E+03</pdfrwt>
<pdfrwt beam="2">  1       -1 0.33527536E+00 0.42006596E+03</pdfrwt>
<totfact> 0.10169965E+01</totfact>
</mgrwt>
</event>
<event>
 4    1  0.2454657E-002  0.4721926E+03  0.7818608E-02  0.1021303E+00
          2   -1    0    0  502    0  0.00000000000E+00  0.00000000000E+00  0.17623093461E+04  0.17623093461E+04  0.00000000000E+00 0. -1.
         -2   -1    0    0    0  501 -0.00000000000E+00 -0.00000000000E+00 -0.12720499009E+03  0.12720499009E+03  0.00000000000E+00 0.  1.
    9000007    1    1    2  502    0 -0.20877639438E+03  0.13920587590E+03  0.88692405852E+03  0.10047886068E+04  0.40000000000E+03 0. -1.
   -9000007    1    1    2    0  501  0.20877639438E+03 -0.13920587590E+03  0.74818029747E+03  0.88472572940E+03  0.40000000000E+03 0. -1.
<mgrwt>
<rscale>  2 0.47219261E+03</rscale>
<asrwt>0</asrwt>
<pdfrwt beam="1">  1        2 0.27112450E+00 0.47219261E+03</pdfrwt>
<pdfrwt beam="2">  1       -2 0.19570000E-01 0.47219261E+03</pdfrwt>
<totfact> 0.21043959E+02</totfact>
</mgrwt>
</event>
<event>
 4    1  0.2454657E-002  0.4330466E+03  0.7818608E-02  0.1032902E+00
          2   -1    0    0  502    0  0.00000000000E+00  0.00000000000E+00  0.72448324673E+03  0.72448324673E+03  0.00000000000E+00 0. -1.
         -2   -1    0    0    0  501 -0.00000000000E+00 -0.00000000000E+00 -0.39123853326E+03  0.39123853326E+03  0.00000000000E+00 0.  1.
    9000007    1    1    2  502    0 -0.13364234282E+03  0.98331514159E+02 -0.15789457911E+03  0.46093390045E+03  0.40000000000E+03 0.  1.
   -9000007    1    1    2    0  501  0.13364234282E+03 -0.98331514159E+02  0.49113929258E+03  0.65478787954E+03  0.40000000000E+03 0. -1.
<mgrwt>
<rscale>  2 0.43304661E+03</rscale>
<asrwt>0</asrwt>
<pdfrwt beam="1">  1        2 0.11145896E+00 0.43304661E+03</pdfrwt>
<pdfrwt beam="2">  1       -2 0.60190544E-01 0.43304661E+03</pdfrwt>
<totfact> 0.10470402E+02</totfact>
</mgrwt>
</event>
<event>
 4    1  0.2454657E-002  0.4417239E+03  0.7818608E-02  0.1030219E+00
         -2   -1    0    0    0  501 -0.00000000000E+00  0.00000000000E+00  0.27736735782E+03  0.27736735782E+03  0.00000000000E+00 0.  1.
          2   -1    0    0  502    0  0.00000000000E+00 -0.00000000000E+00 -0.75415413268E+03  0.75415413268E+03  0.00000000000E+00 0. -1.
    9000007    1    1    2  502    0  0.27963775574E+02  0.18530534894E+03 -0.10468840340E+03  0.45396002786E+03  0.40000000000E+03 0.  1.
   -9000007    1    1    2    0  501 -0.27963775574E+02 -0.18530534894E+03 -0.37209837145E+03  0.57756146264E+03  0.40000000000E+03 0. -1.
<mgrwt>
<rscale>  2 0.44172395E+03</rscale>
<asrwt>0</asrwt>
<pdfrwt beam="1">  1        2 0.11602371E+00 0.44172395E+03</pdfrwt>
<pdfrwt beam="2">  1       -2 0.42671902E-01 0.44172395E+03</pdfrwt>
<totfact> 0.19956735E+02</totfact>
</mgrwt>
</event>
<event>
 4    1  0.2454657E-002  0.6201727E+03  0.7818608E-02  0.9864416E-01
          1   -1    0    0  502    0  0.00000000000E+00  0.00000000000E+00  0.50100957375E+03  0.50100957375E+03  0.00000000000E+00 0. -1.
         -1   -1    0    0    0  501 -0.00000000000E+00 -0.00000000000E+00 -0.76971346709E+03  0.76971346709E+03  0.00000000000E+00 0.  1.
    9000007    1    1    2  502    0  0.21963086063E+03 -0.41997201640E+03 -0.16702198649E+03  0.64226984475E+03  0.40000000000E+03 0.  1.
   -9000007    1    1    2    0  501 -0.21963086063E+03  0.41997201640E+03 -0.10168190685E+03  0.62845319609E+03  0.40000000000E+03 0. -1.
<mgrwt>
<rscale>  2 0.62017273E+03</rscale>
<asrwt>0</asrwt>
<pdfrwt beam="1">  1        1 0.77078396E-01 0.62017273E+03</pdfrwt>
<pdfrwt beam="2">  1       -1 0.11841746E+00 0.62017273E+03</pdfrwt>
<totfact> 0.29352115E+01</totfact>
</mgrwt>
</event>
<event>
 4    1  0.2454657E-002  0.4198129E+03  0.7818608E-02  0.1037127E+00
         -2   -1    0    0    0  501 -0.00000000000E+00  0.00000000000E+00  0.16403795235E+03  0.16403795235E+03  0.00000000000E+00 0.  1.
          2   -1    0    0  502    0  0.00000000000E+00 -0.00000000000E+00 -0.10747545262E+04  0.10747545262E+04  0.00000000000E+00 0. -1.
    9000007    1    1    2  502    0 -0.63928005471E+02  0.11025450381E+03 -0.44415416150E+03  0.61115936111E+03  0.40000000000E+03 0. -1.
   -9000007    1    1    2    0  501  0.63928005471E+02 -0.11025450381E+03 -0.46656241235E+03  0.62763311744E+03  0.40000000000E+03 0.  1.
<mgrwt>
<rscale>  2 0.41981287E+03</rscale>
<asrwt>0</asrwt>
<pdfrwt beam="1">  1        2 0.16534685E+00 0.41981287E+03</pdfrwt>
<pdfrwt beam="2">  1       -2 0.25236609E-01 0.41981287E+03</pdfrwt>
<totfact> 0.32790698E+02</totfact>
</mgrwt>
</event>
<event>
 4    1  0.2454657E-002  0.5688785E+03  0.7818608E-02  0.9972163E-01
          2   -1    0    0  502    0  0.00000000000E+00  0.00000000000E+00  0.16184847352E+03  0.16184847352E+03  0.00000000000E+00 0. -1.
         -2   -1    0    0    0  501 -0.00000000000E+00 -0.00000000000E+00 -0.22972916332E+04  0.22972916332E+04  0.00000000000E+00 0.  1.
    9000007    1    1    2  502    0  0.20977887425E+03  0.34585484616E+03 -0.62506069924E+03  0.84517668474E+03  0.40000000000E+03 0.  1.
   -9000007    1    1    2    0  501 -0.20977887425E+03 -0.34585484616E+03 -0.15103824604E+04  0.16139634220E+04  0.40000000000E+03 0.  1.
<mgrwt>
<rscale>  2 0.56887850E+03</rscale>
<asrwt>0</asrwt>
<pdfrwt beam="1">  1        2 0.24899766E-01 0.56887850E+03</pdfrwt>
<pdfrwt beam="2">  1       -2 0.35342947E+00 0.56887850E+03</pdfrwt>
<totfact> 0.35278785E+00</totfact>
</mgrwt>
</event>
<event>
 4    1  0.2454657E-002  0.4709749E+03  0.7818608E-02  0.1021645E+00
          2   -1    0    0  502    0  0.00000000000E+00  0.00000000000E+00  0.24351525502E+04  0.24351525502E+04  0.00000000000E+00 0. -1.
         -2   -1    0    0    0  501 -0.00000000000E+00 -0.00000000000E+00 -0.11769107924E+03  0.11769107924E+03  0.00000000000E+00 0.  1.
    9000007    1    1    2  502    0 -0.42176595413E+02  0.24502756412E+03  0.17655709190E+04  0.18273089619E+04  0.40000000000E+03 0. -1.
   -9000007    1    1    2    0  501  0.42176595413E+02 -0.24502756412E+03  0.55189055192E+03  0.72553466745E+03  0.40000000000E+03 0.  1.
<mgrwt>
<rscale>  2 0.47097492E+03</rscale>
<asrwt>0</asrwt>
<pdfrwt beam="1">  1        2 0.37463882E+00 0.47097492E+03</pdfrwt>
<pdfrwt beam="2">  1       -2 0.18106322E-01 0.47097492E+03</pdfrwt>
<totfact> 0.10397882E+02</totfact>
</mgrwt>
</event>
<event>
 4    1  0.2454657E-002  0.4959866E+03  0.7818608E-02  0.1014832E+00
          1   -1    0    0  502    0  0.00000000000E+00  0.00000000000E+00  0.45471239195E+03  0.45471239195E+03  0.00000000000E+00 0.  1.
         -1   -1    0    0    0  501 -0.00000000000E+00 -0.00000000000E+00 -0.57090660309E+03  0.57090660309E+03  0.00000000000E+00 0. -1.
    9000007    1    1    2  502    0  0.10603303359E+03  0.27342212106E+03 -0.17545304253E+03  0.52610496161E+03  0.40000000000E+03 0.  1.
   -9000007    1    1    2    0  501 -0.10603303359E+03 -0.27342212106E+03  0.59258831387E+02  0.49951403343E+03  0.40000000000E+03 0.  1.
<mgrwt>
<rscale>  2 0.49598655E+03</rscale>
<asrwt>0</asrwt>
<pdfrwt beam="1">  1        1 0.69955753E-01 0.49598655E+03</pdfrwt>
<pdfrwt beam="2">  1       -1 0.87831785E-01 0.49598655E+03</pdfrwt>
<totfact> 0.67177337E+01</totfact>
</mgrwt>
</event>
<event>
 4    1  0.2454657E-002  0.5364628E+03  0.7818608E-02  0.1004677E+00
         -2   -1    0    0    0  501 -0.00000000000E+00  0.00000000000E+00  0.14147308171E+03  0.14147308171E+03  0.00000000000E+00 0. -1.
          2   -1    0    0  502    0  0.00000000000E+00 -0.00000000000E+00 -0.21668175827E+04  0.21668175827E+04  0.00000000000E+00 0.  1.
    9000007    1    1    2  502    0 -0.10797874182E+02  0.35731742111E+03 -0.72720276641E+03  0.90366818965E+03  0.40000000000E+03 0. -1.
   -9000007    1    1    2    0  501  0.10797874182E+02 -0.35731742111E+03 -0.12981417346E+04  0.14046224747E+04  0.40000000000E+03 0.  1.
<mgrwt>
<rscale>  2 0.53646280E+03</rscale>
<asrwt>0</asrwt>
<pdfrwt beam="1">  1        2 0.33335655E+00 0.53646280E+03</pdfrwt>
<pdfrwt beam="2">  1       -2 0.21765090E-01 0.53646280E+03</pdfrwt>
<totfact> 0.10485513E+02</totfact>
</mgrwt>
</event>
<event>
 4    1  0.2454657E-002  0.4175272E+03  0.7818608E-02  0.1037874E+00
          1   -1    0    0  502    0  0.00000000000E+00  0.00000000000E+00  0.56002990438E+03  0.56002990438E+03  0.00000000000E+00 0.  1.
         -1   -1    0    0    0  501 -0.00000000000E+00 -0.00000000000E+00 -0.33770147666E+03  0.33770147666E+03  0.00000000000E+00 0. -1.
    9000007    1    1    2  502    0 -0.10271759794E+03  0.61465594398E+02 -0.14377239128E+02  0.41777461534E+03  0.40000000000E+03 0. -1.
   -9000007    1    1    2    0  501  0.10271759794E+03 -0.61465594398E+02  0.23670566684E+03  0.47995676570E+03  0.40000000000E+03 0.  1.
<mgrwt>
<rscale>  2 0.41752715E+03</rscale>
<asrwt>0</asrwt>
<pdfrwt beam="1">  1        1 0.86158447E-01 0.41752715E+03</pdfrwt>
<pdfrwt beam="2">  1       -1 0.51954073E-01 0.41752715E+03</pdfrwt>
<totfact> 0.14697569E+02</totfact>
</mgrwt>
</event>
<event>
 4    1  0.2454657E-002  0.6854825E+03  0.7818608E-02  0.9742386E-01
         -1   -1    0    0    0  501 -0.00000000000E+00  0.00000000000E+00  0.41092909259E+03  0.41092909259E+03  0.00000000000E+00 0.  1.
          1   -1    0    0  502    0  0.00000000000E+00 -0.00000000000E+00 -0.13531668137E+04  0.13531668137E+04  0.00000000000E+00 0. -1.
    9000007    1    1    2  502    0  0.29805157007E+03 -0.47016121087E+03 -0.81834258090E+03  0.10675068535E+04  0.40000000000E+03 0. -1.
   -9000007    1    1    2    0  501 -0.29805157007E+03  0.47016121087E+03 -0.12389514019E+03  0.69658905273E+03  0.40000000000E+03 0.  1.
<mgrwt>
<rscale>  2 0.68548253E+03</rscale>
<asrwt>0</asrwt>
<pdfrwt beam="1">  1        1 0.20817951E+00 0.68548253E+03</pdfrwt>
<pdfrwt beam="2">  1       -1 0.63219860E-01 0.68548253E+03</pdfrwt>
<totfact> 0.21906477E+01</totfact>
</mgrwt>
</event>
<event>
 4    1  0.2454657E-002  0.5387811E+03  0.7818608E-02  0.1004125E+00
         -2   -1    0    0    0  501 -0.00000000000E+00  0.00000000000E+00  0.34057561158E+03  0.34057561158E+03  0.00000000000E+00 0.  1.
          2   -1    0    0  502    0  0.00000000000E+00 -0.00000000000E+00 -0.95883342815E+03  0.95883342815E+03  0.00000000000E+00 0. -1.
    9000007    1    1    2  502    0  0.10622066414E+03  0.34496707487E+03 -0.92601777270E+02  0.54668107832E+03  0.40000000000E+03 0.  1.
   -9000007    1    1    2    0  501 -0.10622066414E+03 -0.34496707487E+03 -0.52565603930E+03  0.75272796141E+03  0.40000000000E+03 0. -1.
<mgrwt>
<rscale>  2 0.53878114E+03</rscale>
<asrwt>0</asrwt>
<pdfrwt beam="1">  1        2 0.14751283E+00 0.53878114E+03</pdfrwt>
<pdfrwt beam="2">  1       -2 0.52396249E-01 0.53878114E+03</pdfrwt>
<totfact> 0.95036339E+01</totfact>
</mgrwt>
</event>
<event>
 4    1  0.2454657E-002  0.4325097E+03  0.7818608E-02  0.1033070E+00
         -2   -1    0    0    0  501 -0.00000000000E+00  0.00000000000E+00  0.51082539538E+03  0.51082539538E+03  0.00000000000E+00 0.  1.
          2   -1    0    0  502    0  0.00000000000E+00 -0.00000000000E+00 -0.60885776758E+03  0.60885776758E+03  0.00000000000E+00 0. -1.
    9000007    1    1    2  502    0 -0.15027851509E+03 -0.66940394073E+02  0.30441400418E+03  0.52889747059E+03  0.40000000000E+03 0.  1.
   -9000007    1    1    2    0  501  0.15027851509E+03  0.66940394073E+02 -0.40244637638E+03  0.59078569238E+03  0.40000000000E+03 0. -1.
<mgrwt>
<rscale>  2 0.43250971E+03</rscale>
<asrwt>0</asrwt>
<pdfrwt beam="1">  1        2 0.93670425E-01 0.43250971E+03</pdfrwt>
<pdfrwt beam="2">  1       -2 0.78588523E-01 0.43250971E+03</pdfrwt>
<totfact> 0.72826061E+01</totfact>
</mgrwt>
</event>
<event>
 4    1  0.2454657E-002  0.1048581E+04  0.7818608E-02  0.9256810E-01
          2   -1    0    0  502    0  0.00000000000E+00  0.00000000000E+00  0.10821006988E+04  0.10821006988E+04  0.00000000000E+00 0. -1.
         -2   -1    0    0    0  501 -0.00000000000E+00 -0.00000000000E+00 -0.15282269435E+04  0.15282269435E+04  0.00000000000E+00 0.  1.
    9000007    1    1    2  502    0 -0.45864365160E+02 -0.96820429358E+03  0.53248075096E+03  0.11760352224E+04  0.40000000000E+03 0. -1.
   -9000007    1    1    2    0  501  0.45864365160E+02  0.96820429358E+03 -0.97860699562E+03  0.14342924200E+04  0.40000000000E+03 0.  1.
<mgrwt>
<rscale>  2 0.10485815E+04</rscale>
<asrwt>0</asrwt>
<pdfrwt beam="1">  1        2 0.16647703E+00 0.10485815E+04</pdfrwt>
<pdfrwt beam="2">  1       -2 0.23511184E+00 0.10485815E+04</pdfrwt>
<totfact> 0.17561865E+00</totfact>
</mgrwt>
</event>
<event>
 4    1  0.2454657E-002  0.4104082E+03  0.7818608E-02  0.1040234E+00
         -1   -1    0    0    0  501 -0.00000000000E+00  0.00000000000E+00  0.50611910615E+03  0.50611910615E+03  0.00000000000E+00 0. -1.
          1   -1    0    0  502    0  0.00000000000E+00 -0.00000000000E+00 -0.33282985124E+03  0.33282985124E+03  0.00000000000E+00 0.  1.
    9000007    1    1    2  502    0 -0.41787514944E+02  0.81784651393E+02  0.82477860073E+02  0.41861381130E+03  0.40000000000E+03 0. -1.
   -9000007    1    1    2    0  501  0.41787514944E+02 -0.81784651393E+02  0.90811394829E+02  0.42033514609E+03  0.40000000000E+03 0.  1.
<mgrwt>
<rscale>  2 0.41040824E+03</rscale>
<asrwt>0</asrwt>
<pdfrwt beam="1">  1        1 0.51204592E-01 0.41040824E+03</pdfrwt>
<pdfrwt beam="2">  1       -1 0.77864478E-01 0.41040824E+03</pdfrwt>
<totfact> 0.13160618E+02</totfact>
</mgrwt>
</event>
<event>
 4    1  0.2454657E-002  0.4093465E+03  0.7818608E-02  0.1040591E+00
         -2   -1    0    0    0  501 -0.00000000000E+00  0.00000000000E+00  0.12432104313E+03  0.12432104313E+03  0.00000000000E+00 0.  1.
          2   -1    0    0  502    0  0.00000000000E+00 -0.00000000000E+00 -0.13478953702E+04  0.13478953702E+04  0.00000000000E+00 0. -1.
    9000007    1    1    2  502    0 -0.85136934430E+02 -0.17783702076E+02 -0.61661254304E+03  0.74011862961E+03  0.40000000000E+03 0. -1.
   -9000007    1    1    2    0  501  0.85136934430E+02  0.17783702076E+02 -0.60696178405E+03  0.73209778375E+03  0.40000000000E+03 0. -1.
<mgrwt>
<rscale>  2 0.40934650E+03</rscale>
<asrwt>0</asrwt>
<pdfrwt beam="1">  1        2 0.20736852E+00 0.40934650E+03</pdfrwt>
<pdfrwt beam="2">  1       -2 0.19126314E-01 0.40934650E+03</pdfrwt>
<totfact> 0.37086155E+02</totfact>
</mgrwt>
</event>
<event>
 4    1  0.2454657E-002  0.4463413E+03  0.7818608E-02  0.1028819E+00
         -2   -1    0    0    0  501 -0.00000000000E+00  0.00000000000E+00  0.92668125767E+02  0.92668125767E+02  0.00000000000E+00 0.  1.
          2   -1    0    0  502    0  0.00000000000E+00 -0.00000000000E+00 -0.23241516314E+04  0.23241516314E+04  0.00000000000E+00 0. -1.
    9000007    1    1    2  502    0  0.18838498781E+03  0.61086997282E+02 -0.78479337359E+03  0.90284060835E+03  0.40000000000E+03 0.  1.
   -9000007    1    1    2    0  501 -0.18838498781E+03 -0.61086997282E+02 -0.14466901320E+04  0.15139791488E+04  0.40000000000E+03 0. -1.
<mgrwt>
<rscale>  2 0.44634127E+03</rscale>
<asrwt>0</asrwt>
<pdfrwt beam="1">  1        2 0.35756178E+00 0.44634127E+03</pdfrwt>
<pdfrwt beam="2">  1       -2 0.14256635E-01 0.44634127E+03</pdfrwt>
<totfact> 0.18004929E+02</totfact>
</mgrwt>
</event>
<event>
 4    1  0.2454657E-002  0.4086664E+03  0.7818608E-02  0.1040819E+00
          2   -1    0    0  502    0  0.00000000000E+00  0.00000000000E+00  0.19849882024E+04  0.19849882024E+04  0.00000000000E+00 0.  1.
         -2   -1    0    0    0  501 -0.00000000000E+00 -0.00000000000E+00 -0.12660938121E+03  0.12660938121E+03  0.00000000000E+00 0. -1.
    9000007    1    1    2  502    0 -0.38744630892E+01  0.83625328935E+02  0.15407064933E+04  0.15939839101E+04  0.40000000000E+03 0.  1.
   -9000007    1    1    2    0  501  0.38744630892E+01 -0.83625328935E+02  0.31767232788E+03  0.51761367351E+03  0.40000000000E+03 0. -1.
<mgrwt>
<rscale>  2 0.40866638E+03</rscale>
<asrwt>0</asrwt>
<pdfrwt beam="1">  1        2 0.30538278E+00 0.40866638E+03</pdfrwt>
<pdfrwt beam="2">  1       -2 0.19478368E-01 0.40866638E+03</pdfrwt>
<totfact> 0.16277590E+02</totfact>
</mgrwt>
</event>
<event>
 4    1  0.2454657E-002  0.4231800E+03  0.7818608E-02  0.1036036E+00
         -1   -1    0    0    0  501 -0.00000000000E+00  0.00000000000E+00  0.25056744764E+03  0.25056744764E+03  0.00000000000E+00 0. -1.
          1   -1    0    0  502    0  0.00000000000E+00 -0.00000000000E+00 -0.73489052068E+03  0.73489052068E+03  0.00000000000E+00 0.  1.
    9000007    1    1    2  502    0 -0.32118056643E+02 -0.13434927415E+03 -0.16049602486E+03  0.45259283139E+03  0.40000000000E+03 0. -1.
   -9000007    1    1    2    0  501  0.32118056643E+02  0.13434927415E+03 -0.32382704817E+03  0.53286513693E+03  0.40000000000E+03 0. -1.
<mgrwt>
<rscale>  2 0.42317998E+03</rscale>
<asrwt>0</asrwt>
<pdfrwt beam="1">  1        1 0.11306008E+00 0.42317998E+03</pdfrwt>
<pdfrwt beam="2">  1       -1 0.38548839E-01 0.42317998E+03</pdfrwt>
<totfact> 0.17149331E+02</totfact>
</mgrwt>
</event>
<event>
 4    1  0.2454657E-002  0.4671439E+03  0.7818608E-02  0.1022729E+00
          2   -1    0    0  502    0  0.00000000000E+00  0.00000000000E+00  0.25142910433E+04  0.25142910433E+04  0.00000000000E+00 0.  1.
         -2   -1    0    0    0  501 -0.00000000000E+00 -0.00000000000E+00 -0.14258143666E+03  0.14258143666E+03  0.00000000000E+00 0. -1.
    9000007    1    1    2  502    0 -0.55436388659E+02 -0.23484079455E+03  0.20168155286E+04  0.20702097160E+04  0.40000000000E+03 0.  1.
   -9000007    1    1    2    0  501  0.55436388659E+02  0.23484079455E+03  0.35489407810E+03  0.58666276398E+03  0.40000000000E+03 0. -1.
<mgrwt>
<rscale>  2 0.46714387E+03</rscale>
<asrwt>0</asrwt>
<pdfrwt beam="1">  1        2 0.38681398E+00 0.46714387E+03</pdfrwt>
<pdfrwt beam="2">  1       -2 0.21935607E-01 0.46714387E+03</pdfrwt>
<totfact> 0.67395481E+01</totfact>
</mgrwt>
</event>
<event>
 4    1  0.2454657E-002  0.6641408E+03  0.7818608E-02  0.9780601E-01
          1   -1    0    0  502    0  0.00000000000E+00  0.00000000000E+00  0.15019717202E+04  0.15019717202E+04  0.00000000000E+00 0.  1.
         -1   -1    0    0    0  501 -0.00000000000E+00 -0.00000000000E+00 -0.29381342889E+03  0.29381342889E+03  0.00000000000E+00 0. -1.
    9000007    1    1    2  502    0  0.52781575801E+03  0.49934579784E+02  0.58419022253E+03  0.88451181607E+03  0.40000000000E+03 0. -1.
   -9000007    1    1    2    0  501 -0.52781575801E+03 -0.49934579784E+02  0.62396806882E+03  0.91127333307E+03  0.40000000000E+03 0.  1.
<mgrwt>
<rscale>  2 0.66414075E+03</rscale>
<asrwt>0</asrwt>
<pdfrwt beam="1">  1        1 0.23107257E+00 0.66414075E+03</pdfrwt>
<pdfrwt beam="2">  1       -1 0.45202067E-01 0.66414075E+03</pdfrwt>
<totfact> 0.33020593E+01</totfact>
</mgrwt>
</event>
<event>
 4    1  0.2454657E-002  0.5546307E+03  0.7818608E-02  0.1000428E+00
          1   -1    0    0  502    0  0.00000000000E+00  0.00000000000E+00  0.14270602443E+04  0.14270602443E+04  0.00000000000E+00 0.  1.
         -1   -1    0    0    0  501 -0.00000000000E+00 -0.00000000000E+00 -0.24166813011E+03  0.24166813011E+03  0.00000000000E+00 0. -1.
    9000007    1    1    2  502    0 -0.33142735383E+01 -0.38419302053E+03  0.86694477125E+03  0.10291785549E+04  0.40000000000E+03 0.  1.
   -9000007    1    1    2    0  501  0.33142735383E+01  0.38419302053E+03  0.31844734293E+03  0.63954981952E+03  0.40000000000E+03 0. -1.
<mgrwt>
<rscale>  2 0.55463074E+03</rscale>
<asrwt>0</asrwt>
<pdfrwt beam="1">  1        1 0.21954772E+00 0.55463074E+03</pdfrwt>
<pdfrwt beam="2">  1       -1 0.37179713E-01 0.55463074E+03</pdfrwt>
<totfact> 0.53838858E+01</totfact>
</mgrwt>
</event>
<event>
 4    1  0.2454657E-002  0.4086424E+03  0.7818608E-02  0.1040828E+00
          2   -1    0    0  502    0  0.00000000000E+00  0.00000000000E+00  0.31571326069E+04  0.31571326069E+04  0.00000000000E+00 0.  1.
         -2   -1    0    0    0  501 -0.00000000000E+00 -0.00000000000E+00 -0.62120127139E+02  0.62120127139E+02  0.00000000000E+00 0. -1.
    9000007    1    1    2  502    0 -0.56968198562E+02  0.61181998618E+02  0.21678809794E+04  0.22060590548E+04  0.40000000000E+03 0.  1.
   -9000007    1    1    2    0  501  0.56968198562E+02 -0.61181998618E+02  0.92713150036E+03  0.10131936792E+04  0.40000000000E+03 0. -1.
<mgrwt>
<rscale>  2 0.40864240E+03</rscale>
<asrwt>0</asrwt>
<pdfrwt beam="1">  1        2 0.48571258E+00 0.40864240E+03</pdfrwt>
<pdfrwt beam="2">  1       -2 0.95569451E-02 0.40864240E+03</pdfrwt>
<totfact> 0.11504189E+02</totfact>
</mgrwt>
</event>
<event>
 4    1  0.2454657E-002  0.6249157E+03  0.7818608E-02  0.9855021E-01
         -1   -1    0    0    0  501 -0.00000000000E+00  0.00000000000E+00  0.12111029110E+03  0.12111029110E+03  0.00000000000E+00 0.  1.
          1   -1    0    0  502    0  0.00000000000E+00 -0.00000000000E+00 -0.34234835236E+04  0.34234835236E+04  0.00000000000E+00 0. -1.
    9000007    1    1    2  502    0 -0.47270450547E+03  0.84083919269E+02 -0.20784692386E+04  0.21703810796E+04  0.40000000000E+03 0. -1.
   -9000007    1    1    2    0  501  0.47270450547E+03 -0.84083919269E+02 -0.12239039940E+04  0.13742127351E+04  0.40000000000E+03 0.  1.
<mgrwt>
<rscale>  2 0.62491572E+03</rscale>
<asrwt>0</asrwt>
<pdfrwt beam="1">  1        1 0.52668975E+00 0.62491572E+03</pdfrwt>
<pdfrwt beam="2">  1       -1 0.18632353E-01 0.62491572E+03</pdfrwt>
<totfact> 0.72710849E+00</totfact>
</mgrwt>
</event>
<event>
 4    1  0.2454657E-002  0.4908934E+03  0.7818608E-02  0.1016184E+00
         -1   -1    0    0    0  501 -0.00000000000E+00  0.00000000000E+00  0.73850633807E+03  0.73850633807E+03  0.00000000000E+00 0. -1.
          1   -1    0    0  502    0  0.00000000000E+00 -0.00000000000E+00 -0.36588881615E+03  0.36588881615E+03  0.00000000000E+00 0.  1.
    9000007    1    1    2  502    0  0.18906435848E+03  0.21267571349E+03  0.36794134570E+03  0.61347952259E+03  0.40000000000E+03 0. -1.
   -9000007    1    1    2    0  501 -0.18906435848E+03 -0.21267571349E+03  0.46761762238E+01  0.49091563163E+03  0.40000000000E+03 0.  1.
<mgrwt>
<rscale>  2 0.49089336E+03</rscale>
<asrwt>0</asrwt>
<pdfrwt beam="1">  1        1 0.56290587E-01 0.49089336E+03</pdfrwt>
<pdfrwt beam="2">  1       -1 0.11361636E+00 0.49089336E+03</pdfrwt>
<totfact> 0.49975536E+01</totfact>
</mgrwt>
</event>
<event>
 4    1  0.2454657E-002  0.4831407E+03  0.7818608E-02  0.1018276E+00
         -2   -1    0    0    0  501 -0.00000000000E+00  0.00000000000E+00  0.14153428935E+03  0.14153428935E+03  0.00000000000E+00 0. -1.
          2   -1    0    0  502    0  0.00000000000E+00 -0.00000000000E+00 -0.23405428391E+04  0.23405428391E+04  0.00000000000E+00 0.  1.
    9000007    1    1    2  502    0 -0.12619721039E+03  0.23978996796E+03 -0.17739686795E+04  0.18385836507E+04  0.40000000000E+03 0.  1.
   -9000007    1    1    2    0  501  0.12619721039E+03 -0.23978996796E+03 -0.42503987026E+03  0.64349347779E+03  0.40000000000E+03 0. -1.
<mgrwt>
<rscale>  2 0.48314073E+03</rscale>
<asrwt>0</asrwt>
<pdfrwt beam="1">  1        2 0.36008353E+00 0.48314073E+03</pdfrwt>
<pdfrwt beam="2">  1       -2 0.21774505E-01 0.48314073E+03</pdfrwt>
<totfact> 0.84955373E+01</totfact>
</mgrwt>
</event>
<event>
 4    1  0.2454657E-002  0.4037907E+03  0.7818608E-02  0.1042475E+00
         -1   -1    0    0    0  501 -0.00000000000E+00  0.00000000000E+00  0.12370124135E+03  0.12370124135E+03  0.00000000000E+00 0. -1.
          1   -1    0    0  502    0  0.00000000000E+00 -0.00000000000E+00 -0.13584724479E+04  0.13584724479E+04  0.00000000000E+00 0.  1.
    9000007    1    1    2  502    0 -0.31747598486E+02 -0.45155665854E+02 -0.74518988317E+03  0.84755820222E+03  0.40000000000E+03 0.  1.
   -9000007    1    1    2    0  501  0.31747598486E+02  0.45155665854E+02 -0.48958132338E+03  0.63461548702E+03  0.40000000000E+03 0. -1.
<mgrwt>
<rscale>  2 0.40379072E+03</rscale>
<asrwt>0</asrwt>
<pdfrwt beam="1">  1        1 0.20899575E+00 0.40379072E+03</pdfrwt>
<pdfrwt beam="2">  1       -1 0.19030961E-01 0.40379072E+03</pdfrwt>
<totfact> 0.19209771E+02</totfact>
</mgrwt>
</event>
<event>
 4    1  0.2454657E-002  0.4232015E+03  0.7818608E-02  0.1036029E+00
         -1   -1    0    0    0  501 -0.00000000000E+00  0.00000000000E+00  0.25443281698E+03  0.25443281698E+03  0.00000000000E+00 0. -1.
          1   -1    0    0  502    0  0.00000000000E+00 -0.00000000000E+00 -0.91666300832E+03  0.91666300832E+03  0.00000000000E+00 0.  1.
    9000007    1    1    2  502    0 -0.78497480896E+02 -0.11374395369E+03 -0.49024589727E+02  0.42603163252E+03  0.40000000000E+03 0. -1.
   -9000007    1    1    2    0  501  0.78497480896E+02  0.11374395369E+03 -0.61320560161E+03  0.74506419278E+03  0.40000000000E+03 0.  1.
<mgrwt>
<rscale>  2 0.42320154E+03</rscale>
<asrwt>0</asrwt>
<pdfrwt beam="1">  1        1 0.14102508E+00 0.42320154E+03</pdfrwt>
<pdfrwt beam="2">  1       -1 0.39143511E-01 0.42320154E+03</pdfrwt>
<totfact> 0.11745822E+02</totfact>
</mgrwt>
</event>
<event>
 4    1  0.2454657E-002  0.5182548E+03  0.7818608E-02  0.1009121E+00
          2   -1    0    0  502    0  0.00000000000E+00  0.00000000000E+00  0.27627534792E+04  0.27627534792E+04  0.00000000000E+00 0.  1.
         -2   -1    0    0    0  501 -0.00000000000E+00 -0.00000000000E+00 -0.11297710421E+03  0.11297710421E+03  0.00000000000E+00 0. -1.
    9000007    1    1    2  502    0 -0.26347880286E+03  0.19790630822E+03  0.18619145852E+04  0.19326960208E+04  0.40000000000E+03 0. -1.
   -9000007    1    1    2    0  501  0.26347880286E+03 -0.19790630822E+03  0.78786178975E+03  0.94303456253E+03  0.40000000000E+03 0. -1.
<mgrwt>
<rscale>  2 0.51825475E+03</rscale>
<asrwt>0</asrwt>
<pdfrwt beam="1">  1        2 0.42503895E+00 0.51825475E+03</pdfrwt>
<pdfrwt beam="2">  1       -2 0.17381095E-01 0.51825475E+03</pdfrwt>
<totfact> 0.72056946E+01</totfact>
</mgrwt>
</event>
<event>
 4    1  0.2454657E-002  0.4071268E+03  0.7818608E-02  0.1041339E+00
         -2   -1    0    0    0  501 -0.00000000000E+00  0.00000000000E+00  0.85100655357E+03  0.85100655357E+03  0.00000000000E+00 0.  1.
          2   -1    0    0  502    0  0.00000000000E+00 -0.00000000000E+00 -0.19527671699E+03  0.19527671699E+03  0.00000000000E+00 0. -1.
    9000007    1    1    2  502    0 -0.29702361695E+01  0.75785446822E+02  0.30126905619E+03  0.50647339562E+03  0.40000000000E+03 0. -1.
   -9000007    1    1    2    0  501  0.29702361695E+01 -0.75785446822E+02  0.35446078040E+03  0.53980987495E+03  0.40000000000E+03 0.  1.
<mgrwt>
<rscale>  2 0.40712683E+03</rscale>
<asrwt>0</asrwt>
<pdfrwt beam="1">  1        2 0.30042572E-01 0.40712683E+03</pdfrwt>
<pdfrwt beam="2">  1       -2 0.13092408E+00 0.40712683E+03</pdfrwt>
<totfact> 0.78049136E+01</totfact>
</mgrwt>
</event>
<event>
 4    1  0.2454657E-002  0.5133539E+03  0.7818608E-02  0.1010351E+00
         -2   -1    0    0    0  501 -0.00000000000E+00  0.00000000000E+00  0.13337568710E+03  0.13337568710E+03  0.00000000000E+00 0.  1.
          2   -1    0    0  502    0  0.00000000000E+00 -0.00000000000E+00 -0.19769596661E+04  0.19769596661E+04  0.00000000000E+00 0. -1.
    9000007    1    1    2  502    0 -0.30004214800E+03 -0.11621950015E+03 -0.89695516634E+03  0.10334702866E+04  0.40000000000E+03 0. -1.
   -9000007    1    1    2    0  501  0.30004214800E+03  0.11621950015E+03 -0.94662881268E+03  0.10768650667E+04  0.40000000000E+03 0.  1.
<mgrwt>
<rscale>  2 0.51335394E+03</rscale>
<asrwt>0</asrwt>
<pdfrwt beam="1">  1        2 0.30414761E+00 0.51335394E+03</pdfrwt>
<pdfrwt beam="2">  1       -2 0.20519339E-01 0.51335394E+03</pdfrwt>
<totfact> 0.14777678E+02</totfact>
</mgrwt>
</event>
<event>
 4    1  0.2454657E-002  0.4339754E+03  0.7818608E-02  0.1032611E+00
          1   -1    0    0  502    0  0.00000000000E+00  0.00000000000E+00  0.18216617553E+04  0.18216617553E+04  0.00000000000E+00 0. -1.
         -1   -1    0    0    0  501 -0.00000000000E+00 -0.00000000000E+00 -0.11048933447E+03  0.11048933447E+03  0.00000000000E+00 0.  1.
    9000007    1    1    2  502    0  0.91791605302E+00 -0.16832648457E+03  0.11005357208E+04  0.11830103637E+04  0.40000000000E+03 0. -1.
   -9000007    1    1    2    0  501 -0.91791605302E+00  0.16832648457E+03  0.61063670005E+03  0.74914072605E+03  0.40000000000E+03 0.  1.
<mgrwt>
<rscale>  2 0.43397540E+03</rscale>
<asrwt>0</asrwt>
<pdfrwt beam="1">  1        1 0.28025563E+00 0.43397540E+03</pdfrwt>
<pdfrwt beam="2">  1       -1 0.16998360E-01 0.43397540E+03</pdfrwt>
<totfact> 0.11264126E+02</totfact>
</mgrwt>
</event>
<event>
 4    1  0.2454657E-002  0.6427371E+03  0.7818608E-02  0.9820504E-01
         -2   -1    0    0    0  501 -0.00000000000E+00  0.00000000000E+00  0.63125741844E+03  0.63125741844E+03  0.00000000000E+00 0. -1.
          2   -1    0    0  502    0  0.00000000000E+00 -0.00000000000E+00 -0.66608991197E+03  0.66608991197E+03  0.00000000000E+00 0.  1.
    9000007    1    1    2  502    0 -0.11376522842E+03 -0.49006987960E+03 -0.10325619034E+03  0.65097838284E+03  0.40000000000E+03 0.  1.
   -9000007    1    1    2    0  501  0.11376522842E+03  0.49006987960E+03  0.68423696812E+02  0.64636894756E+03  0.40000000000E+03 0. -1.
<mgrwt>
<rscale>  2 0.64273713E+03</rscale>
<asrwt>0</asrwt>
<pdfrwt beam="1">  1        2 0.10247537E+00 0.64273713E+03</pdfrwt>
<pdfrwt beam="2">  1       -2 0.97116527E-01 0.64273713E+03</pdfrwt>
<totfact> 0.39457905E+01</totfact>
</mgrwt>
</event>
<event>
 4    1  0.2454657E-002  0.5350128E+03  0.7818608E-02  0.1005024E+00
         -2   -1    0    0    0  501 -0.00000000000E+00  0.00000000000E+00  0.28902302668E+03  0.28902302668E+03  0.00000000000E+00 0.  1.
          2   -1    0    0  502    0  0.00000000000E+00 -0.00000000000E+00 -0.12270051307E+04  0.12270051307E+04  0.00000000000E+00 0. -1.
    9000007    1    1    2  502    0 -0.27640331231E+03  0.22324852748E+03 -0.13610393271E+03  0.55205341823E+03  0.40000000000E+03 0.  1.
   -9000007    1    1    2    0  501  0.27640331231E+03 -0.22324852748E+03 -0.80187817130E+03  0.96397473914E+03  0.40000000000E+03 0. -1.
<mgrwt>
<rscale>  2 0.53501280E+03</rscale>
<asrwt>0</asrwt>
<pdfrwt beam="1">  1        2 0.18877002E+00 0.53501280E+03</pdfrwt>
<pdfrwt beam="2">  1       -2 0.44465081E-01 0.53501280E+03</pdfrwt>
<totfact> 0.90844484E+01</totfact>
</mgrwt>
</event>
<event>
 4    1  0.2454657E-002  0.4739547E+03  0.7818608E-02  0.1020810E+00
          1   -1    0    0  502    0  0.00000000000E+00  0.00000000000E+00  0.15838628679E+03  0.15838628679E+03  0.00000000000E+00 0.  1.
         -1   -1    0    0    0  501 -0.00000000000E+00 -0.00000000000E+00 -0.14269515712E+04  0.14269515712E+04  0.00000000000E+00 0. -1.
    9000007    1    1    2  502    0 -0.95069577181E+02 -0.23578564662E+03 -0.69614280196E+03  0.84216856767E+03  0.40000000000E+03 0.  1.
   -9000007    1    1    2    0  501  0.95069577181E+02  0.23578564662E+03 -0.57242248243E+03  0.74316929030E+03  0.40000000000E+03 0. -1.
<mgrwt>
<rscale>  2 0.47395474E+03</rscale>
<asrwt>0</asrwt>
<pdfrwt beam="1">  1        1 0.24367122E-01 0.47395474E+03</pdfrwt>
<pdfrwt beam="2">  1       -1 0.21953101E+00 0.47395474E+03</pdfrwt>
<totfact> 0.23767063E+01</totfact>
</mgrwt>
</event>
<event>
 4    1  0.2454657E-002  0.5237321E+03  0.7818608E-02  0.1007764E+00
         -2   -1    0    0    0  501 -0.00000000000E+00  0.00000000000E+00  0.38263089831E+03  0.38263089831E+03  0.00000000000E+00 0.  1.
          2   -1    0    0  502    0  0.00000000000E+00 -0.00000000000E+00 -0.76411471475E+03  0.76411471475E+03  0.00000000000E+00 0. -1.
    9000007    1    1    2  502    0 -0.25603874607E+03  0.22077018794E+03 -0.48164734551E+02  0.52594216129E+03  0.40000000000E+03 0.  1.
   -9000007    1    1    2    0  501  0.25603874607E+03 -0.22077018794E+03 -0.33331908189E+03  0.62080345176E+03  0.40000000000E+03 0. -1.
<mgrwt>
<rscale>  2 0.52373210E+03</rscale>
<asrwt>0</asrwt>
<pdfrwt beam="1">  1        2 0.11755611E+00 0.52373210E+03</pdfrwt>
<pdfrwt beam="2">  1       -2 0.58866293E-01 0.52373210E+03</pdfrwt>
<totfact> 0.10162083E+02</totfact>
</mgrwt>
</event>
<event>
 4    1  0.2454657E-002  0.5159565E+03  0.7818608E-02  0.1009696E+00
         -1   -1    0    0    0  501 -0.00000000000E+00  0.00000000000E+00  0.47557887852E+03  0.47557887852E+03  0.00000000000E+00 0. -1.
          1   -1    0    0  502    0  0.00000000000E+00 -0.00000000000E+00 -0.89832136040E+03  0.89832136040E+03  0.00000000000E+00 0.  1.
    9000007    1    1    2  502    0 -0.17305517374E+03 -0.27615752256E+03  0.21035112723E+03  0.55718817930E+03  0.40000000000E+03 0. -1.
   -9000007    1    1    2    0  501  0.17305517374E+03  0.27615752256E+03 -0.63309360911E+03  0.81671205962E+03  0.40000000000E+03 0.  1.
<mgrwt>
<rscale>  2 0.51595646E+03</rscale>
<asrwt>0</asrwt>
<pdfrwt beam="1">  1        1 0.13820329E+00 0.51595646E+03</pdfrwt>
<pdfrwt beam="2">  1       -1 0.73165981E-01 0.51595646E+03</pdfrwt>
<totfact> 0.36290504E+01</totfact>
</mgrwt>
</event>
<event>
 4    1  0.2454657E-002  0.6195922E+03  0.7818608E-02  0.9865572E-01
         -2   -1    0    0    0  501 -0.00000000000E+00  0.00000000000E+00  0.27327934165E+03  0.27327934165E+03  0.00000000000E+00 0.  1.
          2   -1    0    0  502    0  0.00000000000E+00 -0.00000000000E+00 -0.28207255385E+04  0.28207255385E+04  0.00000000000E+00 0. -1.
    9000007    1    1    2  502    0 -0.31818049194E+03 -0.35022231000E+03 -0.17766023322E+03  0.64456004401E+03  0.40000000000E+03 0.  1.
   -9000007    1    1    2    0  501  0.31818049194E+03  0.35022231000E+03 -0.23697859637E+04  0.24494448362E+04  0.40000000000E+03 0. -1.
<mgrwt>
<rscale>  2 0.61959220E+03</rscale>
<asrwt>0</asrwt>
<pdfrwt beam="1">  1        2 0.43395778E+00 0.61959220E+03</pdfrwt>
<pdfrwt beam="2">  1       -2 0.42042975E-01 0.61959220E+03</pdfrwt>
<totfact> 0.13042633E+01</totfact>
</mgrwt>
</event>
<event>
 4    1  0.2454657E-002  0.4519898E+03  0.7818608E-02  0.1027130E+00
         -2   -1    0    0    0  501 -0.00000000000E+00  0.00000000000E+00  0.27920994487E+03  0.27920994487E+03  0.00000000000E+00 0.  1.
          2   -1    0    0  502    0  0.00000000000E+00 -0.00000000000E+00 -0.75061693853E+03  0.75061693853E+03  0.00000000000E+00 0. -1.
    9000007    1    1    2  502    0 -0.10061771119E+03  0.18485357895E+03 -0.31747082855E+03  0.55234273458E+03  0.40000000000E+03 0. -1.
   -9000007    1    1    2    0  501  0.10061771119E+03 -0.18485357895E+03 -0.15393616510E+03  0.47748414883E+03  0.40000000000E+03 0.  1.
<mgrwt>
<rscale>  2 0.45198979E+03</rscale>
<asrwt>0</asrwt>
<pdfrwt beam="1">  1        2 0.11547953E+00 0.45198979E+03</pdfrwt>
<pdfrwt beam="2">  1       -2 0.42955376E-01 0.45198979E+03</pdfrwt>
<totfact> 0.19801324E+02</totfact>
</mgrwt>
</event>
<event>
 4    1  0.2454657E-002  0.4098425E+03  0.7818608E-02  0.1040424E+00
          4   -1    0    0  502    0  0.00000000000E+00  0.00000000000E+00  0.41856084056E+03  0.41856084056E+03  0.00000000000E+00 0.  1.
         -4   -1    0    0    0  501 -0.00000000000E+00 -0.00000000000E+00 -0.40130646613E+03  0.40130646613E+03  0.00000000000E+00 0. -1.
    9000007    1    1    2  502    0 -0.29673268461E+02  0.84204303938E+02  0.80755920759E+01  0.40992204485E+03  0.40000000000E+03 0.  1.
   -9000007    1    1    2    0  501  0.29673268461E+02 -0.84204303938E+02  0.91787823500E+01  0.40994526184E+03  0.40000000000E+03 0.  1.
<mgrwt>
<rscale>  2 0.40984249E+03</rscale>
<asrwt>0</asrwt>
<pdfrwt beam="1">  1        4 0.64393976E-01 0.40984249E+03</pdfrwt>
<pdfrwt beam="2">  1       -4 0.61739456E-01 0.40984249E+03</pdfrwt>
<totfact> 0.10662451E+01</totfact>
</mgrwt>
</event>
<event>
 4    1  0.2454657E-002  0.4409276E+03  0.7818608E-02  0.1030463E+00
          2   -1    0    0  502    0  0.00000000000E+00  0.00000000000E+00  0.31760070752E+03  0.31760070752E+03  0.00000000000E+00 0. -1.
         -2   -1    0    0    0  501 -0.00000000000E+00 -0.00000000000E+00 -0.64989474479E+03  0.64989474479E+03  0.00000000000E+00 0.  1.
    9000007    1    1    2  502    0 -0.63764702303E+02  0.17421589940E+03 -0.28273793765E+03  0.52379180811E+03  0.40000000000E+03 0. -1.
   -9000007    1    1    2    0  501  0.63764702303E+02 -0.17421589940E+03 -0.49556099615E+02  0.44370364420E+03  0.40000000000E+03 0.  1.
<mgrwt>
<rscale>  2 0.44092756E+03</rscale>
<asrwt>0</asrwt>
<pdfrwt beam="1">  1        2 0.48861648E-01 0.44092756E+03</pdfrwt>
<pdfrwt beam="2">  1       -2 0.99983805E-01 0.44092756E+03</pdfrwt>
<totfact> 0.87590621E+01</totfact>
</mgrwt>
</event>
<event>
 4    1  0.2454657E-002  0.4262324E+03  0.7818608E-02  0.1035057E+00
          2   -1    0    0  502    0  0.00000000000E+00  0.00000000000E+00  0.35647563791E+03  0.35647563791E+03  0.00000000000E+00 0.  1.
         -2   -1    0    0    0  501 -0.00000000000E+00 -0.00000000000E+00 -0.58402340672E+03  0.58402340672E+03  0.00000000000E+00 0. -1.
    9000007    1    1    2  502    0 -0.10218547176E+03  0.10598210282E+03 -0.28159733230E+03  0.51085333934E+03  0.40000000000E+03 0.  1.
   -9000007    1    1    2    0  501  0.10218547176E+03 -0.10598210282E+03  0.54049563491E+02  0.42964570528E+03  0.40000000000E+03 0.  1.
<mgrwt>
<rscale>  2 0.42623242E+03</rscale>
<asrwt>0</asrwt>
<pdfrwt beam="1">  1        2 0.54842406E-01 0.42623242E+03</pdfrwt>
<pdfrwt beam="2">  1       -2 0.89849754E-01 0.42623242E+03</pdfrwt>
<totfact> 0.98929796E+01</totfact>
</mgrwt>
</event>
<event>
 4    1  0.2454657E-002  0.4062579E+03  0.7818608E-02  0.1041634E+00
          2   -1    0    0  502    0  0.00000000000E+00  0.00000000000E+00  0.25231000021E+04  0.25231000021E+04  0.00000000000E+00 0. -1.
         -2   -1    0    0    0  501 -0.00000000000E+00 -0.00000000000E+00 -0.99317439035E+02  0.99317439035E+02  0.00000000000E+00 0.  1.
    9000007    1    1    2  502    0 -0.70488258837E+02  0.87667826884E+01  0.19779860633E+04  0.20192756914E+04  0.40000000000E+03 0. -1.
   -9000007    1    1    2    0  501  0.70488258837E+02 -0.87667826884E+01  0.44579649975E+03  0.60314174976E+03  0.40000000000E+03 0.  1.
<mgrwt>
<rscale>  2 0.40625786E+03</rscale>
<asrwt>0</asrwt>
<pdfrwt beam="1">  1        2 0.38816918E+00 0.40625786E+03</pdfrwt>
<pdfrwt beam="2">  1       -2 0.15279608E-01 0.40625786E+03</pdfrwt>
<totfact> 0.12546636E+02</totfact>
</mgrwt>
</event>
<event>
 4    1  0.2454657E-002  0.4226204E+03  0.7818608E-02  0.1036217E+00
          1   -1    0    0  502    0  0.00000000000E+00  0.00000000000E+00  0.13872335909E+04  0.13872335909E+04  0.00000000000E+00 0.  1.
         -1   -1    0    0    0  501 -0.00000000000E+00 -0.00000000000E+00 -0.30162957973E+03  0.30162957973E+03  0.00000000000E+00 0. -1.
    9000007    1    1    2  502    0 -0.11537054643E+03  0.72784912443E+02  0.11820918881E+04  0.12553681685E+04  0.40000000000E+03 0.  1.
   -9000007    1    1    2    0  501  0.11537054643E+03 -0.72784912443E+02 -0.96487876987E+02  0.43349500213E+03  0.40000000000E+03 0. -1.
<mgrwt>
<rscale>  2 0.42262040E+03</rscale>
<asrwt>0</asrwt>
<pdfrwt beam="1">  1        1 0.21342055E+00 0.42262040E+03</pdfrwt>
<pdfrwt beam="2">  1       -1 0.46404552E-01 0.42262040E+03</pdfrwt>
<totfact> 0.39214846E+01</totfact>
</mgrwt>
</event>
<event>
 4    1  0.2454657E-002  0.4419338E+03  0.7818608E-02  0.1030155E+00
          2   -1    0    0  502    0  0.00000000000E+00  0.00000000000E+00  0.17760562698E+04  0.17760562698E+04  0.00000000000E+00 0.  1.
         -2   -1    0    0    0  501 -0.00000000000E+00 -0.00000000000E+00 -0.11041494049E+03  0.11041494049E+03  0.00000000000E+00 0. -1.
    9000007    1    1    2  502    0 -0.56589220322E+00 -0.18789658503E+03  0.77266205112E+03  0.89011914491E+03  0.40000000000E+03 0. -1.
   -9000007    1    1    2    0  501  0.56589220322E+00  0.18789658503E+03  0.89297927821E+03  0.99635206539E+03  0.40000000000E+03 0. -1.
<mgrwt>
<rscale>  2 0.44193376E+03</rscale>
<asrwt>0</asrwt>
<pdfrwt beam="1">  1        2 0.27323941E+00 0.44193376E+03</pdfrwt>
<pdfrwt beam="2">  1       -2 0.16986915E-01 0.44193376E+03</pdfrwt>
<totfact> 0.26476241E+02</totfact>
</mgrwt>
</event>
<event>
 4    1  0.2454657E-002  0.4468832E+03  0.7818608E-02  0.1028656E+00
         -2   -1    0    0    0  501 -0.00000000000E+00  0.00000000000E+00  0.17448680494E+03  0.17448680494E+03  0.00000000000E+00 0. -1.
          2   -1    0    0  502    0  0.00000000000E+00 -0.00000000000E+00 -0.11527014182E+04  0.11527014182E+04  0.00000000000E+00 0.  1.
    9000007    1    1    2  502    0  0.10944092024E+03 -0.16651502657E+03 -0.43321954357E+03  0.62240159225E+03  0.40000000000E+03 0. -1.
   -9000007    1    1    2    0  501 -0.10944092024E+03  0.16651502657E+03 -0.54499506964E+03  0.70478663085E+03  0.40000000000E+03 0.  1.
<mgrwt>
<rscale>  2 0.44688317E+03</rscale>
<asrwt>0</asrwt>
<pdfrwt beam="1">  1        2 0.17733868E+00 0.44688317E+03</pdfrwt>
<pdfrwt beam="2">  1       -2 0.26844124E-01 0.44688317E+03</pdfrwt>
<totfact> 0.26297403E+02</totfact>
</mgrwt>
</event>
<event>
 4    1  0.2454657E-002  0.4141916E+03  0.7818608E-02  0.1038973E+00
         -2   -1    0    0    0  501 -0.00000000000E+00  0.00000000000E+00  0.70849102425E+02  0.70849102425E+02  0.00000000000E+00 0.  1.
          2   -1    0    0  502    0  0.00000000000E+00 -0.00000000000E+00 -0.24749990531E+04  0.24749990531E+04  0.00000000000E+00 0. -1.
    9000007    1    1    2  502    0  0.59680070759E+02  0.89403199556E+02 -0.13893835779E+04  0.14498073560E+04  0.40000000000E+03 0. -1.
   -9000007    1    1    2    0  501 -0.59680070759E+02 -0.89403199556E+02 -0.10147663728E+04  0.10960407995E+04  0.40000000000E+03 0.  1.
<mgrwt>
<rscale>  2 0.41419155E+03</rscale>
<asrwt>0</asrwt>
<pdfrwt beam="1">  1        2 0.38076909E+00 0.41419155E+03</pdfrwt>
<pdfrwt beam="2">  1       -2 0.10899862E-01 0.41419155E+03</pdfrwt>
<totfact> 0.23244916E+02</totfact>
</mgrwt>
</event>
<event>
 4    1  0.2454657E-002  0.4889772E+03  0.7818608E-02  0.1016697E+00
          1   -1    0    0  502    0  0.00000000000E+00  0.00000000000E+00  0.22282554076E+04  0.22282554076E+04  0.00000000000E+00 0. -1.
         -1   -1    0    0    0  501 -0.00000000000E+00 -0.00000000000E+00 -0.22925261393E+03  0.22925261393E+03  0.00000000000E+00 0.  1.
    9000007    1    1    2  502    0  0.27911331343E+03  0.34561014004E+02  0.10331604091E+03  0.49977285814E+03  0.40000000000E+03 0.  1.
   -9000007    1    1    2    0  501 -0.27911331343E+03 -0.34561014004E+02  0.18956867527E+04  0.19577351634E+04  0.40000000000E+03 0. -1.
<mgrwt>
<rscale>  2 0.48897720E+03</rscale>
<asrwt>0</asrwt>
<pdfrwt beam="1">  1        1 0.34280851E+00 0.48897720E+03</pdfrwt>
<pdfrwt beam="2">  1       -1 0.35269634E-01 0.48897720E+03</pdfrwt>
<totfact> 0.17489666E+01</totfact>
</mgrwt>
</event>
<event>
 4    1  0.2454657E-002  0.4239744E+03  0.7818608E-02  0.1035781E+00
          4   -1    0    0  502    0  0.00000000000E+00  0.00000000000E+00  0.68212458141E+03  0.68212458141E+03  0.00000000000E+00 0. -1.
         -4   -1    0    0    0  501 -0.00000000000E+00 -0.00000000000E+00 -0.28401404881E+03  0.28401404881E+03  0.00000000000E+00 0.  1.
    9000007    1    1    2  502    0 -0.29080537010E+02 -0.13750846839E+03  0.32881537512E+03  0.53653872873E+03  0.40000000000E+03 0. -1.
   -9000007    1    1    2    0  501  0.29080537010E+02  0.13750846839E+03  0.69295157489E+02  0.42959990149E+03  0.40000000000E+03 0.  1.
<mgrwt>
<rscale>  2 0.42397436E+03</rscale>
<asrwt>0</asrwt>
<pdfrwt beam="1">  1        4 0.10494224E+00 0.42397436E+03</pdfrwt>
<pdfrwt beam="2">  1       -4 0.43694469E-01 0.42397436E+03</pdfrwt>
<totfact> 0.72453714E+00</totfact>
</mgrwt>
</event>
<event>
 4    1  0.2454657E-002  0.4873281E+03  0.7818608E-02  0.1017140E+00
         -2   -1    0    0    0  501 -0.00000000000E+00  0.00000000000E+00  0.19715016287E+03  0.19715016287E+03  0.00000000000E+00 0.  1.
          2   -1    0    0  502    0  0.00000000000E+00 -0.00000000000E+00 -0.12530664025E+04  0.12530664025E+04  0.00000000000E+00 0. -1.
    9000007    1    1    2  502    0  0.25245397376E+03 -0.11728438657E+03 -0.67055203296E+03  0.82893224398E+03  0.40000000000E+03 0.  1.
   -9000007    1    1    2    0  501 -0.25245397376E+03  0.11728438657E+03 -0.38536420662E+03  0.62128432134E+03  0.40000000000E+03 0.  1.
<mgrwt>
<rscale>  2 0.48732806E+03</rscale>
<asrwt>0</asrwt>
<pdfrwt beam="1">  1        2 0.19277945E+00 0.48732806E+03</pdfrwt>
<pdfrwt beam="2">  1       -2 0.30330795E-01 0.48732806E+03</pdfrwt>
<totfact> 0.18317640E+02</totfact>
</mgrwt>
</event>
<event>
 4    1  0.2454657E-002  0.5470822E+03  0.7818608E-02  0.1002172E+00
          2   -1    0    0  502    0  0.00000000000E+00  0.00000000000E+00  0.20023977769E+04  0.20023977769E+04  0.00000000000E+00 0.  1.
         -2   -1    0    0    0  501 -0.00000000000E+00 -0.00000000000E+00 -0.15206587411E+03  0.15206587411E+03  0.00000000000E+00 0. -1.
    9000007    1    1    2  502    0  0.18862433856E+03 -0.32205554162E+03  0.10659046391E+04  0.11981033397E+04  0.40000000000E+03 0.  1.
   -9000007    1    1    2    0  501 -0.18862433856E+03  0.32205554162E+03  0.78442726364E+03  0.95636031125E+03  0.40000000000E+03 0.  1.
<mgrwt>
<rscale>  2 0.54708218E+03</rscale>
<asrwt>0</asrwt>
<pdfrwt beam="1">  1        2 0.30806118E+00 0.54708218E+03</pdfrwt>
<pdfrwt beam="2">  1       -2 0.23394751E-01 0.54708218E+03</pdfrwt>
<totfact> 0.11311992E+02</totfact>
</mgrwt>
</event>
<event>
 4    1  0.2454657E-002  0.4853431E+03  0.7818608E-02  0.1017677E+00
         -1   -1    0    0    0  501 -0.00000000000E+00  0.00000000000E+00  0.38382037597E+03  0.38382037597E+03  0.00000000000E+00 0.  1.
          1   -1    0    0  502    0  0.00000000000E+00 -0.00000000000E+00 -0.61646606961E+03  0.61646606961E+03  0.00000000000E+00 0. -1.
    9000007    1    1    2  502    0 -0.27139551204E+03 -0.43616827294E+02 -0.82937551892E+02  0.49237850186E+03  0.40000000000E+03 0. -1.
   -9000007    1    1    2    0  501  0.27139551204E+03  0.43616827294E+02 -0.14970814175E+03  0.50790794371E+03  0.40000000000E+03 0. -1.
<mgrwt>
<rscale>  2 0.48534313E+03</rscale>
<asrwt>0</asrwt>
<pdfrwt beam="1">  1        1 0.94840934E-01 0.48534313E+03</pdfrwt>
<pdfrwt beam="2">  1       -1 0.59049288E-01 0.48534313E+03</pdfrwt>
<totfact> 0.99730120E+01</totfact>
</mgrwt>
</event>
<event>
 4    1  0.2454657E-002  0.4314454E+03  0.7818608E-02  0.1033404E+00
          2   -1    0    0  502    0  0.00000000000E+00  0.00000000000E+00  0.18062090357E+04  0.18062090357E+04  0.00000000000E+00 0. -1.
         -2   -1    0    0    0  501 -0.00000000000E+00 -0.00000000000E+00 -0.11167165830E+03  0.11167165830E+03  0.00000000000E+00 0.  1.
    9000007    1    1    2  502    0  0.15948480526E+03 -0.26640036955E+02  0.58094934702E+03  0.72363474107E+03  0.40000000000E+03 0. -1.
   -9000007    1    1    2    0  501 -0.15948480526E+03  0.26640036955E+02  0.11135880304E+04  0.11942459529E+04  0.40000000000E+03 0. -1.
<mgrwt>
<rscale>  2 0.43144536E+03</rscale>
<asrwt>0</asrwt>
<pdfrwt beam="1">  1        2 0.27787829E+00 0.43144536E+03</pdfrwt>
<pdfrwt beam="2">  1       -2 0.17180256E-01 0.43144536E+03</pdfrwt>
<totfact> 0.25059048E+02</totfact>
</mgrwt>
</event>
<event>
 4    1  0.2454657E-002  0.4039606E+03  0.7818608E-02  0.1042417E+00
          2   -1    0    0  502    0  0.00000000000E+00  0.00000000000E+00  0.23524968261E+04  0.23524968261E+04  0.00000000000E+00 0.  1.
         -2   -1    0    0    0  501 -0.00000000000E+00 -0.00000000000E+00 -0.70942255391E+02  0.70942255391E+02  0.00000000000E+00 0. -1.
    9000007    1    1    2  502    0 -0.54469426620E+02  0.14739292111E+02  0.96017970138E+03  0.10416953605E+04  0.40000000000E+03 0. -1.
   -9000007    1    1    2    0  501  0.54469426620E+02 -0.14739292111E+02  0.13213748693E+04  0.13817437210E+04  0.40000000000E+03 0.  1.
<mgrwt>
<rscale>  2 0.40396060E+03</rscale>
<asrwt>0</asrwt>
<pdfrwt beam="1">  1        2 0.36192253E+00 0.40396060E+03</pdfrwt>
<pdfrwt beam="2">  1       -2 0.10914195E-01 0.40396060E+03</pdfrwt>
<totfact> 0.27141360E+02</totfact>
</mgrwt>
</event>
<event>
 4    1  0.2454657E-002  0.5203493E+03  0.7818608E-02  0.1008600E+00
         -1   -1    0    0    0  501 -0.00000000000E+00  0.00000000000E+00  0.78790830346E+03  0.78790830346E+03  0.00000000000E+00 0.  1.
          1   -1    0    0  502    0  0.00000000000E+00 -0.00000000000E+00 -0.57627479184E+03  0.57627479184E+03  0.00000000000E+00 0. -1.
    9000007    1    1    2  502    0  0.20570700193E+03 -0.26162576387E+03  0.53918528381E+03  0.74932248148E+03  0.40000000000E+03 0.  1.
   -9000007    1    1    2    0  501 -0.20570700193E+03  0.26162576387E+03 -0.32755177220E+03  0.61486061383E+03  0.40000000000E+03 0. -1.
<mgrwt>
<rscale>  2 0.52034932E+03</rscale>
<asrwt>0</asrwt>
<pdfrwt beam="1">  1        1 0.88657660E-01 0.52034932E+03</pdfrwt>
<pdfrwt beam="2">  1       -1 0.12121666E+00 0.52034932E+03</pdfrwt>
<totfact> 0.23150694E+01</totfact>
</mgrwt>
</event>
<event>
 4    1  0.2454657E-002  0.4075325E+03  0.7818608E-02  0.1041202E+00
          2   -1    0    0  502    0  0.00000000000E+00  0.00000000000E+00  0.37184005262E+03  0.37184005262E+03  0.00000000000E+00 0. -1.
         -2   -1    0    0    0  501 -0.00000000000E+00 -0.00000000000E+00 -0.92640619509E+03  0.92640619509E+03  0.00000000000E+00 0.  1.
    9000007    1    1    2  502    0  0.29182996468E+02  0.72326312716E+02 -0.74441137698E+03  0.84866426870E+03  0.40000000000E+03 0.  1.
   -9000007    1    1    2    0  501 -0.29182996468E+02 -0.72326312716E+02  0.18984523451E+03  0.44958197902E+03  0.40000000000E+03 0. -1.
<mgrwt>
<rscale>  2 0.40753251E+03</rscale>
<asrwt>0</asrwt>
<pdfrwt beam="1">  1        2 0.57206162E-01 0.40753251E+03</pdfrwt>
<pdfrwt beam="2">  1       -2 0.14252403E+00 0.40753251E+03</pdfrwt>
<totfact> 0.30958653E+01</totfact>
</mgrwt>
</event>
<event>
 4    1  0.2454657E-002  0.4520406E+03  0.7818608E-02  0.1027115E+00
         -1   -1    0    0    0  501 -0.00000000000E+00  0.00000000000E+00  0.97791240088E+03  0.97791240088E+03  0.00000000000E+00 0.  1.
          1   -1    0    0  502    0  0.00000000000E+00 -0.00000000000E+00 -0.48566463893E+03  0.48566463893E+03  0.00000000000E+00 0. -1.
    9000007    1    1    2  502    0 -0.15062173276E+03 -0.14715232701E+03 -0.30624432022E+03  0.54600942976E+03  0.40000000000E+03 0. -1.
   -9000007    1    1    2    0  501  0.15062173276E+03  0.14715232701E+03  0.79849208217E+03  0.91756761005E+03  0.40000000000E+03 0.  1.
<mgrwt>
<rscale>  2 0.45204061E+03</rscale>
<asrwt>0</asrwt>
<pdfrwt beam="1">  1        1 0.74717637E-01 0.45204061E+03</pdfrwt>
<pdfrwt beam="2">  1       -1 0.15044806E+00 0.45204061E+03</pdfrwt>
<totfact> 0.17117640E+01</totfact>
</mgrwt>
</event>
<event>
 4    1  0.2454657E-002  0.4270145E+03  0.7818608E-02  0.1034807E+00
         -2   -1    0    0    0  501 -0.00000000000E+00  0.00000000000E+00  0.58966591653E+03  0.58966591653E+03  0.00000000000E+00 0. -1.
          2   -1    0    0  502    0  0.00000000000E+00 -0.00000000000E+00 -0.35366619179E+03  0.35366619179E+03  0.00000000000E+00 0.  1.
    9000007    1    1    2  502    0  0.62841330766E+02 -0.13561850184E+03 -0.49191712916E+02  0.42983861566E+03  0.40000000000E+03 0.  1.
   -9000007    1    1    2    0  501 -0.62841330766E+02  0.13561850184E+03  0.28519143766E+03  0.51349349266E+03  0.40000000000E+03 0. -1.
<mgrwt>
<rscale>  2 0.42701453E+03</rscale>
<asrwt>0</asrwt>
<pdfrwt beam="1">  1        2 0.54410184E-01 0.42701453E+03</pdfrwt>
<pdfrwt beam="2">  1       -2 0.90717833E-01 0.42701453E+03</pdfrwt>
<totfact> 0.97616976E+01</totfact>
</mgrwt>
</event>
<event>
 4    1  0.2454657E-002  0.4018473E+03  0.7818608E-02  0.1043142E+00
         -2   -1    0    0    0  501 -0.00000000000E+00  0.00000000000E+00  0.44112990333E+03  0.44112990333E+03  0.00000000000E+00 0. -1.
          2   -1    0    0  502    0  0.00000000000E+00 -0.00000000000E+00 -0.14860159386E+04  0.14860159386E+04  0.00000000000E+00 0.  1.
    9000007    1    1    2  502    0 -0.36731704793E+02 -0.11491414381E+02  0.31407012425E+03  0.51002089534E+03  0.40000000000E+03 0. -1.
   -9000007    1    1    2    0  501  0.36731704793E+02  0.11491414381E+02 -0.13589561595E+04  0.14171249466E+04  0.40000000000E+03 0.  1.
<mgrwt>
<rscale>  2 0.40184732E+03</rscale>
<asrwt>0</asrwt>
<pdfrwt beam="1">  1        2 0.22861784E+00 0.40184732E+03</pdfrwt>
<pdfrwt beam="2">  1       -2 0.67866138E-01 0.40184732E+03</pdfrwt>
<totfact> 0.27794160E+01</totfact>
</mgrwt>
</event>
<event>
 4    1  0.2454657E-002  0.6014124E+03  0.7818608E-02  0.9902480E-01
          2   -1    0    0  502    0  0.00000000000E+00  0.00000000000E+00  0.24003096341E+04  0.24003096341E+04  0.00000000000E+00 0. -1.
         -2   -1    0    0    0  501 -0.00000000000E+00 -0.00000000000E+00 -0.15801252721E+03  0.15801252721E+03  0.00000000000E+00 0.  1.
    9000007    1    1    2  502    0  0.10246237579E+02 -0.44898983407E+03  0.13965597851E+04  0.15205512454E+04  0.40000000000E+03 0. -1.
   -9000007    1    1    2    0  501 -0.10246237579E+02  0.44898983407E+03  0.84573732176E+03  0.10377709159E+04  0.40000000000E+03 0.  1.
<mgrwt>
<rscale>  2 0.60141238E+03</rscale>
<asrwt>0</asrwt>
<pdfrwt beam="1">  1        2 0.36927838E+00 0.60141238E+03</pdfrwt>
<pdfrwt beam="2">  1       -2 0.24309621E-01 0.60141238E+03</pdfrwt>
<totfact> 0.63464749E+01</totfact>
</mgrwt>
</event>
<event>
 4    1  0.2454657E-002  0.5801105E+03  0.7818608E-02  0.9947552E-01
         -2   -1    0    0    0  501 -0.00000000000E+00  0.00000000000E+00  0.64507591293E+03  0.64507591293E+03  0.00000000000E+00 0.  1.
          2   -1    0    0  502    0  0.00000000000E+00 -0.00000000000E+00 -0.78522503221E+03  0.78522503221E+03  0.00000000000E+00 0. -1.
    9000007    1    1    2  502    0 -0.33637934757E+03  0.25174822234E+03 -0.48438068417E+03  0.75574657136E+03  0.40000000000E+03 0. -1.
   -9000007    1    1    2    0  501  0.33637934757E+03 -0.25174822234E+03  0.34423156489E+03  0.67455437378E+03  0.40000000000E+03 0.  1.
<mgrwt>
<rscale>  2 0.58011054E+03</rscale>
<asrwt>0</asrwt>
<pdfrwt beam="1">  1        2 0.12080385E+00 0.58011054E+03</pdfrwt>
<pdfrwt beam="2">  1       -2 0.99242448E-01 0.58011054E+03</pdfrwt>
<totfact> 0.30629754E+01</totfact>
</mgrwt>
</event>
<event>
 4    1  0.2454657E-002  0.4907708E+03  0.7818608E-02  0.1016216E+00
         -1   -1    0    0    0  501 -0.00000000000E+00  0.00000000000E+00  0.39124482575E+03  0.39124482575E+03  0.00000000000E+00 0.  1.
          1   -1    0    0  502    0  0.00000000000E+00 -0.00000000000E+00 -0.96252626769E+03  0.96252626769E+03  0.00000000000E+00 0. -1.
    9000007    1    1    2  502    0  0.24825982967E+03 -0.13864733399E+03  0.12072624844E+03  0.50540167522E+03  0.40000000000E+03 0.  1.
   -9000007    1    1    2    0  501 -0.24825982967E+03  0.13864733399E+03 -0.69200769037E+03  0.84836941822E+03  0.40000000000E+03 0. -1.
<mgrwt>
<rscale>  2 0.49077085E+03</rscale>
<asrwt>0</asrwt>
<pdfrwt beam="1">  1        1 0.14808096E+00 0.49077085E+03</pdfrwt>
<pdfrwt beam="2">  1       -1 0.60191512E-01 0.49077085E+03</pdfrwt>
<totfact> 0.47922770E+01</totfact>
</mgrwt>
</event>
<event>
 4    1  0.2454657E-002  0.4279563E+03  0.7818608E-02  0.1034508E+00
         -2   -1    0    0    0  501 -0.00000000000E+00  0.00000000000E+00  0.75879199920E+02  0.75879199920E+02  0.00000000000E+00 0. -1.
          2   -1    0    0  502    0  0.00000000000E+00 -0.00000000000E+00 -0.24144176554E+04  0.24144176554E+04  0.00000000000E+00 0.  1.
    9000007    1    1    2  502    0 -0.15059202644E+03 -0.21647397961E+02 -0.11472078997E+04  0.12244315143E+04  0.40000000000E+03 0.  1.
   -9000007    1    1    2    0  501  0.15059202644E+03  0.21647397961E+02 -0.11913305558E+04  0.12658653410E+04  0.40000000000E+03 0. -1.
<mgrwt>
<rscale>  2 0.42795627E+03</rscale>
<asrwt>0</asrwt>
<pdfrwt beam="1">  1        2 0.37144879E+00 0.42795627E+03</pdfrwt>
<pdfrwt beam="2">  1       -2 0.11673726E-01 0.42795627E+03</pdfrwt>
<totfact> 0.22404296E+02</totfact>
</mgrwt>
</event>
<event>
 4    1  0.2454657E-002  0.4410681E+03  0.7818608E-02  0.1030420E+00
          2   -1    0    0  502    0  0.00000000000E+00  0.00000000000E+00  0.16175757217E+03  0.16175757217E+03  0.00000000000E+00 0.  1.
         -2   -1    0    0    0  501 -0.00000000000E+00 -0.00000000000E+00 -0.12225340676E+04  0.12225340676E+04  0.00000000000E+00 0. -1.
    9000007    1    1    2  502    0  0.14315280404E+03  0.11852555896E+03 -0.61861444294E+03  0.75975315889E+03  0.40000000000E+03 0. -1.
   -9000007    1    1    2    0  501 -0.14315280404E+03 -0.11852555896E+03 -0.44216205244E+03  0.62453848084E+03  0.40000000000E+03 0.  1.
<mgrwt>
<rscale>  2 0.44106806E+03</rscale>
<asrwt>0</asrwt>
<pdfrwt beam="1">  1        2 0.24885779E-01 0.44106806E+03</pdfrwt>
<pdfrwt beam="2">  1       -2 0.18808217E+00 0.44106806E+03</pdfrwt>
<totfact> 0.36596286E+01</totfact>
</mgrwt>
</event>
<event>
 4    1  0.2454657E-002  0.4367101E+03  0.7818608E-02  0.1031761E+00
         -1   -1    0    0    0  501 -0.00000000000E+00  0.00000000000E+00  0.39656630275E+03  0.39656630275E+03  0.00000000000E+00 0.  1.
          1   -1    0    0  502    0  0.00000000000E+00 -0.00000000000E+00 -0.62150938227E+03  0.62150938227E+03  0.00000000000E+00 0. -1.
    9000007    1    1    2  502    0  0.17487835592E+03  0.11545875926E+02  0.12963474781E+03  0.45554463498E+03  0.40000000000E+03 0.  1.
   -9000007    1    1    2    0  501 -0.17487835592E+03 -0.11545875926E+02 -0.35457782733E+03  0.56253105004E+03  0.40000000000E+03 0. -1.
<mgrwt>
<rscale>  2 0.43671014E+03</rscale>
<asrwt>0</asrwt>
<pdfrwt beam="1">  1        1 0.95616828E-01 0.43671014E+03</pdfrwt>
<pdfrwt beam="2">  1       -1 0.61010201E-01 0.43671014E+03</pdfrwt>
<totfact> 0.93004613E+01</totfact>
</mgrwt>
</event>
<event>
 4    1  0.2454657E-002  0.4659815E+03  0.7818608E-02  0.1023061E+00
          2   -1    0    0  502    0  0.00000000000E+00  0.00000000000E+00  0.32097598738E+04  0.32097598738E+04  0.00000000000E+00 0.  1.
         -2   -1    0    0    0  501 -0.00000000000E+00 -0.00000000000E+00 -0.67813685484E+02  0.67813685484E+02  0.00000000000E+00 0. -1.
    9000007    1    1    2  502    0  0.23233572394E+03 -0.56203719860E+02  0.16516021415E+04  0.17160793631E+04  0.40000000000E+03 0.  1.
   -9000007    1    1    2    0  501 -0.23233572394E+03  0.56203719860E+02  0.14903440468E+04  0.15614941962E+04  0.40000000000E+03 0.  1.
<mgrwt>
<rscale>  2 0.46598149E+03</rscale>
<asrwt>0</asrwt>
<pdfrwt beam="1">  1        2 0.49380909E+00 0.46598149E+03</pdfrwt>
<pdfrwt beam="2">  1       -2 0.10432877E-01 0.46598149E+03</pdfrwt>
<totfact> 0.91389035E+01</totfact>
</mgrwt>
</event>
<event>
 4    1  0.2454657E-002  0.5532153E+03  0.7818608E-02  0.1000752E+00
          1   -1    0    0  502    0  0.00000000000E+00  0.00000000000E+00  0.59155180654E+03  0.59155180654E+03  0.00000000000E+00 0.  1.
         -1   -1    0    0    0  501 -0.00000000000E+00 -0.00000000000E+00 -0.51902462382E+03  0.51902462382E+03  0.00000000000E+00 0. -1.
    9000007    1    1    2  502    0 -0.36993783248E+03 -0.95881005520E+02  0.48470966558E+01  0.55323653302E+03  0.40000000000E+03 0. -1.
   -9000007    1    1    2    0  501  0.36993783248E+03  0.95881005520E+02  0.67680086064E+02  0.55733989734E+03  0.40000000000E+03 0.  1.
<mgrwt>
<rscale>  2 0.55321530E+03</rscale>
<asrwt>0</asrwt>
<pdfrwt beam="1">  1        1 0.91007970E-01 0.55321530E+03</pdfrwt>
<pdfrwt beam="2">  1       -1 0.79849943E-01 0.55321530E+03</pdfrwt>
<totfact> 0.56992939E+01</totfact>
</mgrwt>
</event>
<event>
 4    1  0.2454657E-002  0.4683989E+03  0.7818608E-02  0.1022373E+00
          2   -1    0    0  502    0  0.00000000000E+00  0.00000000000E+00  0.23179978228E+04  0.23179978228E+04  0.00000000000E+00 0.  1.
         -2   -1    0    0    0  501 -0.00000000000E+00 -0.00000000000E+00 -0.12435538628E+03  0.12435538628E+03  0.00000000000E+00 0. -1.
    9000007    1    1    2  502    0  0.11371448160E+03  0.21556095398E+03  0.16936735373E+04  0.17572499991E+04  0.40000000000E+03 0.  1.
   -9000007    1    1    2    0  501 -0.11371448160E+03 -0.21556095398E+03  0.49996889920E+03  0.68510321001E+03  0.40000000000E+03 0. -1.
<mgrwt>
<rscale>  2 0.46839888E+03</rscale>
<asrwt>0</asrwt>
<pdfrwt beam="1">  1        2 0.35661502E+00 0.46839888E+03</pdfrwt>
<pdfrwt beam="2">  1       -2 0.19131600E-01 0.46839888E+03</pdfrwt>
<totfact> 0.10979463E+02</totfact>
</mgrwt>
</event>
<event>
 4    1  0.2454657E-002  0.6461925E+03  0.7818608E-02  0.9813950E-01
         -2   -1    0    0    0  501 -0.00000000000E+00  0.00000000000E+00  0.17067856630E+03  0.17067856630E+03  0.00000000000E+00 0. -1.
          2   -1    0    0  502    0  0.00000000000E+00 -0.00000000000E+00 -0.24468849235E+04  0.24468849235E+04  0.00000000000E+00 0.  1.
    9000007    1    1    2  502    0  0.79822703846E+02  0.50119165217E+03 -0.11216409918E+04  0.12944663962E+04  0.40000000000E+03 0. -1.
   -9000007    1    1    2    0  501 -0.79822703846E+02 -0.50119165217E+03 -0.11545653654E+04  0.13230970936E+04  0.40000000000E+03 0.  1.
<mgrwt>
<rscale>  2 0.64619249E+03</rscale>
<asrwt>0</asrwt>
<pdfrwt beam="1">  1        2 0.37644383E+00 0.64619249E+03</pdfrwt>
<pdfrwt beam="2">  1       -2 0.26258242E-01 0.64619249E+03</pdfrwt>
<totfact> 0.51662053E+01</totfact>
</mgrwt>
</event>
<event>
 4    1  0.2454657E-002  0.4014271E+03  0.7818608E-02  0.1043287E+00
          1   -1    0    0  502    0  0.00000000000E+00  0.00000000000E+00  0.67541008312E+03  0.67541008312E+03  0.00000000000E+00 0. -1.
         -1   -1    0    0    0  501 -0.00000000000E+00 -0.00000000000E+00 -0.29354096051E+03  0.29354096051E+03  0.00000000000E+00 0.  1.
    9000007    1    1    2  502    0  0.33287194960E+02 -0.59754432435E+01  0.40055753015E+03  0.56708912724E+03  0.40000000000E+03 0. -1.
   -9000007    1    1    2    0  501 -0.33287194960E+02  0.59754432435E+01 -0.18688407551E+02  0.40186191639E+03  0.40000000000E+03 0.  1.
<mgrwt>
<rscale>  2 0.40142713E+03</rscale>
<asrwt>0</asrwt>
<pdfrwt beam="1">  1        1 0.10390924E+00 0.40142713E+03</pdfrwt>
<pdfrwt beam="2">  1       -1 0.45160148E-01 0.40142713E+03</pdfrwt>
<totfact> 0.14633540E+02</totfact>
</mgrwt>
</event>
<event>
 4    1  0.2454657E-002  0.4253307E+03  0.7818608E-02  0.1035345E+00
         -2   -1    0    0    0  501 -0.00000000000E+00  0.00000000000E+00  0.82110176804E+02  0.82110176804E+02  0.00000000000E+00 0.  1.
          2   -1    0    0  502    0  0.00000000000E+00 -0.00000000000E+00 -0.23446986670E+04  0.23446986670E+04  0.00000000000E+00 0. -1.
    9000007    1    1    2  502    0 -0.10851996152E+03  0.95549030518E+02 -0.14293643766E+04  0.14913043688E+04  0.40000000000E+03 0. -1.
   -9000007    1    1    2    0  501  0.10851996152E+03 -0.95549030518E+02 -0.83322411355E+03  0.93550447496E+03  0.40000000000E+03 0. -1.
<mgrwt>
<rscale>  2 0.42533069E+03</rscale>
<asrwt>0</asrwt>
<pdfrwt beam="1">  1        2 0.36072290E+00 0.42533069E+03</pdfrwt>
<pdfrwt beam="2">  1       -2 0.12632334E-01 0.42533069E+03</pdfrwt>
<totfact> 0.21511337E+02</totfact>
</mgrwt>
</event>
<event>
 4    1  0.2454657E-002  0.4102414E+03  0.7818608E-02  0.1040290E+00
          2   -1    0    0  502    0  0.00000000000E+00  0.00000000000E+00  0.74872823256E+03  0.74872823256E+03  0.00000000000E+00 0.  1.
         -2   -1    0    0    0  501 -0.00000000000E+00 -0.00000000000E+00 -0.76639246523E+03  0.76639246523E+03  0.00000000000E+00 0. -1.
    9000007    1    1    2  502    0  0.10127673501E+02  0.90528783021E+02  0.62801698125E+03  0.75013556046E+03  0.40000000000E+03 0.  1.
   -9000007    1    1    2    0  501 -0.10127673501E+02 -0.90528783021E+02 -0.64568121392E+03  0.76498513733E+03  0.40000000000E+03 0. -1.
<mgrwt>
<rscale>  2 0.41024143E+03</rscale>
<asrwt>0</asrwt>
<pdfrwt beam="1">  1        2 0.11518896E+00 0.41024143E+03</pdfrwt>
<pdfrwt beam="2">  1       -2 0.11790653E+00 0.41024143E+03</pdfrwt>
<totfact> 0.22061737E+01</totfact>
</mgrwt>
</event>
<event>
 4    1  0.2454657E-002  0.4336230E+03  0.7818608E-02  0.1032722E+00
          2   -1    0    0  502    0  0.00000000000E+00  0.00000000000E+00  0.90530248935E+03  0.90530248935E+03  0.00000000000E+00 0.  1.
         -2   -1    0    0    0  501 -0.00000000000E+00 -0.00000000000E+00 -0.21237019501E+03  0.21237019501E+03  0.00000000000E+00 0. -1.
    9000007    1    1    2  502    0 -0.95867535442E+02 -0.13725289765E+03  0.26357124680E+03  0.50744334108E+03  0.40000000000E+03 0.  1.
   -9000007    1    1    2    0  501  0.95867535442E+02  0.13725289765E+03  0.42936104753E+03  0.61022934328E+03  0.40000000000E+03 0. -1.
<mgrwt>
<rscale>  2 0.43362304E+03</rscale>
<asrwt>0</asrwt>
<pdfrwt beam="1">  1        2 0.13927730E+00 0.43362304E+03</pdfrwt>
<pdfrwt beam="2">  1       -2 0.32672338E-01 0.43362304E+03</pdfrwt>
<totfact> 0.26130647E+02</totfact>
</mgrwt>
</event>
<event>
 4    1  0.2454657E-002  0.4221228E+03  0.7818608E-02  0.1036378E+00
          4   -1    0    0  502    0  0.00000000000E+00  0.00000000000E+00  0.55663569701E+03  0.55663569701E+03  0.00000000000E+00 0. -1.
         -4   -1    0    0    0  501 -0.00000000000E+00 -0.00000000000E+00 -0.56312411836E+03  0.56312411836E+03  0.00000000000E+00 0.  1.
    9000007    1    1    2  502    0 -0.13485720859E+03 -0.11094194656E+01 -0.37103740050E+03  0.56201107649E+03  0.40000000000E+03 0.  1.
   -9000007    1    1    2    0  501  0.13485720859E+03  0.11094194656E+01  0.36454897916E+03  0.55774873888E+03  0.40000000000E+03 0. -1.
<mgrwt>
<rscale>  2 0.42212285E+03</rscale>
<asrwt>0</asrwt>
<pdfrwt beam="1">  1        4 0.85636261E-01 0.42212285E+03</pdfrwt>
<pdfrwt beam="2">  1       -4 0.86634480E-01 0.42212285E+03</pdfrwt>
<totfact> 0.26593064E+00</totfact>
</mgrwt>
</event>
<event>
 4    1  0.2454657E-002  0.4369527E+03  0.7818608E-02  0.1031686E+00
         -2   -1    0    0    0  501 -0.00000000000E+00  0.00000000000E+00  0.11832187072E+03  0.11832187072E+03  0.00000000000E+00 0.  1.
          2   -1    0    0  502    0  0.00000000000E+00 -0.00000000000E+00 -0.16310390665E+04  0.16310390665E+04  0.00000000000E+00 0. -1.
    9000007    1    1    2  502    0  0.15877028344E+03 -0.75628621992E+02 -0.66599197872E+03  0.79653813913E+03  0.40000000000E+03 0. -1.
   -9000007    1    1    2    0  501 -0.15877028344E+03  0.75628621992E+02 -0.84672521709E+03  0.95282279813E+03  0.40000000000E+03 0.  1.
<mgrwt>
<rscale>  2 0.43695273E+03</rscale>
<asrwt>0</asrwt>
<pdfrwt beam="1">  1        2 0.25092911E+00 0.43695273E+03</pdfrwt>
<pdfrwt beam="2">  1       -2 0.18203363E-01 0.43695273E+03</pdfrwt>
<totfact> 0.28171376E+02</totfact>
</mgrwt>
</event>
<event>
 4    1  0.2454657E-002  0.4067068E+03  0.7818608E-02  0.1041482E+00
         -2   -1    0    0    0  501 -0.00000000000E+00  0.00000000000E+00  0.17334683737E+03  0.17334683737E+03  0.00000000000E+00 0. -1.
          2   -1    0    0  502    0  0.00000000000E+00 -0.00000000000E+00 -0.10512439177E+04  0.10512439177E+04  0.00000000000E+00 0.  1.
    9000007    1    1    2  502    0 -0.65146598388E+02 -0.34151304184E+02 -0.25292977891E+03  0.47894035529E+03  0.40000000000E+03 0. -1.
   -9000007    1    1    2    0  501  0.65146598388E+02  0.34151304184E+02 -0.62496730141E+03  0.74565039978E+03  0.40000000000E+03 0. -1.
<mgrwt>
<rscale>  2 0.40670676E+03</rscale>
<asrwt>0</asrwt>
<pdfrwt beam="1">  1        2 0.16172983E+00 0.40670676E+03</pdfrwt>
<pdfrwt beam="2">  1       -2 0.26668744E-01 0.40670676E+03</pdfrwt>
<totfact> 0.30725831E+02</totfact>
</mgrwt>
</event>
<event>
 4    1  0.2454657E-002  0.4482061E+03  0.7818608E-02  0.1028258E+00
         -2   -1    0    0    0  501 -0.00000000000E+00  0.00000000000E+00  0.60274791378E+02  0.60274791378E+02  0.00000000000E+00 0.  1.
          2   -1    0    0  502    0  0.00000000000E+00 -0.00000000000E+00 -0.33399463125E+04  0.33399463125E+04  0.00000000000E+00 0. -1.
    9000007    1    1    2  502    0  0.18050777794E+03  0.91135426069E+02 -0.17180281585E+04  0.17755307593E+04  0.40000000000E+03 0.  1.
   -9000007    1    1    2    0  501 -0.18050777794E+03 -0.91135426069E+02 -0.15616433626E+04  0.16246903446E+04  0.40000000000E+03 0.  1.
<mgrwt>
<rscale>  2 0.44820612E+03</rscale>
<asrwt>0</asrwt>
<pdfrwt beam="1">  1        2 0.51383803E+00 0.44820612E+03</pdfrwt>
<pdfrwt beam="2">  1       -2 0.92730424E-02 0.44820612E+03</pdfrwt>
<totfact> 0.91643652E+01</totfact>
</mgrwt>
</event>
<event>
 4    1  0.2454657E-002  0.4244677E+03  0.7818608E-02  0.1035622E+00
          1   -1    0    0  502    0  0.00000000000E+00  0.00000000000E+00  0.33281048380E+04  0.33281048380E+04  0.00000000000E+00 0. -1.
         -1   -1    0    0    0  501 -0.00000000000E+00 -0.00000000000E+00 -0.54298432176E+02  0.54298432176E+02  0.00000000000E+00 0.  1.
    9000007    1    1    2  502    0 -0.13322889011E+03 -0.49222727824E+02  0.15446208003E+04  0.16018820902E+04  0.40000000000E+03 0. -1.
   -9000007    1    1    2    0  501  0.13322889011E+03  0.49222727824E+02  0.17291856055E+04  0.17805211800E+04  0.40000000000E+03 0. -1.
<mgrwt>
<rscale>  2 0.42446768E+03</rscale>
<asrwt>0</asrwt>
<pdfrwt beam="1">  1        1 0.51201597E+00 0.42446768E+03</pdfrwt>
<pdfrwt beam="2">  1       -1 0.83536076E-02 0.42446768E+03</pdfrwt>
<totfact> 0.32352738E+01</totfact>
</mgrwt>
</event>
<event>
 4    1  0.2454657E-002  0.4398923E+03  0.7818608E-02  0.1030780E+00
          2   -1    0    0  502    0  0.00000000000E+00  0.00000000000E+00  0.23626911172E+03  0.23626911172E+03  0.00000000000E+00 0. -1.
         -2   -1    0    0    0  501 -0.00000000000E+00 -0.00000000000E+00 -0.10745615774E+04  0.10745615774E+04  0.00000000000E+00 0.  1.
    9000007    1    1    2  502    0  0.81445038629E+02  0.16392654772E+03 -0.99517482721E+02  0.45100879895E+03  0.40000000000E+03 0. -1.
   -9000007    1    1    2    0  501 -0.81445038629E+02 -0.16392654772E+03 -0.73877498299E+03  0.85982189019E+03  0.40000000000E+03 0. -1.
<mgrwt>
<rscale>  2 0.43989227E+03</rscale>
<asrwt>0</asrwt>
<pdfrwt beam="1">  1        2 0.36349094E-01 0.43989227E+03</pdfrwt>
<pdfrwt beam="2">  1       -2 0.16531717E+00 0.43989227E+03</pdfrwt>
<totfact> 0.34307866E+01</totfact>
</mgrwt>
</event>
<event>
 4    1  0.2454657E-002  0.7516466E+03  0.7818608E-02  0.9632771E-01
         -1   -1    0    0    0  501 -0.00000000000E+00  0.00000000000E+00  0.22770697242E+03  0.22770697242E+03  0.00000000000E+00 0. -1.
          1   -1    0    0  502    0  0.00000000000E+00 -0.00000000000E+00 -0.24832593697E+04  0.24832593697E+04  0.00000000000E+00 0.  1.
    9000007    1    1    2  502    0  0.43729612172E+03  0.46232539399E+03 -0.10881683989E+04  0.13225290667E+04  0.40000000000E+03 0. -1.
   -9000007    1    1    2    0  501 -0.43729612172E+03 -0.46232539399E+03 -0.11673839984E+04  0.13884372754E+04  0.40000000000E+03 0.  1.
<mgrwt>
<rscale>  2 0.75164664E+03</rscale>
<asrwt>0</asrwt>
<pdfrwt beam="1">  1        1 0.38203987E+00 0.75164664E+03</pdfrwt>
<pdfrwt beam="2">  1       -1 0.35031845E-01 0.75164664E+03</pdfrwt>
<totfact> 0.11339567E+01</totfact>
</mgrwt>
</event>
<event>
 4    1  0.2454657E-002  0.4144321E+03  0.7818608E-02  0.1038894E+00
         -1   -1    0    0    0  501 -0.00000000000E+00  0.00000000000E+00  0.54836118672E+03  0.54836118672E+03  0.00000000000E+00 0. -1.
          1   -1    0    0  502    0  0.00000000000E+00 -0.00000000000E+00 -0.36165221025E+03  0.36165221025E+03  0.00000000000E+00 0.  1.
    9000007    1    1    2  502    0 -0.10366444492E+02 -0.10791907470E+03  0.25987572641E+03  0.48917214049E+03  0.40000000000E+03 0. -1.
   -9000007    1    1    2    0  501  0.10366444492E+02  0.10791907470E+03 -0.73166749948E+02  0.42084125648E+03  0.40000000000E+03 0.  1.
<mgrwt>
<rscale>  2 0.41443213E+03</rscale>
<asrwt>0</asrwt>
<pdfrwt beam="1">  1        1 0.55638802E-01 0.41443213E+03</pdfrwt>
<pdfrwt beam="2">  1       -1 0.84363259E-01 0.41443213E+03</pdfrwt>
<totfact> 0.99835656E+01</totfact>
</mgrwt>
</event>
<event>
 4    1  0.2454657E-002  0.4295944E+03  0.7818608E-02  0.1033988E+00
         -2   -1    0    0    0  501 -0.00000000000E+00  0.00000000000E+00  0.37233218449E+03  0.37233218449E+03  0.00000000000E+00 0. -1.
          2   -1    0    0  502    0  0.00000000000E+00 -0.00000000000E+00 -0.55903600207E+03  0.55903600207E+03  0.00000000000E+00 0.  1.
    9000007    1    1    2  502    0  0.12169741921E+03 -0.98696875512E+02  0.63439845040E+02  0.43425332355E+03  0.40000000000E+03 0. -1.
   -9000007    1    1    2    0  501 -0.12169741921E+03  0.98696875512E+02 -0.25014366261E+03  0.49711486301E+03  0.40000000000E+03 0.  1.
<mgrwt>
<rscale>  2 0.42959438E+03</rscale>
<asrwt>0</asrwt>
<pdfrwt beam="1">  1        2 0.86005538E-01 0.42959438E+03</pdfrwt>
<pdfrwt beam="2">  1       -2 0.57281875E-01 0.42959438E+03</pdfrwt>
<totfact> 0.15879739E+02</totfact>
</mgrwt>
</event>
<event>
 4    1  0.2454657E-002  0.5040456E+03  0.7818608E-02  0.1012728E+00
         -2   -1    0    0    0  501 -0.00000000000E+00  0.00000000000E+00  0.14505207358E+03  0.14505207358E+03  0.00000000000E+00 0.  1.
          2   -1    0    0  502    0  0.00000000000E+00 -0.00000000000E+00 -0.17531512130E+04  0.17531512130E+04  0.00000000000E+00 0. -1.
    9000007    1    1    2  502    0 -0.11044617903E+03 -0.28611814223E+03 -0.77511983779E+03  0.92459326880E+03  0.40000000000E+03 0.  1.
   -9000007    1    1    2    0  501  0.11044617903E+03  0.28611814223E+03 -0.83297930158E+03  0.97361001774E+03  0.40000000000E+03 0.  1.
<mgrwt>
<rscale>  2 0.50404558E+03</rscale>
<asrwt>0</asrwt>
<pdfrwt beam="1">  1        2 0.26971556E+00 0.50404558E+03</pdfrwt>
<pdfrwt beam="2">  1       -2 0.22315704E-01 0.50404558E+03</pdfrwt>
<totfact> 0.16851527E+02</totfact>
</mgrwt>
</event>
<event>
 4    1  0.2454657E-002  0.4236061E+03  0.7818608E-02  0.1035899E+00
          2   -1    0    0  502    0  0.00000000000E+00  0.00000000000E+00  0.17865089306E+04  0.17865089306E+04  0.00000000000E+00 0. -1.
         -2   -1    0    0    0  501 -0.00000000000E+00 -0.00000000000E+00 -0.10392957230E+03  0.10392957230E+03  0.00000000000E+00 0.  1.
    9000007    1    1    2  502    0 -0.12437607284E+03  0.63029628455E+02  0.66816123526E+03  0.79112677736E+03  0.40000000000E+03 0.  1.
   -9000007    1    1    2    0  501  0.12437607284E+03 -0.63029628455E+02  0.10144181231E+04  0.10993117256E+04  0.40000000000E+03 0. -1.
<mgrwt>
<rscale>  2 0.42360612E+03</rscale>
<asrwt>0</asrwt>
<pdfrwt beam="1">  1        2 0.27484751E+00 0.42360612E+03</pdfrwt>
<pdfrwt beam="2">  1       -2 0.15989166E-01 0.42360612E+03</pdfrwt>
<totfact> 0.29025413E+02</totfact>
</mgrwt>
</event>
<event>
 4    1  0.2454657E-002  0.4232832E+03  0.7818608E-02  0.1036003E+00
         -1   -1    0    0    0  501 -0.00000000000E+00  0.00000000000E+00  0.96903117523E+03  0.96903117523E+03  0.00000000000E+00 0.  1.
          1   -1    0    0  502    0  0.00000000000E+00 -0.00000000000E+00 -0.19190161988E+03  0.19190161988E+03  0.00000000000E+00 0. -1.
    9000007    1    1    2  502    0  0.91552476535E+01  0.13814804730E+03  0.49948282108E+03  0.65471504495E+03  0.40000000000E+03 0.  1.
   -9000007    1    1    2    0  501 -0.91552476535E+01 -0.13814804730E+03  0.27764673427E+03  0.50621775016E+03  0.40000000000E+03 0. -1.
<mgrwt>
<rscale>  2 0.42328324E+03</rscale>
<asrwt>0</asrwt>
<pdfrwt beam="1">  1        1 0.29523327E-01 0.42328324E+03</pdfrwt>
<pdfrwt beam="2">  1       -1 0.14908172E+00 0.42328324E+03</pdfrwt>
<totfact> 0.58506599E+01</totfact>
</mgrwt>
</event>
<event>
 4    1  0.2454657E-002  0.4481628E+03  0.7818608E-02  0.1028271E+00
         -4   -1    0    0    0  501 -0.00000000000E+00  0.00000000000E+00  0.33153052931E+03  0.33153052931E+03  0.00000000000E+00 0. -1.
          4   -1    0    0  502    0  0.00000000000E+00 -0.00000000000E+00 -0.60584257125E+03  0.60584257125E+03  0.00000000000E+00 0.  1.
    9000007    1    1    2  502    0  0.20207281053E+03  0.40556170575E+01 -0.13959507785E+03  0.46940031375E+03  0.40000000000E+03 0.  1.
   -9000007    1    1    2    0  501 -0.20207281053E+03 -0.40556170575E+01 -0.13471696409E+03  0.46797278682E+03  0.40000000000E+03 0. -1.
<mgrwt>
<rscale>  2 0.44816277E+03</rscale>
<asrwt>0</asrwt>
<pdfrwt beam="1">  1        4 0.93206547E-01 0.44816277E+03</pdfrwt>
<pdfrwt beam="2">  1       -4 0.51004698E-01 0.44816277E+03</pdfrwt>
<totfact> 0.69903311E+00</totfact>
</mgrwt>
</event>
<event>
 4    1  0.2454657E-002  0.4520269E+03  0.7818608E-02  0.1027119E+00
          2   -1    0    0  502    0  0.00000000000E+00  0.00000000000E+00  0.22611816482E+04  0.22611816482E+04  0.00000000000E+00 0.  1.
         -2   -1    0    0    0  501 -0.00000000000E+00 -0.00000000000E+00 -0.99479990188E+02  0.99479990188E+02  0.00000000000E+00 0. -1.
    9000007    1    1    2  502    0  0.20581544830E+03  0.44365377296E+02  0.72353706996E+03  0.85313198103E+03  0.40000000000E+03 0. -1.
   -9000007    1    1    2    0  501 -0.20581544830E+03 -0.44365377296E+02  0.14381645880E+04  0.15075296573E+04  0.40000000000E+03 0. -1.
<mgrwt>
<rscale>  2 0.45202686E+03</rscale>
<asrwt>0</asrwt>
<pdfrwt beam="1">  1        2 0.34787406E+00 0.45202686E+03</pdfrwt>
<pdfrwt beam="2">  1       -2 0.15304616E-01 0.45202686E+03</pdfrwt>
<totfact> 0.17290646E+02</totfact>
</mgrwt>
</event>
<event>
 4    1  0.2454657E-002  0.4768608E+03  0.7818608E-02  0.1020001E+00
         -2   -1    0    0    0  501 -0.00000000000E+00  0.00000000000E+00  0.14777242371E+03  0.14777242371E+03  0.00000000000E+00 0.  1.
          2   -1    0    0  502    0  0.00000000000E+00 -0.00000000000E+00 -0.17633626007E+04  0.17633626007E+04  0.00000000000E+00 0. -1.
    9000007    1    1    2  502    0  0.78074960814E+02 -0.24758951289E+03 -0.46681210714E+03  0.66731537504E+03  0.40000000000E+03 0. -1.
   -9000007    1    1    2    0  501 -0.78074960814E+02  0.24758951289E+03 -0.11487780699E+04  0.12438196494E+04  0.40000000000E+03 0. -1.
<mgrwt>
<rscale>  2 0.47686085E+03</rscale>
<asrwt>0</asrwt>
<pdfrwt beam="1">  1        2 0.27128657E+00 0.47686085E+03</pdfrwt>
<pdfrwt beam="2">  1       -2 0.22734218E-01 0.47686085E+03</pdfrwt>
<totfact> 0.16161534E+02</totfact>
</mgrwt>
</event>
<event>
 4    1  0.2454657E-002  0.4901243E+03  0.7818608E-02  0.1016389E+00
         -1   -1    0    0    0  501 -0.00000000000E+00  0.00000000000E+00  0.29556987354E+03  0.29556987354E+03  0.00000000000E+00 0.  1.
          1   -1    0    0  502    0  0.00000000000E+00 -0.00000000000E+00 -0.91133430075E+03  0.91133430075E+03  0.00000000000E+00 0. -1.
    9000007    1    1    2  502    0 -0.22570421140E+03 -0.17111242814E+03 -0.10939757675E+03  0.50218491008E+03  0.40000000000E+03 0.  1.
   -9000007    1    1    2    0  501  0.22570421140E+03  0.17111242814E+03 -0.50636685046E+03  0.70471926421E+03  0.40000000000E+03 0. -1.
<mgrwt>
<rscale>  2 0.49012433E+03</rscale>
<asrwt>0</asrwt>
<pdfrwt beam="1">  1        1 0.14020527E+00 0.49012433E+03</pdfrwt>
<pdfrwt beam="2">  1       -1 0.45472289E-01 0.49012433E+03</pdfrwt>
<totfact> 0.89543580E+01</totfact>
</mgrwt>
</event>
<event>
 4    1  0.2454657E-002  0.4158145E+03  0.7818608E-02  0.1038437E+00
         -1   -1    0    0    0  501 -0.00000000000E+00  0.00000000000E+00  0.10857298703E+03  0.10857298703E+03  0.00000000000E+00 0.  1.
          1   -1    0    0  502    0  0.00000000000E+00 -0.00000000000E+00 -0.21739905171E+04  0.21739905171E+04  0.00000000000E+00 0. -1.
    9000007    1    1    2  502    0  0.11310441585E+03  0.10443487826E+02 -0.44245584661E+03  0.60718106980E+03  0.40000000000E+03 0.  1.
   -9000007    1    1    2    0  501 -0.11310441585E+03 -0.10443487826E+02 -0.16229616835E+04  0.16753824344E+04  0.40000000000E+03 0. -1.
<mgrwt>
<rscale>  2 0.41581447E+03</rscale>
<asrwt>0</asrwt>
<pdfrwt beam="1">  1        1 0.33446007E+00 0.41581447E+03</pdfrwt>
<pdfrwt beam="2">  1       -1 0.16703537E-01 0.41581447E+03</pdfrwt>
<totfact> 0.68128238E+01</totfact>
</mgrwt>
</event>
<event>
 4    1  0.2454657E-002  0.7648484E+03  0.7818608E-02  0.9612339E-01
         -1   -1    0    0    0  501 -0.00000000000E+00  0.00000000000E+00  0.10750488946E+04  0.10750488946E+04  0.00000000000E+00 0.  1.
          1   -1    0    0  502    0  0.00000000000E+00 -0.00000000000E+00 -0.58714795173E+03  0.58714795173E+03  0.00000000000E+00 0. -1.
    9000007    1    1    2  502    0  0.25623821160E+03  0.59944559287E+03  0.19056292914E+02  0.76508573519E+03  0.40000000000E+03 0. -1.
   -9000007    1    1    2    0  501 -0.25623821160E+03 -0.59944559287E+03  0.46884464991E+03  0.89711111109E+03  0.40000000000E+03 0. -1.
<mgrwt>
<rscale>  2 0.76484838E+03</rscale>
<asrwt>0</asrwt>
<pdfrwt beam="1">  1        1 0.90330454E-01 0.76484838E+03</pdfrwt>
<pdfrwt beam="2">  1       -1 0.16539214E+00 0.76484838E+03</pdfrwt>
<totfact> 0.96775795E+00</totfact>
</mgrwt>
</event>
<event>
 4    1  0.2454657E-002  0.4840658E+03  0.7818608E-02  0.1018024E+00
          3   -1    0    0  502    0  0.00000000000E+00  0.00000000000E+00  0.13002015560E+04  0.13002015560E+04  0.00000000000E+00 0.  1.
         -3   -1    0    0    0  501 -0.00000000000E+00 -0.00000000000E+00 -0.20040214172E+03  0.20040214172E+03  0.00000000000E+00 0. -1.
    9000007    1    1    2  502    0 -0.27239357583E+03  0.11019985687E+02  0.78801658387E+03  0.92481881290E+03  0.40000000000E+03 0.  1.
   -9000007    1    1    2    0  501  0.27239357583E+03 -0.11019985687E+02  0.31178283037E+03  0.57578488479E+03  0.40000000000E+03 0.  1.
<mgrwt>
<rscale>  2 0.48406580E+03</rscale>
<asrwt>0</asrwt>
<pdfrwt beam="1">  1        3 0.20003100E+00 0.48406580E+03</pdfrwt>
<pdfrwt beam="2">  1       -3 0.30831099E-01 0.48406580E+03</pdfrwt>
<totfact> 0.40190217E+00</totfact>
</mgrwt>
</event>
<event>
 4    1  0.2454657E-002  0.4400345E+03  0.7818608E-02  0.1030736E+00
          1   -1    0    0  502    0  0.00000000000E+00  0.00000000000E+00  0.58502242879E+03  0.58502242879E+03  0.00000000000E+00 0. -1.
         -1   -1    0    0    0  501 -0.00000000000E+00 -0.00000000000E+00 -0.33566947518E+03  0.33566947518E+03  0.00000000000E+00 0.  1.
    9000007    1    1    2  502    0  0.11531242497E+03 -0.14259526184E+03  0.70261434410E+02  0.44560860990E+03  0.40000000000E+03 0.  1.
   -9000007    1    1    2    0  501 -0.11531242497E+03  0.14259526184E+03  0.17909151920E+03  0.47508329407E+03  0.40000000000E+03 0.  1.
<mgrwt>
<rscale>  2 0.44003450E+03</rscale>
<asrwt>0</asrwt>
<pdfrwt beam="1">  1        1 0.90003450E-01 0.44003450E+03</pdfrwt>
<pdfrwt beam="2">  1       -1 0.51641458E-01 0.44003450E+03</pdfrwt>
<totfact> 0.13953758E+02</totfact>
</mgrwt>
</event>
<event>
 4    1  0.2454657E-002  0.4099466E+03  0.7818608E-02  0.1040389E+00
          2   -1    0    0  502    0  0.00000000000E+00  0.00000000000E+00  0.17877032965E+04  0.17877032965E+04  0.00000000000E+00 0.  1.
         -2   -1    0    0    0  501 -0.00000000000E+00 -0.00000000000E+00 -0.13074077098E+03  0.13074077098E+03  0.00000000000E+00 0. -1.
    9000007    1    1    2  502    0  0.89657979927E+02  0.41980847059E+01  0.32003172273E+03  0.52007353407E+03  0.40000000000E+03 0. -1.
   -9000007    1    1    2    0  501 -0.89657979927E+02 -0.41980847059E+01  0.13369308028E+04  0.13983705335E+04  0.40000000000E+03 0.  1.
<mgrwt>
<rscale>  2 0.40994655E+03</rscale>
<asrwt>0</asrwt>
<pdfrwt beam="1">  1        2 0.27503126E+00 0.40994655E+03</pdfrwt>
<pdfrwt beam="2">  1       -2 0.20113966E-01 0.40994655E+03</pdfrwt>
<totfact> 0.19620087E+02</totfact>
</mgrwt>
</event>
<event>
 4    1  0.2454657E-002  0.5689644E+03  0.7818608E-02  0.9971973E-01
          2   -1    0    0  502    0  0.00000000000E+00  0.00000000000E+00  0.31026819861E+04  0.31026819861E+04  0.00000000000E+00 0. -1.
         -2   -1    0    0    0  501 -0.00000000000E+00 -0.00000000000E+00 -0.14224797864E+03  0.14224797864E+03  0.00000000000E+00 0.  1.
    9000007    1    1    2  502    0 -0.33782730553E+03 -0.22269522647E+03  0.64260613023E+03  0.85829079621E+03  0.40000000000E+03 0.  1.
   -9000007    1    1    2    0  501  0.33782730553E+03  0.22269522647E+03  0.23178278773E+04  0.23866391685E+04  0.40000000000E+03 0. -1.
<mgrwt>
<rscale>  2 0.56896437E+03</rscale>
<asrwt>0</asrwt>
<pdfrwt beam="1">  1        2 0.47733564E+00 0.56896437E+03</pdfrwt>
<pdfrwt beam="2">  1       -2 0.21884307E-01 0.56896437E+03</pdfrwt>
<totfact> 0.29919607E+01</totfact>
</mgrwt>
</event>
<event>
 4    1  0.2454657E-002  0.4143706E+03  0.7818608E-02  0.1038914E+00
         -2   -1    0    0    0  501 -0.00000000000E+00  0.00000000000E+00  0.16721926638E+03  0.16721926638E+03  0.00000000000E+00 0.  1.
          2   -1    0    0  502    0  0.00000000000E+00 -0.00000000000E+00 -0.10285896266E+04  0.10285896266E+04  0.00000000000E+00 0. -1.
    9000007    1    1    2  502    0  0.36766074622E+02 -0.10174114775E+03 -0.45553045826E+03  0.61580110733E+03  0.40000000000E+03 0. -1.
   -9000007    1    1    2    0  501 -0.36766074622E+02  0.10174114775E+03 -0.40583990197E+03  0.58000778565E+03  0.40000000000E+03 0. -1.
<mgrwt>
<rscale>  2 0.41437061E+03</rscale>
<asrwt>0</asrwt>
<pdfrwt beam="1">  1        2 0.15824455E+00 0.41437061E+03</pdfrwt>
<pdfrwt beam="2">  1       -2 0.25726042E-01 0.41437061E+03</pdfrwt>
<totfact> 0.33823225E+02</totfact>
</mgrwt>
</event>
<event>
 4    1  0.2454657E-002  0.4900571E+03  0.7818608E-02  0.1016407E+00
         -1   -1    0    0    0  501 -0.00000000000E+00  0.00000000000E+00  0.94995590441E+02  0.94995590441E+02  0.00000000000E+00 0.  1.
          1   -1    0    0  502    0  0.00000000000E+00 -0.00000000000E+00 -0.29146997725E+04  0.29146997725E+04  0.00000000000E+00 0. -1.
    9000007    1    1    2  502    0 -0.16156648341E+02  0.28265698511E+03 -0.19579274590E+04  0.20183250341E+04  0.40000000000E+03 0. -1.
   -9000007    1    1    2    0  501  0.16156648341E+02 -0.28265698511E+03 -0.86177672302E+03  0.99137032882E+03  0.40000000000E+03 0.  1.
<mgrwt>
<rscale>  2 0.49005715E+03</rscale>
<asrwt>0</asrwt>
<pdfrwt beam="1">  1        1 0.44841539E+00 0.49005715E+03</pdfrwt>
<pdfrwt beam="2">  1       -1 0.14614705E-01 0.49005715E+03</pdfrwt>
<totfact> 0.26157810E+01</totfact>
</mgrwt>
</event>
<event>
 4    1  0.2454657E-002  0.4131213E+03  0.7818608E-02  0.1039329E+00
         -2   -1    0    0    0  501 -0.00000000000E+00  0.00000000000E+00  0.39054991854E+03  0.39054991854E+03  0.00000000000E+00 0.  1.
          2   -1    0    0  502    0  0.00000000000E+00 -0.00000000000E+00 -0.43702944756E+03  0.43702944756E+03  0.00000000000E+00 0. -1.
    9000007    1    1    2  502    0  0.91408561623E+02 -0.48100425831E+02 -0.26800527906E+02  0.41398966702E+03  0.40000000000E+03 0.  1.
   -9000007    1    1    2    0  501 -0.91408561623E+02  0.48100425831E+02 -0.19679001113E+02  0.41358969908E+03  0.40000000000E+03 0.  1.
<mgrwt>
<rscale>  2 0.41312126E+03</rscale>
<asrwt>0</asrwt>
<pdfrwt beam="1">  1        2 0.67235300E-01 0.41312126E+03</pdfrwt>
<pdfrwt beam="2">  1       -2 0.60084603E-01 0.41312126E+03</pdfrwt>
<totfact> 0.19057877E+02</totfact>
</mgrwt>
</event>
