<event>
11    0  0.3422856E-009  0.9118800E+02  0.7816531E-02  0.1126479E+00
         25   -1    0    0    0    0  0.00000000000E+00  0.00000000000E+00  0.99999998245E-14  0.12500000000E+03  0.12500000000E+03 0.  0.
    3000001    1    3    3    0    0  0.49411843164E+01  0.11308410718E+02 -0.97237541854E+01  0.15743152508E+02  0.10000000000E+01 0.  1.
    1000022    2    1    0    0    0  0.30087409320E+02  0.32411034789E+02 -0.43017700822E+02  0.62499999663E+02  0.99999999057E+01 0.  0.
    3000022    2    3    3    0    0  0.25146225004E+02  0.21102624071E+02 -0.33293946636E+02  0.46756847155E+02  0.24999722333E+00 0.  0.
    1000022    2    1    0    0    0 -0.30087409320E+02 -0.32411034789E+02  0.43017700822E+02  0.62500000337E+02  0.10000004124E+02 0.  0.
    3000022    2    5    5    0    0 -0.22745768677E+02 -0.28447979330E+02  0.30965343164E+02  0.47807661483E+02  0.24999708692E+00 0.  0.
        -13    1    4    4    0    0  0.64770839834E+01  0.54644237781E+01 -0.86254122973E+01  0.12092200232E+02  0.10500000000E+00 0. -1.
         13    1    4    4    0    0  0.18669141021E+02  0.15638200293E+02 -0.24668534339E+02  0.34664646923E+02  0.10500000000E+00 0.  1.
    3000001    1    5    5    0    0 -0.73416406435E+01 -0.39630554596E+01  0.12052357657E+02  0.14692338855E+02  0.10000000000E+01 0.  1.
        -13    1    6    6    0    0 -0.15335880845E+02 -0.19228106669E+02  0.20964751167E+02  0.32317814652E+02  0.10500000000E+00 0. -1.
         13    1    6    6    0    0 -0.74098878316E+01 -0.92198726608E+01  0.10000591997E+02  0.15489846831E+02  0.10500000000E+00 0.  1.
</event>
<event>
11    0  0.3422856E-009  0.9118800E+02  0.7816531E-02  0.1126479E+00
         25   -1    0    0    0    0  0.00000000000E+00  0.00000000000E+00  0.99999998245E-14  0.12500000000E+03  0.12500000000E+03 0.  0.
    3000001    1    3    3    0    0 -0.15226041228E+02 -0.22393855616E+02  0.10442089825E+02  0.29040563713E+02  0.10000000000E+01 0.  1.
    1000022    2    1    0    0    0 -0.23104704197E+02 -0.52577065548E+02  0.22540514102E+02  0.62499999756E+02  0.10000000791E+02 0.  0.
    3000022    2    3    3    0    0 -0.78786629688E+01 -0.30183209931E+02  0.12098424277E+02  0.33459436043E+02  0.24999675727E+00 0.  0.
    1000022    2    1    0    0    0  0.23104704197E+02  0.52577065548E+02 -0.22540514102E+02  0.62500000244E+02  0.10000003845E+02 0.  0.
    3000022    2    5    5    0    0 -0.33574429415E+00  0.22638476397E+01 -0.26957171341E+01  0.35450132760E+01  0.24999578634E+00 0.  0.
        -13    1    4    4    0    0 -0.19645171988E+01 -0.76366196488E+01  0.30576397334E+01  0.84579828106E+01  0.10500000000E+00 0.  1.
         13    1    4    4    0    0 -0.59141457700E+01 -0.22546590283E+02  0.90407845440E+01  0.25001453232E+02  0.10500000000E+00 0. -1.
    3000001    1    5    5    0    0  0.23440448491E+02  0.50313217908E+02 -0.19844796968E+02  0.58954986968E+02  0.10000000000E+01 0. -1.
        -13    1    6    6    0    0 -0.25260173530E+00  0.13753932669E+01 -0.17028880054E+01  0.22059843232E+01  0.10500000000E+00 0.  1.
         13    1    6    6    0    0 -0.83142558845E-01  0.88845437284E+00 -0.99282912865E+00  0.13390289528E+01  0.10500000000E+00 0. -1.
</event>
<event>
11    0  0.3422856E-009  0.9118800E+02  0.7816531E-02  0.1126479E+00
         25   -1    0    0    0    0  0.00000000000E+00  0.00000000000E+00  0.99999998245E-14  0.12500000000E+03  0.12500000000E+03 0.  0.
    3000001    1    3    3    0    0  0.29054839040E+01  0.16215601582E+02 -0.83854196484E+01  0.18512234713E+02  0.10000000000E+01 0.  1.
    1000022    2    1    0    0    0  0.51483168565E+01  0.46548630810E+02 -0.40161795283E+02  0.62500000106E+02  0.10000000811E+02 0.  0.
    3000022    2    3    3    0    0  0.22428329525E+01  0.30333029228E+02 -0.31776375634E+02  0.43987765393E+02  0.24998812822E+00 0.  0.
    1000022    2    1    0    0    0 -0.51483168565E+01 -0.46548630810E+02  0.40161795283E+02  0.62499999894E+02  0.99999994868E+01 0.  0.
    3000022    2    5    5    0    0 -0.73657849738E+01 -0.38982750729E+02  0.30839110372E+02  0.50249605607E+02  0.24998488765E+00 0.  0.
        -13    1    4    4    0    0  0.10773026957E+01  0.13729606729E+02 -0.14351790573E+02  0.19890892380E+02  0.10500000000E+00 0. -1.
         13    1    4    4    0    0  0.11655302568E+01  0.16603422499E+02 -0.17424585061E+02  0.24096873013E+02  0.10500000000E+00 0.  1.
    3000001    1    5    5    0    0  0.22174681174E+01 -0.75658800805E+01  0.93226849107E+01  0.12250394287E+02  0.10000000000E+01 0.  1.
        -13    1    6    6    0    0 -0.52808137465E+01 -0.27762758635E+02  0.21936927986E+02  0.35775656462E+02  0.10500000000E+00 0.  1.
         13    1    6    6    0    0 -0.20849712273E+01 -0.11219992094E+02  0.89021823853E+01  0.14473949145E+02  0.10500000000E+00 0. -1.
</event>
<event>
11    0  0.3422856E-009  0.9118800E+02  0.7816531E-02  0.1126479E+00
         25   -1    0    0    0    0  0.00000000000E+00  0.00000000000E+00  0.99999998245E-14  0.12500000000E+03  0.12500000000E+03 0.  0.
    3000001    1    3    3    0    0  0.25109013950E+02  0.20959786001E+00  0.12892976610E+02  0.28244209295E+02  0.10000000000E+01 0. -1.
    1000022    2    1    0    0    0  0.54771190260E+02  0.11056204175E+02  0.26155825290E+02  0.62500000413E+02  0.99999960881E+01 0.  0.
    3000022    2    3    3    0    0  0.29662176310E+02  0.10846606315E+02  0.13262848680E+02  0.34255791118E+02  0.24999609467E+00 0.  0.
    1000022    2    1    0    0    0 -0.54771190260E+02 -0.11056204175E+02 -0.26155825290E+02  0.62499999587E+02  0.99999909231E+01 0.  0.
    3000022    2    5    5    0    0 -0.47917519311E+02 -0.11706049957E+02 -0.20059204179E+02  0.53249924237E+02  0.24999269912E+00 0.  0.
        -13    1    4    4    0    0  0.14939521353E+02  0.53933756027E+01  0.66895382402E+01  0.17234812024E+02  0.10500000000E+00 0. -1.
         13    1    4    4    0    0  0.14722654957E+02  0.54532307122E+01  0.65733104399E+01  0.17020979094E+02  0.10500000000E+00 0.  1.
    3000001    1    5    5    0    0 -0.68536709489E+01  0.64984578195E+00 -0.60966211108E+01  0.92500753502E+01  0.10000000000E+01 0. -1.
        -13    1    6    6    0    0 -0.27704495263E+02 -0.67129147547E+01 -0.11552659256E+02  0.30758368669E+02  0.10500000000E+00 0.  1.
         13    1    6    6    0    0 -0.20213024048E+02 -0.49931352022E+01 -0.85065449229E+01  0.22491555567E+02  0.10500000000E+00 0. -1.
</event>
<event>
11    0  0.3422856E-009  0.9118800E+02  0.7816531E-02  0.1126479E+00
         25   -1    0    0    0    0  0.00000000000E+00  0.00000000000E+00  0.99999998245E-14  0.12500000000E+03  0.12500000000E+03 0.  0.
    3000001    1    3    3    0    0  0.12194616119E+02 -0.46530482995E+01 -0.22205849242E+02  0.25777107311E+02  0.10000000000E+01 0. -1.
    1000022    2    1    0    0    0  0.27152743398E+02  0.14618163897E+00 -0.55398170117E+02  0.62499999846E+02  0.99999942699E+01 0.  0.
    3000022    2    3    3    0    0  0.14958127279E+02  0.47992299385E+01 -0.33192320875E+02  0.36722892536E+02  0.24998281516E+00 0.  0.
    1000022    2    1    0    0    0 -0.27152743398E+02 -0.14618163897E+00  0.55398170117E+02  0.62500000154E+02  0.99999961917E+01 0.  0.
    3000022    2    5    5    0    0 -0.16324178323E+02 -0.29914762456E+01  0.41009972945E+02  0.44241474998E+02  0.25000213210E+00 0.  0.
        -13    1    4    4    0    0  0.64060794796E+01  0.20977441421E+01 -0.14363577076E+02  0.15867002118E+02  0.10500000000E+00 0.  1.
         13    1    4    4    0    0  0.85520477998E+01  0.27014857964E+01 -0.18828743799E+02  0.20855890418E+02  0.10500000000E+00 0. -1.
    3000001    1    5    5    0    0 -0.10828565076E+02  0.28452946066E+01  0.14388197172E+02  0.18258525155E+02  0.10000000000E+01 0.  1.
        -13    1    6    6    0    0 -0.82869414013E+01 -0.14497998247E+01  0.20798334199E+02  0.22435620067E+02  0.10500000000E+00 0. -1.
         13    1    6    6    0    0 -0.80372369214E+01 -0.15416764209E+01  0.20211638745E+02  0.21805854931E+02  0.10500000000E+00 0.  1.
</event>
<event>
11    0  0.3422856E-009  0.9118800E+02  0.7816531E-02  0.1126479E+00
         25   -1    0    0    0    0  0.00000000000E+00  0.00000000000E+00  0.99999998245E-14  0.12500000000E+03  0.12500000000E+03 0.  0.
    3000001    1    3    3    0    0 -0.30971470334E+01  0.21242903694E+02  0.25295145076E+00  0.21492260503E+02  0.10000000000E+01 0. -1.
    1000022    2    1    0    0    0  0.18813251332E+01  0.61026675954E+02  0.88575243524E+01  0.62500002346E+02  0.99999996691E+01 0.  0.
    3000022    2    3    3    0    0  0.49784721665E+01  0.39783772260E+02  0.86045729017E+01  0.41007741843E+02  0.24999181121E+00 0.  0.
    1000022    2    1    0    0    0 -0.18813251332E+01 -0.61026675954E+02 -0.88575243524E+01  0.62499997654E+02  0.99999703394E+01 0.  0.
    3000022    2    5    5    0    0 -0.96207733622E+00 -0.52879662238E+02 -0.42924549284E+01  0.53062905525E+02  0.25000443002E+00 0.  0.
        -13    1    4    4    0    0  0.17170006347E+01  0.13402122930E+02  0.28618848046E+01  0.13811821018E+02  0.10500000000E+00 0.  1.
         13    1    4    4    0    0  0.32614715318E+01  0.26381649331E+02  0.57426880971E+01  0.27195920825E+02  0.10500000000E+00 0. -1.
    3000001    1    5    5    0    0 -0.91924779693E+00 -0.81470137160E+01 -0.45650694240E+01  0.94370921287E+01  0.10000000000E+01 0. -1.
        -13    1    6    6    0    0 -0.43496029679E+00 -0.23607338770E+02 -0.18498296436E+01  0.23683929763E+02  0.10500000000E+00 0.  1.
         13    1    6    6    0    0 -0.52711703944E+00 -0.29272323468E+02 -0.24426252848E+01  0.29378975762E+02  0.10500000000E+00 0. -1.
</event>
<event>
11    0  0.3422856E-009  0.9118800E+02  0.7816531E-02  0.1126479E+00
         25   -1    0    0    0    0  0.00000000000E+00  0.00000000000E+00  0.99999998245E-14  0.12500000000E+03  0.12500000000E+03 0.  0.
    3000001    1    3    3    0    0  0.10991828869E+02  0.39948118702E+02  0.29508868446E+01  0.41549731923E+02  0.10000000000E+01 0.  1.
    1000022    2    1    0    0    0  0.16468926691E+02  0.58378625309E+02  0.11267678127E+02  0.62499999015E+02  0.99999933587E+01 0.  0.
    3000022    2    3    3    0    0  0.54770978220E+01  0.18430506607E+02  0.83167912819E+01  0.20950267092E+02  0.24999929288E+00 0.  0.
    1000022    2    1    0    0    0 -0.16468926691E+02 -0.58378625309E+02 -0.11267678127E+02  0.62500000985E+02  0.10000005672E+02 0.  0.
    3000022    2    5    5    0    0 -0.12301875101E+02 -0.26035638231E+02 -0.65844208089E+01  0.29539933764E+02  0.25000065502E+00 0.  0.
        -13    1    4    4    0    0  0.34355627243E+01  0.11440818803E+02  0.51122733485E+01  0.12993913572E+02  0.10500000000E+00 0. -1.
         13    1    4    4    0    0  0.20415350977E+01  0.69896878040E+01  0.32045179334E+01  0.79563535201E+01  0.10500000000E+00 0.  1.
    3000001    1    5    5    0    0 -0.41670515903E+01 -0.32342987078E+02 -0.46832573177E+01  0.32960067221E+02  0.10000000000E+01 0.  1.
        -13    1    6    6    0    0 -0.66752990947E+01 -0.13991826528E+02 -0.35794924727E+01  0.15910833384E+02  0.10500000000E+00 0. -1.
         13    1    6    6    0    0 -0.56265760060E+01 -0.12043811703E+02 -0.30049283361E+01  0.13629100381E+02  0.10500000000E+00 0.  1.
</event>
<event>
11    0  0.3422856E-009  0.9118800E+02  0.7816531E-02  0.1126479E+00
         25   -1    0    0    0    0  0.00000000000E+00  0.00000000000E+00  0.99999998245E-14  0.12500000000E+03  0.12500000000E+03 0.  0.
    3000001    1    3    3    0    0  0.12295458008E+02 -0.48655659046E+01 -0.11060601739E+02  0.17268147846E+02  0.10000000000E+01 0.  1.
    1000022    2    1    0    0    0  0.32557969505E+02 -0.15076452425E+02 -0.50188933703E+02  0.62499999877E+02  0.10000006118E+02 0.  0.
    3000022    2    3    3    0    0  0.20262511497E+02 -0.10210886520E+02 -0.39128331964E+02  0.45231852031E+02  0.25000036059E+00 0.  0.
    1000022    2    1    0    0    0 -0.32557969505E+02  0.15076452425E+02  0.50188933703E+02  0.62500000123E+02  0.10000007661E+02 0.  0.
    3000022    2    5    5    0    0 -0.12231888108E+02  0.68438657166E+01  0.12010379132E+02  0.18459937703E+02  0.25001697692E+00 0.  0.
        -13    1    4    4    0    0  0.14200844745E+02 -0.71057448890E+01 -0.27365829136E+02  0.31639456873E+02  0.10500000000E+00 0.  1.
         13    1    4    4    0    0  0.60616667517E+01 -0.31051416310E+01 -0.11762502828E+02  0.13592395158E+02  0.10500000000E+00 0. -1.
    3000001    1    5    5    0    0 -0.20326081397E+02  0.82325867081E+01  0.38178554570E+02  0.44040062420E+02  0.10000000000E+01 0.  1.
        -13    1    6    6    0    0 -0.48835587787E+01  0.27817705178E+01  0.48769730023E+01  0.74419946401E+01  0.10500000000E+00 0.  1.
         13    1    6    6    0    0 -0.73483293288E+01  0.40620951988E+01  0.71334061301E+01  0.11017943063E+02  0.10500000000E+00 0. -1.
</event>
<event>
11    0  0.3422856E-009  0.9118800E+02  0.7816531E-02  0.1126479E+00
         25   -1    0    0    0    0  0.00000000000E+00  0.00000000000E+00  0.99999998245E-14  0.12500000000E+03  0.12500000000E+03 0.  0.
    3000001    1    3    3    0    0  0.23721871010E+02  0.17641075511E+02 -0.35016862587E+02  0.45837925071E+02  0.10000000000E+01 0. -1.
    1000022    2    1    0    0    0  0.30824391489E+02  0.29061182182E+02 -0.44850356275E+02  0.62499999776E+02  0.10000004675E+02 0.  0.
    3000022    2    3    3    0    0  0.71025204798E+01  0.11420106672E+02 -0.98334936888E+01  0.16662074706E+02  0.25000363693E+00 0.  0.
    1000022    2    1    0    0    0 -0.30824391489E+02 -0.29061182182E+02  0.44850356275E+02  0.62500000224E+02  0.10000007469E+02 0.  0.
    3000022    2    5    5    0    0 -0.47994814956E+00 -0.43264656700E+01  0.48313756684E+01  0.65079449713E+01  0.25000296038E+00 0.  0.
        -13    1    4    4    0    0  0.40239832296E+01  0.63887618408E+01 -0.54583434537E+01  0.93173632080E+01  0.10500000000E+00 0. -1.
         13    1    4    4    0    0  0.30785372503E+01  0.50313448308E+01 -0.43751502351E+01  0.73447114979E+01  0.10500000000E+00 0.  1.
    3000001    1    5    5    0    0 -0.30344443340E+02 -0.24734716512E+02  0.40018980607E+02  0.55992055252E+02  0.10000000000E+01 0.  1.
        -13    1    6    6    0    0 -0.22392962892E+00 -0.18156161504E+01  0.21223536114E+01  0.28039287323E+01  0.10500000000E+00 0.  1.
         13    1    6    6    0    0 -0.25601852065E+00 -0.25108495196E+01  0.27090220570E+01  0.37040162389E+01  0.10500000000E+00 0. -1.
</event>
<event>
11    0  0.3422856E-009  0.9118800E+02  0.7816531E-02  0.1126479E+00
         25   -1    0    0    0    0  0.00000000000E+00  0.00000000000E+00  0.99999998245E-14  0.12500000000E+03  0.12500000000E+03 0.  0.
    3000001    1    3    3    0    0  0.11693738725E+02  0.78065681492E+01  0.39100736999E+01  0.14627874349E+02  0.10000000000E+01 0. -1.
    1000022    2    1    0    0    0  0.40816615630E+02  0.45601133621E+02  0.77968210124E+01  0.62500000367E+02  0.10000006447E+02 0.  0.
    3000022    2    3    3    0    0  0.29122876904E+02  0.37794565472E+02  0.38867473124E+01  0.47872126017E+02  0.25001267521E+00 0.  0.
    1000022    2    1    0    0    0 -0.40816615630E+02 -0.45601133621E+02 -0.77968210124E+01  0.62499999633E+02  0.10000001865E+02 0.  0.
    3000022    2    5    5    0    0 -0.38179876349E+02 -0.42559212324E+02 -0.96019181589E+01  0.57976278276E+02  0.24999749558E+00 0.  0.
        -13    1    4    4    0    0  0.76129244417E+01  0.98461673860E+01  0.10385838035E+01  0.12489728262E+02  0.10500000000E+00 0. -1.
         13    1    4    4    0    0  0.21509952463E+02  0.27948398086E+02  0.28481635089E+01  0.35382397755E+02  0.10500000000E+00 0.  1.
    3000001    1    5    5    0    0 -0.26367392804E+01 -0.30419212973E+01  0.18050971465E+01  0.45237213575E+01  0.10000000000E+01 0.  1.
        -13    1    6    6    0    0 -0.20750668525E+02 -0.23060283164E+02 -0.51615094187E+01  0.31448674190E+02  0.10500000000E+00 0. -1.
         13    1    6    6    0    0 -0.17429207824E+02 -0.19498929160E+02 -0.44404087401E+01  0.26527604086E+02  0.10500000000E+00 0.  1.
</event>
<event>
11    0  0.3422856E-009  0.9118800E+02  0.7816531E-02  0.1126479E+00
         25   -1    0    0    0    0  0.00000000000E+00  0.00000000000E+00  0.99999998245E-14  0.12500000000E+03  0.12500000000E+03 0.  0.
    3000001    1    3    3    0    0 -0.25616190331E+02  0.40614622470E+01 -0.13377558035E+02  0.29200064070E+02  0.10000000000E+01 0. -1.
    1000022    2    1    0    0    0 -0.52851088749E+02 -0.11804418212E+01 -0.31805958367E+02  0.62499999310E+02  0.99999950618E+01 0.  0.
    3000022    2    3    3    0    0 -0.27234898418E+02 -0.52419040682E+01 -0.18428400332E+02  0.33299935240E+02  0.24999628656E+00 0.  0.
    1000022    2    1    0    0    0  0.52851088749E+02  0.11804418212E+01  0.31805958367E+02  0.62500000690E+02  0.10000003688E+02 0.  0.
    3000022    2    5    5    0    0  0.37542193309E+02  0.51211627321E+01  0.23881565154E+02  0.44788773497E+02  0.24998196296E+00 0.  0.
        -13    1    4    4    0    0 -0.88894382214E+01 -0.17313775637E+01 -0.59600430605E+01  0.10842182365E+02  0.10500000000E+00 0. -1.
         13    1    4    4    0    0 -0.18345460196E+02 -0.35105265045E+01 -0.12468357271E+02  0.22457752875E+02  0.10500000000E+00 0.  1.
    3000001    1    5    5    0    0  0.15308895440E+02 -0.39407209109E+01  0.79243932133E+01  0.17711227193E+02  0.10000000000E+01 0.  1.
        -13    1    6    6    0    0  0.11118956953E+02  0.15483018386E+01  0.71138374029E+01  0.13290829542E+02  0.10500000000E+00 0. -1.
         13    1    6    6    0    0  0.26423236356E+02  0.35728608934E+01  0.16767727751E+02  0.31497943956E+02  0.10500000000E+00 0.  1.
</event>
<event>
11    0  0.3422856E-009  0.9118800E+02  0.7816531E-02  0.1126479E+00
         25   -1    0    0    0    0  0.00000000000E+00  0.00000000000E+00  0.99999998245E-14  0.12500000000E+03  0.12500000000E+03 0.  0.
    3000001    1    3    3    0    0 -0.27947158449E+01  0.21161190781E+02  0.65656295668E+01  0.22354281996E+02  0.10000000000E+01 0.  1.
    1000022    2    1    0    0    0  0.28694192424E+01  0.56108209295E+02  0.25492847583E+02  0.62499999301E+02  0.99999958792E+01 0.  0.
    3000022    2    3    3    0    0  0.56641350872E+01  0.34947018514E+02  0.18927218016E+02  0.40145717305E+02  0.25001359165E+00 0.  0.
    1000022    2    1    0    0    0 -0.28694192424E+01 -0.56108209295E+02 -0.25492847583E+02  0.62500000699E+02  0.10000004620E+02 0.  0.
    3000022    2    5    5    0    0  0.35519074590E+01 -0.26630224940E+02 -0.11378804876E+02  0.29177467785E+02  0.24999803207E+00 0.  0.
        -13    1    4    4    0    0  0.43209718567E+01  0.26656050849E+02  0.14455829821E+02  0.30630016087E+02  0.10500000000E+00 0.  1.
         13    1    4    4    0    0  0.13431632305E+01  0.82909676651E+01  0.44713881947E+01  0.95157012183E+01  0.10500000000E+00 0. -1.
    3000001    1    5    5    0    0 -0.64213267013E+01 -0.29477984356E+02 -0.14114042707E+02  0.33322532914E+02  0.10000000000E+01 0.  1.
        -13    1    6    6    0    0  0.89846298650E+00 -0.69602507814E+01 -0.29589074163E+01  0.76169865942E+01  0.10500000000E+00 0.  1.
         13    1    6    6    0    0  0.26534444725E+01 -0.19669974158E+02 -0.84198974597E+01  0.21560481191E+02  0.10500000000E+00 0. -1.
</event>
<event>
11    0  0.3422856E-009  0.9118800E+02  0.7816531E-02  0.1126479E+00
         25   -1    0    0    0    0  0.00000000000E+00  0.00000000000E+00  0.99999998245E-14  0.12500000000E+03  0.12500000000E+03 0.  0.
    3000001    1    3    3    0    0  0.10302863160E+02  0.68698675509E+01 -0.13692166474E+02  0.18488360994E+02  0.10000000000E+01 0.  1.
    1000022    2    1    0    0    0  0.32988481625E+02  0.35748582630E+02 -0.37947977481E+02  0.62499999633E+02  0.99999939624E+01 0.  0.
    3000022    2    3    3    0    0  0.22685618465E+02  0.28878715079E+02 -0.24255811007E+02  0.44011638640E+02  0.24999678686E+00 0.  0.
    1000022    2    1    0    0    0 -0.32988481625E+02 -0.35748582630E+02  0.37947977481E+02  0.62500000367E+02  0.99999985496E+01 0.  0.
    3000022    2    5    5    0    0 -0.76163593501E+01 -0.13950264271E+02  0.90948176377E+01  0.18313847503E+02  0.24999900068E+00 0.  0.
        -13    1    4    4    0    0  0.17283558346E+02  0.21980825983E+02 -0.18453491652E+02  0.33502544368E+02  0.10500000000E+00 0.  1.
         13    1    4    4    0    0  0.54020601189E+01  0.68978890966E+01 -0.58023193544E+01  0.10509094271E+02  0.10500000000E+00 0. -1.
    3000001    1    5    5    0    0 -0.25372122275E+02 -0.21798318359E+02  0.28853159843E+02  0.44186152864E+02  0.10000000000E+01 0. -1.
        -13    1    6    6    0    0 -0.46452431220E+01 -0.86265728484E+01  0.56328978073E+01  0.11302062001E+02  0.10500000000E+00 0. -1.
         13    1    6    6    0    0 -0.29711162281E+01 -0.53236914229E+01  0.34619198304E+01  0.70117855015E+01  0.10500000000E+00 0.  1.
</event>
<event>
11    0  0.3422856E-009  0.9118800E+02  0.7816531E-02  0.1126479E+00
         25   -1    0    0    0    0  0.00000000000E+00  0.00000000000E+00  0.99999998245E-14  0.12500000000E+03  0.12500000000E+03 0.  0.
    3000001    1    3    3    0    0  0.11506135468E+02 -0.20152747426E+02  0.10541979137E+02  0.25507992989E+02  0.10000000000E+01 0.  1.
    1000022    2    1    0    0    0  0.24791627042E+02 -0.54308921670E+02  0.15561689624E+02  0.62499998752E+02  0.99999957819E+01 0.  0.
    3000022    2    3    3    0    0  0.13285491574E+02 -0.34156174245E+02  0.50197104871E+01  0.36992005762E+02  0.24994313343E+00 0.  0.
    1000022    2    1    0    0    0 -0.24791627042E+02  0.54308921670E+02 -0.15561689624E+02  0.62500001248E+02  0.10000011384E+02 0.  0.
    3000022    2    5    5    0    0 -0.22763353633E+02  0.48885333954E+02 -0.16824712637E+02  0.56489641536E+02  0.25000232042E+00 0.  0.
        -13    1    4    4    0    0  0.67973397815E+01 -0.17660434012E+02  0.25826263504E+01  0.19099103158E+02  0.10500000000E+00 0.  1.
         13    1    4    4    0    0  0.64881517921E+01 -0.16495740233E+02  0.24370841366E+01  0.17892902604E+02  0.10500000000E+00 0. -1.
    3000001    1    5    5    0    0 -0.20282734086E+01  0.54235877167E+01  0.12630230123E+01  0.60103597122E+01  0.10000000000E+01 0.  1.
        -13    1    6    6    0    0 -0.10236378782E+02  0.21987015689E+02 -0.76367788563E+01  0.25427224107E+02  0.10500000000E+00 0. -1.
         13    1    6    6    0    0 -0.12526974851E+02  0.26898318265E+02 -0.91879337803E+01  0.31062417429E+02  0.10500000000E+00 0.  1.
</event>
<event>
11    0  0.3422856E-009  0.9118800E+02  0.7816531E-02  0.1126479E+00
         25   -1    0    0    0    0  0.00000000000E+00  0.00000000000E+00  0.99999998245E-14  0.12500000000E+03  0.12500000000E+03 0.  0.
    3000001    1    3    3    0    0 -0.50605932675E+02 -0.62818452165E+01  0.32331192624E+02  0.60388144679E+02  0.10000000000E+01 0. -1.
    1000022    2    1    0    0    0 -0.51292269191E+02 -0.50781974078E+01  0.33905233444E+02  0.62499999195E+02  0.10000003840E+02 0.  0.
    3000022    2    3    3    0    0 -0.68633651572E+00  0.12036478087E+01  0.15740408198E+01  0.21118545160E+01  0.24999826749E+00 0.  0.
    1000022    2    1    0    0    0  0.51292269191E+02  0.50781974078E+01 -0.33905233444E+02  0.62500000805E+02  0.10000013900E+02 0.  0.
    3000022    2    5    5    0    0  0.49692567951E+02  0.63855222068E+01 -0.31532080661E+02  0.59198486558E+02  0.24999314329E+00 0.  0.
        -13    1    4    4    0    0 -0.47550823994E+00  0.82217447945E+00  0.99498335984E+00  0.13795274000E+01  0.10500000000E+00 0.  1.
         13    1    4    4    0    0 -0.21082827578E+00  0.38147332929E+00  0.57905746000E+00  0.73232711598E+00  0.10500000000E+00 0. -1.
    3000001    1    5    5    0    0  0.15997012405E+01 -0.13073247991E+01 -0.23731527829E+01  0.33015142465E+01  0.10000000000E+01 0. -1.
        -13    1    6    6    0    0  0.19395259898E+02  0.25234863910E+01 -0.12373253859E+02  0.23144168296E+02  0.10500000000E+00 0. -1.
         13    1    6    6    0    0  0.30297308053E+02  0.38620358158E+01 -0.19158826803E+02  0.36054318262E+02  0.10500000000E+00 0.  1.
</event>
<event>
11    0  0.3422856E-009  0.9118800E+02  0.7816531E-02  0.1126479E+00
         25   -1    0    0    0    0  0.00000000000E+00  0.00000000000E+00  0.99999998245E-14  0.12500000000E+03  0.12500000000E+03 0.  0.
    3000001    1    3    3    0    0 -0.27341172207E+02 -0.10708535522E+02  0.83228206489E+01  0.30536564546E+02  0.10000000000E+01 0.  1.
    1000022    2    1    0    0    0 -0.50442695562E+02 -0.25509265776E+02  0.24719667913E+02  0.62499998250E+02  0.99999811756E+01 0.  0.
    3000022    2    3    3    0    0 -0.23101523355E+02 -0.14800730254E+02  0.16396847264E+02  0.31963433704E+02  0.24999320657E+00 0.  0.
    1000022    2    1    0    0    0  0.50442695562E+02  0.25509265776E+02 -0.24719667913E+02  0.62500001750E+02  0.10000003050E+02 0.  0.
    3000022    2    5    5    0    0  0.55237156756E+01  0.62794613945E+01 -0.19882102639E+01  0.85999155027E+01  0.24999266228E+00 0.  0.
        -13    1    4    4    0    0 -0.10018300612E+02 -0.64634158378E+01  0.71880571056E+01  0.13921971175E+02  0.10500000000E+00 0.  1.
         13    1    4    4    0    0 -0.13083222743E+02 -0.83373144163E+01  0.92087901584E+01  0.18041462529E+02  0.10500000000E+00 0. -1.
    3000001    1    5    5    0    0  0.44918979887E+02  0.19229804382E+02 -0.22731457649E+02  0.53900086247E+02  0.10000000000E+01 0.  1.
        -13    1    6    6    0    0  0.21114712234E+01  0.23600488545E+01 -0.80904483654E+00  0.32701253601E+01  0.10500000000E+00 0.  1.
         13    1    6    6    0    0  0.34122444522E+01  0.39194125399E+01 -0.11791654273E+01  0.53297901426E+01  0.10500000000E+00 0. -1.
</event>
<event>
11    0  0.3422856E-009  0.9118800E+02  0.7816531E-02  0.1126479E+00
         25   -1    0    0    0    0  0.00000000000E+00  0.00000000000E+00  0.99999998245E-14  0.12500000000E+03  0.12500000000E+03 0.  0.
    3000001    1    3    3    0    0 -0.32606494589E+02  0.11638285604E+02  0.18796802403E+02  0.39407524177E+02  0.10000000000E+01 0. -1.
    1000022    2    1    0    0    0 -0.46549905990E+02  0.20195640715E+02  0.35092609373E+02  0.62500009373E+02  0.10000114369E+02 0.  0.
    3000022    2    3    3    0    0 -0.13943411400E+02  0.85573551115E+01  0.16295806970E+02  0.23092485195E+02  0.24999940852E+00 0.  0.
    1000022    2    1    0    0    0  0.46549905990E+02 -0.20195640715E+02 -0.35092609373E+02  0.62499990627E+02  0.99999972133E+01 0.  0.
    3000022    2    5    5    0    0  0.44123772852E+02 -0.19751659291E+02 -0.35255609027E+02  0.59833567856E+02  0.24999816572E+00 0.  0.
        -13    1    4    4    0    0 -0.94451988881E+01  0.58305566605E+01  0.11115157320E+02  0.15708752982E+02  0.10500000000E+00 0. -1.
         13    1    4    4    0    0 -0.44982125123E+01  0.27267984509E+01  0.51806496502E+01  0.73837322132E+01  0.10500000000E+00 0.  1.
    3000001    1    5    5    0    0  0.24261331381E+01 -0.44398142434E+00  0.16299965420E+00  0.26664227715E+01  0.10000000000E+01 0.  1.
        -13    1    6    6    0    0  0.10622264162E+02 -0.47445259326E+01 -0.84628737818E+01  0.14386600707E+02  0.10500000000E+00 0. -1.
         13    1    6    6    0    0  0.33501508690E+02 -0.15007133358E+02 -0.26792735246E+02  0.45446967149E+02  0.10500000000E+00 0.  1.
</event>
<event>
11    0  0.3422856E-009  0.9118800E+02  0.7816531E-02  0.1126479E+00
         25   -1    0    0    0    0  0.00000000000E+00  0.00000000000E+00  0.99999998245E-14  0.12500000000E+03  0.12500000000E+03 0.  0.
    3000001    1    3    3    0    0  0.40050918890E+02  0.31220364480E+02 -0.34264772957E+02  0.61268767965E+02  0.10000000000E+01 0.  1.
    1000022    2    1    0    0    0  0.41173412524E+02  0.31062790740E+02 -0.33854145880E+02  0.62500001826E+02  0.10000008374E+02 0.  0.
    3000022    2    3    3    0    0  0.11224936342E+01 -0.15757373949E+00  0.41062707724E+00  0.12312338602E+01  0.25000155973E+00 0.  0.
    1000022    2    1    0    0    0 -0.41173412524E+02 -0.31062790740E+02  0.33854145880E+02  0.62499998174E+02  0.99999855543E+01 0.  0.
    3000022    2    5    5    0    0 -0.27120215482E+01 -0.83126649595E+00 -0.24735216084E+00  0.28582693047E+01  0.24991090775E+00 0.  0.
        -13    1    4    4    0    0  0.67371690804E+00 -0.63885673041E-01  0.18380359930E+00  0.70907306712E+00  0.10500000000E+00 0.  1.
         13    1    4    4    0    0  0.44877672615E+00 -0.93688066451E-01  0.22682347794E+00  0.52216079312E+00  0.10500000000E+00 0. -1.
    3000001    1    5    5    0    0 -0.38461390976E+02 -0.30231524244E+02  0.34101498041E+02  0.59641728870E+02  0.10000000000E+01 0.  1.
        -13    1    6    6    0    0 -0.13585277930E+01 -0.44014186752E+00 -0.60444664525E-01  0.14331786997E+01  0.10500000000E+00 0.  1.
         13    1    6    6    0    0 -0.13534937552E+01 -0.39112462842E+00 -0.18690749632E+00  0.14250906050E+01  0.10500000000E+00 0.  1.
</event>
<event>
11    0  0.3422856E-009  0.9118800E+02  0.7816531E-02  0.1126479E+00
         25   -1    0    0    0    0  0.00000000000E+00  0.00000000000E+00  0.99999998245E-14  0.12500000000E+03  0.12500000000E+03 0.  0.
    3000001    1    3    3    0    0  0.10606106761E+02 -0.36722525327E+02 -0.42060273815E+02  0.56842765594E+02  0.10000000000E+01 0. -1.
    1000022    2    1    0    0    0  0.12695590474E+02 -0.41734762483E+02 -0.43626608625E+02  0.62500005754E+02  0.10000066109E+02 0.  0.
    3000022    2    3    3    0    0  0.20894837133E+01 -0.50122371558E+01 -0.15663348101E+01  0.56572401601E+01  0.24999599497E+00 0.  0.
    1000022    2    1    0    0    0 -0.12695590474E+02  0.41734762483E+02  0.43626608625E+02  0.62499994246E+02  0.99999941808E+01 0.  0.
    3000022    2    5    5    0    0 -0.79993146090E+01  0.34063048003E+02  0.38783992672E+02  0.52235436811E+02  0.24999557397E+00 0.  0.
        -13    1    4    4    0    0  0.73003596461E+00 -0.18763734615E+01 -0.61760356255E+00  0.21085988327E+01  0.10500000000E+00 0.  1.
         13    1    4    4    0    0  0.13594477487E+01 -0.31358636943E+01 -0.94873124760E+00  0.35486413274E+01  0.10500000000E+00 0. -1.
    3000001    1    5    5    0    0 -0.46962758651E+01  0.76717144797E+01  0.48426159525E+01  0.10264557434E+02  0.10000000000E+01 0. -1.
        -13    1    6    6    0    0 -0.24090144759E+01  0.10167379901E+02  0.11642673721E+02  0.15644227088E+02  0.10500000000E+00 0.  1.
         13    1    6    6    0    0 -0.55903001331E+01  0.23895668102E+02  0.27141318951E+02  0.36591209724E+02  0.10500000000E+00 0. -1.
</event>
<event>
11    0  0.3422856E-009  0.9118800E+02  0.7816531E-02  0.1126479E+00
         25   -1    0    0    0    0  0.00000000000E+00  0.00000000000E+00  0.99999998245E-14  0.12500000000E+03  0.12500000000E+03 0.  0.
    3000001    1    3    3    0    0  0.29826994448E+02  0.21971876602E+01 -0.36851133154E+01  0.30150576969E+02  0.10000000000E+01 0.  1.
    1000022    2    1    0    0    0  0.59809558208E+02 -0.23252234024E+01 -0.14955267046E+02  0.62500000347E+02  0.10000005707E+02 0.  0.
    3000022    2    3    3    0    0  0.29982563759E+02 -0.45224110626E+01 -0.11270153731E+02  0.32349423378E+02  0.24999275453E+00 0.  0.
    1000022    2    1    0    0    0 -0.59809558208E+02  0.23252234024E+01  0.14955267046E+02  0.62499999653E+02  0.10000001364E+02 0.  0.
    3000022    2    5    5    0    0 -0.53103010519E+02  0.40776044212E+01  0.10759488897E+02  0.54335860052E+02  0.25000456717E+00 0.  0.
        -13    1    4    4    0    0  0.20770356351E+02 -0.30868003968E+01 -0.78199774022E+01  0.22407568168E+02  0.10500000000E+00 0. -1.
         13    1    4    4    0    0  0.92122074080E+01 -0.14356106658E+01 -0.34501763288E+01  0.99418552098E+01  0.10500000000E+00 0.  1.
    3000001    1    5    5    0    0 -0.67065476885E+01 -0.17523810188E+01  0.41957781494E+01  0.81641396002E+01  0.10000000000E+01 0. -1.
        -13    1    6    6    0    0 -0.38350045639E+02  0.29784145244E+01  0.77908937364E+01  0.39246732397E+02  0.10500000000E+00 0. -1.
         13    1    6    6    0    0 -0.14752964880E+02  0.10991898968E+01  0.29685951606E+01  0.15089127656E+02  0.10500000000E+00 0.  1.
</event>
<event>
11    0  0.3422856E-009  0.9118800E+02  0.7816531E-02  0.1126479E+00
         25   -1    0    0    0    0  0.00000000000E+00  0.00000000000E+00  0.99999998245E-14  0.12500000000E+03  0.12500000000E+03 0.  0.
    3000001    1    3    3    0    0 -0.31218435337E+01 -0.46405034713E+02 -0.21658212914E+02  0.51315215486E+02  0.10000000000E+01 0. -1.
    1000022    2    1    0    0    0 -0.50898401423E+01 -0.53747368925E+02 -0.29859068196E+02  0.62500000294E+02  0.99999972094E+01 0.  0.
    3000022    2    3    3    0    0 -0.19679966085E+01 -0.73423342117E+01 -0.82008552822E+01  0.11184784808E+02  0.25000301472E+00 0.  0.
    1000022    2    1    0    0    0  0.50898401423E+01  0.53747368925E+02  0.29859068196E+02  0.62499999706E+02  0.99999935341E+01 0.  0.
    3000022    2    5    5    0    0  0.36849901065E+01  0.14345239426E+02  0.40174155157E+01  0.15348197769E+02  0.25000209998E+00 0.  0.
        -13    1    4    4    0    0 -0.11711518552E+01 -0.43674583935E+01 -0.49708947096E+01  0.67206479376E+01  0.10500000000E+00 0.  1.
         13    1    4    4    0    0 -0.79684475328E+00 -0.29748758182E+01 -0.32299605726E+01  0.44641368701E+01  0.10500000000E+00 0. -1.
    3000001    1    5    5    0    0  0.14048500358E+01  0.39402129499E+02  0.25841652680E+02  0.47151801937E+02  0.10000000000E+01 0. -1.
        -13    1    6    6    0    0  0.23141553324E+01  0.89623667066E+01  0.25718140898E+01  0.96075274966E+01  0.10500000000E+00 0. -1.
         13    1    6    6    0    0  0.13708347741E+01  0.53828727193E+01  0.14456014259E+01  0.57406702721E+01  0.10500000000E+00 0.  1.
</event>
<event>
11    0  0.3422856E-009  0.9118800E+02  0.7816531E-02  0.1126479E+00
         25   -1    0    0    0    0  0.00000000000E+00  0.00000000000E+00  0.99999998245E-14  0.12500000000E+03  0.12500000000E+03 0.  0.
    3000001    1    3    3    0    0  0.44602186227E+01  0.42872216174E+02  0.10998350504E+02  0.44495889514E+02  0.10000000000E+01 0. -1.
    1000022    2    1    0    0    0  0.20714516615E+00  0.59316558688E+02  0.16963288251E+02  0.62500000300E+02  0.99999922749E+01 0.  0.
    3000022    2    3    3    0    0 -0.42530734566E+01  0.16444342514E+02  0.59649377469E+01  0.18004110786E+02  0.24997664318E+00 0.  0.
    1000022    2    1    0    0    0 -0.20714516615E+00 -0.59316558688E+02 -0.16963288251E+02  0.62499999700E+02  0.99999885299E+01 0.  0.
    3000022    2    5    5    0    0 -0.45768691910E+01 -0.18667093417E+02 -0.44129548494E+01  0.19721682957E+02  0.24999990517E+00 0.  0.
        -13    1    4    4    0    0 -0.31442063289E+01  0.12206161268E+02  0.44558444872E+01  0.13369442077E+02  0.10500000000E+00 0.  1.
         13    1    4    4    0    0 -0.11088671276E+01  0.42381812455E+01  0.15090932597E+01  0.46346687091E+01  0.10500000000E+00 0. -1.
    3000001    1    5    5    0    0  0.43697240249E+01 -0.40649465271E+02 -0.12550333401E+02  0.42778316743E+02  0.10000000000E+01 0. -1.
        -13    1    6    6    0    0 -0.24210514083E+01 -0.10126734987E+02 -0.23601132570E+01  0.10676769690E+02  0.10500000000E+00 0.  1.
         13    1    6    6    0    0 -0.21558177827E+01 -0.85403584291E+01 -0.20528415924E+01  0.90449132673E+01  0.10500000000E+00 0. -1.
</event>
<event>
11    0  0.3422856E-009  0.9118800E+02  0.7816531E-02  0.1126479E+00
         25   -1    0    0    0    0  0.00000000000E+00  0.00000000000E+00  0.99999998245E-14  0.12500000000E+03  0.12500000000E+03 0.  0.
    3000001    1    3    3    0    0  0.11936007773E+02  0.10568090963E+02  0.42861010755E+02  0.45740781269E+02  0.10000000000E+01 0. -1.
    1000022    2    1    0    0    0  0.21686286261E+02  0.13101697067E+02  0.56252118982E+02  0.62499998593E+02  0.99999728189E+01 0.  0.
    3000022    2    3    3    0    0  0.97502784882E+01  0.25336061043E+01  0.13391108227E+02  0.16759217324E+02  0.24999058388E+00 0.  0.
    1000022    2    1    0    0    0 -0.21686286261E+02 -0.13101697067E+02 -0.56252118982E+02  0.62500001407E+02  0.99999904005E+01 0.  0.
    3000022    2    5    5    0    0 -0.83572010392E+00  0.14682878857E+01 -0.48015568564E+01  0.50962479261E+01  0.24999454351E+00 0.  0.
        -13    1    4    4    0    0  0.52916609228E+01  0.13087054423E+01  0.72130165097E+01  0.90417375225E+01  0.10500000000E+00 0. -1.
         13    1    4    4    0    0  0.44586175654E+01  0.12249006620E+01  0.61780917171E+01  0.77174798018E+01  0.10500000000E+00 0.  1.
    3000001    1    5    5    0    0 -0.20850566157E+02 -0.14569984953E+02 -0.51450562126E+02  0.57403753480E+02  0.10000000000E+01 0.  1.
        -13    1    6    6    0    0 -0.58784349763E+00  0.93729403255E+00 -0.32157850672E+01  0.34024077768E+01  0.10500000000E+00 0. -1.
         13    1    6    6    0    0 -0.24787660629E+00  0.53099385311E+00 -0.15857717892E+01  0.16938401493E+01  0.10500000000E+00 0.  1.
</event>
<event>
11    0  0.3422856E-009  0.9118800E+02  0.7816531E-02  0.1126479E+00
         25   -1    0    0    0    0  0.00000000000E+00  0.00000000000E+00  0.99999998245E-14  0.12500000000E+03  0.12500000000E+03 0.  0.
    3000001    1    3    3    0    0  0.15805693379E+02  0.14709961533E+02  0.22060713277E+02  0.30884915117E+02  0.10000000000E+01 0. -1.
    1000022    2    1    0    0    0  0.30156525877E+02  0.21195024666E+02  0.49473275749E+02  0.62499998815E+02  0.99999857500E+01 0.  0.
    3000022    2    3    3    0    0  0.14350832498E+02  0.64850631334E+01  0.27412562472E+02  0.31615083698E+02  0.24999749380E+00 0.  0.
    1000022    2    1    0    0    0 -0.30156525877E+02 -0.21195024666E+02 -0.49473275749E+02  0.62500001185E+02  0.10000000561E+02 0.  0.
    3000022    2    5    5    0    0 -0.11114503372E+02 -0.60254114181E+01 -0.10041425129E+02  0.16147151968E+02  0.25006020725E+00 0.  0.
        -13    1    4    4    0    0  0.75598024134E+01  0.33421942865E+01  0.14381295827E+02  0.16587753611E+02  0.10500000000E+00 0.  1.
         13    1    4    4    0    0  0.67910300847E+01  0.31428688469E+01  0.13031266644E+02  0.15027330087E+02  0.10500000000E+00 0. -1.
    3000001    1    5    5    0    0 -0.19042022505E+02 -0.15169613248E+02 -0.39431850620E+02  0.46352849216E+02  0.10000000000E+01 0. -1.
        -13    1    6    6    0    0 -0.79442705456E+01 -0.43414849494E+01 -0.71544262800E+01  0.11539357281E+02  0.10500000000E+00 0. -1.
         13    1    6    6    0    0 -0.31702328263E+01 -0.16839264688E+01 -0.28869988490E+01  0.46077946872E+01  0.10500000000E+00 0.  1.
</event>
<event>
11    0  0.3422856E-009  0.9118800E+02  0.7816531E-02  0.1126479E+00
         25   -1    0    0    0    0  0.00000000000E+00  0.00000000000E+00  0.99999998245E-14  0.12500000000E+03  0.12500000000E+03 0.  0.
    3000001    1    3    3    0    0 -0.46825637425E+00  0.26381423385E+01  0.29323087311E+01  0.40960338774E+01  0.10000000000E+01 0.  1.
    1000022    2    1    0    0    0 -0.38426770524E+02  0.37976383318E+02  0.29789721813E+02  0.62499999582E+02  0.10000001959E+02 0.  0.
    3000022    2    3    3    0    0 -0.37958514150E+02  0.35338240979E+02  0.26857413082E+02  0.58403965704E+02  0.25000106698E+00 0.  0.
    1000022    2    1    0    0    0  0.38426770524E+02 -0.37976383318E+02 -0.29789721813E+02  0.62500000418E+02  0.10000007189E+02 0.  0.
    3000022    2    5    5    0    0  0.31391162179E+02 -0.25168250735E+02 -0.23123438751E+02  0.46406915726E+02  0.24999905953E+00 0.  0.
        -13    1    4    4    0    0 -0.19948749700E+02  0.18643376576E+02  0.14092126225E+02  0.30726652132E+02  0.10500000000E+00 0.  1.
         13    1    4    4    0    0 -0.18009764450E+02  0.16694864404E+02  0.12765286858E+02  0.27677313572E+02  0.10500000000E+00 0. -1.
    3000001    1    5    5    0    0  0.70356083446E+01 -0.12808132583E+02 -0.66662830624E+01  0.16093084692E+02  0.10000000000E+01 0.  1.
        -13    1    6    6    0    0  0.10387070878E+02 -0.83628937413E+01 -0.77166780501E+01  0.15407380643E+02  0.10500000000E+00 0.  1.
         13    1    6    6    0    0  0.21004091301E+02 -0.16805356994E+02 -0.15406760701E+02  0.30999535083E+02  0.10500000000E+00 0. -1.
</event>
<event>
11    0  0.3422856E-009  0.9118800E+02  0.7816531E-02  0.1126479E+00
         25   -1    0    0    0    0  0.00000000000E+00  0.00000000000E+00  0.99999998245E-14  0.12500000000E+03  0.12500000000E+03 0.  0.
    3000001    1    3    3    0    0  0.77210009557E+01  0.94941813632E+01 -0.12566730506E+01  0.12342307834E+02  0.10000000000E+01 0.  1.
    1000022    2    1    0    0    0  0.39470994109E+02  0.45568928790E+02  0.13105849891E+02  0.62499999461E+02  0.99999992137E+01 0.  0.
    3000022    2    3    3    0    0  0.31749993153E+02  0.36074747427E+02  0.14362522941E+02  0.50157691627E+02  0.24999396454E+00 0.  0.
    1000022    2    1    0    0    0 -0.39470994109E+02 -0.45568928790E+02 -0.13105849891E+02  0.62500000539E+02  0.10000005953E+02 0.  0.
    3000022    2    5    5    0    0 -0.31954567748E+02 -0.35626490255E+02 -0.14274344185E+02  0.49941571969E+02  0.25000182819E+00 0.  0.
        -13    1    4    4    0    0  0.20508497847E+02  0.23387050839E+02  0.92865309904E+01  0.32462336849E+02  0.10500000000E+00 0. -1.
         13    1    4    4    0    0  0.11241495306E+02  0.12687696588E+02  0.50759919508E+01  0.17695354778E+02  0.10500000000E+00 0.  1.
    3000001    1    5    5    0    0 -0.75164263602E+01 -0.99424385347E+01  0.11684942941E+01  0.12558428571E+02  0.10000000000E+01 0. -1.
        -13    1    6    6    0    0 -0.78439633399E+01 -0.87110654860E+01 -0.34929575801E+01  0.12232015387E+02  0.10500000000E+00 0.  1.
         13    1    6    6    0    0 -0.24110604409E+02 -0.26915424769E+02 -0.10781386605E+02  0.37709556581E+02  0.10500000000E+00 0. -1.
</event>
<event>
11    0  0.3422856E-009  0.9118800E+02  0.7816531E-02  0.1126479E+00
         25   -1    0    0    0    0  0.00000000000E+00  0.00000000000E+00  0.99999998245E-14  0.12500000000E+03  0.12500000000E+03 0.  0.
    3000001    1    3    3    0    0  0.37810190966E+01 -0.12409261532E+01  0.45860727712E+01  0.61537034857E+01  0.10000000000E+01 0.  1.
    1000022    2    1    0    0    0  0.12979536366E+02 -0.97426292388E+01  0.59521953603E+02  0.62500000371E+02  0.99999948415E+01 0.  0.
    3000022    2    3    3    0    0  0.91985172697E+01 -0.85017030855E+01  0.54935880832E+02  0.56346296885E+02  0.24998911632E+00 0.  0.
    1000022    2    1    0    0    0 -0.12979536366E+02  0.97426292388E+01 -0.59521953603E+02  0.62499999629E+02  0.99999902068E+01 0.  0.
    3000022    2    5    5    0    0 -0.97572897654E+01  0.73466809147E+01 -0.55123513294E+02  0.56460983262E+02  0.24997803585E+00 0.  0.
        -13    1    4    4    0    0  0.39101325967E+01 -0.35284964884E+01  0.23026213837E+02  0.23621112867E+02  0.10500000000E+00 0. -1.
         13    1    4    4    0    0  0.52883846731E+01 -0.49732065971E+01  0.31909666995E+02  0.32725184018E+02  0.10500000000E+00 0.  1.
    3000001    1    5    5    0    0 -0.32222466009E+01  0.23959483241E+01 -0.43984403093E+01  0.60390163672E+01  0.10000000000E+01 0. -1.
        -13    1    6    6    0    0 -0.50224474464E+01  0.38400617066E+01 -0.28306106847E+02  0.29003754275E+02  0.10500000000E+00 0.  1.
         13    1    6    6    0    0 -0.47348423190E+01  0.35066192081E+01 -0.26817406447E+02  0.27457228987E+02  0.10500000000E+00 0. -1.
</event>
<event>
11    0  0.3422856E-009  0.9118800E+02  0.7816531E-02  0.1126479E+00
         25   -1    0    0    0    0  0.00000000000E+00  0.00000000000E+00  0.99999998245E-14  0.12500000000E+03  0.12500000000E+03 0.  0.
    3000001    1    3    3    0    0  0.19722387080E+02 -0.91020669982E+01  0.10444495521E+02  0.24122762330E+02  0.10000000000E+01 0. -1.
    1000022    2    1    0    0    0  0.48600764690E+02 -0.14460056988E+02  0.35144312230E+02  0.62499997666E+02  0.99999724764E+01 0.  0.
    3000022    2    3    3    0    0  0.28878377611E+02 -0.53579899901E+01  0.24699816709E+02  0.38377235335E+02  0.24999276884E+00 0.  0.
    1000022    2    1    0    0    0 -0.48600764690E+02  0.14460056988E+02 -0.35144312230E+02  0.62500002334E+02  0.10000001657E+02 0.  0.
    3000022    2    5    5    0    0 -0.23730765563E+02  0.56236782102E+01 -0.22638991746E+02  0.33277040696E+02  0.24999884342E+00 0.  0.
        -13    1    4    4    0    0  0.13243285636E+02 -0.24962501985E+01  0.11261413409E+02  0.17562640361E+02  0.10500000000E+00 0. -1.
         13    1    4    4    0    0  0.15635091975E+02 -0.28617397916E+01  0.13438403300E+02  0.20814594974E+02  0.10500000000E+00 0.  1.
    3000001    1    5    5    0    0 -0.24869999127E+02  0.88363787781E+01 -0.12505320483E+02  0.29222961638E+02  0.10000000000E+01 0.  1.
        -13    1    6    6    0    0 -0.13263749239E+02  0.30769581652E+01 -0.12618510105E+02  0.18564281233E+02  0.10500000000E+00 0.  1.
         13    1    6    6    0    0 -0.10467016324E+02  0.25467200449E+01 -0.10020481642E+02  0.14712759464E+02  0.10500000000E+00 0. -1.
</event>
<event>
11    0  0.3422856E-009  0.9118800E+02  0.7816531E-02  0.1126479E+00
         25   -1    0    0    0    0  0.00000000000E+00  0.00000000000E+00  0.99999998245E-14  0.12500000000E+03  0.12500000000E+03 0.  0.
    3000001    1    3    3    0    0 -0.67327668878E+00  0.60424992855E+01  0.13202891270E+01  0.63014492376E+01  0.10000000000E+01 0.  1.
    1000022    2    1    0    0    0 -0.32205431934E+02  0.52518950578E+02  0.32893785612E+01  0.62500000353E+02  0.10000000850E+02 0.  0.
    3000022    2    3    3    0    0 -0.31532155246E+02  0.46476451292E+02  0.19690894341E+01  0.56198551116E+02  0.24999033985E+00 0.  0.
    1000022    2    1    0    0    0  0.32205431934E+02 -0.52518950578E+02 -0.32893785612E+01  0.62499999647E+02  0.99999964315E+01 0.  0.
    3000022    2    5    5    0    0  0.10179825560E+02 -0.22560085761E+02  0.24080632556E+01  0.24868606362E+02  0.24999155354E+00 0.  0.
        -13    1    4    4    0    0 -0.22247903580E+02  0.32858656936E+02  0.14143588957E+01  0.39707329115E+02  0.10500000000E+00 0.  1.
         13    1    4    4    0    0 -0.92842516659E+01  0.13617794356E+02  0.55473053845E+00  0.16491222001E+02  0.10500000000E+00 0. -1.
    3000001    1    5    5    0    0  0.22025606374E+02 -0.29958864817E+02 -0.56974418168E+01  0.37631393285E+02  0.10000000000E+01 0.  1.
        -13    1    6    6    0    0  0.52062488529E+01 -0.11466335607E+02  0.11638548444E+01  0.12647033742E+02  0.10500000000E+00 0. -1.
         13    1    6    6    0    0  0.49735767070E+01 -0.11093750154E+02  0.12442084112E+01  0.12221572620E+02  0.10500000000E+00 0.  1.
</event>
<event>
11    0  0.3422856E-009  0.9118800E+02  0.7816531E-02  0.1126479E+00
         25   -1    0    0    0    0  0.00000000000E+00  0.00000000000E+00  0.99999998245E-14  0.12500000000E+03  0.12500000000E+03 0.  0.
    3000001    1    3    3    0    0 -0.13626793859E+02  0.31748258735E+02 -0.13485516501E+02  0.37101220989E+02  0.10000000000E+01 0.  1.
    1000022    2    1    0    0    0 -0.15487619432E+02  0.53718572910E+02 -0.26090197882E+02  0.62499997940E+02  0.99999942913E+01 0.  0.
    3000022    2    3    3    0    0 -0.18608255729E+01  0.21970314175E+02 -0.12604681381E+02  0.25398776951E+02  0.25000224546E+00 0.  0.
    1000022    2    1    0    0    0  0.15487619432E+02 -0.53718572910E+02  0.26090197882E+02  0.62500002060E+02  0.10000020044E+02 0.  0.
    3000022    2    5    5    0    0 -0.73601436177E+00 -0.84631340546E+01  0.20642005113E+01  0.87458432527E+01  0.24999056468E+00 0.  0.
        -13    1    4    4    0    0 -0.66242951502E+00  0.73617177801E+01 -0.41825655320E+01  0.84934434104E+01  0.10500000000E+00 0. -1.
         13    1    4    4    0    0 -0.11983960579E+01  0.14608596395E+02 -0.84221158494E+01  0.16905333541E+02  0.10500000000E+00 0.  1.
    3000001    1    5    5    0    0  0.16223633794E+02 -0.45255438855E+02  0.24025997371E+02  0.53754158807E+02  0.10000000000E+01 0.  1.
        -13    1    6    6    0    0 -0.38179931567E+00 -0.39029701635E+01  0.89919426444E+00  0.40247387666E+01  0.10500000000E+00 0. -1.
         13    1    6    6    0    0 -0.35421504610E+00 -0.45601638912E+01  0.11650062469E+01  0.47211044861E+01  0.10500000000E+00 0.  1.
</event>
<event>
11    0  0.3422856E-009  0.9118800E+02  0.7816531E-02  0.1126479E+00
         25   -1    0    0    0    0  0.00000000000E+00  0.00000000000E+00  0.99999998245E-14  0.12500000000E+03  0.12500000000E+03 0.  0.
    3000001    1    3    3    0    0  0.23224198612E+02  0.33764522650E+02 -0.14141194071E+02  0.43363345820E+02  0.10000000000E+01 0.  1.
    1000022    2    1    0    0    0  0.33524972884E+02  0.49888694234E+02 -0.13908425191E+02  0.62500000206E+02  0.10000005757E+02 0.  0.
    3000022    2    3    3    0    0  0.10300774272E+02  0.16124171585E+02  0.23276888076E+00  0.19136654386E+02  0.24999966985E+00 0.  0.
    1000022    2    1    0    0    0 -0.33524972884E+02 -0.49888694234E+02  0.13908425191E+02  0.62499999794E+02  0.10000003187E+02 0.  0.
    3000022    2    5    5    0    0 -0.21030364562E+02 -0.37397011268E+02  0.12777622632E+02  0.44767653789E+02  0.25000040879E+00 0.  0.
        -13    1    4    4    0    0  0.60239401695E+01  0.93090676188E+01  0.13346738793E+00  0.11089428914E+02  0.10500000000E+00 0.  1.
         13    1    4    4    0    0  0.42768341026E+01  0.68151039657E+01  0.99301492825E-01  0.80472254716E+01  0.10500000000E+00 0. -1.
    3000001    1    5    5    0    0 -0.12494608322E+02 -0.12491682966E+02  0.11308025585E+01  0.17732346006E+02  0.10000000000E+01 0.  1.
        -13    1    6    6    0    0 -0.60603191434E+01 -0.10863097979E+02  0.37118949911E+01  0.12981662268E+02  0.10500000000E+00 0.  1.
         13    1    6    6    0    0 -0.14970045419E+02 -0.26533913289E+02  0.90657276409E+01  0.31785991521E+02  0.10500000000E+00 0. -1.
</event>
<event>
11    0  0.3422856E-009  0.9118800E+02  0.7816531E-02  0.1126479E+00
         25   -1    0    0    0    0  0.00000000000E+00  0.00000000000E+00  0.99999998245E-14  0.12500000000E+03  0.12500000000E+03 0.  0.
    3000001    1    3    3    0    0 -0.18592812925E+02 -0.33682239014E+02 -0.31855595367E+02  0.49959632441E+02  0.10000000000E+01 0.  1.
    1000022    2    1    0    0    0 -0.27103652278E+02 -0.39024616279E+02 -0.39353794038E+02  0.62500001821E+02  0.10000023995E+02 0.  0.
    3000022    2    3    3    0    0 -0.85108393529E+01 -0.53423772652E+01 -0.74981986707E+01  0.12540369380E+02  0.24999908391E+00 0.  0.
    1000022    2    1    0    0    0  0.27103652278E+02  0.39024616279E+02  0.39353794038E+02  0.62499998179E+02  0.10000001233E+02 0.  0.
    3000022    2    5    5    0    0  0.24231706106E+02  0.37244339609E+02  0.33421928644E+02  0.55600397691E+02  0.24999080549E+00 0.  0.
        -13    1    4    4    0    0 -0.59365437909E+01 -0.37207181251E+01 -0.52848124089E+01  0.87764778097E+01  0.10500000000E+00 0. -1.
         13    1    4    4    0    0 -0.25742955620E+01 -0.16216591400E+01 -0.22133862619E+01  0.37638915701E+01  0.10500000000E+00 0.  1.
    3000001    1    5    5    0    0  0.28719461724E+01  0.17802766694E+01  0.59318653939E+01  0.68996004876E+01  0.10000000000E+01 0. -1.
        -13    1    6    6    0    0  0.17584402895E+02  0.26977421792E+02  0.24254920902E+02  0.40315068208E+02  0.10500000000E+00 0. -1.
         13    1    6    6    0    0  0.66473032104E+01  0.10266917818E+02  0.91670077424E+01  0.15285329483E+02  0.10500000000E+00 0.  1.
</event>
<event>
11    0  0.3422856E-009  0.9118800E+02  0.7816531E-02  0.1126479E+00
         25   -1    0    0    0    0  0.00000000000E+00  0.00000000000E+00  0.99999998245E-14  0.12500000000E+03  0.12500000000E+03 0.  0.
    3000001    1    3    3    0    0 -0.46065874386E+01  0.71474531158E+01 -0.45103425066E+01  0.96772890521E+01  0.10000000000E+01 0.  1.
    1000022    2    1    0    0    0 -0.12918051840E+02  0.41763259036E+02 -0.43533945901E+02  0.62499998053E+02  0.99999721095E+01 0.  0.
    3000022    2    3    3    0    0 -0.83114644014E+01  0.34615805921E+02 -0.39023603394E+02  0.52822709000E+02  0.25000848751E+00 0.  0.
    1000022    2    1    0    0    0  0.12918051840E+02 -0.41763259036E+02  0.43533945901E+02  0.62500001947E+02  0.99999964532E+01 0.  0.
    3000022    2    5    5    0    0  0.84466347852E+01 -0.12977642328E+02  0.12287484705E+02  0.19768905109E+02  0.24997848857E+00 0.  0.
        -13    1    4    4    0    0 -0.49004932800E+01  0.20165447659E+02 -0.22703077361E+02  0.30758752581E+02  0.10500000000E+00 0. -1.
         13    1    4    4    0    0 -0.34109711214E+01  0.14450358261E+02 -0.16320526033E+02  0.22063956419E+02  0.10500000000E+00 0.  1.
    3000001    1    5    5    0    0  0.44714170547E+01 -0.28785616708E+02  0.31246461196E+02  0.42731096839E+02  0.10000000000E+01 0. -1.
        -13    1    6    6    0    0  0.36967980726E+01 -0.55817012168E+01  0.53612477675E+01  0.85776282903E+01  0.10500000000E+00 0.  1.
         13    1    6    6    0    0  0.47498367126E+01 -0.73959411111E+01  0.69262369373E+01  0.11191276818E+02  0.10500000000E+00 0. -1.
</event>
<event>
11    0  0.3422856E-009  0.9118800E+02  0.7816531E-02  0.1126479E+00
         25   -1    0    0    0    0  0.00000000000E+00  0.00000000000E+00  0.99999998245E-14  0.12500000000E+03  0.12500000000E+03 0.  0.
    3000001    1    3    3    0    0 -0.66679907790E+00 -0.21325249570E+01 -0.44885876305E+01  0.51127001300E+01  0.10000000000E+01 0. -1.
    1000022    2    1    0    0    0 -0.11411845539E+02 -0.49791384454E+02 -0.34595342989E+02  0.62499999788E+02  0.10000001626E+02 0.  0.
    3000022    2    3    3    0    0 -0.10745046461E+02 -0.47658859497E+02 -0.30106755359E+02  0.57387299658E+02  0.25006363935E+00 0.  0.
    1000022    2    1    0    0    0  0.11411845539E+02  0.49791384454E+02  0.34595342989E+02  0.62500000212E+02  0.10000004274E+02 0.  0.
    3000022    2    5    5    0    0  0.95853279457E+01  0.44252880869E+02  0.26472286481E+02  0.52450361636E+02  0.25001425615E+00 0.  0.
        -13    1    4    4    0    0 -0.35446345752E+01 -0.15493782226E+02 -0.97789179254E+01  0.18661725074E+02  0.10500000000E+00 0. -1.
         13    1    4    4    0    0 -0.72004118856E+01 -0.32165077271E+02 -0.20327837433E+02  0.38725574584E+02  0.10500000000E+00 0.  1.
    3000001    1    5    5    0    0  0.18265175930E+01  0.55385035849E+01  0.81230565078E+01  0.10049638576E+02  0.10000000000E+01 0.  1.
        -13    1    6    6    0    0  0.54018997481E+01  0.24968669157E+02  0.14859530712E+02  0.29553876875E+02  0.10500000000E+00 0.  1.
         13    1    6    6    0    0  0.41834281977E+01  0.19284211712E+02  0.11612755770E+02  0.22896484761E+02  0.10500000000E+00 0. -1.
</event>
<event>
11    0  0.3422856E-009  0.9118800E+02  0.7816531E-02  0.1126479E+00
         25   -1    0    0    0    0  0.00000000000E+00  0.00000000000E+00  0.99999998245E-14  0.12500000000E+03  0.12500000000E+03 0.  0.
    3000001    1    3    3    0    0  0.10004610529E+01 -0.11167826690E+02 -0.44239014829E+01  0.12095130409E+02  0.10000000000E+01 0. -1.
    1000022    2    1    0    0    0 -0.25679450961E+01 -0.61442940476E+02 -0.49416873156E+01  0.62500003068E+02  0.10000041677E+02 0.  0.
    3000022    2    3    3    0    0 -0.35684061490E+01 -0.50275113787E+02 -0.51778583265E+00  0.50404872658E+02  0.24999364355E+00 0.  0.
    1000022    2    1    0    0    0  0.25679450961E+01  0.61442940476E+02  0.49416873156E+01  0.62499996932E+02  0.10000003332E+02 0.  0.
    3000022    2    5    5    0    0  0.19260764780E+01  0.19930699744E+01  0.79303469595E+00  0.28937018239E+01  0.25001538838E+00 0.  0.
        -13    1    4    4    0    0 -0.14869615792E+01 -0.20087683902E+02 -0.19128408636E+00  0.20143825702E+02  0.10500000000E+00 0. -1.
         13    1    4    4    0    0 -0.20814445699E+01 -0.30187429885E+02 -0.32650174630E+00  0.30261046957E+02  0.10500000000E+00 0.  1.
    3000001    1    5    5    0    0  0.64186861811E+00  0.59449870502E+02  0.41486526196E+01  0.59606295109E+02  0.10000000000E+01 0.  1.
        -13    1    6    6    0    0  0.99453343425E+00  0.96766602113E+00  0.34203404454E+00  0.14329991514E+01  0.10500000000E+00 0.  1.
         13    1    6    6    0    0  0.93154304378E+00  0.10254039532E+01  0.45100065140E+00  0.14607026724E+01  0.10500000000E+00 0. -1.
</event>
<event>
11    0  0.3422856E-009  0.9118800E+02  0.7816531E-02  0.1126479E+00
         25   -1    0    0    0    0  0.00000000000E+00  0.00000000000E+00  0.99999998245E-14  0.12500000000E+03  0.12500000000E+03 0.  0.
    3000001    1    3    3    0    0  0.10498790841E+02 -0.24716862432E+01  0.27238576806E+02  0.29313374224E+02  0.10000000000E+01 0. -1.
    1000022    2    1    0    0    0  0.14679033178E+02 -0.12410487962E+02  0.58623850361E+02  0.62499999906E+02  0.99999965311E+01 0.  0.
    3000022    2    3    3    0    0  0.41802423371E+01 -0.99388017186E+01  0.31385273555E+02  0.33186625682E+02  0.25004481625E+00 0.  0.
    1000022    2    1    0    0    0 -0.14679033178E+02  0.12410487962E+02 -0.58623850361E+02  0.62500000094E+02  0.99999977008E+01 0.  0.
    3000022    2    5    5    0    0 -0.32941825070E+01  0.64231983352E+01 -0.33352376578E+02  0.34125542406E+02  0.25001173719E+00 0.  0.
        -13    1    4    4    0    0  0.24790143481E+01 -0.58889613895E+01  0.18401101935E+02  0.19479141557E+02  0.10500000000E+00 0.  1.
         13    1    4    4    0    0  0.17012279890E+01 -0.40498403291E+01  0.12984171621E+02  0.13707484125E+02  0.10500000000E+00 0. -1.
    3000001    1    5    5    0    0 -0.11384850671E+02  0.59872896266E+01 -0.25271473784E+02  0.28374457688E+02  0.10000000000E+01 0. -1.
        -13    1    6    6    0    0 -0.24880524765E+01  0.48920557254E+01 -0.25371770518E+02  0.25958820824E+02  0.10500000000E+00 0.  1.
         13    1    6    6    0    0 -0.80613003053E+00  0.15311426098E+01 -0.79806060596E+01  0.81667215819E+01  0.10500000000E+00 0. -1.
</event>
<event>
11    0  0.3422856E-009  0.9118800E+02  0.7816531E-02  0.1126479E+00
         25   -1    0    0    0    0  0.00000000000E+00  0.00000000000E+00  0.99999998245E-14  0.12500000000E+03  0.12500000000E+03 0.  0.
    3000001    1    3    3    0    0  0.26167926995E+02 -0.80408313231E+01  0.27152102895E+02  0.38570092859E+02  0.10000000000E+01 0. -1.
    1000022    2    1    0    0    0  0.43909751480E+02 -0.54360415021E+01  0.42995735000E+02  0.62499999656E+02  0.99999953312E+01 0.  0.
    3000022    2    3    3    0    0  0.17741824485E+02  0.26047898209E+01  0.15843632104E+02  0.23929906797E+02  0.24998991602E+00 0.  0.
    1000022    2    1    0    0    0 -0.43909751480E+02  0.54360415021E+01 -0.42995735000E+02  0.62500000344E+02  0.99999996306E+01 0.  0.
    3000022    2    5    5    0    0 -0.71349323661E+01 -0.54870700171E+00 -0.28145032313E+01  0.76936510593E+01  0.24999788122E+00 0.  0.
        -13    1    4    4    0    0  0.50374490968E+01  0.73583902890E+00  0.44441965759E+01  0.67586434056E+01  0.10500000000E+00 0. -1.
         13    1    4    4    0    0  0.12704375388E+02  0.18689507920E+01  0.11399435529E+02  0.17171263391E+02  0.10500000000E+00 0.  1.
    3000001    1    5    5    0    0 -0.36774819114E+02  0.59847485038E+01 -0.40181231768E+02  0.54806349285E+02  0.10000000000E+01 0.  1.
        -13    1    6    6    0    0 -0.29066740910E+01 -0.16090359839E+00 -0.11315664933E+01  0.31250779139E+01  0.10500000000E+00 0. -1.
         13    1    6    6    0    0 -0.42282582751E+01 -0.38780340332E+00 -0.16829367380E+01  0.45685731454E+01  0.10500000000E+00 0.  1.
</event>
<event>
11    0  0.3422856E-009  0.9118800E+02  0.7816531E-02  0.1126479E+00
         25   -1    0    0    0    0  0.00000000000E+00  0.00000000000E+00  0.99999998245E-14  0.12500000000E+03  0.12500000000E+03 0.  0.
    3000001    1    3    3    0    0 -0.12673627809E+02  0.29201703566E+02  0.54164705583E+01  0.32306322699E+02  0.10000000000E+01 0. -1.
    1000022    2    1    0    0    0 -0.20625301886E+02  0.58114293024E+02  0.18910301752E+01  0.62500000521E+02  0.99999969184E+01 0.  0.
    3000022    2    3    3    0    0 -0.79516740764E+01  0.28912589458E+02 -0.35254403831E+01  0.30193677822E+02  0.25000143762E+00 0.  0.
    1000022    2    1    0    0    0  0.20625301886E+02 -0.58114293024E+02 -0.18910301752E+01  0.62499999479E+02  0.99999904116E+01 0.  0.
    3000022    2    5    5    0    0  0.17842276989E+02 -0.55443998362E+02 -0.40105228869E+00  0.58246091246E+02  0.24999994021E+00 0.  0.
        -13    1    4    4    0    0 -0.39167255628E+01  0.14472263509E+02 -0.17333131677E+01  0.15093129223E+02  0.10500000000E+00 0. -1.
         13    1    4    4    0    0 -0.40349485136E+01  0.14440325950E+02 -0.17921272153E+01  0.15100548599E+02  0.10500000000E+00 0.  1.
    3000001    1    5    5    0    0  0.27830248965E+01 -0.26702946625E+01 -0.14899778865E+01  0.42539082337E+01  0.10000000000E+01 0.  1.
        -13    1    6    6    0    0  0.44590193998E+01 -0.13865764291E+02 -0.74074308012E-01  0.14565671470E+02  0.10500000000E+00 0.  1.
         13    1    6    6    0    0  0.13383257589E+02 -0.41578234071E+02 -0.32697798068E+00  0.43680419775E+02  0.10500000000E+00 0. -1.
</event>
<event>
11    0  0.3422856E-009  0.9118800E+02  0.7816531E-02  0.1126479E+00
         25   -1    0    0    0    0  0.00000000000E+00  0.00000000000E+00  0.99999998245E-14  0.12500000000E+03  0.12500000000E+03 0.  0.
    3000001    1    3    3    0    0 -0.16647596781E+02  0.90415287350E+01 -0.22369663049E+02  0.29330761077E+02  0.10000000000E+01 0. -1.
    1000022    2    1    0    0    0 -0.27233296438E+02  0.15646786587E+02 -0.53101559044E+02  0.62499999855E+02  0.10000002183E+02 0.  0.
    3000022    2    3    3    0    0 -0.10585699657E+02  0.66052578522E+01 -0.30731895995E+02  0.33169238778E+02  0.25000233026E+00 0.  0.
    1000022    2    1    0    0    0  0.27233296438E+02 -0.15646786587E+02  0.53101559044E+02  0.62500000145E+02  0.10000003992E+02 0.  0.
    3000022    2    5    5    0    0  0.43184206904E+00 -0.33405696964E+01  0.42625000854E+01  0.54385016507E+01  0.24999951473E+00 0.  0.
        -13    1    4    4    0    0 -0.72974259252E+01  0.45632567471E+01 -0.21322921389E+02  0.22994645873E+02  0.10500000000E+00 0.  1.
         13    1    4    4    0    0 -0.32882737321E+01  0.20420011051E+01 -0.94089746059E+01  0.10174592905E+02  0.10500000000E+00 0. -1.
    3000001    1    5    5    0    0  0.26801454369E+02 -0.12306216891E+02  0.48839058958E+02  0.57061498494E+02  0.10000000000E+01 0. -1.
        -13    1    6    6    0    0  0.11220275586E+00 -0.85224316461E+00  0.10459751247E+01  0.13579384491E+01  0.10500000000E+00 0.  1.
         13    1    6    6    0    0  0.31963931318E+00 -0.24883265318E+01  0.32165249607E+01  0.40805632016E+01  0.10500000000E+00 0. -1.
</event>
<event>
11    0  0.3422856E-009  0.9118800E+02  0.7816531E-02  0.1126479E+00
         25   -1    0    0    0    0  0.00000000000E+00  0.00000000000E+00  0.99999998245E-14  0.12500000000E+03  0.12500000000E+03 0.  0.
    3000001    1    3    3    0    0  0.44154987257E+01  0.37078113047E+02 -0.32899815624E+02  0.49776309267E+02  0.10000000000E+01 0. -1.
    1000022    2    1    0    0    0  0.10255805232E+02  0.44846493795E+02 -0.41107913187E+02  0.62499999308E+02  0.99999920115E+01 0.  0.
    3000022    2    3    3    0    0  0.58403065063E+01  0.77683807471E+01 -0.82080975632E+01  0.12723690041E+02  0.25000624697E+00 0.  0.
    1000022    2    1    0    0    0 -0.10255805232E+02 -0.44846493795E+02  0.41107913187E+02  0.62500000692E+02  0.10000000665E+02 0.  0.
    3000022    2    5    5    0    0 -0.10946626444E+02 -0.26623428527E+02  0.24097637700E+02  0.37541899525E+02  0.25000043879E+00 0.  0.
        -13    1    4    4    0    0  0.16236578534E+01  0.21551545291E+01 -0.23308477620E+01  0.35671882708E+01  0.10500000000E+00 0. -1.
         13    1    4    4    0    0  0.42166486528E+01  0.56132262181E+01 -0.58772498011E+01  0.91565017698E+01  0.10500000000E+00 0.  1.
    3000001    1    5    5    0    0  0.69082121252E+00 -0.18223065268E+02  0.17010275487E+02  0.24958101167E+02  0.10000000000E+01 0.  1.
        -13    1    6    6    0    0 -0.69859780054E+01 -0.17038003651E+02  0.15343044889E+02  0.23969094864E+02  0.10500000000E+00 0.  1.
         13    1    6    6    0    0 -0.39606484391E+01 -0.95854248754E+01  0.87545928109E+01  0.13572804662E+02  0.10500000000E+00 0. -1.
</event>
<event>
11    0  0.3422856E-009  0.9118800E+02  0.7816531E-02  0.1126479E+00
         25   -1    0    0    0    0  0.00000000000E+00  0.00000000000E+00  0.99999998245E-14  0.12500000000E+03  0.12500000000E+03 0.  0.
    3000001    1    3    3    0    0 -0.23354716868E+02  0.49850989855E+01  0.49522641095E+01  0.24409402526E+02  0.10000000000E+01 0. -1.
    1000022    2    1    0    0    0 -0.56339253263E+02  0.84309194361E+01  0.23686666516E+02  0.62500000446E+02  0.10000001216E+02 0.  0.
    3000022    2    3    3    0    0 -0.32984536395E+02  0.34458204506E+01  0.18734402406E+02  0.38090597919E+02  0.24999314739E+00 0.  0.
    1000022    2    1    0    0    0  0.56339253263E+02 -0.84309194361E+01 -0.23686666516E+02  0.62499999554E+02  0.99999956473E+01 0.  0.
    3000022    2    5    5    0    0  0.18181696823E+02 -0.55559377235E+01 -0.38979962844E+01  0.19408746349E+02  0.25003290385E+00 0.  0.
        -13    1    4    4    0    0 -0.14591970165E+02  0.14785307255E+01  0.82300445687E+01  0.16818332409E+02  0.10500000000E+00 0.  1.
         13    1    4    4    0    0 -0.18392566230E+02  0.19672897251E+01  0.10504357837E+02  0.21272265511E+02  0.10500000000E+00 0. -1.
    3000001    1    5    5    0    0  0.38157556439E+02 -0.28749817126E+01 -0.19788670231E+02  0.43091253205E+02  0.10000000000E+01 0. -1.
        -13    1    6    6    0    0  0.11080988692E+02 -0.34145890951E+01 -0.23203936283E+01  0.11825522427E+02  0.10500000000E+00 0. -1.
         13    1    6    6    0    0  0.71007081316E+01 -0.21413486284E+01 -0.15776026561E+01  0.75832239225E+01  0.10500000000E+00 0.  1.
</event>
<event>
11    0  0.3422856E-009  0.9118800E+02  0.7816531E-02  0.1126479E+00
         25   -1    0    0    0    0  0.00000000000E+00  0.00000000000E+00  0.99999998245E-14  0.12500000000E+03  0.12500000000E+03 0.  0.
    3000001    1    3    3    0    0 -0.14736781710E+02 -0.25903977894E+02 -0.62503177103E+01  0.30467282081E+02  0.10000000000E+01 0. -1.
    1000022    2    1    0    0    0 -0.29933546431E+02 -0.49186462662E+02 -0.22156820115E+02  0.62500000407E+02  0.10000003105E+02 0.  0.
    3000022    2    3    3    0    0 -0.15196764721E+02 -0.23282484768E+02 -0.15906502404E+02  0.32032718326E+02  0.24993929632E+00 0.  0.
    1000022    2    1    0    0    0  0.29933546431E+02  0.49186462662E+02  0.22156820115E+02  0.62499999593E+02  0.99999980204E+01 0.  0.
    3000022    2    5    5    0    0  0.22712048084E+02  0.28683031969E+02  0.15586298484E+02  0.39768689401E+02  0.25001023213E+00 0.  0.
        -13    1    4    4    0    0 -0.76086832836E+01 -0.11776178466E+02 -0.80426553963E+01  0.16163717747E+02  0.10500000000E+00 0. -1.
         13    1    4    4    0    0 -0.75880814374E+01 -0.11506306302E+02 -0.78638470082E+01  0.15869000579E+02  0.10500000000E+00 0.  1.
    3000001    1    5    5    0    0  0.72214983469E+01  0.20503430694E+02  0.65705216308E+01  0.22731310193E+02  0.10000000000E+01 0.  1.
        -13    1    6    6    0    0  0.11560457090E+02  0.14703648800E+02  0.79906650546E+01  0.20339695405E+02  0.10500000000E+00 0.  1.
         13    1    6    6    0    0  0.11151590994E+02  0.13979383168E+02  0.75956334294E+01  0.19428993995E+02  0.10500000000E+00 0. -1.
</event>
<event>
11    0  0.3422856E-009  0.9118800E+02  0.7816531E-02  0.1126479E+00
         25   -1    0    0    0    0  0.00000000000E+00  0.00000000000E+00  0.99999998245E-14  0.12500000000E+03  0.12500000000E+03 0.  0.
    3000001    1    3    3    0    0 -0.57710938313E+02  0.10260129379E+02 -0.69229368561E+01  0.59031768655E+02  0.10000000000E+01 0.  1.
    1000022    2    1    0    0    0 -0.60452335568E+02  0.88906213829E+01 -0.85277157892E+01  0.62499999684E+02  0.99999999859E+01 0.  0.
    3000022    2    3    3    0    0 -0.27413972543E+01 -0.13695079965E+01 -0.16047789330E+01  0.34682310281E+01  0.24999996395E+00 0.  0.
    1000022    2    1    0    0    0  0.60452335568E+02 -0.88906213829E+01  0.85277157892E+01  0.62500000316E+02  0.10000003942E+02 0.  0.
    3000022    2    5    5    0    0  0.25582778255E+02 -0.59467662263E+01 -0.77396288798E+00  0.26277444684E+02  0.25001752005E+00 0.  0.
        -13    1    4    4    0    0 -0.18256702553E+01 -0.92019424713E+00 -0.10090403167E+01  0.22823270349E+01  0.10500000000E+00 0.  1.
         13    1    4    4    0    0 -0.91572699898E+00 -0.44931374940E+00 -0.59573861633E+00  0.11859039932E+01  0.10500000000E+00 0. -1.
    3000001    1    5    5    0    0  0.34869557312E+02 -0.29438551566E+01  0.93016786771E+01  0.36222555633E+02  0.10000000000E+01 0.  1.
        -13    1    6    6    0    0  0.10028471297E+02 -0.23923353110E+01 -0.32190354904E+00  0.10315432695E+02  0.10500000000E+00 0.  1.
         13    1    6    6    0    0  0.15554306958E+02 -0.35544309153E+01 -0.45205933894E+00  0.15962011988E+02  0.10500000000E+00 0. -1.
</event>
<event>
11    0  0.3422856E-009  0.9118800E+02  0.7816531E-02  0.1126479E+00
         25   -1    0    0    0    0  0.00000000000E+00  0.00000000000E+00  0.99999998245E-14  0.12500000000E+03  0.12500000000E+03 0.  0.
    3000001    1    3    3    0    0 -0.13020702625E+02  0.70542318561E+01  0.12469363939E+02  0.19385198503E+02  0.10000000000E+01 0. -1.
    1000022    2    1    0    0    0 -0.34736912398E+02  0.13638368760E+02  0.49128319015E+02  0.62500000080E+02  0.10000004768E+02 0.  0.
    3000022    2    3    3    0    0 -0.21716209773E+02  0.65841369037E+01  0.36658955076E+02  0.43114801578E+02  0.25000428941E+00 0.  0.
    1000022    2    1    0    0    0  0.34736912398E+02 -0.13638368760E+02 -0.49128319015E+02  0.62499999920E+02  0.10000003764E+02 0.  0.
    3000022    2    5    5    0    0  0.32029397703E+02 -0.14228148481E+02 -0.47789815837E+02  0.59264251675E+02  0.25000478719E+00 0.  0.
        -13    1    4    4    0    0 -0.10814799975E+02  0.33496668964E+01  0.18281220485E+02  0.21503353557E+02  0.10500000000E+00 0. -1.
         13    1    4    4    0    0 -0.10901409798E+02  0.32344700073E+01  0.18377734591E+02  0.21611448020E+02  0.10500000000E+00 0.  1.
    3000001    1    5    5    0    0  0.27075146953E+01  0.58977972164E+00 -0.13385031781E+01  0.32357482447E+01  0.10000000000E+01 0.  1.
        -13    1    6    6    0    0  0.87033220994E+01 -0.38811399371E+01 -0.13052364213E+02  0.16161259213E+02  0.10500000000E+00 0.  1.
         13    1    6    6    0    0  0.23326075604E+02 -0.10347008544E+02 -0.34737451624E+02  0.43102992462E+02  0.10500000000E+00 0. -1.
</event>
<event>
11    0  0.3422856E-009  0.9118800E+02  0.7816531E-02  0.1126479E+00
         25   -1    0    0    0    0  0.00000000000E+00  0.00000000000E+00  0.99999998245E-14  0.12500000000E+03  0.12500000000E+03 0.  0.
    3000001    1    3    3    0    0  0.10813541989E+02  0.46118558842E+02  0.15714792301E+01  0.47405945903E+02  0.10000000000E+01 0. -1.
    1000022    2    1    0    0    0  0.18938810012E+02  0.58567489328E+02  0.41738084323E+01  0.62499999787E+02  0.99999982870E+01 0.  0.
    3000022    2    3    3    0    0  0.81252680231E+01  0.12448930486E+02  0.26023292022E+01  0.15094053884E+02  0.24998937590E+00 0.  0.
    1000022    2    1    0    0    0 -0.18938810012E+02 -0.58567489328E+02 -0.41738084323E+01  0.62500000213E+02  0.10000000950E+02 0.  0.
    3000022    2    5    5    0    0 -0.11756479639E+02 -0.48764832734E+02 -0.36560746637E+01  0.50295656964E+02  0.25000494872E+00 0.  0.
        -13    1    4    4    0    0  0.32481802444E+01  0.48626147539E+01  0.10213725936E+01  0.59371646533E+01  0.10500000000E+00 0. -1.
         13    1    4    4    0    0  0.48770877787E+01  0.75863157318E+01  0.15809566085E+01  0.91568892306E+01  0.10500000000E+00 0.  1.
    3000001    1    5    5    0    0 -0.71823303723E+01 -0.98026565939E+01 -0.51773376855E+00  0.12204343249E+02  0.10000000000E+01 0. -1.
        -13    1    6    6    0    0 -0.50928290748E+01 -0.21236049624E+02 -0.16523247207E+01  0.21900865590E+02  0.10500000000E+00 0. -1.
         13    1    6    6    0    0 -0.66636505645E+01 -0.27528783110E+02 -0.20037499430E+01  0.28394791374E+02  0.10500000000E+00 0.  1.
</event>
<event>
11    0  0.3422856E-009  0.9118800E+02  0.7816531E-02  0.1126479E+00
         25   -1    0    0    0    0  0.00000000000E+00  0.00000000000E+00  0.99999998245E-14  0.12500000000E+03  0.12500000000E+03 0.  0.
    3000001    1    3    3    0    0 -0.52886155431E+01  0.69401479495E+01 -0.28100567695E+02  0.29441076962E+02  0.10000000000E+01 0.  1.
    1000022    2    1    0    0    0 -0.33935162872E+01  0.21426560308E+02 -0.57754959178E+02  0.62500008959E+02  0.10000118542E+02 0.  0.
    3000022    2    3    3    0    0  0.18950992559E+01  0.14486412358E+02 -0.29654391483E+02  0.33058931997E+02  0.25001269179E+00 0.  0.
    1000022    2    1    0    0    0  0.33935162872E+01 -0.21426560308E+02  0.57754959178E+02  0.62499991041E+02  0.10000006550E+02 0.  0.
    3000022    2    5    5    0    0  0.67964822898E+01 -0.14012566146E+02  0.40357130846E+02  0.43258579510E+02  0.25001905361E+00 0.  0.
        -13    1    4    4    0    0  0.43904974843E+00  0.34688084223E+01 -0.71261452685E+01  0.79384109203E+01  0.10500000000E+00 0. -1.
         13    1    4    4    0    0  0.14560495075E+01  0.11017603936E+02 -0.22528246215E+02  0.25120521077E+02  0.10500000000E+00 0.  1.
    3000001    1    5    5    0    0 -0.34029660026E+01 -0.74139941619E+01  0.17397828332E+02  0.19241411531E+02  0.10000000000E+01 0.  1.
        -13    1    6    6    0    0  0.28679928945E+01 -0.59695820012E+01  0.17330230770E+02  0.18552876220E+02  0.10500000000E+00 0.  1.
         13    1    6    6    0    0  0.39284893953E+01 -0.80429841447E+01  0.23026900077E+02  0.24705703290E+02  0.10500000000E+00 0. -1.
</event>
<event>
11    0  0.3422856E-009  0.9118800E+02  0.7816531E-02  0.1126479E+00
         25   -1    0    0    0    0  0.00000000000E+00  0.00000000000E+00  0.99999998245E-14  0.12500000000E+03  0.12500000000E+03 0.  0.
    3000001    1    3    3    0    0 -0.28334998871E+01  0.14692013542E+02  0.63227162589E+01  0.16274542218E+02  0.10000000000E+01 0. -1.
    1000022    2    1    0    0    0  0.56363395948E+01  0.56515157070E+02  0.24093953979E+02  0.62499999509E+02  0.10000000878E+02 0.  0.
    3000022    2    3    3    0    0  0.84698394819E+01  0.41823143528E+02  0.17771237720E+02  0.46225457290E+02  0.24999234418E+00 0.  0.
    1000022    2    1    0    0    0 -0.56363395948E+01 -0.56515157070E+02 -0.24093953979E+02  0.62500000491E+02  0.10000007021E+02 0.  0.
    3000022    2    5    5    0    0 -0.14149093563E+01 -0.47408346825E+02 -0.21553419037E+02  0.52097655377E+02  0.25001277929E+00 0.  0.
        -13    1    4    4    0    0  0.37252481302E+01  0.18264923920E+02  0.78289885258E+01  0.20218531246E+02  0.10500000000E+00 0.  1.
         13    1    4    4    0    0  0.47445913517E+01  0.23558219608E+02  0.99422491943E+01  0.26006926044E+02  0.10500000000E+00 0. -1.
    3000001    1    5    5    0    0 -0.42214302385E+01 -0.91068102451E+01 -0.25405349418E+01  0.10402345115E+02  0.10000000000E+01 0. -1.
        -13    1    6    6    0    0 -0.75484000644E+00 -0.23090598288E+02 -0.10480313524E+02  0.25369144828E+02  0.10500000000E+00 0. -1.
         13    1    6    6    0    0 -0.66006934990E+00 -0.24317748537E+02 -0.11073105513E+02  0.26728510549E+02  0.10500000000E+00 0.  1.
</event>
<event>
11    0  0.3422856E-009  0.9118800E+02  0.7816531E-02  0.1126479E+00
         25   -1    0    0    0    0  0.00000000000E+00  0.00000000000E+00  0.99999998245E-14  0.12500000000E+03  0.12500000000E+03 0.  0.
    3000001    1    3    3    0    0  0.33842151764E+02  0.45567478806E+02  0.74693850988E+00  0.56773623082E+02  0.10000000000E+01 0.  1.
    1000022    2    1    0    0    0  0.38811070044E+02  0.47951327180E+02 -0.78799437666E+00  0.62500000830E+02  0.10000011619E+02 0.  0.
    3000022    2    3    3    0    0  0.49689182807E+01  0.23838483736E+01 -0.15349328865E+01  0.57263777482E+01  0.25000240193E+00 0.  0.
    1000022    2    1    0    0    0 -0.38811070044E+02 -0.47951327180E+02  0.78799437666E+00  0.62499999170E+02  0.10000001239E+02 0.  0.
    3000022    2    5    5    0    0 -0.12402952842E+02 -0.12304775247E+02 -0.38250663247E+01  0.17886709132E+02  0.24999627179E+00 0.  0.
        -13    1    4    4    0    0  0.17343600604E+01  0.85750335208E+00 -0.48545341160E+00  0.19975001459E+01  0.10500000000E+00 0.  1.
         13    1    4    4    0    0  0.32345582202E+01  0.15263450216E+01 -0.10494794749E+01  0.37288776024E+01  0.10500000000E+00 0. -1.
    3000001    1    5    5    0    0 -0.26408117203E+02 -0.35646551933E+02  0.46130607013E+01  0.44613290037E+02  0.10000000000E+01 0.  1.
        -13    1    6    6    0    0 -0.71772131203E+01 -0.70333435987E+01 -0.22211198310E+01  0.10291973021E+02  0.10500000000E+00 0.  1.
         13    1    6    6    0    0 -0.52257397214E+01 -0.52714316481E+01 -0.16039464937E+01  0.75947361120E+01  0.10500000000E+00 0. -1.
</event>
<event>
11    0  0.3422856E-009  0.9118800E+02  0.7816531E-02  0.1126479E+00
         25   -1    0    0    0    0  0.00000000000E+00  0.00000000000E+00  0.99999998245E-14  0.12500000000E+03  0.12500000000E+03 0.  0.
    3000001    1    3    3    0    0  0.29390764220E+02  0.23895560353E+02  0.51518650643E+01  0.38240770647E+02  0.10000000000E+01 0. -1.
    1000022    2    1    0    0    0  0.51308777714E+02  0.32401545460E+02  0.11126535820E+02  0.62500001419E+02  0.99999779673E+01 0.  0.
    3000022    2    3    3    0    0  0.21918013494E+02  0.85059851073E+01  0.59746707553E+01  0.24259230773E+02  0.24997774629E+00 0.  0.
    1000022    2    1    0    0    0 -0.51308777714E+02 -0.32401545460E+02 -0.11126535820E+02  0.62499998581E+02  0.99999602273E+01 0.  0.
    3000022    2    5    5    0    0 -0.29986786934E+02 -0.24548768696E+02 -0.73110930713E+01  0.39438103666E+02  0.25000741178E+00 0.  0.
        -13    1    4    4    0    0  0.77379184636E+01  0.29656212894E+01  0.20595149108E+01  0.85394916974E+01  0.10500000000E+00 0. -1.
         13    1    4    4    0    0  0.14180095030E+02  0.55403638179E+01  0.39151558445E+01  0.15719739075E+02  0.10500000000E+00 0.  1.
    3000001    1    5    5    0    0 -0.21321990780E+02 -0.78527767640E+01 -0.38154427483E+01  0.23061894915E+02  0.10000000000E+01 0. -1.
        -13    1    6    6    0    0 -0.19493574335E+02 -0.15905041983E+02 -0.47068879001E+01  0.25595617194E+02  0.10500000000E+00 0.  1.
         13    1    6    6    0    0 -0.10493212599E+02 -0.86437267133E+01 -0.26042051712E+01  0.13842486472E+02  0.10500000000E+00 0. -1.
</event>
<event>
11    0  0.3422856E-009  0.9118800E+02  0.7816531E-02  0.1126479E+00
         25   -1    0    0    0    0  0.00000000000E+00  0.00000000000E+00  0.99999998245E-14  0.12500000000E+03  0.12500000000E+03 0.  0.
    3000001    1    3    3    0    0  0.18626940723E+02  0.40779459613E+01  0.15588744948E+02  0.24649574702E+02  0.10000000000E+01 0. -1.
    1000022    2    1    0    0    0  0.52958361939E+02  0.12706272667E+02  0.28986424103E+02  0.62500001170E+02  0.99999949810E+01 0.  0.
    3000022    2    3    3    0    0  0.34331421216E+02  0.86283267059E+01  0.13397679154E+02  0.37850426467E+02  0.24994512658E+00 0.  0.
    1000022    2    1    0    0    0 -0.52958361939E+02 -0.12706272667E+02 -0.28986424103E+02  0.62499998830E+02  0.99999803588E+01 0.  0.
    3000022    2    5    5    0    0 -0.34358912414E+02 -0.99426297510E+01 -0.23816343859E+02  0.42972915727E+02  0.25000525481E+00 0.  0.
        -13    1    4    4    0    0  0.22100395849E+02  0.55828469478E+01  0.86809560264E+01  0.24391918729E+02  0.10500000000E+00 0. -1.
         13    1    4    4    0    0  0.12231025367E+02  0.30454797582E+01  0.47167231281E+01  0.13458507739E+02  0.10500000000E+00 0.  1.
    3000001    1    5    5    0    0 -0.18599449525E+02 -0.27636429162E+01 -0.51700802435E+01  0.19527083103E+02  0.10000000000E+01 0. -1.
        -13    1    6    6    0    0 -0.13486035067E+02 -0.39636444048E+01 -0.93846162814E+01  0.16901646859E+02  0.10500000000E+00 0. -1.
         13    1    6    6    0    0 -0.20872877347E+02 -0.59789853463E+01 -0.14431727578E+02  0.26071268868E+02  0.10500000000E+00 0.  1.
</event>
<event>
11    0  0.3422856E-009  0.9118800E+02  0.7816531E-02  0.1126479E+00
         25   -1    0    0    0    0  0.00000000000E+00  0.00000000000E+00  0.99999998245E-14  0.12500000000E+03  0.12500000000E+03 0.  0.
    3000001    1    3    3    0    0  0.88595721672E+01 -0.82104372271E+01  0.13247960240E+01  0.12192554406E+02  0.10000000000E+01 0. -1.
    1000022    2    1    0    0    0  0.40204218501E+02 -0.45223939444E+02 -0.12027736569E+02  0.62499997557E+02  0.99999681777E+01 0.  0.
    3000022    2    3    3    0    0  0.31344646334E+02 -0.37013502217E+02 -0.13352532593E+02  0.50307443151E+02  0.25001914223E+00 0.  0.
    1000022    2    1    0    0    0 -0.40204218501E+02  0.45223939444E+02  0.12027736569E+02  0.62500002443E+02  0.99999987125E+01 0.  0.
    3000022    2    5    5    0    0 -0.76486755276E+01  0.44917046741E+01  0.39958092526E+01  0.97317337193E+01  0.25000278962E+00 0.  0.
        -13    1    4    4    0    0  0.21195927412E+02 -0.24978456335E+02 -0.89770595927E+01  0.33967473319E+02  0.10500000000E+00 0. -1.
         13    1    4    4    0    0  0.10148718922E+02 -0.12035045882E+02 -0.43754730004E+01  0.16339969832E+02  0.10500000000E+00 0.  1.
    3000001    1    5    5    0    0 -0.32555542974E+02  0.40732234770E+02  0.80319273165E+01  0.52768268723E+02  0.10000000000E+01 0. -1.
        -13    1    6    6    0    0 -0.50565578333E+01  0.29060194986E+01  0.26349677586E+01  0.64006098566E+01  0.10500000000E+00 0.  1.
         13    1    6    6    0    0 -0.25921176943E+01  0.15856851755E+01  0.13608414941E+01  0.33311238627E+01  0.10500000000E+00 0. -1.
</event>
<event>
11    0  0.3422856E-009  0.9118800E+02  0.7816531E-02  0.1126479E+00
         25   -1    0    0    0    0  0.00000000000E+00  0.00000000000E+00  0.99999998245E-14  0.12500000000E+03  0.12500000000E+03 0.  0.
    3000001    1    3    3    0    0 -0.42319001386E+02  0.20721546222E+00  0.28512538368E+02  0.51038276428E+02  0.10000000000E+01 0. -1.
    1000022    2    1    0    0    0 -0.51615234517E+02 -0.42340262875E+01  0.33528934684E+02  0.62500008954E+02  0.10000112268E+02 0.  0.
    3000022    2    3    3    0    0 -0.92962331305E+01 -0.44412417497E+01  0.50163963155E+01  0.11461732525E+02  0.25000358425E+00 0.  0.
    1000022    2    1    0    0    0  0.51615234517E+02  0.42340262875E+01 -0.33528934684E+02  0.62499991046E+02  0.10000000348E+02 0.  0.
    3000022    2    5    5    0    0  0.45823027567E+02  0.46669779339E+01 -0.32833494061E+02  0.56565284134E+02  0.24999690768E+00 0.  0.
        -13    1    4    4    0    0 -0.29410402467E+01 -0.14143545068E+01  0.16443786940E+01  0.36558340625E+01  0.10500000000E+00 0.  1.
         13    1    4    4    0    0 -0.63551928838E+01 -0.30268872429E+01  0.33720176216E+01  0.78058984628E+01  0.10500000000E+00 0. -1.
    3000001    1    5    5    0    0  0.57922069498E+01 -0.43295164640E+00 -0.69544062241E+00  0.59347069125E+01  0.10000000000E+01 0.  1.
        -13    1    6    6    0    0  0.26170809201E+02  0.26701412757E+01 -0.18672227336E+02  0.32259944317E+02  0.10500000000E+00 0. -1.
         13    1    6    6    0    0  0.19652218366E+02  0.19968366582E+01 -0.14161266725E+02  0.24305339817E+02  0.10500000000E+00 0.  1.
</event>
<event>
11    0  0.3422856E-009  0.9118800E+02  0.7816531E-02  0.1126479E+00
         25   -1    0    0    0    0  0.00000000000E+00  0.00000000000E+00  0.99999998245E-14  0.12500000000E+03  0.12500000000E+03 0.  0.
    3000001    1    3    3    0    0  0.25869151588E+01 -0.32025946972E+02  0.46658384141E+01  0.32482663955E+02  0.10000000000E+01 0.  1.
    1000022    2    1    0    0    0  0.40949738792E+01 -0.61556772497E+02 -0.49498390043E+00  0.62500000554E+02  0.10000000441E+02 0.  0.
    3000022    2    3    3    0    0  0.15080587204E+01 -0.29530825525E+02 -0.51608223145E+01  0.30017336598E+02  0.25002445825E+00 0.  0.
    1000022    2    1    0    0    0 -0.40949738792E+01  0.61556772497E+02  0.49498390043E+00  0.62499999446E+02  0.99999935218E+01 0.  0.
    3000022    2    5    5    0    0 -0.30224612396E+01  0.39328009369E+02  0.50355534107E+01  0.39764895201E+02  0.24999869515E+00 0.  0.
        -13    1    4    4    0    0  0.37506847040E+00 -0.78481660060E+01 -0.13484259319E+01  0.79726823284E+01  0.10500000000E+00 0. -1.
         13    1    4    4    0    0  0.11329902500E+01 -0.21682659519E+02 -0.38123963826E+01  0.22044654270E+02  0.10500000000E+00 0.  1.
    3000001    1    5    5    0    0 -0.10725126396E+01  0.22228763128E+02 -0.45405695103E+01  0.22735104245E+02  0.10000000000E+01 0. -1.
        -13    1    6    6    0    0 -0.20336028157E+01  0.26648314366E+02  0.33622413299E+01  0.26936664432E+02  0.10500000000E+00 0.  1.
         13    1    6    6    0    0 -0.98885842389E+00  0.12679695002E+02  0.16733120808E+01  0.12828230769E+02  0.10500000000E+00 0. -1.
</event>
<event>
11    0  0.3422856E-009  0.9118800E+02  0.7816531E-02  0.1126479E+00
         25   -1    0    0    0    0  0.00000000000E+00  0.00000000000E+00  0.99999998245E-14  0.12500000000E+03  0.12500000000E+03 0.  0.
    3000001    1    3    3    0    0 -0.11989880771E+02 -0.14595432142E+02  0.45362781118E+02  0.49148405784E+02  0.10000000000E+01 0. -1.
    1000022    2    1    0    0    0 -0.10082827609E+02 -0.18618261970E+02  0.57947794478E+02  0.62499999742E+02  0.99999995775E+01 0.  0.
    3000022    2    3    3    0    0  0.19070531616E+01 -0.40228298283E+01  0.12585013359E+02  0.13351593958E+02  0.24997676183E+00 0.  0.
    1000022    2    1    0    0    0  0.10082827609E+02  0.18618261970E+02 -0.57947794478E+02  0.62500000258E+02  0.10000002803E+02 0.  0.
    3000022    2    5    5    0    0  0.90982850452E+01  0.18503909512E+02 -0.45284065976E+02  0.49758241349E+02  0.24998560446E+00 0.  0.
        -13    1    4    4    0    0  0.82613645131E+00 -0.17879068116E+01  0.53798732098E+01  0.57300238182E+01  0.10500000000E+00 0. -1.
         13    1    4    4    0    0  0.10809167103E+01 -0.22349230167E+01  0.72051401496E+01  0.76215701401E+01  0.10500000000E+00 0.  1.
    3000001    1    5    5    0    0  0.98454256433E+00  0.11435245806E+00 -0.12663728501E+02  0.12741758909E+02  0.10000000000E+01 0.  1.
        -13    1    6    6    0    0  0.49422566531E+01  0.99317940034E+01 -0.24262480552E+02  0.26678557316E+02  0.10500000000E+00 0.  1.
         13    1    6    6    0    0  0.41560283920E+01  0.85721155084E+01 -0.21021585424E+02  0.23079684033E+02  0.10500000000E+00 0. -1.
</event>
<event>
11    0  0.3422856E-009  0.9118800E+02  0.7816531E-02  0.1126479E+00
         25   -1    0    0    0    0  0.00000000000E+00  0.00000000000E+00  0.99999998245E-14  0.12500000000E+03  0.12500000000E+03 0.  0.
    3000001    1    3    3    0    0 -0.13045487942E+01  0.77687184590E+01 -0.68687323768E+01  0.10499253236E+02  0.10000000000E+01 0.  1.
    1000022    2    1    0    0    0  0.48103587813E+01  0.55686111776E+02 -0.26118326670E+02  0.62500003584E+02  0.10000043183E+02 0.  0.
    3000022    2    3    3    0    0  0.61149075754E+01  0.47917393317E+02 -0.19249594293E+02  0.52000750348E+02  0.24995872595E+00 0.  0.
    1000022    2    1    0    0    0 -0.48103587813E+01 -0.55686111776E+02  0.26118326670E+02  0.62499996416E+02  0.99999983854E+01 0.  0.
    3000022    2    5    5    0    0 -0.77034768322E+01 -0.33191441183E+02  0.15292400413E+02  0.37348833095E+02  0.25000001738E+00 0.  0.
        -13    1    4    4    0    0  0.35717245065E+01  0.28231337121E+02 -0.11400076830E+02  0.30655152720E+02  0.10500000000E+00 0. -1.
         13    1    4    4    0    0  0.25431830690E+01  0.19686056196E+02 -0.78495174628E+01  0.21345597627E+02  0.10500000000E+00 0.  1.
    3000001    1    5    5    0    0  0.28931180509E+01 -0.22494670592E+02  0.10825926257E+02  0.25151163322E+02  0.10000000000E+01 0. -1.
        -13    1    6    6    0    0 -0.58655567075E+01 -0.25204499336E+02  0.11600254833E+02  0.28359275017E+02  0.10500000000E+00 0. -1.
         13    1    6    6    0    0 -0.18379201247E+01 -0.79869418471E+01  0.36921455796E+01  0.89895580779E+01  0.10500000000E+00 0.  1.
</event>
<event>
11    0  0.3422856E-009  0.9118800E+02  0.7816531E-02  0.1126479E+00
         25   -1    0    0    0    0  0.00000000000E+00  0.00000000000E+00  0.99999998245E-14  0.12500000000E+03  0.12500000000E+03 0.  0.
    3000001    1    3    3    0    0  0.63415927284E+01  0.22086765565E+02 -0.13748329035E+01  0.23041943862E+02  0.10000000000E+01 0. -1.
    1000022    2    1    0    0    0  0.22956336933E+02  0.56786412031E+02  0.73864733975E+01  0.62499999819E+02  0.99999995660E+01 0.  0.
    3000022    2    3    3    0    0  0.16614744205E+02  0.34699646467E+02  0.87613063010E+01  0.39458055956E+02  0.25000373061E+00 0.  0.
    1000022    2    1    0    0    0 -0.22956336933E+02 -0.56786412031E+02 -0.73864733975E+01  0.62500000181E+02  0.10000001831E+02 0.  0.
    3000022    2    5    5    0    0 -0.48991595238E+01 -0.69520990088E+01  0.17966187940E+01  0.86961936931E+01  0.25000197868E+00 0.  0.
        -13    1    4    4    0    0  0.76482314354E+01  0.15854072062E+02  0.40526132622E+01  0.18063270587E+02  0.10500000000E+00 0.  1.
         13    1    4    4    0    0  0.89665127696E+01  0.18845574405E+02  0.47086930387E+01  0.21394785370E+02  0.10500000000E+00 0. -1.
    3000001    1    5    5    0    0 -0.18057177410E+02 -0.49834313022E+02 -0.91830921914E+01  0.53803806488E+02  0.10000000000E+01 0. -1.
        -13    1    6    6    0    0 -0.28595767988E+01 -0.39736507690E+01  0.98956380841E+00  0.49957323220E+01  0.10500000000E+00 0. -1.
         13    1    6    6    0    0 -0.20395827250E+01 -0.29784482398E+01  0.80705498556E+00  0.37004613712E+01  0.10500000000E+00 0.  1.
</event>
<event>
11    0  0.3422856E-009  0.9118800E+02  0.7816531E-02  0.1126479E+00
         25   -1    0    0    0    0  0.00000000000E+00  0.00000000000E+00  0.99999998245E-14  0.12500000000E+03  0.12500000000E+03 0.  0.
    3000001    1    3    3    0    0  0.16098084547E+02 -0.16678923197E+00 -0.59552265801E+02  0.61698042974E+02  0.10000000000E+01 0. -1.
    1000022    2    1    0    0    0  0.15363654256E+02 -0.20925916275E+00 -0.59750852360E+02  0.62500001156E+02  0.10000006263E+02 0.  0.
    3000022    2    3    3    0    0 -0.73443029104E+00 -0.42469930782E-01 -0.19858655913E+00  0.80195818253E+00  0.25001751464E+00 0.  0.
    1000022    2    1    0    0    0 -0.15363654256E+02  0.20925916275E+00  0.59750852360E+02  0.62499998844E+02  0.99999918097E+01 0.  0.
    3000022    2    5    5    0    0 -0.45327662267E+01 -0.10512216364E+01  0.36540943268E+02  0.36836857426E+02  0.24998705308E+00 0.  0.
        -13    1    4    4    0    0 -0.31233764364E+00 -0.82518344546E-01 -0.10109694323E+00  0.35441454930E+00  0.10500000000E+00 0.  1.
         13    1    4    4    0    0 -0.42209264740E+00  0.40048413764E-01 -0.97489615900E-01  0.44754363323E+00  0.10500000000E+00 0. -1.
    3000001    1    5    5    0    0 -0.10830888029E+02  0.12604807991E+01  0.23209909093E+02  0.25663141418E+02  0.10000000000E+01 0.  1.
        -13    1    6    6    0    0 -0.20872278581E+01 -0.46240219992E+00  0.17295174946E+02  0.17427117872E+02  0.10500000000E+00 0.  1.
         13    1    6    6    0    0 -0.24455383686E+01 -0.58881943646E+00  0.19245768322E+02  0.19409739554E+02  0.10500000000E+00 0. -1.
</event>
<event>
11    0  0.3422856E-009  0.9118800E+02  0.7816531E-02  0.1126479E+00
         25   -1    0    0    0    0  0.00000000000E+00  0.00000000000E+00  0.99999998245E-14  0.12500000000E+03  0.12500000000E+03 0.  0.
    3000001    1    3    3    0    0  0.21857712807E+01 -0.84805078843E+01 -0.39416255297E+02  0.40389822873E+02  0.10000000000E+01 0.  1.
    1000022    2    1    0    0    0  0.10460596182E+02 -0.11740757828E+02 -0.59657190816E+02  0.62499999934E+02  0.10000005439E+02 0.  0.
    3000022    2    3    3    0    0  0.82748249008E+01 -0.32602499432E+01 -0.20240935519E+02  0.22110177061E+02  0.25000425555E+00 0.  0.
    1000022    2    1    0    0    0 -0.10460596182E+02  0.11740757828E+02  0.59657190816E+02  0.62500000066E+02  0.10000006266E+02 0.  0.
    3000022    2    5    5    0    0  0.68172383397E+00  0.60141212309E+01  0.20360089963E+02  0.21242179020E+02  0.25000925814E+00 0.  0.
        -13    1    4    4    0    0  0.37698222205E+01 -0.14304363689E+01 -0.90691385330E+01  0.99256237341E+01  0.10500000000E+00 0.  1.
         13    1    4    4    0    0  0.45050026803E+01 -0.18298135743E+01 -0.11171796986E+02  0.12184553327E+02  0.10500000000E+00 0. -1.
    3000001    1    5    5    0    0 -0.11142320016E+02  0.57266365967E+01  0.39297100853E+02  0.41257821047E+02  0.10000000000E+01 0.  1.
        -13    1    6    6    0    0  0.52810303261E+00  0.45766214934E+01  0.15544591626E+02  0.16213257258E+02  0.10500000000E+00 0.  1.
         13    1    6    6    0    0  0.15362080136E+00  0.14374997374E+01  0.48154983376E+01  0.50289217617E+01  0.10500000000E+00 0. -1.
</event>
<event>
11    0  0.3422856E-009  0.9118800E+02  0.7816531E-02  0.1126479E+00
         25   -1    0    0    0    0  0.00000000000E+00  0.00000000000E+00  0.99999998245E-14  0.12500000000E+03  0.12500000000E+03 0.  0.
    3000001    1    3    3    0    0 -0.77555278188E+01 -0.35186199785E+01 -0.76374618837E+01  0.11483018868E+02  0.10000000000E+01 0.  1.
    1000022    2    1    0    0    0 -0.37343635340E+02 -0.73128987891E+00 -0.49103646572E+02  0.62499999276E+02  0.99999958798E+01 0.  0.
    3000022    2    3    3    0    0 -0.29588107521E+02  0.27873300996E+01 -0.41466184689E+02  0.51016980408E+02  0.25000321367E+00 0.  0.
    1000022    2    1    0    0    0  0.37343635340E+02  0.73128987891E+00  0.49103646572E+02  0.62500000724E+02  0.10000004924E+02 0.  0.
    3000022    2    5    5    0    0  0.27322136429E+02 -0.38480030111E+01  0.35684310625E+02  0.45108079005E+02  0.25000109607E+00 0.  0.
        -13    1    4    4    0    0 -0.18367652689E+02  0.17320564605E+01 -0.25636965380E+02  0.31585371674E+02  0.10500000000E+00 0. -1.
         13    1    4    4    0    0 -0.11220454832E+02  0.10552736392E+01 -0.15829219309E+02  0.19431608735E+02  0.10500000000E+00 0.  1.
    3000001    1    5    5    0    0  0.10021498911E+02  0.45792928900E+01  0.13419335947E+02  0.17391921718E+02  0.10000000000E+01 0. -1.
        -13    1    6    6    0    0  0.65925274946E+01 -0.94142917554E+00  0.86394219944E+01  0.10908636260E+02  0.10500000000E+00 0. -1.
         13    1    6    6    0    0  0.20729608934E+02 -0.29065738356E+01  0.27044888631E+02  0.34199442745E+02  0.10500000000E+00 0.  1.
</event>
<event>
11    0  0.3422856E-009  0.9118800E+02  0.7816531E-02  0.1126479E+00
         25   -1    0    0    0    0  0.00000000000E+00  0.00000000000E+00  0.99999998245E-14  0.12500000000E+03  0.12500000000E+03 0.  0.
    3000001    1    3    3    0    0 -0.57541748227E+01  0.31676092723E+02 -0.16225423987E+02  0.36065908579E+02  0.10000000000E+01 0.  1.
    1000022    2    1    0    0    0 -0.50234140656E+01  0.57515032950E+02 -0.21749416505E+02  0.62500012278E+02  0.10000035614E+02 0.  0.
    3000022    2    3    3    0    0  0.73076075714E+00  0.25838940227E+02 -0.55239925185E+01  0.26434103699E+02  0.25000333893E+00 0.  0.
    1000022    2    1    0    0    0  0.50234140656E+01 -0.57515032950E+02  0.21749416505E+02  0.62499987722E+02  0.99998821361E+01 0.  0.
    3000022    2    5    5    0    0  0.29161976476E+00 -0.28066452942E+02  0.15299311119E+02  0.31967830882E+02  0.24993545058E+00 0.  0.
        -13    1    4    4    0    0  0.25952650667E+00  0.10955546047E+02 -0.22995916391E+01  0.11197789509E+02  0.10500000000E+00 0.  1.
         13    1    4    4    0    0  0.47123425047E+00  0.14883394180E+02 -0.32244008794E+01  0.15236314190E+02  0.10500000000E+00 0. -1.
    3000001    1    5    5    0    0  0.47317943008E+01 -0.29448580008E+02  0.64501053866E+01  0.30532156840E+02  0.10000000000E+01 0.  1.
        -13    1    6    6    0    0  0.17979055867E+00 -0.11350520019E+02  0.61718100081E+01  0.12921644366E+02  0.10500000000E+00 0.  1.
         13    1    6    6    0    0  0.11182920609E+00 -0.16715932923E+02  0.91275011107E+01  0.19046186515E+02  0.10500000000E+00 0. -1.
</event>
<event>
11    0  0.3422856E-009  0.9118800E+02  0.7816531E-02  0.1126479E+00
         25   -1    0    0    0    0  0.00000000000E+00  0.00000000000E+00  0.99999998245E-14  0.12500000000E+03  0.12500000000E+03 0.  0.
    3000001    1    3    3    0    0  0.45312093698E+01  0.23825177222E+02  0.23160805512E+02  0.33549870938E+02  0.10000000000E+01 0. -1.
    1000022    2    1    0    0    0  0.29739313934E+01  0.38739806793E+02  0.47923200185E+02  0.62500000037E+02  0.99999995176E+01 0.  0.
    3000022    2    3    3    0    0 -0.15572779764E+01  0.14914629572E+02  0.24762394673E+02  0.28950129099E+02  0.24998991671E+00 0.  0.
    1000022    2    1    0    0    0 -0.29739313934E+01 -0.38739806793E+02 -0.47923200185E+02  0.62499999963E+02  0.99999990503E+01 0.  0.
    3000022    2    5    5    0    0 -0.10207508653E+01 -0.73153316963E+01 -0.16136512925E+02  0.17748396234E+02  0.25001868998E+00 0.  0.
        -13    1    4    4    0    0 -0.65130711584E+00  0.61692511240E+01  0.10367814566E+02  0.12082485848E+02  0.10500000000E+00 0.  1.
         13    1    4    4    0    0 -0.90597086051E+00  0.87453784477E+01  0.14394580107E+02  0.16867643251E+02  0.10500000000E+00 0. -1.
    3000001    1    5    5    0    0 -0.19531805281E+01 -0.31424475097E+02 -0.31786687261E+02  0.44751603729E+02  0.10000000000E+01 0.  1.
        -13    1    6    6    0    0 -0.54806919642E+00 -0.37775413594E+01 -0.81839298099E+01  0.90309429573E+01  0.10500000000E+00 0. -1.
         13    1    6    6    0    0 -0.47268166890E+00 -0.35377903369E+01 -0.79525831148E+01  0.87174532764E+01  0.10500000000E+00 0.  1.
</event>
<event>
11    0  0.3422856E-009  0.9118800E+02  0.7816531E-02  0.1126479E+00
         25   -1    0    0    0    0  0.00000000000E+00  0.00000000000E+00  0.99999998245E-14  0.12500000000E+03  0.12500000000E+03 0.  0.
    3000001    1    3    3    0    0  0.40621956104E+02 -0.42620213985E+02  0.33856890798E+00  0.58887524882E+02  0.10000000000E+01 0.  1.
    1000022    2    1    0    0    0  0.44082753926E+02 -0.43145468164E+02  0.11955753575E+01  0.62499999932E+02  0.99999987083E+01 0.  0.
    3000022    2    3    3    0    0  0.34607978225E+01 -0.52525417983E+00  0.85700644957E+00  0.36124750499E+01  0.25000481970E+00 0.  0.
    1000022    2    1    0    0    0 -0.44082753926E+02  0.43145468164E+02 -0.11955753575E+01  0.62500000068E+02  0.99999995632E+01 0.  0.
    3000022    2    5    5    0    0 -0.33969132197E+02  0.37856034360E+02  0.80637875556E+00  0.50869382083E+02  0.25001421900E+00 0.  0.
        -13    1    4    4    0    0  0.85346044707E+00 -0.12026138896E+00  0.23538445287E+00  0.89960456704E+00  0.10500000000E+00 0. -1.
         13    1    4    4    0    0  0.26073373755E+01 -0.40499279088E+00  0.62162199670E+00  0.27128704829E+01  0.10500000000E+00 0.  1.
    3000001    1    5    5    0    0 -0.10113621729E+02  0.52894338040E+01 -0.20019541131E+01  0.11630617985E+02  0.10000000000E+01 0. -1.
        -13    1    6    6    0    0 -0.24307341673E+02  0.27136772904E+02  0.60302790581E+00  0.36436602071E+02  0.10500000000E+00 0. -1.
         13    1    6    6    0    0 -0.96617905243E+01  0.10719261456E+02  0.20335084975E+00  0.14432780012E+02  0.10500000000E+00 0.  1.
</event>
<event>
11    0  0.3422856E-009  0.9118800E+02  0.7816531E-02  0.1126479E+00
         25   -1    0    0    0    0  0.00000000000E+00  0.00000000000E+00  0.99999998245E-14  0.12500000000E+03  0.12500000000E+03 0.  0.
    3000001    1    3    3    0    0 -0.26752292336E+02 -0.49560617360E+01 -0.44719524859E+02  0.52355358816E+02  0.10000000000E+01 0. -1.
    1000022    2    1    0    0    0 -0.35119943389E+02 -0.55348375191E+01 -0.50420285630E+02  0.62499999664E+02  0.99999952469E+01 0.  0.
    3000022    2    3    3    0    0 -0.83676510532E+01 -0.57877578309E+00 -0.57007607711E+01  0.10144640848E+02  0.24999800603E+00 0.  0.
    1000022    2    1    0    0    0  0.35119943389E+02  0.55348375191E+01  0.50420285630E+02  0.62500000336E+02  0.99999994490E+01 0.  0.
    3000022    2    5    5    0    0  0.71735289358E+01  0.15069293596E+01  0.45628301144E+01  0.86378396729E+01  0.25000414878E+00 0.  0.
        -13    1    4    4    0    0 -0.25025870721E+01 -0.20372660001E+00 -0.16664007881E+01  0.30153545675E+01  0.10500000000E+00 0.  1.
         13    1    4    4    0    0 -0.58650639810E+01 -0.37504918308E+00 -0.40343599829E+01  0.71292862801E+01  0.10500000000E+00 0. -1.
    3000001    1    5    5    0    0  0.27946414454E+02  0.40279081595E+01  0.45857455516E+02  0.53862160663E+02  0.10000000000E+01 0. -1.
        -13    1    6    6    0    0  0.50958202717E+01  0.10286539949E+01  0.32184117848E+01  0.61151216422E+01  0.10500000000E+00 0.  1.
         13    1    6    6    0    0  0.20777086641E+01  0.47827536475E+00  0.13444183296E+01  0.25227180307E+01  0.10500000000E+00 0. -1.
</event>
<event>
11    0  0.3422856E-009  0.9118800E+02  0.7816531E-02  0.1126479E+00
         25   -1    0    0    0    0  0.00000000000E+00  0.00000000000E+00  0.99999998245E-14  0.12500000000E+03  0.12500000000E+03 0.  0.
    3000001    1    3    3    0    0  0.23118548674E+02  0.43896178196E+02 -0.69383562788E+01  0.50104715754E+02  0.10000000000E+01 0. -1.
    1000022    2    1    0    0    0  0.25760342946E+02  0.54645510546E+02 -0.12510910401E+02  0.62500000406E+02  0.10000004007E+02 0.  0.
    3000022    2    3    3    0    0  0.26417942716E+01  0.10749332350E+02 -0.55725541217E+01  0.12395284651E+02  0.24999838825E+00 0.  0.
    1000022    2    1    0    0    0 -0.25760342946E+02 -0.54645510546E+02  0.12510910401E+02  0.62499999594E+02  0.99999989372E+01 0.  0.
    3000022    2    5    5    0    0 -0.18835720784E+02 -0.37228455636E+02  0.13069145161E+02  0.43721932072E+02  0.25000480877E+00 0.  0.
        -13    1    4    4    0    0  0.13067659478E+01  0.52389954115E+01 -0.26453687468E+01  0.60136271060E+01  0.10500000000E+00 0.  1.
         13    1    4    4    0    0  0.13350283238E+01  0.55103369389E+01 -0.29271853750E+01  0.63816575452E+01  0.10500000000E+00 0. -1.
    3000001    1    5    5    0    0 -0.69246221619E+01 -0.17417054910E+02 -0.55823476025E+00  0.18778067522E+02  0.10000000000E+01 0.  1.
        -13    1    6    6    0    0 -0.10243819713E+02 -0.20298856088E+02  0.71878261614E+01  0.23846493887E+02  0.10500000000E+00 0.  1.
         13    1    6    6    0    0 -0.85919010707E+01 -0.16929599548E+02  0.58813189994E+01  0.19875438185E+02  0.10500000000E+00 0. -1.
</event>
<event>
11    0  0.3422856E-009  0.9118800E+02  0.7816531E-02  0.1126479E+00
         25   -1    0    0    0    0  0.00000000000E+00  0.00000000000E+00  0.99999998245E-14  0.12500000000E+03  0.12500000000E+03 0.  0.
    3000001    1    3    3    0    0  0.25167605655E+01 -0.20905888293E+01 -0.96572113963E+00  0.35548927856E+01  0.10000000000E+01 0.  1.
    1000022    2    1    0    0    0  0.36473495071E+02 -0.16550285729E+02 -0.46925709505E+02  0.62500000141E+02  0.10000000230E+02 0.  0.
    3000022    2    3    3    0    0  0.33956734506E+02 -0.14459696899E+02 -0.45959988366E+02  0.58945107355E+02  0.24999565922E+00 0.  0.
    1000022    2    1    0    0    0 -0.36473495071E+02  0.16550285729E+02  0.46925709505E+02  0.62499999859E+02  0.99999984676E+01 0.  0.
    3000022    2    5    5    0    0 -0.51503641105E+01  0.54305039042E+01  0.50736189548E+01  0.90454812055E+01  0.24999563058E+00 0.  0.
        -13    1    4    4    0    0  0.17424323519E+02 -0.73627952783E+01 -0.23624355647E+02  0.30264484287E+02  0.10500000000E+00 0. -1.
         13    1    4    4    0    0  0.16532410987E+02 -0.70969016212E+01 -0.22335632719E+02  0.28680623069E+02  0.10500000000E+00 0.  1.
    3000001    1    5    5    0    0 -0.31323130961E+02  0.11119781825E+02  0.41852090551E+02  0.53454518654E+02  0.10000000000E+01 0.  1.
        -13    1    6    6    0    0 -0.24697408430E+01  0.26930848066E+01  0.25117736141E+01  0.44353531196E+01  0.10500000000E+00 0. -1.
         13    1    6    6    0    0 -0.26806232675E+01  0.27374190976E+01  0.25618453407E+01  0.46101280858E+01  0.10500000000E+00 0.  1.
</event>
<event>
11    0  0.3422856E-009  0.9118800E+02  0.7816531E-02  0.1126479E+00
         25   -1    0    0    0    0  0.00000000000E+00  0.00000000000E+00  0.99999998245E-14  0.12500000000E+03  0.12500000000E+03 0.  0.
    3000001    1    3    3    0    0 -0.22748473035E+02  0.46255001851E+02 -0.22511762647E+02  0.56256534546E+02  0.10000000000E+01 0.  1.
    1000022    2    1    0    0    0 -0.23469491342E+02  0.50034436385E+02 -0.27422401409E+02  0.62500001180E+02  0.10000010009E+02 0.  0.
    3000022    2    3    3    0    0 -0.72101830655E+00  0.37794345347E+01 -0.49106387622E+01  0.62434666338E+01  0.25001950967E+00 0.  0.
    1000022    2    1    0    0    0  0.23469491342E+02 -0.50034436385E+02  0.27422401409E+02  0.62499998820E+02  0.99999952647E+01 0.  0.
    3000022    2    5    5    0    0  0.21822036092E+02 -0.45733957986E+02  0.21801279519E+02  0.55164793673E+02  0.24999997830E+00 0.  0.
        -13    1    4    4    0    0 -0.56432262698E+00  0.28860880795E+01 -0.37339649159E+01  0.47541017472E+01  0.10500000000E+00 0.  1.
         13    1    4    4    0    0 -0.15669567958E+00  0.89334645515E+00 -0.11766738463E+01  0.14893648866E+01  0.10500000000E+00 0. -1.
    3000001    1    5    5    0    0  0.16474552494E+01 -0.43004783989E+01  0.56211218895E+01  0.73352051474E+01  0.10000000000E+01 0.  1.
        -13    1    6    6    0    0  0.13109493510E+02 -0.27343889569E+02  0.13014863172E+02  0.32999163705E+02  0.10500000000E+00 0. -1.
         13    1    6    6    0    0  0.87125425825E+01 -0.18390068417E+02  0.87864163473E+01  0.22165629968E+02  0.10500000000E+00 0.  1.
</event>
<event>
11    0  0.3422856E-009  0.9118800E+02  0.7816531E-02  0.1126479E+00
         25   -1    0    0    0    0  0.00000000000E+00  0.00000000000E+00  0.99999998245E-14  0.12500000000E+03  0.12500000000E+03 0.  0.
    3000001    1    3    3    0    0  0.67792153101E+01  0.13918176708E+02 -0.61111584616E+00  0.15525684065E+02  0.10000000000E+01 0.  1.
    1000022    2    1    0    0    0  0.40959060097E+02  0.46136633593E+02 -0.12833813678E+00  0.62499999703E+02  0.99999964436E+01 0.  0.
    3000022    2    3    3    0    0  0.34179844787E+02  0.32218456884E+02  0.48277770937E+00  0.46974315638E+02  0.25000332908E+00 0.  0.
    1000022    2    1    0    0    0 -0.40959060097E+02 -0.46136633593E+02  0.12833813678E+00  0.62500000297E+02  0.10000000160E+02 0.  0.
    3000022    2    5    5    0    0 -0.21066665654E+02 -0.20062094631E+02  0.43591363196E+01  0.29416944332E+02  0.25000323981E+00 0.  0.
        -13    1    4    4    0    0  0.11430043255E+02  0.10721730393E+02  0.19871554527E+00  0.15673286327E+02  0.10500000000E+00 0. -1.
         13    1    4    4    0    0  0.22749801532E+02  0.21496726492E+02  0.28406216410E+00  0.31301029311E+02  0.10500000000E+00 0.  1.
    3000001    1    5    5    0    0 -0.19892394443E+02 -0.26074538962E+02 -0.42307981828E+01  0.33083055965E+02  0.10000000000E+01 0.  1.
        -13    1    6    6    0    0 -0.99957785172E+01 -0.94626473139E+01  0.21167975456E+01  0.13926562361E+02  0.10500000000E+00 0. -1.
         13    1    6    6    0    0 -0.11070887137E+02 -0.10599447317E+02  0.22423387740E+01  0.15490381971E+02  0.10500000000E+00 0.  1.
</event>
<event>
11    0  0.3422856E-009  0.9118800E+02  0.7816531E-02  0.1126479E+00
         25   -1    0    0    0    0  0.00000000000E+00  0.00000000000E+00  0.99999998245E-14  0.12500000000E+03  0.12500000000E+03 0.  0.
    3000001    1    3    3    0    0 -0.19845046143E+02 -0.89778419556E+01 -0.10336669453E+01  0.21828787642E+02  0.10000000000E+01 0.  1.
    1000022    2    1    0    0    0 -0.54173167397E+02 -0.27753202824E+02  0.10063673001E+02  0.62500000289E+02  0.10000009452E+02 0.  0.
    3000022    2    3    3    0    0 -0.34328121254E+02 -0.18775360869E+02  0.11097339947E+02  0.40671212647E+02  0.24999933903E+00 0.  0.
    1000022    2    1    0    0    0  0.54173167397E+02  0.27753202824E+02 -0.10063673001E+02  0.62499999711E+02  0.10000005840E+02 0.  0.
    3000022    2    5    5    0    0  0.14113329296E+02  0.35101649818E+01 -0.50512331249E+01  0.15397557460E+02  0.24999526948E+00 0.  0.
        -13    1    4    4    0    0 -0.23502554562E+02 -0.12897157409E+02  0.76371867304E+01  0.27875515894E+02  0.10500000000E+00 0. -1.
         13    1    4    4    0    0 -0.10825566692E+02 -0.58782034594E+01  0.34601532163E+01  0.12795696753E+02  0.10500000000E+00 0.  1.
    3000001    1    5    5    0    0  0.40059838100E+02  0.24243037843E+02 -0.50124398765E+01  0.47102442251E+02  0.10000000000E+01 0.  1.
        -13    1    6    6    0    0  0.54600175136E+01  0.14134801862E+01 -0.19270291648E+01  0.59610556018E+01  0.10500000000E+00 0. -1.
         13    1    6    6    0    0  0.86533117827E+01  0.20966847955E+01 -0.31242039602E+01  0.94365018585E+01  0.10500000000E+00 0.  1.
</event>
<event>
11    0  0.3422856E-009  0.9118800E+02  0.7816531E-02  0.1126479E+00
         25   -1    0    0    0    0  0.00000000000E+00  0.00000000000E+00  0.99999998245E-14  0.12500000000E+03  0.12500000000E+03 0.  0.
    3000001    1    3    3    0    0  0.14431859897E+02 -0.14331957980E+02  0.28685731978E+02  0.35178897350E+02  0.10000000000E+01 0.  1.
    1000022    2    1    0    0    0  0.24191897933E+02 -0.17415200390E+02  0.54015858997E+02  0.62499998504E+02  0.99999829793E+01 0.  0.
    3000022    2    3    3    0    0  0.97600380362E+01 -0.30832424096E+01  0.25330127019E+02  0.27321101154E+02  0.25001451591E+00 0.  0.
    1000022    2    1    0    0    0 -0.24191897933E+02  0.17415200390E+02 -0.54015858997E+02  0.62500001496E+02  0.10000001683E+02 0.  0.
    3000022    2    5    5    0    0 -0.25692481774E+00  0.36084896245E+01 -0.85427670249E+01  0.92805474060E+01  0.24996796209E+00 0.  0.
        -13    1    4    4    0    0  0.73673338190E+01 -0.23503043611E+01  0.19151510235E+02  0.20654125677E+02  0.10500000000E+00 0. -1.
         13    1    4    4    0    0  0.23927042172E+01 -0.73293804843E+00  0.61786167834E+01  0.66669754770E+01  0.10500000000E+00 0.  1.
    3000001    1    5    5    0    0 -0.23934973116E+02  0.13806710765E+02 -0.45473091972E+02  0.53219454090E+02  0.10000000000E+01 0.  1.
        -13    1    6    6    0    0 -0.18331395504E+00  0.20717472593E+01 -0.47681126367E+01  0.52030437082E+01  0.10500000000E+00 0.  1.
         13    1    6    6    0    0 -0.73610862709E-01  0.15367423652E+01 -0.37746543881E+01  0.40775036978E+01  0.10500000000E+00 0. -1.
</event>
<event>
11    0  0.3422856E-009  0.9118800E+02  0.7816531E-02  0.1126479E+00
         25   -1    0    0    0    0  0.00000000000E+00  0.00000000000E+00  0.99999998245E-14  0.12500000000E+03  0.12500000000E+03 0.  0.
    3000001    1    3    3    0    0 -0.81083435545E+01 -0.31260609307E+01 -0.57505832352E+01  0.10468366620E+02  0.10000000000E+01 0.  1.
    1000022    2    1    0    0    0 -0.31919287265E+02 -0.22498434653E+02 -0.47762224922E+02  0.62499995783E+02  0.99999441025E+01 0.  0.
    3000022    2    3    3    0    0 -0.23810943710E+02 -0.19372373722E+02 -0.42011641687E+02  0.52031629164E+02  0.24998431447E+00 0.  0.
    1000022    2    1    0    0    0  0.31919287265E+02  0.22498434653E+02  0.47762224922E+02  0.62500004217E+02  0.99999968115E+01 0.  0.
    3000022    2    5    5    0    0  0.26599739543E+02  0.15830086738E+02  0.41929779812E+02  0.52118199564E+02  0.25000162132E+00 0.  0.
        -13    1    4    4    0    0 -0.11180934582E+02 -0.91298965995E+01 -0.19650625399E+02  0.24382912328E+02  0.10500000000E+00 0.  1.
         13    1    4    4    0    0 -0.12630009129E+02 -0.10242477123E+02 -0.22361016288E+02  0.27648716836E+02  0.10500000000E+00 0. -1.
    3000001    1    5    5    0    0  0.53195477221E+01  0.66683479153E+01  0.58324451099E+01  0.10381804653E+02  0.10000000000E+01 0. -1.
        -13    1    6    6    0    0  0.11471203953E+02  0.68621328370E+01  0.18009036433E+02  0.22427969267E+02  0.10500000000E+00 0.  1.
         13    1    6    6    0    0  0.15128535590E+02  0.89679539007E+01  0.23920743379E+02  0.29690230297E+02  0.10500000000E+00 0. -1.
</event>
<event>
11    0  0.3422856E-009  0.9118800E+02  0.7816531E-02  0.1126479E+00
         25   -1    0    0    0    0  0.00000000000E+00  0.00000000000E+00  0.99999998245E-14  0.12500000000E+03  0.12500000000E+03 0.  0.
    3000001    1    3    3    0    0  0.27661211042E+01  0.49492780343E+01 -0.40327066750E+00  0.57714301742E+01  0.10000000000E+01 0.  1.
    1000022    2    1    0    0    0  0.72660409273E+01  0.59733439853E+02  0.13615094169E+02  0.62500000782E+02  0.10000006054E+02 0.  0.
    3000022    2    3    3    0    0  0.44999198231E+01  0.54784161819E+02  0.14018364836E+02  0.56728570608E+02  0.25001183725E+00 0.  0.
    1000022    2    1    0    0    0 -0.72660409273E+01 -0.59733439853E+02 -0.13615094169E+02  0.62499999218E+02  0.99999962779E+01 0.  0.
    3000022    2    5    5    0    0 -0.73086759430E+01 -0.21756253073E+02 -0.38309840110E+01  0.23269942565E+02  0.24999325588E+00 0.  0.
        -13    1    4    4    0    0  0.22726112914E+01  0.26874343942E+02  0.68980857155E+01  0.27838637466E+02  0.10500000000E+00 0. -1.
         13    1    4    4    0    0  0.22273085317E+01  0.27909817877E+02  0.71202791206E+01  0.28889933142E+02  0.10500000000E+00 0.  1.
    3000001    1    5    5    0    0  0.42635015621E-01 -0.37977186780E+02 -0.97841101576E+01  0.39230056653E+02  0.10000000000E+01 0.  1.
        -13    1    6    6    0    0 -0.54703656923E+01 -0.16304946796E+02 -0.28443568627E+01  0.17432084838E+02  0.10500000000E+00 0. -1.
         13    1    6    6    0    0 -0.18383102507E+01 -0.54513062776E+01 -0.98662714827E+00  0.58378577269E+01  0.10500000000E+00 0.  1.
</event>
<event>
11    0  0.3422856E-009  0.9118800E+02  0.7816531E-02  0.1126479E+00
         25   -1    0    0    0    0  0.00000000000E+00  0.00000000000E+00  0.99999998245E-14  0.12500000000E+03  0.12500000000E+03 0.  0.
    3000001    1    3    3    0    0 -0.23172344790E+00  0.46329719669E+02  0.34128105799E+02  0.57551926343E+02  0.10000000000E+01 0.  1.
    1000022    2    1    0    0    0 -0.26333495466E+01  0.50455286993E+02  0.35405923221E+02  0.62499999802E+02  0.10000003035E+02 0.  0.
    3000022    2    3    3    0    0 -0.24016260987E+01  0.41255673238E+01  0.12778174219E+01  0.49480734584E+01  0.24999984989E+00 0.  0.
    1000022    2    1    0    0    0  0.26333495466E+01 -0.50455286993E+02 -0.35405923221E+02  0.62500000198E+02  0.10000005516E+02 0.  0.
    3000022    2    5    5    0    0  0.42119078553E+01 -0.28482726067E+02 -0.24929456091E+02  0.38086036090E+02  0.25002411814E+00 0.  0.
        -13    1    4    4    0    0 -0.87903685415E+00  0.14071263276E+01  0.46682838574E+00  0.17267495575E+01  0.10500000000E+00 0.  1.
         13    1    4    4    0    0 -0.15225892445E+01  0.27184409963E+01  0.81098903614E+00  0.32213239009E+01  0.10500000000E+00 0. -1.
    3000001    1    5    5    0    0 -0.15785583087E+01 -0.21972560926E+02 -0.10476467131E+02  0.24413964109E+02  0.10000000000E+01 0. -1.
        -13    1    6    6    0    0  0.17908237789E+01 -0.12110558451E+02 -0.10513617566E+02  0.16137529399E+02  0.10500000000E+00 0. -1.
         13    1    6    6    0    0  0.24210840764E+01 -0.16372167616E+02 -0.14415838525E+02  0.21948506690E+02  0.10500000000E+00 0.  1.
</event>
<event>
11    0  0.3422856E-009  0.9118800E+02  0.7816531E-02  0.1126479E+00
         25   -1    0    0    0    0  0.00000000000E+00  0.00000000000E+00  0.99999998245E-14  0.12500000000E+03  0.12500000000E+03 0.  0.
    3000001    1    3    3    0    0 -0.42046369056E+01  0.12494786594E+01 -0.30974881084E+01  0.54621059135E+01  0.10000000000E+01 0.  1.
    1000022    2    1    0    0    0 -0.59368920264E+02  0.15148180022E+02 -0.72189960975E+01  0.62500000221E+02  0.10000003579E+02 0.  0.
    3000022    2    3    3    0    0 -0.55164283359E+02  0.13898701363E+02 -0.41215079891E+01  0.57037894307E+02  0.25000167300E+00 0.  0.
    1000022    2    1    0    0    0  0.59368920264E+02 -0.15148180022E+02  0.72189960975E+01  0.62499999779E+02  0.10000000821E+02 0.  0.
    3000022    2    5    5    0    0  0.24757280311E+02 -0.10035750304E+02  0.64840957698E+01  0.27490820463E+02  0.24999846755E+00 0.  0.
        -13    1    4    4    0    0 -0.26890213486E+02  0.67740682614E+01 -0.19411183440E+01  0.27798391097E+02  0.10500000000E+00 0.  1.
         13    1    4    4    0    0 -0.28274069873E+02  0.71246331012E+01 -0.21803896451E+01  0.29239503211E+02  0.10500000000E+00 0. -1.
    3000001    1    5    5    0    0  0.34611639953E+02 -0.51124297178E+01  0.73490032764E+00  0.35009179316E+02  0.10000000000E+01 0.  1.
        -13    1    6    6    0    0  0.12130904156E+02 -0.49459488208E+01  0.31155334357E+01  0.13466210267E+02  0.10500000000E+00 0.  1.
         13    1    6    6    0    0  0.12626376155E+02 -0.50898014834E+01  0.33685623342E+01  0.14024610196E+02  0.10500000000E+00 0. -1.
</event>
<event>
11    0  0.3422856E-009  0.9118800E+02  0.7816531E-02  0.1126479E+00
         25   -1    0    0    0    0  0.00000000000E+00  0.00000000000E+00  0.99999998245E-14  0.12500000000E+03  0.12500000000E+03 0.  0.
    3000001    1    3    3    0    0 -0.33656806398E+01 -0.18515210981E+02  0.59769943381E+01  0.19770313734E+02  0.10000000000E+01 0. -1.
    1000022    2    1    0    0    0  0.26980212381E+01 -0.56698555842E+02  0.24171148815E+02  0.62499999654E+02  0.99999984260E+01 0.  0.
    3000022    2    3    3    0    0  0.60637018779E+01 -0.38183344861E+02  0.18194154477E+02  0.42729685919E+02  0.24999280212E+00 0.  0.
    1000022    2    1    0    0    0 -0.26980212381E+01  0.56698555842E+02 -0.24171148815E+02  0.62500000346E+02  0.10000002755E+02 0.  0.
    3000022    2    5    5    0    0 -0.18148766103E+01  0.50285177215E+02 -0.17833377498E+02  0.53385247738E+02  0.24999683286E+00 0.  0.
        -13    1    4    4    0    0  0.27107829646E+01 -0.17342659300E+02  0.83172718009E+01  0.19424320093E+02  0.10500000000E+00 0. -1.
         13    1    4    4    0    0  0.33529189133E+01 -0.20840685561E+02  0.98768826762E+01  0.23305365826E+02  0.10500000000E+00 0.  1.
    3000001    1    5    5    0    0 -0.88314462786E+00  0.64133786267E+01 -0.63377713167E+01  0.91147526081E+01  0.10000000000E+01 0. -1.
        -13    1    6    6    0    0 -0.49469731450E+00  0.14801950317E+02 -0.52279226353E+01  0.15706198098E+02  0.10500000000E+00 0. -1.
         13    1    6    6    0    0 -0.13201792958E+01  0.35483226898E+02 -0.12605454863E+02  0.37679049640E+02  0.10500000000E+00 0.  1.
</event>
<event>
11    0  0.3422856E-009  0.9118800E+02  0.7816531E-02  0.1126479E+00
         25   -1    0    0    0    0  0.00000000000E+00  0.00000000000E+00  0.99999998245E-14  0.12500000000E+03  0.12500000000E+03 0.  0.
    3000001    1    3    3    0    0 -0.19274919647E+02 -0.10897446892E+02 -0.52378133286E+01  0.22775240166E+02  0.10000000000E+01 0. -1.
    1000022    2    1    0    0    0 -0.49045222143E+02 -0.37180947731E+02 -0.42887403890E+01  0.62500000253E+02  0.10000002410E+02 0.  0.
    3000022    2    3    3    0    0 -0.29770302496E+02 -0.26283500839E+02  0.94907293965E+00  0.39724760086E+02  0.24999482183E+00 0.  0.
    1000022    2    1    0    0    0  0.49045222143E+02  0.37180947731E+02  0.42887403890E+01  0.62499999747E+02  0.99999992489E+01 0.  0.
    3000022    2    5    5    0    0  0.43658366583E+02  0.34219018044E+02  0.65876171988E+01  0.55861018283E+02  0.24998920835E+00 0.  0.
        -13    1    4    4    0    0 -0.13059566911E+02 -0.11444319636E+02  0.39983828828E+00  0.17369387885E+02  0.10500000000E+00 0.  1.
         13    1    4    4    0    0 -0.16710735585E+02 -0.14839181203E+02  0.54923465137E+00  0.22355372202E+02  0.10500000000E+00 0. -1.
    3000001    1    5    5    0    0  0.53868555603E+01  0.29619296871E+01 -0.22988768099E+01  0.66389814645E+01  0.10000000000E+01 0. -1.
        -13    1    6    6    0    0  0.25010883906E+02  0.19536013713E+02  0.37303561456E+01  0.31955073581E+02  0.10500000000E+00 0. -1.
         13    1    6    6    0    0  0.18647482677E+02  0.14683004331E+02  0.28572610533E+01  0.23905944702E+02  0.10500000000E+00 0.  1.
</event>
<event>
11    0  0.3422856E-009  0.9118800E+02  0.7816531E-02  0.1126479E+00
         25   -1    0    0    0    0  0.00000000000E+00  0.00000000000E+00  0.99999998245E-14  0.12500000000E+03  0.12500000000E+03 0.  0.
    3000001    1    3    3    0    0 -0.77188489520E+01 -0.16733023560E+02  0.41344247637E+01  0.18912117140E+02  0.10000000000E+01 0.  1.
    1000022    2    1    0    0    0 -0.25774139659E+02 -0.56039382167E+02 -0.12375164157E+01  0.62500000855E+02  0.10000001560E+02 0.  0.
    3000022    2    3    3    0    0 -0.18055290707E+02 -0.39306358607E+02 -0.53719411794E+01  0.43587883715E+02  0.25001048954E+00 0.  0.
    1000022    2    1    0    0    0  0.25774139659E+02  0.56039382167E+02  0.12375164157E+01  0.62499999145E+02  0.99999908686E+01 0.  0.
    3000022    2    5    5    0    0  0.41563775622E+01  0.19898511920E+02  0.13625718051E+01  0.20375116009E+02  0.24999882989E+00 0.  0.
        -13    1    4    4    0    0 -0.61913781307E+01 -0.13528856626E+02 -0.18995760980E+01  0.14999417960E+02  0.10500000000E+00 0. -1.
         13    1    4    4    0    0 -0.11863912576E+02 -0.25777501981E+02 -0.34723650814E+01  0.28588465755E+02  0.10500000000E+00 0.  1.
    3000001    1    5    5    0    0  0.21617762096E+02  0.36140870248E+02 -0.12505538936E+00  0.42124883135E+02  0.10000000000E+01 0.  1.
        -13    1    6    6    0    0  0.25765056324E+01  0.12202053812E+02  0.89131795815E+00  0.12503358397E+02  0.10500000000E+00 0. -1.
         13    1    6    6    0    0  0.15798719298E+01  0.76964581074E+01  0.47125384690E+00  0.78717576119E+01  0.10500000000E+00 0.  1.
</event>
<event>
11    0  0.3422856E-009  0.9118800E+02  0.7816531E-02  0.1126479E+00
         25   -1    0    0    0    0  0.00000000000E+00  0.00000000000E+00  0.99999998245E-14  0.12500000000E+03  0.12500000000E+03 0.  0.
    3000001    1    3    3    0    0 -0.33521836735E+01  0.18008877930E+02 -0.51251927850E+02  0.54436356675E+02  0.10000000000E+01 0.  1.
    1000022    2    1    0    0    0 -0.32200108990E+01  0.23844654970E+02 -0.56809453485E+02  0.62499999714E+02  0.99999959097E+01 0.  0.
    3000022    2    3    3    0    0  0.13217277446E+00  0.58357770400E+01 -0.55575256347E+01  0.80636430393E+01  0.24996916167E+00 0.  0.
    1000022    2    1    0    0    0  0.32200108990E+01 -0.23844654970E+02  0.56809453485E+02  0.62500000286E+02  0.99999994834E+01 0.  0.
    3000022    2    5    5    0    0  0.18443896382E+01 -0.54229504086E+01  0.54509313443E+01  0.79110881401E+01  0.24999753880E+00 0.  0.
        -13    1    4    4    0    0  0.11562231115E+00  0.29254977209E+01 -0.28512086154E+01  0.40880705721E+01  0.10500000000E+00 0. -1.
         13    1    4    4    0    0  0.16550463310E-01  0.29102793190E+01 -0.27063170193E+01  0.39755724672E+01  0.10500000000E+00 0.  1.
    3000001    1    5    5    0    0  0.13756212609E+01 -0.18421704561E+02  0.51358522141E+02  0.54588912146E+02  0.10000000000E+01 0.  1.
        -13    1    6    6    0    0  0.10934949897E+01 -0.30133696910E+01  0.30319994770E+01  0.44136350116E+01  0.10500000000E+00 0.  1.
         13    1    6    6    0    0  0.75089464850E+00 -0.24095807175E+01  0.24189318673E+01  0.34974531285E+01  0.10500000000E+00 0. -1.
</event>
<event>
11    0  0.3422856E-009  0.9118800E+02  0.7816531E-02  0.1126479E+00
         25   -1    0    0    0    0  0.00000000000E+00  0.00000000000E+00  0.99999998245E-14  0.12500000000E+03  0.12500000000E+03 0.  0.
    3000001    1    3    3    0    0  0.26525266256E+02 -0.95908687029E+01  0.69203811919E+01  0.29059700416E+02  0.10000000000E+01 0.  1.
    1000022    2    1    0    0    0  0.51383934973E+02 -0.26177356721E+02  0.21924581897E+02  0.62499998477E+02  0.99999870038E+01 0.  0.
    3000022    2    3    3    0    0  0.24858668717E+02 -0.16586488018E+02  0.15004200705E+02  0.33440298061E+02  0.25000092292E+00 0.  0.
    1000022    2    1    0    0    0 -0.51383934973E+02  0.26177356721E+02 -0.21924581897E+02  0.62500001523E+02  0.10000006047E+02 0.  0.
    3000022    2    5    5    0    0 -0.11044161541E+02  0.72417350629E+01 -0.93590095366E+01  0.16188569924E+02  0.25001160637E+00 0.  0.
        -13    1    4    4    0    0  0.12667879980E+02 -0.85273580567E+01  0.76372314094E+01  0.17074230501E+02  0.10500000000E+00 0. -1.
         13    1    4    4    0    0  0.12190788736E+02 -0.80591299610E+01  0.73669692957E+01  0.16366067559E+02  0.10500000000E+00 0.  1.
    3000001    1    5    5    0    0 -0.40339773432E+02  0.18935621658E+02 -0.12565572360E+02  0.46311431600E+02  0.10000000000E+01 0. -1.
        -13    1    6    6    0    0 -0.54988657805E+01  0.36647507707E+01 -0.47397362079E+01  0.81328990774E+01  0.10500000000E+00 0.  1.
         13    1    6    6    0    0 -0.55452957603E+01  0.35769842922E+01 -0.46192733288E+01  0.80556708462E+01  0.10500000000E+00 0. -1.
</event>
<event>
11    0  0.3422856E-009  0.9118800E+02  0.7816531E-02  0.1126479E+00
         25   -1    0    0    0    0  0.00000000000E+00  0.00000000000E+00  0.99999998245E-14  0.12500000000E+03  0.12500000000E+03 0.  0.
    3000001    1    3    3    0    0  0.42698456049E+00 -0.56113274978E+00 -0.13545675857E+02  0.13600827923E+02  0.10000000000E+01 0.  1.
    1000022    2    1    0    0    0 -0.16142938153E+02  0.18447295949E+00 -0.59545117013E+02  0.62500003303E+02  0.10000048519E+02 0.  0.
    3000022    2    3    3    0    0 -0.16569922714E+02  0.74560570927E+00 -0.45999441156E+02  0.48899175380E+02  0.24999920086E+00 0.  0.
    1000022    2    1    0    0    0  0.16142938153E+02 -0.18447295949E+00  0.59545117013E+02  0.62499996697E+02  0.10000007227E+02 0.  0.
    3000022    2    5    5    0    0  0.31035091486E+01 -0.28177402743E+01  0.27036792469E+02  0.27360959002E+02  0.25000234307E+00 0.  0.
        -13    1    4    4    0    0 -0.11767299660E+02  0.51360160058E+00 -0.32780299318E+02  0.34832343824E+02  0.10500000000E+00 0.  1.
         13    1    4    4    0    0 -0.48026230538E+01  0.23200410869E+00 -0.13219141838E+02  0.14066831556E+02  0.10500000000E+00 0. -1.
    3000001    1    5    5    0    0  0.13039429005E+02  0.26332673148E+01  0.32508324543E+02  0.35139037695E+02  0.10000000000E+01 0.  1.
        -13    1    6    6    0    0  0.21877683885E+01 -0.20339570284E+01  0.19093599517E+02  0.19326144966E+02  0.10500000000E+00 0. -1.
         13    1    6    6    0    0  0.91574076012E+00 -0.78378324582E+00  0.79431929520E+01  0.80348140358E+01  0.10500000000E+00 0.  1.
</event>
<event>
11    0  0.3422856E-009  0.9118800E+02  0.7816531E-02  0.1126479E+00
         25   -1    0    0    0    0  0.00000000000E+00  0.00000000000E+00  0.99999998245E-14  0.12500000000E+03  0.12500000000E+03 0.  0.
    3000001    1    3    3    0    0  0.34180047798E+01  0.25401425811E+01 -0.30927646624E+01  0.53572636918E+01  0.10000000000E+01 0.  1.
    1000022    2    1    0    0    0  0.31618683886E+02  0.50701513179E+02 -0.15357911836E+02  0.62499999515E+02  0.99999937019E+01 0.  0.
    3000022    2    3    3    0    0  0.28200679107E+02  0.48161370598E+02 -0.12265147174E+02  0.57142735823E+02  0.25000439526E+00 0.  0.
    1000022    2    1    0    0    0 -0.31618683886E+02 -0.50701513179E+02  0.15357911836E+02  0.62500000485E+02  0.99999997701E+01 0.  0.
    3000022    2    5    5    0    0 -0.32680347655E+01 -0.12246169346E+02  0.48381860772E+01  0.13569055217E+02  0.25000014524E+00 0.  0.
        -13    1    4    4    0    0  0.18127451840E+02  0.30916282945E+02 -0.78210451411E+01  0.36682432218E+02  0.10500000000E+00 0. -1.
         13    1    4    4    0    0  0.10073227266E+02  0.17245087653E+02 -0.44441020326E+01  0.20460303604E+02  0.10500000000E+00 0.  1.
    3000001    1    5    5    0    0 -0.28350649121E+02 -0.38455343833E+02  0.10519725759E+02  0.48930945269E+02  0.10000000000E+01 0. -1.
        -13    1    6    6    0    0 -0.94011999007E+00 -0.35357063611E+01  0.13515483922E+01  0.39016346734E+01  0.10500000000E+00 0. -1.
         13    1    6    6    0    0 -0.23279147754E+01 -0.87104629850E+01  0.34866376850E+01  0.96674205433E+01  0.10500000000E+00 0.  1.
</event>
<event>
11    0  0.3422856E-009  0.9118800E+02  0.7816531E-02  0.1126479E+00
         25   -1    0    0    0    0  0.00000000000E+00  0.00000000000E+00  0.99999998245E-14  0.12500000000E+03  0.12500000000E+03 0.  0.
    3000001    1    3    3    0    0 -0.42529361071E+00 -0.98623839965E+00  0.69435133086E+00  0.16234730078E+01  0.10000000000E+01 0. -1.
    1000022    2    1    0    0    0 -0.25430470818E+02 -0.53303637989E+02 -0.17839938103E+02  0.62500000389E+02  0.99999994121E+01 0.  0.
    3000022    2    3    3    0    0 -0.25005177207E+02 -0.52317399589E+02 -0.18534289434E+02  0.60876527381E+02  0.25002848673E+00 0.  0.
    1000022    2    1    0    0    0  0.25430470818E+02  0.53303637989E+02  0.17839938103E+02  0.62499999611E+02  0.99999945514E+01 0.  0.
    3000022    2    5    5    0    0  0.18550867415E+01  0.12751234604E+02  0.53000350448E+01  0.13935142736E+02  0.25000168785E+00 0.  0.
        -13    1    4    4    0    0 -0.15559116011E+02 -0.32673583062E+02 -0.11534500507E+02  0.37982954704E+02  0.10500000000E+00 0.  1.
         13    1    4    4    0    0 -0.94460611963E+01 -0.19643816528E+02 -0.69997889265E+01  0.22893572677E+02  0.10500000000E+00 0. -1.
    3000001    1    5    5    0    0  0.23575384076E+02  0.40552403385E+02  0.12539903058E+02  0.48564856875E+02  0.10000000000E+01 0.  1.
        -13    1    6    6    0    0  0.13519313704E+01  0.91520273784E+01  0.37670126802E+01  0.99894310698E+01  0.10500000000E+00 0. -1.
         13    1    6    6    0    0  0.50315537102E+00  0.35992072258E+01  0.15330223646E+01  0.39457116660E+01  0.10500000000E+00 0.  1.
</event>
<event>
11    0  0.3422856E-009  0.9118800E+02  0.7816531E-02  0.1126479E+00
         25   -1    0    0    0    0  0.00000000000E+00  0.00000000000E+00  0.99999998245E-14  0.12500000000E+03  0.12500000000E+03 0.  0.
    3000001    1    3    3    0    0 -0.70608700978E+01 -0.98415549120E+01 -0.14743645216E+02  0.19107254222E+02  0.10000000000E+01 0. -1.
    1000022    2    1    0    0    0 -0.22397696962E+02 -0.43015111816E+02 -0.38135198001E+02  0.62499999868E+02  0.99999991532E+01 0.  0.
    3000022    2    3    3    0    0 -0.15336826865E+02 -0.33173556904E+02 -0.23391552785E+02  0.43392745646E+02  0.24999410038E+00 0.  0.
    1000022    2    1    0    0    0  0.22397696962E+02  0.43015111816E+02  0.38135198001E+02  0.62500000132E+02  0.10000000807E+02 0.  0.
    3000022    2    5    5    0    0  0.68742025949E+01  0.22615641774E+02  0.21267149223E+02  0.31797421658E+02  0.24994771226E+00 0.  0.
        -13    1    4    4    0    0 -0.10764119602E+02 -0.23173055259E+02 -0.16354400114E+02  0.30337010217E+02  0.10500000000E+00 0. -1.
         13    1    4    4    0    0 -0.45727072629E+01 -0.10000501645E+02 -0.70371526710E+01  0.13055735429E+02  0.10500000000E+00 0.  1.
    3000001    1    5    5    0    0  0.15523494368E+02  0.20399470042E+02  0.16868048779E+02  0.30702578474E+02  0.10000000000E+01 0.  1.
        -13    1    6    6    0    0  0.37855808938E+01  0.12405178405E+02  0.11756893560E+02  0.17505846028E+02  0.10500000000E+00 0.  1.
         13    1    6    6    0    0  0.30886217011E+01  0.10210463369E+02  0.95102556625E+01  0.14291575630E+02  0.10500000000E+00 0. -1.
</event>
<event>
11    0  0.3422856E-009  0.9118800E+02  0.7816531E-02  0.1126479E+00
         25   -1    0    0    0    0  0.00000000000E+00  0.00000000000E+00  0.99999998245E-14  0.12500000000E+03  0.12500000000E+03 0.  0.
    3000001    1    3    3    0    0  0.10461786847E+02 -0.12464589627E+02  0.15174994560E+02  0.22273200006E+02  0.10000000000E+01 0. -1.
    1000022    2    1    0    0    0  0.17462382929E+02 -0.40791452101E+02  0.42864585738E+02  0.62500000017E+02  0.99999954804E+01 0.  0.
    3000022    2    3    3    0    0  0.70005960819E+01 -0.28326862474E+02  0.27689591178E+02  0.40226800011E+02  0.24999288447E+00 0.  0.
    1000022    2    1    0    0    0 -0.17462382929E+02  0.40791452101E+02 -0.42864585738E+02  0.62499999983E+02  0.99999952679E+01 0.  0.
    3000022    2    5    5    0    0 -0.11047669582E+02  0.31535973081E+02 -0.36658454851E+02  0.49603159293E+02  0.24999677795E+00 0.  0.
        -13    1    4    4    0    0  0.34839288976E+01 -0.14347769577E+02  0.14054093224E+02  0.20384425765E+02  0.10500000000E+00 0.  1.
         13    1    4    4    0    0  0.35166671843E+01 -0.13979092896E+02  0.13635497954E+02  0.19842374247E+02  0.10500000000E+00 0. -1.
    3000001    1    5    5    0    0 -0.64147133464E+01  0.92554790199E+01 -0.62061308863E+01  0.12896840690E+02  0.10000000000E+01 0. -1.
        -13    1    6    6    0    0 -0.33439176911E+01  0.94157489563E+01 -0.10939072464E+02  0.14815952393E+02  0.10500000000E+00 0.  1.
         13    1    6    6    0    0 -0.77037518912E+01  0.22120224125E+02 -0.25719382387E+02  0.34787206900E+02  0.10500000000E+00 0. -1.
</event>
<event>
11    0  0.3422856E-009  0.9118800E+02  0.7816531E-02  0.1126479E+00
         25   -1    0    0    0    0  0.00000000000E+00  0.00000000000E+00  0.99999998245E-14  0.12500000000E+03  0.12500000000E+03 0.  0.
    3000001    1    3    3    0    0  0.41834579587E+01  0.10114833689E+02 -0.69881299947E+01  0.13024789513E+02  0.10000000000E+01 0.  1.
    1000022    2    1    0    0    0  0.28397368512E+02  0.52122989255E+02 -0.16823580753E+02  0.62500007441E+02  0.10000075674E+02 0.  0.
    3000022    2    3    3    0    0  0.24213910554E+02  0.42008155566E+02 -0.98354507582E+01  0.49475217928E+02  0.24999799974E+00 0.  0.
    1000022    2    1    0    0    0 -0.28397368512E+02 -0.52122989255E+02  0.16823580753E+02  0.62499992559E+02  0.99999826631E+01 0.  0.
    3000022    2    5    5    0    0 -0.95693707407E+01 -0.26772368247E+02  0.10297001076E+02  0.30239432616E+02  0.24999170390E+00 0.  0.
        -13    1    4    4    0    0  0.15344000547E+02  0.26618141447E+02 -0.61720129771E+01  0.31337973388E+02  0.10500000000E+00 0.  1.
         13    1    4    4    0    0  0.88699100066E+01  0.15390014119E+02 -0.36634377811E+01  0.18137244539E+02  0.10500000000E+00 0. -1.
    3000001    1    5    5    0    0 -0.18827997772E+02 -0.25350621008E+02  0.65265796771E+01  0.32260559944E+02  0.10000000000E+01 0. -1.
        -13    1    6    6    0    0 -0.36966364198E+01 -0.10350725323E+02  0.40461874136E+01  0.11712612566E+02  0.10500000000E+00 0.  1.
         13    1    6    6    0    0 -0.58727343209E+01 -0.16421642924E+02  0.62508136622E+01  0.18526820050E+02  0.10500000000E+00 0. -1.
</event>
<event>
11    0  0.3422856E-009  0.9118800E+02  0.7816531E-02  0.1126479E+00
         25   -1    0    0    0    0  0.00000000000E+00  0.00000000000E+00  0.99999998245E-14  0.12500000000E+03  0.12500000000E+03 0.  0.
    3000001    1    3    3    0    0 -0.89851048818E+01 -0.75344088374E+01  0.48921507165E-01  0.11768679602E+02  0.10000000000E+01 0.  1.
    1000022    2    1    0    0    0 -0.52260659604E+02 -0.28705815665E+02 -0.15844544060E+02  0.62499999827E+02  0.10000000334E+02 0.  0.
    3000022    2    3    3    0    0 -0.43275554722E+02 -0.21171406827E+02 -0.15893465568E+02  0.50731320225E+02  0.25000090109E+00 0.  0.
    1000022    2    1    0    0    0  0.52260659604E+02  0.28705815665E+02  0.15844544060E+02  0.62500000173E+02  0.10000002499E+02 0.  0.
    3000022    2    5    5    0    0  0.16703019674E+02  0.11039829025E+02  0.99125023824E+01  0.22342535614E+02  0.25000613121E+00 0.  0.
        -13    1    4    4    0    0 -0.11734132103E+02 -0.57386570418E+01 -0.43476208132E+01  0.13767166469E+02  0.10500000000E+00 0. -1.
         13    1    4    4    0    0 -0.31541422619E+02 -0.15432749786E+02 -0.11545844754E+02  0.36964153755E+02  0.10500000000E+00 0.  1.
    3000001    1    5    5    0    0  0.35557639930E+02  0.17665986640E+02  0.59320416780E+01  0.40157464559E+02  0.10000000000E+01 0. -1.
        -13    1    6    6    0    0  0.39010343478E+01  0.25887838015E+01  0.23072777007E+01  0.52205771656E+01  0.10500000000E+00 0. -1.
         13    1    6    6    0    0  0.12801985326E+02  0.84510452231E+01  0.76052246817E+01  0.17121958448E+02  0.10500000000E+00 0.  1.
</event>
<event>
11    0  0.3422856E-009  0.9118800E+02  0.7816531E-02  0.1126479E+00
         25   -1    0    0    0    0  0.00000000000E+00  0.00000000000E+00  0.99999998245E-14  0.12500000000E+03  0.12500000000E+03 0.  0.
    3000001    1    3    3    0    0  0.26025943126E+02  0.10308357980E+02 -0.39016148182E+02  0.48029905047E+02  0.10000000000E+01 0. -1.
    1000022    2    1    0    0    0  0.37003864133E+02  0.96366317878E+01 -0.48415896787E+02  0.62500002853E+02  0.10000033094E+02 0.  0.
    3000022    2    3    3    0    0  0.10977921007E+02 -0.67172619187E+00 -0.93997486044E+01  0.14470097805E+02  0.24998191929E+00 0.  0.
    1000022    2    1    0    0    0 -0.37003864133E+02 -0.96366317878E+01  0.48415896787E+02  0.62499997147E+02  0.99999974374E+01 0.  0.
    3000022    2    5    5    0    0 -0.33200576181E+02 -0.52225881950E+01  0.41424172124E+02  0.53343961223E+02  0.24995320950E+00 0.  0.
        -13    1    4    4    0    0  0.75482538265E+01 -0.42251825709E+00 -0.64215375152E+01  0.99197694815E+01  0.10500000000E+00 0.  1.
         13    1    4    4    0    0  0.34296671802E+01 -0.24920793478E+00 -0.29782110892E+01  0.45503283237E+01  0.10500000000E+00 0. -1.
    3000001    1    5    5    0    0 -0.38032879523E+01 -0.44140435928E+01  0.69917246628E+01  0.91560359244E+01  0.10000000000E+01 0.  1.
        -13    1    6    6    0    0 -0.20525232313E+02 -0.32449811791E+01  0.25705441407E+02  0.33054437028E+02  0.10500000000E+00 0.  1.
         13    1    6    6    0    0 -0.12675343868E+02 -0.19776070159E+01  0.15718730717E+02  0.20289524195E+02  0.10500000000E+00 0. -1.
</event>
<event>
11    0  0.3422856E-009  0.9118800E+02  0.7816531E-02  0.1126479E+00
         25   -1    0    0    0    0  0.00000000000E+00  0.00000000000E+00  0.99999998245E-14  0.12500000000E+03  0.12500000000E+03 0.  0.
    3000001    1    3    3    0    0  0.10897659333E+02 -0.38685839066E+02  0.83615163709E+01  0.41064194613E+02  0.10000000000E+01 0.  1.
    1000022    2    1    0    0    0  0.22642230460E+02 -0.56567749270E+02  0.96782572015E+01  0.62500006304E+02  0.10000063393E+02 0.  0.
    3000022    2    3    3    0    0  0.11744571127E+02 -0.17881910204E+02  0.13167408306E+01  0.21435811691E+02  0.25010585489E+00 0.  0.
    1000022    2    1    0    0    0 -0.22642230460E+02  0.56567749270E+02 -0.96782572015E+01  0.62499993696E+02  0.99999845973E+01 0.  0.
    3000022    2    5    5    0    0 -0.90038135143E+01  0.15332079398E+02 -0.65256205968E+01  0.18941687897E+02  0.24999949612E+00 0.  0.
        -13    1    4    4    0    0  0.31136812310E+01 -0.47291307937E+01  0.38188601379E+00  0.56759625439E+01  0.10500000000E+00 0.  1.
         13    1    4    4    0    0  0.86308898961E+01 -0.13152779410E+02  0.93485481683E+00  0.15759849147E+02  0.10500000000E+00 0. -1.
    3000001    1    5    5    0    0 -0.13638416946E+02  0.41235669871E+02 -0.31526366046E+01  0.43558305799E+02  0.10000000000E+01 0.  1.
        -13    1    6    6    0    0 -0.42931461985E+01  0.72453324898E+01 -0.31536113689E+01  0.89934552223E+01  0.10500000000E+00 0. -1.
         13    1    6    6    0    0 -0.47106673158E+01  0.80867469085E+01 -0.33720092280E+01  0.99482326750E+01  0.10500000000E+00 0.  1.
</event>
<event>
11    0  0.3422856E-009  0.9118800E+02  0.7816531E-02  0.1126479E+00
         25   -1    0    0    0    0  0.00000000000E+00  0.00000000000E+00  0.99999998245E-14  0.12500000000E+03  0.12500000000E+03 0.  0.
    3000001    1    3    3    0    0  0.83378894360E+01 -0.51805249047E+02  0.24649280365E+02  0.57981818284E+02  0.10000000000E+01 0. -1.
    1000022    2    1    0    0    0  0.74376124507E+01 -0.54323452652E+02  0.28282410103E+02  0.62500002058E+02  0.99999974508E+01 0.  0.
    3000022    2    3    3    0    0 -0.90027698527E+00 -0.25182036048E+01  0.36331297382E+01  0.45181837734E+01  0.25000974025E+00 0.  0.
    1000022    2    1    0    0    0 -0.74376124507E+01  0.54323452652E+02 -0.28282410103E+02  0.62499997942E+02  0.99999717284E+01 0.  0.
    3000022    2    5    5    0    0  0.20300997413E+01  0.20176974439E+02 -0.98718182890E+01  0.22555418342E+02  0.24999557396E+00 0.  0.
        -13    1    4    4    0    0 -0.65443845192E+00 -0.18558593485E+01  0.26106351262E+01  0.32709240852E+01  0.10500000000E+00 0. -1.
         13    1    4    4    0    0 -0.24583853335E+00 -0.66234425629E+00  0.10224946120E+01  0.12472596882E+01  0.10500000000E+00 0.  1.
    3000001    1    5    5    0    0 -0.94677121920E+01  0.34146478213E+02 -0.18410591814E+02  0.39944579600E+02  0.10000000000E+01 0. -1.
        -13    1    6    6    0    0  0.80715261802E+00  0.75001459010E+01 -0.36399791980E+01  0.83764048044E+01  0.10500000000E+00 0. -1.
         13    1    6    6    0    0  0.12229471233E+01  0.12676828538E+02 -0.62318390910E+01  0.14179013538E+02  0.10500000000E+00 0.  1.
</event>
<event>
11    0  0.3422856E-009  0.9118800E+02  0.7816531E-02  0.1126479E+00
         25   -1    0    0    0    0  0.00000000000E+00  0.00000000000E+00  0.99999998245E-14  0.12500000000E+03  0.12500000000E+03 0.  0.
    3000001    1    3    3    0    0 -0.13833754712E+02 -0.50088478114E+00  0.16349671698E+02  0.21446104999E+02  0.10000000000E+01 0. -1.
    1000022    2    1    0    0    0 -0.43183406019E+02  0.10904591335E+02  0.42691139356E+02  0.62500001234E+02  0.10000005355E+02 0.  0.
    3000022    2    3    3    0    0 -0.29349651306E+02  0.11405476116E+02  0.26341467659E+02  0.41053896235E+02  0.25012074690E+00 0.  0.
    1000022    2    1    0    0    0  0.43183406019E+02 -0.10904591335E+02 -0.42691139356E+02  0.62499998766E+02  0.99999899347E+01 0.  0.
    3000022    2    5    5    0    0  0.30477816443E+02 -0.11622195743E+02 -0.27559349618E+02  0.42703079227E+02  0.24999021646E+00 0.  0.
        -13    1    4    4    0    0 -0.17534123918E+02  0.68691305095E+01  0.15705439436E+02  0.24521466278E+02  0.10500000000E+00 0.  1.
         13    1    4    4    0    0 -0.11815527388E+02  0.45363456066E+01  0.10636028222E+02  0.16532429956E+02  0.10500000000E+00 0. -1.
    3000001    1    5    5    0    0  0.12705589576E+02  0.71760440776E+00 -0.15131789738E+02  0.19796919539E+02  0.10000000000E+01 0.  1.
        -13    1    6    6    0    0  0.21747688207E+02 -0.82507655805E+01 -0.19670411284E+02  0.30462652217E+02  0.10500000000E+00 0. -1.
         13    1    6    6    0    0  0.87301282356E+01 -0.33714301622E+01 -0.78889383338E+01  0.12240427010E+02  0.10500000000E+00 0.  1.
</event>
<event>
11    0  0.3422856E-009  0.9118800E+02  0.7816531E-02  0.1126479E+00
         25   -1    0    0    0    0  0.00000000000E+00  0.00000000000E+00  0.99999998245E-14  0.12500000000E+03  0.12500000000E+03 0.  0.
    3000001    1    3    3    0    0  0.24358251114E+02 -0.72784953713E+00  0.63954081416E+01  0.25214190599E+02  0.10000000000E+01 0.  1.
    1000022    2    1    0    0    0  0.59016370006E+02  0.10081624411E+02  0.14888883035E+02  0.62499999562E+02  0.10000001392E+02 0.  0.
    3000022    2    3    3    0    0  0.34658118892E+02  0.10809473948E+02  0.84934748938E+01  0.37285808963E+02  0.25000421678E+00 0.  0.
    1000022    2    1    0    0    0 -0.59016370006E+02 -0.10081624411E+02 -0.14888883035E+02  0.62500000438E+02  0.10000006864E+02 0.  0.
    3000022    2    5    5    0    0 -0.37480821096E+02 -0.81952149202E+01 -0.13996781419E+02  0.40840493220E+02  0.24999757563E+00 0.  0.
        -13    1    4    4    0    0  0.87100787075E+01  0.26893521523E+01  0.21402103037E+01  0.93642731289E+01  0.10500000000E+00 0. -1.
         13    1    4    4    0    0  0.25948040184E+02  0.81201217960E+01  0.63532645902E+01  0.27921535834E+02  0.10500000000E+00 0.  1.
    3000001    1    5    5    0    0 -0.21535548910E+02 -0.18864094910E+01 -0.89210161685E+00  0.21659507218E+02  0.10000000000E+01 0. -1.
        -13    1    6    6    0    0 -0.13633568755E+02 -0.29381898205E+01 -0.50443243547E+01  0.14831162787E+02  0.10500000000E+00 0. -1.
         13    1    6    6    0    0 -0.23847252340E+02 -0.52570250997E+01 -0.89524570639E+01  0.26009330433E+02  0.10500000000E+00 0.  1.
</event>
<event>
11    0  0.3422856E-009  0.9118800E+02  0.7816531E-02  0.1126479E+00
         25   -1    0    0    0    0  0.00000000000E+00  0.00000000000E+00  0.99999998245E-14  0.12500000000E+03  0.12500000000E+03 0.  0.
    3000001    1    3    3    0    0 -0.12978355856E+02 -0.14011718687E+01 -0.27420218283E+01  0.13376086387E+02  0.10000000000E+01 0.  1.
    1000022    2    1    0    0    0 -0.61368891794E+02  0.62856772880E+01  0.77431522795E+00  0.62499998547E+02  0.99999817627E+01 0.  0.
    3000022    2    3    3    0    0 -0.48390535938E+02  0.76868491567E+01  0.35163370563E+01  0.49123912159E+02  0.25000244583E+00 0.  0.
    1000022    2    1    0    0    0  0.61368891794E+02 -0.62856772880E+01 -0.77431522795E+00  0.62500001453E+02  0.99999999270E+01 0.  0.
    3000022    2    5    5    0    0  0.21530488163E+02 -0.62581051096E+01  0.22437275290E+01  0.22534919866E+02  0.25000016199E+00 0.  0.
        -13    1    4    4    0    0 -0.12191373174E+02  0.19624401415E+01  0.87589675082E+00  0.12379780745E+02  0.10500000000E+00 0.  1.
         13    1    4    4    0    0 -0.36199162764E+02  0.57244090152E+01  0.26404403054E+01  0.36744131415E+02  0.10500000000E+00 0. -1.
    3000001    1    5    5    0    0  0.39838403632E+02 -0.27572178418E-01 -0.30180427569E+01  0.39965081587E+02  0.10000000000E+01 0. -1.
        -13    1    6    6    0    0  0.78519904565E+01 -0.23367979946E+01  0.79273948246E+00  0.82312720695E+01  0.10500000000E+00 0.  1.
         13    1    6    6    0    0  0.13678497706E+02 -0.39213071150E+01  0.14509880465E+01  0.14303647797E+02  0.10500000000E+00 0. -1.
</event>
<event>
11    0  0.3422856E-009  0.9118800E+02  0.7816531E-02  0.1126479E+00
         25   -1    0    0    0    0  0.00000000000E+00  0.00000000000E+00  0.99999998245E-14  0.12500000000E+03  0.12500000000E+03 0.  0.
    3000001    1    3    3    0    0 -0.17267771854E+02  0.11716008281E+02  0.11613569304E+02  0.23902213011E+02  0.10000000000E+01 0. -1.
    1000022    2    1    0    0    0 -0.37986909593E+02  0.27426416147E+02  0.40137720501E+02  0.62500001529E+02  0.99999990470E+01 0.  0.
    3000022    2    3    3    0    0 -0.20719137739E+02  0.15710407867E+02  0.28524151197E+02  0.38597788518E+02  0.24998595554E+00 0.  0.
    1000022    2    1    0    0    0  0.37986909593E+02 -0.27426416147E+02 -0.40137720501E+02  0.62499998471E+02  0.99999799384E+01 0.  0.
    3000022    2    5    5    0    0  0.31151063215E+02 -0.22357123099E+02 -0.27319053133E+02  0.47081024419E+02  0.25000724109E+00 0.  0.
        -13    1    4    4    0    0 -0.10282779040E+02  0.78171235007E+01  0.14267506054E+02  0.19246187119E+02  0.10500000000E+00 0.  1.
         13    1    4    4    0    0 -0.10436358699E+02  0.78932843662E+01  0.14256645143E+02  0.19351601399E+02  0.10500000000E+00 0. -1.
    3000001    1    5    5    0    0  0.68358463785E+01 -0.50692930483E+01 -0.12818667368E+02  0.15418974052E+02  0.10000000000E+01 0. -1.
        -13    1    6    6    0    0  0.82993653020E+01 -0.59719235717E+01 -0.73247210998E+01  0.12577992676E+02  0.10500000000E+00 0.  1.
         13    1    6    6    0    0  0.22851697913E+02 -0.16385199527E+02 -0.19994332033E+02  0.34503031743E+02  0.10500000000E+00 0. -1.
</event>
<event>
11    0  0.3422856E-009  0.9118800E+02  0.7816531E-02  0.1126479E+00
         25   -1    0    0    0    0  0.00000000000E+00  0.00000000000E+00  0.99999998245E-14  0.12500000000E+03  0.12500000000E+03 0.  0.
    3000001    1    3    3    0    0 -0.21090097280E+02  0.82093787737E-01  0.32748270038E+02  0.38964703684E+02  0.10000000000E+01 0.  1.
    1000022    2    1    0    0    0 -0.37857370367E+02 -0.50170181294E+01  0.48455122594E+02  0.62499998640E+02  0.99999981195E+01 0.  0.
    3000022    2    3    3    0    0 -0.16767273087E+02 -0.50991119172E+01  0.15706852556E+02  0.23535294956E+02  0.25000470235E+00 0.  0.
    1000022    2    1    0    0    0  0.37857370367E+02  0.50170181294E+01 -0.48455122594E+02  0.62500001360E+02  0.10000015119E+02 0.  0.
    3000022    2    5    5    0    0  0.20450498574E+02 -0.15101609733E+01 -0.21224404741E+02  0.29513409426E+02  0.25000244789E+00 0.  0.
        -13    1    4    4    0    0 -0.12649610186E+02 -0.38382009632E+01  0.11816769863E+02  0.17731088502E+02  0.10500000000E+00 0.  1.
         13    1    4    4    0    0 -0.41176629011E+01 -0.12609109540E+01  0.38900826927E+01  0.58042064537E+01  0.10500000000E+00 0. -1.
    3000001    1    5    5    0    0  0.17406871793E+02  0.65271791027E+01 -0.27230717852E+02  0.32986591934E+02  0.10000000000E+01 0.  1.
        -13    1    6    6    0    0  0.88489197956E+01 -0.70865485872E+00 -0.91365713212E+01  0.12739447938E+02  0.10500000000E+00 0. -1.
         13    1    6    6    0    0  0.11601578779E+02 -0.80150611459E+00 -0.12087833420E+02  0.16773961488E+02  0.10500000000E+00 0.  1.
</event>
<event>
11    0  0.3422856E-009  0.9118800E+02  0.7816531E-02  0.1126479E+00
         25   -1    0    0    0    0  0.00000000000E+00  0.00000000000E+00  0.99999998245E-14  0.12500000000E+03  0.12500000000E+03 0.  0.
    3000001    1    3    3    0    0  0.10764511513E+02 -0.15969045471E+02 -0.19383942183E+02  0.27342683408E+02  0.10000000000E+01 0. -1.
    1000022    2    1    0    0    0  0.33496665194E+02 -0.35707619080E+02 -0.37539171254E+02  0.62500000428E+02  0.10000001776E+02 0.  0.
    3000022    2    3    3    0    0  0.22732153681E+02 -0.19738573609E+02 -0.18155229072E+02  0.35157317020E+02  0.24999668447E+00 0.  0.
    1000022    2    1    0    0    0 -0.33496665194E+02  0.35707619080E+02  0.37539171254E+02  0.62499999572E+02  0.99999964243E+01 0.  0.
    3000022    2    5    5    0    0 -0.23349554285E+02  0.19656497083E+02  0.27044154417E+02  0.40780244610E+02  0.24999890409E+00 0.  0.
        -13    1    4    4    0    0  0.10122177109E+02 -0.88261735583E+01 -0.81692883581E+01  0.15719672591E+02  0.10500000000E+00 0. -1.
         13    1    4    4    0    0  0.12609976572E+02 -0.10912400050E+02 -0.99859407138E+01  0.19437644429E+02  0.10500000000E+00 0.  1.
    3000001    1    5    5    0    0 -0.10147110910E+02  0.16051121997E+02  0.10495016838E+02  0.21719754962E+02  0.10000000000E+01 0.  1.
        -13    1    6    6    0    0 -0.17833473888E+02  0.14999998864E+02  0.20630326399E+02  0.31123209171E+02  0.10500000000E+00 0.  1.
         13    1    6    6    0    0 -0.55160803974E+01  0.46564982192E+01  0.64138280181E+01  0.96570354385E+01  0.10500000000E+00 0. -1.
</event>
<event>
11    0  0.3422856E-009  0.9118800E+02  0.7816531E-02  0.1126479E+00
         25   -1    0    0    0    0  0.00000000000E+00  0.00000000000E+00  0.99999998245E-14  0.12500000000E+03  0.12500000000E+03 0.  0.
    3000001    1    3    3    0    0  0.31922748376E+02 -0.21883677903E+01 -0.30748779019E+02  0.44388492074E+02  0.10000000000E+01 0. -1.
    1000022    2    1    0    0    0  0.47587914176E+02  0.10190467550E+01 -0.39250502805E+02  0.62500000434E+02  0.10000002597E+02 0.  0.
    3000022    2    3    3    0    0  0.15665165800E+02  0.32074145453E+01 -0.85017237854E+01  0.18111508360E+02  0.25000026876E+00 0.  0.
    1000022    2    1    0    0    0 -0.47587914176E+02 -0.10190467550E+01  0.39250502805E+02  0.62499999566E+02  0.99999971690E+01 0.  0.
    3000022    2    5    5    0    0 -0.25807090460E+02 -0.12928111507E+01  0.27477143396E+02  0.37719135568E+02  0.25000025980E+00 0.  0.
        -13    1    4    4    0    0  0.41107156943E+01  0.85413164168E+00 -0.21982659971E+01  0.47403504907E+01  0.10500000000E+00 0.  1.
         13    1    4    4    0    0  0.11554450106E+02  0.23532829036E+01 -0.63034577883E+01  0.13371157869E+02  0.10500000000E+00 0. -1.
    3000001    1    5    5    0    0 -0.21780823716E+02  0.27376439574E+00  0.11773359409E+02  0.24780863998E+02  0.10000000000E+01 0. -1.
        -13    1    6    6    0    0 -0.14031778388E+02 -0.74931811929E+00  0.14871665528E+02  0.20460443371E+02  0.10500000000E+00 0.  1.
         13    1    6    6    0    0 -0.11775312072E+02 -0.54349303144E+00  0.12605477868E+02  0.17258692197E+02  0.10500000000E+00 0. -1.
</event>
<event>
11    0  0.3422856E-009  0.9118800E+02  0.7816531E-02  0.1126479E+00
         25   -1    0    0    0    0  0.00000000000E+00  0.00000000000E+00  0.99999998245E-14  0.12500000000E+03  0.12500000000E+03 0.  0.
    3000001    1    3    3    0    0  0.19764960771E+02  0.31831101196E+02 -0.65159103553E+01  0.38043787474E+02  0.10000000000E+01 0. -1.
    1000022    2    1    0    0    0  0.29348457167E+02  0.51219055505E+02 -0.17931143567E+02  0.62499997790E+02  0.10000011463E+02 0.  0.
    3000022    2    3    3    0    0  0.95834963967E+01  0.19387954309E+02 -0.11415233212E+02  0.24456210316E+02  0.24999656745E+00 0.  0.
    1000022    2    1    0    0    0 -0.29348457167E+02 -0.51219055505E+02  0.17931143567E+02  0.62500002210E+02  0.10000039084E+02 0.  0.
    3000022    2    5    5    0    0 -0.12175742000E+02 -0.13912622212E+02  0.85002823317E+01  0.20350111879E+02  0.25000741766E+00 0.  0.
        -13    1    4    4    0    0  0.67986607531E+01  0.13716712498E+02 -0.81257110122E+01  0.17332287623E+02  0.10500000000E+00 0. -1.
         13    1    4    4    0    0  0.27848356436E+01  0.56712418107E+01 -0.32895221999E+01  0.71239226934E+01  0.10500000000E+00 0.  1.
    3000001    1    5    5    0    0 -0.17172715168E+02 -0.37306433293E+02  0.94308612357E+01  0.42149890331E+02  0.10000000000E+01 0. -1.
        -13    1    6    6    0    0 -0.48686612592E+01 -0.56594831947E+01  0.34324128214E+01  0.82174263163E+01  0.10500000000E+00 0.  1.
         13    1    6    6    0    0 -0.73070807404E+01 -0.82531390169E+01  0.50678695103E+01  0.12132685562E+02  0.10500000000E+00 0. -1.
</event>
<event>
11    0  0.3422856E-009  0.9118800E+02  0.7816531E-02  0.1126479E+00
         25   -1    0    0    0    0  0.00000000000E+00  0.00000000000E+00  0.99999998245E-14  0.12500000000E+03  0.12500000000E+03 0.  0.
    3000001    1    3    3    0    0  0.40104600478E+02 -0.29811549252E+02  0.11157750597E+00  0.49981195442E+02  0.10000000000E+01 0. -1.
    1000022    2    1    0    0    0  0.52237761431E+02 -0.32820784735E+02 -0.51198733623E+00  0.62499998286E+02  0.10000001238E+02 0.  0.
    3000022    2    3    3    0    0  0.12133160953E+02 -0.30092354836E+01 -0.62356484220E+00  0.12518802844E+02  0.24999724847E+00 0.  0.
    1000022    2    1    0    0    0 -0.52237761431E+02  0.32820784735E+02  0.51198733623E+00  0.62500001714E+02  0.10000022659E+02 0.  0.
    3000022    2    5    5    0    0 -0.46470161537E+02  0.26454148686E+02  0.28244522519E+01  0.53547529591E+02  0.24999752834E+00 0.  0.
        -13    1    4    4    0    0  0.52583746274E+01 -0.12457821575E+01 -0.30279314810E+00  0.54134264192E+01  0.10500000000E+00 0. -1.
         13    1    4    4    0    0  0.68747863259E+01 -0.17634533261E+01 -0.32077169410E+00  0.71053764250E+01  0.10500000000E+00 0.  1.
    3000001    1    5    5    0    0 -0.57675998942E+01  0.63666360495E+01 -0.23124649157E+01  0.89524721229E+01  0.10000000000E+01 0.  1.
        -13    1    6    6    0    0 -0.16175339108E+02  0.91495182615E+01  0.95813859503E+00  0.18608716620E+02  0.10500000000E+00 0. -1.
         13    1    6    6    0    0 -0.30294822429E+02  0.17304630424E+02  0.18663136569E+01  0.34938812971E+02  0.10500000000E+00 0.  1.
</event>
<event>
11    0  0.3422856E-009  0.9118800E+02  0.7816531E-02  0.1126479E+00
         25   -1    0    0    0    0  0.00000000000E+00  0.00000000000E+00  0.99999998245E-14  0.12500000000E+03  0.12500000000E+03 0.  0.
    3000001    1    3    3    0    0 -0.12391803440E+01  0.38901312400E+00  0.15792453974E+01  0.22761623758E+01  0.10000000000E+01 0. -1.
    1000022    2    1    0    0    0 -0.21694918069E+02 -0.30992253308E+02  0.48734595727E+02  0.62500000298E+02  0.99999990725E+01 0.  0.
    3000022    2    3    3    0    0 -0.20455737725E+02 -0.31381266432E+02  0.47155350330E+02  0.60223837923E+02  0.25000125472E+00 0.  0.
    1000022    2    1    0    0    0  0.21694918069E+02  0.30992253308E+02 -0.48734595727E+02  0.62499999702E+02  0.99999953438E+01 0.  0.
    3000022    2    5    5    0    0  0.61838383910E+00 -0.48684507026E+00 -0.82246113321E-01  0.82986874011E+00  0.25000201553E+00 0.  0.
        -13    1    4    4    0    0 -0.72775697064E+01 -0.11245230387E+02  0.16921881551E+02  0.21581921312E+02  0.10500000000E+00 0.  1.
         13    1    4    4    0    0 -0.13178168018E+02 -0.20136036045E+02  0.30233468778E+02  0.38641916610E+02  0.10500000000E+00 0. -1.
    3000001    1    5    5    0    0  0.21076534230E+02  0.31479098379E+02 -0.48652349614E+02  0.61670130962E+02  0.10000000000E+01 0. -1.
        -13    1    6    6    0    0  0.30464004422E+00 -0.19832787301E+00  0.20854591126E-01  0.37894513551E+00  0.10500000000E+00 0. -1.
         13    1    6    6    0    0  0.31374379487E+00 -0.28851719725E+00 -0.10310070445E+00  0.45092360460E+00  0.10500000000E+00 0.  1.
</event>
<event>
11    0  0.3422856E-009  0.9118800E+02  0.7816531E-02  0.1126479E+00
         25   -1    0    0    0    0  0.00000000000E+00  0.00000000000E+00  0.99999998245E-14  0.12500000000E+03  0.12500000000E+03 0.  0.
    3000001    1    3    3    0    0  0.21668855169E+02  0.34461480087E+02 -0.37166324790E+01  0.40889439360E+02  0.10000000000E+01 0. -1.
    1000022    2    1    0    0    0  0.26812392868E+02  0.55449015681E+02 -0.35710207295E+01  0.62499999890E+02  0.10000002295E+02 0.  0.
    3000022    2    3    3    0    0  0.51435376990E+01  0.20987535594E+02  0.14561174949E+00  0.21610560531E+02  0.24998660966E+00 0.  0.
    1000022    2    1    0    0    0 -0.26812392868E+02 -0.55449015681E+02  0.35710207295E+01  0.62500000110E+02  0.10000003664E+02 0.  0.
    3000022    2    5    5    0    0 -0.11137168789E+02 -0.31562314888E+02 -0.13190826460E+01  0.33496547974E+02  0.24999489076E+00 0.  0.
        -13    1    4    4    0    0  0.31235785543E+01  0.12776455899E+02  0.26938776827E-01  0.13153186649E+02  0.10500000000E+00 0.  1.
         13    1    4    4    0    0  0.20199591448E+01  0.82110796948E+01  0.11867297266E+00  0.84573738817E+01  0.10500000000E+00 0. -1.
    3000001    1    5    5    0    0 -0.15675224080E+02 -0.23886700793E+02  0.48901033755E+01  0.29003452135E+02  0.10000000000E+01 0.  1.
        -13    1    6    6    0    0 -0.84760488592E+01 -0.24019550801E+02 -0.10223218899E+01  0.25491927977E+02  0.10500000000E+00 0.  1.
         13    1    6    6    0    0 -0.26611199293E+01 -0.75427640873E+01 -0.29676075616E+00  0.80046199973E+01  0.10500000000E+00 0. -1.
</event>
<event>
11    0  0.3422856E-009  0.9118800E+02  0.7816531E-02  0.1126479E+00
         25   -1    0    0    0    0  0.00000000000E+00  0.00000000000E+00  0.99999998245E-14  0.12500000000E+03  0.12500000000E+03 0.  0.
    3000001    1    3    3    0    0  0.10019634260E+02  0.76452541719E+01 -0.15191385676E+02  0.19764138757E+02  0.10000000000E+01 0.  1.
    1000022    2    1    0    0    0  0.33158153120E+02  0.34968079556E+02 -0.38522985017E+02  0.62500000550E+02  0.99999994008E+01 0.  0.
    3000022    2    3    3    0    0  0.23138518860E+02  0.27322825384E+02 -0.23331599341E+02  0.42735861793E+02  0.25002677587E+00 0.  0.
    1000022    2    1    0    0    0 -0.33158153120E+02 -0.34968079556E+02  0.38522985017E+02  0.62499999450E+02  0.99999925253E+01 0.  0.
    3000022    2    5    5    0    0 -0.92245259952E+01 -0.12238271791E+02  0.17906348819E+02  0.23570468802E+02  0.24999050777E+00 0.  0.
        -13    1    4    4    0    0  0.15248282397E+02  0.17937621710E+02 -0.15381303343E+02  0.28122302647E+02  0.10500000000E+00 0. -1.
         13    1    4    4    0    0  0.78902364627E+01  0.93852036742E+01 -0.79502959977E+01  0.14613559145E+02  0.10500000000E+00 0.  1.
    3000001    1    5    5    0    0 -0.23933627125E+02 -0.22729807765E+02  0.20616636198E+02  0.38929530648E+02  0.10000000000E+01 0.  1.
        -13    1    6    6    0    0 -0.32119887717E+01 -0.41730767779E+01  0.61774657441E+01  0.81181001277E+01  0.10500000000E+00 0.  1.
         13    1    6    6    0    0 -0.60125372235E+01 -0.80651950133E+01  0.11728883075E+02  0.15452368674E+02  0.10500000000E+00 0. -1.
</event>
<event>
11    0  0.3422856E-009  0.9118800E+02  0.7816531E-02  0.1126479E+00
         25   -1    0    0    0    0  0.00000000000E+00  0.00000000000E+00  0.99999998245E-14  0.12500000000E+03  0.12500000000E+03 0.  0.
    3000001    1    3    3    0    0  0.22485689517E+02  0.18984387263E+02 -0.50819506967E+01  0.29880418600E+02  0.10000000000E+01 0.  1.
    1000022    2    1    0    0    0  0.43647132320E+02  0.38575316248E+02 -0.20325422700E+02  0.62500000112E+02  0.10000001131E+02 0.  0.
    3000022    2    3    3    0    0  0.21161442803E+02  0.19590928985E+02 -0.15243472004E+02  0.32619581512E+02  0.24999858565E+00 0.  0.
    1000022    2    1    0    0    0 -0.43647132320E+02 -0.38575316248E+02  0.20325422700E+02  0.62499999888E+02  0.99999997343E+01 0.  0.
    3000022    2    5    5    0    0 -0.55066596032E+01 -0.10055757946E+02  0.38420984979E+01  0.12094039511E+02  0.25000593565E+00 0.  0.
        -13    1    4    4    0    0  0.12612409391E+02  0.11617941965E+02 -0.90110793154E+01  0.19371629295E+02  0.10500000000E+00 0. -1.
         13    1    4    4    0    0  0.85490334122E+01  0.79729870207E+01 -0.62323926881E+01  0.13247952217E+02  0.10500000000E+00 0.  1.
    3000001    1    5    5    0    0 -0.38140472717E+02 -0.28519558302E+02  0.16483324202E+02  0.50405960377E+02  0.10000000000E+01 0.  1.
        -13    1    6    6    0    0 -0.28196072506E+01 -0.50616750298E+01  0.19978782419E+01  0.61297048562E+01  0.10500000000E+00 0.  1.
         13    1    6    6    0    0 -0.26870523526E+01 -0.49940829163E+01  0.18442202560E+01  0.59643346547E+01  0.10500000000E+00 0. -1.
</event>
<event>
11    0  0.3422856E-009  0.9118800E+02  0.7816531E-02  0.1126479E+00
         25   -1    0    0    0    0  0.00000000000E+00  0.00000000000E+00  0.99999998245E-14  0.12500000000E+03  0.12500000000E+03 0.  0.
    3000001    1    3    3    0    0  0.10865997875E+01  0.13573699233E+02 -0.29051451680E+00  0.13656881367E+02  0.10000000000E+01 0. -1.
    1000022    2    1    0    0    0  0.22716615260E+02  0.57282387836E+02 -0.29887947435E+01  0.62500000062E+02  0.10000027439E+02 0.  0.
    3000022    2    3    3    0    0  0.21630015472E+02  0.43708688602E+02 -0.26982802267E+01  0.48843118696E+02  0.24999820535E+00 0.  0.
    1000022    2    1    0    0    0 -0.22716615260E+02 -0.57282387836E+02  0.29887947435E+01  0.62499999938E+02  0.10000026658E+02 0.  0.
    3000022    2    5    5    0    0 -0.12648637855E+02 -0.22656343418E+02 -0.22548655387E+01  0.26046974080E+02  0.25000689647E+00 0.  0.
        -13    1    4    4    0    0  0.65526793328E+01  0.13270940228E+02 -0.77397445395E+00  0.14821117448E+02  0.10500000000E+00 0. -1.
         13    1    4    4    0    0  0.15077336140E+02  0.30437748375E+02 -0.19243057728E+01  0.34022001248E+02  0.10500000000E+00 0.  1.
    3000001    1    5    5    0    0 -0.10067977405E+02 -0.34626044418E+02  0.52436602822E+01  0.36453025858E+02  0.10000000000E+01 0.  1.
        -13    1    6    6    0    0 -0.78219649012E+01 -0.13918796239E+02 -0.13453050089E+01  0.16023011397E+02  0.10500000000E+00 0.  1.
         13    1    6    6    0    0 -0.48266729540E+01 -0.87375471786E+01 -0.90956052972E+00  0.10023962683E+02  0.10500000000E+00 0. -1.
</event>
<event>
11    0  0.3422856E-009  0.9118800E+02  0.7816531E-02  0.1126479E+00
         25   -1    0    0    0    0  0.00000000000E+00  0.00000000000E+00  0.99999998245E-14  0.12500000000E+03  0.12500000000E+03 0.  0.
    3000001    1    3    3    0    0 -0.25628830248E+02  0.19139216666E+02 -0.10885718823E+02  0.33803038750E+02  0.10000000000E+01 0. -1.
    1000022    2    1    0    0    0 -0.43955469765E+02  0.32854828088E+02 -0.28190909738E+02  0.62500004549E+02  0.10000006287E+02 0.  0.
    3000022    2    3    3    0    0 -0.18326639517E+02  0.13715611422E+02 -0.17305190916E+02  0.28696965798E+02  0.25000144911E+00 0.  0.
    1000022    2    1    0    0    0  0.43955469765E+02 -0.32854828088E+02  0.28190909738E+02  0.62499995451E+02  0.99999494280E+01 0.  0.
    3000022    2    5    5    0    0  0.37268899563E+02 -0.31321554835E+02  0.26207195953E+02  0.55289151651E+02  0.24999724170E+00 0.  0.
        -13    1    4    4    0    0 -0.61130957040E+01  0.46179348999E+01 -0.58440265006E+01  0.96363339795E+01  0.10500000000E+00 0.  1.
         13    1    4    4    0    0 -0.12213543813E+02  0.90976765225E+01 -0.11461164415E+02  0.19060631819E+02  0.10500000000E+00 0. -1.
    3000001    1    5    5    0    0  0.66865702017E+01 -0.15332732533E+01  0.19837137855E+01  0.72108438004E+01  0.10000000000E+01 0.  1.
        -13    1    6    6    0    0  0.21040349987E+02 -0.17630875866E+02  0.14837148509E+02  0.31204104094E+02  0.10500000000E+00 0. -1.
         13    1    6    6    0    0  0.16228549576E+02 -0.13690678969E+02  0.11370047444E+02  0.24085047557E+02  0.10500000000E+00 0.  1.
</event>
<event>
11    0  0.3422856E-009  0.9118800E+02  0.7816531E-02  0.1126479E+00
         25   -1    0    0    0    0  0.00000000000E+00  0.00000000000E+00  0.99999998245E-14  0.12500000000E+03  0.12500000000E+03 0.  0.
    3000001    1    3    3    0    0  0.97422279473E+00 -0.21702846782E+01  0.12444189556E+02  0.12708937774E+02  0.10000000000E+01 0. -1.
    1000022    2    1    0    0    0 -0.20285363385E+01 -0.27661810503E+02  0.55108611999E+02  0.62500000151E+02  0.10000009122E+02 0.  0.
    3000022    2    3    3    0    0 -0.30027591332E+01 -0.25491525825E+02  0.42664422443E+02  0.49791062377E+02  0.24999788117E+00 0.  0.
    1000022    2    1    0    0    0  0.20285363385E+01  0.27661810503E+02 -0.55108611999E+02  0.62499999849E+02  0.10000007239E+02 0.  0.
    3000022    2    5    5    0    0  0.13082856166E+01  0.28130896140E+02 -0.52813737549E+02  0.59853256345E+02  0.24998466084E+00 0.  0.
        -13    1    4    4    0    0 -0.13938774472E+01 -0.11961172260E+02  0.19888824627E+02  0.23250567869E+02  0.10500000000E+00 0.  1.
         13    1    4    4    0    0 -0.16088816860E+01 -0.13530353564E+02  0.22775597815E+02  0.26540494507E+02  0.10500000000E+00 0. -1.
    3000001    1    5    5    0    0  0.72025072185E+00 -0.46908563717E+00 -0.22948744500E+01  0.26467435045E+01  0.10000000000E+01 0. -1.
        -13    1    6    6    0    0  0.74503199783E+00  0.16148685320E+02 -0.30179110999E+02  0.34236309321E+02  0.10500000000E+00 0.  1.
         13    1    6    6    0    0  0.56325361879E+00  0.11982210820E+02 -0.22634626550E+02  0.25616947024E+02  0.10500000000E+00 0. -1.
</event>
<event>
11    0  0.3422856E-009  0.9118800E+02  0.7816531E-02  0.1126479E+00
         25   -1    0    0    0    0  0.00000000000E+00  0.00000000000E+00  0.99999998245E-14  0.12500000000E+03  0.12500000000E+03 0.  0.
    3000001    1    3    3    0    0  0.46667892452E+02  0.13913138293E+02  0.34704967011E+02  0.59807209752E+02  0.10000000000E+01 0.  1.
    1000022    2    1    0    0    0  0.48753879663E+02  0.12531739222E+02  0.35668820952E+02  0.62499999909E+02  0.99999965236E+01 0.  0.
    3000022    2    3    3    0    0  0.20859872102E+01 -0.13813990714E+01  0.96385394126E+00  0.26927901571E+01  0.24999674930E+00 0.  0.
    1000022    2    1    0    0    0 -0.48753879663E+02 -0.12531739222E+02 -0.35668820952E+02  0.62500000091E+02  0.99999976553E+01 0.  0.
    3000022    2    5    5    0    0 -0.24997247675E+02 -0.11477581285E+02 -0.18396908941E+02  0.33092386164E+02  0.24999986596E+00 0.  0.
        -13    1    4    4    0    0  0.14871704064E+01 -0.10305364462E+01  0.68575509801E+00  0.19377735263E+01  0.10500000000E+00 0.  1.
         13    1    4    4    0    0  0.59881680378E+00 -0.35086262522E+00  0.27809884326E+00  0.75501663086E+00  0.10500000000E+00 0.  1.
    3000001    1    5    5    0    0 -0.23756631987E+02 -0.10541579366E+01 -0.17271912011E+02  0.29407613927E+02  0.10000000000E+01 0. -1.
        -13    1    6    6    0    0 -0.79442982786E+01 -0.36975235047E+01 -0.58342600007E+01  0.10527733373E+02  0.10500000000E+00 0. -1.
         13    1    6    6    0    0 -0.17052949397E+02 -0.77800577803E+01 -0.12562648940E+02  0.22564652791E+02  0.10500000000E+00 0.  1.
</event>
<event>
11    0  0.3422856E-009  0.9118800E+02  0.7816531E-02  0.1126479E+00
         25   -1    0    0    0    0  0.00000000000E+00  0.00000000000E+00  0.99999998245E-14  0.12500000000E+03  0.12500000000E+03 0.  0.
    3000001    1    3    3    0    0 -0.13555776008E+02  0.17114049697E+02 -0.12309197254E+02  0.25083183555E+02  0.10000000000E+01 0.  1.
    1000022    2    1    0    0    0 -0.28703932313E+02  0.37085385279E+02 -0.40087511191E+02  0.62499999444E+02  0.99999922786E+01 0.  0.
    3000022    2    3    3    0    0 -0.15148156305E+02  0.19971335581E+02 -0.27778313936E+02  0.37416815889E+02  0.25000356718E+00 0.  0.
    1000022    2    1    0    0    0  0.28703932313E+02 -0.37085385279E+02  0.40087511191E+02  0.62500000556E+02  0.99999992271E+01 0.  0.
    3000022    2    5    5    0    0  0.22753342227E+02 -0.23311753649E+02  0.23882857866E+02  0.40393140986E+02  0.24999648685E+00 0.  0.
        -13    1    4    4    0    0 -0.46204114523E+01  0.61706564734E+01 -0.85428995810E+01  0.11507274289E+02  0.10500000000E+00 0. -1.
         13    1    4    4    0    0 -0.10527744853E+02  0.13800679108E+02 -0.19235414355E+02  0.25909541600E+02  0.10500000000E+00 0.  1.
    3000001    1    5    5    0    0  0.59505900863E+01 -0.13773631630E+02  0.16204653325E+02  0.22106859570E+02  0.10000000000E+01 0. -1.
        -13    1    6    6    0    0  0.15430888734E+02 -0.15794374040E+02  0.16250790303E+02  0.27416669909E+02  0.10500000000E+00 0. -1.
         13    1    6    6    0    0  0.73224534928E+01 -0.75173796087E+01  0.76320675626E+01  0.12976471077E+02  0.10500000000E+00 0.  1.
</event>
<event>
11    0  0.3422856E-009  0.9118800E+02  0.7816531E-02  0.1126479E+00
         25   -1    0    0    0    0  0.00000000000E+00  0.00000000000E+00  0.99999998245E-14  0.12500000000E+03  0.12500000000E+03 0.  0.
    3000001    1    3    3    0    0 -0.19707890103E+02  0.33573288633E+02 -0.11115073560E+02  0.40498290114E+02  0.10000000000E+01 0. -1.
    1000022    2    1    0    0    0 -0.35526052866E+02  0.48756924200E+02 -0.12919434514E+02  0.62500000831E+02  0.10000011299E+02 0.  0.
    3000022    2    3    3    0    0 -0.15818162763E+02  0.15183635567E+02 -0.18043609539E+01  0.22001710717E+02  0.24998751930E+00 0.  0.
    1000022    2    1    0    0    0  0.35526052866E+02 -0.48756924200E+02  0.12919434514E+02  0.62499999169E+02  0.10000000913E+02 0.  0.
    3000022    2    5    5    0    0  0.20182818319E+02 -0.20082593087E+02  0.81429507602E+01  0.29614639080E+02  0.25000066846E+00 0.  0.
        -13    1    4    4    0    0 -0.60890512224E+01  0.59043391001E+01 -0.65365134381E+00  0.85074114793E+01  0.10500000000E+00 0.  1.
         13    1    4    4    0    0 -0.97291115407E+01  0.92792964673E+01 -0.11507096101E+01  0.13494299237E+02  0.10500000000E+00 0. -1.
    3000001    1    5    5    0    0  0.15343234547E+02 -0.28674331113E+02  0.47764837541E+01  0.32885360089E+02  0.10000000000E+01 0.  1.
        -13    1    6    6    0    0  0.11576642889E+02 -0.11590573097E+02  0.46424079233E+01  0.17027126053E+02  0.10500000000E+00 0. -1.
         13    1    6    6    0    0  0.86061754307E+01 -0.84920199897E+01  0.35005428368E+01  0.12587513027E+02  0.10500000000E+00 0.  1.
</event>
<event>
11    0  0.3422856E-009  0.9118800E+02  0.7816531E-02  0.1126479E+00
         25   -1    0    0    0    0  0.00000000000E+00  0.00000000000E+00  0.99999998245E-14  0.12500000000E+03  0.12500000000E+03 0.  0.
    3000001    1    3    3    0    0  0.29884912995E+01  0.41562606980E+01 -0.19186421623E+01  0.55575867950E+01  0.10000000000E+01 0.  1.
    1000022    2    1    0    0    0  0.14973262507E+02  0.59822516229E+02 -0.18216302214E+01  0.62500001933E+02  0.99999933415E+01 0.  0.
    3000022    2    3    3    0    0  0.11984771208E+02  0.55666255531E+02  0.97011940954E-01  0.56942415138E+02  0.24996927391E+00 0.  0.
    1000022    2    1    0    0    0 -0.14973262507E+02 -0.59822516229E+02  0.18216302214E+01  0.62499998067E+02  0.99999691815E+01 0.  0.
    3000022    2    5    5    0    0 -0.13923044005E+01 -0.25552011034E+02  0.34397615811E+00  0.25593448364E+02  0.25000032163E+00 0.  0.
        -13    1    4    4    0    0  0.92123243396E+01  0.42786720807E+02  0.83891614372E-01  0.43767436068E+02  0.10500000000E+00 0. -1.
         13    1    4    4    0    0  0.27724468681E+01  0.12879534724E+02  0.13120326583E-01  0.13174979070E+02  0.10500000000E+00 0.  1.
    3000001    1    5    5    0    0 -0.13580958107E+02 -0.34270505195E+02  0.14776540633E+01  0.36906549703E+02  0.10000000000E+01 0. -1.
        -13    1    6    6    0    0 -0.72785786617E+00 -0.14355452612E+02  0.23084470345E+00  0.14376129905E+02  0.10500000000E+00 0. -1.
         13    1    6    6    0    0 -0.66444653433E+00 -0.11196558422E+02  0.11313145466E+00  0.11217318459E+02  0.10500000000E+00 0.  1.
</event>
<event>
11    0  0.3422856E-009  0.9118800E+02  0.7816531E-02  0.1126479E+00
         25   -1    0    0    0    0  0.00000000000E+00  0.00000000000E+00  0.99999998245E-14  0.12500000000E+03  0.12500000000E+03 0.  0.
    3000001    1    3    3    0    0 -0.20638556848E+02 -0.42802263900E+02  0.96153926521E+01  0.48491644637E+02  0.10000000000E+01 0. -1.
    1000022    2    1    0    0    0 -0.27897189468E+02 -0.52409781313E+02  0.16769369085E+02  0.62499999901E+02  0.99999945279E+01 0.  0.
    3000022    2    3    3    0    0 -0.72586326198E+01 -0.96075174131E+01  0.71539764326E+01  0.14008355263E+02  0.25000007601E+00 0.  0.
    1000022    2    1    0    0    0  0.27897189468E+02  0.52409781313E+02 -0.16769369085E+02  0.62500000099E+02  0.99999957704E+01 0.  0.
    3000022    2    5    5    0    0 -0.58227481581E+00  0.22577124128E+01 -0.16540507180E+01  0.28696156447E+01  0.25000174103E+00 0.  0.
        -13    1    4    4    0    0 -0.34398246945E+01 -0.46645520822E+01  0.34348028501E+01  0.67379029137E+01  0.10500000000E+00 0.  1.
         13    1    4    4    0    0 -0.38188079253E+01 -0.49429653309E+01  0.37191735825E+01  0.72704523497E+01  0.10500000000E+00 0. -1.
    3000001    1    5    5    0    0  0.28479464284E+02  0.50152068901E+02 -0.15115318367E+02  0.59630384455E+02  0.10000000000E+01 0. -1.
        -13    1    6    6    0    0 -0.42212647349E+00  0.15987638422E+01 -0.11170822627E+01  0.19982828539E+01  0.10500000000E+00 0. -1.
         13    1    6    6    0    0 -0.16014834232E+00  0.65894857063E+00 -0.53696845529E+00  0.87133279077E+00  0.10500000000E+00 0.  1.
</event>
<event>
11    0  0.3422856E-009  0.9118800E+02  0.7816531E-02  0.1126479E+00
         25   -1    0    0    0    0  0.00000000000E+00  0.00000000000E+00  0.99999998245E-14  0.12500000000E+03  0.12500000000E+03 0.  0.
    3000001    1    3    3    0    0 -0.66976413210E+01 -0.33726027851E+02 -0.40743704361E+02  0.53323098174E+02  0.10000000000E+01 0. -1.
    1000022    2    1    0    0    0 -0.59431161833E+01 -0.36331710891E+02 -0.49506931050E+02  0.62500000581E+02  0.10000000214E+02 0.  0.
    3000022    2    3    3    0    0  0.75452513767E+00 -0.26056830405E+01 -0.87632266894E+01  0.91769024062E+01  0.25000694617E+00 0.  0.
    1000022    2    1    0    0    0  0.59431161833E+01  0.36331710891E+02  0.49506931050E+02  0.62499999419E+02  0.99999929568E+01 0.  0.
    3000022    2    5    5    0    0  0.10063738473E+01  0.34613603405E+01  0.11221956572E+02  0.11789343330E+02  0.25000623269E+00 0.  0.
        -13    1    4    4    0    0  0.45585691787E+00 -0.13322952661E+01 -0.45661528923E+01  0.47794971955E+01  0.10500000000E+00 0. -1.
         13    1    4    4    0    0  0.29866821980E+00 -0.12733877744E+01 -0.41970737970E+01  0.43974052107E+01  0.10500000000E+00 0.  1.
    3000001    1    5    5    0    0  0.49367423360E+01  0.32870350551E+02  0.38284974478E+02  0.50710656090E+02  0.10000000000E+01 0. -1.
        -13    1    6    6    0    0  0.64841059428E+00  0.21082689490E+01  0.70283636918E+01  0.73670995272E+01  0.10500000000E+00 0. -1.
         13    1    6    6    0    0  0.35796325304E+00  0.13530913915E+01  0.41935928802E+01  0.44222438025E+01  0.10500000000E+00 0.  1.
</event>
<event>
11    0  0.3422856E-009  0.9118800E+02  0.7816531E-02  0.1126479E+00
         25   -1    0    0    0    0  0.00000000000E+00  0.00000000000E+00  0.99999998245E-14  0.12500000000E+03  0.12500000000E+03 0.  0.
    3000001    1    3    3    0    0  0.55674480676E+02  0.42273156295E+01 -0.16307318467E+02  0.58175997039E+02  0.10000000000E+01 0.  1.
    1000022    2    1    0    0    0  0.59623043704E+02  0.53088319834E+01 -0.14938496973E+02  0.62500001004E+02  0.10000019805E+02 0.  0.
    3000022    2    3    3    0    0  0.39485630287E+01  0.10815163539E+01  0.13688214942E+01  0.43240039647E+01  0.25002077624E+00 0.  0.
    1000022    2    1    0    0    0 -0.59623043704E+02 -0.53088319834E+01  0.14938496973E+02  0.62499998996E+02  0.10000007253E+02 0.  0.
    3000022    2    5    5    0    0 -0.47295279483E+01 -0.28094202028E+01 -0.14382942753E+00  0.55085812124E+01  0.25000716044E+00 0.  0.
        -13    1    4    4    0    0  0.10368732034E+01  0.25932700158E+00  0.38155428336E+00  0.11397215471E+01  0.10500000000E+00 0.  1.
         13    1    4    4    0    0  0.29116898253E+01  0.82218935229E+00  0.98726721079E+00  0.31842824177E+01  0.10500000000E+00 0. -1.
    3000001    1    5    5    0    0 -0.54893515756E+02 -0.24994117807E+01  0.15082326400E+02  0.56991417783E+02  0.10000000000E+01 0.  1.
        -13    1    6    6    0    0 -0.15513174284E+01 -0.98376101590E+00 -0.51681479776E-01  0.18406703875E+01  0.10500000000E+00 0.  1.
         13    1    6    6    0    0 -0.31782105198E+01 -0.18256591869E+01 -0.92147947759E-01  0.36679108249E+01  0.10500000000E+00 0. -1.
</event>
<event>
11    0  0.3422856E-009  0.9118800E+02  0.7816531E-02  0.1126479E+00
         25   -1    0    0    0    0  0.00000000000E+00  0.00000000000E+00  0.99999998245E-14  0.12500000000E+03  0.12500000000E+03 0.  0.
    3000001    1    3    3    0    0  0.15273173911E+02  0.49000704188E+01  0.12090131268E+02  0.20110987183E+02  0.10000000000E+01 0.  1.
    1000022    2    1    0    0    0  0.36522914300E+02  0.18568051674E+02  0.46125418167E+02  0.62500000353E+02  0.10000001552E+02 0.  0.
    3000022    2    3    3    0    0  0.21249740390E+02  0.13667981256E+02  0.34035286899E+02  0.42389013170E+02  0.25000988508E+00 0.  0.
    1000022    2    1    0    0    0 -0.36522914300E+02 -0.18568051674E+02 -0.46125418167E+02  0.62499999647E+02  0.99999971387E+01 0.  0.
    3000022    2    5    5    0    0 -0.22715966098E+02 -0.15255349058E+02 -0.35037519503E+02  0.44457069893E+02  0.24999989680E+00 0.  0.
        -13    1    4    4    0    0  0.10708149133E+02  0.68420193887E+01  0.17211752326E+02  0.21394698649E+02  0.10500000000E+00 0.  1.
         13    1    4    4    0    0  0.10541591256E+02  0.68259618671E+01  0.16823534573E+02  0.20994314520E+02  0.10500000000E+00 0. -1.
    3000001    1    5    5    0    0 -0.13806948203E+02 -0.33127026161E+01 -0.11087898664E+02  0.18042929753E+02  0.10000000000E+01 0. -1.
        -13    1    6    6    0    0 -0.84228045349E+01 -0.56268918372E+01 -0.13058862974E+02  0.16527264600E+02  0.10500000000E+00 0. -1.
         13    1    6    6    0    0 -0.14293161563E+02 -0.96284572212E+01 -0.21978656529E+02  0.27929805294E+02  0.10500000000E+00 0.  1.
</event>
<event>
11    0  0.3422856E-009  0.9118800E+02  0.7816531E-02  0.1126479E+00
         25   -1    0    0    0    0  0.00000000000E+00  0.00000000000E+00  0.99999998245E-14  0.12500000000E+03  0.12500000000E+03 0.  0.
    3000001    1    3    3    0    0  0.20574719904E+02 -0.44644421535E+02  0.37537717660E+02  0.61858901707E+02  0.10000000000E+01 0.  1.
    1000022    2    1    0    0    0  0.20095704220E+02 -0.44422953799E+02  0.37802300771E+02  0.62500001179E+02  0.10000002576E+02 0.  0.
    3000022    2    3    3    0    0 -0.47901568396E+00  0.22146773603E+00  0.26458311107E+00  0.64109947202E+00  0.25000065357E+00 0.  0.
    1000022    2    1    0    0    0 -0.20095704220E+02  0.44422953799E+02 -0.37802300771E+02  0.62499998821E+02  0.99999878339E+01 0.  0.
    3000022    2    5    5    0    0 -0.14882515826E+02  0.24846560250E+02 -0.26619185603E+02  0.39338077862E+02  0.24998833428E+00 0.  0.
        -13    1    4    4    0    0 -0.29833317245E+00  0.92583002126E-01  0.20616656930E+00  0.38872091321E+00  0.10500000000E+00 0. -1.
         13    1    4    4    0    0 -0.18068251150E+00  0.12888473391E+00  0.58416541763E-01  0.25237855881E+00  0.10500000000E+00 0.  1.
    3000001    1    5    5    0    0 -0.52131883938E+01  0.19576393550E+02 -0.11183115168E+02  0.23161920959E+02  0.10000000000E+01 0.  1.
        -13    1    6    6    0    0 -0.11022423444E+02  0.18375929139E+02 -0.19654883312E+02  0.29077380441E+02  0.10500000000E+00 0. -1.
         13    1    6    6    0    0 -0.38600923815E+01  0.64706311108E+01 -0.69643022904E+01  0.10260697421E+02  0.10500000000E+00 0.  1.
</event>
<event>
11    0  0.3422856E-009  0.9118800E+02  0.7816531E-02  0.1126479E+00
         25   -1    0    0    0    0  0.00000000000E+00  0.00000000000E+00  0.99999998245E-14  0.12500000000E+03  0.12500000000E+03 0.  0.
    3000001    1    3    3    0    0 -0.27947145307E+02 -0.10037348225E+02  0.70104859952E+00  0.29720073340E+02  0.10000000000E+01 0. -1.
    1000022    2    1    0    0    0 -0.53771235511E+02 -0.30126166615E+02  0.27052562008E+01  0.62500000294E+02  0.99999971137E+01 0.  0.
    3000022    2    3    3    0    0 -0.25824090204E+02 -0.20088818391E+02  0.20042076013E+01  0.32779926953E+02  0.25000755049E+00 0.  0.
    1000022    2    1    0    0    0  0.53771235511E+02  0.30126166615E+02 -0.27052562008E+01  0.62499999706E+02  0.99999934420E+01 0.  0.
    3000022    2    5    5    0    0  0.49274414236E+02  0.30208097084E+02 -0.19449369103E+01  0.57830288837E+02  0.24999920406E+00 0.  0.
        -13    1    4    4    0    0 -0.99183041821E+01 -0.76688385975E+01  0.81698526130E+00  0.12564327805E+02  0.10500000000E+00 0.  1.
         13    1    4    4    0    0 -0.15905786022E+02 -0.12419979793E+02  0.11872223400E+01  0.20215599148E+02  0.10500000000E+00 0. -1.
    3000001    1    5    5    0    0  0.44968212749E+01 -0.81930468815E-01 -0.76031929048E+00  0.46697108693E+01  0.10000000000E+01 0.  1.
        -13    1    6    6    0    0  0.19426112991E+02  0.11847544871E+02 -0.79914654891E+00  0.22768132238E+02  0.10500000000E+00 0.  1.
         13    1    6    6    0    0  0.29848301245E+02  0.18360552213E+02 -0.11457903614E+01  0.35062156599E+02  0.10500000000E+00 0. -1.
</event>
<event>
11    0  0.3422856E-009  0.9118800E+02  0.7816531E-02  0.1126479E+00
         25   -1    0    0    0    0  0.00000000000E+00  0.00000000000E+00  0.99999998245E-14  0.12500000000E+03  0.12500000000E+03 0.  0.
    3000001    1    3    3    0    0 -0.11851047231E+02  0.22903173355E+02 -0.20136578898E+00  0.25807813126E+02  0.10000000000E+01 0. -1.
    1000022    2    1    0    0    0 -0.26533529634E+02  0.54590452870E+02  0.11050082780E+02  0.62499999849E+02  0.99999956178E+01 0.  0.
    3000022    2    3    3    0    0 -0.14682482403E+02  0.31687279515E+02  0.11251448569E+02  0.36692186723E+02  0.24999805594E+00 0.  0.
    1000022    2    1    0    0    0  0.26533529634E+02 -0.54590452870E+02 -0.11050082780E+02  0.62500000151E+02  0.99999975000E+01 0.  0.
    3000022    2    5    5    0    0  0.22114319845E+02 -0.40368196450E+02 -0.46649133781E+01  0.46265087735E+02  0.24999905206E+00 0.  0.
        -13    1    4    4    0    0 -0.93488443511E+01  0.20094003275E+02  0.70899928093E+01  0.23269054157E+02  0.10500000000E+00 0. -1.
         13    1    4    4    0    0 -0.53336380522E+01  0.11593276240E+02  0.41614557598E+01  0.13423132566E+02  0.10500000000E+00 0.  1.
    3000001    1    5    5    0    0  0.44192097895E+01 -0.14222256420E+02 -0.63851694021E+01  0.16234912415E+02  0.10000000000E+01 0. -1.
        -13    1    6    6    0    0  0.88255775060E+01 -0.16155263289E+02 -0.18061457373E+01  0.18497473818E+02  0.10500000000E+00 0. -1.
         13    1    6    6    0    0  0.13288742339E+02 -0.24212933161E+02 -0.28587676407E+01  0.27767613917E+02  0.10500000000E+00 0.  1.
</event>
<event>
11    0  0.3422856E-009  0.9118800E+02  0.7816531E-02  0.1126479E+00
         25   -1    0    0    0    0  0.00000000000E+00  0.00000000000E+00  0.99999998245E-14  0.12500000000E+03  0.12500000000E+03 0.  0.
    3000001    1    3    3    0    0 -0.43274273875E+01 -0.55071621544E+02  0.13485906365E+01  0.55266887229E+02  0.10000000000E+01 0.  1.
    1000022    2    1    0    0    0 -0.65369127556E+01 -0.61328717919E+02 -0.15188743730E+01  0.62500001135E+02  0.10000014624E+02 0.  0.
    3000022    2    3    3    0    0 -0.22094853681E+01 -0.62570963757E+01 -0.28674650095E+01  0.72331139062E+01  0.25000110413E+00 0.  0.
    1000022    2    1    0    0    0  0.65369127556E+01  0.61328717919E+02  0.15188743730E+01  0.62499998865E+02  0.10000000438E+02 0.  0.
    3000022    2    5    5    0    0  0.36699906401E+01  0.63743570729E+01 -0.86472966450E+00  0.74102304260E+01  0.24999636637E+00 0.  0.
        -13    1    4    4    0    0 -0.11984769570E+01 -0.32436000230E+01 -0.14445183957E+01  0.37489927342E+01  0.10500000000E+00 0. -1.
         13    1    4    4    0    0 -0.10110084111E+01 -0.30134963527E+01 -0.14229466138E+01  0.34841211719E+01  0.10500000000E+00 0.  1.
    3000001    1    5    5    0    0  0.28669221156E+01  0.54954360847E+02  0.23836040375E+01  0.55089768439E+02  0.10000000000E+01 0.  1.
        -13    1    6    6    0    0  0.15926757341E+01  0.28007074255E+01 -0.44303278976E+00  0.32539024463E+01  0.10500000000E+00 0.  1.
         13    1    6    6    0    0  0.20773149060E+01  0.35736496474E+01 -0.42169687473E+00  0.41563279797E+01  0.10500000000E+00 0. -1.
</event>
<event>
11    0  0.3422856E-009  0.9118800E+02  0.7816531E-02  0.1126479E+00
         25   -1    0    0    0    0  0.00000000000E+00  0.00000000000E+00  0.99999998245E-14  0.12500000000E+03  0.12500000000E+03 0.  0.
    3000001    1    3    3    0    0  0.32473410540E+02 -0.30667778009E+02 -0.84877765808E+01  0.45476118473E+02  0.10000000000E+01 0. -1.
    1000022    2    1    0    0    0  0.43005909427E+02 -0.43817904769E+02 -0.60607064927E+01  0.62500000017E+02  0.10000040745E+02 0.  0.
    3000022    2    3    3    0    0  0.10532498887E+02 -0.13150126760E+02  0.24270700881E+01  0.17023881544E+02  0.25001396599E+00 0.  0.
    1000022    2    1    0    0    0 -0.43005909427E+02  0.43817904769E+02  0.60607064927E+01  0.62499999983E+02  0.10000040533E+02 0.  0.
    3000022    2    5    5    0    0 -0.27083440077E+02  0.33945039636E+02  0.49130876669E+01  0.43703310777E+02  0.25000026575E+00 0.  0.
        -13    1    4    4    0    0  0.68348879135E+01 -0.85819929280E+01  0.15323788497E+01  0.11078154420E+02  0.10500000000E+00 0.  1.
         13    1    4    4    0    0  0.36976109738E+01 -0.45681338319E+01  0.89469123841E+00  0.59457271239E+01  0.10500000000E+00 0. -1.
    3000001    1    5    5    0    0 -0.15922469351E+02  0.98728651330E+01  0.11476188259E+01  0.18796689206E+02  0.10000000000E+01 0. -1.
        -13    1    6    6    0    0 -0.18391773000E+02  0.23067664524E+02  0.33879581841E+01  0.29696190772E+02  0.10500000000E+00 0.  1.
         13    1    6    6    0    0 -0.86916670765E+01  0.10877375112E+02  0.15251294828E+01  0.14007120005E+02  0.10500000000E+00 0. -1.
</event>
<event>
11    0  0.3422856E-009  0.9118800E+02  0.7816531E-02  0.1126479E+00
         25   -1    0    0    0    0  0.00000000000E+00  0.00000000000E+00  0.99999998245E-14  0.12500000000E+03  0.12500000000E+03 0.  0.
    3000001    1    3    3    0    0  0.40439800734E+01  0.24006936637E+02 -0.24052923513E+01  0.24484121647E+02  0.10000000000E+01 0. -1.
    1000022    2    1    0    0    0  0.22514917199E+01  0.59729613339E+02 -0.15282474843E+02  0.62499999584E+02  0.99999993051E+01 0.  0.
    3000022    2    3    3    0    0 -0.17924883536E+01  0.35722676702E+02 -0.12877182492E+02  0.38015877938E+02  0.25000231710E+00 0.  0.
    1000022    2    1    0    0    0 -0.22514917199E+01 -0.59729613339E+02  0.15282474843E+02  0.62500000416E+02  0.10000004501E+02 0.  0.
    3000022    2    5    5    0    0 -0.46448618299E+01 -0.23371984815E+02  0.92068610844E+01  0.25547078273E+02  0.25000323194E+00 0.  0.
        -13    1    4    4    0    0 -0.83344299780E+00  0.15495897291E+02 -0.56239395485E+01  0.16506277022E+02  0.10500000000E+00 0.  1.
         13    1    4    4    0    0 -0.95904535578E+00  0.20226779412E+02 -0.72532429434E+01  0.21509600916E+02  0.10500000000E+00 0. -1.
    3000001    1    5    5    0    0  0.23933701100E+01 -0.36357628524E+02  0.60756137587E+01  0.36952922143E+02  0.10000000000E+01 0.  1.
        -13    1    6    6    0    0 -0.17508635643E+01 -0.90527881639E+01  0.35202565500E+01  0.98702445734E+01  0.10500000000E+00 0. -1.
         13    1    6    6    0    0 -0.28939982656E+01 -0.14319196651E+02  0.56866045344E+01  0.15676833699E+02  0.10500000000E+00 0.  1.
</event>
<event>
11    0  0.3422856E-009  0.9118800E+02  0.7816531E-02  0.1126479E+00
         25   -1    0    0    0    0  0.00000000000E+00  0.00000000000E+00  0.99999998245E-14  0.12500000000E+03  0.12500000000E+03 0.  0.
    3000001    1    3    3    0    0  0.11066746419E+02 -0.15183981339E+02 -0.75818835823E+01  0.20285736966E+02  0.10000000000E+01 0.  1.
    1000022    2    1    0    0    0  0.43070292862E+02 -0.36010181417E+02 -0.25582550055E+02  0.62500000959E+02  0.99999979785E+01 0.  0.
    3000022    2    3    3    0    0  0.32003546443E+02 -0.20826200078E+02 -0.18000666473E+02  0.42214263993E+02  0.24999264454E+00 0.  0.
    1000022    2    1    0    0    0 -0.43070292862E+02  0.36010181417E+02  0.25582550055E+02  0.62499999041E+02  0.99999859963E+01 0.  0.
    3000022    2    5    5    0    0 -0.40996952780E+02  0.33921469133E+02  0.21552934004E+02  0.57410867129E+02  0.24998986191E+00 0.  0.
        -13    1    4    4    0    0  0.16294043276E+02 -0.10670995512E+02 -0.91411622334E+01  0.21515990879E+02  0.10500000000E+00 0.  1.
         13    1    4    4    0    0  0.15709503167E+02 -0.10155204566E+02 -0.88595042394E+01  0.20698273114E+02  0.10500000000E+00 0. -1.
    3000001    1    5    5    0    0 -0.20733400817E+01  0.20887122844E+01  0.40296160510E+01  0.50891319122E+01  0.10000000000E+01 0.  1.
        -13    1    6    6    0    0 -0.22863128821E+02  0.18916558625E+02  0.12090889272E+02  0.32043087836E+02  0.10500000000E+00 0.  1.
         13    1    6    6    0    0 -0.18133823959E+02  0.15004910508E+02  0.94620447317E+01  0.25367779293E+02  0.10500000000E+00 0. -1.
</event>
<event>
11    0  0.3422856E-009  0.9118800E+02  0.7816531E-02  0.1126479E+00
         25   -1    0    0    0    0  0.00000000000E+00  0.00000000000E+00  0.99999998245E-14  0.12500000000E+03  0.12500000000E+03 0.  0.
    3000001    1    3    3    0    0  0.25690817735E+02  0.29608165536E+02  0.86642659789E+01  0.40158823280E+02  0.10000000000E+01 0.  1.
    1000022    2    1    0    0    0  0.40836973667E+02  0.45834942246E+02  0.61440801294E+01  0.62499999961E+02  0.99999962746E+01 0.  0.
    3000022    2    3    3    0    0  0.15146155933E+02  0.16226776710E+02 -0.25201858494E+01  0.22341176681E+02  0.25003368629E+00 0.  0.
    1000022    2    1    0    0    0 -0.40836973667E+02 -0.45834942246E+02 -0.61440801294E+01  0.62500000039E+02  0.99999967620E+01 0.  0.
    3000022    2    5    5    0    0 -0.40391757196E+02 -0.43496073530E+02 -0.70215822012E+01  0.59772632359E+02  0.25000114948E+00 0.  0.
        -13    1    4    4    0    0  0.56312807923E+01  0.60622239268E+01 -0.99635250630E+00  0.83346041069E+01  0.10500000000E+00 0.  1.
         13    1    4    4    0    0  0.95148751404E+01  0.10164552784E+02 -0.15238333431E+01  0.14006572575E+02  0.10500000000E+00 0. -1.
    3000001    1    5    5    0    0 -0.44521647102E+00 -0.23388687156E+01  0.87750207176E+00  0.27273676798E+01  0.10000000000E+01 0.  1.
        -13    1    6    6    0    0 -0.23949293484E+02 -0.25705215055E+02 -0.41834991873E+01  0.35381342963E+02  0.10500000000E+00 0. -1.
         13    1    6    6    0    0 -0.16442463712E+02 -0.17790858476E+02 -0.28380830138E+01  0.24391289397E+02  0.10500000000E+00 0.  1.
</event>
<event>
11    0  0.3422856E-009  0.9118800E+02  0.7816531E-02  0.1126479E+00
         25   -1    0    0    0    0  0.00000000000E+00  0.00000000000E+00  0.99999998245E-14  0.12500000000E+03  0.12500000000E+03 0.  0.
    3000001    1    3    3    0    0  0.64851412187E+01 -0.11136506662E+02 -0.80531322302E+01  0.15229306484E+02  0.10000000000E+01 0. -1.
    1000022    2    1    0    0    0  0.13185663142E+02 -0.42007027249E+02 -0.43218027961E+02  0.62499999627E+02  0.99999980892E+01 0.  0.
    3000022    2    3    3    0    0  0.67005219232E+01 -0.30870520587E+02 -0.35164895731E+02  0.47270693144E+02  0.25000632152E+00 0.  0.
    1000022    2    1    0    0    0 -0.13185663142E+02  0.42007027249E+02  0.43218027961E+02  0.62500000373E+02  0.10000002749E+02 0.  0.
    3000022    2    5    5    0    0 -0.86852386385E+01  0.37324770377E+02  0.39080072444E+02  0.54734691236E+02  0.25001720226E+00 0.  0.
        -13    1    4    4    0    0  0.45064872693E+01 -0.20522016397E+02 -0.23414726405E+02  0.31459847777E+02  0.10500000000E+00 0. -1.
         13    1    4    4    0    0  0.21940346539E+01 -0.10348504190E+02 -0.11750169326E+02  0.15810845367E+02  0.10500000000E+00 0.  1.
    3000001    1    5    5    0    0 -0.45004245034E+01  0.46822568723E+01  0.41379555172E+01  0.77653091369E+01  0.10000000000E+01 0. -1.
        -13    1    6    6    0    0 -0.30893371539E+01  0.13126343714E+02  0.13817010731E+02  0.19307141526E+02  0.10500000000E+00 0.  1.
         13    1    6    6    0    0 -0.55959014846E+01  0.24198426663E+02  0.25263061712E+02  0.35427549710E+02  0.10500000000E+00 0. -1.
</event>
<event>
11    0  0.3422856E-009  0.9118800E+02  0.7816531E-02  0.1126479E+00
         25   -1    0    0    0    0  0.00000000000E+00  0.00000000000E+00  0.99999998245E-14  0.12500000000E+03  0.12500000000E+03 0.  0.
    3000001    1    3    3    0    0  0.35021482249E+02  0.16838740684E+02  0.33777775187E+02  0.51497432007E+02  0.10000000000E+01 0.  1.
    1000022    2    1    0    0    0  0.44010074052E+02  0.22259945574E+02  0.37065594130E+02  0.62499999779E+02  0.99999954545E+01 0.  0.
    3000022    2    3    3    0    0  0.89885918035E+01  0.54212048903E+01  0.32878189433E+01  0.11002567772E+02  0.24999820621E+00 0.  0.
    1000022    2    1    0    0    0 -0.44010074052E+02 -0.22259945574E+02 -0.37065594130E+02  0.62500000221E+02  0.99999982200E+01 0.  0.
    3000022    2    5    5    0    0 -0.43488065632E+02 -0.20149893257E+02 -0.35272131418E+02  0.59509795869E+02  0.24999772167E+00 0.  0.
        -13    1    4    4    0    0  0.42327191271E+01  0.24763655083E+01  0.15195565447E+01  0.51350145503E+01  0.10500000000E+00 0.  1.
         13    1    4    4    0    0  0.47558726764E+01  0.29448393820E+01  0.17682623986E+01  0.58675532218E+01  0.10500000000E+00 0. -1.
    3000001    1    5    5    0    0 -0.52200842010E+00 -0.21100523169E+01 -0.17934627122E+01  0.29902043527E+01  0.10000000000E+01 0. -1.
        -13    1    6    6    0    0 -0.18319652056E+02 -0.84403272556E+01 -0.14784136168E+02  0.25008608175E+02  0.10500000000E+00 0.  1.
         13    1    6    6    0    0 -0.25168413576E+02 -0.11709566001E+02 -0.20487995250E+02  0.34501187693E+02  0.10500000000E+00 0. -1.
</event>
<event>
11    0  0.3422856E-009  0.9118800E+02  0.7816531E-02  0.1126479E+00
         25   -1    0    0    0    0  0.00000000000E+00  0.00000000000E+00  0.99999998245E-14  0.12500000000E+03  0.12500000000E+03 0.  0.
    3000001    1    3    3    0    0  0.68532806437E+00 -0.15666706509E+01 -0.10887906464E+01  0.22604416727E+01  0.10000000000E+01 0. -1.
    1000022    2    1    0    0    0 -0.22979939010E+02 -0.38674923657E+02 -0.42218754999E+02  0.62499994890E+02  0.99999385425E+01 0.  0.
    3000022    2    3    3    0    0 -0.23665267074E+02 -0.37108253006E+02 -0.41129964353E+02  0.60239553218E+02  0.24999469684E+00 0.  0.
    1000022    2    1    0    0    0  0.22979939010E+02  0.38674923657E+02  0.42218754999E+02  0.62500005110E+02  0.10000002413E+02 0.  0.
    3000022    2    5    5    0    0  0.85667863229E+01  0.66366856717E+01  0.11749466726E+02  0.15985865415E+02  0.25000028269E+00 0.  0.
        -13    1    4    4    0    0 -0.17098922397E+02 -0.26830605414E+02 -0.29783256253E+02  0.43581049918E+02  0.10500000000E+00 0.  1.
         13    1    4    4    0    0 -0.65663446773E+01 -0.10277647593E+02 -0.11346708100E+02  0.16658503299E+02  0.10500000000E+00 0. -1.
    3000001    1    5    5    0    0  0.14413152687E+02  0.32038237985E+02  0.30469288274E+02  0.46514139694E+02  0.10000000000E+01 0.  1.
        -13    1    6    6    0    0  0.21182759055E+01  0.16482000100E+01  0.29474256229E+01  0.39877310449E+01  0.10500000000E+00 0.  1.
         13    1    6    6    0    0  0.64485104174E+01  0.49884856617E+01  0.88020411027E+01  0.11998134371E+02  0.10500000000E+00 0. -1.
</event>
<event>
11    0  0.3422856E-009  0.9118800E+02  0.7816531E-02  0.1126479E+00
         25   -1    0    0    0    0  0.00000000000E+00  0.00000000000E+00  0.99999998245E-14  0.12500000000E+03  0.12500000000E+03 0.  0.
    3000001    1    3    3    0    0 -0.17905944918E+02 -0.10235981230E+02 -0.14473425420E+02  0.25216625836E+02  0.10000000000E+01 0.  1.
    1000022    2    1    0    0    0 -0.44228387633E+02 -0.33468904969E+02 -0.27017250425E+02  0.62499997214E+02  0.99999979333E+01 0.  0.
    3000022    2    3    3    0    0 -0.26322442715E+02 -0.23232923738E+02 -0.12543825005E+02  0.37283371378E+02  0.24999914144E+00 0.  0.
    1000022    2    1    0    0    0  0.44228387633E+02  0.33468904969E+02  0.27017250425E+02  0.62500002786E+02  0.10000032764E+02 0.  0.
    3000022    2    5    5    0    0  0.18432246637E+02  0.19930019214E+02  0.11583001992E+02  0.29515789252E+02  0.24999612867E+00 0.  0.
        -13    1    4    4    0    0 -0.69980918658E+01 -0.62208231512E+01 -0.33346384893E+01  0.99399582140E+01  0.10500000000E+00 0.  1.
         13    1    4    4    0    0 -0.19324350850E+02 -0.17012100587E+02 -0.92091865161E+01  0.27343413164E+02  0.10500000000E+00 0. -1.
    3000001    1    5    5    0    0  0.25796140996E+02  0.13538885755E+02  0.15434248433E+02  0.32984213535E+02  0.10000000000E+01 0.  1.
        -13    1    6    6    0    0  0.89041106827E+01  0.96232469865E+01  0.55205514005E+01  0.14225947504E+02  0.10500000000E+00 0. -1.
         13    1    6    6    0    0  0.95281359544E+01  0.10306772227E+02  0.60624505917E+01  0.15289841748E+02  0.10500000000E+00 0.  1.
</event>
<event>
11    0  0.3422856E-009  0.9118800E+02  0.7816531E-02  0.1126479E+00
         25   -1    0    0    0    0  0.00000000000E+00  0.00000000000E+00  0.99999998245E-14  0.12500000000E+03  0.12500000000E+03 0.  0.
    3000001    1    3    3    0    0  0.85226387189E+01 -0.29572879018E+02 -0.33398721201E+02  0.45427581072E+02  0.10000000000E+01 0. -1.
    1000022    2    1    0    0    0  0.17006267284E+02 -0.37675166060E+02 -0.45799766706E+02  0.62499998502E+02  0.99999958885E+01 0.  0.
    3000022    2    3    3    0    0  0.84836285647E+01 -0.81022870420E+01 -0.12401045505E+02  0.17072417430E+02  0.24999669183E+00 0.  0.
    1000022    2    1    0    0    0 -0.17006267284E+02  0.37675166060E+02  0.45799766706E+02  0.62500001498E+02  0.10000014619E+02 0.  0.
    3000022    2    5    5    0    0 -0.12724782896E+01  0.12738999871E+02  0.11028079236E+02  0.16899181880E+02  0.24999574804E+00 0.  0.
        -13    1    4    4    0    0  0.39475080022E+01 -0.38336512079E+01 -0.58885694811E+01  0.80601474270E+01  0.10500000000E+00 0. -1.
         13    1    4    4    0    0  0.45361205625E+01 -0.42686358340E+01 -0.65124760242E+01  0.90122700030E+01  0.10500000000E+00 0.  1.
    3000001    1    5    5    0    0 -0.15733788994E+02  0.24936166189E+02  0.34771687471E+02  0.45600819618E+02  0.10000000000E+01 0. -1.
        -13    1    6    6    0    0 -0.64382726658E+00  0.60064500627E+01  0.51357369200E+01  0.79296137747E+01  0.10500000000E+00 0. -1.
         13    1    6    6    0    0 -0.62865102298E+00  0.67325498086E+01  0.58923423156E+01  0.89695681054E+01  0.10500000000E+00 0.  1.
</event>
<event>
11    0  0.3422856E-009  0.9118800E+02  0.7816531E-02  0.1126479E+00
         25   -1    0    0    0    0  0.00000000000E+00  0.00000000000E+00  0.99999998245E-14  0.12500000000E+03  0.12500000000E+03 0.  0.
    3000001    1    3    3    0    0 -0.17933319269E+02  0.11350356696E+02 -0.32073542046E+02  0.38472673893E+02  0.10000000000E+01 0.  1.
    1000022    2    1    0    0    0 -0.30836206147E+02  0.10798033522E+02 -0.52333362543E+02  0.62499999485E+02  0.99999981592E+01 0.  0.
    3000022    2    3    3    0    0 -0.12902886878E+02 -0.55232317362E+00 -0.20259820496E+02  0.24027325592E+02  0.24999576646E+00 0.  0.
    1000022    2    1    0    0    0  0.30836206147E+02 -0.10798033522E+02  0.52333362543E+02  0.62500000515E+02  0.10000004593E+02 0.  0.
    3000022    2    5    5    0    0  0.80022556146E+01 -0.60711074949E+01  0.10100241707E+02  0.14246818008E+02  0.24999931956E+00 0.  0.
        -13    1    4    4    0    0 -0.67352748383E+01 -0.25319459637E+00 -0.10680532879E+02  0.12629839359E+02  0.10500000000E+00 0.  1.
         13    1    4    4    0    0 -0.61676120395E+01 -0.29912857725E+00 -0.95792876174E+01  0.11397486233E+02  0.10500000000E+00 0. -1.
    3000001    1    5    5    0    0  0.22833950532E+02 -0.47269260272E+01  0.42233120835E+02  0.48253182507E+02  0.10000000000E+01 0.  1.
        -13    1    6    6    0    0  0.39556163950E+01 -0.30836138749E+01  0.50662089385E+01  0.71297316641E+01  0.10500000000E+00 0. -1.
         13    1    6    6    0    0  0.40466392197E+01 -0.29874936200E+01  0.50340327686E+01  0.71170863434E+01  0.10500000000E+00 0.  1.
</event>
<event>
11    0  0.3422856E-009  0.9118800E+02  0.7816531E-02  0.1126479E+00
         25   -1    0    0    0    0  0.00000000000E+00  0.00000000000E+00  0.99999998245E-14  0.12500000000E+03  0.12500000000E+03 0.  0.
    3000001    1    3    3    0    0  0.18076933706E+02  0.35394569197E+01  0.10478859788E+02  0.21215791052E+02  0.10000000000E+01 0. -1.
    1000022    2    1    0    0    0  0.48600223367E+02 -0.35076881634E+00  0.38001909494E+02  0.62499999052E+02  0.10000000312E+02 0.  0.
    3000022    2    3    3    0    0  0.30523289661E+02 -0.38902257360E+01  0.27523049706E+02  0.41284208000E+02  0.24999419026E+00 0.  0.
    1000022    2    1    0    0    0 -0.48600223367E+02  0.35076881634E+00 -0.38001909494E+02  0.62500000948E+02  0.10000012159E+02 0.  0.
    3000022    2    5    5    0    0 -0.31698374234E+01  0.22938333419E+01 -0.15637546865E+01  0.42210631355E+01  0.25000916656E+00 0.  0.
        -13    1    4    4    0    0  0.71599161123E+01 -0.91505332312E+00  0.64383848221E+01  0.96729284830E+01  0.10500000000E+00 0. -1.
         13    1    4    4    0    0  0.23363373549E+02 -0.29751724129E+01  0.21084664884E+02  0.31611279517E+02  0.10500000000E+00 0.  1.
    3000001    1    5    5    0    0 -0.45430385944E+02 -0.19430645255E+01 -0.36438154808E+02  0.58278937812E+02  0.10000000000E+01 0.  1.
        -13    1    6    6    0    0 -0.15662721433E+01  0.10999178253E+01 -0.69803574961E+00  0.20399280764E+01  0.10500000000E+00 0.  1.
         13    1    6    6    0    0 -0.16035652801E+01  0.11939155166E+01 -0.86571893688E+00  0.21811350591E+01  0.10500000000E+00 0. -1.
</event>
<event>
11    0  0.3422856E-009  0.9118800E+02  0.7816531E-02  0.1126479E+00
         25   -1    0    0    0    0  0.00000000000E+00  0.00000000000E+00  0.99999998245E-14  0.12500000000E+03  0.12500000000E+03 0.  0.
    3000001    1    3    3    0    0 -0.83810899251E+01 -0.29937733774E+01  0.22289993405E+01  0.92289644829E+01  0.10000000000E+01 0. -1.
    1000022    2    1    0    0    0 -0.43821690340E+02 -0.29199742462E+02  0.32144742766E+02  0.62499999583E+02  0.99999978158E+01 0.  0.
    3000022    2    3    3    0    0 -0.35440600415E+02 -0.26205969085E+02  0.29915743426E+02  0.53271035100E+02  0.25000504931E+00 0.  0.
    1000022    2    1    0    0    0  0.43821690340E+02  0.29199742462E+02 -0.32144742766E+02  0.62500000417E+02  0.10000003023E+02 0.  0.
    3000022    2    5    5    0    0  0.53194574615E+01  0.40315438058E+00 -0.47911950147E+01  0.71747620858E+01  0.25000036040E+00 0.  0.
        -13    1    4    4    0    0 -0.10731096718E+02 -0.79930751471E+01  0.90841807848E+01  0.16173405721E+02  0.10500000000E+00 0. -1.
         13    1    4    4    0    0 -0.24709503697E+02 -0.18212893938E+02  0.20831562641E+02  0.37097629380E+02  0.10500000000E+00 0.  1.
    3000001    1    5    5    0    0  0.38502232878E+02  0.28796588082E+02 -0.27353547752E+02  0.55325238331E+02  0.10000000000E+01 0.  1.
        -13    1    6    6    0    0  0.29789918760E+01  0.28945348423E+00 -0.27114872580E+01  0.40399708002E+01  0.10500000000E+00 0.  1.
         13    1    6    6    0    0  0.23404655855E+01  0.11370089635E+00 -0.20797077567E+01  0.31347912856E+01  0.10500000000E+00 0. -1.
</event>
<event>
11    0  0.3422856E-009  0.9118800E+02  0.7816531E-02  0.1126479E+00
         25   -1    0    0    0    0  0.00000000000E+00  0.00000000000E+00  0.99999998245E-14  0.12500000000E+03  0.12500000000E+03 0.  0.
    3000001    1    3    3    0    0  0.35102216129E+01  0.13817733283E+01  0.12279540193E+02  0.12884799597E+02  0.10000000000E+01 0.  1.
    1000022    2    1    0    0    0  0.33481834716E+02  0.10768792862E+02  0.50687768449E+02  0.62500001168E+02  0.10000005997E+02 0.  0.
    3000022    2    3    3    0    0  0.29971613103E+02  0.93870195341E+01  0.38408228256E+02  0.49615201570E+02  0.25000275692E+00 0.  0.
    1000022    2    1    0    0    0 -0.33481834716E+02 -0.10768792862E+02 -0.50687768449E+02  0.62499998832E+02  0.99999914017E+01 0.  0.
    3000022    2    5    5    0    0 -0.16547642309E+02 -0.89070026872E+01 -0.32620161761E+02  0.37647000088E+02  0.24999895507E+00 0.  0.
        -13    1    4    4    0    0  0.85133118615E+01  0.26788339639E+01  0.10852658698E+02  0.14051471669E+02  0.10500000000E+00 0. -1.
         13    1    4    4    0    0  0.21458301242E+02  0.67081855703E+01  0.27555569558E+02  0.35563729901E+02  0.10500000000E+00 0.  1.
    3000001    1    5    5    0    0 -0.16934192407E+02 -0.18617901752E+01 -0.18067606688E+02  0.24852998744E+02  0.10000000000E+01 0.  1.
        -13    1    6    6    0    0 -0.10443305412E+02 -0.55718461652E+01 -0.20463913840E+02  0.23640873339E+02  0.10500000000E+00 0. -1.
         13    1    6    6    0    0 -0.61043368972E+01 -0.33351565220E+01 -0.12156247921E+02  0.14006126749E+02  0.10500000000E+00 0.  1.
</event>
<event>
11    0  0.3422856E-009  0.9118800E+02  0.7816531E-02  0.1126479E+00
         25   -1    0    0    0    0  0.00000000000E+00  0.00000000000E+00  0.99999998245E-14  0.12500000000E+03  0.12500000000E+03 0.  0.
    3000001    1    3    3    0    0  0.60611991205E+02  0.23062725881E+01 -0.10455447073E+02  0.61558498557E+02  0.10000000000E+01 0.  1.
    1000022    2    1    0    0    0  0.60658540343E+02  0.17016284221E+01 -0.11130832117E+02  0.62499995649E+02  0.99999988330E+01 0.  0.
    3000022    2    3    3    0    0  0.46549138572E-01 -0.60464416602E+00 -0.67538504454E+00  0.94149709259E+00  0.25002085342E+00 0.  0.
    1000022    2    1    0    0    0 -0.60658540343E+02 -0.17016284221E+01  0.11130832117E+02  0.62500004351E+02  0.10000053217E+02 0.  0.
    3000022    2    5    5    0    0 -0.20885431846E+02 -0.31266632660E+01  0.79336392359E+01  0.22560638731E+02  0.25000363212E+00 0.  0.
        -13    1    4    4    0    0 -0.19090410470E-01 -0.33737517955E+00 -0.43873416028E+00  0.56364804528E+00  0.10500000000E+00 0.  1.
         13    1    4    4    0    0  0.65639549042E-01 -0.26726898647E+00 -0.23665088427E+00  0.37784904731E+00  0.10500000000E+00 0. -1.
    3000001    1    5    5    0    0 -0.39773108497E+02  0.14250348439E+01  0.31971928815E+01  0.39939365620E+02  0.10000000000E+01 0.  1.
        -13    1    6    6    0    0 -0.56819845429E+01 -0.87067762012E+00  0.21265865186E+01  0.61299610998E+01  0.10500000000E+00 0. -1.
         13    1    6    6    0    0 -0.15203447304E+02 -0.22559856459E+01  0.58070527173E+01  0.16430677631E+02  0.10500000000E+00 0.  1.
</event>
<event>
11    0  0.3422856E-009  0.9118800E+02  0.7816531E-02  0.1126479E+00
         25   -1    0    0    0    0  0.00000000000E+00  0.00000000000E+00  0.99999998245E-14  0.12500000000E+03  0.12500000000E+03 0.  0.
    3000001    1    3    3    0    0  0.43667807959E+00  0.19089654129E+01  0.73579533932E+00  0.23186701952E+01  0.10000000000E+01 0. -1.
    1000022    2    1    0    0    0  0.48057148656E+02  0.38684457512E+02 -0.52279769883E+00  0.62500001139E+02  0.10000001749E+02 0.  0.
    3000022    2    3    3    0    0  0.47620470576E+02  0.36775492099E+02 -0.12585930381E+01  0.60181330944E+02  0.25000132719E+00 0.  0.
    1000022    2    1    0    0    0 -0.48057148656E+02 -0.38684457512E+02  0.52279769883E+00  0.62499998861E+02  0.99999875126E+01 0.  0.
    3000022    2    5    5    0    0 -0.71161974936E+01 -0.68608189996E+01  0.36531811201E+01  0.10541315750E+02  0.25000267107E+00 0.  0.
        -13    1    4    4    0    0  0.19861215213E+02  0.15263215747E+02 -0.49841370466E+00  0.25053803422E+02  0.10500000000E+00 0. -1.
         13    1    4    4    0    0  0.27759255363E+02  0.21512276352E+02 -0.76017933349E+00  0.35127527522E+02  0.10500000000E+00 0.  1.
    3000001    1    5    5    0    0 -0.40940951162E+02 -0.31823638513E+02 -0.31303834212E+01  0.51958683111E+02  0.10000000000E+01 0.  1.
        -13    1    6    6    0    0 -0.40809008632E+01 -0.39546736669E+01  0.21677337956E+01  0.60830329997E+01  0.10500000000E+00 0. -1.
         13    1    6    6    0    0 -0.30352966304E+01 -0.29061453327E+01  0.14854473245E+01  0.44582827505E+01  0.10500000000E+00 0.  1.
</event>
<event>
11    0  0.3422856E-009  0.9118800E+02  0.7816531E-02  0.1126479E+00
         25   -1    0    0    0    0  0.00000000000E+00  0.00000000000E+00  0.99999998245E-14  0.12500000000E+03  0.12500000000E+03 0.  0.
    3000001    1    3    3    0    0 -0.17168929566E+02 -0.12724793627E+02 -0.94232577658E+01  0.23377132036E+02  0.10000000000E+01 0.  1.
    1000022    2    1    0    0    0 -0.35951233321E+02 -0.39183892860E+02 -0.31279091108E+02  0.62500000271E+02  0.99999928147E+01 0.  0.
    3000022    2    3    3    0    0 -0.18782303755E+02 -0.26459099233E+02 -0.21855833343E+02  0.39122868235E+02  0.25000251635E+00 0.  0.
    1000022    2    1    0    0    0  0.35951233321E+02  0.39183892860E+02  0.31279091108E+02  0.62499999729E+02  0.99999894300E+01 0.  0.
    3000022    2    5    5    0    0  0.26475852077E+02  0.33995705102E+02  0.22935801432E+02  0.48813852552E+02  0.25001007464E+00 0.  0.
        -13    1    4    4    0    0 -0.73757931045E+01 -0.10294241363E+02 -0.84971332795E+01  0.15250771394E+02  0.10500000000E+00 0. -1.
         13    1    4    4    0    0 -0.11406510650E+02 -0.16164857871E+02 -0.13358700063E+02  0.23872096841E+02  0.10500000000E+00 0.  1.
    3000001    1    5    5    0    0  0.94753812444E+01  0.51881877580E+01  0.83432896763E+01  0.13686147177E+02  0.10000000000E+01 0. -1.
        -13    1    6    6    0    0  0.16168505636E+02  0.20718851170E+02  0.13925036011E+02  0.29742377531E+02  0.10500000000E+00 0. -1.
         13    1    6    6    0    0  0.10307346441E+02  0.13276853932E+02  0.90107654215E+01  0.19071475021E+02  0.10500000000E+00 0.  1.
</event>
<event>
11    0  0.3422856E-009  0.9118800E+02  0.7816531E-02  0.1126479E+00
         25   -1    0    0    0    0  0.00000000000E+00  0.00000000000E+00  0.99999998245E-14  0.12500000000E+03  0.12500000000E+03 0.  0.
    3000001    1    3    3    0    0  0.76153728759E+00 -0.10479162354E+02  0.35412271735E+02  0.36951613931E+02  0.10000000000E+01 0. -1.
    1000022    2    1    0    0    0 -0.37246985684E+01 -0.23538019930E+02  0.56906399286E+02  0.62500001350E+02  0.10000006373E+02 0.  0.
    3000022    2    3    3    0    0 -0.44862358560E+01 -0.13058857577E+02  0.21494127551E+02  0.25548387419E+02  0.25001439038E+00 0.  0.
    1000022    2    1    0    0    0  0.37246985684E+01  0.23538019930E+02 -0.56906399286E+02  0.62499998650E+02  0.99999894922E+01 0.  0.
    3000022    2    5    5    0    0  0.54315659679E+01  0.56794132304E+01 -0.16401699528E+02  0.18188894714E+02  0.24999995138E+00 0.  0.
        -13    1    4    4    0    0 -0.24537045859E+01 -0.72529565925E+01  0.11814921453E+02  0.14079397695E+02  0.10500000000E+00 0. -1.
         13    1    4    4    0    0 -0.20325312701E+01 -0.58059009844E+01  0.96792060977E+01  0.11468989724E+02  0.10500000000E+00 0.  1.
    3000001    1    5    5    0    0 -0.17068673995E+01  0.17858606700E+02 -0.40504699757E+02  0.44311103936E+02  0.10000000000E+01 0.  1.
        -13    1    6    6    0    0  0.38039160580E+01  0.39842430233E+01 -0.11388620023E+02  0.12651310639E+02  0.10500000000E+00 0. -1.
         13    1    6    6    0    0  0.16276499100E+01  0.16951702071E+01 -0.50130795052E+01  0.55375840749E+01  0.10500000000E+00 0.  1.
</event>
<event>
11    0  0.3422856E-009  0.9118800E+02  0.7816531E-02  0.1126479E+00
         25   -1    0    0    0    0  0.00000000000E+00  0.00000000000E+00  0.99999998245E-14  0.12500000000E+03  0.12500000000E+03 0.  0.
    3000001    1    3    3    0    0 -0.12505484135E+02 -0.20254908575E+01 -0.91843881648E+01  0.15679372839E+02  0.10000000000E+01 0.  1.
    1000022    2    1    0    0    0 -0.46422630545E+02 -0.24171984545E+02 -0.32663501708E+02  0.62500001581E+02  0.10000019514E+02 0.  0.
    3000022    2    3    3    0    0 -0.33917146411E+02 -0.22146493687E+02 -0.23479113543E+02  0.46820628742E+02  0.24999961630E+00 0.  0.
    1000022    2    1    0    0    0  0.46422630545E+02  0.24171984545E+02  0.32663501708E+02  0.62499998419E+02  0.99999997475E+01 0.  0.
    3000022    2    5    5    0    0  0.24979649013E+02  0.15167661344E+02  0.12826281549E+02  0.31915777047E+02  0.25002131678E+00 0.  0.
        -13    1    4    4    0    0 -0.13848239536E+02 -0.90480293675E+01 -0.96618992120E+01  0.19157345721E+02  0.10500000000E+00 0. -1.
         13    1    4    4    0    0 -0.20068906874E+02 -0.13098464320E+02 -0.13817214331E+02  0.27663283021E+02  0.10500000000E+00 0.  1.
    3000001    1    5    5    0    0  0.21442981532E+02  0.90043232006E+01  0.19837220159E+02  0.30584221372E+02  0.10000000000E+01 0. -1.
        -13    1    6    6    0    0  0.12821772919E+02  0.77144692841E+01  0.65343176605E+01  0.16328479090E+02  0.10500000000E+00 0.  1.
         13    1    6    6    0    0  0.12157876094E+02  0.74531920601E+01  0.62919638880E+01  0.15587297956E+02  0.10500000000E+00 0. -1.
</event>
<event>
11    0  0.3422856E-009  0.9118800E+02  0.7816531E-02  0.1126479E+00
         25   -1    0    0    0    0  0.00000000000E+00  0.00000000000E+00  0.99999998245E-14  0.12500000000E+03  0.12500000000E+03 0.  0.
    3000001    1    3    3    0    0 -0.32653970329E+00  0.14096009321E+01 -0.49086218030E+00  0.18260746550E+01  0.10000000000E+01 0. -1.
    1000022    2    1    0    0    0 -0.51871548787E+02  0.33392967545E+02  0.70880690459E+00  0.62500001547E+02  0.99999965603E+01 0.  0.
    3000022    2    3    3    0    0 -0.51545009084E+02  0.31983366613E+02  0.11996690849E+01  0.60673926892E+02  0.24999465133E+00 0.  0.
    1000022    2    1    0    0    0  0.51871548787E+02 -0.33392967545E+02 -0.70880690459E+00  0.62499998453E+02  0.99999772168E+01 0.  0.
    3000022    2    5    5    0    0  0.24215042784E+02 -0.10221145146E+02  0.15840058000E+01  0.26332711193E+02  0.24999860851E+00 0.  0.
        -13    1    4    4    0    0 -0.29364456832E+02  0.18146440268E+02  0.70123091992E+00  0.34526328638E+02  0.10500000000E+00 0. -1.
         13    1    4    4    0    0 -0.22180552252E+02  0.13836926345E+02  0.49843816497E+00  0.26147598254E+02  0.10500000000E+00 0.  1.
    3000001    1    5    5    0    0  0.27656506003E+02 -0.23171822399E+02 -0.22928127046E+01  0.36167287259E+02  0.10000000000E+01 0.  1.
        -13    1    6    6    0    0  0.10235609010E+02 -0.43817194216E+01  0.63857182023E+00  0.11152845192E+02  0.10500000000E+00 0.  1.
         13    1    6    6    0    0  0.13979433773E+02 -0.58394257240E+01  0.94543397976E+00  0.15179866002E+02  0.10500000000E+00 0. -1.
</event>
<event>
11    0  0.3422856E-009  0.9118800E+02  0.7816531E-02  0.1126479E+00
         25   -1    0    0    0    0  0.00000000000E+00  0.00000000000E+00  0.99999998245E-14  0.12500000000E+03  0.12500000000E+03 0.  0.
    3000001    1    3    3    0    0  0.32231386615E+02 -0.18032043550E+02  0.37245073376E+02  0.52461532274E+02  0.10000000000E+01 0. -1.
    1000022    2    1    0    0    0  0.39774873337E+02 -0.17402118932E+02  0.43833498394E+02  0.62500000365E+02  0.10000008593E+02 0.  0.
    3000022    2    3    3    0    0  0.75434867216E+01  0.62992461828E+00  0.65884250183E+01  0.10038468091E+02  0.25000090405E+00 0.  0.
    1000022    2    1    0    0    0 -0.39774873337E+02  0.17402118932E+02 -0.43833498394E+02  0.62499999635E+02  0.10000004032E+02 0.  0.
    3000022    2    5    5    0    0 -0.19969027152E+02  0.13862304155E+02 -0.26015230339E+02  0.35605901616E+02  0.24999690193E+00 0.  0.
        -13    1    4    4    0    0  0.38756520017E+01  0.32131172710E+00  0.34744248811E+01  0.52159920359E+01  0.10500000000E+00 0. -1.
         13    1    4    4    0    0  0.36678347199E+01  0.30861289117E+00  0.31140001372E+01  0.48224760552E+01  0.10500000000E+00 0.  1.
    3000001    1    5    5    0    0 -0.19805846185E+02  0.35398147769E+01 -0.17818268056E+02  0.26894098019E+02  0.10000000000E+01 0. -1.
        -13    1    6    6    0    0 -0.80419004627E+01  0.55166892926E+01 -0.10484478367E+02  0.14319264486E+02  0.10500000000E+00 0. -1.
         13    1    6    6    0    0 -0.11927126689E+02  0.83456148620E+01 -0.15530751972E+02  0.21286637130E+02  0.10500000000E+00 0.  1.
</event>
<event>
11    0  0.3422856E-009  0.9118800E+02  0.7816531E-02  0.1126479E+00
         25   -1    0    0    0    0  0.00000000000E+00  0.00000000000E+00  0.99999998245E-14  0.12500000000E+03  0.12500000000E+03 0.  0.
    3000001    1    3    3    0    0 -0.52227418084E+01 -0.71661780060E+01  0.73256725724E+01  0.11545415447E+02  0.10000000000E+01 0. -1.
    1000022    2    1    0    0    0 -0.91786499842E+01 -0.39017006325E+02  0.46900699539E+02  0.62500000432E+02  0.10000001931E+02 0.  0.
    3000022    2    3    3    0    0 -0.39559081758E+01 -0.31850828319E+02  0.39575026967E+02  0.50954584984E+02  0.24999488489E+00 0.  0.
    1000022    2    1    0    0    0  0.91786499842E+01  0.39017006325E+02 -0.46900699539E+02  0.62499999568E+02  0.99999965357E+01 0.  0.
    3000022    2    5    5    0    0  0.11068803512E+02  0.35579152404E+02 -0.42334759841E+02  0.56397596331E+02  0.24996841779E+00 0.  0.
        -13    1    4    4    0    0 -0.23777971300E+01 -0.18956144920E+02  0.23462748029E+02  0.30257245735E+02  0.10500000000E+00 0.  1.
         13    1    4    4    0    0 -0.15781110458E+01 -0.12894683399E+02  0.16112278937E+02  0.20697339249E+02  0.10500000000E+00 0. -1.
    3000001    1    5    5    0    0 -0.18901535277E+01  0.34378539213E+01 -0.45659396981E+01  0.61024032372E+01  0.10000000000E+01 0. -1.
        -13    1    6    6    0    0  0.32313262462E+01  0.10485172211E+02 -0.12516291217E+02  0.16644785263E+02  0.10500000000E+00 0. -1.
         13    1    6    6    0    0  0.78374772657E+01  0.25093980192E+02 -0.29818468624E+02  0.39752811068E+02  0.10500000000E+00 0.  1.
</event>
<event>
11    0  0.3422856E-009  0.9118800E+02  0.7816531E-02  0.1126479E+00
         25   -1    0    0    0    0  0.00000000000E+00  0.00000000000E+00  0.99999998245E-14  0.12500000000E+03  0.12500000000E+03 0.  0.
    3000001    1    3    3    0    0 -0.47889201457E+01  0.27691188211E+01 -0.94024594202E+00  0.56996348689E+01  0.10000000000E+01 0.  1.
    1000022    2    1    0    0    0 -0.51808483519E+02  0.99596909155E+01 -0.31983365605E+02  0.62499999708E+02  0.99999940191E+01 0.  0.
    3000022    2    3    3    0    0 -0.47019563373E+02  0.71905720944E+01 -0.31043119663E+02  0.56800364839E+02  0.25000112838E+00 0.  0.
    1000022    2    1    0    0    0  0.51808483519E+02 -0.99596909155E+01  0.31983365605E+02  0.62500000292E+02  0.99999976726E+01 0.  0.
    3000022    2    5    5    0    0  0.37301107099E+02 -0.11527938872E+02  0.24153978260E+02  0.45910163692E+02  0.24999787249E+00 0.  0.
        -13    1    4    4    0    0 -0.33939659448E+02  0.51528856769E+01 -0.22388533836E+02  0.40984267549E+02  0.10500000000E+00 0.  1.
         13    1    4    4    0    0 -0.13079903926E+02  0.20376864175E+01 -0.86545858265E+01  0.15816097289E+02  0.10500000000E+00 0. -1.
    3000001    1    5    5    0    0  0.14507376420E+02  0.15682479569E+01  0.78293873445E+01  0.16589836600E+02  0.10000000000E+01 0.  1.
        -13    1    6    6    0    0  0.10196825940E+02 -0.31600130527E+01  0.65618981745E+01  0.12531180088E+02  0.10500000000E+00 0. -1.
         13    1    6    6    0    0  0.27104281159E+02 -0.83679258197E+01  0.17592080086E+02  0.33378983604E+02  0.10500000000E+00 0.  1.
</event>
<event>
11    0  0.3422856E-009  0.9118800E+02  0.7816531E-02  0.1126479E+00
         25   -1    0    0    0    0  0.00000000000E+00  0.00000000000E+00  0.99999998245E-14  0.12500000000E+03  0.12500000000E+03 0.  0.
    3000001    1    3    3    0    0  0.83693257819E+01 -0.16364503415E+02 -0.10137009824E+01  0.18435568224E+02  0.10000000000E+01 0.  1.
    1000022    2    1    0    0    0  0.17654305709E+02 -0.57428432712E+02 -0.14019644205E+02  0.62500000602E+02  0.10000012889E+02 0.  0.
    3000022    2    3    3    0    0  0.92849799272E+01 -0.41063929297E+02 -0.13005943223E+02  0.44064432378E+02  0.25000022065E+00 0.  0.
    1000022    2    1    0    0    0 -0.17654305709E+02  0.57428432712E+02  0.14019644205E+02  0.62499999398E+02  0.10000005367E+02 0.  0.
    3000022    2    5    5    0    0  0.23835278837E+00  0.69882443234E+01 -0.56522342253E+00  0.70195686458E+01  0.24999136121E+00 0.  0.
        -13    1    4    4    0    0  0.35770026065E+01 -0.16030850343E+02 -0.51170250564E+01  0.17204013508E+02  0.10500000000E+00 0. -1.
         13    1    4    4    0    0  0.57079773206E+01 -0.25033078954E+02 -0.78889181665E+01  0.26860418869E+02  0.10500000000E+00 0.  1.
    3000001    1    5    5    0    0 -0.17892658497E+02  0.50440188388E+02  0.14584867628E+02  0.55480430752E+02  0.10000000000E+01 0. -1.
        -13    1    6    6    0    0  0.20965237233E+00  0.44011686217E+01 -0.35464493313E+00  0.44216555024E+01  0.10500000000E+00 0.  1.
         13    1    6    6    0    0  0.28700416036E-01  0.25870757017E+01 -0.21057848940E+00  0.25979131434E+01  0.10500000000E+00 0. -1.
</event>
<event>
11    0  0.3422856E-009  0.9118800E+02  0.7816531E-02  0.1126479E+00
         25   -1    0    0    0    0  0.00000000000E+00  0.00000000000E+00  0.99999998245E-14  0.12500000000E+03  0.12500000000E+03 0.  0.
    3000001    1    3    3    0    0  0.25663834530E+02  0.20121478626E+02  0.16004724212E+02  0.36340851695E+02  0.10000000000E+01 0. -1.
    1000022    2    1    0    0    0  0.41952945585E+02  0.39877000415E+02  0.21354746182E+02  0.62499999559E+02  0.99999977525E+01 0.  0.
    3000022    2    3    3    0    0  0.16289111056E+02  0.19755521789E+02  0.53500219696E+01  0.26159147864E+02  0.25000346896E+00 0.  0.
    1000022    2    1    0    0    0 -0.41952945585E+02 -0.39877000415E+02 -0.21354746182E+02  0.62500000441E+02  0.10000003260E+02 0.  0.
    3000022    2    5    5    0    0 -0.19922925670E+02 -0.19812595602E+02 -0.15588875395E+02  0.32133120721E+02  0.24999891136E+00 0.  0.
        -13    1    4    4    0    0  0.43438180820E+01  0.53236953572E+01  0.14350764103E+01  0.70200396786E+01  0.10500000000E+00 0.  1.
         13    1    4    4    0    0  0.11945292974E+02  0.14431826432E+02  0.39149455593E+01  0.19139108185E+02  0.10500000000E+00 0. -1.
    3000001    1    5    5    0    0 -0.22030019916E+02 -0.20064404813E+02 -0.57658707867E+01  0.30366879720E+02  0.10000000000E+01 0. -1.
        -13    1    6    6    0    0 -0.93254085909E+01 -0.93159363160E+01 -0.72442330334E+01  0.15041271624E+02  0.10500000000E+00 0. -1.
         13    1    6    6    0    0 -0.10597517079E+02 -0.10496659286E+02 -0.83446423616E+01  0.17091849097E+02  0.10500000000E+00 0.  1.
</event>
<event>
11    0  0.3422856E-009  0.9118800E+02  0.7816531E-02  0.1126479E+00
         25   -1    0    0    0    0  0.00000000000E+00  0.00000000000E+00  0.99999998245E-14  0.12500000000E+03  0.12500000000E+03 0.  0.
    3000001    1    3    3    0    0 -0.33788664351E+02 -0.47682386819E+02 -0.14273343674E+02  0.60166537137E+02  0.10000000000E+01 0.  1.
    1000022    2    1    0    0    0 -0.33201072728E+02 -0.49897442657E+02 -0.14635025330E+02  0.62500000017E+02  0.10000001082E+02 0.  0.
    3000022    2    3    3    0    0  0.58759162274E+00 -0.22150558377E+01 -0.36168165609E+00  0.23334628797E+01  0.24999822211E+00 0.  0.
    1000022    2    1    0    0    0  0.33201072728E+02  0.49897442657E+02  0.14635025330E+02  0.62499999983E+02  0.10000000875E+02 0.  0.
    3000022    2    5    5    0    0  0.22796734136E+02  0.30127200864E+02  0.13456208653E+02  0.40105752265E+02  0.24998856845E+00 0.  0.
        -13    1    4    4    0    0  0.46329527762E+00 -0.15979865171E+01 -0.26152906213E+00  0.16874909995E+01  0.10500000000E+00 0. -1.
         13    1    4    4    0    0  0.12429634512E+00 -0.61706932067E+00 -0.10015259396E+00  0.64597188019E+00  0.10500000000E+00 0.  1.
    3000001    1    5    5    0    0  0.10404338593E+02  0.19770241793E+02  0.11788166767E+01  0.22394247718E+02  0.10000000000E+01 0. -1.
        -13    1    6    6    0    0  0.11965318611E+02  0.15850457891E+02  0.70059272299E+01  0.21059437461E+02  0.10500000000E+00 0.  1.
         13    1    6    6    0    0  0.10831415525E+02  0.14276742973E+02  0.64502814233E+01  0.19046314805E+02  0.10500000000E+00 0. -1.
</event>
<event>
11    0  0.3422856E-009  0.9118800E+02  0.7816531E-02  0.1126479E+00
         25   -1    0    0    0    0  0.00000000000E+00  0.00000000000E+00  0.99999998245E-14  0.12500000000E+03  0.12500000000E+03 0.  0.
    3000001    1    3    3    0    0 -0.72667042568E+01 -0.18433982454E+01  0.97278087428E+01  0.12322068446E+02  0.10000000000E+01 0. -1.
    1000022    2    1    0    0    0 -0.25772053047E+02  0.55463410045E+01  0.55778931941E+02  0.62499998136E+02  0.99999950889E+01 0.  0.
    3000022    2    3    3    0    0 -0.18505348790E+02  0.73897392499E+01  0.46051123198E+02  0.50177929690E+02  0.25000038529E+00 0.  0.
    1000022    2    1    0    0    0  0.25772053047E+02 -0.55463410045E+01 -0.55778931941E+02  0.62500001864E+02  0.10000018389E+02 0.  0.
    3000022    2    5    5    0    0  0.26368656230E+01 -0.14944141693E+01 -0.16059804940E+02  0.16345218169E+02  0.24997654146E+00 0.  0.
        -13    1    4    4    0    0 -0.14044442183E+02  0.56140978613E+01  0.35002031091E+02  0.38130272180E+02  0.10500000000E+00 0. -1.
         13    1    4    4    0    0 -0.44609066074E+01  0.17756413886E+01  0.11049092106E+02  0.12047657510E+02  0.10500000000E+00 0.  1.
    3000001    1    5    5    0    0  0.23135187424E+02 -0.40519268352E+01 -0.39719127001E+02  0.46154783695E+02  0.10000000000E+01 0.  1.
        -13    1    6    6    0    0  0.14790512918E+01 -0.83863885168E+00 -0.86474460463E+01  0.88136403359E+01  0.10500000000E+00 0.  1.
         13    1    6    6    0    0  0.11578143312E+01 -0.65577531762E+00 -0.74123588936E+01  0.75315778334E+01  0.10500000000E+00 0. -1.
</event>
<event>
11    0  0.3422856E-009  0.9118800E+02  0.7816531E-02  0.1126479E+00
         25   -1    0    0    0    0  0.00000000000E+00  0.00000000000E+00  0.99999998245E-14  0.12500000000E+03  0.12500000000E+03 0.  0.
    3000001    1    3    3    0    0 -0.59062383665E+02 -0.10271230668E+02 -0.49696933107E+01  0.60162789125E+02  0.10000000000E+01 0. -1.
    1000022    2    1    0    0    0 -0.60262554214E+02 -0.11478227336E+02 -0.65517195966E+01  0.62500000758E+02  0.99999960971E+01 0.  0.
    3000022    2    3    3    0    0 -0.12001705484E+01 -0.12069966683E+01 -0.15820262859E+01  0.23372116333E+01  0.25000149405E+00 0.  0.
    1000022    2    1    0    0    0  0.60262554214E+02  0.11478227336E+02  0.65517195966E+01  0.62499999242E+02  0.99999866209E+01 0.  0.
    3000022    2    5    5    0    0  0.19364191714E+02  0.75492134181E+01 -0.54810366939E+00  0.20792437626E+02  0.25000166564E+00 0.  0.
        -13    1    4    4    0    0 -0.68335862651E+00 -0.70087328565E+00 -0.99491146754E+00  0.13996700337E+01  0.10500000000E+00 0. -1.
         13    1    4    4    0    0 -0.51681192188E+00 -0.50612338265E+00 -0.58711481841E+00  0.93754159964E+00  0.10500000000E+00 0.  1.
    3000001    1    5    5    0    0  0.40898362499E+02  0.39290139178E+01  0.70998232660E+01  0.41707561616E+02  0.10000000000E+01 0.  1.
        -13    1    6    6    0    0  0.12470287660E+02  0.49195566200E+01 -0.37275837009E+00  0.13411192544E+02  0.10500000000E+00 0.  1.
         13    1    6    6    0    0  0.68939040548E+01  0.26296567981E+01 -0.17534529930E+00  0.73812450824E+01  0.10500000000E+00 0. -1.
</event>
<event>
11    0  0.3422856E-009  0.9118800E+02  0.7816531E-02  0.1126479E+00
         25   -1    0    0    0    0  0.00000000000E+00  0.00000000000E+00  0.99999998245E-14  0.12500000000E+03  0.12500000000E+03 0.  0.
    3000001    1    3    3    0    0  0.26178133571E+00  0.32170025721E+01 -0.13123809465E+01  0.36249108631E+01  0.10000000000E+01 0. -1.
    1000022    2    1    0    0    0 -0.31422208544E+02  0.49936609447E+02 -0.18034130884E+02  0.62500001542E+02  0.10000008158E+02 0.  0.
    3000022    2    3    3    0    0 -0.31683989880E+02  0.46719606875E+02 -0.16721749938E+02  0.58875090679E+02  0.25000045240E+00 0.  0.
    1000022    2    1    0    0    0  0.31422208544E+02 -0.49936609447E+02  0.18034130884E+02  0.62499998458E+02  0.99999888777E+01 0.  0.
    3000022    2    5    5    0    0  0.29022511722E+02 -0.47559890978E+02  0.14638234097E+02  0.57607202681E+02  0.24997354496E+00 0.  0.
        -13    1    4    4    0    0 -0.15495928266E+02  0.22969052604E+02 -0.82175982058E+01  0.28900538327E+02  0.10500000000E+00 0.  1.
         13    1    4    4    0    0 -0.16188061614E+02  0.23750554271E+02 -0.85041517319E+01  0.29974552352E+02  0.10500000000E+00 0. -1.
    3000001    1    5    5    0    0  0.23996968223E+01 -0.23767184693E+01  0.33958967871E+01  0.48927957765E+01  0.10000000000E+01 0.  1.
        -13    1    6    6    0    0  0.11740977146E+02 -0.19183509666E+02  0.59671429234E+01  0.23269624129E+02  0.10500000000E+00 0. -1.
         13    1    6    6    0    0  0.17281534577E+02 -0.28376381311E+02  0.86710911737E+01  0.34337578552E+02  0.10500000000E+00 0.  1.
</event>
<event>
11    0  0.3422856E-009  0.9118800E+02  0.7816531E-02  0.1126479E+00
         25   -1    0    0    0    0  0.00000000000E+00  0.00000000000E+00  0.99999998245E-14  0.12500000000E+03  0.12500000000E+03 0.  0.
    3000001    1    3    3    0    0 -0.32116954955E+02 -0.24719472289E+02 -0.65763019951E+01  0.41070656846E+02  0.10000000000E+01 0. -1.
    1000022    2    1    0    0    0 -0.52309216708E+02 -0.31819714367E+02 -0.75829820001E+01  0.62500000490E+02  0.10000003516E+02 0.  0.
    3000022    2    3    3    0    0 -0.20192261753E+02 -0.71002420783E+01 -0.10066800050E+01  0.21429343645E+02  0.24998428840E+00 0.  0.
    1000022    2    1    0    0    0  0.52309216708E+02  0.31819714367E+02  0.75829820001E+01  0.62499999510E+02  0.99999973860E+01 0.  0.
    3000022    2    5    5    0    0  0.30988575275E+01  0.28753165830E+01 -0.18582410169E+01  0.46244925505E+01  0.25001648780E+00 0.  0.
        -13    1    4    4    0    0 -0.73633227801E+01 -0.26335821733E+01 -0.40921100383E+00  0.78315232281E+01  0.10500000000E+00 0. -1.
         13    1    4    4    0    0 -0.12828938973E+02 -0.44666599050E+01 -0.59746900114E+00  0.13597820416E+02  0.10500000000E+00 0.  1.
    3000001    1    5    5    0    0  0.49210359180E+02  0.28944397784E+02  0.94412230170E+01  0.57875506959E+02  0.10000000000E+01 0.  1.
        -13    1    6    6    0    0  0.11838238732E+01  0.10951094156E+01 -0.64304331444E+00  0.17393197806E+01  0.10500000000E+00 0. -1.
         13    1    6    6    0    0  0.19150336543E+01  0.17802071674E+01 -0.12151977025E+01  0.28851727699E+01  0.10500000000E+00 0. -1.
</event>
<event>
11    0  0.3422856E-009  0.9118800E+02  0.7816531E-02  0.1126479E+00
         25   -1    0    0    0    0  0.00000000000E+00  0.00000000000E+00  0.99999998245E-14  0.12500000000E+03  0.12500000000E+03 0.  0.
    3000001    1    3    3    0    0  0.14874523565E+02 -0.81174784049E+01  0.34155314977E+02  0.38140928779E+02  0.10000000000E+01 0. -1.
    1000022    2    1    0    0    0  0.30665835603E+02 -0.14877907515E+02  0.51424743775E+02  0.62500005308E+02  0.10000039297E+02 0.  0.
    3000022    2    3    3    0    0  0.15791312038E+02 -0.67604291097E+01  0.17269428798E+02  0.24359076529E+02  0.25000143432E+00 0.  0.
    1000022    2    1    0    0    0 -0.30665835603E+02  0.14877907515E+02 -0.51424743775E+02  0.62499994692E+02  0.99999729520E+01 0.  0.
    3000022    2    5    5    0    0 -0.82441729462E+01  0.90672949228E+01 -0.19811553480E+02  0.23296831866E+02  0.24999785443E+00 0.  0.
        -13    1    4    4    0    0  0.78452208923E+01 -0.34238389153E+01  0.86503329971E+01  0.12170022585E+02  0.10500000000E+00 0. -1.
         13    1    4    4    0    0  0.79460911455E+01 -0.33365901943E+01  0.86190958004E+01  0.12189053943E+02  0.10500000000E+00 0.  1.
    3000001    1    5    5    0    0 -0.22421662656E+02  0.58106125918E+01 -0.31613190294E+02  0.39203162826E+02  0.10000000000E+01 0. -1.
        -13    1    6    6    0    0 -0.37556856914E+01  0.40632369428E+01 -0.88520105604E+01  0.10439549101E+02  0.10500000000E+00 0. -1.
         13    1    6    6    0    0 -0.44884872548E+01  0.50040579800E+01 -0.10959542920E+02  0.12857282766E+02  0.10500000000E+00 0.  1.
</event>
<event>
11    0  0.3422856E-009  0.9118800E+02  0.7816531E-02  0.1126479E+00
         25   -1    0    0    0    0  0.00000000000E+00  0.00000000000E+00  0.99999998245E-14  0.12500000000E+03  0.12500000000E+03 0.  0.
    3000001    1    3    3    0    0 -0.25652387343E+02  0.74315877629E+01  0.16691540226E+02  0.31510014094E+02  0.10000000000E+01 0.  1.
    1000022    2    1    0    0    0 -0.46101723455E+02  0.23285982015E+02  0.33743793925E+02  0.62499996724E+02  0.10000004903E+02 0.  0.
    3000022    2    3    3    0    0 -0.20449336112E+02  0.15854394252E+02  0.17052253699E+02  0.30989982630E+02  0.25000531604E+00 0.  0.
    1000022    2    1    0    0    0  0.46101723455E+02 -0.23285982015E+02 -0.33743793925E+02  0.62500003276E+02  0.10000045853E+02 0.  0.
    3000022    2    5    5    0    0  0.33587793404E+02 -0.16251505924E+02 -0.29289143953E+02  0.47435933255E+02  0.24999957289E+00 0.  0.
        -13    1    4    4    0    0 -0.12763564769E+02  0.98250163415E+01  0.10586451356E+02  0.19274945111E+02  0.10500000000E+00 0.  1.
         13    1    4    4    0    0 -0.76857713429E+01  0.60293779109E+01  0.64658023436E+01  0.11715037519E+02  0.10500000000E+00 0. -1.
    3000001    1    5    5    0    0  0.12513930051E+02 -0.70344760912E+01 -0.44546499727E+01  0.15064070021E+02  0.10000000000E+01 0.  1.
        -13    1    6    6    0    0  0.23711602252E+02 -0.11431260105E+02 -0.20632432015E+02  0.33445807881E+02  0.10500000000E+00 0. -1.
         13    1    6    6    0    0  0.98761911514E+01 -0.48202458196E+01 -0.86567119372E+01  0.13990125374E+02  0.10500000000E+00 0.  1.
</event>
<event>
11    0  0.3422856E-009  0.9118800E+02  0.7816531E-02  0.1126479E+00
         25   -1    0    0    0    0  0.00000000000E+00  0.00000000000E+00  0.99999998245E-14  0.12500000000E+03  0.12500000000E+03 0.  0.
    3000001    1    3    3    0    0 -0.45830472486E+01 -0.52893758247E+01  0.12170623676E+02  0.14075009747E+02  0.10000000000E+01 0. -1.
    1000022    2    1    0    0    0 -0.33606315402E+02 -0.28886006963E+02  0.42923935184E+02  0.62500000717E+02  0.10000002237E+02 0.  0.
    3000022    2    3    3    0    0 -0.29023268153E+02 -0.23596631138E+02  0.30753311508E+02  0.48424990970E+02  0.24997277126E+00 0.  0.
    1000022    2    1    0    0    0  0.33606315402E+02  0.28886006963E+02 -0.42923935184E+02  0.62499999283E+02  0.99999932778E+01 0.  0.
    3000022    2    5    5    0    0  0.31912681306E+02  0.29350988658E+02 -0.41573689899E+02  0.60069409487E+02  0.25000199528E+00 0.  0.
        -13    1    4    4    0    0 -0.74121785745E+01 -0.60456995582E+01  0.78971895139E+01  0.12404333984E+02  0.10500000000E+00 0. -1.
         13    1    4    4    0    0 -0.21611089579E+02 -0.17550931580E+02  0.22856121994E+02  0.36020656986E+02  0.10500000000E+00 0.  1.
    3000001    1    5    5    0    0  0.16936340954E+01 -0.46498169465E+00 -0.13502452850E+01  0.24305897958E+01  0.10000000000E+01 0.  1.
        -13    1    6    6    0    0  0.13377069194E+02  0.12267673012E+02 -0.17485715871E+02  0.25203235227E+02  0.10500000000E+00 0. -1.
         13    1    6    6    0    0  0.18535612113E+02  0.17083315645E+02 -0.24087974028E+02  0.34866174261E+02  0.10500000000E+00 0.  1.
</event>
<event>
11    0  0.3422856E-009  0.9118800E+02  0.7816531E-02  0.1126479E+00
         25   -1    0    0    0    0  0.00000000000E+00  0.00000000000E+00  0.99999998245E-14  0.12500000000E+03  0.12500000000E+03 0.  0.
    3000001    1    3    3    0    0 -0.18378183351E+01 -0.31994004015E+01 -0.64955319257E+00  0.38775841077E+01  0.10000000000E+01 0.  1.
    1000022    2    1    0    0    0 -0.27651909661E+02 -0.35525283882E+02 -0.42185021992E+02  0.62500000650E+02  0.10000004897E+02 0.  0.
    3000022    2    3    3    0    0 -0.25814091326E+02 -0.32325883481E+02 -0.41535468800E+02  0.58622416542E+02  0.24999811420E+00 0.  0.
    1000022    2    1    0    0    0  0.27651909661E+02  0.35525283882E+02  0.42185021992E+02  0.62499999350E+02  0.99999967739E+01 0.  0.
    3000022    2    5    5    0    0  0.92442918959E+01  0.19886154205E+02  0.19422664987E+02  0.29295366160E+02  0.25000310028E+00 0.  0.
        -13    1    4    4    0    0 -0.13017684206E+02 -0.16226410668E+02 -0.20956329070E+02  0.29528549886E+02  0.10500000000E+00 0. -1.
         13    1    4    4    0    0 -0.12796407119E+02 -0.16099472813E+02 -0.20579139729E+02  0.29093866656E+02  0.10500000000E+00 0.  1.
    3000001    1    5    5    0    0  0.18407617765E+02  0.15639129678E+02  0.22762357006E+02  0.33204633190E+02  0.10000000000E+01 0.  1.
        -13    1    6    6    0    0  0.66487325740E+01  0.14255222353E+02  0.13883408078E+02  0.20980396899E+02  0.10500000000E+00 0. -1.
         13    1    6    6    0    0  0.25955593220E+01  0.56309318515E+01  0.55392569090E+01  0.83149692612E+01  0.10500000000E+00 0.  1.
</event>
<event>
11    0  0.3422856E-009  0.9118800E+02  0.7816531E-02  0.1126479E+00
         25   -1    0    0    0    0  0.00000000000E+00  0.00000000000E+00  0.99999998245E-14  0.12500000000E+03  0.12500000000E+03 0.  0.
    3000001    1    3    3    0    0 -0.41684240286E+01  0.11285070447E+01 -0.80257577506E+01  0.91685372063E+01  0.10000000000E+01 0. -1.
    1000022    2    1    0    0    0 -0.43975268034E+02  0.16686503181E+02 -0.39924760840E+02  0.62500000454E+02  0.99999970800E+01 0.  0.
    3000022    2    3    3    0    0 -0.39806844005E+02  0.15557996137E+02 -0.31899003089E+02  0.53331463248E+02  0.25000127632E+00 0.  0.
    1000022    2    1    0    0    0  0.43975268034E+02 -0.16686503181E+02  0.39924760840E+02  0.62499999546E+02  0.99999914021E+01 0.  0.
    3000022    2    5    5    0    0  0.19642750895E+02 -0.57938395723E+01  0.23494714226E+02  0.31168418952E+02  0.25000730656E+00 0.  0.
        -13    1    4    4    0    0 -0.18555137774E+02  0.71916529332E+01 -0.14806623602E+02  0.24804437853E+02  0.10500000000E+00 0. -1.
         13    1    4    4    0    0 -0.21251706232E+02  0.83663432036E+01 -0.17092379487E+02  0.28527025395E+02  0.10500000000E+00 0.  1.
    3000001    1    5    5    0    0  0.24332517139E+02 -0.10892663609E+02  0.16430046613E+02  0.31331580594E+02  0.10000000000E+01 0. -1.
        -13    1    6    6    0    0  0.48802894096E+01 -0.14288535718E+01  0.58700368068E+01  0.77670589263E+01  0.10500000000E+00 0.  1.
         13    1    6    6    0    0  0.14762461486E+02 -0.43649860004E+01  0.17624677419E+02  0.23401360025E+02  0.10500000000E+00 0. -1.
</event>
<event>
11    0  0.3422856E-009  0.9118800E+02  0.7816531E-02  0.1126479E+00
         25   -1    0    0    0    0  0.00000000000E+00  0.00000000000E+00  0.99999998245E-14  0.12500000000E+03  0.12500000000E+03 0.  0.
    3000001    1    3    3    0    0 -0.74500947887E+00 -0.12805314460E+02 -0.18274542928E+02  0.22349273742E+02  0.10000000000E+01 0. -1.
    1000022    2    1    0    0    0  0.57757706904E+01 -0.43291760889E+02 -0.43574233916E+02  0.62500000404E+02  0.10000005057E+02 0.  0.
    3000022    2    3    3    0    0  0.65207801693E+01 -0.30486446428E+02 -0.25299690988E+02  0.40150726662E+02  0.24999503576E+00 0.  0.
    1000022    2    1    0    0    0 -0.57757706904E+01  0.43291760889E+02  0.43574233916E+02  0.62499999596E+02  0.10000000012E+02 0.  0.
    3000022    2    5    5    0    0  0.26935920776E+00  0.63794388135E+01  0.11767868185E+02  0.13390855666E+02  0.24999982253E+00 0.  0.
        -13    1    4    4    0    0  0.46064871702E+01 -0.21706928101E+02 -0.17977755736E+02  0.28559082232E+02  0.10500000000E+00 0.  1.
         13    1    4    4    0    0  0.19142929991E+01 -0.87795183274E+01 -0.73219352524E+01  0.11591644430E+02  0.10500000000E+00 0. -1.
    3000001    1    5    5    0    0 -0.60451298982E+01  0.36912322075E+02  0.31806365732E+02  0.49109143930E+02  0.10000000000E+01 0.  1.
        -13    1    6    6    0    0  0.18454833744E+00  0.45694728708E+01  0.83404170212E+01  0.95125034294E+01  0.10500000000E+00 0.  1.
         13    1    6    6    0    0  0.84810870322E-01  0.18099659427E+01  0.34274511634E+01  0.38783522371E+01  0.10500000000E+00 0. -1.
</event>
<event>
11    0  0.3422856E-009  0.9118800E+02  0.7816531E-02  0.1126479E+00
         25   -1    0    0    0    0  0.00000000000E+00  0.00000000000E+00  0.99999998245E-14  0.12500000000E+03  0.12500000000E+03 0.  0.
    3000001    1    3    3    0    0  0.36598377935E+01 -0.58686251384E+01  0.11216765757E+02  0.13215559305E+02  0.10000000000E+01 0.  1.
    1000022    2    1    0    0    0  0.24468309756E+02 -0.10521835075E+02  0.55649283836E+02  0.62499999377E+02  0.99999967467E+01 0.  0.
    3000022    2    3    3    0    0  0.20808471963E+02 -0.46532099369E+01  0.44432518079E+02  0.49284440072E+02  0.25000442230E+00 0.  0.
    1000022    2    1    0    0    0 -0.24468309756E+02  0.10521835075E+02 -0.55649283836E+02  0.62500000623E+02  0.10000004537E+02 0.  0.
    3000022    2    5    5    0    0 -0.18868201264E+02  0.55339965986E+01 -0.30957289816E+02  0.36674929152E+02  0.24999655805E+00 0.  0.
        -13    1    4    4    0    0  0.12974390062E+02 -0.29619966659E+01  0.27757924720E+02  0.30783463605E+02  0.10500000000E+00 0. -1.
         13    1    4    4    0    0  0.78340819010E+01 -0.16912132710E+01  0.16674593359E+02  0.18500976467E+02  0.10500000000E+00 0.  1.
    3000001    1    5    5    0    0 -0.56001084927E+01  0.49878384767E+01 -0.24691994020E+02  0.25825071471E+02  0.10000000000E+01 0. -1.
        -13    1    6    6    0    0 -0.43342137773E+01  0.12654703145E+01 -0.71120768472E+01  0.84249324190E+01  0.10500000000E+00 0.  1.
         13    1    6    6    0    0 -0.14533987486E+02  0.42685262841E+01 -0.23845212969E+02  0.28249996733E+02  0.10500000000E+00 0. -1.
</event>
<event>
11    0  0.3422856E-009  0.9118800E+02  0.7816531E-02  0.1126479E+00
         25   -1    0    0    0    0  0.00000000000E+00  0.00000000000E+00  0.99999998245E-14  0.12500000000E+03  0.12500000000E+03 0.  0.
    3000001    1    3    3    0    0  0.68405159766E+01 -0.12390684883E+02  0.33407393015E+00  0.14192721236E+02  0.10000000000E+01 0.  1.
    1000022    2    1    0    0    0  0.24473645403E+02 -0.53504990197E+02  0.18560898357E+02  0.62499997931E+02  0.99999749101E+01 0.  0.
    3000022    2    3    3    0    0  0.17633129426E+02 -0.41114305314E+02  0.18226824427E+02  0.48307276695E+02  0.24999622977E+00 0.  0.
    1000022    2    1    0    0    0 -0.24473645403E+02  0.53504990197E+02 -0.18560898357E+02  0.62500002069E+02  0.10000000774E+02 0.  0.
    3000022    2    5    5    0    0 -0.97680655445E+00  0.57642214205E+01  0.71984947308E+00  0.58958531384E+01  0.25000267280E+00 0.  0.
        -13    1    4    4    0    0  0.94518862507E+01 -0.22050343961E+02  0.98469383933E+01  0.25933164929E+02  0.10500000000E+00 0.  1.
         13    1    4    4    0    0  0.81812431757E+01 -0.19063961353E+02  0.83798860339E+01  0.22374111766E+02  0.10500000000E+00 0. -1.
    3000001    1    5    5    0    0 -0.23496838849E+02  0.47740768777E+02 -0.19280747831E+02  0.56604148931E+02  0.10000000000E+01 0.  1.
        -13    1    6    6    0    0 -0.33495732993E+00  0.18021849533E+01  0.26597479066E+00  0.18552182104E+01  0.10500000000E+00 0.  1.
         13    1    6    6    0    0 -0.64184922452E+00  0.39620364672E+01  0.45387468242E+00  0.40406349280E+01  0.10500000000E+00 0. -1.
</event>
<event>
11    0  0.3422856E-009  0.9118800E+02  0.7816531E-02  0.1126479E+00
         25   -1    0    0    0    0  0.00000000000E+00  0.00000000000E+00  0.99999998245E-14  0.12500000000E+03  0.12500000000E+03 0.  0.
    3000001    1    3    3    0    0 -0.24760561199E+02 -0.10366330300E+02  0.12155307532E+02  0.29483854836E+02  0.10000000000E+01 0. -1.
    1000022    2    1    0    0    0 -0.48199100337E+02 -0.31042672725E+02  0.22791435148E+02  0.62500002068E+02  0.99999969600E+01 0.  0.
    3000022    2    3    3    0    0 -0.23438539137E+02 -0.20676342425E+02  0.10636127617E+02  0.33016147232E+02  0.25002881513E+00 0.  0.
    1000022    2    1    0    0    0  0.48199100337E+02  0.31042672725E+02 -0.22791435148E+02  0.62499997932E+02  0.99999711136E+01 0.  0.
    3000022    2    5    5    0    0  0.17116552057E+02  0.57246317231E+01 -0.59498677403E+01  0.19005556903E+02  0.25000874027E+00 0.  0.
        -13    1    4    4    0    0 -0.75459737687E+01 -0.66846366655E+01  0.33811854040E+01  0.10633415594E+02  0.10500000000E+00 0. -1.
         13    1    4    4    0    0 -0.15892565369E+02 -0.13991705759E+02  0.72549422128E+01  0.22382731638E+02  0.10500000000E+00 0.  1.
    3000001    1    5    5    0    0  0.31082548279E+02  0.25318041002E+02 -0.16841567408E+02  0.43494441029E+02  0.10000000000E+01 0. -1.
        -13    1    6    6    0    0  0.41646041753E+01  0.14082516765E+01 -0.14671387660E+01  0.46357978687E+01  0.10500000000E+00 0. -1.
         13    1    6    6    0    0  0.12951947882E+02  0.43163800466E+01 -0.44827289743E+01  0.14369759034E+02  0.10500000000E+00 0.  1.
</event>
<event>
11    0  0.3422856E-009  0.9118800E+02  0.7816531E-02  0.1126479E+00
         25   -1    0    0    0    0  0.00000000000E+00  0.00000000000E+00  0.99999998245E-14  0.12500000000E+03  0.12500000000E+03 0.  0.
    3000001    1    3    3    0    0  0.46737720889E+02  0.54908255739E+01 -0.10148349420E+02  0.48151352165E+02  0.10000000000E+01 0. -1.
    1000022    2    1    0    0    0  0.60677809231E+02  0.79557695514E+01 -0.78204353229E+01  0.62500000079E+02  0.99999999457E+01 0.  0.
    3000022    2    3    3    0    0  0.13940088342E+02  0.24649439775E+01  0.23279140971E+01  0.14348647913E+02  0.25000219260E+00 0.  0.
    1000022    2    1    0    0    0 -0.60677809231E+02 -0.79557695514E+01  0.78204353229E+01  0.62499999921E+02  0.99999989642E+01 0.  0.
    3000022    2    5    5    0    0 -0.27167702669E+02 -0.46018566363E+01  0.83835918805E+01  0.28802921132E+02  0.25000017565E+00 0.  0.
        -13    1    4    4    0    0  0.44619229333E+01  0.77776633416E+00  0.79511468029E+00  0.45996640191E+01  0.10500000000E+00 0.  1.
         13    1    4    4    0    0  0.94781654087E+01  0.16871776433E+01  0.15327994168E+01  0.97489838941E+01  0.10500000000E+00 0. -1.
    3000001    1    5    5    0    0 -0.33510106562E+02 -0.33539129150E+01 -0.56315655753E+00  0.33697078790E+02  0.10000000000E+01 0. -1.
        -13    1    6    6    0    0 -0.17262049950E+02 -0.29333831695E+01  0.53878790621E+01  0.18320026503E+02  0.10500000000E+00 0.  1.
         13    1    6    6    0    0 -0.99056527191E+01 -0.16684734668E+01  0.29957128183E+01  0.10482894628E+02  0.10500000000E+00 0. -1.
</event>
<event>
11    0  0.3422856E-009  0.9118800E+02  0.7816531E-02  0.1126479E+00
         25   -1    0    0    0    0  0.00000000000E+00  0.00000000000E+00  0.99999998245E-14  0.12500000000E+03  0.12500000000E+03 0.  0.
    3000001    1    3    3    0    0  0.34826336566E+02 -0.11327364254E+02 -0.25268762502E+02  0.44504980148E+02  0.10000000000E+01 0.  1.
    1000022    2    1    0    0    0  0.48527753012E+02 -0.21000370796E+02 -0.31785081846E+02  0.62500001284E+02  0.10000017331E+02 0.  0.
    3000022    2    3    3    0    0  0.13701416446E+02 -0.96730065422E+01 -0.65163193434E+01  0.17995021136E+02  0.24999944809E+00 0.  0.
    1000022    2    1    0    0    0 -0.48527753012E+02  0.21000370796E+02  0.31785081846E+02  0.62499998716E+02  0.10000001280E+02 0.  0.
    3000022    2    5    5    0    0 -0.18937716037E+01 -0.10581255309E+01  0.87580569668E+00  0.23527723938E+01  0.25000358478E+00 0.  0.
        -13    1    4    4    0    0  0.34998695934E+01 -0.25017879569E+01 -0.16546156607E+01  0.46105106156E+01  0.10500000000E+00 0. -1.
         13    1    4    4    0    0  0.10201546852E+02 -0.71712185853E+01 -0.48617036827E+01  0.13384510521E+02  0.10500000000E+00 0.  1.
    3000001    1    5    5    0    0 -0.46633981408E+02  0.22058496327E+02  0.30909276149E+02  0.60147226322E+02  0.10000000000E+01 0.  1.
        -13    1    6    6    0    0 -0.13494891857E+01 -0.79517492158E+00  0.64746899182E+00  0.16981358349E+01  0.10500000000E+00 0.  1.
         13    1    6    6    0    0 -0.54428241798E+00 -0.26295060934E+00  0.22833670486E+00  0.65463655891E+00  0.10500000000E+00 0. -1.
</event>
<event>
11    0  0.3422856E-009  0.9118800E+02  0.7816531E-02  0.1126479E+00
         25   -1    0    0    0    0  0.00000000000E+00  0.00000000000E+00  0.99999998245E-14  0.12500000000E+03  0.12500000000E+03 0.  0.
    3000001    1    3    3    0    0 -0.44602705057E+01 -0.88529384981E+01  0.24872616389E+02  0.26793946687E+02  0.10000000000E+01 0.  1.
    1000022    2    1    0    0    0 -0.13876535948E+02 -0.29819008997E+02  0.52196921305E+02  0.62500000858E+02  0.99999983018E+01 0.  0.
    3000022    2    3    3    0    0 -0.94162654427E+01 -0.20966070499E+02  0.27324304916E+02  0.35706054171E+02  0.24999652553E+00 0.  0.
    1000022    2    1    0    0    0  0.13876535948E+02  0.29819008997E+02 -0.52196921305E+02  0.62499999142E+02  0.99999875788E+01 0.  0.
    3000022    2    5    5    0    0  0.24481929907E+01  0.49171429265E+01 -0.32224404245E+01  0.63732699122E+01  0.25000721011E+00 0.  0.
        -13    1    4    4    0    0 -0.53065453735E+01 -0.11941178669E+02  0.15471619803E+02  0.20251746002E+02  0.10500000000E+00 0. -1.
         13    1    4    4    0    0 -0.41097200691E+01 -0.90248918302E+01  0.11852685113E+02  0.15454308169E+02  0.10500000000E+00 0.  1.
    3000001    1    5    5    0    0  0.11428342958E+02  0.24901866071E+02 -0.48974480880E+02  0.56126729230E+02  0.10000000000E+01 0. -1.
        -13    1    6    6    0    0  0.94648908805E+00  0.18346004183E+01 -0.12726955697E+01  0.24274223575E+01  0.10500000000E+00 0.  1.
         13    1    6    6    0    0  0.15017039027E+01  0.30825425082E+01 -0.19497448548E+01  0.39458475547E+01  0.10500000000E+00 0. -1.
</event>
<event>
11    0  0.3422856E-009  0.9118800E+02  0.7816531E-02  0.1126479E+00
         25   -1    0    0    0    0  0.00000000000E+00  0.00000000000E+00  0.99999998245E-14  0.12500000000E+03  0.12500000000E+03 0.  0.
    3000001    1    3    3    0    0  0.40604291069E+02  0.30326768429E+02  0.21932852372E+01  0.50736888323E+02  0.10000000000E+01 0. -1.
    1000022    2    1    0    0    0  0.50862047920E+02  0.34894177115E+02 -0.13032147898E+01  0.62500000516E+02  0.10000009032E+02 0.  0.
    3000022    2    3    3    0    0  0.10257756851E+02  0.45674086864E+01 -0.34965000270E+01  0.11763112194E+02  0.24999665456E+00 0.  0.
    1000022    2    1    0    0    0 -0.50862047920E+02 -0.34894177115E+02  0.13032147898E+01  0.62499999484E+02  0.10000002577E+02 0.  0.
    3000022    2    5    5    0    0 -0.34878548527E+02 -0.18193893481E+02  0.13283661126E+01  0.39361884632E+02  0.24999580385E+00 0.  0.
        -13    1    4    4    0    0  0.69754775459E+01  0.31598628381E+01 -0.23948541371E+01  0.80242365049E+01  0.10500000000E+00 0.  1.
         13    1    4    4    0    0  0.32822793047E+01  0.14075458484E+01 -0.11016458899E+01  0.37388756887E+01  0.10500000000E+00 0. -1.
    3000001    1    5    5    0    0 -0.15983499392E+02 -0.16700283634E+02 -0.25151322757E-01  0.23138114851E+02  0.10000000000E+01 0.  1.
        -13    1    6    6    0    0 -0.10496137617E+02 -0.54253097309E+01  0.41143581030E+00  0.11822994332E+02  0.10500000000E+00 0. -1.
         13    1    6    6    0    0 -0.24382410910E+02 -0.12768583750E+02  0.91693030227E+00  0.27538890300E+02  0.10500000000E+00 0.  1.
</event>
<event>
11    0  0.3422856E-009  0.9118800E+02  0.7816531E-02  0.1126479E+00
         25   -1    0    0    0    0  0.00000000000E+00  0.00000000000E+00  0.99999998245E-14  0.12500000000E+03  0.12500000000E+03 0.  0.
    3000001    1    3    3    0    0  0.90908003796E+01 -0.24069012327E+02  0.19365525119E+02  0.32217752390E+02  0.10000000000E+01 0. -1.
    1000022    2    1    0    0    0  0.25952201143E+02 -0.41934741316E+02  0.37070350636E+02  0.62499998907E+02  0.99999846876E+01 0.  0.
    3000022    2    3    3    0    0  0.16861400763E+02 -0.17865728990E+02  0.17704825516E+02  0.30282246517E+02  0.24999908569E+00 0.  0.
    1000022    2    1    0    0    0 -0.25952201143E+02  0.41934741316E+02 -0.37070350636E+02  0.62500001093E+02  0.99999983445E+01 0.  0.
    3000022    2    5    5    0    0 -0.18803043445E+02  0.37104792764E+02 -0.29756394510E+02  0.51145142528E+02  0.25000227965E+00 0.  0.
        -13    1    4    4    0    0  0.98164628751E+01 -0.10456333474E+02  0.10400623220E+02  0.17716710797E+02  0.10500000000E+00 0. -1.
         13    1    4    4    0    0  0.70449378880E+01 -0.74093955156E+01  0.73042022964E+01  0.12565535720E+02  0.10500000000E+00 0.  1.
    3000001    1    5    5    0    0 -0.71491576982E+01  0.48299485525E+01 -0.73139561261E+01  0.11354858565E+02  0.10000000000E+01 0. -1.
        -13    1    6    6    0    0 -0.12691399940E+02  0.25037564283E+02 -0.20143610188E+02  0.34550359102E+02  0.10500000000E+00 0.  1.
         13    1    6    6    0    0 -0.61116435046E+01  0.12067228481E+02 -0.96127843211E+01  0.16594783425E+02  0.10500000000E+00 0. -1.
</event>
<event>
11    0  0.3422856E-009  0.9118800E+02  0.7816531E-02  0.1126479E+00
         25   -1    0    0    0    0  0.00000000000E+00  0.00000000000E+00  0.99999998245E-14  0.12500000000E+03  0.12500000000E+03 0.  0.
    3000001    1    3    3    0    0 -0.20088990510E+01  0.24359227317E+02  0.15681142568E+02  0.29056941737E+02  0.10000000000E+01 0. -1.
    1000022    2    1    0    0    0 -0.14606143377E+02  0.49843439637E+02  0.33294776724E+02  0.62500001558E+02  0.10000006919E+02 0.  0.
    3000022    2    3    3    0    0 -0.12597244326E+02  0.25484212321E+02  0.17613634156E+02  0.33443059821E+02  0.24999957762E+00 0.  0.
    1000022    2    1    0    0    0  0.14606143377E+02 -0.49843439637E+02 -0.33294776724E+02  0.62499998442E+02  0.99999874503E+01 0.  0.
    3000022    2    5    5    0    0  0.13302268884E+02 -0.42062849636E+02 -0.23841987735E+02  0.50147149009E+02  0.24999524334E+00 0.  0.
        -13    1    4    4    0    0 -0.83839652113E+01  0.17071087704E+02  0.11759398906E+02  0.22360845147E+02  0.10500000000E+00 0.  1.
         13    1    4    4    0    0 -0.42132791142E+01  0.84131246172E+01  0.58542352499E+01  0.11082214674E+02  0.10500000000E+00 0. -1.
    3000001    1    5    5    0    0  0.13038744926E+01 -0.77805900014E+01 -0.94527889883E+01  0.12352849433E+02  0.10000000000E+01 0. -1.
        -13    1    6    6    0    0  0.56103428418E+01 -0.17818062090E+02 -0.10164648992E+02  0.21267120105E+02  0.10500000000E+00 0. -1.
         13    1    6    6    0    0  0.76919260422E+01 -0.24244787546E+02 -0.13677338743E+02  0.28880028904E+02  0.10500000000E+00 0.  1.
</event>
<event>
11    0  0.3422856E-009  0.9118800E+02  0.7816531E-02  0.1126479E+00
         25   -1    0    0    0    0  0.00000000000E+00  0.00000000000E+00  0.99999998245E-14  0.12500000000E+03  0.12500000000E+03 0.  0.
    3000001    1    3    3    0    0 -0.18489391724E+01 -0.93593291273E+00  0.42684445580E+01  0.48491406893E+01  0.10000000000E+01 0. -1.
    1000022    2    1    0    0    0 -0.49424384331E+02 -0.64083393815E+01  0.36365000827E+02  0.62500000521E+02  0.10000009990E+02 0.  0.
    3000022    2    3    3    0    0 -0.47575445159E+02 -0.54724064688E+01  0.32096556269E+02  0.57650859832E+02  0.25000070084E+00 0.  0.
    1000022    2    1    0    0    0  0.49424384331E+02  0.64083393815E+01 -0.36365000827E+02  0.62499999479E+02  0.10000003479E+02 0.  0.
    3000022    2    5    5    0    0  0.11556229595E+02 -0.37919266583E+00 -0.40705884281E+01  0.12260604512E+02  0.25000666034E+00 0.  0.
        -13    1    4    4    0    0 -0.19045177296E+02 -0.22159731676E+01  0.12781101630E+02  0.23043369961E+02  0.10500000000E+00 0.  1.
         13    1    4    4    0    0 -0.28530267863E+02 -0.32564333012E+01  0.19315454639E+02  0.34607489870E+02  0.10500000000E+00 0. -1.
    3000001    1    5    5    0    0  0.37868154736E+02  0.67875320474E+01 -0.32294412399E+02  0.50239394967E+02  0.10000000000E+01 0. -1.
        -13    1    6    6    0    0  0.54061829210E+01 -0.18790372421E+00 -0.18339390557E+01  0.57128345893E+01  0.10500000000E+00 0. -1.
         13    1    6    6    0    0  0.61500466739E+01 -0.19128894161E+00 -0.22366493724E+01  0.65477699231E+01  0.10500000000E+00 0.  1.
</event>
<event>
11    0  0.3422856E-009  0.9118800E+02  0.7816531E-02  0.1126479E+00
         25   -1    0    0    0    0  0.00000000000E+00  0.00000000000E+00  0.99999998245E-14  0.12500000000E+03  0.12500000000E+03 0.  0.
    3000001    1    3    3    0    0  0.17226207138E+02 -0.29655154898E+01  0.50796438879E+02  0.53729086138E+02  0.10000000000E+01 0.  1.
    1000022    2    1    0    0    0  0.17103129213E+02 -0.72694528857E+00  0.59272291474E+02  0.62499999669E+02  0.99999971860E+01 0.  0.
    3000022    2    3    3    0    0 -0.12307792435E+00  0.22385702012E+01  0.84758525944E+01  0.87709135302E+01  0.25000446226E+00 0.  0.
    1000022    2    1    0    0    0 -0.17103129213E+02  0.72694528857E+00 -0.59272291474E+02  0.62500000331E+02  0.10000001328E+02 0.  0.
    3000022    2    5    5    0    0 -0.20639165968E+01  0.26369487154E+01 -0.21925707950E+02  0.22181352907E+02  0.24999489446E+00 0.  0.
        -13    1    4    4    0    0 -0.95182664551E-01  0.89062647692E+00  0.32254337368E+01  0.33491376579E+01  0.10500000000E+00 0.  1.
         13    1    4    4    0    0 -0.27895259802E-01  0.13479437243E+01  0.52504188576E+01  0.54217758723E+01  0.10500000000E+00 0. -1.
    3000001    1    5    5    0    0 -0.15039212617E+02 -0.19100034268E+01 -0.37346583524E+02  0.40318647424E+02  0.10000000000E+01 0.  1.
        -13    1    6    6    0    0 -0.65223808578E+00  0.87929924085E+00 -0.68966304461E+01  0.69837753533E+01  0.10500000000E+00 0. -1.
         13    1    6    6    0    0 -0.14116785110E+01  0.17576494745E+01 -0.15029077504E+02  0.15197577554E+02  0.10500000000E+00 0.  1.
</event>
<event>
11    0  0.3422856E-009  0.9118800E+02  0.7816531E-02  0.1126479E+00
         25   -1    0    0    0    0  0.00000000000E+00  0.00000000000E+00  0.99999998245E-14  0.12500000000E+03  0.12500000000E+03 0.  0.
    3000001    1    3    3    0    0 -0.25499843376E+02  0.45245734632E+02  0.55757934718E+01  0.52244693390E+02  0.10000000000E+01 0.  1.
    1000022    2    1    0    0    0 -0.26468323576E+02  0.55139166617E+02  0.80839544261E+01  0.62500000544E+02  0.99999950369E+01 0.  0.
    3000022    2    3    3    0    0 -0.96848020054E+00  0.98934319842E+01  0.25081609544E+01  0.10255307154E+02  0.25000623947E+00 0.  0.
    1000022    2    1    0    0    0  0.26468323576E+02 -0.55139166617E+02 -0.80839544261E+01  0.62499999456E+02  0.99999882358E+01 0.  0.
    3000022    2    5    5    0    0 -0.71181601487E+00 -0.11830016120E+01  0.45693973670E+00  0.14756223325E+01  0.24998498405E+00 0.  0.
        -13    1    4    4    0    0 -0.27560165300E+00  0.25762173287E+01  0.63150793086E+00  0.26688348136E+01  0.10500000000E+00 0.  1.
         13    1    4    4    0    0 -0.69287854754E+00  0.73172146556E+01  0.18766530235E+01  0.75864723402E+01  0.10500000000E+00 0. -1.
    3000001    1    5    5    0    0  0.27180139591E+02 -0.53956165005E+02 -0.85408941629E+01  0.61024377123E+02  0.10000000000E+01 0.  1.
        -13    1    6    6    0    0 -0.21310162767E+00 -0.37090744806E+00  0.93496952759E-01  0.45027915665E+00  0.10500000000E+00 0. -1.
         13    1    6    6    0    0 -0.49871438720E+00 -0.81209416390E+00  0.36344278395E+00  0.10253431758E+01  0.10500000000E+00 0.  1.
</event>
<event>
11    0  0.3422856E-009  0.9118800E+02  0.7816531E-02  0.1126479E+00
         25   -1    0    0    0    0  0.00000000000E+00  0.00000000000E+00  0.99999998245E-14  0.12500000000E+03  0.12500000000E+03 0.  0.
    3000001    1    3    3    0    0 -0.54556615759E+01 -0.28804001135E+02 -0.28647963849E+02  0.41001714078E+02  0.10000000000E+01 0.  1.
    1000022    2    1    0    0    0 -0.80781549847E+01 -0.38083433294E+02 -0.47860682901E+02  0.62500002402E+02  0.10000042654E+02 0.  0.
    3000022    2    3    3    0    0 -0.26224934088E+01 -0.92794321590E+01 -0.19212719052E+02  0.21498288325E+02  0.24998926241E+00 0.  0.
    1000022    2    1    0    0    0  0.80781549847E+01  0.38083433294E+02  0.47860682901E+02  0.62499997598E+02  0.10000012626E+02 0.  0.
    3000022    2    5    5    0    0  0.43467237822E+01  0.20335681776E+02  0.17780367061E+02  0.27361248846E+02  0.25004932570E+00 0.  0.
        -13    1    4    4    0    0 -0.16798403290E+01 -0.59115178372E+01 -0.12113905921E+02  0.13584021802E+02  0.10500000000E+00 0.  1.
         13    1    4    4    0    0 -0.94265307983E+00 -0.33679143218E+01 -0.70988131318E+01  0.79142665224E+01  0.10500000000E+00 0. -1.
    3000001    1    5    5    0    0  0.37314312025E+01  0.17747751518E+02  0.30080315840E+02  0.35138748752E+02  0.10000000000E+01 0.  1.
        -13    1    6    6    0    0  0.29502174280E+01  0.13610132336E+02  0.11861388590E+02  0.18293251471E+02  0.10500000000E+00 0.  1.
         13    1    6    6    0    0  0.13965063542E+01  0.67255494398E+01  0.59189784709E+01  0.90679973755E+01  0.10500000000E+00 0. -1.
</event>
<event>
11    0  0.3422856E-009  0.9118800E+02  0.7816531E-02  0.1126479E+00
         25   -1    0    0    0    0  0.00000000000E+00  0.00000000000E+00  0.99999998245E-14  0.12500000000E+03  0.12500000000E+03 0.  0.
    3000001    1    3    3    0    0  0.28657841153E+02  0.26265166591E+02  0.19418082069E+02  0.43464844954E+02  0.10000000000E+01 0.  1.
    1000022    2    1    0    0    0  0.42857558688E+02  0.38742523924E+02  0.21644777922E+02  0.62499999263E+02  0.99999999960E+01 0.  0.
    3000022    2    3    3    0    0  0.14199717535E+02  0.12477357333E+02  0.22266958530E+01  0.19035154310E+02  0.25000216279E+00 0.  0.
    1000022    2    1    0    0    0 -0.42857558688E+02 -0.38742523924E+02 -0.21644777922E+02  0.62500000737E+02  0.10000009206E+02 0.  0.
    3000022    2    5    5    0    0 -0.32434463320E+02 -0.26576048389E+02 -0.11389788220E+02  0.43451933701E+02  0.25001573314E+00 0.  0.
        -13    1    4    4    0    0  0.91976085499E+01  0.81006941574E+01  0.13883027673E+01  0.12335139174E+02  0.10500000000E+00 0.  1.
         13    1    4    4    0    0  0.50021089854E+01  0.43766631754E+01  0.83839308567E+00  0.67000151357E+01  0.10500000000E+00 0. -1.
    3000001    1    5    5    0    0 -0.10423095368E+02 -0.12166475535E+02 -0.10254989702E+02  0.19048067036E+02  0.10000000000E+01 0. -1.
        -13    1    6    6    0    0 -0.13200418856E+02 -0.10823063278E+02 -0.47025454806E+01  0.17706346763E+02  0.10500000000E+00 0. -1.
         13    1    6    6    0    0 -0.19234044464E+02 -0.15752985111E+02 -0.66872427390E+01  0.25745586938E+02  0.10500000000E+00 0.  1.
</event>
<event>
11    0  0.3422856E-009  0.9118800E+02  0.7816531E-02  0.1126479E+00
         25   -1    0    0    0    0  0.00000000000E+00  0.00000000000E+00  0.99999998245E-14  0.12500000000E+03  0.12500000000E+03 0.  0.
    3000001    1    3    3    0    0  0.72034273562E+01  0.18180847259E+01  0.19992455198E+01  0.77583361873E+01  0.10000000000E+01 0. -1.
    1000022    2    1    0    0    0  0.51695871679E+02 -0.27770919043E+01  0.33557034613E+02  0.62500000426E+02  0.10000004660E+02 0.  0.
    3000022    2    3    3    0    0  0.44492444323E+02 -0.45951766303E+01  0.31557789093E+02  0.54741664239E+02  0.25000230636E+00 0.  0.
    1000022    2    1    0    0    0 -0.51695871679E+02  0.27770919043E+01 -0.33557034613E+02  0.62499999574E+02  0.99999993312E+01 0.  0.
    3000022    2    5    5    0    0 -0.20515967987E+02  0.58988555689E+01 -0.14578745119E+02  0.25851571576E+02  0.25000844705E+00 0.  0.
        -13    1    4    4    0    0  0.32730306384E+02 -0.34128287640E+01  0.23228576013E+02  0.40280244845E+02  0.10500000000E+00 0. -1.
         13    1    4    4    0    0  0.11762137939E+02 -0.11823478663E+01  0.83292130799E+01  0.14461419394E+02  0.10500000000E+00 0.  1.
    3000001    1    5    5    0    0 -0.31179903692E+02 -0.31217636646E+01 -0.18978289494E+02  0.36648427998E+02  0.10000000000E+01 0.  1.
        -13    1    6    6    0    0 -0.11417031511E+02  0.32957456496E+01 -0.80364734804E+01  0.14345956884E+02  0.10500000000E+00 0.  1.
         13    1    6    6    0    0 -0.90989364754E+01  0.26031099193E+01 -0.65422716385E+01  0.11505614691E+02  0.10500000000E+00 0. -1.
</event>
<event>
11    0  0.3422856E-009  0.9118800E+02  0.7816531E-02  0.1126479E+00
         25   -1    0    0    0    0  0.00000000000E+00  0.00000000000E+00  0.99999998245E-14  0.12500000000E+03  0.12500000000E+03 0.  0.
    3000001    1    3    3    0    0  0.25628065399E+01  0.49373764924E+01 -0.27463193822E+02  0.28038770995E+02  0.10000000000E+01 0. -1.
    1000022    2    1    0    0    0 -0.20765764694E+01  0.33096232672E+01 -0.61570969461E+02  0.62500000221E+02  0.99999985641E+01 0.  0.
    3000022    2    3    3    0    0 -0.46393830093E+01 -0.16277532252E+01 -0.34107775638E+02  0.34461229226E+02  0.25001098817E+00 0.  0.
    1000022    2    1    0    0    0  0.20765764694E+01 -0.33096232672E+01  0.61570969461E+02  0.62499999779E+02  0.99999958029E+01 0.  0.
    3000022    2    5    5    0    0 -0.25112763306E+01 -0.28449240451E+00  0.43761659956E+02  0.43835292038E+02  0.25000232216E+00 0.  0.
        -13    1    4    4    0    0 -0.33380255454E+01 -0.11379070196E+01 -0.24263267356E+02  0.24518450496E+02  0.10500000000E+00 0.  1.
         13    1    4    4    0    0 -0.13013574639E+01 -0.48984620557E+00 -0.98445082819E+01  0.99427787297E+01  0.10500000000E+00 0. -1.
    3000001    1    5    5    0    0  0.45878527999E+01 -0.30251308627E+01  0.17809309504E+02  0.18664707741E+02  0.10000000000E+01 0. -1.
        -13    1    6    6    0    0 -0.16987208325E+01 -0.18210342886E+00  0.28630872176E+02  0.28681992272E+02  0.10500000000E+00 0.  1.
         13    1    6    6    0    0 -0.81255549806E+00 -0.10238897565E+00  0.15130787780E+02  0.15153299766E+02  0.10500000000E+00 0. -1.
</event>
<event>
11    0  0.3422856E-009  0.9118800E+02  0.7816531E-02  0.1126479E+00
         25   -1    0    0    0    0  0.00000000000E+00  0.00000000000E+00  0.99999998245E-14  0.12500000000E+03  0.12500000000E+03 0.  0.
    3000001    1    3    3    0    0 -0.93709444831E+00 -0.17603287660E+02 -0.38898685383E+02  0.42718398928E+02  0.10000000000E+01 0.  1.
    1000022    2    1    0    0    0  0.49766175435E+01 -0.27212491787E+02 -0.55144930981E+02  0.62500001217E+02  0.10000015388E+02 0.  0.
    3000022    2    3    3    0    0  0.59137119918E+01 -0.96092041271E+01 -0.16246245598E+02  0.19781602289E+02  0.24999920847E+00 0.  0.
    1000022    2    1    0    0    0 -0.49766175435E+01  0.27212491787E+02  0.55144930981E+02  0.62499998783E+02  0.10000000176E+02 0.  0.
    3000022    2    5    5    0    0  0.84264982037E-02  0.19356143295E+01  0.40699582231E+00  0.19936954456E+01  0.25000418387E+00 0.  0.
        -13    1    4    4    0    0  0.35621248657E+01 -0.58853399466E+01 -0.98422917284E+01  0.12008650687E+02  0.10500000000E+00 0. -1.
         13    1    4    4    0    0  0.23515871261E+01 -0.37238641805E+01 -0.64039538696E+01  0.77729516022E+01  0.10500000000E+00 0.  1.
    3000001    1    5    5    0    0 -0.49850440417E+01  0.25276877457E+02  0.54737935159E+02  0.60506303337E+02  0.10000000000E+01 0.  1.
        -13    1    6    6    0    0 -0.59371181809E-01  0.81155335153E+00  0.15524636984E+00  0.83502707439E+00  0.10500000000E+00 0. -1.
         13    1    6    6    0    0  0.67797680013E-01  0.11240609780E+01  0.25174945247E+00  0.11586683712E+01  0.10500000000E+00 0.  1.
</event>
<event>
11    0  0.3422856E-009  0.9118800E+02  0.7816531E-02  0.1126479E+00
         25   -1    0    0    0    0  0.00000000000E+00  0.00000000000E+00  0.99999998245E-14  0.12500000000E+03  0.12500000000E+03 0.  0.
    3000001    1    3    3    0    0 -0.78991503246E+01 -0.19772021686E+02  0.93014064689E+01  0.23256086939E+02  0.10000000000E+01 0. -1.
    1000022    2    1    0    0    0 -0.24700836238E+02 -0.44982901302E+02  0.34244083215E+02  0.62500000105E+02  0.10000002872E+02 0.  0.
    3000022    2    3    3    0    0 -0.16801685913E+02 -0.25210879616E+02  0.24942676746E+02  0.39243913166E+02  0.24999351712E+00 0.  0.
    1000022    2    1    0    0    0  0.24700836238E+02  0.44982901302E+02 -0.34244083215E+02  0.62499999895E+02  0.10000001560E+02 0.  0.
    3000022    2    5    5    0    0  0.14891428271E+02  0.34671791966E+02 -0.21871561672E+02  0.43615542006E+02  0.25000088353E+00 0.  0.
        -13    1    4    4    0    0 -0.60773910675E+01 -0.92248152548E+01  0.90893796442E+01  0.14305933943E+02  0.10500000000E+00 0.  1.
         13    1    4    4    0    0 -0.10724294846E+02 -0.15986064361E+02  0.15853297102E+02  0.24937979223E+02  0.10500000000E+00 0. -1.
    3000001    1    5    5    0    0  0.98094079671E+01  0.10311109336E+02 -0.12372521543E+02  0.18884457889E+02  0.10000000000E+01 0. -1.
        -13    1    6    6    0    0  0.99138159732E+01  0.23082342701E+02 -0.14498519371E+02  0.29005109562E+02  0.10500000000E+00 0. -1.
         13    1    6    6    0    0  0.49776122975E+01  0.11589449265E+02 -0.73730423005E+01  0.14610432445E+02  0.10500000000E+00 0.  1.
</event>
<event>
11    0  0.3422856E-009  0.9118800E+02  0.7816531E-02  0.1126479E+00
         25   -1    0    0    0    0  0.00000000000E+00  0.00000000000E+00  0.99999998245E-14  0.12500000000E+03  0.12500000000E+03 0.  0.
    3000001    1    3    3    0    0 -0.13510878900E+02  0.11132917352E+01  0.15867278767E+02  0.20893869977E+02  0.10000000000E+01 0. -1.
    1000022    2    1    0    0    0 -0.32130455276E+02 -0.67495992476E+01  0.52233387987E+02  0.62500000253E+02  0.99999982394E+01 0.  0.
    3000022    2    3    3    0    0 -0.18619576377E+02 -0.78628909828E+01  0.36366109219E+02  0.41606130276E+02  0.24999550155E+00 0.  0.
    1000022    2    1    0    0    0  0.32130455276E+02  0.67495992476E+01 -0.52233387987E+02  0.62499999747E+02  0.99999950750E+01 0.  0.
    3000022    2    5    5    0    0  0.18110947741E+02  0.23580511846E+01 -0.37275918253E+02  0.41510521746E+02  0.25000102471E+00 0.  0.
        -13    1    4    4    0    0 -0.10765354770E+02 -0.45083841262E+01  0.20886049912E+02  0.23926063125E+02  0.10500000000E+00 0. -1.
         13    1    4    4    0    0 -0.78542216073E+01 -0.33545068567E+01  0.15480059308E+02  0.17680067151E+02  0.10500000000E+00 0.  1.
    3000001    1    5    5    0    0  0.14019507536E+02  0.43915480630E+01 -0.14957469733E+02  0.20989478001E+02  0.10000000000E+01 0.  1.
        -13    1    6    6    0    0  0.13360799269E+02  0.17069848416E+01 -0.27501564725E+02  0.30623060619E+02  0.10500000000E+00 0.  1.
         13    1    6    6    0    0  0.47501484721E+01  0.65106634306E+00 -0.97743535287E+01  0.10887461127E+02  0.10500000000E+00 0. -1.
</event>
<event>
11    0  0.3422856E-009  0.9118800E+02  0.7816531E-02  0.1126479E+00
         25   -1    0    0    0    0  0.00000000000E+00  0.00000000000E+00  0.99999998245E-14  0.12500000000E+03  0.12500000000E+03 0.  0.
    3000001    1    3    3    0    0 -0.20115541179E+02 -0.42049583058E+02  0.29595119981E+02  0.55223849549E+02  0.10000000000E+01 0.  1.
    1000022    2    1    0    0    0 -0.23796099642E+02 -0.44652190946E+02  0.35301238514E+02  0.62500000278E+02  0.10000003984E+02 0.  0.
    3000022    2    3    3    0    0 -0.36805584629E+01 -0.26026078873E+01  0.57061185329E+01  0.72761507288E+01  0.25000460539E+00 0.  0.
    1000022    2    1    0    0    0  0.23796099642E+02  0.44652190946E+02 -0.35301238514E+02  0.62499999722E+02  0.10000000513E+02 0.  0.
    3000022    2    5    5    0    0  0.86822945201E+01  0.23938027784E+02 -0.13467705630E+02  0.28807169343E+02  0.24999665373E+00 0.  0.
        -13    1    4    4    0    0 -0.16141474984E+01 -0.12106671329E+01  0.26105413047E+01  0.33010813314E+01  0.10500000000E+00 0.  1.
         13    1    4    4    0    0 -0.20664109645E+01 -0.13919407544E+01  0.30955772282E+01  0.39750693974E+01  0.10500000000E+00 0. -1.
    3000001    1    5    5    0    0  0.15113805122E+02  0.20714163162E+02 -0.21833532884E+02  0.33692830379E+02  0.10000000000E+01 0.  1.
        -13    1    6    6    0    0  0.45200207963E+01  0.12658638581E+02 -0.70998771032E+01  0.15201677493E+02  0.10500000000E+00 0.  1.
         13    1    6    6    0    0  0.41622737238E+01  0.11279389203E+02 -0.63678285265E+01  0.13605491850E+02  0.10500000000E+00 0. -1.
</event>
<event>
11    0  0.3422856E-009  0.9118800E+02  0.7816531E-02  0.1126479E+00
         25   -1    0    0    0    0  0.00000000000E+00  0.00000000000E+00  0.99999998245E-14  0.12500000000E+03  0.12500000000E+03 0.  0.
    3000001    1    3    3    0    0  0.90537231115E+01  0.24580990735E+02  0.15665053132E+02  0.30538318508E+02  0.10000000000E+01 0.  1.
    1000022    2    1    0    0    0  0.25680257873E+02  0.50266439944E+02  0.24900993464E+02  0.62499999590E+02  0.99999922072E+01 0.  0.
    3000022    2    3    3    0    0  0.16626534762E+02  0.25685449209E+02  0.92359403319E+01  0.31961681081E+02  0.25000894652E+00 0.  0.
    1000022    2    1    0    0    0 -0.25680257873E+02 -0.50266439944E+02 -0.24900993464E+02  0.62500000410E+02  0.99999973381E+01 0.  0.
    3000022    2    5    5    0    0 -0.94261976194E+01 -0.28521288052E+02 -0.15080295308E+02  0.33612421457E+02  0.24999182346E+00 0.  0.
        -13    1    4    4    0    0  0.12078551244E+02  0.18663589685E+02  0.66715446324E+01  0.23210805951E+02  0.10500000000E+00 0.  1.
         13    1    4    4    0    0  0.45479835173E+01  0.70218595241E+01  0.25643956995E+01  0.87508751307E+01  0.10500000000E+00 0. -1.
    3000001    1    5    5    0    0 -0.16254060254E+02 -0.21745151892E+02 -0.98206981560E+01  0.28887578954E+02  0.10000000000E+01 0.  1.
        -13    1    6    6    0    0 -0.41296123784E+01 -0.12706745483E+02 -0.67079437604E+01  0.14950672682E+02  0.10500000000E+00 0. -1.
         13    1    6    6    0    0 -0.52965852410E+01 -0.15814542569E+02 -0.83723515478E+01  0.18661748775E+02  0.10500000000E+00 0.  1.
</event>
<event>
11    0  0.3422856E-009  0.9118800E+02  0.7816531E-02  0.1126479E+00
         25   -1    0    0    0    0  0.00000000000E+00  0.00000000000E+00  0.99999998245E-14  0.12500000000E+03  0.12500000000E+03 0.  0.
    3000001    1    3    3    0    0  0.16867969154E+01  0.60961783486E+01 -0.30587099631E+01  0.70967866623E+01  0.10000000000E+01 0.  1.
    1000022    2    1    0    0    0  0.37110667939E+02  0.47350427775E+02 -0.13674263266E+02  0.62500001390E+02  0.10000000622E+02 0.  0.
    3000022    2    3    3    0    0  0.35423871024E+02  0.41254249426E+02 -0.10615553303E+02  0.55403214727E+02  0.24999224548E+00 0.  0.
    1000022    2    1    0    0    0 -0.37110667939E+02 -0.47350427775E+02  0.13674263266E+02  0.62499998610E+02  0.99999832516E+01 0.  0.
    3000022    2    5    5    0    0 -0.27702997861E+02 -0.41288154583E+02  0.11882948196E+02  0.51121764027E+02  0.25000008623E+00 0.  0.
        -13    1    4    4    0    0  0.14625321605E+02  0.17098890271E+02 -0.44411306602E+01  0.22934836976E+02  0.10500000000E+00 0.  1.
         13    1    4    4    0    0  0.20798549419E+02  0.24155359155E+02 -0.61744226429E+01  0.32468377751E+02  0.10500000000E+00 0. -1.
    3000001    1    5    5    0    0 -0.94076700780E+01 -0.60622731924E+01  0.17913150703E+01  0.11378234584E+02  0.10000000000E+01 0.  1.
        -13    1    6    6    0    0 -0.18124045074E+02 -0.27100585756E+02  0.78176961319E+01  0.33526857234E+02  0.10500000000E+00 0.  1.
         13    1    6    6    0    0 -0.95789527871E+01 -0.14187568826E+02  0.40652520640E+01  0.17594906793E+02  0.10500000000E+00 0. -1.
</event>
<event>
11    0  0.3422856E-009  0.9118800E+02  0.7816531E-02  0.1126479E+00
         25   -1    0    0    0    0  0.00000000000E+00  0.00000000000E+00  0.99999998245E-14  0.12500000000E+03  0.12500000000E+03 0.  0.
    3000001    1    3    3    0    0 -0.15853735961E+02 -0.73845512595E+01 -0.15402156973E+02  0.23325929363E+02  0.10000000000E+01 0.  1.
    1000022    2    1    0    0    0 -0.49021978616E+02 -0.21778991770E+02 -0.30475747214E+02  0.62500000873E+02  0.10000003541E+02 0.  0.
    3000022    2    3    3    0    0 -0.33168242655E+02 -0.14394440511E+02 -0.15073590242E+02  0.39174071510E+02  0.25003486385E+00 0.  0.
    1000022    2    1    0    0    0  0.49021978616E+02  0.21778991770E+02  0.30475747214E+02  0.62499999127E+02  0.99999926345E+01 0.  0.
    3000022    2    5    5    0    0  0.60232485839E+01 -0.51789137406E+00  0.44054048189E+01  0.74845055375E+01  0.24999308626E+00 0.  0.
        -13    1    4    4    0    0 -0.11328627430E+02 -0.48642856595E+01 -0.51692364099E+01  0.13369035286E+02  0.10500000000E+00 0.  1.
         13    1    4    4    0    0 -0.21839615225E+02 -0.95301548512E+01 -0.99043538317E+01  0.25805036224E+02  0.10500000000E+00 0. -1.
    3000001    1    5    5    0    0  0.42998730032E+02  0.22296883144E+02  0.26070342396E+02  0.55015493590E+02  0.10000000000E+01 0.  1.
        -13    1    6    6    0    0  0.22368124504E+01 -0.25119784838E+00  0.16260258396E+01  0.27787434801E+01  0.10500000000E+00 0.  1.
         13    1    6    6    0    0  0.37864361336E+01 -0.26669352567E+00  0.27793789793E+01  0.47057620574E+01  0.10500000000E+00 0.  1.
</event>
<event>
11    0  0.3422856E-009  0.9118800E+02  0.7816531E-02  0.1126479E+00
         25   -1    0    0    0    0  0.00000000000E+00  0.00000000000E+00  0.99999998245E-14  0.12500000000E+03  0.12500000000E+03 0.  0.
    3000001    1    3    3    0    0  0.44247275829E+01  0.50464711214E+02  0.32625992897E+02  0.60263759463E+02  0.10000000000E+01 0. -1.
    1000022    2    1    0    0    0  0.32953770481E+01  0.52370110608E+02  0.32446294732E+02  0.62500000348E+02  0.10000000333E+02 0.  0.
    3000022    2    3    3    0    0 -0.11293505348E+01  0.19053993945E+01 -0.17969816488E+00  0.22362408853E+01  0.25000476721E+00 0.  0.
    1000022    2    1    0    0    0 -0.32953770481E+01 -0.52370110608E+02 -0.32446294732E+02  0.62499999652E+02  0.99999959834E+01 0.  0.
    3000022    2    5    5    0    0  0.11372700090E+01 -0.27509452319E+02 -0.12191697557E+02  0.30112511370E+02  0.25000341946E+00 0.  0.
        -13    1    4    4    0    0 -0.53234766735E+00  0.90357548135E+00 -0.15281253479E+00  0.10649973522E+01  0.10500000000E+00 0. -1.
         13    1    4    4    0    0 -0.59700286742E+00  0.10018239132E+01 -0.26885630088E-01  0.11712435331E+01  0.10500000000E+00 0.  1.
    3000001    1    5    5    0    0 -0.44326470572E+01 -0.24860658289E+02 -0.20254597175E+02  0.32387488282E+02  0.10000000000E+01 0.  1.
        -13    1    6    6    0    0  0.52393691626E+00 -0.12279026395E+02 -0.55126946803E+01  0.13470331353E+02  0.10500000000E+00 0. -1.
         13    1    6    6    0    0  0.61333309279E+00 -0.15230425924E+02 -0.66790028763E+01  0.16642180017E+02  0.10500000000E+00 0.  1.
</event>
<event>
11    0  0.3422856E-009  0.9118800E+02  0.7816531E-02  0.1126479E+00
         25   -1    0    0    0    0  0.00000000000E+00  0.00000000000E+00  0.99999998245E-14  0.12500000000E+03  0.12500000000E+03 0.  0.
    3000001    1    3    3    0    0 -0.50639023597E+02 -0.10089273729E+02  0.28196769392E+02  0.58840139015E+02  0.10000000000E+01 0. -1.
    1000022    2    1    0    0    0 -0.53044247169E+02 -0.84011681157E+01  0.30364096081E+02  0.62500001075E+02  0.10000001003E+02 0.  0.
    3000022    2    3    3    0    0 -0.24052235723E+01  0.16881056129E+01  0.21673266891E+01  0.36598620591E+01  0.24996864118E+00 0.  0.
    1000022    2    1    0    0    0  0.53044247169E+02  0.84011681157E+01 -0.30364096081E+02  0.62499998925E+02  0.99999875705E+01 0.  0.
    3000022    2    5    5    0    0  0.42796568561E+02  0.61235777498E+01 -0.28524984124E+02  0.51795576124E+02  0.25000328454E+00 0.  0.
        -13    1    4    4    0    0 -0.13156142509E+01  0.10038653815E+01  0.12225935909E+01  0.20601812177E+01  0.10500000000E+00 0.  1.
         13    1    4    4    0    0 -0.10896093214E+01  0.68424023137E+00  0.94473309822E+00  0.15996808414E+01  0.10500000000E+00 0. -1.
    3000001    1    5    5    0    0  0.10247678608E+02  0.22775903659E+01 -0.18391119571E+01  0.10704422802E+02  0.10000000000E+01 0.  1.
        -13    1    6    6    0    0  0.18258687792E+02  0.25743587332E+01 -0.12230140369E+02  0.22126779278E+02  0.10500000000E+00 0.  1.
         13    1    6    6    0    0  0.24537880769E+02  0.35492190165E+01 -0.16294843755E+02  0.29668796846E+02  0.10500000000E+00 0. -1.
</event>
<event>
11    0  0.3422856E-009  0.9118800E+02  0.7816531E-02  0.1126479E+00
         25   -1    0    0    0    0  0.00000000000E+00  0.00000000000E+00  0.99999998245E-14  0.12500000000E+03  0.12500000000E+03 0.  0.
    3000001    1    3    3    0    0 -0.24752203297E+02  0.30836601252E+02 -0.42774937851E+01  0.39785229645E+02  0.10000000000E+01 0. -1.
    1000022    2    1    0    0    0 -0.36888429438E+02  0.47466289598E+02 -0.13872470857E+02  0.62499996438E+02  0.99999616253E+01 0.  0.
    3000022    2    3    3    0    0 -0.12136226141E+02  0.16629688347E+02 -0.95949770724E+01  0.22714766794E+02  0.25005204465E+00 0.  0.
    1000022    2    1    0    0    0  0.36888429438E+02 -0.47466289598E+02  0.13872470857E+02  0.62500003562E+02  0.10000006145E+02 0.  0.
    3000022    2    5    5    0    0  0.16962659309E+02 -0.29522668228E+02  0.91137568284E+01  0.35248302287E+02  0.25000103091E+00 0.  0.
        -13    1    4    4    0    0 -0.44902831439E+01  0.62099680280E+01 -0.35171222123E+01  0.84325274549E+01  0.10500000000E+00 0. -1.
         13    1    4    4    0    0 -0.76459429967E+01  0.10419720319E+02 -0.60778548601E+01  0.14282239339E+02  0.10500000000E+00 0.  1.
    3000001    1    5    5    0    0  0.19925770129E+02 -0.17943621371E+02  0.47587140291E+01  0.27251701274E+02  0.10000000000E+01 0.  1.
        -13    1    6    6    0    0  0.73218051317E+01 -0.12684959877E+02  0.39812181614E+01  0.15178213351E+02  0.10500000000E+00 0. -1.
         13    1    6    6    0    0  0.96408541770E+01 -0.16837708351E+02  0.51325386670E+01  0.20070088937E+02  0.10500000000E+00 0.  1.
</event>
<event>
11    0  0.3422856E-009  0.9118800E+02  0.7816531E-02  0.1126479E+00
         25   -1    0    0    0    0  0.00000000000E+00  0.00000000000E+00  0.99999998245E-14  0.12500000000E+03  0.12500000000E+03 0.  0.
    3000001    1    3    3    0    0  0.25341959691E+02  0.21443343784E+02 -0.19214083231E+02  0.38369426736E+02  0.10000000000E+01 0.  1.
    1000022    2    1    0    0    0  0.45548421809E+02  0.28388534551E+02 -0.30425026909E+02  0.62499999553E+02  0.10000002926E+02 0.  0.
    3000022    2    3    3    0    0  0.20206462118E+02  0.69451907661E+01 -0.11210943677E+02  0.24130572817E+02  0.25000046263E+00 0.  0.
    1000022    2    1    0    0    0 -0.45548421809E+02 -0.28388534551E+02  0.30425026909E+02  0.62500000447E+02  0.10000008516E+02 0.  0.
    3000022    2    5    5    0    0 -0.10282154784E+02 -0.56003251214E+01  0.11567324894E+02  0.16460615089E+02  0.24999090712E+00 0.  0.
        -13    1    4    4    0    0  0.14946895067E+02  0.51703578396E+01 -0.83035947641E+01  0.17863453847E+02  0.10500000000E+00 0. -1.
         13    1    4    4    0    0  0.52595670506E+01  0.17748329265E+01 -0.29073489133E+01  0.62671189697E+01  0.10500000000E+00 0.  1.
    3000001    1    5    5    0    0 -0.35266267025E+02 -0.22788209429E+02  0.18857702015E+02  0.46039385358E+02  0.10000000000E+01 0.  1.
        -13    1    6    6    0    0 -0.28802447879E+01 -0.16146770875E+01  0.32661007900E+01  0.46455819340E+01  0.10500000000E+00 0. -1.
         13    1    6    6    0    0 -0.74019099960E+01 -0.39856480340E+01  0.83012241037E+01  0.11815033155E+02  0.10500000000E+00 0.  1.
</event>
<event>
11    0  0.3422856E-009  0.9118800E+02  0.7816531E-02  0.1126479E+00
         25   -1    0    0    0    0  0.00000000000E+00  0.00000000000E+00  0.99999998245E-14  0.12500000000E+03  0.12500000000E+03 0.  0.
    3000001    1    3    3    0    0 -0.40612236236E+01 -0.17401094638E+02  0.47648473647E+01  0.18520135051E+02  0.10000000000E+01 0. -1.
    1000022    2    1    0    0    0 -0.22901480167E+01 -0.61311251104E+02  0.64757977412E+01  0.62499998624E+02  0.99999790886E+01 0.  0.
    3000022    2    3    3    0    0  0.17710756069E+01 -0.43910156466E+02  0.17109503765E+01  0.43979863573E+02  0.24999800607E+00 0.  0.
    1000022    2    1    0    0    0  0.22901480167E+01  0.61311251104E+02 -0.64757977412E+01  0.62500001376E+02  0.99999962862E+01 0.  0.
    3000022    2    5    5    0    0  0.11449966307E+01  0.52827770794E+01  0.20886989618E+01  0.58003375586E+01  0.25000296997E+00 0.  0.
        -13    1    4    4    0    0  0.72442030474E+00 -0.19309695674E+02  0.71465825343E+00  0.19336775668E+02  0.10500000000E+00 0.  1.
         13    1    4    4    0    0  0.10466553021E+01 -0.24600460792E+02  0.99629212310E+00  0.24643087905E+02  0.10500000000E+00 0. -1.
    3000001    1    5    5    0    0  0.11451513860E+01  0.56028474025E+02 -0.85644967031E+01  0.56699663817E+02  0.10000000000E+01 0.  1.
        -13    1    6    6    0    0  0.61647127626E+00  0.26851118494E+01  0.10013840317E+01  0.29331991847E+01  0.10500000000E+00 0. -1.
         13    1    6    6    0    0  0.52852535442E+00  0.25976652300E+01  0.10873149302E+01  0.28671383739E+01  0.10500000000E+00 0.  1.
</event>
<event>
11    0  0.3422856E-009  0.9118800E+02  0.7816531E-02  0.1126479E+00
         25   -1    0    0    0    0  0.00000000000E+00  0.00000000000E+00  0.99999998245E-14  0.12500000000E+03  0.12500000000E+03 0.  0.
    3000001    1    3    3    0    0  0.12379710890E+02  0.24054159479E+02 -0.14339737985E+02  0.30634750128E+02  0.10000000000E+01 0.  1.
    1000022    2    1    0    0    0  0.33574509262E+02  0.45368143191E+02 -0.24914533659E+02  0.62500000419E+02  0.99999988075E+01 0.  0.
    3000022    2    3    3    0    0  0.21194798372E+02  0.21313983712E+02 -0.10574795674E+02  0.31865250290E+02  0.24998565157E+00 0.  0.
    1000022    2    1    0    0    0 -0.33574509262E+02 -0.45368143191E+02  0.24914533659E+02  0.62499999581E+02  0.99999935748E+01 0.  0.
    3000022    2    5    5    0    0 -0.25401852517E+02 -0.39966376727E+02  0.19092539093E+02  0.51060287176E+02  0.24999497856E+00 0.  0.
        -13    1    4    4    0    0  0.13835946630E+02  0.13989086625E+02 -0.69040561956E+01  0.20851977861E+02  0.10500000000E+00 0.  1.
         13    1    4    4    0    0  0.73588517419E+01  0.73248970866E+01 -0.36707394785E+01  0.11013272430E+02  0.10500000000E+00 0. -1.
    3000001    1    5    5    0    0 -0.81726567441E+01 -0.54017664634E+01  0.58219945661E+01  0.11439712405E+02  0.10000000000E+01 0.  1.
        -13    1    6    6    0    0 -0.14587609807E+02 -0.23036707287E+02  0.11043331482E+02  0.29418606999E+02  0.10500000000E+00 0. -1.
         13    1    6    6    0    0 -0.10814242711E+02 -0.16929669440E+02  0.80492076111E+01  0.21641680178E+02  0.10500000000E+00 0.  1.
</event>
<event>
11    0  0.3422856E-009  0.9118800E+02  0.7816531E-02  0.1126479E+00
         25   -1    0    0    0    0  0.00000000000E+00  0.00000000000E+00  0.99999998245E-14  0.12500000000E+03  0.12500000000E+03 0.  0.
    3000001    1    3    3    0    0  0.53909576351E+02 -0.18607938739E+02  0.17670193006E+02  0.59713763299E+02  0.10000000000E+01 0.  1.
    1000022    2    1    0    0    0  0.54851459465E+02 -0.20191165976E+02  0.19745488870E+02  0.62499998890E+02  0.99999870772E+01 0.  0.
    3000022    2    3    3    0    0  0.94188311466E+00 -0.15832272370E+01  0.20752958643E+01  0.27862355911E+01  0.25000711750E+00 0.  0.
    1000022    2    1    0    0    0 -0.54851459465E+02  0.20191165976E+02 -0.19745488870E+02  0.62500001110E+02  0.10000000956E+02 0.  0.
    3000022    2    5    5    0    0 -0.10830315128E+01  0.19842057328E+01  0.28922012069E+00  0.22926360282E+01  0.25000406325E+00 0.  0.
        -13    1    4    4    0    0  0.35668228140E+00 -0.68871257423E+00  0.94442112782E+00  0.12265820504E+01  0.10500000000E+00 0. -1.
         13    1    4    4    0    0  0.58520083326E+00 -0.89451466280E+00  0.11308747365E+01  0.15596535406E+01  0.10500000000E+00 0.  1.
    3000001    1    5    5    0    0 -0.53768427952E+02  0.18206960244E+02 -0.20034708991E+02  0.60207365082E+02  0.10000000000E+01 0.  1.
        -13    1    6    6    0    0 -0.72018648824E+00  0.13591992960E+01  0.24373940650E+00  0.15609372833E+01  0.10500000000E+00 0. -1.
         13    1    6    6    0    0 -0.36284502453E+00  0.62500643684E+00  0.45480714195E-01  0.73169874489E+00  0.10500000000E+00 0.  1.
</event>
<event>
11    0  0.3422856E-009  0.9118800E+02  0.7816531E-02  0.1126479E+00
         25   -1    0    0    0    0  0.00000000000E+00  0.00000000000E+00  0.99999998245E-14  0.12500000000E+03  0.12500000000E+03 0.  0.
    3000001    1    3    3    0    0  0.32950927578E+02 -0.16570170263E+02 -0.43962531072E+02  0.57393713149E+02  0.10000000000E+01 0. -1.
    1000022    2    1    0    0    0  0.35437870856E+02 -0.15139046836E+02 -0.48179005740E+02  0.62500000096E+02  0.99999993984E+01 0.  0.
    3000022    2    3    3    0    0  0.24869432784E+01  0.14311234278E+01 -0.42164746676E+01  0.51062869463E+01  0.25001323884E+00 0.  0.
    1000022    2    1    0    0    0 -0.35437870856E+02  0.15139046836E+02  0.48179005740E+02  0.62499999904E+02  0.99999982015E+01 0.  0.
    3000022    2    5    5    0    0 -0.16608667926E+01  0.37189543373E+01  0.39409388201E+01  0.56729721711E+01  0.25002920668E+00 0.  0.
        -13    1    4    4    0    0  0.16587508705E+01  0.98172243907E+00 -0.27433071709E+01  0.33543989971E+01  0.10500000000E+00 0. -1.
         13    1    4    4    0    0  0.82819240797E+00  0.44940098877E+00 -0.14731674967E+01  0.17518879492E+01  0.10500000000E+00 0.  1.
    3000001    1    5    5    0    0 -0.33777004064E+02  0.11420092498E+02  0.44238066920E+02  0.56827027733E+02  0.10000000000E+01 0. -1.
        -13    1    6    6    0    0 -0.51793933524E+00  0.10638267342E+01  0.11218463090E+01  0.16338765609E+01  0.10500000000E+00 0.  1.
         13    1    6    6    0    0 -0.11429274574E+01  0.26551276031E+01  0.28190925112E+01  0.40390956102E+01  0.10500000000E+00 0. -1.
</event>
<event>
11    0  0.3422856E-009  0.9118800E+02  0.7816531E-02  0.1126479E+00
         25   -1    0    0    0    0  0.00000000000E+00  0.00000000000E+00  0.99999998245E-14  0.12500000000E+03  0.12500000000E+03 0.  0.
    3000001    1    3    3    0    0  0.93517438561E+00  0.18035030188E+01 -0.65348949564E-01  0.22652692457E+01  0.10000000000E+01 0.  1.
    1000022    2    1    0    0    0  0.36849860862E+02  0.29984672006E+02 -0.39360602048E+02  0.62499996964E+02  0.99999913012E+01 0.  0.
    3000022    2    3    3    0    0  0.35914686477E+02  0.28181168987E+02 -0.39295253099E+02  0.60234727719E+02  0.25003401148E+00 0.  0.
    1000022    2    1    0    0    0 -0.36849860862E+02 -0.29984672006E+02  0.39360602048E+02  0.62500003036E+02  0.10000029248E+02 0.  0.
    3000022    2    5    5    0    0 -0.18379829987E+02 -0.12269768198E+02  0.24043239777E+02  0.32657391815E+02  0.24999848703E+00 0.  0.
        -13    1    4    4    0    0  0.86653793795E+01  0.67835002356E+01 -0.94517871203E+01  0.14506963156E+02  0.10500000000E+00 0.  1.
         13    1    4    4    0    0  0.27249307097E+02  0.21397668752E+02 -0.29843465979E+02  0.45727764563E+02  0.10500000000E+00 0. -1.
    3000001    1    5    5    0    0 -0.18470030876E+02 -0.17714903809E+02  0.15317362272E+02  0.29842611221E+02  0.10000000000E+01 0. -1.
        -13    1    6    6    0    0 -0.92346567829E+01 -0.61017635954E+01  0.12105744113E+02  0.16403367654E+02  0.10500000000E+00 0.  1.
         13    1    6    6    0    0 -0.91451732037E+01 -0.61680046022E+01  0.11937495664E+02  0.16254024161E+02  0.10500000000E+00 0. -1.
</event>
<event>
11    0  0.3422856E-009  0.9118800E+02  0.7816531E-02  0.1126479E+00
         25   -1    0    0    0    0  0.00000000000E+00  0.00000000000E+00  0.99999998245E-14  0.12500000000E+03  0.12500000000E+03 0.  0.
    3000001    1    3    3    0    0  0.30535672517E+00 -0.12027207764E+02 -0.38703519102E+02  0.40542685656E+02  0.10000000000E+01 0. -1.
    1000022    2    1    0    0    0 -0.22238422994E+01 -0.24563218589E+02 -0.56550446097E+02  0.62500001524E+02  0.10000002732E+02 0.  0.
    3000022    2    3    3    0    0 -0.25291990246E+01 -0.12536010825E+02 -0.17846926996E+02  0.21957315868E+02  0.25000365715E+00 0.  0.
    1000022    2    1    0    0    0  0.22238422994E+01  0.24563218589E+02  0.56550446097E+02  0.62499998476E+02  0.99999836823E+01 0.  0.
    3000022    2    5    5    0    0  0.43092724347E+01  0.70328025856E+01  0.11949791432E+02  0.14522056662E+02  0.24994660522E+00 0.  0.
        -13    1    4    4    0    0 -0.18532790695E+01 -0.93201890008E+01 -0.13235102811E+02  0.16293542824E+02  0.10500000000E+00 0.  1.
         13    1    4    4    0    0 -0.67591995512E+00 -0.32158218245E+01 -0.46118241843E+01  0.56637730445E+01  0.10500000000E+00 0. -1.
    3000001    1    5    5    0    0 -0.20854301353E+01  0.17530416004E+02  0.44600654665E+02  0.47977941814E+02  0.10000000000E+01 0. -1.
        -13    1    6    6    0    0  0.28387522508E+01  0.46928991883E+01  0.80212525751E+01  0.97176815654E+01  0.10500000000E+00 0. -1.
         13    1    6    6    0    0  0.14705201839E+01  0.23399033973E+01  0.39285388569E+01  0.48043750967E+01  0.10500000000E+00 0.  1.
</event>
<event>
11    0  0.3422856E-009  0.9118800E+02  0.7816531E-02  0.1126479E+00
         25   -1    0    0    0    0  0.00000000000E+00  0.00000000000E+00  0.99999998245E-14  0.12500000000E+03  0.12500000000E+03 0.  0.
    3000001    1    3    3    0    0 -0.27762232812E+02 -0.32549123337E+02  0.14193237699E+02  0.45084753489E+02  0.10000000000E+01 0. -1.
    1000022    2    1    0    0    0 -0.38400607131E+02 -0.41509256393E+02  0.24670318947E+02  0.62499997366E+02  0.10000001973E+02 0.  0.
    3000022    2    3    3    0    0 -0.10638374319E+02 -0.89601330554E+01  0.10477081249E+02  0.17415243878E+02  0.24999060079E+00 0.  0.
    1000022    2    1    0    0    0  0.38400607131E+02  0.41509256393E+02 -0.24670318947E+02  0.62500002634E+02  0.10000034897E+02 0.  0.
    3000022    2    5    5    0    0  0.23930324484E+02  0.32365225475E+02 -0.16429183619E+02  0.43475841869E+02  0.25000369229E+00 0.  0.
        -13    1    4    4    0    0 -0.35500655182E+01 -0.29712612325E+01  0.34232920695E+01  0.57585859452E+01  0.10500000000E+00 0.  1.
         13    1    4    4    0    0 -0.70883088010E+01 -0.59888718228E+01  0.70537891790E+01  0.11656657932E+02  0.10500000000E+00 0. -1.
    3000001    1    5    5    0    0  0.14470282648E+02  0.91440309176E+01 -0.82411353280E+01  0.19024160765E+02  0.10000000000E+01 0. -1.
        -13    1    6    6    0    0  0.13677505248E+02  0.18390530329E+02 -0.93690992412E+01  0.24760387743E+02  0.10500000000E+00 0. -1.
         13    1    6    6    0    0  0.10252819236E+02  0.13974695146E+02 -0.70600843780E+01  0.18715454126E+02  0.10500000000E+00 0.  1.
</event>
<event>
11    0  0.3422856E-009  0.9118800E+02  0.7816531E-02  0.1126479E+00
         25   -1    0    0    0    0  0.00000000000E+00  0.00000000000E+00  0.99999998245E-14  0.12500000000E+03  0.12500000000E+03 0.  0.
    3000001    1    3    3    0    0 -0.56435732526E+01  0.69254410291E+01 -0.15064757004E+01  0.91148846148E+01  0.10000000000E+01 0. -1.
    1000022    2    1    0    0    0 -0.30713414766E+02  0.52349917339E+02  0.11064455967E+02  0.62500002941E+02  0.10000024490E+02 0.  0.
    3000022    2    3    3    0    0 -0.25069841513E+02  0.45424476309E+02  0.12570931668E+02  0.53385118326E+02  0.25006835568E+00 0.  0.
    1000022    2    1    0    0    0  0.30713414766E+02 -0.52349917339E+02 -0.11064455967E+02  0.62499997059E+02  0.99999877330E+01 0.  0.
    3000022    2    5    5    0    0  0.16972274413E+02 -0.37660624009E+02 -0.87757422272E+01  0.42230993944E+02  0.24999673845E+00 0.  0.
        -13    1    4    4    0    0 -0.16431007288E+02  0.29658038007E+02  0.82263757964E+01  0.34889274895E+02  0.10500000000E+00 0. -1.
         13    1    4    4    0    0 -0.86388342246E+01  0.15766438302E+02  0.43445558714E+01  0.18495843431E+02  0.10500000000E+00 0.  1.
    3000001    1    5    5    0    0  0.13741140352E+02 -0.14689293330E+02 -0.22887137402E+01  0.20269003115E+02  0.10000000000E+01 0. -1.
        -13    1    6    6    0    0  0.10002344064E+02 -0.22214605993E+02 -0.51107820041E+01  0.24893105951E+02  0.10500000000E+00 0. -1.
         13    1    6    6    0    0  0.69699303488E+01 -0.15446018016E+02 -0.36649602230E+01  0.17337887993E+02  0.10500000000E+00 0.  1.
</event>
<event>
11    0  0.3422856E-009  0.9118800E+02  0.7816531E-02  0.1126479E+00
         25   -1    0    0    0    0  0.00000000000E+00  0.00000000000E+00  0.99999998245E-14  0.12500000000E+03  0.12500000000E+03 0.  0.
    3000001    1    3    3    0    0  0.16278770465E+01 -0.11689867189E+02 -0.36086485662E+02  0.37980750730E+02  0.10000000000E+01 0.  1.
    1000022    2    1    0    0    0  0.75558606534E+01 -0.24590681357E+02 -0.56075462648E+02  0.62500002157E+02  0.10000005929E+02 0.  0.
    3000022    2    3    3    0    0  0.59279836069E+01 -0.12900814168E+02 -0.19988976986E+02  0.24519251427E+02  0.24998748343E+00 0.  0.
    1000022    2    1    0    0    0 -0.75558606534E+01  0.24590681357E+02  0.56075462648E+02  0.62499997843E+02  0.99999789694E+01 0.  0.
    3000022    2    5    5    0    0  0.84834613400E+00  0.11755218643E+01  0.42093127560E+00  0.15301097993E+01  0.25002008428E+00 0.  0.
        -13    1    4    4    0    0  0.15517404528E+01 -0.34485154814E+01 -0.53550668232E+01  0.65565176077E+01  0.10500000000E+00 0.  1.
         13    1    4    4    0    0  0.43762431541E+01 -0.94522986867E+01 -0.14633910163E+02  0.17962733820E+02  0.10500000000E+00 0. -1.
    3000001    1    5    5    0    0 -0.84042067874E+01  0.23415159492E+02  0.55654531373E+02  0.60969888044E+02  0.10000000000E+01 0. -1.
        -13    1    6    6    0    0  0.51890663150E+00  0.63900988997E+00  0.18972259571E+00  0.85124461526E+00  0.10500000000E+00 0. -1.
         13    1    6    6    0    0  0.32943950251E+00  0.53651197438E+00  0.23120867989E+00  0.67886518405E+00  0.10500000000E+00 0.  1.
</event>
<event>
11    0  0.3422856E-009  0.9118800E+02  0.7816531E-02  0.1126479E+00
         25   -1    0    0    0    0  0.00000000000E+00  0.00000000000E+00  0.99999998245E-14  0.12500000000E+03  0.12500000000E+03 0.  0.
    3000001    1    3    3    0    0  0.44328938756E+02  0.20253478007E+02  0.26143234745E+02  0.55314798251E+02  0.10000000000E+01 0. -1.
    1000022    2    1    0    0    0  0.51433435668E+02  0.20625205923E+02  0.27119230222E+02  0.62500000426E+02  0.99999990701E+01 0.  0.
    3000022    2    3    3    0    0  0.71044969127E+01  0.37172791586E+00  0.97599547689E+00  0.71852021752E+01  0.25001020331E+00 0.  0.
    1000022    2    1    0    0    0 -0.51433435668E+02 -0.20625205923E+02 -0.27119230222E+02  0.62499999574E+02  0.99999937430E+01 0.  0.
    3000022    2    5    5    0    0 -0.35455741354E+01  0.44950599120E-01  0.29608124064E+00  0.35669701637E+01  0.24999108257E+00 0.  0.
        -13    1    4    4    0    0  0.37006126612E+01  0.21541182166E+00  0.57314336139E+00  0.37523931875E+01  0.10500000000E+00 0. -1.
         13    1    4    4    0    0  0.34038842516E+01  0.15631609420E+00  0.40285211550E+00  0.34328089877E+01  0.10500000000E+00 0.  1.
    3000001    1    5    5    0    0 -0.47887861533E+02 -0.20670156522E+02 -0.27415311463E+02  0.58933029410E+02  0.10000000000E+01 0. -1.
        -13    1    6    6    0    0 -0.19857283822E+01  0.16419673587E-01  0.23151305610E+00  0.20020015256E+01  0.10500000000E+00 0. -1.
         13    1    6    6    0    0 -0.15598457532E+01  0.28530925533E-01  0.64568184544E-01  0.15649686380E+01  0.10500000000E+00 0.  1.
</event>
<event>
11    0  0.3422856E-009  0.9118800E+02  0.7816531E-02  0.1126479E+00
         25   -1    0    0    0    0  0.00000000000E+00  0.00000000000E+00  0.99999998245E-14  0.12500000000E+03  0.12500000000E+03 0.  0.
    3000001    1    3    3    0    0  0.15010552900E+02 -0.56161887669E+02  0.33658690531E+01  0.58239191267E+02  0.10000000000E+01 0.  1.
    1000022    2    1    0    0    0  0.17621106632E+02 -0.58883873745E+02  0.53325394309E+01  0.62499999856E+02  0.10000000953E+02 0.  0.
    3000022    2    3    3    0    0  0.26105537320E+01 -0.27219860758E+01  0.19666703778E+01  0.42608085891E+01  0.24999694651E+00 0.  0.
    1000022    2    1    0    0    0 -0.17621106632E+02  0.58883873745E+02 -0.53325394309E+01  0.62500000144E+02  0.10000002751E+02 0.  0.
    3000022    2    5    5    0    0 -0.72085025054E+01  0.34988940520E+02  0.68243926810E+00  0.35731172615E+02  0.25001197943E+00 0.  0.
        -13    1    4    4    0    0  0.15085624138E+01 -0.16267446481E+01  0.12148623379E+01  0.25315951901E+01  0.10500000000E+00 0. -1.
         13    1    4    4    0    0  0.11019913182E+01 -0.10952414277E+01  0.75180803989E+00  0.17292133989E+01  0.10500000000E+00 0.  1.
    3000001    1    5    5    0    0 -0.10412604127E+02  0.23894933225E+02 -0.60149786990E+01  0.26768827529E+02  0.10000000000E+01 0. -1.
        -13    1    6    6    0    0 -0.33673850236E+01  0.16470516709E+02  0.38363842420E+00  0.16815927152E+02  0.10500000000E+00 0. -1.
         13    1    6    6    0    0 -0.38411174818E+01  0.18518423811E+02  0.29880084390E+00  0.18915245463E+02  0.10500000000E+00 0.  1.
</event>
<event>
11    0  0.3422856E-009  0.9118800E+02  0.7816531E-02  0.1126479E+00
         25   -1    0    0    0    0  0.00000000000E+00  0.00000000000E+00  0.99999998245E-14  0.12500000000E+03  0.12500000000E+03 0.  0.
    3000001    1    3    3    0    0  0.29413047789E+02  0.13090717918E+02 -0.21682842521E+02  0.38828339337E+02  0.10000000000E+01 0. -1.
    1000022    2    1    0    0    0  0.41439209077E+02  0.22895192273E+02 -0.39558210455E+02  0.62500000665E+02  0.10000009530E+02 0.  0.
    3000022    2    3    3    0    0  0.12026161289E+02  0.98044743547E+01 -0.17875367934E+02  0.23671661329E+02  0.24999717175E+00 0.  0.
    1000022    2    1    0    0    0 -0.41439209077E+02 -0.22895192273E+02  0.39558210455E+02  0.62499999335E+02  0.10000001214E+02 0.  0.
    3000022    2    5    5    0    0 -0.14364165876E+02 -0.92674633447E+01  0.85078339496E+01  0.19096095809E+02  0.24999699725E+00 0.  0.
        -13    1    4    4    0    0  0.70058290918E+01  0.56323046189E+01 -0.10386846907E+02  0.13736888667E+02  0.10500000000E+00 0.  1.
         13    1    4    4    0    0  0.50203321969E+01  0.41721697357E+01 -0.74885210266E+01  0.99347726616E+01  0.10500000000E+00 0. -1.
    3000001    1    5    5    0    0 -0.27075043202E+02 -0.13627728928E+02  0.31050376505E+02  0.43403903525E+02  0.10000000000E+01 0. -1.
        -13    1    6    6    0    0 -0.96025023441E+01 -0.61779352518E+01  0.57397295698E+01  0.12780080429E+02  0.10500000000E+00 0.  1.
         13    1    6    6    0    0 -0.47616635316E+01 -0.30895280929E+01  0.27681043799E+01  0.63160153802E+01  0.10500000000E+00 0. -1.
</event>
<event>
11    0  0.3422856E-009  0.9118800E+02  0.7816531E-02  0.1126479E+00
         25   -1    0    0    0    0  0.00000000000E+00  0.00000000000E+00  0.99999998245E-14  0.12500000000E+03  0.12500000000E+03 0.  0.
    3000001    1    3    3    0    0  0.20396588970E+02  0.30291034707E+02 -0.83264513376E+01  0.37468619097E+02  0.10000000000E+01 0.  1.
    1000022    2    1    0    0    0  0.26613716579E+02  0.53745119964E+02 -0.14471428782E+02  0.62500000164E+02  0.99999969750E+01 0.  0.
    3000022    2    3    3    0    0  0.62171276091E+01  0.23454085257E+02 -0.61449774447E+01  0.25031381067E+02  0.24999873266E+00 0.  0.
    1000022    2    1    0    0    0 -0.26613716579E+02 -0.53745119964E+02  0.14471428782E+02  0.62499999836E+02  0.99999949195E+01 0.  0.
    3000022    2    5    5    0    0 -0.30497390750E+01 -0.89911990677E+01  0.59267870605E+01  0.11195171861E+02  0.24999806252E+00 0.  0.
        -13    1    4    4    0    0  0.30783444772E+01  0.11787366231E+02 -0.30326490527E+01  0.12554927027E+02  0.10500000000E+00 0.  1.
         13    1    4    4    0    0  0.31387831319E+01  0.11666719026E+02 -0.31123283920E+01  0.12476454040E+02  0.10500000000E+00 0. -1.
    3000001    1    5    5    0    0 -0.23563977504E+02 -0.44753920896E+02  0.85446417218E+01  0.51304827975E+02  0.10000000000E+01 0. -1.
        -13    1    6    6    0    0 -0.19257486989E+01 -0.54852433384E+01  0.36281810725E+01  0.68535483822E+01  0.10500000000E+00 0. -1.
         13    1    6    6    0    0 -0.11239903761E+01 -0.35059557293E+01  0.22986059879E+01  0.43416234785E+01  0.10500000000E+00 0.  1.
</event>
<event>
11    0  0.3422856E-009  0.9118800E+02  0.7816531E-02  0.1126479E+00
         25   -1    0    0    0    0  0.00000000000E+00  0.00000000000E+00  0.99999998245E-14  0.12500000000E+03  0.12500000000E+03 0.  0.
    3000001    1    3    3    0    0  0.20710090268E+02  0.47120136637E+02  0.11877708401E+02  0.52832708358E+02  0.10000000000E+01 0.  1.
    1000022    2    1    0    0    0  0.23333398210E+02  0.54251376278E+02  0.17849118552E+02  0.62500001636E+02  0.99999935692E+01 0.  0.
    3000022    2    3    3    0    0  0.26233079418E+01  0.71312396414E+01  0.59714101504E+01  0.96672932784E+01  0.24999352953E+00 0.  0.
    1000022    2    1    0    0    0 -0.23333398210E+02 -0.54251376278E+02 -0.17849118552E+02  0.62499998364E+02  0.99999731149E+01 0.  0.
    3000022    2    5    5    0    0 -0.14730338610E+02 -0.22720393672E+02 -0.10052356241E+02  0.28884451349E+02  0.24999909691E+00 0.  0.
        -13    1    4    4    0    0  0.68135371561E+00  0.18519960192E+01  0.15924571374E+01  0.25379276734E+01  0.10500000000E+00 0.  1.
         13    1    4    4    0    0  0.19419542262E+01  0.52792436222E+01  0.43789530131E+01  0.71293656050E+01  0.10500000000E+00 0. -1.
    3000001    1    5    5    0    0 -0.86030595998E+01 -0.31530982606E+02 -0.77967623110E+01  0.33615547014E+02  0.10000000000E+01 0. -1.
        -13    1    6    6    0    0 -0.38923860896E+01 -0.60600453371E+01 -0.26904743285E+01  0.76892454813E+01  0.10500000000E+00 0. -1.
         13    1    6    6    0    0 -0.10837952521E+02 -0.16660348335E+02 -0.73618819121E+01  0.21195205868E+02  0.10500000000E+00 0.  1.
</event>
<event>
11    0  0.3422856E-009  0.9118800E+02  0.7816531E-02  0.1126479E+00
         25   -1    0    0    0    0  0.00000000000E+00  0.00000000000E+00  0.99999998245E-14  0.12500000000E+03  0.12500000000E+03 0.  0.
    3000001    1    3    3    0    0  0.30462897236E+02  0.78227171244E+01 -0.19475288406E+02  0.37006349046E+02  0.10000000000E+01 0.  1.
    1000022    2    1    0    0    0  0.46282725689E+02  0.11648342295E+02 -0.39095720817E+02  0.62500000276E+02  0.10000003644E+02 0.  0.
    3000022    2    3    3    0    0  0.15819828452E+02  0.38256251704E+01 -0.19620432411E+02  0.25493651230E+02  0.25000961088E+00 0.  0.
    1000022    2    1    0    0    0 -0.46282725689E+02 -0.11648342295E+02  0.39095720817E+02  0.62499999724E+02  0.10000000194E+02 0.  0.
    3000022    2    5    5    0    0 -0.38530372147E+02 -0.58269688540E+01  0.30153518812E+02  0.49273119862E+02  0.25000078171E+00 0.  0.
        -13    1    4    4    0    0  0.10924964183E+02  0.25928086417E+01 -0.13521806850E+02  0.17576341614E+02  0.10500000000E+00 0.  1.
         13    1    4    4    0    0  0.48948642696E+01  0.12328165287E+01 -0.60986255612E+01  0.79173096154E+01  0.10500000000E+00 0. -1.
    3000001    1    5    5    0    0 -0.77523535413E+01 -0.58213734408E+01  0.89422020055E+01  0.13226879862E+02  0.10000000000E+01 0.  1.
        -13    1    6    6    0    0 -0.13886378427E+02 -0.21532212189E+01  0.10842166270E+02  0.17749125665E+02  0.10500000000E+00 0.  1.
         13    1    6    6    0    0 -0.24643993720E+02 -0.36737476351E+01  0.19311352542E+02  0.31523994197E+02  0.10500000000E+00 0. -1.
</event>
<event>
11    0  0.3422856E-009  0.9118800E+02  0.7816531E-02  0.1126479E+00
         25   -1    0    0    0    0  0.00000000000E+00  0.00000000000E+00  0.99999998245E-14  0.12500000000E+03  0.12500000000E+03 0.  0.
    3000001    1    3    3    0    0  0.21819595471E+02  0.33354899926E+02  0.40913913788E+02  0.57127860428E+02  0.10000000000E+01 0. -1.
    1000022    2    1    0    0    0  0.22721777518E+02  0.38351346246E+02  0.42651435640E+02  0.62500000459E+02  0.10000008140E+02 0.  0.
    3000022    2    3    3    0    0  0.90218204739E+00  0.49964463196E+01  0.17375218519E+01  0.53721400315E+01  0.24999612266E+00 0.  0.
    1000022    2    1    0    0    0 -0.22721777518E+02 -0.38351346246E+02 -0.42651435640E+02  0.62499999541E+02  0.10000002401E+02 0.  0.
    3000022    2    5    5    0    0 -0.17241860611E+01 -0.10434411436E+02 -0.77834515921E+01  0.13133711370E+02  0.24999216975E+00 0.  0.
        -13    1    4    4    0    0  0.22109472423E+00  0.11926162621E+01  0.39736777161E+00  0.12806805111E+01  0.10500000000E+00 0.  1.
         13    1    4    4    0    0  0.68108732315E+00  0.38038300575E+01  0.13401540803E+01  0.40914595204E+01  0.10500000000E+00 0. -1.
    3000001    1    5    5    0    0 -0.20997591457E+02 -0.27916934810E+02 -0.34867984048E+02  0.49366288170E+02  0.10000000000E+01 0.  1.
        -13    1    6    6    0    0 -0.10290513728E+01 -0.63239865229E+01 -0.46399150015E+01  0.79114845946E+01  0.10500000000E+00 0. -1.
         13    1    6    6    0    0 -0.69513468824E+00 -0.41104249132E+01 -0.31435365906E+01  0.52222267758E+01  0.10500000000E+00 0.  1.
</event>
<event>
11    0  0.3422856E-009  0.9118800E+02  0.7816531E-02  0.1126479E+00
         25   -1    0    0    0    0  0.00000000000E+00  0.00000000000E+00  0.99999998245E-14  0.12500000000E+03  0.12500000000E+03 0.  0.
    3000001    1    3    3    0    0  0.34244815384E+01 -0.37742265064E+02  0.16856618040E+02  0.41489169885E+02  0.10000000000E+01 0. -1.
    1000022    2    1    0    0    0 -0.18603756119E+01 -0.56464889357E+02  0.24789216420E+02  0.62500000377E+02  0.10000003442E+02 0.  0.
    3000022    2    3    3    0    0 -0.52848571503E+01 -0.18722624293E+02  0.79325983797E+01  0.21010830492E+02  0.25001077877E+00 0.  0.
    1000022    2    1    0    0    0  0.18603756119E+01  0.56464889357E+02 -0.24789216420E+02  0.62499999623E+02  0.99999987289E+01 0.  0.
    3000022    2    5    5    0    0  0.50430496022E+01  0.47974088611E+02 -0.21310552343E+02  0.52736587576E+02  0.25000122205E+00 0.  0.
        -13    1    4    4    0    0 -0.27205161647E+01 -0.94855779810E+01  0.39657025982E+01  0.10635563922E+02  0.10500000000E+00 0. -1.
         13    1    4    4    0    0 -0.25643409856E+01 -0.92370463124E+01  0.39668957815E+01  0.10375266570E+02  0.10500000000E+00 0.  1.
    3000001    1    5    5    0    0 -0.31826739903E+01  0.84908007463E+01 -0.34786640773E+01  0.97634120473E+01  0.10000000000E+01 0.  1.
        -13    1    6    6    0    0  0.31709111186E+01  0.29609625481E+02 -0.13134377981E+02  0.32547004599E+02  0.10500000000E+00 0.  1.
         13    1    6    6    0    0  0.18721384836E+01  0.18364463130E+02 -0.81761743618E+01  0.20189582976E+02  0.10500000000E+00 0. -1.
</event>
<event>
11    0  0.3422856E-009  0.9118800E+02  0.7816531E-02  0.1126479E+00
         25   -1    0    0    0    0  0.00000000000E+00  0.00000000000E+00  0.99999998245E-14  0.12500000000E+03  0.12500000000E+03 0.  0.
    3000001    1    3    3    0    0  0.70865701273E+01 -0.26655120873E+02  0.33278057248E+02  0.43233598499E+02  0.10000000000E+01 0.  1.
    1000022    2    1    0    0    0  0.15802166361E+02 -0.39531882839E+02  0.44651671510E+02  0.62499999704E+02  0.99999985927E+01 0.  0.
    3000022    2    3    3    0    0  0.87155962337E+01 -0.12876761965E+02  0.11373614262E+02  0.19266401205E+02  0.24999518346E+00 0.  0.
    1000022    2    1    0    0    0 -0.15802166361E+02  0.39531882839E+02 -0.44651671510E+02  0.62500000296E+02  0.10000002293E+02 0.  0.
    3000022    2    5    5    0    0 -0.48023559244E+01  0.68607919329E+01 -0.14224792296E+02  0.16508794731E+02  0.24999845587E+00 0.  0.
        -13    1    4    4    0    0  0.59993744903E+01 -0.88837820903E+01  0.78991398688E+01  0.13316212456E+02  0.10500000000E+00 0. -1.
         13    1    4    4    0    0  0.27162217434E+01 -0.39929798752E+01  0.34744743933E+01  0.59501887493E+01  0.10500000000E+00 0.  1.
    3000001    1    5    5    0    0 -0.10999810437E+02  0.32671090906E+02 -0.30426879215E+02  0.45991205565E+02  0.10000000000E+01 0.  1.
        -13    1    6    6    0    0 -0.13328813667E+01  0.19761332684E+01 -0.40496416512E+01  0.47002444549E+01  0.10500000000E+00 0.  1.
         13    1    6    6    0    0 -0.34694745577E+01  0.48846586645E+01 -0.10175150645E+02  0.11808550276E+02  0.10500000000E+00 0. -1.
</event>
<event>
11    0  0.3422856E-009  0.9118800E+02  0.7816531E-02  0.1126479E+00
         25   -1    0    0    0    0  0.00000000000E+00  0.00000000000E+00  0.99999998245E-14  0.12500000000E+03  0.12500000000E+03 0.  0.
    3000001    1    3    3    0    0 -0.13629208513E+02  0.92745007625E+01 -0.13546649855E+02  0.21360791450E+02  0.10000000000E+01 0.  1.
    1000022    2    1    0    0    0 -0.48739662017E+02  0.19884867223E+02 -0.32175882110E+02  0.62500001552E+02  0.10000010323E+02 0.  0.
    3000022    2    3    3    0    0 -0.35110453504E+02  0.10610366460E+02 -0.18629232255E+02  0.41139210102E+02  0.24998344459E+00 0.  0.
    1000022    2    1    0    0    0  0.48739662017E+02 -0.19884867223E+02  0.32175882110E+02  0.62499998448E+02  0.99999909207E+01 0.  0.
    3000022    2    5    5    0    0  0.33002726430E+02 -0.17023710279E+02  0.25964278719E+02  0.45312172016E+02  0.25000004734E+00 0.  0.
        -13    1    4    4    0    0 -0.15590799406E+02  0.47360617284E+01 -0.83455781839E+01  0.18307457689E+02  0.10500000000E+00 0.  1.
         13    1    4    4    0    0 -0.19519654098E+02  0.58743047317E+01 -0.10283654071E+02  0.22831752413E+02  0.10500000000E+00 0. -1.
    3000001    1    5    5    0    0  0.15736935588E+02 -0.28611569441E+01  0.62116033910E+01  0.17187826431E+02  0.10000000000E+01 0.  1.
        -13    1    6    6    0    0  0.11525592673E+02 -0.59371696826E+01  0.91333682541E+01  0.15859341442E+02  0.10500000000E+00 0.  1.
         13    1    6    6    0    0  0.21477133756E+02 -0.11086540596E+02  0.16830910464E+02  0.29452830574E+02  0.10500000000E+00 0. -1.
</event>
<event>
11    0  0.3422856E-009  0.9118800E+02  0.7816531E-02  0.1126479E+00
         25   -1    0    0    0    0  0.00000000000E+00  0.00000000000E+00  0.99999998245E-14  0.12500000000E+03  0.12500000000E+03 0.  0.
    3000001    1    3    3    0    0 -0.29324334967E+02  0.14442551550E+02  0.18614337826E+02  0.37629742083E+02  0.10000000000E+01 0.  1.
    1000022    2    1    0    0    0 -0.52196277893E+02  0.22737442077E+02  0.23765674455E+02  0.62499999707E+02  0.99999991519E+01 0.  0.
    3000022    2    3    3    0    0 -0.22871942926E+02  0.82948905271E+01  0.51513366290E+01  0.24870257624E+02  0.24992634566E+00 0.  0.
    1000022    2    1    0    0    0  0.52196277893E+02 -0.22737442077E+02 -0.23765674455E+02  0.62500000293E+02  0.10000002809E+02 0.  0.
    3000022    2    5    5    0    0  0.21482843915E+02 -0.75080711832E+01 -0.46241460787E+01  0.23223456744E+02  0.25000124363E+00 0.  0.
        -13    1    4    4    0    0 -0.15562660940E+02  0.56938086151E+01  0.35278393480E+01  0.16943215384E+02  0.10500000000E+00 0. -1.
         13    1    4    4    0    0 -0.73092819858E+01  0.26010819119E+01  0.16234972810E+01  0.79270422404E+01  0.10500000000E+00 0.  1.
    3000001    1    5    5    0    0  0.30713433978E+02 -0.15229370894E+02 -0.19141528376E+02  0.39276543549E+02  0.10000000000E+01 0. -1.
        -13    1    6    6    0    0  0.66031984046E+01 -0.22631536044E+01 -0.13958010731E+01  0.71192260144E+01  0.10500000000E+00 0. -1.
         13    1    6    6    0    0  0.14879645510E+02 -0.52449175788E+01 -0.32283450056E+01  0.16104230730E+02  0.10500000000E+00 0.  1.
</event>
<event>
11    0  0.3422856E-009  0.9118800E+02  0.7816531E-02  0.1126479E+00
         25   -1    0    0    0    0  0.00000000000E+00  0.00000000000E+00  0.99999998245E-14  0.12500000000E+03  0.12500000000E+03 0.  0.
    3000001    1    3    3    0    0  0.18770408535E+02 -0.16851499579E+02  0.55115133713E+02  0.60621607030E+02  0.10000000000E+01 0.  1.
    1000022    2    1    0    0    0  0.17855827198E+02 -0.18022132232E+02  0.56237196701E+02  0.62500001368E+02  0.10000003158E+02 0.  0.
    3000022    2    3    3    0    0 -0.91458133774E+00 -0.11706326523E+01  0.11220629878E+01  0.18783943385E+01  0.25000022452E+00 0.  0.
    1000022    2    1    0    0    0 -0.17855827198E+02  0.18022132232E+02 -0.56237196701E+02  0.62499998632E+02  0.99999860558E+01 0.  0.
    3000022    2    5    5    0    0 -0.15334695146E+02  0.17453271945E+02 -0.42024868025E+02  0.48020012608E+02  0.25000317926E+00 0.  0.
        -13    1    4    4    0    0 -0.65437374387E+00 -0.75079029505E+00  0.74571583079E+00  0.12486024844E+01  0.10500000000E+00 0.  1.
         13    1    4    4    0    0 -0.26020759388E+00 -0.41984235727E+00  0.37634715702E+00  0.62979185408E+00  0.10500000000E+00 0. -1.
    3000001    1    5    5    0    0 -0.25211320518E+01  0.56886028684E+00 -0.14212328676E+02  0.14479986024E+02  0.10000000000E+01 0. -1.
        -13    1    6    6    0    0 -0.90740234895E+01  0.10275118598E+02 -0.24906753912E+02  0.28430149136E+02  0.10500000000E+00 0. -1.
         13    1    6    6    0    0 -0.62606716562E+01  0.71781533469E+01 -0.17118114113E+02  0.19589863472E+02  0.10500000000E+00 0.  1.
</event>
<event>
11    0  0.3422856E-009  0.9118800E+02  0.7816531E-02  0.1126479E+00
         25   -1    0    0    0    0  0.00000000000E+00  0.00000000000E+00  0.99999998245E-14  0.12500000000E+03  0.12500000000E+03 0.  0.
    3000001    1    3    3    0    0  0.24875304302E+02  0.39595462819E+02  0.53524604457E+01  0.47076854958E+02  0.10000000000E+01 0.  1.
    1000022    2    1    0    0    0  0.32504931062E+02  0.50921870907E+02  0.12515705209E+02  0.62499996648E+02  0.99999612039E+01 0.  0.
    3000022    2    3    3    0    0  0.76296267606E+01  0.11326408089E+02  0.71632447634E+01  0.15423141690E+02  0.24999870974E+00 0.  0.
    1000022    2    1    0    0    0 -0.32504931062E+02 -0.50921870907E+02 -0.12515705209E+02  0.62500003352E+02  0.10000003100E+02 0.  0.
    3000022    2    5    5    0    0 -0.46760676935E+01 -0.41097714905E+01  0.11679901776E+01  0.63389687489E+01  0.24998593226E+00 0.  0.
        -13    1    4    4    0    0  0.49953246592E+01  0.73192576328E+01  0.46675859876E+01  0.10016096280E+02  0.10500000000E+00 0.  1.
         13    1    4    4    0    0  0.26343021013E+01  0.40071504558E+01  0.24956587758E+01  0.54070454097E+01  0.10500000000E+00 0. -1.
    3000001    1    5    5    0    0 -0.27828863369E+02 -0.46812099417E+02 -0.13683695387E+02  0.56161034603E+02  0.10000000000E+01 0.  1.
        -13    1    6    6    0    0 -0.20631400756E+01 -0.17353946821E+01  0.47537229738E+00  0.27395520611E+01  0.10500000000E+00 0.  1.
         13    1    6    6    0    0 -0.26129276178E+01 -0.23743768084E+01  0.69261788023E+00  0.35994166878E+01  0.10500000000E+00 0. -1.
</event>
<event>
11    0  0.3422856E-009  0.9118800E+02  0.7816531E-02  0.1126479E+00
         25   -1    0    0    0    0  0.00000000000E+00  0.00000000000E+00  0.99999998245E-14  0.12500000000E+03  0.12500000000E+03 0.  0.
    3000001    1    3    3    0    0  0.10612208541E+02 -0.26420820742E+02 -0.30325498232E+02  0.41609068505E+02  0.10000000000E+01 0.  1.
    1000022    2    1    0    0    0  0.91750361697E+01 -0.41421954838E+02 -0.44791631831E+02  0.62499999791E+02  0.10000003025E+02 0.  0.
    3000022    2    3    3    0    0 -0.14371723710E+01 -0.15001134095E+02 -0.14466133599E+02  0.20890931286E+02  0.25000027194E+00 0.  0.
    1000022    2    1    0    0    0 -0.91750361697E+01  0.41421954838E+02  0.44791631831E+02  0.62500000209E+02  0.10000005636E+02 0.  0.
    3000022    2    5    5    0    0 -0.28962086242E+01  0.21276355141E+01  0.54551600568E+01  0.65372874610E+01  0.24999765272E+00 0.  0.
        -13    1    4    4    0    0 -0.36846103774E+00 -0.38796757587E+01 -0.37846696968E+01  0.54334516878E+01  0.10500000000E+00 0.  1.
         13    1    4    4    0    0 -0.10687113333E+01 -0.11121458337E+02 -0.10681463902E+02  0.15457479599E+02  0.10500000000E+00 0. -1.
    3000001    1    5    5    0    0 -0.62788275455E+01  0.39294319324E+02  0.39336471774E+02  0.55962712748E+02  0.10000000000E+01 0.  1.
        -13    1    6    6    0    0 -0.21357278802E+01  0.15978772297E+01  0.40056902845E+01  0.48136394624E+01  0.10500000000E+00 0.  1.
         13    1    6    6    0    0 -0.76048074404E+00  0.52975828441E+00  0.14494697724E+01  0.17236479986E+01  0.10500000000E+00 0. -1.
</event>
<event>
11    0  0.3422856E-009  0.9118800E+02  0.7816531E-02  0.1126479E+00
         25   -1    0    0    0    0  0.00000000000E+00  0.00000000000E+00  0.99999998245E-14  0.12500000000E+03  0.12500000000E+03 0.  0.
    3000001    1    3    3    0    0 -0.72149434480E+01  0.29399767326E+02 -0.12318323776E+02  0.32697749593E+02  0.10000000000E+01 0.  1.
    1000022    2    1    0    0    0 -0.91743832193E+01  0.52574253187E+02 -0.30952038159E+02  0.62499997937E+02  0.99999835160E+01 0.  0.
    3000022    2    3    3    0    0 -0.19594397713E+01  0.23174485861E+02 -0.18633714383E+02  0.29802248344E+02  0.24999105941E+00 0.  0.
    1000022    2    1    0    0    0  0.91743832193E+01 -0.52574253187E+02  0.30952038159E+02  0.62500002063E+02  0.10000009304E+02 0.  0.
    3000022    2    5    5    0    0  0.10724917400E+02 -0.35276656920E+02  0.20054181071E+02  0.41972598867E+02  0.25000113313E+00 0.  0.
        -13    1    4    4    0    0 -0.14330397278E+01  0.17250702881E+02 -0.13849273511E+02  0.22168756269E+02  0.10500000000E+00 0. -1.
         13    1    4    4    0    0 -0.52640004350E+00  0.59237829800E+01 -0.47844408721E+01  0.76334920750E+01  0.10500000000E+00 0.  1.
    3000001    1    5    5    0    0 -0.15505341802E+01 -0.17297596267E+02  0.10897857088E+02  0.20527403196E+02  0.10000000000E+01 0.  1.
        -13    1    6    6    0    0  0.36462986649E+01 -0.12051916741E+02  0.67890461815E+01  0.14305466233E+02  0.10500000000E+00 0. -1.
         13    1    6    6    0    0  0.70786187346E+01 -0.23224740179E+02  0.13265134890E+02  0.27667132634E+02  0.10500000000E+00 0.  1.
</event>
<event>
11    0  0.3422856E-009  0.9118800E+02  0.7816531E-02  0.1126479E+00
         25   -1    0    0    0    0  0.00000000000E+00  0.00000000000E+00  0.99999998245E-14  0.12500000000E+03  0.12500000000E+03 0.  0.
    3000001    1    3    3    0    0 -0.35537147113E+02 -0.35251558800E+02 -0.35117816508E+01  0.50188582697E+02  0.10000000000E+01 0. -1.
    1000022    2    1    0    0    0 -0.43957188060E+02 -0.43287089576E+02  0.49341837084E+00  0.62499998910E+02  0.99999947935E+01 0.  0.
    3000022    2    3    3    0    0 -0.84200409470E+01 -0.80355307764E+01  0.40052000216E+01  0.12311416213E+02  0.24999508210E+00 0.  0.
    1000022    2    1    0    0    0  0.43957188060E+02  0.43287089576E+02 -0.49341837084E+00  0.62500001090E+02  0.10000008420E+02 0.  0.
    3000022    2    5    5    0    0  0.31605295688E+02  0.30537487624E+02 -0.47881636148E+01  0.44208843887E+02  0.25000218401E+00 0.  0.
        -13    1    4    4    0    0 -0.41189626705E+01 -0.39402707622E+01  0.20328462728E+01  0.60526916433E+01  0.10500000000E+00 0.  1.
         13    1    4    4    0    0 -0.43010782766E+01 -0.40952600142E+01  0.19723537488E+01  0.62587245694E+01  0.10500000000E+00 0. -1.
    3000001    1    5    5    0    0  0.12351892373E+02  0.12749601952E+02  0.42947452439E+01  0.18291157203E+02  0.10000000000E+01 0.  1.
        -13    1    6    6    0    0  0.16290943171E+02  0.15659179207E+02 -0.24275755830E+01  0.22726831523E+02  0.10500000000E+00 0. -1.
         13    1    6    6    0    0  0.15314352516E+02  0.14878308417E+02 -0.23605880318E+01  0.21482012364E+02  0.10500000000E+00 0.  1.
</event>
<event>
11    0  0.3422856E-009  0.9118800E+02  0.7816531E-02  0.1126479E+00
         25   -1    0    0    0    0  0.00000000000E+00  0.00000000000E+00  0.99999998245E-14  0.12500000000E+03  0.12500000000E+03 0.  0.
    3000001    1    3    3    0    0 -0.97078429288E+01  0.11795488093E+01 -0.27262507711E+01  0.10201274087E+02  0.10000000000E+01 0. -1.
    1000022    2    1    0    0    0 -0.61489309968E+02  0.21692452091E+01  0.45397202333E+01  0.62499999342E+02  0.99999996443E+01 0.  0.
    3000022    2    3    3    0    0 -0.51781467039E+02  0.98969639979E+00  0.72659710044E+01  0.52298725256E+02  0.25000208909E+00 0.  0.
    1000022    2    1    0    0    0  0.61489309968E+02 -0.21692452091E+01 -0.45397202333E+01  0.62500000658E+02  0.10000007865E+02 0.  0.
    3000022    2    5    5    0    0  0.54016906216E+02  0.68934667146E+00 -0.20468640879E+01  0.54060646587E+02  0.25000162276E+00 0.  0.
        -13    1    4    4    0    0 -0.26979859620E+02  0.56906463559E+00  0.37440473438E+01  0.27244551294E+02  0.10500000000E+00 0. -1.
         13    1    4    4    0    0 -0.24801607419E+02  0.42063176420E+00  0.35219236606E+01  0.25054173962E+02  0.10500000000E+00 0.  1.
    3000001    1    5    5    0    0  0.74724037517E+01 -0.28585918806E+01 -0.24928561454E+01  0.84393540706E+01  0.10000000000E+01 0. -1.
        -13    1    6    6    0    0  0.32111583381E+02  0.47307320047E+00 -0.12230886965E+01  0.32138521379E+02  0.10500000000E+00 0. -1.
         13    1    6    6    0    0  0.21905322835E+02  0.21627347099E+00 -0.82377539147E+00  0.21922125208E+02  0.10500000000E+00 0.  1.
</event>
<event>
11    0  0.3422856E-009  0.9118800E+02  0.7816531E-02  0.1126479E+00
         25   -1    0    0    0    0  0.00000000000E+00  0.00000000000E+00  0.99999998245E-14  0.12500000000E+03  0.12500000000E+03 0.  0.
    3000001    1    3    3    0    0 -0.34212227113E+02  0.59009960947E+01 -0.24719336153E+01  0.34819659602E+02  0.10000000000E+01 0.  1.
    1000022    2    1    0    0    0 -0.59643908303E+02  0.15550630375E+02  0.26518311808E+01  0.62500001394E+02  0.10000003147E+02 0.  0.
    3000022    2    3    3    0    0 -0.25431681190E+02  0.96496342802E+01  0.51237647961E+01  0.27680341793E+02  0.25001240010E+00 0.  0.
    1000022    2    1    0    0    0  0.59643908303E+02 -0.15550630375E+02 -0.26518311808E+01  0.62499998606E+02  0.99999857165E+01 0.  0.
    3000022    2    5    5    0    0  0.44096173100E+02 -0.15353329438E+02 -0.39789198395E+01  0.46862474443E+02  0.25000195467E+00 0.  0.
        -13    1    4    4    0    0 -0.15896362268E+02  0.60175870432E+01  0.32614880580E+01  0.17307628853E+02  0.10500000000E+00 0. -1.
         13    1    4    4    0    0 -0.95353189223E+01  0.36320472371E+01  0.18622767381E+01  0.10372712940E+02  0.10500000000E+00 0.  1.
    3000001    1    5    5    0    0  0.15547735203E+02 -0.19730093699E+00  0.13270886587E+01  0.15637524162E+02  0.10000000000E+01 0. -1.
        -13    1    6    6    0    0  0.31762072717E+02 -0.11034888110E+02 -0.28979469601E+01  0.33749179848E+02  0.10500000000E+00 0.  1.
         13    1    6    6    0    0  0.12334100383E+02 -0.43184413283E+01 -0.10809728794E+01  0.13113294595E+02  0.10500000000E+00 0. -1.
</event>
<event>
11    0  0.3422856E-009  0.9118800E+02  0.7816531E-02  0.1126479E+00
         25   -1    0    0    0    0  0.00000000000E+00  0.00000000000E+00  0.99999998245E-14  0.12500000000E+03  0.12500000000E+03 0.  0.
    3000001    1    3    3    0    0 -0.10337616489E+01 -0.12930825269E+01 -0.17123049935E+01  0.25831596851E+01  0.10000000000E+01 0. -1.
    1000022    2    1    0    0    0 -0.54882516610E+02 -0.25172556111E+02 -0.12668925612E+02  0.62499999599E+02  0.10000003157E+02 0.  0.
    3000022    2    3    3    0    0 -0.53848754961E+02 -0.23879473584E+02 -0.10956620618E+02  0.59916839914E+02  0.25000080832E+00 0.  0.
    1000022    2    1    0    0    0  0.54882516610E+02  0.25172556111E+02  0.12668925612E+02  0.62500000401E+02  0.10000008168E+02 0.  0.
    3000022    2    5    5    0    0  0.44020350048E+02  0.23533902399E+02  0.81414156727E+01  0.50576486043E+02  0.25002153883E+00 0.  0.
        -13    1    4    4    0    0 -0.24438891380E+02 -0.10882958665E+02 -0.49227338451E+01  0.27201884764E+02  0.10500000000E+00 0.  1.
         13    1    4    4    0    0 -0.29409863581E+02 -0.12996514919E+02 -0.60338867733E+01  0.32714955150E+02  0.10500000000E+00 0. -1.
    3000001    1    5    5    0    0  0.10862166562E+02  0.16386537119E+01  0.45275099392E+01  0.11923514358E+02  0.10000000000E+01 0. -1.
        -13    1    6    6    0    0  0.14343691241E+02  0.76183197620E+01  0.26767644240E+01  0.16460752327E+02  0.10500000000E+00 0.  1.
         13    1    6    6    0    0  0.29676658807E+02  0.15915582637E+02  0.54646512486E+01  0.34115733715E+02  0.10500000000E+00 0. -1.
</event>
<event>
11    0  0.3422856E-009  0.9118800E+02  0.7816531E-02  0.1126479E+00
         25   -1    0    0    0    0  0.00000000000E+00  0.00000000000E+00  0.99999998245E-14  0.12500000000E+03  0.12500000000E+03 0.  0.
    3000001    1    3    3    0    0 -0.33158707976E+02  0.15581967176E+02 -0.33474995994E+02  0.49637415047E+02  0.10000000000E+01 0.  1.
    1000022    2    1    0    0    0 -0.37779407138E+02  0.22536823398E+02 -0.43255727337E+02  0.62499999979E+02  0.10000001866E+02 0.  0.
    3000022    2    3    3    0    0 -0.46206991618E+01  0.69548562219E+01 -0.97807313430E+01  0.12862584932E+02  0.24999943436E+00 0.  0.
    1000022    2    1    0    0    0  0.37779407138E+02 -0.22536823398E+02  0.43255727337E+02  0.62500000021E+02  0.10000002132E+02 0.  0.
    3000022    2    5    5    0    0  0.63743768380E+01 -0.78623948227E+01  0.13002833875E+02  0.16479870241E+02  0.25000393295E+00 0.  0.
        -13    1    4    4    0    0 -0.34515096815E+01  0.51560803388E+01 -0.72982256619E+01  0.95798333156E+01  0.10500000000E+00 0.  1.
         13    1    4    4    0    0 -0.11691894803E+01  0.17987758831E+01 -0.24825056810E+01  0.32827516164E+01  0.10500000000E+00 0. -1.
    3000001    1    5    5    0    0  0.31405030300E+02 -0.14674428575E+02  0.30252893462E+02  0.46020129780E+02  0.10000000000E+01 0. -1.
        -13    1    6    6    0    0  0.15293287037E+01 -0.19178129669E+01  0.31404312079E+01  0.39862496198E+01  0.10500000000E+00 0. -1.
         13    1    6    6    0    0  0.48450481343E+01 -0.59445818558E+01  0.98624026670E+01  0.12493620621E+02  0.10500000000E+00 0.  1.
</event>
<event>
11    0  0.3422856E-009  0.9118800E+02  0.7816531E-02  0.1126479E+00
         25   -1    0    0    0    0  0.00000000000E+00  0.00000000000E+00  0.99999998245E-14  0.12500000000E+03  0.12500000000E+03 0.  0.
    3000001    1    3    3    0    0 -0.19941911427E+02  0.64100109130E+01 -0.13135562052E+02  0.24744919916E+02  0.10000000000E+01 0.  1.
    1000022    2    1    0    0    0 -0.55699421874E+02  0.88993912092E+01 -0.24992501224E+02  0.62500000023E+02  0.10000006221E+02 0.  0.
    3000022    2    3    3    0    0 -0.35757510448E+02  0.24893802962E+01 -0.11856939172E+02  0.37755080107E+02  0.24999928488E+00 0.  0.
    1000022    2    1    0    0    0  0.55699421874E+02 -0.88993912092E+01  0.24992501224E+02  0.62499999977E+02  0.10000005933E+02 0.  0.
    3000022    2    5    5    0    0  0.35494237357E+02 -0.13242569020E+01  0.13231614840E+02  0.37904256653E+02  0.24999838830E+00 0.  0.
        -13    1    4    4    0    0 -0.17500681547E+02  0.12048585889E+01 -0.57328423182E+01  0.18455406928E+02  0.10500000000E+00 0.  1.
         13    1    4    4    0    0 -0.18256828901E+02  0.12845217073E+01 -0.61240968538E+01  0.19299673179E+02  0.10500000000E+00 0. -1.
    3000001    1    5    5    0    0  0.20205184517E+02 -0.75751343071E+01  0.11760886384E+02  0.24595743324E+02  0.10000000000E+01 0. -1.
        -13    1    6    6    0    0  0.13553946916E+02 -0.44484732373E+00  0.50577989343E+01  0.14474105196E+02  0.10500000000E+00 0.  1.
         13    1    6    6    0    0  0.21940290441E+02 -0.87940957831E+00  0.81738159059E+01  0.23430151457E+02  0.10500000000E+00 0. -1.
</event>
<event>
11    0  0.3422856E-009  0.9118800E+02  0.7816531E-02  0.1126479E+00
         25   -1    0    0    0    0  0.00000000000E+00  0.00000000000E+00  0.99999998245E-14  0.12500000000E+03  0.12500000000E+03 0.  0.
    3000001    1    3    3    0    0 -0.31459591455E+02 -0.49431514528E+02 -0.11216925248E+02  0.59665735017E+02  0.10000000000E+01 0.  1.
    1000022    2    1    0    0    0 -0.33108724595E+02 -0.51147010916E+02 -0.96977081951E+01  0.62500001323E+02  0.10000012561E+02 0.  0.
    3000022    2    3    3    0    0 -0.16491331398E+01 -0.17154963877E+01  0.15192170532E+01  0.28342663063E+01  0.24995413903E+00 0.  0.
    1000022    2    1    0    0    0  0.33108724595E+02  0.51147010916E+02  0.96977081951E+01  0.62499998677E+02  0.99999960226E+01 0.  0.
    3000022    2    5    5    0    0  0.28033551610E+01  0.86549230055E+01 -0.11800313330E+01  0.91772252237E+01  0.24999293952E+00 0.  0.
        -13    1    4    4    0    0 -0.10234571017E+01 -0.11275992535E+01  0.92384333793E+00  0.17842242091E+01  0.10500000000E+00 0. -1.
         13    1    4    4    0    0 -0.62567603813E+00 -0.58789713421E+00  0.59537371525E+00  0.10500420972E+01  0.10500000000E+00 0.  1.
    3000001    1    5    5    0    0  0.30305369433E+02  0.42492087911E+02  0.10877739528E+02  0.53322773453E+02  0.10000000000E+01 0.  1.
        -13    1    6    6    0    0  0.15408420431E+01  0.45691696310E+01 -0.59060487623E+00  0.48591505882E+01  0.10500000000E+00 0. -1.
         13    1    6    6    0    0  0.12625131179E+01  0.40857533744E+01 -0.58942645679E+00  0.43180746355E+01  0.10500000000E+00 0.  1.
</event>
<event>
11    0  0.3422856E-009  0.9118800E+02  0.7816531E-02  0.1126479E+00
         25   -1    0    0    0    0  0.00000000000E+00  0.00000000000E+00  0.99999998245E-14  0.12500000000E+03  0.12500000000E+03 0.  0.
    3000001    1    3    3    0    0  0.43510486463E+00 -0.64421400514E+01  0.86391592133E+00  0.65906627439E+01  0.10000000000E+01 0.  1.
    1000022    2    1    0    0    0  0.79563404989E+01 -0.51047246240E+02  0.33721289240E+02  0.62499999758E+02  0.99999959431E+01 0.  0.
    3000022    2    3    3    0    0  0.75212356343E+01 -0.44605106189E+02  0.32857373319E+02  0.55909337014E+02  0.25000067257E+00 0.  0.
    1000022    2    1    0    0    0 -0.79563404989E+01  0.51047246240E+02 -0.33721289240E+02  0.62500000242E+02  0.99999989724E+01 0.  0.
    3000022    2    5    5    0    0 -0.12032971581E+01  0.62035165368E+00 -0.23398432793E+01  0.27147977038E+01  0.24999955127E+00 0.  0.
        -13    1    4    4    0    0  0.52753432375E+01 -0.31439756935E+02  0.23111092905E+02  0.39375388286E+02  0.10500000000E+00 0.  1.
         13    1    4    4    0    0  0.22458923968E+01 -0.13165349254E+02  0.97462804136E+01  0.16533948728E+02  0.10500000000E+00 0. -1.
    3000001    1    5    5    0    0 -0.67530433408E+01  0.50426894586E+02 -0.31381445961E+02  0.59785202539E+02  0.10000000000E+01 0. -1.
        -13    1    6    6    0    0 -0.91441852086E+00  0.48851836980E+00 -0.17910470074E+01  0.20721210900E+01  0.10500000000E+00 0. -1.
         13    1    6    6    0    0 -0.28887863726E+00  0.13183328388E+00 -0.54879627187E+00  0.64267661373E+00  0.10500000000E+00 0.  1.
</event>
<event>
11    0  0.3422856E-009  0.9118800E+02  0.7816531E-02  0.1126479E+00
         25   -1    0    0    0    0  0.00000000000E+00  0.00000000000E+00  0.99999998245E-14  0.12500000000E+03  0.12500000000E+03 0.  0.
    3000001    1    3    3    0    0 -0.57118127766E+02  0.18690298230E+02  0.28494791180E+00  0.60107312057E+02  0.10000000000E+01 0. -1.
    1000022    2    1    0    0    0 -0.59072738504E+02  0.17750070099E+02  0.12636949796E+01  0.62500003175E+02  0.10000002445E+02 0.  0.
    3000022    2    3    3    0    0 -0.19546107387E+01 -0.94022813113E+00  0.97874706778E+00  0.23926911177E+01  0.24998576748E+00 0.  0.
    1000022    2    1    0    0    0  0.59072738504E+02 -0.17750070099E+02 -0.12636949796E+01  0.62499996825E+02  0.99999627600E+01 0.  0.
    3000022    2    5    5    0    0  0.52023259023E+01 -0.44134577395E+00  0.24783394160E+01  0.57847774117E+01  0.25000511300E+00 0.  0.
        -13    1    4    4    0    0 -0.78010958211E+00 -0.44383494984E+00  0.42446544031E+00  0.99837684910E+00  0.10500000000E+00 0. -1.
         13    1    4    4    0    0 -0.11745011565E+01 -0.49639318129E+00  0.55428162747E+00  0.13943142686E+01  0.10500000000E+00 0.  1.
    3000001    1    5    5    0    0  0.53870412602E+02 -0.17308724325E+02 -0.37420343956E+01  0.56715219413E+02  0.10000000000E+01 0.  1.
        -13    1    6    6    0    0  0.26250909082E+01 -0.21113779363E+00  0.13240443881E+01  0.29495423349E+01  0.10500000000E+00 0. -1.
         13    1    6    6    0    0  0.25772349941E+01 -0.23020798032E+00  0.11542950279E+01  0.28352350768E+01  0.10500000000E+00 0.  1.
</event>
<event>
11    0  0.3422856E-009  0.9118800E+02  0.7816531E-02  0.1126479E+00
         25   -1    0    0    0    0  0.00000000000E+00  0.00000000000E+00  0.99999998245E-14  0.12500000000E+03  0.12500000000E+03 0.  0.
    3000001    1    3    3    0    0 -0.10601918096E+02  0.35439315163E+02 -0.41844710264E+02  0.55859873823E+02  0.10000000000E+01 0.  1.
    1000022    2    1    0    0    0 -0.10706827447E+02  0.36814753787E+02 -0.48335160774E+02  0.62500000392E+02  0.10000001576E+02 0.  0.
    3000022    2    3    3    0    0 -0.10490935146E+00  0.13754386248E+01 -0.64904505101E+01  0.66401265684E+01  0.24999127549E+00 0.  0.
    1000022    2    1    0    0    0  0.10706827447E+02 -0.36814753787E+02  0.48335160774E+02  0.62499999608E+02  0.99999966811E+01 0.  0.
    3000022    2    5    5    0    0  0.30849524730E+01 -0.12791403884E+02  0.96546490369E+01  0.16322122796E+02  0.24999890757E+00 0.  0.
        -13    1    4    4    0    0 -0.57868104953E-01  0.64899555566E+00 -0.27540736784E+01  0.28320470997E+01  0.10500000000E+00 0.  1.
         13    1    4    4    0    0 -0.47041246508E-01  0.72644306913E+00 -0.37363768317E+01  0.38080794687E+01  0.10500000000E+00 0. -1.
    3000001    1    5    5    0    0  0.76218749742E+01 -0.24023349904E+02  0.38680511737E+02  0.46177876813E+02  0.10000000000E+01 0.  1.
        -13    1    6    6    0    0  0.22391166733E+01 -0.91560932145E+01  0.68808885898E+01  0.11670704315E+02  0.10500000000E+00 0. -1.
         13    1    6    6    0    0  0.84583579967E+00 -0.36353106691E+01  0.27737604471E+01  0.46514184803E+01  0.10500000000E+00 0.  1.
</event>
<event>
11    0  0.3422856E-009  0.9118800E+02  0.7816531E-02  0.1126479E+00
         25   -1    0    0    0    0  0.00000000000E+00  0.00000000000E+00  0.99999998245E-14  0.12500000000E+03  0.12500000000E+03 0.  0.
    3000001    1    3    3    0    0 -0.12884609502E+02  0.39056604052E+01 -0.14799250363E+02  0.20032103148E+02  0.10000000000E+01 0. -1.
    1000022    2    1    0    0    0 -0.41309704391E+02  0.24405922503E+02 -0.38782849124E+02  0.62500000078E+02  0.99999946693E+01 0.  0.
    3000022    2    3    3    0    0 -0.28425094889E+02  0.20500262098E+02 -0.23983598761E+02  0.42467896929E+02  0.24998909369E+00 0.  0.
    1000022    2    1    0    0    0  0.41309704391E+02 -0.24405922503E+02  0.38782849124E+02  0.62499999922E+02  0.99999936989E+01 0.  0.
    3000022    2    5    5    0    0  0.14686786477E+02 -0.95765330302E+01  0.20383052088E+02  0.26887599254E+02  0.24999861636E+00 0.  0.
        -13    1    4    4    0    0 -0.17172876162E+02  0.12458893833E+02 -0.14497115290E+02  0.25696480069E+02  0.10500000000E+00 0. -1.
         13    1    4    4    0    0 -0.11252218727E+02  0.80413682652E+01 -0.94864834713E+01  0.16771416861E+02  0.10500000000E+00 0.  1.
    3000001    1    5    5    0    0  0.26622917914E+02 -0.14829389473E+02  0.18399797036E+02  0.35612400668E+02  0.10000000000E+01 0. -1.
        -13    1    6    6    0    0  0.99760886903E+01 -0.64828611633E+01  0.13903557875E+02  0.18299447560E+02  0.10500000000E+00 0.  1.
         13    1    6    6    0    0  0.47106977869E+01 -0.30936718670E+01  0.64794942135E+01  0.85881516942E+01  0.10500000000E+00 0. -1.
</event>
<event>
11    0  0.3422856E-009  0.9118800E+02  0.7816531E-02  0.1126479E+00
         25   -1    0    0    0    0  0.00000000000E+00  0.00000000000E+00  0.99999998245E-14  0.12500000000E+03  0.12500000000E+03 0.  0.
    3000001    1    3    3    0    0 -0.21654815095E+02 -0.42652341023E+01 -0.15513006260E+02  0.26995862682E+02  0.10000000000E+01 0. -1.
    1000022    2    1    0    0    0 -0.55154185932E+02 -0.45487919271E+01 -0.27268558706E+02  0.62500000017E+02  0.99999987234E+01 0.  0.
    3000022    2    3    3    0    0 -0.33499370837E+02 -0.28355782482E+00 -0.11755552446E+02  0.35504137335E+02  0.25000617401E+00 0.  0.
    1000022    2    1    0    0    0  0.55154185932E+02  0.45487919271E+01  0.27268558706E+02  0.62499999983E+02  0.99999985053E+01 0.  0.
    3000022    2    5    5    0    0  0.41730297989E+02  0.61710834089E+01  0.24072052323E+02  0.48569807945E+02  0.25000011706E+00 0.  0.
        -13    1    4    4    0    0 -0.19770111184E+02 -0.18663531602E+00 -0.68730554991E+01  0.20931842869E+02  0.10500000000E+00 0.  1.
         13    1    4    4    0    0 -0.13729259652E+02 -0.96922508799E-01 -0.48824969470E+01  0.14572294466E+02  0.10500000000E+00 0. -1.
    3000001    1    5    5    0    0  0.13423887943E+02 -0.16222914818E+01  0.31965063832E+01  0.13930192038E+02  0.10000000000E+01 0. -1.
        -13    1    6    6    0    0  0.16106102302E+02  0.23271425586E+01  0.92524742146E+01  0.18720080874E+02  0.10500000000E+00 0. -1.
         13    1    6    6    0    0  0.25624195687E+02  0.38439408503E+01  0.14819578108E+02  0.29849727070E+02  0.10500000000E+00 0.  1.
</event>
<event>
11    0  0.3422856E-009  0.9118800E+02  0.7816531E-02  0.1126479E+00
         25   -1    0    0    0    0  0.00000000000E+00  0.00000000000E+00  0.99999998245E-14  0.12500000000E+03  0.12500000000E+03 0.  0.
    3000001    1    3    3    0    0 -0.22522479453E+01  0.35899580915E+01 -0.58396193160E+01  0.72843375581E+01  0.10000000000E+01 0. -1.
    1000022    2    1    0    0    0 -0.17734441057E+02  0.49738930208E+02 -0.31902648426E+02  0.62500004894E+02  0.10000002867E+02 0.  0.
    3000022    2    3    3    0    0 -0.15482193112E+02  0.46148972116E+02 -0.26063029110E+02  0.55215667335E+02  0.25000402334E+00 0.  0.
    1000022    2    1    0    0    0  0.17734441057E+02 -0.49738930208E+02  0.31902648426E+02  0.62499995106E+02  0.99999416965E+01 0.  0.
    3000022    2    5    5    0    0  0.70808562466E+01 -0.32156726648E+02  0.22435257660E+02  0.39844659329E+02  0.24999358825E+00 0.  0.
        -13    1    4    4    0    0 -0.60118104119E+01  0.17918101321E+02 -0.10049472180E+02  0.21405679982E+02  0.10500000000E+00 0. -1.
         13    1    4    4    0    0 -0.94703826996E+01  0.28230870795E+02 -0.16013556930E+02  0.33809987354E+02  0.10500000000E+00 0.  1.
    3000001    1    5    5    0    0  0.10653584810E+02 -0.17582203559E+02  0.94673907653E+01  0.22655335778E+02  0.10000000000E+01 0.  1.
        -13    1    6    6    0    0  0.19493560341E+01 -0.89835020790E+01  0.62303370604E+01  0.11105468177E+02  0.10500000000E+00 0. -1.
         13    1    6    6    0    0  0.51315002125E+01 -0.23173224569E+02  0.16204920600E+02  0.28739191151E+02  0.10500000000E+00 0.  1.
</event>
<event>
11    0  0.3422856E-009  0.9118800E+02  0.7816531E-02  0.1126479E+00
         25   -1    0    0    0    0  0.00000000000E+00  0.00000000000E+00  0.99999998245E-14  0.12500000000E+03  0.12500000000E+03 0.  0.
    3000001    1    3    3    0    0 -0.36053335169E+02 -0.45489347615E+02 -0.26733163779E+01  0.58114286916E+02  0.10000000000E+01 0. -1.
    1000022    2    1    0    0    0 -0.38266107907E+02 -0.48393072798E+02 -0.25588246414E+00  0.62499999624E+02  0.99999983974E+01 0.  0.
    3000022    2    3    3    0    0 -0.22127727375E+01 -0.29037251833E+01  0.24174339138E+01  0.43857127081E+01  0.25001220524E+00 0.  0.
    1000022    2    1    0    0    0  0.38266107907E+02  0.48393072798E+02  0.25588246414E+00  0.62500000376E+02  0.10000003100E+02 0.  0.
    3000022    2    5    5    0    0  0.11836821351E+02  0.11094058483E+02 -0.35789201416E+01  0.16615042407E+02  0.24998302683E+00 0.  0.
        -13    1    4    4    0    0 -0.93129019884E+00 -0.11249390950E+01  0.99440787172E+00  0.17699326025E+01  0.10500000000E+00 0. -1.
         13    1    4    4    0    0 -0.12814825387E+01 -0.17787860883E+01  0.14230260420E+01  0.26157801057E+01  0.10500000000E+00 0.  1.
    3000001    1    5    5    0    0  0.26429286556E+02  0.37299014316E+02  0.38348026057E+01  0.45884957969E+02  0.10000000000E+01 0. -1.
        -13    1    6    6    0    0  0.66699174619E+01  0.62627764498E+01 -0.20852869449E+01  0.93845412488E+01  0.10500000000E+00 0. -1.
         13    1    6    6    0    0  0.51669038890E+01  0.48312820328E+01 -0.14936331967E+01  0.72305011586E+01  0.10500000000E+00 0.  1.
</event>
<event>
11    0  0.3422856E-009  0.9118800E+02  0.7816531E-02  0.1126479E+00
         25   -1    0    0    0    0  0.00000000000E+00  0.00000000000E+00  0.99999998245E-14  0.12500000000E+03  0.12500000000E+03 0.  0.
    3000001    1    3    3    0    0  0.14843263875E+02 -0.19135778086E+02  0.23767920537E+02  0.33947231582E+02  0.10000000000E+01 0. -1.
    1000022    2    1    0    0    0  0.21135091396E+02 -0.41173458102E+02  0.40795886237E+02  0.62499999167E+02  0.99999910838E+01 0.  0.
    3000022    2    3    3    0    0  0.62918275215E+01 -0.22037680015E+02  0.17027965700E+02  0.28552767585E+02  0.24997376781E+00 0.  0.
    1000022    2    1    0    0    0 -0.21135091396E+02  0.41173458102E+02 -0.40795886237E+02  0.62500000833E+02  0.10000001492E+02 0.  0.
    3000022    2    5    5    0    0 -0.71957689702E+01  0.19424978046E+02 -0.23842142775E+02  0.31585109408E+02  0.25000207871E+00 0.  0.
        -13    1    4    4    0    0  0.28306561883E+01 -0.10133730996E+02  0.77805787068E+01  0.13086387903E+02  0.10500000000E+00 0. -1.
         13    1    4    4    0    0  0.34611713332E+01 -0.11903949020E+02  0.92473869928E+01  0.15466379682E+02  0.10500000000E+00 0.  1.
    3000001    1    5    5    0    0 -0.13939322426E+02  0.21748480056E+02 -0.16953743462E+02  0.30914891425E+02  0.10000000000E+01 0. -1.
        -13    1    6    6    0    0 -0.22808619717E+01  0.62354620114E+01 -0.75768741112E+01  0.10074887797E+02  0.10500000000E+00 0. -1.
         13    1    6    6    0    0 -0.49149069985E+01  0.13189516034E+02 -0.16265268664E+02  0.21510221611E+02  0.10500000000E+00 0.  1.
</event>
<event>
11    0  0.3422856E-009  0.9118800E+02  0.7816531E-02  0.1126479E+00
         25   -1    0    0    0    0  0.00000000000E+00  0.00000000000E+00  0.99999998245E-14  0.12500000000E+03  0.12500000000E+03 0.  0.
    3000001    1    3    3    0    0 -0.48479713337E+01  0.20485948987E+02 -0.62272626038E+00  0.21084703459E+02  0.10000000000E+01 0. -1.
    1000022    2    1    0    0    0 -0.22274235136E+02  0.56220474574E+02 -0.12221571141E+02  0.62499998906E+02  0.99999874979E+01 0.  0.
    3000022    2    3    3    0    0 -0.17426263803E+02  0.35734525586E+02 -0.11598844881E+02  0.41415295447E+02  0.25001085284E+00 0.  0.
    1000022    2    1    0    0    0  0.22274235136E+02 -0.56220474574E+02  0.12221571141E+02  0.62500001094E+02  0.10000001168E+02 0.  0.
    3000022    2    5    5    0    0  0.13545764040E+02 -0.20989813299E+02  0.47743190975E+01  0.25434555399E+02  0.24999949471E+00 0.  0.
        -13    1    4    4    0    0 -0.11644725478E+02  0.23998891243E+02 -0.77845061091E+01  0.27787694628E+02  0.10500000000E+00 0.  1.
         13    1    4    4    0    0 -0.57815383246E+01  0.11735634343E+02 -0.38143387717E+01  0.13627600820E+02  0.10500000000E+00 0. -1.
    3000001    1    5    5    0    0  0.87284710958E+01 -0.35230661275E+02  0.74472520437E+01  0.37065445695E+02  0.10000000000E+01 0. -1.
        -13    1    6    6    0    0  0.59481906233E+01 -0.91322645062E+01  0.20347853117E+01  0.11087407405E+02  0.10500000000E+00 0.  1.
         13    1    6    6    0    0  0.75975734171E+01 -0.11857548792E+02  0.27395337858E+01  0.14347147994E+02  0.10500000000E+00 0. -1.
</event>
<event>
11    0  0.3422856E-009  0.9118800E+02  0.7816531E-02  0.1126479E+00
         25   -1    0    0    0    0  0.00000000000E+00  0.00000000000E+00  0.99999998245E-14  0.12500000000E+03  0.12500000000E+03 0.  0.
    3000001    1    3    3    0    0  0.15673405043E+02  0.37893209287E+02  0.76219085324E+01  0.41721030973E+02  0.10000000000E+01 0. -1.
    1000022    2    1    0    0    0  0.23577322302E+02  0.56840211523E+02  0.44215578707E+01  0.62499999771E+02  0.10000001221E+02 0.  0.
    3000022    2    3    3    0    0  0.79039172590E+01  0.18947002236E+02 -0.32003506617E+01  0.20778968798E+02  0.24999640221E+00 0.  0.
    1000022    2    1    0    0    0 -0.23577322302E+02 -0.56840211523E+02 -0.44215578707E+01  0.62500000229E+02  0.10000004087E+02 0.  0.
    3000022    2    5    5    0    0 -0.59193934670E+01 -0.71919208024E+01  0.15940804264E+01  0.94533874594E+01  0.24999641674E+00 0.  0.
        -13    1    4    4    0    0  0.35194781050E+01  0.86099706678E+01 -0.14460159739E+01  0.94138359996E+01  0.10500000000E+00 0. -1.
         13    1    4    4    0    0  0.43844391540E+01  0.10337031568E+02 -0.17543346878E+01  0.11365132798E+02  0.10500000000E+00 0.  1.
    3000001    1    5    5    0    0 -0.17657928835E+02 -0.49648290721E+02 -0.60156382971E+01  0.53046612770E+02  0.10000000000E+01 0. -1.
        -13    1    6    6    0    0 -0.28941479818E+01 -0.36143810114E+01  0.76520903230E+00  0.46942957405E+01  0.10500000000E+00 0. -1.
         13    1    6    6    0    0 -0.30252454852E+01 -0.35775397910E+01  0.82887139406E+00  0.47590917190E+01  0.10500000000E+00 0.  1.
</event>
<event>
11    0  0.3422856E-009  0.9118800E+02  0.7816531E-02  0.1126479E+00
         25   -1    0    0    0    0  0.00000000000E+00  0.00000000000E+00  0.99999998245E-14  0.12500000000E+03  0.12500000000E+03 0.  0.
    3000001    1    3    3    0    0  0.16328821366E+01 -0.14604074831E+02  0.14297401426E+02  0.20527079512E+02  0.10000000000E+01 0. -1.
    1000022    2    1    0    0    0  0.14540020813E+02 -0.49151083855E+02  0.34336689380E+02  0.62499994906E+02  0.99999938142E+01 0.  0.
    3000022    2    3    3    0    0  0.12907138676E+02 -0.34547009023E+02  0.20039287955E+02  0.41972915394E+02  0.25000735219E+00 0.  0.
    1000022    2    1    0    0    0 -0.14540020813E+02  0.49151083855E+02 -0.34336689380E+02  0.62500005094E+02  0.10000057493E+02 0.  0.
    3000022    2    5    5    0    0 -0.88866505924E+01  0.31725774551E+02 -0.27515624689E+02  0.42926325760E+02  0.25002316864E+00 0.  0.
        -13    1    4    4    0    0  0.42160783525E+01 -0.11435996467E+02  0.66222304453E+01  0.13871636274E+02  0.10500000000E+00 0. -1.
         13    1    4    4    0    0  0.86910603238E+01 -0.23111012557E+02  0.13417057509E+02  0.28101279120E+02  0.10500000000E+00 0.  1.
    3000001    1    5    5    0    0 -0.56533702204E+01  0.17425309304E+02 -0.68210646916E+01  0.19573679335E+02  0.10000000000E+01 0. -1.
        -13    1    6    6    0    0 -0.51377331357E+01  0.18579621947E+02 -0.16090555067E+02  0.25110070507E+02  0.10500000000E+00 0. -1.
         13    1    6    6    0    0 -0.37489174567E+01  0.13146152604E+02 -0.11425069622E+02  0.17816255253E+02  0.10500000000E+00 0.  1.
</event>
<event>
11    0  0.3422856E-009  0.9118800E+02  0.7816531E-02  0.1126479E+00
         25   -1    0    0    0    0  0.00000000000E+00  0.00000000000E+00  0.99999998245E-14  0.12500000000E+03  0.12500000000E+03 0.  0.
    3000001    1    3    3    0    0  0.13715696557E+02 -0.29067320080E+02  0.15693121160E+02  0.35781328657E+02  0.10000000000E+01 0.  1.
    1000022    2    1    0    0    0  0.26394151459E+02 -0.44869730214E+02  0.33110512795E+02  0.62500000717E+02  0.10000005570E+02 0.  0.
    3000022    2    3    3    0    0  0.12678454902E+02 -0.15802410134E+02  0.17417391634E+02  0.26718672061E+02  0.25004116378E+00 0.  0.
    1000022    2    1    0    0    0 -0.26394151459E+02  0.44869730214E+02 -0.33110512795E+02  0.62499999283E+02  0.99999966017E+01 0.  0.
    3000022    2    5    5    0    0 -0.18749108195E+02  0.33129915513E+02 -0.18832415906E+02  0.42471669684E+02  0.24995382104E+00 0.  0.
        -13    1    4    4    0    0  0.52287870065E+01 -0.65572651043E+01  0.72884740355E+01  0.11111742346E+02  0.10500000000E+00 0. -1.
         13    1    4    4    0    0  0.74496678959E+01 -0.92451450294E+01  0.10128917599E+02  0.15606929714E+02  0.10500000000E+00 0.  1.
    3000001    1    5    5    0    0 -0.76450432646E+01  0.11739814702E+02 -0.14278096889E+02  0.20028329599E+02  0.10000000000E+01 0.  1.
        -13    1    6    6    0    0 -0.14079790549E+02  0.24825693022E+02 -0.14121381278E+02  0.31843052148E+02  0.10500000000E+00 0. -1.
         13    1    6    6    0    0 -0.46693176455E+01  0.83042224908E+01 -0.47110346279E+01  0.10628617535E+02  0.10500000000E+00 0.  1.
</event>
<event>
11    0  0.3422856E-009  0.9118800E+02  0.7816531E-02  0.1126479E+00
         25   -1    0    0    0    0  0.00000000000E+00  0.00000000000E+00  0.99999998245E-14  0.12500000000E+03  0.12500000000E+03 0.  0.
    3000001    1    3    3    0    0 -0.26882762275E+02  0.16680573300E+01 -0.52669797966E+01  0.27462818482E+02  0.10000000000E+01 0.  1.
    1000022    2    1    0    0    0 -0.61678344807E+02  0.40165158593E+00 -0.13675998150E+01  0.62499998881E+02  0.99999994367E+01 0.  0.
    3000022    2    3    3    0    0 -0.34795582531E+02 -0.12664057441E+01  0.38993799815E+01  0.35037180399E+02  0.24999765280E+00 0.  0.
    1000022    2    1    0    0    0  0.61678344807E+02 -0.40165158593E+00  0.13675998150E+01  0.62500001119E+02  0.10000013427E+02 0.  0.
    3000022    2    5    5    0    0  0.27257088572E+02 -0.49114707526E+01  0.19447312205E+01  0.27765372427E+02  0.25000827503E+00 0.  0.
        -13    1    4    4    0    0 -0.25116987806E+02 -0.88803131411E+00  0.27853673965E+01  0.25286774657E+02  0.10500000000E+00 0. -1.
         13    1    4    4    0    0 -0.96785947259E+01 -0.37837442996E+00  0.11140125850E+01  0.97504057411E+01  0.10500000000E+00 0.  1.
    3000001    1    5    5    0    0  0.34421256235E+02  0.45098191667E+01 -0.57713140549E+00  0.34734628692E+02  0.10000000000E+01 0.  1.
        -13    1    6    6    0    0  0.96508842324E+01 -0.17680271362E+01  0.73864622753E+00  0.98398226443E+01  0.10500000000E+00 0.  1.
         13    1    6    6    0    0  0.17606204339E+02 -0.31434436164E+01  0.12060849930E+01  0.17925549783E+02  0.10500000000E+00 0. -1.
</event>
<event>
11    0  0.3422856E-009  0.9118800E+02  0.7816531E-02  0.1126479E+00
         25   -1    0    0    0    0  0.00000000000E+00  0.00000000000E+00  0.99999998245E-14  0.12500000000E+03  0.12500000000E+03 0.  0.
    3000001    1    3    3    0    0 -0.19369529914E+02 -0.24933638088E+02 -0.21723967003E+02  0.38337915172E+02  0.10000000000E+01 0.  1.
    1000022    2    1    0    0    0 -0.33633227303E+02 -0.33959093906E+02 -0.39010720778E+02  0.62499998479E+02  0.99999718265E+01 0.  0.
    3000022    2    3    3    0    0 -0.14263697389E+02 -0.90254558185E+01 -0.17286753775E+02  0.24162083307E+02  0.24999547376E+00 0.  0.
    1000022    2    1    0    0    0  0.33633227303E+02  0.33959093906E+02  0.39010720778E+02  0.62500001521E+02  0.99999908380E+01 0.  0.
    3000022    2    5    5    0    0  0.31969677797E+02  0.28069449406E+02  0.35227830715E+02  0.55236010433E+02  0.25000646620E+00 0.  0.
        -13    1    4    4    0    0 -0.60290725107E+01 -0.37616440817E+01 -0.73448396318E+01  0.10220439118E+02  0.10500000000E+00 0.  1.
         13    1    4    4    0    0 -0.82346248780E+01 -0.52638117368E+01 -0.99419141429E+01  0.13941644189E+02  0.10500000000E+00 0. -1.
    3000001    1    5    5    0    0  0.16635495052E+01  0.58896445004E+01  0.37828900629E+01  0.72639910879E+01  0.10000000000E+01 0.  1.
        -13    1    6    6    0    0  0.14721974648E+02  0.12987210089E+02  0.16319309238E+02  0.25529101873E+02  0.10500000000E+00 0.  1.
         13    1    6    6    0    0  0.17247703150E+02  0.15082239317E+02  0.18908521477E+02  0.29706908560E+02  0.10500000000E+00 0. -1.
</event>
<event>
11    0  0.3422856E-009  0.9118800E+02  0.7816531E-02  0.1126479E+00
         25   -1    0    0    0    0  0.00000000000E+00  0.00000000000E+00  0.99999998245E-14  0.12500000000E+03  0.12500000000E+03 0.  0.
    3000001    1    3    3    0    0  0.10263394716E+02  0.10362782452E+02 -0.52235785997E+01  0.15524506582E+02  0.10000000000E+01 0.  1.
    1000022    2    1    0    0    0  0.51764727856E+02  0.30976173743E+02 -0.12928246697E+02  0.62499999766E+02  0.10000000913E+02 0.  0.
    3000022    2    3    3    0    0  0.41501333140E+02  0.20613391291E+02 -0.77046680969E+01  0.46975493183E+02  0.24999275213E+00 0.  0.
    1000022    2    1    0    0    0 -0.51764727856E+02 -0.30976173743E+02  0.12928246697E+02  0.62500000234E+02  0.10000003844E+02 0.  0.
    3000022    2    5    5    0    0 -0.24414351454E+02 -0.14158647693E+02  0.11090404615E+02  0.30324700154E+02  0.25000693473E+00 0.  0.
        -13    1    4    4    0    0  0.14010176398E+02  0.69340788629E+01 -0.26494382726E+01  0.15855505054E+02  0.10500000000E+00 0. -1.
         13    1    4    4    0    0  0.27491156743E+02  0.13679312428E+02 -0.50552298243E+01  0.31119988129E+02  0.10500000000E+00 0.  1.
    3000001    1    5    5    0    0 -0.27350376402E+02 -0.16817526050E+02  0.18378420817E+01  0.32175300081E+02  0.10000000000E+01 0.  1.
        -13    1    6    6    0    0 -0.85307376828E+01 -0.50057139216E+01  0.39140898297E+01  0.10637752651E+02  0.10500000000E+00 0. -1.
         13    1    6    6    0    0 -0.15883613771E+02 -0.91529337718E+01  0.71763147853E+01  0.19686947502E+02  0.10500000000E+00 0.  1.
</event>
<event>
11    0  0.3422856E-009  0.9118800E+02  0.7816531E-02  0.1126479E+00
         25   -1    0    0    0    0  0.00000000000E+00  0.00000000000E+00  0.99999998245E-14  0.12500000000E+03  0.12500000000E+03 0.  0.
    3000001    1    3    3    0    0 -0.23879245232E+01  0.12904649894E+02 -0.22403113873E+01  0.13351073647E+02  0.10000000000E+01 0. -1.
    1000022    2    1    0    0    0  0.69770324327E+01  0.59444349419E+02 -0.14964642521E+02  0.62500001909E+02  0.10000002671E+02 0.  0.
    3000022    2    3    3    0    0  0.93649569559E+01  0.46539699525E+02 -0.12724331134E+02  0.49148928262E+02  0.24999167040E+00 0.  0.
    1000022    2    1    0    0    0 -0.69770324327E+01 -0.59444349419E+02  0.14964642521E+02  0.62499998091E+02  0.99999788090E+01 0.  0.
    3000022    2    5    5    0    0  0.38104153241E+00 -0.23738278070E+02  0.97179522337E+01  0.25654475397E+02  0.24994775690E+00 0.  0.
        -13    1    4    4    0    0  0.59589809812E+01  0.29851215409E+02 -0.81238201152E+01  0.31505745413E+02  0.10500000000E+00 0. -1.
         13    1    4    4    0    0  0.34059759747E+01  0.16688484116E+02 -0.46005110188E+01  0.17643182849E+02  0.10500000000E+00 0.  1.
    3000001    1    5    5    0    0 -0.73580739651E+01 -0.35706071349E+02  0.52466902876E+01  0.36845522694E+02  0.10000000000E+01 0.  1.
        -13    1    6    6    0    0  0.29116026144E+00 -0.18183830579E+02  0.74579833107E+01  0.19656271490E+02  0.10500000000E+00 0. -1.
         13    1    6    6    0    0  0.89881270968E-01 -0.55544474914E+01  0.22599689230E+01  0.59982039071E+01  0.10500000000E+00 0.  1.
</event>
<event>
11    0  0.3422856E-009  0.9118800E+02  0.7816531E-02  0.1126479E+00
         25   -1    0    0    0    0  0.00000000000E+00  0.00000000000E+00  0.99999998245E-14  0.12500000000E+03  0.12500000000E+03 0.  0.
    3000001    1    3    3    0    0  0.42533383374E+01 -0.28547998325E+02  0.30296827053E+02  0.41856622234E+02  0.10000000000E+01 0. -1.
    1000022    2    1    0    0    0  0.22380437478E+01 -0.38056750411E+02  0.48506956732E+02  0.62500001349E+02  0.10000011276E+02 0.  0.
    3000022    2    3    3    0    0 -0.20152945896E+01 -0.95087520858E+01  0.18210129680E+02  0.20643379115E+02  0.24999963509E+00 0.  0.
    1000022    2    1    0    0    0 -0.22380437478E+01  0.38056750411E+02 -0.48506956732E+02  0.62499998651E+02  0.99999944138E+01 0.  0.
    3000022    2    5    5    0    0  0.19254311761E+01  0.11498145940E+01 -0.26638419883E+01  0.34911213165E+01  0.25003018472E+00 0.  0.
        -13    1    4    4    0    0 -0.11104208140E+01 -0.51854761946E+01  0.10074502087E+02  0.11385465078E+02  0.10500000000E+00 0. -1.
         13    1    4    4    0    0 -0.90487377565E+00 -0.43232758913E+01  0.81356275924E+01  0.92579140364E+01  0.10500000000E+00 0.  1.
    3000001    1    5    5    0    0 -0.41634749239E+01  0.36906935817E+02 -0.45843114744E+02  0.59008877335E+02  0.10000000000E+01 0. -1.
        -13    1    6    6    0    0  0.94908561860E+00  0.63231483054E+00 -0.12941593615E+01  0.17281374393E+01  0.10500000000E+00 0. -1.
         13    1    6    6    0    0  0.97634555749E+00  0.51749976348E+00 -0.13696826268E+01  0.17629838771E+01  0.10500000000E+00 0.  1.
</event>
<event>
11    0  0.3422856E-009  0.9118800E+02  0.7816531E-02  0.1126479E+00
         25   -1    0    0    0    0  0.00000000000E+00  0.00000000000E+00  0.99999998245E-14  0.12500000000E+03  0.12500000000E+03 0.  0.
    3000001    1    3    3    0    0 -0.18158794213E+02  0.55147395945E+01  0.14321361896E+02  0.23796125034E+02  0.10000000000E+01 0. -1.
    1000022    2    1    0    0    0 -0.43311329430E+02  0.26059458296E+02  0.35373488245E+02  0.62500001034E+02  0.99999917491E+01 0.  0.
    3000022    2    3    3    0    0 -0.25152535217E+02  0.20544718701E+02  0.21052126348E+02  0.38703876000E+02  0.24999855070E+00 0.  0.
    1000022    2    1    0    0    0  0.43311329430E+02 -0.26059458296E+02 -0.35373488245E+02  0.62499998966E+02  0.99999788215E+01 0.  0.
    3000022    2    5    5    0    0  0.14453245318E+02 -0.13063418063E+02 -0.17204853785E+02  0.25992666024E+02  0.25000316044E+00 0.  0.
        -13    1    4    4    0    0 -0.15312327081E+02  0.12500057957E+02  0.12886794697E+02  0.23596595350E+02  0.10500000000E+00 0.  1.
         13    1    4    4    0    0 -0.98402081354E+01  0.80446607445E+01  0.81653316519E+01  0.15107280650E+02  0.10500000000E+00 0. -1.
    3000001    1    5    5    0    0  0.28858084112E+02 -0.12996040233E+02 -0.18168634459E+02  0.36507332941E+02  0.10000000000E+01 0. -1.
        -13    1    6    6    0    0  0.10362253546E+02 -0.93197379432E+01 -0.12276313536E+02  0.18572902652E+02  0.10500000000E+00 0. -1.
         13    1    6    6    0    0  0.40909917721E+01 -0.37436801195E+01 -0.49285402492E+01  0.74197633725E+01  0.10500000000E+00 0.  1.
</event>
<event>
11    0  0.3422856E-009  0.9118800E+02  0.7816531E-02  0.1126479E+00
         25   -1    0    0    0    0  0.00000000000E+00  0.00000000000E+00  0.99999998245E-14  0.12500000000E+03  0.12500000000E+03 0.  0.
    3000001    1    3    3    0    0  0.23522794117E+02  0.18710473092E+02 -0.17541543398E+02  0.34815361425E+02  0.10000000000E+01 0.  1.
    1000022    2    1    0    0    0  0.36646365333E+02  0.40068032534E+02 -0.29289021747E+02  0.62500000012E+02  0.99999941672E+01 0.  0.
    3000022    2    3    3    0    0  0.13123571217E+02  0.21357559442E+02 -0.11747478349E+02  0.27684638587E+02  0.24999866612E+00 0.  0.
    1000022    2    1    0    0    0 -0.36646365333E+02 -0.40068032534E+02  0.29289021747E+02  0.62499999988E+02  0.99999940121E+01 0.  0.
    3000022    2    5    5    0    0 -0.14918708048E+02 -0.12723407962E+02  0.59882861065E+01  0.20503049319E+02  0.25000175159E+00 0.  0.
        -13    1    4    4    0    0  0.57400491294E+01  0.93975366216E+01 -0.50952163585E+01  0.12134006482E+02  0.10500000000E+00 0.  1.
         13    1    4    4    0    0  0.73835220872E+01  0.11960022821E+02 -0.66522619901E+01  0.15550632105E+02  0.10500000000E+00 0. -1.
    3000001    1    5    5    0    0 -0.21727657285E+02 -0.27344624572E+02  0.23300735640E+02  0.41996950669E+02  0.10000000000E+01 0.  1.
        -13    1    6    6    0    0 -0.83479290069E+01 -0.70424063264E+01  0.33031754232E+01  0.11410758014E+02  0.10500000000E+00 0.  1.
         13    1    6    6    0    0 -0.65707790414E+01 -0.56810016359E+01  0.26851106833E+01  0.90922913053E+01  0.10500000000E+00 0. -1.
</event>
<event>
11    0  0.3422856E-009  0.9118800E+02  0.7816531E-02  0.1126479E+00
         25   -1    0    0    0    0  0.00000000000E+00  0.00000000000E+00  0.99999998245E-14  0.12500000000E+03  0.12500000000E+03 0.  0.
    3000001    1    3    3    0    0  0.33617317395E+02 -0.10531257132E+02 -0.34658623613E+02  0.49429258505E+02  0.10000000000E+01 0.  1.
    1000022    2    1    0    0    0  0.39552568741E+02 -0.99649023992E+01 -0.46287632029E+02  0.62500000550E+02  0.10000010801E+02 0.  0.
    3000022    2    3    3    0    0  0.59352513467E+01  0.56635473313E+00 -0.11629008416E+02  0.13070742045E+02  0.24998927277E+00 0.  0.
    1000022    2    1    0    0    0 -0.39552568741E+02  0.99649023992E+01  0.46287632029E+02  0.62499999450E+02  0.10000003928E+02 0.  0.
    3000022    2    5    5    0    0 -0.44210344031E+01  0.43395669691E+01  0.48299769961E+01  0.78592979130E+01  0.24999845879E+00 0.  0.
        -13    1    4    4    0    0  0.36697316465E+01  0.33943689647E+00 -0.70540739518E+01  0.79594680778E+01  0.10500000000E+00 0. -1.
         13    1    4    4    0    0  0.22655197003E+01  0.22691783666E+00 -0.45749344638E+01  0.51112739669E+01  0.10500000000E+00 0.  1.
    3000001    1    5    5    0    0 -0.35131534338E+02  0.56253354301E+01  0.41457655033E+02  0.54640701537E+02  0.10000000000E+01 0.  1.
        -13    1    6    6    0    0 -0.29896839094E+01  0.29288853558E+01  0.33271010050E+01  0.53476354965E+01  0.10500000000E+00 0.  1.
         13    1    6    6    0    0 -0.14313504937E+01  0.14106816133E+01  0.15028759911E+01  0.25116624165E+01  0.10500000000E+00 0. -1.
</event>
<event>
11    0  0.3422856E-009  0.9118800E+02  0.7816531E-02  0.1126479E+00
         25   -1    0    0    0    0  0.00000000000E+00  0.00000000000E+00  0.99999998245E-14  0.12500000000E+03  0.12500000000E+03 0.  0.
    3000001    1    3    3    0    0  0.94460300778E+01 -0.22396122861E+02 -0.92423689444E+01  0.26023742758E+02  0.10000000000E+01 0. -1.
    1000022    2    1    0    0    0  0.31731681210E+02 -0.46807188567E+02 -0.24666524632E+02  0.62500001555E+02  0.10000013149E+02 0.  0.
    3000022    2    3    3    0    0  0.22285651132E+02 -0.24411065706E+02 -0.15424155688E+02  0.36476258797E+02  0.25000369382E+00 0.  0.
    1000022    2    1    0    0    0 -0.31731681210E+02  0.46807188567E+02  0.24666524632E+02  0.62499998445E+02  0.99999937133E+01 0.  0.
    3000022    2    5    5    0    0 -0.16944385111E+02  0.16432859235E+02  0.11030869948E+02  0.26055587530E+02  0.25000060631E+00 0.  0.
        -13    1    4    4    0    0  0.15119152854E+02 -0.16510152236E+02 -0.10404312069E+02  0.24686730130E+02  0.10500000000E+00 0.  1.
         13    1    4    4    0    0  0.71664982777E+01 -0.79009134698E+01 -0.50198436183E+01  0.11789528666E+02  0.10500000000E+00 0. -1.
    3000001    1    5    5    0    0 -0.14787296099E+02  0.30374329332E+02  0.13635654684E+02  0.36444410915E+02  0.10000000000E+01 0.  1.
        -13    1    6    6    0    0 -0.97035248001E+01  0.93329001230E+01  0.63295947694E+01  0.14877372523E+02  0.10500000000E+00 0. -1.
         13    1    6    6    0    0 -0.72408603105E+01  0.70999591119E+01  0.47012751787E+01  0.11178215007E+02  0.10500000000E+00 0.  1.
</event>
<event>
11    0  0.3422856E-009  0.9118800E+02  0.7816531E-02  0.1126479E+00
         25   -1    0    0    0    0  0.00000000000E+00  0.00000000000E+00  0.99999998245E-14  0.12500000000E+03  0.12500000000E+03 0.  0.
    3000001    1    3    3    0    0  0.55951111100E+00  0.27633541849E+02 -0.46613431753E+02  0.54200901354E+02  0.10000000000E+01 0.  1.
    1000022    2    1    0    0    0  0.24644467233E+01  0.34229799265E+02 -0.51268873644E+02  0.62499999516E+02  0.99999939656E+01 0.  0.
    3000022    2    3    3    0    0  0.19049356123E+01  0.65962574167E+01 -0.46554418910E+01  0.82990981615E+01  0.24999900065E+00 0.  0.
    1000022    2    1    0    0    0 -0.24644467233E+01 -0.34229799265E+02  0.51268873644E+02  0.62500000484E+02  0.10000000020E+02 0.  0.
    3000022    2    5    5    0    0 -0.15697802618E+01 -0.25136386767E+02  0.44321357467E+02  0.50977910397E+02  0.24994197489E+00 0.  0.
        -13    1    4    4    0    0  0.13462993310E+01  0.47787483674E+01 -0.33395948058E+01  0.59843860432E+01  0.10500000000E+00 0. -1.
         13    1    4    4    0    0  0.55863628132E+00  0.18175090493E+01 -0.13158470852E+01  0.23147121183E+01  0.10500000000E+00 0.  1.
    3000001    1    5    5    0    0 -0.89466646149E+00 -0.90934124983E+01  0.69475161773E+01  0.11522090087E+02  0.10000000000E+01 0.  1.
        -13    1    6    6    0    0 -0.73107685389E+00 -0.11865872278E+02  0.20786406157E+02  0.23946170972E+02  0.10500000000E+00 0.  1.
         13    1    6    6    0    0 -0.83870340790E+00 -0.13270514489E+02  0.23534951310E+02  0.27031739425E+02  0.10500000000E+00 0. -1.
</event>
<event>
11    0  0.3422856E-009  0.9118800E+02  0.7816531E-02  0.1126479E+00
         25   -1    0    0    0    0  0.00000000000E+00  0.00000000000E+00  0.99999998245E-14  0.12500000000E+03  0.12500000000E+03 0.  0.
    3000001    1    3    3    0    0  0.99389109832E+01  0.33343225171E+02  0.11305726211E+02  0.36597432444E+02  0.10000000000E+01 0. -1.
    1000022    2    1    0    0    0  0.22046256485E+02  0.56195874586E+02  0.12737205281E+02  0.62500000496E+02  0.99999959049E+01 0.  0.
    3000022    2    3    3    0    0  0.12107345502E+02  0.22852649416E+02  0.14314790698E+01  0.25902568052E+02  0.24999790451E+00 0.  0.
    1000022    2    1    0    0    0 -0.22046256485E+02 -0.56195874586E+02 -0.12737205281E+02  0.62499999504E+02  0.99999897037E+01 0.  0.
    3000022    2    5    5    0    0 -0.12968645515E+02 -0.33549105606E+02 -0.26082121328E+01  0.36063742803E+02  0.25004188433E+00 0.  0.
        -13    1    4    4    0    0  0.57998826114E+01  0.10845628161E+02  0.72876487103E+00  0.12321055627E+02  0.10500000000E+00 0.  1.
         13    1    4    4    0    0  0.63074628908E+01  0.12007021254E+02  0.70271419878E+00  0.13581512425E+02  0.10500000000E+00 0. -1.
    3000001    1    5    5    0    0 -0.90776109700E+01 -0.22646768980E+02 -0.10128993148E+02  0.26436256701E+02  0.10000000000E+01 0.  1.
        -13    1    6    6    0    0 -0.79548508080E+01 -0.20699584219E+02 -0.15648045055E+01  0.22230881142E+02  0.10500000000E+00 0.  1.
         13    1    6    6    0    0 -0.50137947075E+01 -0.12849521387E+02 -0.10434076273E+01  0.13832861661E+02  0.10500000000E+00 0. -1.
</event>
<event>
11    0  0.3422856E-009  0.9118800E+02  0.7816531E-02  0.1126479E+00
         25   -1    0    0    0    0  0.00000000000E+00  0.00000000000E+00  0.99999998245E-14  0.12500000000E+03  0.12500000000E+03 0.  0.
    3000001    1    3    3    0    0 -0.33523341364E+02  0.21308353354E+02  0.41205889827E+02  0.57243215278E+02  0.10000000000E+01 0.  1.
    1000022    2    1    0    0    0 -0.38387834340E+02  0.22652495246E+02  0.42655459988E+02  0.62499997837E+02  0.10000004834E+02 0.  0.
    3000022    2    3    3    0    0 -0.48644929751E+01  0.13441418917E+01  0.14495701613E+01  0.52567825592E+01  0.24999978575E+00 0.  0.
    1000022    2    1    0    0    0  0.38387834340E+02 -0.22652495246E+02 -0.42655459988E+02  0.62500002163E+02  0.10000031873E+02 0.  0.
    3000022    2    5    5    0    0  0.67185904374E+00 -0.14819367100E+01 -0.45846422977E+01  0.48712376367E+01  0.24996025449E+00 0.  0.
        -13    1    4    4    0    0 -0.19582566170E+01  0.54364303929E+00  0.64990729700E+00  0.21362867848E+01  0.10500000000E+00 0. -1.
         13    1    4    4    0    0 -0.29062363581E+01  0.80049885238E+00  0.79966286429E+00  0.31204957744E+01  0.10500000000E+00 0.  1.
    3000001    1    5    5    0    0  0.37715975296E+02 -0.21170558536E+02 -0.38070817690E+02  0.57628764526E+02  0.10000000000E+01 0.  1.
        -13    1    6    6    0    0  0.19282787338E+00 -0.52165699766E+00 -0.16932309610E+01  0.17853192149E+01  0.10500000000E+00 0. -1.
         13    1    6    6    0    0  0.47903117036E+00 -0.96027971232E+00 -0.28914113367E+01  0.30859184218E+01  0.10500000000E+00 0.  1.
</event>
<event>
11    0  0.3422856E-009  0.9118800E+02  0.7816531E-02  0.1126479E+00
         25   -1    0    0    0    0  0.00000000000E+00  0.00000000000E+00  0.99999998245E-14  0.12500000000E+03  0.12500000000E+03 0.  0.
    3000001    1    3    3    0    0 -0.62235789784E+01  0.13365532494E+02  0.38376217853E+02  0.41123040876E+02  0.10000000000E+01 0. -1.
    1000022    2    1    0    0    0 -0.15954550827E+02  0.17685800195E+02  0.56911462382E+02  0.62499998460E+02  0.10000001823E+02 0.  0.
    3000022    2    3    3    0    0 -0.97309718485E+01  0.43202677012E+01  0.18535244528E+02  0.21376957584E+02  0.24999941202E+00 0.  0.
    1000022    2    1    0    0    0  0.15954550827E+02 -0.17685800195E+02 -0.56911462382E+02  0.62500001540E+02  0.10000021074E+02 0.  0.
    3000022    2    5    5    0    0  0.25265493595E+01 -0.91989852888E+01 -0.26666491338E+02  0.28322589056E+02  0.25001713616E+00 0.  0.
        -13    1    4    4    0    0 -0.52581643819E+01  0.23981533984E+01  0.99936208952E+01  0.11544822042E+02  0.10500000000E+00 0. -1.
         13    1    4    4    0    0 -0.44728074665E+01  0.19221143028E+01  0.85416236330E+01  0.98321355418E+01  0.10500000000E+00 0.  1.
    3000001    1    5    5    0    0  0.13428001467E+02 -0.84868149061E+01 -0.30244971044E+02  0.34177412484E+02  0.10000000000E+01 0. -1.
        -13    1    6    6    0    0  0.14114505548E+01 -0.49448533054E+01 -0.14245041617E+02  0.15145164329E+02  0.10500000000E+00 0. -1.
         13    1    6    6    0    0  0.11150988047E+01 -0.42541319835E+01 -0.12421449721E+02  0.13177424727E+02  0.10500000000E+00 0.  1.
</event>
<event>
11    0  0.3422856E-009  0.9118800E+02  0.7816531E-02  0.1126479E+00
         25   -1    0    0    0    0  0.00000000000E+00  0.00000000000E+00  0.99999998245E-14  0.12500000000E+03  0.12500000000E+03 0.  0.
    3000001    1    3    3    0    0  0.22308614789E+00 -0.34025029048E+01  0.47535028634E+01  0.59348616596E+01  0.10000000000E+01 0. -1.
    1000022    2    1    0    0    0 -0.10326246689E+02 -0.52885796975E+02  0.30045151968E+02  0.62499999628E+02  0.99999952159E+01 0.  0.
    3000022    2    3    3    0    0 -0.10549332837E+02 -0.49483294071E+02  0.25291649105E+02  0.56565137968E+02  0.25000714707E+00 0.  0.
    1000022    2    1    0    0    0  0.10326246689E+02  0.52885796975E+02 -0.30045151968E+02  0.62500000372E+02  0.99999998662E+01 0.  0.
    3000022    2    5    5    0    0  0.40378799735E+01  0.33893484463E+02 -0.23441898376E+02  0.41408427446E+02  0.25000061778E+00 0.  0.
        -13    1    4    4    0    0 -0.44287265295E+01 -0.21053031727E+02  0.10721616727E+02  0.24037634114E+02  0.10500000000E+00 0.  1.
         13    1    4    4    0    0 -0.61206063073E+01 -0.28430262343E+02  0.14570032378E+02  0.32527503854E+02  0.10500000000E+00 0. -1.
    3000001    1    5    5    0    0  0.62883667154E+01  0.18992312512E+02 -0.66032535917E+01  0.21091572926E+02  0.10000000000E+01 0. -1.
        -13    1    6    6    0    0  0.20335773544E+01  0.17615629057E+02 -0.12202647930E+02  0.21525832515E+02  0.10500000000E+00 0. -1.
         13    1    6    6    0    0  0.20043026190E+01  0.16277855406E+02 -0.11239250446E+02  0.19882594931E+02  0.10500000000E+00 0.  1.
</event>
<event>
11    0  0.3422856E-009  0.9118800E+02  0.7816531E-02  0.1126479E+00
         25   -1    0    0    0    0  0.00000000000E+00  0.00000000000E+00  0.99999998245E-14  0.12500000000E+03  0.12500000000E+03 0.  0.
    3000001    1    3    3    0    0  0.21530309124E+02  0.31714729070E+02 -0.35528230147E+02  0.52274596013E+02  0.10000000000E+01 0. -1.
    1000022    2    1    0    0    0  0.21486689655E+02  0.38065672512E+02 -0.43538222572E+02  0.62499997173E+02  0.99999782838E+01 0.  0.
    3000022    2    3    3    0    0 -0.43619468903E-01  0.63509434421E+01 -0.80099924256E+01  0.10225401160E+02  0.24992989750E+00 0.  0.
    1000022    2    1    0    0    0 -0.21486689655E+02 -0.38065672512E+02  0.43538222572E+02  0.62500002827E+02  0.10000013624E+02 0.  0.
    3000022    2    5    5    0    0 -0.55211856512E+01 -0.17678008625E+02  0.22342483592E+02  0.29021449875E+02  0.24999964871E+00 0.  0.
        -13    1    4    4    0    0 -0.74680492980E-01  0.34434750396E+01 -0.42732488386E+01  0.54895152938E+01  0.10500000000E+00 0.  1.
         13    1    4    4    0    0  0.31061024077E-01  0.29074684025E+01 -0.37367435870E+01  0.47358858658E+01  0.10500000000E+00 0. -1.
    3000001    1    5    5    0    0 -0.15965504004E+02 -0.20387663887E+02  0.21195738981E+02  0.33478552953E+02  0.10000000000E+01 0.  1.
        -13    1    6    6    0    0 -0.17429003571E+01 -0.55953022315E+01  0.71487000864E+01  0.92444603218E+01  0.10500000000E+00 0. -1.
         13    1    6    6    0    0 -0.37782852941E+01 -0.12082706394E+02  0.15193783505E+02  0.19776989553E+02  0.10500000000E+00 0.  1.
</event>
<event>
11    0  0.3422856E-009  0.9118800E+02  0.7816531E-02  0.1126479E+00
         25   -1    0    0    0    0  0.00000000000E+00  0.00000000000E+00  0.99999998245E-14  0.12500000000E+03  0.12500000000E+03 0.  0.
    3000001    1    3    3    0    0  0.76664808947E+01 -0.67613963643E+01  0.24983353881E+01  0.10570387401E+02  0.10000000000E+01 0. -1.
    1000022    2    1    0    0    0  0.35488699460E+02 -0.50451420532E+02 -0.12068069741E+01  0.62499999694E+02  0.99999977818E+01 0.  0.
    3000022    2    3    3    0    0  0.27822218565E+02 -0.43690024167E+02 -0.37051423622E+01  0.51929612292E+02  0.24999056475E+00 0.  0.
    1000022    2    1    0    0    0 -0.35488699460E+02  0.50451420532E+02  0.12068069741E+01  0.62500000306E+02  0.10000001612E+02 0.  0.
    3000022    2    5    5    0    0 -0.12749369031E+02  0.10866737352E+02  0.16572065125E+01  0.16835712832E+02  0.25000356642E+00 0.  0.
        -13    1    4    4    0    0  0.15177737254E+02 -0.23740323762E+02 -0.20597976243E+01  0.28252795822E+02  0.10500000000E+00 0. -1.
         13    1    4    4    0    0  0.12644481311E+02 -0.19949700405E+02 -0.16453447379E+01  0.23676816470E+02  0.10500000000E+00 0.  1.
    3000001    1    5    5    0    0 -0.22739330429E+02  0.39584683180E+02 -0.45039953838E+00  0.45664287474E+02  0.10000000000E+01 0.  1.
        -13    1    6    6    0    0 -0.36919093231E+01  0.31838289882E+01  0.44940185690E+00  0.48969325608E+01  0.10500000000E+00 0. -1.
         13    1    6    6    0    0 -0.90574597079E+01  0.76829083638E+01  0.12078046556E+01  0.11938780272E+02  0.10500000000E+00 0.  1.
</event>
<event>
11    0  0.3422856E-009  0.9118800E+02  0.7816531E-02  0.1126479E+00
         25   -1    0    0    0    0  0.00000000000E+00  0.00000000000E+00  0.99999998245E-14  0.12500000000E+03  0.12500000000E+03 0.  0.
    3000001    1    3    3    0    0 -0.45324555782E+01  0.18419810810E+01  0.10909928970E+01  0.51113905517E+01  0.10000000000E+01 0.  1.
    1000022    2    1    0    0    0 -0.37314240269E+02  0.32279339928E+02  0.37039731353E+02  0.62500000196E+02  0.10000000633E+02 0.  0.
    3000022    2    3    3    0    0 -0.32781784691E+02  0.30437358847E+02  0.35948738456E+02  0.57388609644E+02  0.24999827264E+00 0.  0.
    1000022    2    1    0    0    0  0.37314240269E+02 -0.32279339928E+02 -0.37039731353E+02  0.62499999804E+02  0.99999981874E+01 0.  0.
    3000022    2    5    5    0    0  0.31043767412E+02 -0.28866939267E+02 -0.35094360945E+02  0.55033556598E+02  0.25000792144E+00 0.  0.
        -13    1    4    4    0    0 -0.18529531499E+02  0.17223624380E+02  0.20412537863E+02  0.32506607042E+02  0.10500000000E+00 0.  1.
         13    1    4    4    0    0 -0.14252253192E+02  0.13213734467E+02  0.15536200594E+02  0.24882002602E+02  0.10500000000E+00 0. -1.
    3000001    1    5    5    0    0  0.62704728569E+01 -0.34124006608E+01 -0.19453704089E+01  0.74664432059E+01  0.10000000000E+01 0. -1.
        -13    1    6    6    0    0  0.17357342204E+02 -0.16170875361E+02 -0.19558524394E+02  0.30746080072E+02  0.10500000000E+00 0. -1.
         13    1    6    6    0    0  0.13686425208E+02 -0.12696063906E+02 -0.15535836551E+02  0.24287476526E+02  0.10500000000E+00 0.  1.
</event>
<event>
11    0  0.3422856E-009  0.9118800E+02  0.7816531E-02  0.1126479E+00
         25   -1    0    0    0    0  0.00000000000E+00  0.00000000000E+00  0.99999998245E-14  0.12500000000E+03  0.12500000000E+03 0.  0.
    3000001    1    3    3    0    0 -0.41537014617E+01  0.69061300254E+01  0.47682262238E+02  0.48368853614E+02  0.10000000000E+01 0. -1.
    1000022    2    1    0    0    0 -0.26977140124E+00  0.10384917623E+02  0.60813901793E+02  0.62500001369E+02  0.10000011456E+02 0.  0.
    3000022    2    3    3    0    0  0.38839300605E+01  0.34787875972E+01  0.13131639555E+02  0.14131147755E+02  0.25000720316E+00 0.  0.
    1000022    2    1    0    0    0  0.26977140124E+00 -0.10384917623E+02 -0.60813901793E+02  0.62499998631E+02  0.99999943479E+01 0.  0.
    3000022    2    5    5    0    0 -0.34547628771E+01 -0.20773686540E+01 -0.32291484066E+02  0.32543098951E+02  0.24999815989E+00 0.  0.
        -13    1    4    4    0    0  0.17502136645E+01  0.14797857524E+01  0.57461999195E+01  0.61873138161E+01  0.10500000000E+00 0. -1.
         13    1    4    4    0    0  0.21337163960E+01  0.19990018449E+01  0.73854396356E+01  0.79438339387E+01  0.10500000000E+00 0.  1.
    3000001    1    5    5    0    0  0.37245342783E+01 -0.83075489686E+01 -0.28522417727E+02  0.29956899681E+02  0.10000000000E+01 0.  1.
        -13    1    6    6    0    0 -0.20124732824E+01 -0.11878660491E+01 -0.19208154962E+02  0.19350072778E+02  0.10500000000E+00 0.  1.
         13    1    6    6    0    0 -0.14422895947E+01 -0.88950260490E+00 -0.13083329104E+02  0.13193026173E+02  0.10500000000E+00 0. -1.
</event>
<event>
11    0  0.3422856E-009  0.9118800E+02  0.7816531E-02  0.1126479E+00
         25   -1    0    0    0    0  0.00000000000E+00  0.00000000000E+00  0.99999998245E-14  0.12500000000E+03  0.12500000000E+03 0.  0.
    3000001    1    3    3    0    0 -0.12845755012E+02  0.31103064905E+01  0.43429225415E+02  0.45406883271E+02  0.10000000000E+01 0.  1.
    1000022    2    1    0    0    0 -0.13701791182E+02  0.88771082130E+01  0.59495443586E+02  0.62500000627E+02  0.10000006955E+02 0.  0.
    3000022    2    3    3    0    0 -0.85603617070E+00  0.57668017224E+01  0.16066218171E+02  0.17093117356E+02  0.24998918683E+00 0.  0.
    1000022    2    1    0    0    0  0.13701791182E+02 -0.88771082130E+01 -0.59495443586E+02  0.62499999373E+02  0.99999991130E+01 0.  0.
    3000022    2    5    5    0    0 -0.71316379006E+00  0.12774676330E+01 -0.45444185776E+01  0.47806656365E+01  0.24999515025E+00 0.  0.
        -13    1    4    4    0    0 -0.53670828541E+00  0.31841799991E+01  0.88364279945E+01  0.94085356327E+01  0.10500000000E+00 0.  1.
         13    1    4    4    0    0 -0.31932788529E+00  0.25826217234E+01  0.72297901769E+01  0.76845817236E+01  0.10500000000E+00 0. -1.
    3000001    1    5    5    0    0  0.14414954972E+02 -0.10154575846E+02 -0.54951025008E+02  0.57719333736E+02  0.10000000000E+01 0.  1.
        -13    1    6    6    0    0 -0.55033768726E+00  0.91893070168E+00 -0.33490017166E+01  0.35176899668E+01  0.10500000000E+00 0. -1.
         13    1    6    6    0    0 -0.16282610280E+00  0.35853693135E+00 -0.11954168610E+01  0.12629756697E+01  0.10500000000E+00 0.  1.
</event>
<event>
11    0  0.3422856E-009  0.9118800E+02  0.7816531E-02  0.1126479E+00
         25   -1    0    0    0    0  0.00000000000E+00  0.00000000000E+00  0.99999998245E-14  0.12500000000E+03  0.12500000000E+03 0.  0.
    3000001    1    3    3    0    0 -0.37118558731E+02 -0.48229595594E+02 -0.86303397426E+01  0.61476532575E+02  0.10000000000E+01 0. -1.
    1000022    2    1    0    0    0 -0.36931419173E+02 -0.48794618431E+02 -0.78361651858E+01  0.62499999816E+02  0.99999991082E+01 0.  0.
    3000022    2    3    3    0    0  0.18713955746E+00 -0.56502283695E+00  0.79417455671E+00  0.10234672404E+01  0.24999989079E+00 0.  0.
    1000022    2    1    0    0    0  0.36931419173E+02  0.48794618431E+02  0.78361651858E+01  0.62500000184E+02  0.10000001414E+02 0.  0.
    3000022    2    5    5    0    0  0.16673476131E+02  0.14192068113E+02  0.26091477873E+01  0.22051978531E+02  0.25000266711E+00 0.  0.
        -13    1    4    4    0    0  0.70875881294E-01 -0.30174338895E+00  0.31171373589E+00  0.45195455133E+00  0.10500000000E+00 0. -1.
         13    1    4    4    0    0  0.11626367616E+00 -0.26327944799E+00  0.48246082082E+00  0.57151268906E+00  0.10500000000E+00 0. -1.
    3000001    1    5    5    0    0  0.20257943042E+02  0.34602550318E+02  0.52270173986E+01  0.40448021654E+02  0.10000000000E+01 0. -1.
        -13    1    6    6    0    0  0.87888138588E+01  0.75583890056E+01  0.13485386890E+01  0.11670564468E+02  0.10500000000E+00 0. -1.
         13    1    6    6    0    0  0.78846622724E+01  0.66336791071E+01  0.12606090983E+01  0.10381414063E+02  0.10500000000E+00 0.  1.
</event>
<event>
11    0  0.3422856E-009  0.9118800E+02  0.7816531E-02  0.1126479E+00
         25   -1    0    0    0    0  0.00000000000E+00  0.00000000000E+00  0.99999998245E-14  0.12500000000E+03  0.12500000000E+03 0.  0.
    3000001    1    3    3    0    0 -0.21612005705E+02 -0.33989394762E+02  0.56566266421E+01  0.40686056234E+02  0.10000000000E+01 0.  1.
    1000022    2    1    0    0    0 -0.31796684743E+02 -0.50514019655E+02  0.15606237021E+02  0.62500000291E+02  0.10000003003E+02 0.  0.
    3000022    2    3    3    0    0 -0.10184679038E+02 -0.16524624893E+02  0.99496103791E+01  0.21813944058E+02  0.24998736491E+00 0.  0.
    1000022    2    1    0    0    0  0.31796684743E+02  0.50514019655E+02 -0.15606237021E+02  0.62499999709E+02  0.99999993607E+01 0.  0.
    3000022    2    5    5    0    0  0.31535647557E+02  0.50359937144E+02 -0.15676498245E+02  0.61452708693E+02  0.24994477485E+00 0.  0.
        -13    1    4    4    0    0 -0.45996060330E+01 -0.75865886898E+01  0.45659127592E+01  0.99785413730E+01  0.10500000000E+00 0. -1.
         13    1    4    4    0    0 -0.55850730054E+01 -0.89380362033E+01  0.53836976199E+01  0.11835402685E+02  0.10500000000E+00 0.  1.
    3000001    1    5    5    0    0  0.26103718602E+00  0.15408251103E+00  0.70261223982E-01  0.10472910160E+01  0.10000000000E+01 0. -1.
        -13    1    6    6    0    0  0.15150426512E+02  0.24244228547E+02 -0.74783028539E+01  0.29550872743E+02  0.10500000000E+00 0.  1.
         13    1    6    6    0    0  0.16385221046E+02  0.26115708598E+02 -0.81981953913E+01  0.31901835949E+02  0.10500000000E+00 0. -1.
</event>
<event>
11    0  0.3422856E-009  0.9118800E+02  0.7816531E-02  0.1126479E+00
         25   -1    0    0    0    0  0.00000000000E+00  0.00000000000E+00  0.99999998245E-14  0.12500000000E+03  0.12500000000E+03 0.  0.
    3000001    1    3    3    0    0  0.26911583537E+01 -0.34766244663E+02  0.49372398933E+02  0.60453022073E+02  0.10000000000E+01 0. -1.
    1000022    2    1    0    0    0  0.12701289373E+01 -0.36050436576E+02  0.50050005231E+02  0.62500001196E+02  0.99999960529E+01 0.  0.
    3000022    2    3    3    0    0 -0.14210294164E+01 -0.12841919126E+01  0.67760629780E+00  0.20469791236E+01  0.24999953404E+00 0.  0.
    1000022    2    1    0    0    0 -0.12701289373E+01  0.36050436576E+02 -0.50050005231E+02  0.62499998804E+02  0.99999811007E+01 0.  0.
    3000022    2    5    5    0    0  0.15802780426E+01  0.24617097970E+02 -0.39927559017E+02  0.46933690025E+02  0.24999838666E+00 0.  0.
        -13    1    4    4    0    0 -0.10003904417E+01 -0.87629390946E+00  0.42257776880E+00  0.13993816571E+01  0.10500000000E+00 0.  1.
         13    1    4    4    0    0 -0.42063897473E+00 -0.40789800313E+00  0.25502852900E+00  0.64759746650E+00  0.10500000000E+00 0. -1.
    3000001    1    5    5    0    0 -0.28504069799E+01  0.11433338606E+02 -0.10122446215E+02  0.15566308779E+02  0.10000000000E+01 0. -1.
        -13    1    6    6    0    0  0.77373686206E+00  0.13090297893E+02 -0.21203687826E+02  0.24931144580E+02  0.10500000000E+00 0.  1.
         13    1    6    6    0    0  0.80654118055E+00  0.11526800077E+02 -0.18723871191E+02  0.22002545445E+02  0.10500000000E+00 0. -1.
</event>
<event>
11    0  0.3422856E-009  0.9118800E+02  0.7816531E-02  0.1126479E+00
         25   -1    0    0    0    0  0.00000000000E+00  0.00000000000E+00  0.99999998245E-14  0.12500000000E+03  0.12500000000E+03 0.  0.
    3000001    1    3    3    0    0  0.82607158441E+01  0.13561600673E+02 -0.28913587816E+02  0.33002302942E+02  0.10000000000E+01 0. -1.
    1000022    2    1    0    0    0  0.20874885444E+02  0.30988105058E+02 -0.49094056062E+02  0.62500000012E+02  0.10000008177E+02 0.  0.
    3000022    2    3    3    0    0  0.12614169600E+02  0.17426504385E+02 -0.20180468246E+02  0.29497697070E+02  0.25000813281E+00 0.  0.
    1000022    2    1    0    0    0 -0.20874885444E+02 -0.30988105058E+02  0.49094056062E+02  0.62499999988E+02  0.10000008026E+02 0.  0.
    3000022    2    5    5    0    0 -0.63090757111E+01 -0.16153412969E+02  0.27463828941E+02  0.32481711765E+02  0.25002440306E+00 0.  0.
        -13    1    4    4    0    0  0.53001940511E+01  0.73887549241E+01 -0.86014671148E+01  0.12517268785E+02  0.10500000000E+00 0.  1.
         13    1    4    4    0    0  0.73139755487E+01  0.10037749461E+02 -0.11579001131E+02  0.16980428286E+02  0.10500000000E+00 0. -1.
    3000001    1    5    5    0    0 -0.14565809733E+02 -0.14834692089E+02  0.21630227121E+02  0.30018288223E+02  0.10000000000E+01 0. -1.
        -13    1    6    6    0    0 -0.37211004163E+01 -0.95813673355E+01  0.16391021580E+02  0.19347501176E+02  0.10500000000E+00 0.  1.
         13    1    6    6    0    0 -0.25879752948E+01 -0.65720456333E+01  0.11072807361E+02  0.13134210589E+02  0.10500000000E+00 0. -1.
</event>
<event>
11    0  0.3422856E-009  0.9118800E+02  0.7816531E-02  0.1126479E+00
         25   -1    0    0    0    0  0.00000000000E+00  0.00000000000E+00  0.99999998245E-14  0.12500000000E+03  0.12500000000E+03 0.  0.
    3000001    1    3    3    0    0 -0.15959588924E+02  0.24904049978E+02  0.21242774453E+02  0.36430422046E+02  0.10000000000E+01 0.  1.
    1000022    2    1    0    0    0 -0.23926107107E+02  0.47826782306E+02  0.30763460306E+02  0.62500002472E+02  0.10000005598E+02 0.  0.
    3000022    2    3    3    0    0 -0.79665181828E+01  0.22922732328E+02  0.95206858529E+01  0.26069580426E+02  0.24999035033E+00 0.  0.
    1000022    2    1    0    0    0  0.23926107107E+02 -0.47826782306E+02 -0.30763460306E+02  0.62499997528E+02  0.99999746944E+01 0.  0.
    3000022    2    5    5    0    0  0.15966688132E+02 -0.35052753013E+02 -0.17085692219E+02  0.42138035082E+02  0.24999652410E+00 0.  0.
        -13    1    4    4    0    0 -0.30400173989E+01  0.87753164382E+01  0.37085239084E+01  0.10000602930E+02  0.10500000000E+00 0.  1.
         13    1    4    4    0    0 -0.49265007839E+01  0.14147415890E+02  0.58121619445E+01  0.16068977497E+02  0.10500000000E+00 0. -1.
    3000001    1    5    5    0    0  0.79594189748E+01 -0.12774029293E+02 -0.13677768087E+02  0.20361962446E+02  0.10000000000E+01 0. -1.
        -13    1    6    6    0    0  0.66117862832E+01 -0.14588682032E+02 -0.70426576372E+01  0.17497297302E+02  0.10500000000E+00 0.  1.
         13    1    6    6    0    0  0.93549018489E+01 -0.20464070981E+02 -0.10043034582E+02  0.24640737780E+02  0.10500000000E+00 0. -1.
</event>
<event>
11    0  0.3422856E-009  0.9118800E+02  0.7816531E-02  0.1126479E+00
         25   -1    0    0    0    0  0.00000000000E+00  0.00000000000E+00  0.99999998245E-14  0.12500000000E+03  0.12500000000E+03 0.  0.
    3000001    1    3    3    0    0 -0.10918218023E+02  0.33618553346E+02 -0.29778626057E+02  0.46229656971E+02  0.10000000000E+01 0. -1.
    1000022    2    1    0    0    0 -0.96203225624E+01  0.43670299899E+02 -0.42504168348E+02  0.62500000261E+02  0.10000000309E+02 0.  0.
    3000022    2    3    3    0    0  0.12978954602E+01  0.10051746554E+02 -0.12725542291E+02  0.16270343290E+02  0.25000552116E+00 0.  0.
    1000022    2    1    0    0    0  0.96203225624E+01 -0.43670299899E+02  0.42504168348E+02  0.62499999739E+02  0.99999970440E+01 0.  0.
    3000022    2    5    5    0    0  0.63160872029E+01 -0.27969868037E+02  0.20500716694E+02  0.35249799434E+02  0.24999916553E+00 0.  0.
        -13    1    4    4    0    0  0.42813551450E+00  0.33904106230E+01 -0.43777040382E+01  0.55545928615E+01  0.10500000000E+00 0. -1.
         13    1    4    4    0    0  0.86975994574E+00  0.66613359306E+01 -0.83478382531E+01  0.10715750428E+02  0.10500000000E+00 0.  1.
    3000001    1    5    5    0    0  0.33042353595E+01 -0.15700431862E+02  0.22003451654E+02  0.27250200305E+02  0.10000000000E+01 0.  1.
        -13    1    6    6    0    0  0.41806853857E+01 -0.18579664872E+02  0.13679411415E+02  0.23448228050E+02  0.10500000000E+00 0. -1.
         13    1    6    6    0    0  0.21354018173E+01 -0.93902031655E+01  0.68213052795E+01  0.11801571384E+02  0.10500000000E+00 0.  1.
</event>
<event>
11    0  0.3422856E-009  0.9118800E+02  0.7816531E-02  0.1126479E+00
         25   -1    0    0    0    0  0.00000000000E+00  0.00000000000E+00  0.99999998245E-14  0.12500000000E+03  0.12500000000E+03 0.  0.
    3000001    1    3    3    0    0  0.30884922329E+02 -0.18290381495E+01 -0.83874049042E+01  0.32071363689E+02  0.10000000000E+01 0. -1.
    1000022    2    1    0    0    0  0.60710452637E+02 -0.78138055594E+01 -0.77094259030E+01  0.62499999134E+02  0.10000001366E+02 0.  0.
    3000022    2    3    3    0    0  0.29825530308E+02 -0.59847674099E+01  0.67797900119E+00  0.30428635445E+02  0.25000090618E+00 0.  0.
    1000022    2    1    0    0    0 -0.60710452637E+02  0.78138055594E+01  0.77094259030E+01  0.62500000866E+02  0.10000012192E+02 0.  0.
    3000022    2    5    5    0    0 -0.44062010626E+02  0.73013989735E+01  0.14777176016E+01  0.44688000129E+02  0.24999776904E+00 0.  0.
        -13    1    4    4    0    0  0.19040019850E+02 -0.38070908836E+01  0.48959531988E+00  0.19423362877E+02  0.10500000000E+00 0.  1.
         13    1    4    4    0    0  0.10785510458E+02 -0.21776765263E+01  0.18838368131E+00  0.11005272568E+02  0.10500000000E+00 0. -1.
    3000001    1    5    5    0    0 -0.16648442011E+02  0.51240658592E+00  0.62317083014E+01  0.17812000737E+02  0.10000000000E+01 0.  1.
        -13    1    6    6    0    0 -0.24397160550E+02  0.40791943422E+01  0.76244249945E+00  0.24747800164E+02  0.10500000000E+00 0.  1.
         13    1    6    6    0    0 -0.19664850076E+02  0.32222046313E+01  0.71527510211E+00  0.19940199965E+02  0.10500000000E+00 0. -1.
</event>
<event>
11    0  0.3422856E-009  0.9118800E+02  0.7816531E-02  0.1126479E+00
         25   -1    0    0    0    0  0.00000000000E+00  0.00000000000E+00  0.99999998245E-14  0.12500000000E+03  0.12500000000E+03 0.  0.
    3000001    1    3    3    0    0 -0.17580700545E+01  0.28728470228E+01 -0.17694457843E+02  0.18039897414E+02  0.10000000000E+01 0. -1.
    1000022    2    1    0    0    0  0.46419570928E+01 -0.11130343439E+01 -0.61509869498E+02  0.62499996264E+02  0.99999438157E+01 0.  0.
    3000022    2    3    3    0    0  0.64000271474E+01 -0.39858813667E+01 -0.43815411654E+02  0.44460098850E+02  0.24998719336E+00 0.  0.
    1000022    2    1    0    0    0 -0.46419570928E+01  0.11130343439E+01  0.61509869498E+02  0.62500003736E+02  0.99999905127E+01 0.  0.
    3000022    2    5    5    0    0 -0.66749881032E+01 -0.20725367327E+01  0.44537070352E+02  0.45082857327E+02  0.25002915653E+00 0.  0.
        -13    1    4    4    0    0  0.39010906983E+01 -0.23653552652E+01 -0.26324465318E+02  0.26717071573E+02  0.10500000000E+00 0.  1.
         13    1    4    4    0    0  0.24989364491E+01 -0.16205261015E+01 -0.17490946336E+02  0.17743027277E+02  0.10500000000E+00 0. -1.
    3000001    1    5    5    0    0  0.20330310103E+01  0.31855710766E+01  0.16972799146E+02  0.17417146409E+02  0.10000000000E+01 0. -1.
        -13    1    6    6    0    0 -0.30655328250E+01 -0.96211240944E+00  0.20047813059E+02  0.20303915515E+02  0.10500000000E+00 0. -1.
         13    1    6    6    0    0 -0.36094552781E+01 -0.11104243232E+01  0.24489257293E+02  0.24778941812E+02  0.10500000000E+00 0.  1.
</event>
<event>
11    0  0.3422856E-009  0.9118800E+02  0.7816531E-02  0.1126479E+00
         25   -1    0    0    0    0  0.00000000000E+00  0.00000000000E+00  0.99999998245E-14  0.12500000000E+03  0.12500000000E+03 0.  0.
    3000001    1    3    3    0    0 -0.44956913160E+02 -0.27265214081E+02 -0.19040408803E+02  0.55929000591E+02  0.10000000000E+01 0. -1.
    1000022    2    1    0    0    0 -0.51043575115E+02 -0.27174688309E+02 -0.21502090226E+02  0.62499999193E+02  0.99999884940E+01 0.  0.
    3000022    2    3    3    0    0 -0.60866619551E+01  0.90525772344E-01 -0.24616814231E+01  0.65709986021E+01  0.24999705717E+00 0.  0.
    1000022    2    1    0    0    0  0.51043575115E+02  0.27174688309E+02  0.21502090226E+02  0.62500000807E+02  0.99999985767E+01 0.  0.
    3000022    2    5    5    0    0  0.50916099964E+02  0.26128340651E+02  0.21058478040E+02  0.60980828299E+02  0.25000403476E+00 0.  0.
        -13    1    4    4    0    0 -0.44363346122E+01  0.91173272574E-01 -0.18218682906E+01  0.47978751990E+01  0.10500000000E+00 0. -1.
         13    1    4    4    0    0 -0.16503273429E+01 -0.64750023021E-03 -0.63981313250E+00  0.17731234030E+01  0.10500000000E+00 0.  1.
    3000001    1    5    5    0    0  0.12747515133E+00  0.10463476579E+01  0.44361218529E+00  0.15191725071E+01  0.10000000000E+01 0.  1.
        -13    1    6    6    0    0  0.27428336701E+02  0.14000965678E+02  0.11318956922E+02  0.32809609947E+02  0.10500000000E+00 0.  1.
         13    1    6    6    0    0  0.23487763263E+02  0.12127374973E+02  0.97395211180E+01  0.28171218352E+02  0.10500000000E+00 0. -1.
</event>
<event>
11    0  0.3422856E-009  0.9118800E+02  0.7816531E-02  0.1126479E+00
         25   -1    0    0    0    0  0.00000000000E+00  0.00000000000E+00  0.99999998245E-14  0.12500000000E+03  0.12500000000E+03 0.  0.
    3000001    1    3    3    0    0 -0.12252956876E+02  0.10927297600E+02  0.20377335707E+02  0.26187336550E+02  0.10000000000E+01 0.  1.
    1000022    2    1    0    0    0 -0.20702165944E+02  0.20625435629E+02  0.54334719837E+02  0.62499999070E+02  0.99999917197E+01 0.  0.
    3000022    2    3    3    0    0 -0.84492090678E+01  0.96981380294E+01  0.33957384130E+02  0.36312662521E+02  0.25001461595E+00 0.  0.
    1000022    2    1    0    0    0  0.20702165944E+02 -0.20625435629E+02 -0.54334719837E+02  0.62500000930E+02  0.10000003339E+02 0.  0.
    3000022    2    5    5    0    0  0.74971959073E+01 -0.24022725208E+01 -0.96352439775E+01  0.12445050630E+02  0.24999790064E+00 0.  0.
        -13    1    4    4    0    0 -0.46222107862E+01  0.53914277950E+01  0.18846639522E+02  0.20140485905E+02  0.10500000000E+00 0. -1.
         13    1    4    4    0    0 -0.38269982816E+01  0.43067102344E+01  0.15110744608E+02  0.16172176616E+02  0.10500000000E+00 0.  1.
    3000001    1    5    5    0    0  0.13204970036E+02 -0.18223163109E+02 -0.44699475859E+02  0.50054950299E+02  0.10000000000E+01 0.  1.
        -13    1    6    6    0    0  0.22919822511E+01 -0.78439532517E+00 -0.29737555657E+01  0.38370178302E+01  0.10500000000E+00 0.  1.
         13    1    6    6    0    0  0.52052136563E+01 -0.16178771956E+01 -0.66614884119E+01  0.86080328002E+01  0.10500000000E+00 0. -1.
</event>
<event>
11    0  0.3422856E-009  0.9118800E+02  0.7816531E-02  0.1126479E+00
         25   -1    0    0    0    0  0.00000000000E+00  0.00000000000E+00  0.99999998245E-14  0.12500000000E+03  0.12500000000E+03 0.  0.
    3000001    1    3    3    0    0  0.36203339243E+02  0.32243446318E+01 -0.43839804970E+02  0.56956182021E+02  0.10000000000E+01 0.  1.
    1000022    2    1    0    0    0  0.40882497333E+02  0.53603704124E+01 -0.45892675963E+02  0.62499998938E+02  0.10000000059E+02 0.  0.
    3000022    2    3    3    0    0  0.46791580898E+01  0.21360257806E+01 -0.20528709927E+01  0.55438169172E+01  0.25000026865E+00 0.  0.
    1000022    2    1    0    0    0 -0.40882497333E+02 -0.53603704124E+01  0.45892675963E+02  0.62500001062E+02  0.10000013330E+02 0.  0.
    3000022    2    5    5    0    0 -0.24598979914E+02 -0.71262104072E+01  0.23662070505E+02  0.34869022986E+02  0.24999165669E+00 0.  0.
        -13    1    4    4    0    0  0.31678603463E+01  0.14800436756E+01 -0.13510733885E+01  0.37499723674E+01  0.10500000000E+00 0. -1.
         13    1    4    4    0    0  0.15112977436E+01  0.65598210496E+00 -0.70179760419E+00  0.17938445499E+01  0.10500000000E+00 0.  1.
    3000001    1    5    5    0    0 -0.16283517418E+02  0.17658399949E+01  0.22230605458E+02  0.27630978076E+02  0.10000000000E+01 0. -1.
        -13    1    6    6    0    0 -0.13810533156E+02 -0.40522266474E+01  0.13357305060E+02  0.19636190830E+02  0.10500000000E+00 0. -1.
         13    1    6    6    0    0 -0.10788446758E+02 -0.30739837599E+01  0.10304765445E+02  0.15232832156E+02  0.10500000000E+00 0.  1.
</event>
<event>
11    0  0.3422856E-009  0.9118800E+02  0.7816531E-02  0.1126479E+00
         25   -1    0    0    0    0  0.00000000000E+00  0.00000000000E+00  0.99999998245E-14  0.12500000000E+03  0.12500000000E+03 0.  0.
    3000001    1    3    3    0    0 -0.23636967872E+02  0.17722532649E+02 -0.93389034686E+01  0.31000153737E+02  0.10000000000E+01 0.  1.
    1000022    2    1    0    0    0 -0.40759057916E+02  0.42831434275E+02 -0.17618676271E+02  0.62499995821E+02  0.99999579916E+01 0.  0.
    3000022    2    3    3    0    0 -0.17122090044E+02  0.25108901626E+02 -0.82797728021E+01  0.31499842084E+02  0.25001073119E+00 0.  0.
    1000022    2    1    0    0    0  0.40759057916E+02 -0.42831434275E+02  0.17618676271E+02  0.62500004179E+02  0.10000010229E+02 0.  0.
    3000022    2    5    5    0    0  0.25514618596E+01 -0.32842534386E+00  0.19295204241E+01  0.32254246714E+01  0.24998883267E+00 0.  0.
        -13    1    4    4    0    0 -0.11432159129E+02  0.16834793374E+02 -0.55072835665E+01  0.21081881500E+02  0.10500000000E+00 0. -1.
         13    1    4    4    0    0 -0.56899309144E+01  0.82741082517E+01 -0.27724892356E+01  0.10417960584E+02  0.10500000000E+00 0.  1.
    3000001    1    5    5    0    0  0.38207596056E+02 -0.42503008931E+02  0.15689155847E+02  0.59274579508E+02  0.10000000000E+01 0.  1.
        -13    1    6    6    0    0  0.14335148772E+01 -0.13079891308E+00  0.11268840654E+01  0.18311105799E+01  0.10500000000E+00 0.  1.
         13    1    6    6    0    0  0.11179469824E+01 -0.19762643078E+00  0.80263635864E+00  0.13943140915E+01  0.10500000000E+00 0. -1.
</event>
<event>
11    0  0.3422856E-009  0.9118800E+02  0.7816531E-02  0.1126479E+00
         25   -1    0    0    0    0  0.00000000000E+00  0.00000000000E+00  0.99999998245E-14  0.12500000000E+03  0.12500000000E+03 0.  0.
    3000001    1    3    3    0    0  0.49755762449E+02 -0.24008158165E+02  0.11842503360E+02  0.56509047427E+02  0.10000000000E+01 0.  1.
    1000022    2    1    0    0    0  0.52953206897E+02 -0.28992897832E+02  0.12712979643E+02  0.62499999936E+02  0.99999947608E+01 0.  0.
    3000022    2    3    3    0    0  0.31974444488E+01 -0.49847396674E+01  0.87047628369E+00  0.59909525092E+01  0.25000490488E+00 0.  0.
    1000022    2    1    0    0    0 -0.52953206897E+02  0.28992897832E+02 -0.12712979643E+02  0.62500000064E+02  0.99999955561E+01 0.  0.
    3000022    2    5    5    0    0 -0.41765799508E+02  0.25639654707E+02 -0.13242629826E+02  0.50766166382E+02  0.25000475505E+00 0.  0.
        -13    1    4    4    0    0  0.13032161981E+01 -0.21488989173E+01  0.35383937927E+00  0.25401508463E+01  0.10500000000E+00 0. -1.
         13    1    4    4    0    0  0.18942282508E+01 -0.28358407501E+01  0.51663690441E+00  0.34508016629E+01  0.10500000000E+00 0.  1.
    3000001    1    5    5    0    0 -0.11187407389E+02  0.33532431249E+01  0.52965018260E+00  0.11733833682E+02  0.10000000000E+01 0. -1.
        -13    1    6    6    0    0 -0.21349974611E+02  0.13185989299E+02 -0.67838162029E+01  0.25994670934E+02  0.10500000000E+00 0.  1.
         13    1    6    6    0    0 -0.20415824897E+02  0.12453665408E+02 -0.64588136230E+01  0.24771495449E+02  0.10500000000E+00 0. -1.
</event>
<event>
11    0  0.3422856E-009  0.9118800E+02  0.7816531E-02  0.1126479E+00
         25   -1    0    0    0    0  0.00000000000E+00  0.00000000000E+00  0.99999998245E-14  0.12500000000E+03  0.12500000000E+03 0.  0.
    3000001    1    3    3    0    0  0.15800236976E+02  0.25940787454E+02 -0.53566844744E+02  0.61587164231E+02  0.10000000000E+01 0.  1.
    1000022    2    1    0    0    0  0.16610248396E+02  0.25605791939E+02 -0.53616162785E+02  0.62500000102E+02  0.10000008415E+02 0.  0.
    3000022    2    3    3    0    0  0.81001141985E+00 -0.33499551449E+00 -0.49318041814E-01  0.91283587108E+00  0.24999312646E+00 0.  0.
    1000022    2    1    0    0    0 -0.16610248396E+02 -0.25605791939E+02  0.53616162785E+02  0.62499999898E+02  0.10000007141E+02 0.  0.
    3000022    2    5    5    0    0 -0.76765103395E+01 -0.11703340515E+02  0.15176345138E+02  0.20646572177E+02  0.25000138866E+00 0.  0.
        -13    1    4    4    0    0  0.28645792224E+00 -0.82223018274E-01  0.27044631120E-01  0.31713589835E+00  0.10500000000E+00 0.  1.
         13    1    4    4    0    0  0.52355349761E+00 -0.25277249621E+00 -0.76362672934E-01  0.59569997273E+00  0.10500000000E+00 0. -1.
    3000001    1    5    5    0    0 -0.89337380561E+01 -0.13902451424E+02  0.38439817647E+02  0.41853427721E+02  0.10000000000E+01 0.  1.
        -13    1    6    6    0    0 -0.44775051580E+01 -0.67660251461E+01  0.88792567572E+01  0.12028273953E+02  0.10500000000E+00 0. -1.
         13    1    6    6    0    0 -0.31990051814E+01 -0.49373153691E+01  0.62970883808E+01  0.86182982241E+01  0.10500000000E+00 0.  1.
</event>
<event>
11    0  0.3422856E-009  0.9118800E+02  0.7816531E-02  0.1126479E+00
         25   -1    0    0    0    0  0.00000000000E+00  0.00000000000E+00  0.99999998245E-14  0.12500000000E+03  0.12500000000E+03 0.  0.
    3000001    1    3    3    0    0  0.85859034970E+01  0.38421823658E+00  0.11477470969E+02  0.14373506961E+02  0.10000000000E+01 0.  1.
    1000022    2    1    0    0    0  0.27059754114E+02 -0.12376287501E+02  0.54044864892E+02  0.62499998519E+02  0.99999804285E+01 0.  0.
    3000022    2    3    3    0    0  0.18473850617E+02 -0.12760505737E+02  0.42567393924E+02  0.48126491558E+02  0.25000184250E+00 0.  0.
    1000022    2    1    0    0    0 -0.27059754114E+02  0.12376287501E+02 -0.54044864892E+02  0.62500001481E+02  0.99999989432E+01 0.  0.
    3000022    2    5    5    0    0 -0.20634247408E+02  0.72425002715E+01 -0.30427839851E+02  0.37471881704E+02  0.25000835984E+00 0.  0.
        -13    1    4    4    0    0  0.43987462436E+01 -0.30536029608E+01  0.10181268416E+02  0.11504030212E+02  0.10500000000E+00 0.  1.
         13    1    4    4    0    0  0.14075104374E+02 -0.97069027766E+01  0.32386125507E+02  0.36622461346E+02  0.10500000000E+00 0. -1.
    3000001    1    5    5    0    0 -0.64255067060E+01  0.51337872293E+01 -0.23617025042E+02  0.25028119777E+02  0.10000000000E+01 0.  1.
        -13    1    6    6    0    0 -0.75283715721E+01  0.26344573142E+01 -0.10998495051E+02  0.13586561826E+02  0.10500000000E+00 0. -1.
         13    1    6    6    0    0 -0.13105875836E+02  0.46080429573E+01 -0.19429344800E+02  0.23885319878E+02  0.10500000000E+00 0.  1.
</event>
<event>
11    0  0.3422856E-009  0.9118800E+02  0.7816531E-02  0.1126479E+00
         25   -1    0    0    0    0  0.00000000000E+00  0.00000000000E+00  0.99999998245E-14  0.12500000000E+03  0.12500000000E+03 0.  0.
    3000001    1    3    3    0    0  0.46515698171E+01 -0.56334481890E+02  0.23090297136E+02  0.61068590727E+02  0.10000000000E+01 0.  1.
    1000022    2    1    0    0    0  0.38724140079E+01 -0.56603838321E+02  0.24233446478E+02  0.62499999918E+02  0.99999979325E+01 0.  0.
    3000022    2    3    3    0    0 -0.77915580918E+00 -0.26935643148E+00  0.11431493425E+01  0.14314091916E+01  0.25001038464E+00 0.  0.
    1000022    2    1    0    0    0 -0.38724140079E+01  0.56603838321E+02 -0.24233446478E+02  0.62500000082E+02  0.99999989519E+01 0.  0.
    3000022    2    5    5    0    0 -0.22769287156E+01  0.55190136675E+02 -0.23549131833E+02  0.60047978019E+02  0.24992697475E+00 0.  0.
        -13    1    4    4    0    0 -0.26720362528E+00 -0.15581204823E+00  0.43880634852E+00  0.54703855736E+00  0.10500000000E+00 0. -1.
         13    1    4    4    0    0 -0.51195218390E+00 -0.11354438326E+00  0.70434299393E+00  0.88437063422E+00  0.10500000000E+00 0.  1.
    3000001    1    5    5    0    0 -0.15954852923E+01  0.14137016465E+01 -0.68431464553E+00  0.24520220630E+01  0.10000000000E+01 0. -1.
        -13    1    6    6    0    0 -0.77670545758E+00  0.17660606186E+02 -0.75190810547E+01  0.19210619124E+02  0.10500000000E+00 0.  1.
         13    1    6    6    0    0 -0.15002232580E+01  0.37529530489E+02 -0.16030050778E+02  0.40837358894E+02  0.10500000000E+00 0. -1.
</event>
<event>
11    0  0.3422856E-009  0.9118800E+02  0.7816531E-02  0.1126479E+00
         25   -1    0    0    0    0  0.00000000000E+00  0.00000000000E+00  0.99999998245E-14  0.12500000000E+03  0.12500000000E+03 0.  0.
    3000001    1    3    3    0    0  0.27985468066E+02 -0.39957819668E+01 -0.76174422775E+01  0.29294677388E+02  0.10000000000E+01 0. -1.
    1000022    2    1    0    0    0  0.57417795846E+02 -0.18327314973E+02 -0.13174074511E+02  0.62499999550E+02  0.99999975314E+01 0.  0.
    3000022    2    3    3    0    0  0.29432327780E+02 -0.14331533006E+02 -0.55566322339E+01  0.33205322163E+02  0.25000257514E+00 0.  0.
    1000022    2    1    0    0    0 -0.57417795846E+02  0.18327314973E+02  0.13174074511E+02  0.62500000450E+02  0.10000003150E+02 0.  0.
    3000022    2    5    5    0    0 -0.20532967064E+02  0.55205058633E+01 -0.52016346053E-01  0.21263676253E+02  0.25000131540E+00 0.  0.
        -13    1    4    4    0    0  0.10780379835E+02 -0.52897561544E+01 -0.19910724174E+01  0.12172653939E+02  0.10500000000E+00 0.  1.
         13    1    4    4    0    0  0.18651947945E+02 -0.90417768514E+01 -0.35655598165E+01  0.21032668223E+02  0.10500000000E+00 0. -1.
    3000001    1    5    5    0    0 -0.36884828782E+02  0.12806809109E+02  0.13226090857E+02  0.41236324196E+02  0.10000000000E+01 0.  1.
        -13    1    6    6    0    0 -0.71141220003E+01  0.19241148414E+01  0.36819391404E-01  0.73705719199E+01  0.10500000000E+00 0.  1.
         13    1    6    6    0    0 -0.13418845064E+02  0.35963910219E+01 -0.88835737456E-01  0.13893104333E+02  0.10500000000E+00 0. -1.
</event>
<event>
11    0  0.3422856E-009  0.9118800E+02  0.7816531E-02  0.1126479E+00
         25   -1    0    0    0    0  0.00000000000E+00  0.00000000000E+00  0.99999998245E-14  0.12500000000E+03  0.12500000000E+03 0.  0.
    3000001    1    3    3    0    0 -0.13919139731E+02 -0.21132093730E+02 -0.28236248590E+01  0.25480986905E+02  0.10000000000E+01 0. -1.
    1000022    2    1    0    0    0 -0.27693179898E+02 -0.55071893824E+02  0.25346148150E+01  0.62500001714E+02  0.10000011991E+02 0.  0.
    3000022    2    3    3    0    0 -0.13774040167E+02 -0.33939800093E+02  0.53582396741E+01  0.37019014809E+02  0.25002434748E+00 0.  0.
    1000022    2    1    0    0    0  0.27693179898E+02  0.55071893824E+02 -0.25346148150E+01  0.62499998286E+02  0.99999905644E+01 0.  0.
    3000022    2    5    5    0    0  0.22857088824E+02  0.46283374169E+02 -0.56991782124E+01  0.51934000175E+02  0.25001567623E+00 0.  0.
        -13    1    4    4    0    0 -0.88039395855E+01 -0.21795384676E+02  0.34823587286E+01  0.23763122537E+02  0.10500000000E+00 0.  1.
         13    1    4    4    0    0 -0.49701005811E+01 -0.12144415418E+02  0.18758809455E+01  0.13255892273E+02  0.10500000000E+00 0. -1.
    3000001    1    5    5    0    0  0.48360910738E+01  0.87885196544E+01  0.31645633974E+01  0.10565998111E+02  0.10000000000E+01 0. -1.
        -13    1    6    6    0    0  0.62974617311E+01  0.12839040234E+02 -0.15794432729E+01  0.14387655974E+02  0.10500000000E+00 0.  1.
         13    1    6    6    0    0  0.16559627093E+02  0.33444333936E+02 -0.41197349395E+01  0.37546344201E+02  0.10500000000E+00 0. -1.
</event>
<event>
11    0  0.3422856E-009  0.9118800E+02  0.7816531E-02  0.1126479E+00
         25   -1    0    0    0    0  0.00000000000E+00  0.00000000000E+00  0.99999998245E-14  0.12500000000E+03  0.12500000000E+03 0.  0.
    3000001    1    3    3    0    0 -0.46671003167E+00  0.12248651531E+01  0.10110803532E+01  0.19340104388E+01  0.10000000000E+01 0.  1.
    1000022    2    1    0    0    0 -0.40442746649E+02  0.37370268984E+01  0.46439948261E+02  0.62499999263E+02  0.99999993456E+01 0.  0.
    3000022    2    3    3    0    0 -0.39976036617E+02  0.25121617453E+01  0.45428867908E+02  0.60565988825E+02  0.25000535113E+00 0.  0.
    1000022    2    1    0    0    0  0.40442746649E+02 -0.37370268984E+01 -0.46439948261E+02  0.62500000737E+02  0.10000008552E+02 0.  0.
    3000022    2    5    5    0    0  0.37054317763E+02 -0.61606367595E+00 -0.40149582596E+02  0.54639303442E+02  0.24999746144E+00 0.  0.
        -13    1    4    4    0    0 -0.29705138211E+02  0.18965615948E+01  0.33765360033E+02  0.45012251056E+02  0.10500000000E+00 0. -1.
         13    1    4    4    0    0 -0.10270898407E+02  0.61560015056E+00  0.11663507875E+02  0.15553737768E+02  0.10500000000E+00 0.  1.
    3000001    1    5    5    0    0  0.33884288866E+01 -0.31209632225E+01 -0.62903656646E+01  0.78606972941E+01  0.10000000000E+01 0. -1.
        -13    1    6    6    0    0  0.19404062294E+02 -0.35566860879E+00 -0.21112372476E+02  0.28677298169E+02  0.10500000000E+00 0.  1.
         13    1    6    6    0    0  0.17650255468E+02 -0.26039506716E+00 -0.19037210120E+02  0.25962005274E+02  0.10500000000E+00 0. -1.
</event>
<event>
11    0  0.3422856E-009  0.9118800E+02  0.7816531E-02  0.1126479E+00
         25   -1    0    0    0    0  0.00000000000E+00  0.00000000000E+00  0.99999998245E-14  0.12500000000E+03  0.12500000000E+03 0.  0.
    3000001    1    3    3    0    0 -0.10974450791E+02  0.23275390699E+02 -0.27900542994E+01  0.25903026567E+02  0.10000000000E+01 0. -1.
    1000022    2    1    0    0    0 -0.15397860921E+02  0.59007563235E+02 -0.93414846513E+01  0.62499999853E+02  0.10000000311E+02 0.  0.
    3000022    2    3    3    0    0 -0.44234101299E+01  0.35732172536E+02 -0.65514303519E+01  0.36596973286E+02  0.25000533151E+00 0.  0.
    1000022    2    1    0    0    0  0.15397860921E+02 -0.59007563235E+02  0.93414846513E+01  0.62500000147E+02  0.10000002148E+02 0.  0.
    3000022    2    5    5    0    0 -0.80996303253E+00 -0.62993875910E+00 -0.39719919478E+00  0.11283245967E+01  0.24997248017E+00 0.  0.
        -13    1    4    4    0    0 -0.14275784262E+01  0.11453560403E+02 -0.20494850743E+01  0.11723200934E+02  0.10500000000E+00 0.  1.
         13    1    4    4    0    0 -0.29958317037E+01  0.24278612133E+02 -0.45019452776E+01  0.24873772352E+02  0.10500000000E+00 0. -1.
    3000001    1    5    5    0    0  0.16207823954E+02 -0.58377624476E+02  0.97386838460E+01  0.61371675550E+02  0.10000000000E+01 0.  1.
        -13    1    6    6    0    0 -0.40736708882E+00 -0.24899941041E+00 -0.14113533183E+00  0.50881512687E+00  0.10500000000E+00 0.  1.
         13    1    6    6    0    0 -0.40259594371E+00 -0.38093934869E+00 -0.25606386295E+00  0.61950946980E+00  0.10500000000E+00 0. -1.
</event>
<event>
11    0  0.3422856E-009  0.9118800E+02  0.7816531E-02  0.1126479E+00
         25   -1    0    0    0    0  0.00000000000E+00  0.00000000000E+00  0.99999998245E-14  0.12500000000E+03  0.12500000000E+03 0.  0.
    3000001    1    3    3    0    0 -0.19049860004E+02 -0.74627106568E+01 -0.58606775335E+01  0.21305791646E+02  0.10000000000E+01 0. -1.
    1000022    2    1    0    0    0 -0.53733674275E+02 -0.13003017517E+02 -0.27383645196E+02  0.62499997639E+02  0.99999732505E+01 0.  0.
    3000022    2    3    3    0    0 -0.34683814271E+02 -0.55403068605E+01 -0.21522967662E+02  0.41194205992E+02  0.24999577384E+00 0.  0.
    1000022    2    1    0    0    0  0.53733674275E+02  0.13003017517E+02  0.27383645196E+02  0.62500002361E+02  0.10000002766E+02 0.  0.
    3000022    2    5    5    0    0  0.22104197287E+02  0.10398012520E+02  0.11791321918E+02  0.27125853457E+02  0.24990213853E+00 0.  0.
        -13    1    4    4    0    0 -0.12678693912E+02 -0.19899634893E+01 -0.78088150185E+01  0.15023243691E+02  0.10500000000E+00 0. -1.
         13    1    4    4    0    0 -0.22005120358E+02 -0.35503433712E+01 -0.13714152644E+02  0.26170962301E+02  0.10500000000E+00 0.  1.
    3000001    1    5    5    0    0  0.31629476987E+02  0.26050049969E+01  0.15592323277E+02  0.35374148905E+02  0.10000000000E+01 0. -1.
        -13    1    6    6    0    0  0.11191283580E+02  0.51970329896E+01  0.59234562660E+01  0.13687671065E+02  0.10500000000E+00 0. -1.
         13    1    6    6    0    0  0.10912913707E+02  0.52009795309E+01  0.58678656524E+01  0.13438182391E+02  0.10500000000E+00 0.  1.
</event>
<event>
11    0  0.3422856E-009  0.9118800E+02  0.7816531E-02  0.1126479E+00
         25   -1    0    0    0    0  0.00000000000E+00  0.00000000000E+00  0.99999998245E-14  0.12500000000E+03  0.12500000000E+03 0.  0.
    3000001    1    3    3    0    0  0.14077847085E+02 -0.30583592901E+01  0.34984303793E+02  0.37847600347E+02  0.10000000000E+01 0.  1.
    1000022    2    1    0    0    0  0.18341840259E+02  0.11649971351E+01  0.58893714362E+02  0.62499999679E+02  0.10000002307E+02 0.  0.
    3000022    2    3    3    0    0  0.42639931735E+01  0.42233564252E+01  0.23909410569E+02  0.24652399333E+02  0.25000364984E+00 0.  0.
    1000022    2    1    0    0    0 -0.18341840259E+02 -0.11649971351E+01 -0.58893714362E+02  0.62500000321E+02  0.10000006315E+02 0.  0.
    3000022    2    5    5    0    0 -0.10024827322E+02 -0.19976975722E+01 -0.17579800488E+02  0.20337154427E+02  0.25001317449E+00 0.  0.
        -13    1    4    4    0    0  0.29144666665E+01  0.28349392943E+01  0.16042731458E+02  0.16550264481E+02  0.10500000000E+00 0.  1.
         13    1    4    4    0    0  0.13495265070E+01  0.13884171308E+01  0.78666791111E+01  0.81021348520E+01  0.10500000000E+00 0. -1.
    3000001    1    5    5    0    0 -0.83170129370E+01  0.83270043711E+00 -0.41313913874E+02  0.42162845893E+02  0.10000000000E+01 0.  1.
        -13    1    6    6    0    0 -0.56246233548E+01 -0.11858315932E+01 -0.99189729205E+01  0.11464712524E+02  0.10500000000E+00 0.  1.
         13    1    6    6    0    0 -0.44002039668E+01 -0.81186597893E+00 -0.76608275674E+01  0.88724419037E+01  0.10500000000E+00 0. -1.
</event>
<event>
11    0  0.3422856E-009  0.9118800E+02  0.7816531E-02  0.1126479E+00
         25   -1    0    0    0    0  0.00000000000E+00  0.00000000000E+00  0.99999998245E-14  0.12500000000E+03  0.12500000000E+03 0.  0.
    3000001    1    3    3    0    0  0.49329628739E+02  0.18434853825E+02 -0.91189929787E+01  0.53454767234E+02  0.10000000000E+01 0. -1.
    1000022    2    1    0    0    0  0.56208010282E+02  0.24175900498E+02 -0.79016904870E+01  0.62499990377E+02  0.99998749887E+01 0.  0.
    3000022    2    3    3    0    0  0.68783815431E+01  0.57410466731E+01  0.12173024917E+01  0.90452231430E+01  0.24997359132E+00 0.  0.
    1000022    2    1    0    0    0 -0.56208010282E+02 -0.24175900498E+02  0.79016904870E+01  0.62500009623E+02  0.99999952815E+01 0.  0.
    3000022    2    5    5    0    0 -0.47252115804E+02 -0.16207199023E+02  0.68936972097E+01  0.50428377607E+02  0.24991732459E+00 0.  0.
        -13    1    4    4    0    0  0.41897680294E+01  0.34506352522E+01  0.68558383114E+00  0.54719365835E+01  0.10500000000E+00 0. -1.
         13    1    4    4    0    0  0.26886135136E+01  0.22904114209E+01  0.53171866059E+00  0.35732865595E+01  0.10500000000E+00 0.  1.
    3000001    1    5    5    0    0 -0.89558944773E+01 -0.79687014759E+01  0.10079932773E+01  0.12071632017E+02  0.10000000000E+01 0.  1.
        -13    1    6    6    0    0 -0.30725201613E+02 -0.10548314845E+02  0.44268187003E+01  0.32785861419E+02  0.10500000000E+00 0. -1.
         13    1    6    6    0    0 -0.16526914192E+02 -0.56588841780E+01  0.24668785094E+01  0.17642516187E+02  0.10500000000E+00 0.  1.
</event>
<event>
11    0  0.3422856E-009  0.9118800E+02  0.7816531E-02  0.1126479E+00
         25   -1    0    0    0    0  0.00000000000E+00  0.00000000000E+00  0.99999998245E-14  0.12500000000E+03  0.12500000000E+03 0.  0.
    3000001    1    3    3    0    0 -0.24786725085E+02 -0.55452000961E+02  0.67954812516E+01  0.61126792133E+02  0.10000000000E+01 0. -1.
    1000022    2    1    0    0    0 -0.23907848866E+02 -0.56428146832E+02  0.71083813668E+01  0.62499999478E+02  0.99999928390E+01 0.  0.
    3000022    2    3    3    0    0  0.87887621897E+00 -0.97614587150E+00  0.31290011517E+00  0.13732073454E+01  0.25001552084E+00 0.  0.
    1000022    2    1    0    0    0  0.23907848866E+02  0.56428146832E+02 -0.71083813668E+01  0.62500000522E+02  0.99999993645E+01 0.  0.
    3000022    2    5    5    0    0  0.65844540589E+01  0.95593204629E+01  0.17553829291E+01  0.11742210870E+02  0.25000784132E+00 0.  0.
        -13    1    4    4    0    0  0.67739137428E+00 -0.70781953789E+00  0.23958912162E+00  0.10140490715E+01  0.10500000000E+00 0.  1.
         13    1    4    4    0    0  0.20148484469E+00 -0.26832633360E+00  0.73310993545E-01  0.35915827391E+00  0.10500000000E+00 0. -1.
    3000001    1    5    5    0    0  0.17323394807E+02  0.46868826369E+02 -0.88637642958E+01  0.50757789652E+02  0.10000000000E+01 0. -1.
        -13    1    6    6    0    0  0.31527860863E+01  0.46961998520E+01  0.84930633853E+00  0.57207254271E+01  0.10500000000E+00 0.  1.
         13    1    6    6    0    0  0.34316679726E+01  0.48631206108E+01  0.90607659055E+00  0.60214854428E+01  0.10500000000E+00 0. -1.
</event>
<event>
11    0  0.3422856E-009  0.9118800E+02  0.7816531E-02  0.1126479E+00
         25   -1    0    0    0    0  0.00000000000E+00  0.00000000000E+00  0.99999998245E-14  0.12500000000E+03  0.12500000000E+03 0.  0.
    3000001    1    3    3    0    0  0.14464367896E+02 -0.10440698408E+02  0.49202352746E+02  0.52345941940E+02  0.10000000000E+01 0.  1.
    1000022    2    1    0    0    0  0.17806896960E+02 -0.81363387643E+01  0.58506105684E+02  0.62499999997E+02  0.10000000474E+02 0.  0.
    3000022    2    3    3    0    0  0.33425290642E+01  0.23043596438E+01  0.93037529378E+01  0.10154058057E+02  0.25000474950E+00 0.  0.
    1000022    2    1    0    0    0 -0.17806896960E+02  0.81363387643E+01 -0.58506105684E+02  0.62500000003E+02  0.10000000517E+02 0.  0.
    3000022    2    5    5    0    0 -0.16704136674E+02  0.34459428472E+01 -0.44838523751E+02  0.47973517635E+02  0.24995602788E+00 0.  0.
        -13    1    4    4    0    0  0.19769946425E+01  0.13690531558E+01  0.53487891018E+01  0.58654398143E+01  0.10500000000E+00 0.  1.
         13    1    4    4    0    0  0.13655344216E+01  0.93530648800E+00  0.39549638360E+01  0.42886182422E+01  0.10500000000E+00 0. -1.
    3000001    1    5    5    0    0 -0.11027602866E+01  0.46903959171E+01 -0.13667581933E+02  0.14526482368E+02  0.10000000000E+01 0. -1.
        -13    1    6    6    0    0 -0.78543937102E+01  0.15784132059E+01 -0.20911160846E+02  0.22393538393E+02  0.10500000000E+00 0. -1.
         13    1    6    6    0    0 -0.88497429633E+01  0.18675296413E+01 -0.23927362905E+02  0.25579979242E+02  0.10500000000E+00 0.  1.
</event>
<event>
11    0  0.3422856E-009  0.9118800E+02  0.7816531E-02  0.1126479E+00
         25   -1    0    0    0    0  0.00000000000E+00  0.00000000000E+00  0.99999998245E-14  0.12500000000E+03  0.12500000000E+03 0.  0.
    3000001    1    3    3    0    0  0.13537854004E+02  0.17675816520E+01  0.27389579931E+02  0.30620041227E+02  0.10000000000E+01 0. -1.
    1000022    2    1    0    0    0  0.26888962827E+02 -0.64291383614E+01  0.55153416779E+02  0.62499995160E+02  0.99999935299E+01 0.  0.
    3000022    2    3    3    0    0  0.13351108823E+02 -0.81967200134E+01  0.27763836848E+02  0.31879953933E+02  0.25000094332E+00 0.  0.
    1000022    2    1    0    0    0 -0.26888962827E+02  0.64291383614E+01 -0.55153416779E+02  0.62500004840E+02  0.10000054036E+02 0.  0.
    3000022    2    5    5    0    0 -0.22481776046E+02  0.22354173494E+01 -0.37270662772E+02  0.43584310772E+02  0.24999409782E+00 0.  0.
        -13    1    4    4    0    0  0.52342604856E+01 -0.32851313132E+01  0.10924804557E+02  0.12551969973E+02  0.10500000000E+00 0.  1.
         13    1    4    4    0    0  0.81168483374E+01 -0.49115887002E+01  0.16839032290E+02  0.19327983960E+02  0.10500000000E+00 0. -1.
    3000001    1    5    5    0    0 -0.44071867809E+01  0.41937210121E+01 -0.17882754007E+02  0.18915694069E+02  0.10000000000E+01 0. -1.
        -13    1    6    6    0    0 -0.12110636108E+02  0.11534640512E+01 -0.19983381698E+02  0.23395396029E+02  0.10500000000E+00 0.  1.
         13    1    6    6    0    0 -0.10371139938E+02  0.10819532982E+01 -0.17287281074E+02  0.20188914742E+02  0.10500000000E+00 0. -1.
</event>
<event>
11    0  0.3422856E-009  0.9118800E+02  0.7816531E-02  0.1126479E+00
         25   -1    0    0    0    0  0.00000000000E+00  0.00000000000E+00  0.99999998245E-14  0.12500000000E+03  0.12500000000E+03 0.  0.
    3000001    1    3    3    0    0 -0.49567260550E+01 -0.14886528540E+02  0.12377476889E+02  0.20009492729E+02  0.10000000000E+01 0. -1.
    1000022    2    1    0    0    0 -0.15248646958E+02 -0.53700405606E+02  0.26267759670E+02  0.62499999267E+02  0.99999957024E+01 0.  0.
    3000022    2    3    3    0    0 -0.10291920903E+02 -0.38813877066E+02  0.13890282781E+02  0.42490506538E+02  0.25000268410E+00 0.  0.
    1000022    2    1    0    0    0  0.15248646958E+02  0.53700405606E+02 -0.26267759670E+02  0.62500000733E+02  0.10000004860E+02 0.  0.
    3000022    2    5    5    0    0  0.12432603212E+02  0.40733324171E+02 -0.24341034539E+02  0.49054273789E+02  0.24998769194E+00 0.  0.
        -13    1    4    4    0    0 -0.74526917604E+01 -0.27978330372E+02  0.99925117718E+01  0.30629902080E+02  0.10500000000E+00 0. -1.
         13    1    4    4    0    0 -0.28392291429E+01 -0.10835546694E+02  0.38977710091E+01  0.11860604458E+02  0.10500000000E+00 0.  1.
    3000001    1    5    5    0    0  0.28160437465E+01  0.12967081435E+02 -0.19267251303E+01  0.13445726944E+02  0.10000000000E+01 0. -1.
        -13    1    6    6    0    0  0.74640794202E+01  0.24354389163E+02 -0.14623016089E+02  0.29371625383E+02  0.10500000000E+00 0.  1.
         13    1    6    6    0    0  0.49685237916E+01  0.16378935009E+02 -0.97180184503E+01  0.19682648406E+02  0.10500000000E+00 0. -1.
</event>
<event>
11    0  0.3422856E-009  0.9118800E+02  0.7816531E-02  0.1126479E+00
         25   -1    0    0    0    0  0.00000000000E+00  0.00000000000E+00  0.99999998245E-14  0.12500000000E+03  0.12500000000E+03 0.  0.
    3000001    1    3    3    0    0  0.10725807829E+02 -0.34156968423E+02  0.16022175019E+02  0.39235845063E+02  0.10000000000E+01 0. -1.
    1000022    2    1    0    0    0  0.18977315400E+02 -0.55791877199E+02  0.18258638531E+02  0.62500000351E+02  0.10000005089E+02 0.  0.
    3000022    2    3    3    0    0  0.82515075713E+01 -0.21634908775E+02  0.22364635118E+01  0.23264155289E+02  0.24999467700E+00 0.  0.
    1000022    2    1    0    0    0 -0.18977315400E+02  0.55791877199E+02 -0.18258638531E+02  0.62499999649E+02  0.10000000697E+02 0.  0.
    3000022    2    5    5    0    0 -0.95644068650E+01  0.31687518827E+02 -0.52306226360E+01  0.33511171839E+02  0.24999359966E+00 0.  0.
        -13    1    4    4    0    0  0.50356891685E+01 -0.13081882009E+02  0.13991983895E+01  0.14087674877E+02  0.10500000000E+00 0.  1.
         13    1    4    4    0    0  0.32158184027E+01 -0.85530267659E+01  0.83726512227E+00  0.91764804115E+01  0.10500000000E+00 0. -1.
    3000001    1    5    5    0    0 -0.94129085351E+01  0.24104358372E+02 -0.13028015895E+02  0.28988827809E+02  0.10000000000E+01 0.  1.
        -13    1    6    6    0    0 -0.72791861440E+01  0.24168946721E+02 -0.39809087239E+01  0.25553535877E+02  0.10500000000E+00 0. -1.
         13    1    6    6    0    0 -0.22852207210E+01  0.75185721052E+01 -0.12497139121E+01  0.79576359622E+01  0.10500000000E+00 0.  1.
</event>
<event>
11    0  0.3422856E-009  0.9118800E+02  0.7816531E-02  0.1126479E+00
         25   -1    0    0    0    0  0.00000000000E+00  0.00000000000E+00  0.99999998245E-14  0.12500000000E+03  0.12500000000E+03 0.  0.
    3000001    1    3    3    0    0  0.32710870864E+02 -0.35730218318E+01  0.24728845370E+02  0.41173818757E+02  0.10000000000E+01 0.  1.
    1000022    2    1    0    0    0  0.51352328491E+02  0.64317880903E+00  0.34187345877E+02  0.62500000453E+02  0.10000005903E+02 0.  0.
    3000022    2    3    3    0    0  0.18641457627E+02  0.42162006409E+01  0.94585005071E+01  0.21326181696E+02  0.25000717218E+00 0.  0.
    1000022    2    1    0    0    0 -0.51352328491E+02 -0.64317880903E+00 -0.34187345877E+02  0.62499999547E+02  0.10000000240E+02 0.  0.
    3000022    2    5    5    0    0 -0.33509889358E+02  0.20074247427E+01 -0.17282571316E+02  0.37758339611E+02  0.25000005439E+00 0.  0.
        -13    1    4    4    0    0  0.12540292845E+02  0.28088685031E+01  0.64098108815E+01  0.14361246026E+02  0.10500000000E+00 0. -1.
         13    1    4    4    0    0  0.61011647827E+01  0.14073321378E+01  0.30486896256E+01  0.69649356698E+01  0.10500000000E+00 0.  1.
    3000001    1    5    5    0    0 -0.17842439134E+02 -0.26506035517E+01 -0.16904774561E+02  0.24741659936E+02  0.10000000000E+01 0.  1.
        -13    1    6    6    0    0 -0.15370741119E+02  0.98142373762E+00 -0.79617130263E+01  0.17338476704E+02  0.10500000000E+00 0. -1.
         13    1    6    6    0    0 -0.18139148238E+02  0.10260010051E+01 -0.93208582894E+01  0.20419862906E+02  0.10500000000E+00 0.  1.
</event>
<event>
11    0  0.3422856E-009  0.9118800E+02  0.7816531E-02  0.1126479E+00
         25   -1    0    0    0    0  0.00000000000E+00  0.00000000000E+00  0.99999998245E-14  0.12500000000E+03  0.12500000000E+03 0.  0.
    3000001    1    3    3    0    0  0.24860287373E+01 -0.15379702886E+01  0.17475960565E+01  0.35496173692E+01  0.10000000000E+01 0. -1.
    1000022    2    1    0    0    0  0.14417477858E+02 -0.49305167459E+02  0.34167041288E+02  0.62499999317E+02  0.99999999146E+01 0.  0.
    3000022    2    3    3    0    0  0.11931449121E+02 -0.47767197170E+02  0.32419445231E+02  0.58950381947E+02  0.24999804214E+00 0.  0.
    1000022    2    1    0    0    0 -0.14417477858E+02  0.49305167459E+02 -0.34167041288E+02  0.62500000683E+02  0.10000008458E+02 0.  0.
    3000022    2    5    5    0    0 -0.11885892184E+02  0.28030453322E+02 -0.23973889225E+02  0.38752943253E+02  0.24999953690E+00 0.  0.
        -13    1    4    4    0    0  0.87423747527E+01 -0.35088888688E+02  0.23779337370E+02  0.43279638820E+02  0.10500000000E+00 0.  1.
         13    1    4    4    0    0  0.31890743682E+01 -0.12678308482E+02  0.86401078609E+01  0.15670743127E+02  0.10500000000E+00 0. -1.
    3000001    1    5    5    0    0 -0.25315856745E+01  0.21274714137E+02 -0.10193152063E+02  0.23747057430E+02  0.10000000000E+01 0. -1.
        -13    1    6    6    0    0 -0.84937540408E+01  0.20102393558E+02 -0.17145698034E+02  0.27753127221E+02  0.10500000000E+00 0.  1.
         13    1    6    6    0    0 -0.33921381429E+01  0.79280597639E+01 -0.68281911909E+01  0.10999816032E+02  0.10500000000E+00 0. -1.
</event>
<event>
11    0  0.3422856E-009  0.9118800E+02  0.7816531E-02  0.1126479E+00
         25   -1    0    0    0    0  0.00000000000E+00  0.00000000000E+00  0.99999998245E-14  0.12500000000E+03  0.12500000000E+03 0.  0.
    3000001    1    3    3    0    0 -0.10022249069E+02  0.18814485048E+02 -0.21910937050E+02  0.30586263035E+02  0.10000000000E+01 0. -1.
    1000022    2    1    0    0    0 -0.22900376660E+02  0.43998756333E+02 -0.36686947192E+02  0.62500000934E+02  0.10000010625E+02 0.  0.
    3000022    2    3    3    0    0 -0.12878127591E+02  0.25184271285E+02 -0.14776010141E+02  0.31913737899E+02  0.25000117062E+00 0.  0.
    1000022    2    1    0    0    0  0.22900376660E+02 -0.43998756333E+02  0.36686947192E+02  0.62499999066E+02  0.99999989514E+01 0.  0.
    3000022    2    5    5    0    0  0.13531460515E+02 -0.34757393865E+02  0.25314575054E+02  0.45078454415E+02  0.24998066103E+00 0.  0.
        -13    1    4    4    0    0 -0.34359746448E+01  0.66587870045E+01 -0.38922889847E+01  0.84443060503E+01  0.10500000000E+00 0.  1.
         13    1    4    4    0    0 -0.94421529457E+01  0.18525484281E+02 -0.10883721157E+02  0.23469431849E+02  0.10500000000E+00 0. -1.
    3000001    1    5    5    0    0  0.93689161453E+01 -0.92413624679E+01  0.11372372137E+02  0.17421544651E+02  0.10000000000E+01 0.  1.
        -13    1    6    6    0    0  0.10165018378E+02 -0.26157433974E+02  0.19067967768E+02  0.33928415385E+02  0.10500000000E+00 0.  1.
         13    1    6    6    0    0  0.33664421370E+01 -0.85999598913E+01  0.62466072859E+01  0.11150039030E+02  0.10500000000E+00 0. -1.
</event>
<event>
11    0  0.3422856E-009  0.9118800E+02  0.7816531E-02  0.1126479E+00
         25   -1    0    0    0    0  0.00000000000E+00  0.00000000000E+00  0.99999998245E-14  0.12500000000E+03  0.12500000000E+03 0.  0.
    3000001    1    3    3    0    0  0.17027512204E+02  0.15427101249E+02  0.39399497406E+02  0.45620741123E+02  0.10000000000E+01 0. -1.
    1000022    2    1    0    0    0  0.27640040040E+02  0.17220749861E+02  0.52399653239E+02  0.62500002645E+02  0.10000031597E+02 0.  0.
    3000022    2    3    3    0    0  0.10612527836E+02  0.17936486121E+01  0.13000155832E+02  0.16879261522E+02  0.24999086352E+00 0.  0.
    1000022    2    1    0    0    0 -0.27640040040E+02 -0.17220749861E+02 -0.52399653239E+02  0.62499997355E+02  0.99999985330E+01 0.  0.
    3000022    2    5    5    0    0 -0.22460525711E+02 -0.15941348506E+02 -0.36685314648E+02  0.45874574838E+02  0.24999675034E+00 0.  0.
        -13    1    4    4    0    0  0.31492977828E+01  0.49613716948E+00  0.38094822355E+01  0.49686425228E+01  0.10500000000E+00 0.  1.
         13    1    4    4    0    0  0.74632300535E+01  0.12975114426E+01  0.91906735969E+01  0.11910618999E+02  0.10500000000E+00 0. -1.
    3000001    1    5    5    0    0 -0.51795143290E+01 -0.12794013547E+01 -0.15714338591E+02  0.16625422517E+02  0.10000000000E+01 0.  1.
        -13    1    6    6    0    0 -0.13059934608E+02 -0.93331776189E+01 -0.21443666941E+02  0.26786413969E+02  0.10500000000E+00 0.  1.
         13    1    6    6    0    0 -0.94005911026E+01 -0.66081708874E+01 -0.15241647707E+02  0.19088160869E+02  0.10500000000E+00 0. -1.
</event>
<event>
11    0  0.3422856E-009  0.9118800E+02  0.7816531E-02  0.1126479E+00
         25   -1    0    0    0    0  0.00000000000E+00  0.00000000000E+00  0.99999998245E-14  0.12500000000E+03  0.12500000000E+03 0.  0.
    3000001    1    3    3    0    0 -0.52372388556E+02  0.18919117342E+02 -0.63394395291E+01  0.56053443941E+02  0.10000000000E+01 0. -1.
    1000022    2    1    0    0    0 -0.58370993584E+02  0.19555912717E+02 -0.40796157403E+01  0.62499998725E+02  0.99999980935E+01 0.  0.
    3000022    2    3    3    0    0 -0.59986050276E+01  0.63679537455E+00  0.22598237888E+01  0.64465547840E+01  0.24998879953E+00 0.  0.
    1000022    2    1    0    0    0  0.58370993584E+02 -0.19555912717E+02  0.40796157403E+01  0.62500001275E+02  0.10000014035E+02 0.  0.
    3000022    2    5    5    0    0  0.98736330626E+01 -0.72606420739E+01 -0.34390278569E+00  0.12263210237E+02  0.25000601368E+00 0.  0.
        -13    1    4    4    0    0 -0.28167927853E+01  0.34593728601E+00  0.11150795654E+01  0.30509706059E+01  0.10500000000E+00 0. -1.
         13    1    4    4    0    0 -0.31818122423E+01  0.29085808855E+00  0.11447442234E+01  0.33955841780E+01  0.10500000000E+00 0.  1.
    3000001    1    5    5    0    0  0.48497360521E+02 -0.12295270643E+02  0.44235185260E+01  0.50236791038E+02  0.10000000000E+01 0. -1.
        -13    1    6    6    0    0  0.71011388537E+01 -0.51742989430E+01 -0.26039890617E+00  0.87908119740E+01  0.10500000000E+00 0.  1.
         13    1    6    6    0    0  0.27724942089E+01 -0.20863431309E+01 -0.83503879522E-01  0.34723982629E+01  0.10500000000E+00 0. -1.
</event>
<event>
11    0  0.3422856E-009  0.9118800E+02  0.7816531E-02  0.1126479E+00
         25   -1    0    0    0    0  0.00000000000E+00  0.00000000000E+00  0.99999998245E-14  0.12500000000E+03  0.12500000000E+03 0.  0.
    3000001    1    3    3    0    0  0.93599261679E+01  0.14046529292E+01 -0.13129617307E+01  0.96075562047E+01  0.10000000000E+01 0.  1.
    1000022    2    1    0    0    0  0.54408738104E+02  0.18750619213E+01 -0.29024533346E+02  0.62499998434E+02  0.99999814475E+01 0.  0.
    3000022    2    3    3    0    0  0.45048811937E+02  0.47040899207E+00 -0.27711571615E+02  0.52892442229E+02  0.25000412436E+00 0.  0.
    1000022    2    1    0    0    0 -0.54408738104E+02 -0.18750619213E+01  0.29024533346E+02  0.62500001566E+02  0.10000001025E+02 0.  0.
    3000022    2    5    5    0    0 -0.43703917962E+02 -0.53001424602E+01  0.22094432026E+02  0.49257998120E+02  0.24999369526E+00 0.  0.
        -13    1    4    4    0    0  0.32553293984E+02  0.31323649203E+00 -0.20057663455E+02  0.38237886377E+02  0.10500000000E+00 0. -1.
         13    1    4    4    0    0  0.12495517953E+02  0.15717250004E+00 -0.76539081600E+01  0.14654555852E+02  0.10500000000E+00 0.  1.
    3000001    1    5    5    0    0 -0.10704820142E+02  0.34250805389E+01  0.69301013201E+01  0.13242003447E+02  0.10000000000E+01 0.  1.
        -13    1    6    6    0    0 -0.17814325310E+02 -0.21957069134E+01  0.90678146683E+01  0.20109888189E+02  0.10500000000E+00 0.  1.
         13    1    6    6    0    0 -0.25889592652E+02 -0.31044355467E+01  0.13026617358E+02  0.29148109931E+02  0.10500000000E+00 0. -1.
</event>
<event>
11    0  0.3422856E-009  0.9118800E+02  0.7816531E-02  0.1126479E+00
         25   -1    0    0    0    0  0.00000000000E+00  0.00000000000E+00  0.99999998245E-14  0.12500000000E+03  0.12500000000E+03 0.  0.
    3000001    1    3    3    0    0  0.17472600758E+02 -0.29448490934E+02  0.34459254475E+02  0.48589562815E+02  0.10000000000E+01 0. -1.
    1000022    2    1    0    0    0  0.17447032960E+02 -0.39554301342E+02  0.44014865165E+02  0.62499999225E+02  0.99999916931E+01 0.  0.
    3000022    2    3    3    0    0 -0.25567798142E-01 -0.10105810407E+02  0.95556106899E+01  0.13910436410E+02  0.24997550524E+00 0.  0.
    1000022    2    1    0    0    0 -0.17447032960E+02  0.39554301342E+02 -0.44014865165E+02  0.62500000775E+02  0.10000001383E+02 0.  0.
    3000022    2    5    5    0    0 -0.13377242727E+02  0.18207208676E+02 -0.23442544283E+02  0.32558692449E+02  0.25000153403E+00 0.  0.
        -13    1    4    4    0    0  0.47516245599E-01 -0.54178572683E+01  0.51606468879E+01  0.74832303503E+01  0.10500000000E+00 0.  1.
         13    1    4    4    0    0 -0.73084043741E-01 -0.46879531388E+01  0.43949638019E+01  0.64272060593E+01  0.10500000000E+00 0. -1.
    3000001    1    5    5    0    0 -0.40697902335E+01  0.21347092666E+02 -0.20572320882E+02  0.29941308326E+02  0.10000000000E+01 0. -1.
        -13    1    6    6    0    0 -0.34893761571E+01  0.47422803548E+01 -0.60641144493E+01  0.84527793052E+01  0.10500000000E+00 0. -1.
         13    1    6    6    0    0 -0.98878665697E+01  0.13464928321E+02 -0.17378429834E+02  0.24105913144E+02  0.10500000000E+00 0.  1.
</event>
<event>
11    0  0.3422856E-009  0.9118800E+02  0.7816531E-02  0.1126479E+00
         25   -1    0    0    0    0  0.00000000000E+00  0.00000000000E+00  0.99999998245E-14  0.12500000000E+03  0.12500000000E+03 0.  0.
    3000001    1    3    3    0    0 -0.30095787508E+02 -0.23875623864E+01 -0.19940162739E+02  0.36194847285E+02  0.10000000000E+01 0.  1.
    1000022    2    1    0    0    0 -0.48851000384E+02 -0.11856760337E+02 -0.35766562325E+02  0.62500001622E+02  0.10000010903E+02 0.  0.
    3000022    2    3    3    0    0 -0.18755212875E+02 -0.94691979510E+01 -0.15826399586E+02  0.26305154338E+02  0.25000208388E+00 0.  0.
    1000022    2    1    0    0    0  0.48851000384E+02  0.11856760337E+02  0.35766562325E+02  0.62499998378E+02  0.99999906247E+01 0.  0.
    3000022    2    5    5    0    0  0.32747609097E+02  0.51559086250E+01  0.18630352227E+02  0.38028171288E+02  0.24998415747E+00 0.  0.
        -13    1    4    4    0    0 -0.13031455715E+02 -0.65916694716E+01 -0.11057593697E+02  0.18318033405E+02  0.10500000000E+00 0.  1.
         13    1    4    4    0    0 -0.57237571599E+01 -0.28775284794E+01 -0.47688058895E+01  0.79871209323E+01  0.10500000000E+00 0. -1.
    3000001    1    5    5    0    0  0.16103391287E+02  0.67008517124E+01  0.17136210098E+02  0.24471827090E+02  0.10000000000E+01 0.  1.
        -13    1    6    6    0    0  0.13036238449E+02  0.19888915674E+01  0.74112182822E+01  0.15127338959E+02  0.10500000000E+00 0.  1.
         13    1    6    6    0    0  0.19711370648E+02  0.31670170575E+01  0.11219133945E+02  0.22900832328E+02  0.10500000000E+00 0. -1.
</event>
<event>
11    0  0.3422856E-009  0.9118800E+02  0.7816531E-02  0.1126479E+00
         25   -1    0    0    0    0  0.00000000000E+00  0.00000000000E+00  0.99999998245E-14  0.12500000000E+03  0.12500000000E+03 0.  0.
    3000001    1    3    3    0    0 -0.39729610769E+01  0.34463848448E+01 -0.98485647758E+01  0.11209648360E+02  0.10000000000E+01 0.  1.
    1000022    2    1    0    0    0 -0.15525719601E+02  0.11648367995E+00 -0.59709201511E+02  0.62499998997E+02  0.99999795948E+01 0.  0.
    3000022    2    3    3    0    0 -0.11552758524E+02 -0.33299011649E+01 -0.49860636736E+02  0.51290350637E+02  0.25000291894E+00 0.  0.
    1000022    2    1    0    0    0  0.15525719601E+02 -0.11648367995E+00  0.59709201511E+02  0.62500001003E+02  0.99999921357E+01 0.  0.
    3000022    2    5    5    0    0  0.50047933038E+01 -0.12568993996E+00  0.62779954380E+01  0.80336466425E+01  0.24999536405E+00 0.  0.
        -13    1    4    4    0    0 -0.54867478303E+01 -0.15112280042E+01 -0.23603325188E+02  0.24279954629E+02  0.10500000000E+00 0.  1.
         13    1    4    4    0    0 -0.60660106938E+01 -0.18186731607E+01 -0.26257311547E+02  0.27010396008E+02  0.10500000000E+00 0. -1.
    3000001    1    5    5    0    0  0.10520926297E+02  0.92062600124E-02  0.53431206073E+02  0.54466354361E+02  0.10000000000E+01 0.  1.
        -13    1    6    6    0    0  0.23801764012E+01 -0.12274927822E+00  0.30273019014E+01  0.38543337801E+01  0.10500000000E+00 0. -1.
         13    1    6    6    0    0  0.26246169025E+01 -0.29406617376E-02  0.32506935366E+01  0.41793128623E+01  0.10500000000E+00 0.  1.
</event>
<event>
11    0  0.3422856E-009  0.9118800E+02  0.7816531E-02  0.1126479E+00
         25   -1    0    0    0    0  0.00000000000E+00  0.00000000000E+00  0.99999998245E-14  0.12500000000E+03  0.12500000000E+03 0.  0.
    3000001    1    3    3    0    0  0.20201075510E+02  0.19757571700E+02 -0.31206535535E+02  0.42110485052E+02  0.10000000000E+01 0. -1.
    1000022    2    1    0    0    0  0.23556097844E+02  0.29451997311E+02 -0.48825608412E+02  0.62499999398E+02  0.99999998383E+01 0.  0.
    3000022    2    3    3    0    0  0.33550223336E+01  0.96944256109E+01 -0.17619072877E+02  0.20389514346E+02  0.25000686673E+00 0.  0.
    1000022    2    1    0    0    0 -0.23556097844E+02 -0.29451997311E+02  0.48825608412E+02  0.62500000602E+02  0.10000007357E+02 0.  0.
    3000022    2    5    5    0    0 -0.24030474037E+02 -0.29162954778E+02  0.47995599561E+02  0.61086673657E+02  0.25001498768E+00 0.  0.
        -13    1    4    4    0    0  0.21984966101E+01  0.64673117526E+01 -0.11806268589E+02  0.13640326670E+02  0.10500000000E+00 0. -1.
         13    1    4    4    0    0  0.11565257235E+01  0.32271138582E+01 -0.58128042880E+01  0.67491876766E+01  0.10500000000E+00 0.  1.
    3000001    1    5    5    0    0  0.47437619281E+00 -0.28904253278E+00  0.83000885133E+00  0.14133269442E+01  0.10000000000E+01 0. -1.
        -13    1    6    6    0    0 -0.12758187123E+02 -0.15379537928E+02  0.25356557355E+02  0.32284168743E+02  0.10500000000E+00 0. -1.
         13    1    6    6    0    0 -0.11272286914E+02 -0.13783416851E+02  0.22639042206E+02  0.28802504915E+02  0.10500000000E+00 0.  1.
</event>
<event>
11    0  0.3422856E-009  0.9118800E+02  0.7816531E-02  0.1126479E+00
         25   -1    0    0    0    0  0.00000000000E+00  0.00000000000E+00  0.99999998245E-14  0.12500000000E+03  0.12500000000E+03 0.  0.
    3000001    1    3    3    0    0  0.21150069999E+01 -0.94904664368E+00 -0.42308811441E+00  0.25598725933E+01  0.10000000000E+01 0. -1.
    1000022    2    1    0    0    0  0.31199461317E+02 -0.24903582866E+02 -0.47038868946E+02  0.62499999529E+02  0.99999961685E+01 0.  0.
    3000022    2    3    3    0    0  0.29084454317E+02 -0.23954536222E+02 -0.46615780831E+02  0.59940126935E+02  0.25001195224E+00 0.  0.
    1000022    2    1    0    0    0 -0.31199461317E+02  0.24903582866E+02  0.47038868946E+02  0.62500000471E+02  0.10000002060E+02 0.  0.
    3000022    2    5    5    0    0 -0.53145851808E+00  0.37716899057E+01  0.55743879949E+01  0.67560637942E+01  0.25000714363E+00 0.  0.
        -13    1    4    4    0    0  0.67128423272E+01 -0.55194598673E+01 -0.10758403037E+02  0.13830435649E+02  0.10500000000E+00 0. -1.
         13    1    4    4    0    0  0.22371611990E+02 -0.18435076355E+02 -0.35857377795E+02  0.46109691287E+02  0.10500000000E+00 0.  1.
    3000001    1    5    5    0    0 -0.30668002799E+02  0.21131892960E+02  0.41464480951E+02  0.55743936677E+02  0.10000000000E+01 0.  1.
        -13    1    6    6    0    0 -0.15863320678E+00  0.11714828909E+01  0.16493289541E+01  0.20319566080E+01  0.10500000000E+00 0. -1.
         13    1    6    6    0    0 -0.37282531130E+00  0.26002070149E+01  0.39250590408E+01  0.47241071862E+01  0.10500000000E+00 0.  1.
</event>
<event>
11    0  0.3422856E-009  0.9118800E+02  0.7816531E-02  0.1126479E+00
         25   -1    0    0    0    0  0.00000000000E+00  0.00000000000E+00  0.99999998245E-14  0.12500000000E+03  0.12500000000E+03 0.  0.
    3000001    1    3    3    0    0  0.10229163431E+02  0.16620538484E+02 -0.75411081865E+01  0.20946274052E+02  0.10000000000E+01 0. -1.
    1000022    2    1    0    0    0  0.39241851181E+02  0.39568348112E+02 -0.26470226180E+02  0.62499998629E+02  0.99999949120E+01 0.  0.
    3000022    2    3    3    0    0  0.29012687750E+02  0.22947809628E+02 -0.18929117993E+02  0.41553724577E+02  0.25000203968E+00 0.  0.
    1000022    2    1    0    0    0 -0.39241851181E+02 -0.39568348112E+02  0.26470226180E+02  0.62500001371E+02  0.10000012046E+02 0.  0.
    3000022    2    5    5    0    0 -0.12923589432E+02 -0.69017359060E+01  0.71450434043E+01  0.16302370005E+02  0.25000040726E+00 0.  0.
        -13    1    4    4    0    0  0.19154751269E+02  0.15137381758E+02 -0.12432626376E+02  0.27397555480E+02  0.10500000000E+00 0.  1.
         13    1    4    4    0    0  0.98579364804E+01  0.78104278698E+01 -0.64964916171E+01  0.14156169097E+02  0.10500000000E+00 0. -1.
    3000001    1    5    5    0    0 -0.26318261749E+02 -0.32666612206E+02  0.19325182775E+02  0.46197631365E+02  0.10000000000E+01 0.  1.
        -13    1    6    6    0    0 -0.59635402846E+01 -0.32477030703E+01  0.33537424949E+01  0.75742987584E+01  0.10500000000E+00 0.  1.
         13    1    6    6    0    0 -0.69600491477E+01 -0.36540328357E+01  0.37913009094E+01  0.87280712468E+01  0.10500000000E+00 0. -1.
</event>
<event>
11    0  0.3422856E-009  0.9118800E+02  0.7816531E-02  0.1126479E+00
         25   -1    0    0    0    0  0.00000000000E+00  0.00000000000E+00  0.99999998245E-14  0.12500000000E+03  0.12500000000E+03 0.  0.
    3000001    1    3    3    0    0 -0.52556286280E+00 -0.40125946662E-01  0.25910782338E+00  0.11597255186E+01  0.10000000000E+01 0. -1.
    1000022    2    1    0    0    0 -0.35023155442E+02 -0.50420826262E+02  0.61129951304E+01  0.62500000694E+02  0.10000011963E+02 0.  0.
    3000022    2    3    3    0    0 -0.34497592579E+02 -0.50380700315E+02  0.58538873070E+01  0.61340275176E+02  0.25000799739E+00 0.  0.
    1000022    2    1    0    0    0  0.35023155442E+02  0.50420826262E+02 -0.61129951304E+01  0.62499999306E+02  0.10000003286E+02 0.  0.
    3000022    2    5    5    0    0  0.38681745531E+01  0.21475429047E+01  0.11555759264E+01  0.45795810970E+01  0.24998480309E+00 0.  0.
        -13    1    4    4    0    0 -0.23539024206E+02 -0.34309006497E+02  0.40220063531E+01  0.41801688332E+02  0.10500000000E+00 0. -1.
         13    1    4    4    0    0 -0.10958568374E+02 -0.16071693819E+02  0.18318809539E+01  0.19538586843E+02  0.10500000000E+00 0.  1.
    3000001    1    5    5    0    0  0.31154980889E+02  0.48273283357E+02 -0.72685710568E+01  0.57920418209E+02  0.10000000000E+01 0.  1.
        -13    1    6    6    0    0  0.15042537739E+01  0.76968488459E+00  0.41955049232E+00  0.17442023545E+01  0.10500000000E+00 0.  1.
         13    1    6    6    0    0  0.23639207792E+01  0.13778580201E+01  0.73602543412E+00  0.28353787426E+01  0.10500000000E+00 0. -1.
</event>
<event>
11    0  0.3422856E-009  0.9118800E+02  0.7816531E-02  0.1126479E+00
         25   -1    0    0    0    0  0.00000000000E+00  0.00000000000E+00  0.99999998245E-14  0.12500000000E+03  0.12500000000E+03 0.  0.
    3000001    1    3    3    0    0 -0.17536062398E+02  0.96413635197E+00 -0.35762587228E+02  0.39854807597E+02  0.10000000000E+01 0.  1.
    1000022    2    1    0    0    0 -0.20594154960E+02 -0.44969042156E+00 -0.58154355253E+02  0.62499997142E+02  0.99999583896E+01 0.  0.
    3000022    2    3    3    0    0 -0.30580925614E+01 -0.14138267735E+01 -0.22391768025E+02  0.22645189545E+02  0.24999591913E+00 0.  0.
    1000022    2    1    0    0    0  0.20594154960E+02  0.44969042156E+00  0.58154355253E+02  0.62500002858E+02  0.99999941193E+01 0.  0.
    3000022    2    5    5    0    0  0.15286399402E+02 -0.40636113816E+01  0.41916540738E+02  0.44802297288E+02  0.25002137925E+00 0.  0.
        -13    1    4    4    0    0 -0.13727177385E+01 -0.70819661135E+00 -0.10223490816E+02  0.10340052510E+02  0.10500000000E+00 0. -1.
         13    1    4    4    0    0 -0.16853748229E+01 -0.70563016218E+00 -0.12168277209E+02  0.12305137035E+02  0.10500000000E+00 0.  1.
    3000001    1    5    5    0    0  0.53077555576E+01  0.45133018031E+01  0.16237814516E+02  0.17697705571E+02  0.10000000000E+01 0.  1.
        -13    1    6    6    0    0  0.92421707108E+01 -0.24857212483E+01  0.25519897253E+02  0.27255691340E+02  0.10500000000E+00 0.  1.
         13    1    6    6    0    0  0.60442286914E+01 -0.15778901333E+01  0.16396643484E+02  0.17546605948E+02  0.10500000000E+00 0. -1.
</event>
<event>
11    0  0.3422856E-009  0.9118800E+02  0.7816531E-02  0.1126479E+00
         25   -1    0    0    0    0  0.00000000000E+00  0.00000000000E+00  0.99999998245E-14  0.12500000000E+03  0.12500000000E+03 0.  0.
    3000001    1    3    3    0    0 -0.25954791355E+02 -0.10027167677E+02  0.37657473569E+02  0.46832473793E+02  0.10000000000E+01 0.  1.
    1000022    2    1    0    0    0 -0.29411009672E+02 -0.13159051034E+02  0.52612564509E+02  0.62500000154E+02  0.99999980505E+01 0.  0.
    3000022    2    3    3    0    0 -0.34562183172E+01 -0.31318833563E+01  0.14955090939E+02  0.15667526361E+02  0.24999772812E+00 0.  0.
    1000022    2    1    0    0    0  0.29411009672E+02  0.13159051034E+02 -0.52612564509E+02  0.62499999846E+02  0.99999961283E+01 0.  0.
    3000022    2    5    5    0    0  0.11682021543E+02  0.10004468209E+01 -0.23850431737E+02  0.26577737138E+02  0.24999236009E+00 0.  0.
        -13    1    4    4    0    0 -0.19825411498E+01 -0.17091389977E+01  0.84323972644E+01  0.88299475734E+01  0.10500000000E+00 0. -1.
         13    1    4    4    0    0 -0.14736771675E+01 -0.14227443585E+01  0.65226936747E+01  0.68375787877E+01  0.10500000000E+00 0.  1.
    3000001    1    5    5    0    0  0.17728988129E+02  0.12158604213E+02 -0.28762132772E+02  0.35922262708E+02  0.10000000000E+01 0.  1.
        -13    1    6    6    0    0  0.88206361246E+01  0.74216991153E+00 -0.17960198475E+02  0.20023341182E+02  0.10500000000E+00 0.  1.
         13    1    6    6    0    0  0.28613854182E+01  0.25827690936E+00 -0.58902332618E+01  0.65543959563E+01  0.10500000000E+00 0. -1.
</event>
<event>
11    0  0.3422856E-009  0.9118800E+02  0.7816531E-02  0.1126479E+00
         25   -1    0    0    0    0  0.00000000000E+00  0.00000000000E+00  0.99999998245E-14  0.12500000000E+03  0.12500000000E+03 0.  0.
    3000001    1    3    3    0    0 -0.15282357488E+02 -0.12435098958E+02  0.25431711415E+02  0.32186240569E+02  0.10000000000E+01 0. -1.
    1000022    2    1    0    0    0 -0.35408570130E+02 -0.16626356374E+02  0.47707939746E+02  0.62499998793E+02  0.99999884689E+01 0.  0.
    3000022    2    3    3    0    0 -0.20126212641E+02 -0.41912574161E+01  0.22276228331E+02  0.30313758224E+02  0.25002990792E+00 0.  0.
    1000022    2    1    0    0    0  0.35408570130E+02  0.16626356374E+02 -0.47707939746E+02  0.62500001207E+02  0.10000003559E+02 0.  0.
    3000022    2    5    5    0    0  0.30315776623E+02  0.10137536317E+02 -0.39575995345E+02  0.50873744235E+02  0.24998024660E+00 0.  0.
        -13    1    4    4    0    0 -0.12134504032E+02 -0.25490977628E+01  0.13348473919E+02  0.18219134679E+02  0.10500000000E+00 0.  1.
         13    1    4    4    0    0 -0.79917086093E+01 -0.16421596533E+01  0.89277544125E+01  0.12094623544E+02  0.10500000000E+00 0. -1.
    3000001    1    5    5    0    0  0.50927935072E+01  0.64888200576E+01 -0.81319444012E+01  0.11626256973E+02  0.10000000000E+01 0.  1.
        -13    1    6    6    0    0  0.10698173593E+02  0.36312877535E+01 -0.14028027509E+02  0.18012044575E+02  0.10500000000E+00 0. -1.
         13    1    6    6    0    0  0.19617603030E+02  0.65062485632E+01 -0.25547967836E+02  0.32861699660E+02  0.10500000000E+00 0.  1.
</event>
<event>
11    0  0.3422856E-009  0.9118800E+02  0.7816531E-02  0.1126479E+00
         25   -1    0    0    0    0  0.00000000000E+00  0.00000000000E+00  0.99999998245E-14  0.12500000000E+03  0.12500000000E+03 0.  0.
    3000001    1    3    3    0    0  0.90536207858E-01  0.12229942832E+00  0.63876417681E+00  0.11963166925E+01  0.10000000000E+01 0.  1.
    1000022    2    1    0    0    0 -0.43197191863E+02  0.64183321715E+00  0.44043625611E+02  0.62500001872E+02  0.99999971149E+01 0.  0.
    3000022    2    3    3    0    0 -0.43287728071E+02  0.51953378883E+00  0.43404861434E+02  0.61303685179E+02  0.25000712578E+00 0.  0.
    1000022    2    1    0    0    0  0.43197191863E+02 -0.64183321715E+00 -0.44043625611E+02  0.62499998128E+02  0.99999737182E+01 0.  0.
    3000022    2    5    5    0    0  0.79007935600E+00  0.16360122141E+01 -0.23118816960E+01  0.29509408632E+01  0.24998729616E+00 0.  0.
        -13    1    4    4    0    0 -0.22363033936E+02  0.31198568931E+00  0.22497409960E+02  0.31722974353E+02  0.10500000000E+00 0. -1.
         13    1    4    4    0    0 -0.20924694135E+02  0.20754809952E+00  0.20907451474E+02  0.29580710826E+02  0.10500000000E+00 0.  1.
    3000001    1    5    5    0    0  0.42407112507E+02 -0.22778454313E+01 -0.41731743915E+02  0.59549057265E+02  0.10000000000E+01 0.  1.
        -13    1    6    6    0    0  0.26956457437E+00  0.65521243358E+00 -0.97786141105E+00  0.12121082180E+01  0.10500000000E+00 0. -1.
         13    1    6    6    0    0  0.52051478164E+00  0.98079978056E+00 -0.13340202849E+01  0.17388326452E+01  0.10500000000E+00 0.  1.
</event>
<event>
11    0  0.3422856E-009  0.9118800E+02  0.7816531E-02  0.1126479E+00
         25   -1    0    0    0    0  0.00000000000E+00  0.00000000000E+00  0.99999998245E-14  0.12500000000E+03  0.12500000000E+03 0.  0.
    3000001    1    3    3    0    0 -0.12985036301E+02 -0.60805230900E+00 -0.49840941234E+02  0.51517961124E+02  0.10000000000E+01 0.  1.
    1000022    2    1    0    0    0 -0.18258715707E+02 -0.41831011380E+01 -0.58782411006E+02  0.62499994250E+02  0.99999201591E+01 0.  0.
    3000022    2    3    3    0    0 -0.52736794052E+01 -0.35750488290E+01 -0.89414697725E+01  0.10982033126E+02  0.25000256837E+00 0.  0.
    1000022    2    1    0    0    0  0.18258715707E+02  0.41831011380E+01  0.58782411006E+02  0.62500005750E+02  0.99999920335E+01 0.  0.
    3000022    2    5    5    0    0  0.16449883209E+02 -0.12639075010E+00  0.45175741579E+02  0.48078319017E+02  0.25000006875E+00 0.  0.
        -13    1    4    4    0    0 -0.27995088494E+01 -0.18204212064E+01 -0.46482469212E+01  0.57243696253E+01  0.10500000000E+00 0. -1.
         13    1    4    4    0    0 -0.24741705558E+01 -0.17546276226E+01 -0.42932228513E+01  0.52576635004E+01  0.10500000000E+00 0.  1.
    3000001    1    5    5    0    0  0.18088324976E+01  0.43094918881E+01  0.13606669427E+02  0.14421686733E+02  0.10000000000E+01 0. -1.
        -13    1    6    6    0    0  0.10216896179E+02 -0.12011299410E+00  0.28187030478E+02  0.29981979702E+02  0.10500000000E+00 0.  1.
         13    1    6    6    0    0  0.62329870302E+01 -0.62777559986E-02  0.16988711101E+02  0.18096339315E+02  0.10500000000E+00 0. -1.
</event>
<event>
11    0  0.3422856E-009  0.9118800E+02  0.7816531E-02  0.1126479E+00
         25   -1    0    0    0    0  0.00000000000E+00  0.00000000000E+00  0.99999998245E-14  0.12500000000E+03  0.12500000000E+03 0.  0.
    3000001    1    3    3    0    0 -0.26278749637E+02  0.19973624335E+01  0.14414701448E+02  0.30055710888E+02  0.10000000000E+01 0. -1.
    1000022    2    1    0    0    0 -0.52305550337E+02 -0.55926662870E+01  0.32235099574E+02  0.62500001312E+02  0.10000000360E+02 0.  0.
    3000022    2    3    3    0    0 -0.26026800701E+02 -0.75900287205E+01  0.17820398126E+02  0.32444290424E+02  0.25000213853E+00 0.  0.
    1000022    2    1    0    0    0  0.52305550337E+02  0.55926662870E+01 -0.32235099574E+02  0.62499998688E+02  0.99999839559E+01 0.  0.
    3000022    2    5    5    0    0  0.14216201661E+02  0.58961396021E+01 -0.10505870300E+02  0.18636004530E+02  0.25000440106E+00 0.  0.
        -13    1    4    4    0    0 -0.16361971401E+02 -0.47294724118E+01  0.11247746543E+02  0.20410900145E+02  0.10500000000E+00 0. -1.
         13    1    4    4    0    0 -0.96648292996E+01 -0.28605563087E+01  0.65726515827E+01  0.12033390279E+02  0.10500000000E+00 0.  1.
    3000001    1    5    5    0    0  0.38089348676E+02 -0.30347331511E+00 -0.21729229274E+02  0.43863994158E+02  0.10000000000E+01 0.  1.
        -13    1    6    6    0    0  0.66793676426E+01  0.26982035032E+01 -0.49047944901E+01  0.87156347009E+01  0.10500000000E+00 0. -1.
         13    1    6    6    0    0  0.75368340187E+01  0.31979360990E+01 -0.56010758095E+01  0.99203698290E+01  0.10500000000E+00 0.  1.
</event>
<event>
11    0  0.3422856E-009  0.9118800E+02  0.7816531E-02  0.1126479E+00
         25   -1    0    0    0    0  0.00000000000E+00  0.00000000000E+00  0.99999998245E-14  0.12500000000E+03  0.12500000000E+03 0.  0.
    3000001    1    3    3    0    0  0.40562884688E+01 -0.10954545585E+01 -0.41797060473E+02  0.42019611623E+02  0.10000000000E+01 0.  1.
    1000022    2    1    0    0    0  0.59073473481E+01 -0.84203340046E+01 -0.60831333217E+02  0.62500000796E+02  0.10000011056E+02 0.  0.
    3000022    2    3    3    0    0  0.18510588793E+01 -0.73248794461E+01 -0.19034272744E+02  0.20480389172E+02  0.25004776209E+00 0.  0.
    1000022    2    1    0    0    0 -0.59073473481E+01  0.84203340046E+01  0.60831333217E+02  0.62499999204E+02  0.10000001110E+02 0.  0.
    3000022    2    5    5    0    0 -0.47996485901E+01  0.40381225266E+01  0.12906714426E+02  0.14352311199E+02  0.24999873760E+00 0.  0.
        -13    1    4    4    0    0  0.67678662784E+00 -0.27480023931E+01 -0.72889700329E+01  0.78198252175E+01  0.10500000000E+00 0. -1.
         13    1    4    4    0    0  0.11742722515E+01 -0.45768770530E+01 -0.11745302711E+02  0.12660563955E+02  0.10500000000E+00 0.  1.
    3000001    1    5    5    0    0 -0.11076987580E+01  0.43822114780E+01  0.47924618791E+02  0.48147688005E+02  0.10000000000E+01 0. -1.
        -13    1    6    6    0    0 -0.13300392743E+01  0.10752105140E+01  0.35593968322E+01  0.39503687080E+01  0.10500000000E+00 0.  1.
         13    1    6    6    0    0 -0.34696093158E+01  0.29629120126E+01  0.93473175937E+01  0.10401942491E+02  0.10500000000E+00 0. -1.
</event>
<event>
11    0  0.3422856E-009  0.9118800E+02  0.7816531E-02  0.1126479E+00
         25   -1    0    0    0    0  0.00000000000E+00  0.00000000000E+00  0.99999998245E-14  0.12500000000E+03  0.12500000000E+03 0.  0.
    3000001    1    3    3    0    0 -0.18521003100E+02  0.43429893790E+02 -0.21459084436E+02  0.51871721923E+02  0.10000000000E+01 0.  1.
    1000022    2    1    0    0    0 -0.24443179824E+02  0.52240653227E+02 -0.21901941236E+02  0.62499999374E+02  0.10000000119E+02 0.  0.
    3000022    2    3    3    0    0 -0.59221767237E+01  0.88107594365E+01 -0.44285680004E+00  0.10628277451E+02  0.25000085228E+00 0.  0.
    1000022    2    1    0    0    0  0.24443179824E+02 -0.52240653227E+02  0.21901941236E+02  0.62500000626E+02  0.10000007948E+02 0.  0.
    3000022    2    5    5    0    0  0.20139155781E+02 -0.41123391305E+02  0.13037357159E+02  0.47610440981E+02  0.25000133307E+00 0.  0.
        -13    1    4    4    0    0 -0.14922730441E+01  0.22694605812E+01 -0.12428388234E+00  0.27209927694E+01  0.10500000000E+00 0. -1.
         13    1    4    4    0    0 -0.44299036796E+01  0.65412988553E+01 -0.31857291770E+00  0.79072846812E+01  0.10500000000E+00 0.  1.
    3000001    1    5    5    0    0  0.43040240422E+01 -0.11117261922E+02  0.88645840765E+01  0.14889559646E+02  0.10000000000E+01 0. -1.
        -13    1    6    6    0    0  0.12555153078E+02 -0.25757919569E+02  0.81878016921E+01  0.29801902806E+02  0.10500000000E+00 0. -1.
         13    1    6    6    0    0  0.75840027036E+01 -0.15365471736E+02  0.48495554673E+01  0.17808538175E+02  0.10500000000E+00 0.  1.
</event>
<event>
11    0  0.3422856E-009  0.9118800E+02  0.7816531E-02  0.1126479E+00
         25   -1    0    0    0    0  0.00000000000E+00  0.00000000000E+00  0.99999998245E-14  0.12500000000E+03  0.12500000000E+03 0.  0.
    3000001    1    3    3    0    0  0.12610814396E+01  0.41497444366E+00  0.71561902103E+01  0.73466719345E+01  0.10000000000E+01 0. -1.
    1000022    2    1    0    0    0  0.29329237476E+02 -0.13003777481E+02  0.52696751409E+02  0.62499999147E+02  0.99999942319E+01 0.  0.
    3000022    2    3    3    0    0  0.28068156037E+02 -0.13418751924E+02  0.45540561199E+02  0.55153327213E+02  0.25000369142E+00 0.  0.
    1000022    2    1    0    0    0 -0.29329237476E+02  0.13003777481E+02 -0.52696751409E+02  0.62500000853E+02  0.10000004892E+02 0.  0.
    3000022    2    5    5    0    0 -0.14021504343E+01  0.18521068201E+00 -0.87463270398E+01  0.88634680821E+01  0.25000183879E+00 0.  0.
        -13    1    4    4    0    0  0.79302371933E+01 -0.37714013102E+01  0.12790588115E+02  0.15515227975E+02  0.10500000000E+00 0.  1.
         13    1    4    4    0    0  0.20137918843E+02 -0.96473506143E+01  0.32749973084E+02  0.39638099238E+02  0.10500000000E+00 0. -1.
    3000001    1    5    5    0    0 -0.27927087042E+02  0.12818566799E+02 -0.43950424369E+02  0.53636532771E+02  0.10000000000E+01 0. -1.
        -13    1    6    6    0    0 -0.58034554062E+00  0.11557223621E+00 -0.39940826335E+01  0.40390443141E+01  0.10500000000E+00 0.  1.
         13    1    6    6    0    0 -0.82180489367E+00  0.69638445794E-01 -0.47522444062E+01  0.48244237680E+01  0.10500000000E+00 0. -1.
</event>
<event>
11    0  0.3422856E-009  0.9118800E+02  0.7816531E-02  0.1126479E+00
         25   -1    0    0    0    0  0.00000000000E+00  0.00000000000E+00  0.99999998245E-14  0.12500000000E+03  0.12500000000E+03 0.  0.
    3000001    1    3    3    0    0 -0.98202090825E+01 -0.34075171311E+01  0.51499664864E+01  0.11643445978E+02  0.10000000000E+01 0. -1.
    1000022    2    1    0    0    0 -0.54824211037E+02  0.19130583771E+01  0.28229346515E+02  0.62499999108E+02  0.99999987855E+01 0.  0.
    3000022    2    3    3    0    0 -0.45004001954E+02  0.53205755082E+01  0.23079380028E+02  0.50856553131E+02  0.24999637221E+00 0.  0.
    1000022    2    1    0    0    0  0.54824211037E+02 -0.19130583771E+01 -0.28229346515E+02  0.62500000892E+02  0.10000009933E+02 0.  0.
    3000022    2    5    5    0    0  0.53018517992E+02 -0.30189504045E+00 -0.27732388199E+02  0.59834791287E+02  0.25000496895E+00 0.  0.
        -13    1    4    4    0    0 -0.32266261164E+02  0.37832035033E+01  0.16515711752E+02  0.36444533170E+02  0.10500000000E+00 0. -1.
         13    1    4    4    0    0 -0.12737740790E+02  0.15373720049E+01  0.65636682762E+01  0.14412019961E+02  0.10500000000E+00 0.  1.
    3000001    1    5    5    0    0  0.18056930447E+01 -0.16111633366E+01 -0.49695831632E+00  0.26652096048E+01  0.10000000000E+01 0.  1.
        -13    1    6    6    0    0  0.28686071258E+02 -0.10633627643E+00 -0.14964793242E+02  0.32355185881E+02  0.10500000000E+00 0.  1.
         13    1    6    6    0    0  0.24332446734E+02 -0.19555876402E+00 -0.12767594956E+02  0.27479605406E+02  0.10500000000E+00 0. -1.
</event>
<event>
11    0  0.3422856E-009  0.9118800E+02  0.7816531E-02  0.1126479E+00
         25   -1    0    0    0    0  0.00000000000E+00  0.00000000000E+00  0.99999998245E-14  0.12500000000E+03  0.12500000000E+03 0.  0.
    3000001    1    3    3    0    0 -0.51510942689E+02 -0.54174145700E+01  0.65811736096E+01  0.52221044067E+02  0.10000000000E+01 0. -1.
    1000022    2    1    0    0    0 -0.60527470352E+02 -0.10314891426E+02  0.60231582194E+01  0.62499999801E+02  0.99999943921E+01 0.  0.
    3000022    2    3    3    0    0 -0.90165276629E+01 -0.48974768557E+01 -0.55801539024E+00  0.10278955734E+02  0.24999832172E+00 0.  0.
    1000022    2    1    0    0    0  0.60527470352E+02  0.10314891426E+02 -0.60231582194E+01  0.62500000199E+02  0.99999968798E+01 0.  0.
    3000022    2    5    5    0    0  0.29476483823E+02  0.12038325040E-01 -0.29954267168E+01  0.29629349087E+02  0.25000529079E+00 0.  0.
        -13    1    4    4    0    0 -0.55823898293E+01 -0.30161993539E+01 -0.40450981415E+00  0.63588668753E+01  0.10500000000E+00 0.  1.
         13    1    4    4    0    0 -0.34341378336E+01 -0.18812775018E+01 -0.15350557609E+00  0.39200888588E+01  0.10500000000E+00 0. -1.
    3000001    1    5    5    0    0  0.31050986529E+02  0.10302853101E+02 -0.30277315026E+01  0.32870651112E+02  0.10000000000E+01 0. -1.
        -13    1    6    6    0    0  0.19011475296E+02  0.39020050721E-01 -0.19802456993E+01  0.19114657034E+02  0.10500000000E+00 0. -1.
         13    1    6    6    0    0  0.10465008527E+02 -0.26981725681E-01 -0.10151810175E+01  0.10514692054E+02  0.10500000000E+00 0.  1.
</event>
<event>
11    0  0.3422856E-009  0.9118800E+02  0.7816531E-02  0.1126479E+00
         25   -1    0    0    0    0  0.00000000000E+00  0.00000000000E+00  0.99999998245E-14  0.12500000000E+03  0.12500000000E+03 0.  0.
    3000001    1    3    3    0    0  0.32399320017E+02  0.20457248176E+02 -0.20517413238E+02  0.43476191030E+02  0.10000000000E+01 0.  1.
    1000022    2    1    0    0    0  0.42556963637E+02  0.28298030146E+02 -0.34559749868E+02  0.62499999721E+02  0.99999995040E+01 0.  0.
    3000022    2    3    3    0    0  0.10157643619E+02  0.78407819699E+01 -0.14042336630E+02  0.19023808691E+02  0.24998655155E+00 0.  0.
    1000022    2    1    0    0    0 -0.42556963637E+02 -0.28298030146E+02  0.34559749868E+02  0.62500000279E+02  0.10000002992E+02 0.  0.
    3000022    2    5    5    0    0 -0.24205104534E+02 -0.21784648523E+02  0.22234222537E+02  0.39431981364E+02  0.25001137808E+00 0.  0.
        -13    1    4    4    0    0  0.28394983375E+01  0.21843969996E+01 -0.38638920779E+01  0.52702018984E+01  0.10500000000E+00 0.  1.
         13    1    4    4    0    0  0.73181452817E+01  0.56563849703E+01 -0.10178444552E+02  0.13753606792E+02  0.10500000000E+00 0. -1.
    3000001    1    5    5    0    0 -0.18351859102E+02 -0.65133816230E+01  0.12325527331E+02  0.23068018915E+02  0.10000000000E+01 0. -1.
        -13    1    6    6    0    0 -0.15194348502E+02 -0.13747801286E+02  0.13959990075E+02  0.24794406920E+02  0.10500000000E+00 0.  1.
         13    1    6    6    0    0 -0.90107560320E+01 -0.80368472365E+01  0.82742324617E+01  0.14637574444E+02  0.10500000000E+00 0. -1.
</event>
<event>
11    0  0.3422856E-009  0.9118800E+02  0.7816531E-02  0.1126479E+00
         25   -1    0    0    0    0  0.00000000000E+00  0.00000000000E+00  0.99999998245E-14  0.12500000000E+03  0.12500000000E+03 0.  0.
    3000001    1    3    3    0    0 -0.48330697055E+02 -0.34252110337E+02 -0.31118629090E+01  0.59327455963E+02  0.10000000000E+01 0. -1.
    1000022    2    1    0    0    0 -0.49006885022E+02 -0.37340190168E+02 -0.32071750217E+01  0.62500005070E+02  0.10000004039E+02 0.  0.
    3000022    2    3    3    0    0 -0.67618796702E+00 -0.30880798313E+01 -0.95312112727E-01  0.31725491064E+01  0.25003244317E+00 0.  0.
    1000022    2    1    0    0    0  0.49006885022E+02  0.37340190168E+02  0.32071750217E+01  0.62499994930E+02  0.99999406676E+01 0.  0.
    3000022    2    5    5    0    0  0.74793177509E+01  0.79222034407E+01 -0.27820994085E+01  0.11247402852E+02  0.24998485465E+00 0.  0.
        -13    1    4    4    0    0 -0.44435316681E+00 -0.20513030534E+01 -0.91952059356E-02  0.21015240911E+01  0.10500000000E+00 0. -1.
         13    1    4    4    0    0 -0.23183480021E+00 -0.10367767779E+01 -0.86116906792E-01  0.10710250153E+01  0.10500000000E+00 0.  1.
    3000001    1    5    5    0    0  0.41527567271E+02  0.29417986727E+02  0.59892744302E+01  0.51252592078E+02  0.10000000000E+01 0. -1.
        -13    1    6    6    0    0  0.50564377324E+01  0.53802568679E+01 -0.18351426936E+01  0.76087778396E+01  0.10500000000E+00 0. -1.
         13    1    6    6    0    0  0.24228800185E+01  0.25419465728E+01 -0.94695671492E+00  0.36386250127E+01  0.10500000000E+00 0.  1.
</event>
<event>
11    0  0.3422856E-009  0.9118800E+02  0.7816531E-02  0.1126479E+00
         25   -1    0    0    0    0  0.00000000000E+00  0.00000000000E+00  0.99999998245E-14  0.12500000000E+03  0.12500000000E+03 0.  0.
    3000001    1    3    3    0    0  0.18325673826E+02 -0.10508166684E+02  0.21865408037E+02  0.30419532489E+02  0.10000000000E+01 0. -1.
    1000022    2    1    0    0    0  0.36982288523E+02 -0.29980299088E+02  0.39239545356E+02  0.62499999455E+02  0.10000000714E+02 0.  0.
    3000022    2    3    3    0    0  0.18656614697E+02 -0.19472132404E+02  0.17374137319E+02  0.32080466965E+02  0.25000164908E+00 0.  0.
    1000022    2    1    0    0    0 -0.36982288523E+02  0.29980299088E+02 -0.39239545356E+02  0.62500000545E+02  0.10000007530E+02 0.  0.
    3000022    2    5    5    0    0 -0.31542109895E+02  0.28432552897E+02 -0.31556936737E+02  0.52907631861E+02  0.24998414020E+00 0.  0.
        -13    1    4    4    0    0  0.13261369797E+02 -0.13807550990E+02  0.12376912348E+02  0.22797179157E+02  0.10500000000E+00 0.  1.
         13    1    4    4    0    0  0.53952448996E+01 -0.56645814146E+01  0.49972249709E+01  0.92832878087E+01  0.10500000000E+00 0. -1.
    3000001    1    5    5    0    0 -0.54401786280E+01  0.15477461910E+01 -0.76826086189E+01  0.95923686838E+01  0.10000000000E+01 0.  1.
        -13    1    6    6    0    0 -0.23188298026E+02  0.20939098471E+02 -0.23241479501E+02  0.38939958969E+02  0.10500000000E+00 0. -1.
         13    1    6    6    0    0 -0.83538118685E+01  0.74934544261E+01 -0.83154572365E+01  0.13967672892E+02  0.10500000000E+00 0.  1.
</event>
<event>
11    0  0.3422856E-009  0.9118800E+02  0.7816531E-02  0.1126479E+00
         25   -1    0    0    0    0  0.00000000000E+00  0.00000000000E+00  0.99999998245E-14  0.12500000000E+03  0.12500000000E+03 0.  0.
    3000001    1    3    3    0    0 -0.10751748047E+02 -0.20645651186E+02  0.27689686580E+02  0.36187867329E+02  0.10000000000E+01 0.  1.
    1000022    2    1    0    0    0 -0.24976894423E+02 -0.37087070132E+02  0.42508283357E+02  0.62500000680E+02  0.99999952508E+01 0.  0.
    3000022    2    3    3    0    0 -0.14225146376E+02 -0.16441418947E+02  0.14818596777E+02  0.26312133351E+02  0.25000925427E+00 0.  0.
    1000022    2    1    0    0    0  0.24976894423E+02  0.37087070132E+02 -0.42508283357E+02  0.62499999320E+02  0.99999867518E+01 0.  0.
    3000022    2    5    5    0    0  0.10666903440E+02  0.22567783309E+02 -0.19023789464E+02  0.31385581678E+02  0.24999843326E+00 0.  0.
        -13    1    4    4    0    0 -0.62200444202E+01 -0.71018463675E+01  0.64742547592E+01  0.11447802152E+02  0.10500000000E+00 0.  1.
         13    1    4    4    0    0 -0.80051019554E+01 -0.93395725793E+01  0.83443420179E+01  0.14864331199E+02  0.10500000000E+00 0. -1.
    3000001    1    5    5    0    0  0.14309990983E+02  0.14519286823E+02 -0.23484493893E+02  0.31114417642E+02  0.10000000000E+01 0. -1.
        -13    1    6    6    0    0  0.71721353944E+01  0.15286608060E+02 -0.12845279289E+02  0.21216317709E+02  0.10500000000E+00 0. -1.
         13    1    6    6    0    0  0.34947680453E+01  0.72811752494E+01 -0.61785101742E+01  0.10169263969E+02  0.10500000000E+00 0.  1.
</event>
<event>
11    0  0.3422856E-009  0.9118800E+02  0.7816531E-02  0.1126479E+00
         25   -1    0    0    0    0  0.00000000000E+00  0.00000000000E+00  0.99999998245E-14  0.12500000000E+03  0.12500000000E+03 0.  0.
    3000001    1    3    3    0    0 -0.43993687446E+01 -0.41195863121E+01  0.79111014239E+01  0.99955471322E+01  0.10000000000E+01 0. -1.
    1000022    2    1    0    0    0 -0.45012034042E+02 -0.18614918430E+02  0.37863591201E+02  0.62499998165E+02  0.99999917619E+01 0.  0.
    3000022    2    3    3    0    0 -0.40612665297E+02 -0.14495332118E+02  0.29952489777E+02  0.52504451033E+02  0.24999728030E+00 0.  0.
    1000022    2    1    0    0    0  0.45012034042E+02  0.18614918430E+02 -0.37863591201E+02  0.62500001835E+02  0.10000014699E+02 0.  0.
    3000022    2    5    5    0    0  0.25157592538E+02  0.83912631679E+01 -0.26222435900E+02  0.37296064224E+02  0.25000442888E+00 0.  0.
        -13    1    4    4    0    0 -0.99238352378E+01 -0.35190528922E+01  0.73058911494E+01  0.12816134736E+02  0.10500000000E+00 0.  1.
         13    1    4    4    0    0 -0.30688830060E+02 -0.10976279226E+02  0.22646598628E+02  0.39688316297E+02  0.10500000000E+00 0. -1.
    3000001    1    5    5    0    0  0.19854441504E+02  0.10223655262E+02 -0.11641155301E+02  0.25203937611E+02  0.10000000000E+01 0. -1.
        -13    1    6    6    0    0  0.79282405223E+01  0.26347184829E+01 -0.83297678487E+01  0.11798084450E+02  0.10500000000E+00 0. -1.
         13    1    6    6    0    0  0.17229352015E+02  0.57565446850E+01 -0.17892668051E+02  0.25497979774E+02  0.10500000000E+00 0.  1.
</event>
<event>
11    0  0.3422856E-009  0.9118800E+02  0.7816531E-02  0.1126479E+00
         25   -1    0    0    0    0  0.00000000000E+00  0.00000000000E+00  0.99999998245E-14  0.12500000000E+03  0.12500000000E+03 0.  0.
    3000001    1    3    3    0    0 -0.26628438185E+02 -0.28291118198E+02 -0.19682573780E+02  0.43564490123E+02  0.10000000000E+01 0. -1.
    1000022    2    1    0    0    0 -0.36112594649E+02 -0.44282196041E+02 -0.23264087572E+02  0.62500000038E+02  0.99999927848E+01 0.  0.
    3000022    2    3    3    0    0 -0.94841564645E+01 -0.15991077843E+02 -0.35815137917E+01  0.18935509915E+02  0.25000057789E+00 0.  0.
    1000022    2    1    0    0    0  0.36112594649E+02  0.44282196041E+02  0.23264087572E+02  0.62499999962E+02  0.99999923123E+01 0.  0.
    3000022    2    5    5    0    0  0.11708315162E+02  0.12282894042E+02  0.11710080586E+02  0.20618986804E+02  0.24999905565E+00 0.  0.
        -13    1    4    4    0    0 -0.31051955847E+01 -0.52955223497E+01 -0.11386845555E+01  0.62443914109E+01  0.10500000000E+00 0.  1.
         13    1    4    4    0    0 -0.63789608798E+01 -0.10695555493E+02 -0.24428292362E+01  0.12691118504E+02  0.10500000000E+00 0. -1.
    3000001    1    5    5    0    0  0.24404279487E+02  0.31999301999E+02  0.11554006985E+02  0.41881013158E+02  0.10000000000E+01 0. -1.
        -13    1    6    6    0    0  0.69022295352E+01  0.72991329319E+01  0.69923521500E+01  0.12240184954E+02  0.10500000000E+00 0. -1.
         13    1    6    6    0    0  0.48060856268E+01  0.49837611100E+01  0.47177284362E+01  0.83788018506E+01  0.10500000000E+00 0.  1.
</event>
<event>
11    0  0.3422856E-009  0.9118800E+02  0.7816531E-02  0.1126479E+00
         25   -1    0    0    0    0  0.00000000000E+00  0.00000000000E+00  0.99999998245E-14  0.12500000000E+03  0.12500000000E+03 0.  0.
    3000001    1    3    3    0    0  0.12604370773E+01  0.14635261976E+01 -0.11927843057E+02  0.12124522693E+02  0.10000000000E+01 0.  1.
    1000022    2    1    0    0    0  0.20867851412E+02  0.19431945804E+02 -0.54709982378E+02  0.62500000310E+02  0.10000006331E+02 0.  0.
    3000022    2    3    3    0    0  0.19607414335E+02  0.17968419606E+02 -0.42782139322E+02  0.50375477617E+02  0.25000022163E+00 0.  0.
    1000022    2    1    0    0    0 -0.20867851412E+02 -0.19431945804E+02  0.54709982378E+02  0.62499999690E+02  0.10000002455E+02 0.  0.
    3000022    2    5    5    0    0 -0.13162333738E+02 -0.11205746391E+02  0.22597633479E+02  0.28452263917E+02  0.25000310094E+00 0.  0.
        -13    1    4    4    0    0  0.14222689304E+02  0.13019865290E+02 -0.31086083456E+02  0.36580833682E+02  0.10500000000E+00 0. -1.
         13    1    4    4    0    0  0.53847250306E+01  0.49485543160E+01 -0.11696055866E+02  0.13794643935E+02  0.10500000000E+00 0.  1.
    3000001    1    5    5    0    0 -0.77055176744E+01 -0.82261994126E+01  0.32112348900E+02  0.34047735773E+02  0.10000000000E+01 0. -1.
        -13    1    6    6    0    0 -0.64156312640E+01 -0.54911461846E+01  0.11144770763E+02  0.13983202470E+02  0.10500000000E+00 0.  1.
         13    1    6    6    0    0 -0.67467024738E+01 -0.57146002067E+01  0.11452862715E+02  0.14469061447E+02  0.10500000000E+00 0. -1.
</event>
<event>
11    0  0.3422856E-009  0.9118800E+02  0.7816531E-02  0.1126479E+00
         25   -1    0    0    0    0  0.00000000000E+00  0.00000000000E+00  0.99999998245E-14  0.12500000000E+03  0.12500000000E+03 0.  0.
    3000001    1    3    3    0    0 -0.20590545731E+02 -0.86538378964E+01 -0.51305147683E+01  0.22938650039E+02  0.10000000000E+01 0. -1.
    1000022    2    1    0    0    0 -0.57148114677E+02 -0.23220135922E+02 -0.10803240927E+01  0.62499987580E+02  0.99999812009E+01 0.  0.
    3000022    2    3    3    0    0 -0.36557568946E+02 -0.14566298026E+02  0.40501906756E+01  0.39561337541E+02  0.24999622374E+00 0.  0.
    1000022    2    1    0    0    0  0.57148114677E+02  0.23220135922E+02  0.10803240927E+01  0.62500012420E+02  0.10000136449E+02 0.  0.
    3000022    2    5    5    0    0  0.38199788193E+02  0.10537181185E+02  0.17657781558E+01  0.39666566235E+02  0.24999815820E+00 0.  0.
        -13    1    4    4    0    0 -0.18560254344E+02 -0.74680812658E+01  0.20541463470E+01  0.20111832868E+02  0.10500000000E+00 0.  1.
         13    1    4    4    0    0 -0.17997314602E+02 -0.70982167599E+01  0.19960443286E+01  0.19449504673E+02  0.10500000000E+00 0. -1.
    3000001    1    5    5    0    0  0.18948326484E+02  0.12682954737E+02 -0.68545406314E+00  0.22833446185E+02  0.10000000000E+01 0.  1.
        -13    1    6    6    0    0  0.23854965560E+02  0.65633538126E+01  0.11605736730E+01  0.24768830239E+02  0.10500000000E+00 0. -1.
         13    1    6    6    0    0  0.14344822633E+02  0.39738273726E+01  0.60520448277E+00  0.14897735997E+02  0.10500000000E+00 0.  1.
</event>
<event>
11    0  0.3422856E-009  0.9118800E+02  0.7816531E-02  0.1126479E+00
         25   -1    0    0    0    0  0.00000000000E+00  0.00000000000E+00  0.99999998245E-14  0.12500000000E+03  0.12500000000E+03 0.  0.
    3000001    1    3    3    0    0  0.37209722397E+02  0.74661927106E+01 -0.17577632974E+02  0.41836355666E+02  0.10000000000E+01 0.  1.
    1000022    2    1    0    0    0  0.56294597651E+02  0.43635044791E+01 -0.24862179532E+02  0.62500001476E+02  0.10000015866E+02 0.  0.
    3000022    2    3    3    0    0  0.19084875255E+02 -0.31026882315E+01 -0.72845465585E+01  0.20663645810E+02  0.25000371405E+00 0.  0.
    1000022    2    1    0    0    0 -0.56294597651E+02 -0.43635044791E+01  0.24862179532E+02  0.62499998524E+02  0.99999974188E+01 0.  0.
    3000022    2    5    5    0    0 -0.47521895155E+02 -0.36625652660E+01  0.24603395942E+02  0.53638926704E+02  0.24992511508E+00 0.  0.
        -13    1    4    4    0    0  0.98796489942E+01 -0.16290534642E+01 -0.38405207842E+01  0.10724826541E+02  0.10500000000E+00 0. -1.
         13    1    4    4    0    0  0.92052262604E+01 -0.14736347673E+01 -0.34440257743E+01  0.99388192693E+01  0.10500000000E+00 0.  1.
    3000001    1    5    5    0    0 -0.87727024960E+01 -0.70093921311E+00  0.25878359036E+00  0.88610718207E+01  0.10000000000E+01 0. -1.
        -13    1    6    6    0    0 -0.32841326191E+02 -0.25307859181E+01  0.17056806592E+02  0.37093169984E+02  0.10500000000E+00 0.  1.
         13    1    6    6    0    0 -0.14680568964E+02 -0.11317793479E+01  0.75465893498E+01  0.16545756719E+02  0.10500000000E+00 0. -1.
</event>
<event>
11    0  0.3422856E-009  0.9118800E+02  0.7816531E-02  0.1126479E+00
         25   -1    0    0    0    0  0.00000000000E+00  0.00000000000E+00  0.99999998245E-14  0.12500000000E+03  0.12500000000E+03 0.  0.
    3000001    1    3    3    0    0  0.21969912254E+02  0.24375989989E+02  0.24283222401E+02  0.40835533822E+02  0.10000000000E+01 0. -1.
    1000022    2    1    0    0    0  0.33322394782E+02  0.41455206249E+02  0.31262341037E+02  0.62499999714E+02  0.99999938973E+01 0.  0.
    3000022    2    3    3    0    0  0.11352482528E+02  0.17079216260E+02  0.69791186364E+01  0.21664465892E+02  0.24999562931E+00 0.  0.
    1000022    2    1    0    0    0 -0.33322394782E+02 -0.41455206249E+02 -0.31262341037E+02  0.62500000286E+02  0.99999974713E+01 0.  0.
    3000022    2    5    5    0    0 -0.25727601461E+02 -0.37475888955E+02 -0.25507219143E+02  0.52125161505E+02  0.25000717144E+00 0.  0.
        -13    1    4    4    0    0  0.42756664875E+01  0.65178481311E+01  0.26933383456E+01  0.82479551778E+01  0.10500000000E+00 0.  1.
         13    1    4    4    0    0  0.70768160409E+01  0.10561368129E+02  0.42857802908E+01  0.13416510714E+02  0.10500000000E+00 0. -1.
    3000001    1    5    5    0    0 -0.75947933211E+01 -0.39793172944E+01 -0.57551218937E+01  0.10374838781E+02  0.10000000000E+01 0.  1.
        -13    1    6    6    0    0 -0.13043521851E+02 -0.18882420760E+02 -0.12893363853E+02  0.26323547111E+02  0.10500000000E+00 0.  1.
         13    1    6    6    0    0 -0.12684079610E+02 -0.18593468194E+02 -0.12613855291E+02  0.25801614394E+02  0.10500000000E+00 0. -1.
</event>
<event>
11    0  0.3422856E-009  0.9118800E+02  0.7816531E-02  0.1126479E+00
         25   -1    0    0    0    0  0.00000000000E+00  0.00000000000E+00  0.99999998245E-14  0.12500000000E+03  0.12500000000E+03 0.  0.
    3000001    1    3    3    0    0  0.25463387848E+00 -0.62193467130E+00 -0.58140447034E+00  0.13377863453E+01  0.10000000000E+01 0. -1.
    1000022    2    1    0    0    0  0.26063708797E+02  0.89777489388E+01 -0.55193597346E+02  0.62499999692E+02  0.99999940610E+01 0.  0.
    3000022    2    3    3    0    0  0.25809074918E+02  0.95996836101E+01 -0.54612192876E+02  0.61162213347E+02  0.24991437492E+00 0.  0.
    1000022    2    1    0    0    0 -0.26063708797E+02 -0.89777489388E+01  0.55193597346E+02  0.62500000308E+02  0.99999979126E+01 0.  0.
    3000022    2    5    5    0    0 -0.16069666795E+02 -0.48492510316E+01  0.43059847332E+02  0.46216473052E+02  0.25000522041E+00 0.  0.
        -13    1    4    4    0    0  0.16521478381E+02  0.60882138625E+01 -0.34970522902E+02  0.39153213060E+02  0.10500000000E+00 0. -1.
         13    1    4    4    0    0  0.92875965374E+01  0.35114697477E+01 -0.19641669974E+02  0.22009000286E+02  0.10500000000E+00 0.  1.
    3000001    1    5    5    0    0 -0.99940420020E+01 -0.41284979072E+01  0.12133750014E+02  0.16283527257E+02  0.10000000000E+01 0.  1.
        -13    1    6    6    0    0 -0.80732511889E+01 -0.24669357728E+01  0.21823864128E+02  0.23399898019E+02  0.10500000000E+00 0. -1.
         13    1    6    6    0    0 -0.79964156058E+01 -0.23823152589E+01  0.21235983205E+02  0.22816575032E+02  0.10500000000E+00 0.  1.
</event>
<event>
11    0  0.3422856E-009  0.9118800E+02  0.7816531E-02  0.1126479E+00
         25   -1    0    0    0    0  0.00000000000E+00  0.00000000000E+00  0.99999998245E-14  0.12500000000E+03  0.12500000000E+03 0.  0.
    3000001    1    3    3    0    0 -0.21155102062E+02 -0.98275493094E+01 -0.51002694433E+02  0.56092725982E+02  0.10000000000E+01 0. -1.
    1000022    2    1    0    0    0 -0.25673274446E+02 -0.12457500933E+02 -0.54698659003E+02  0.62500001584E+02  0.10000027546E+02 0.  0.
    3000022    2    3    3    0    0 -0.45181723833E+01 -0.26299516239E+01 -0.36959645709E+01  0.64072756018E+01  0.24999859828E+00 0.  0.
    1000022    2    1    0    0    0  0.25673274446E+02  0.12457500933E+02  0.54698659003E+02  0.62499998416E+02  0.10000007750E+02 0.  0.
    3000022    2    5    5    0    0  0.48979610068E+01 -0.15704712220E+01  0.92719503676E+01  0.10606034328E+02  0.24999734807E+00 0.  0.
        -13    1    4    4    0    0 -0.23439085156E+01 -0.13903434145E+01 -0.20045045656E+01  0.33846750942E+01  0.10500000000E+00 0.  1.
         13    1    4    4    0    0 -0.21742638677E+01 -0.12396082094E+01 -0.16914600052E+01  0.30226005076E+01  0.10500000000E+00 0. -1.
    3000001    1    5    5    0    0  0.20775313439E+02  0.14027972155E+02  0.45426708636E+02  0.51893964088E+02  0.10000000000E+01 0. -1.
        -13    1    6    6    0    0  0.26113853585E+01 -0.82056391875E+00  0.50682468263E+01  0.57611465463E+01  0.10500000000E+00 0. -1.
         13    1    6    6    0    0  0.22865756483E+01 -0.74990730327E+00  0.42037035413E+01  0.48448877822E+01  0.10500000000E+00 0.  1.
</event>
<event>
11    0  0.3422856E-009  0.9118800E+02  0.7816531E-02  0.1126479E+00
         25   -1    0    0    0    0  0.00000000000E+00  0.00000000000E+00  0.99999998245E-14  0.12500000000E+03  0.12500000000E+03 0.  0.
    3000001    1    3    3    0    0  0.28431608830E+01 -0.44597514836E+02  0.28890640534E+02  0.53223030766E+02  0.10000000000E+01 0. -1.
    1000022    2    1    0    0    0  0.43783428654E+01 -0.49432710041E+02  0.36653620381E+02  0.62500005075E+02  0.10000001955E+02 0.  0.
    3000022    2    3    3    0    0  0.15351819824E+01 -0.48351952045E+01  0.77629798472E+01  0.92769743097E+01  0.24999969983E+00 0.  0.
    1000022    2    1    0    0    0 -0.43783428654E+01  0.49432710041E+02 -0.36653620381E+02  0.62499994925E+02  0.99999385142E+01 0.  0.
    3000022    2    5    5    0    0 -0.75418155358E+01  0.34379982102E+02 -0.24878789093E+02  0.43103118124E+02  0.24998878637E+00 0.  0.
        -13    1    4    4    0    0  0.61339115819E+00 -0.20393469910E+01  0.31575448646E+01  0.38100261724E+01  0.10500000000E+00 0.  1.
         13    1    4    4    0    0  0.92179082421E+00 -0.27958482135E+01  0.46054349826E+01  0.54669481373E+01  0.10500000000E+00 0. -1.
    3000001    1    5    5    0    0  0.31634726704E+01  0.15052727939E+02 -0.11774831289E+02  0.19396876801E+02  0.10000000000E+01 0.  1.
        -13    1    6    6    0    0 -0.54090657363E+01  0.24487287222E+02 -0.17751231538E+02  0.30724623248E+02  0.10500000000E+00 0.  1.
         13    1    6    6    0    0 -0.21327497995E+01  0.98926948800E+01 -0.71275575549E+01  0.12378494876E+02  0.10500000000E+00 0. -1.
</event>
<event>
11    0  0.3422856E-009  0.9118800E+02  0.7816531E-02  0.1126479E+00
         25   -1    0    0    0    0  0.00000000000E+00  0.00000000000E+00  0.99999998245E-14  0.12500000000E+03  0.12500000000E+03 0.  0.
    3000001    1    3    3    0    0 -0.19816243280E+02 -0.53096329090E+02  0.11708492842E+02  0.57879119423E+02  0.10000000000E+01 0.  1.
    1000022    2    1    0    0    0 -0.23359734387E+02 -0.55500230968E+02  0.13427500165E+02  0.62500002987E+02  0.99999892260E+01 0.  0.
    3000022    2    3    3    0    0 -0.35434911064E+01 -0.24039018787E+01  0.17190073222E+01  0.46208835638E+01  0.25001054566E+00 0.  0.
    1000022    2    1    0    0    0  0.23359734387E+02  0.55500230968E+02 -0.13427500165E+02  0.62499997013E+02  0.99999518912E+01 0.  0.
    3000022    2    5    5    0    0  0.70905337244E+00  0.84518828737E+01 -0.41882534112E+01  0.94626131277E+01  0.24999954575E+00 0.  0.
        -13    1    4    4    0    0 -0.25070312990E+01 -0.16454709681E+01  0.12058445922E+01  0.32338625236E+01  0.10500000000E+00 0. -1.
         13    1    4    4    0    0 -0.10364598074E+01 -0.75843091062E+00  0.51316272998E+00  0.13870210402E+01  0.10500000000E+00 0.  1.
    3000001    1    5    5    0    0  0.22650681014E+02  0.47048348095E+02 -0.92392467533E+01  0.53037383886E+02  0.10000000000E+01 0.  1.
        -13    1    6    6    0    0  0.47055427097E+00  0.52631228871E+01 -0.26680546707E+01  0.59204243574E+01  0.10500000000E+00 0.  1.
         13    1    6    6    0    0  0.23849910147E+00  0.31887599866E+01 -0.15201987406E+01  0.35421887703E+01  0.10500000000E+00 0. -1.
</event>
<event>
11    0  0.3422856E-009  0.9118800E+02  0.7816531E-02  0.1126479E+00
         25   -1    0    0    0    0  0.00000000000E+00  0.00000000000E+00  0.99999998245E-14  0.12500000000E+03  0.12500000000E+03 0.  0.
    3000001    1    3    3    0    0 -0.38031409677E+02 -0.28381360873E+02 -0.61531412996E+01  0.47861789717E+02  0.10000000000E+01 0. -1.
    1000022    2    1    0    0    0 -0.47402550792E+02 -0.37275632886E+02 -0.13029794845E+02  0.62500000808E+02  0.99999959290E+01 0.  0.
    3000022    2    3    3    0    0 -0.93711411151E+01 -0.88942720131E+01 -0.68766535455E+01  0.14638211091E+02  0.24999903108E+00 0.  0.
    1000022    2    1    0    0    0  0.47402550792E+02  0.37275632886E+02  0.13029794845E+02  0.62499999192E+02  0.99999858343E+01 0.  0.
    3000022    2    5    5    0    0  0.25169651374E+02  0.17970996660E+02  0.11507709769E+02  0.32999362939E+02  0.24999807173E+00 0.  0.
        -13    1    4    4    0    0 -0.66500815674E+01 -0.62942579787E+01 -0.48260236501E+01  0.10350980515E+02  0.10500000000E+00 0. -1.
         13    1    4    4    0    0 -0.27210595477E+01 -0.26000140344E+01 -0.20506298955E+01  0.42872305757E+01  0.10500000000E+00 0.  1.
    3000001    1    5    5    0    0  0.22232899418E+02  0.19304636226E+02  0.15220850765E+01  0.29500636253E+02  0.10000000000E+01 0.  1.
        -13    1    6    6    0    0  0.13366103434E+02  0.96219146301E+01  0.61055705828E+01  0.17564822211E+02  0.10500000000E+00 0. -1.
         13    1    6    6    0    0  0.11803547940E+02  0.83490820295E+01  0.54021391858E+01  0.15434540728E+02  0.10500000000E+00 0.  1.
</event>
<event>
11    0  0.3422856E-009  0.9118800E+02  0.7816531E-02  0.1126479E+00
         25   -1    0    0    0    0  0.00000000000E+00  0.00000000000E+00  0.99999998245E-14  0.12500000000E+03  0.12500000000E+03 0.  0.
    3000001    1    3    3    0    0 -0.39954685227E+01 -0.17653863929E+02 -0.29855874056E+02  0.34928439644E+02  0.10000000000E+01 0. -1.
    1000022    2    1    0    0    0 -0.69859552426E+01 -0.38362412907E+02 -0.47809744591E+02  0.62500000288E+02  0.10000003172E+02 0.  0.
    3000022    2    3    3    0    0 -0.29904867199E+01 -0.20708548979E+02 -0.17953870535E+02  0.27571560644E+02  0.24995506352E+00 0.  0.
    1000022    2    1    0    0    0  0.69859552426E+01  0.38362412907E+02  0.47809744591E+02  0.62499999712E+02  0.99999995656E+01 0.  0.
    3000022    2    5    5    0    0  0.17677549987E+01  0.15167582237E+02  0.11629886878E+02  0.19196282922E+02  0.25000115224E+00 0.  0.
        -13    1    4    4    0    0 -0.19475768467E+01 -0.13208452633E+02 -0.11399766073E+02  0.17556251537E+02  0.10500000000E+00 0. -1.
         13    1    4    4    0    0 -0.10429098732E+01 -0.75000963462E+01 -0.65541044622E+01  0.10015309107E+02  0.10500000000E+00 0.  1.
    3000001    1    5    5    0    0  0.52182002439E+01  0.23194830670E+02  0.36179857714E+02  0.43303716789E+02  0.10000000000E+01 0. -1.
        -13    1    6    6    0    0  0.56964992445E+00  0.53158746611E+01  0.40378980340E+01  0.67006469823E+01  0.10500000000E+00 0. -1.
         13    1    6    6    0    0  0.11981050743E+01  0.98517075761E+01  0.75919888439E+01  0.12495635940E+02  0.10500000000E+00 0. -1.
</event>
<event>
11    0  0.3422856E-009  0.9118800E+02  0.7816531E-02  0.1126479E+00
         25   -1    0    0    0    0  0.00000000000E+00  0.00000000000E+00  0.99999998245E-14  0.12500000000E+03  0.12500000000E+03 0.  0.
    3000001    1    3    3    0    0 -0.46404982402E+02 -0.14852878963E+02  0.33144380242E+01  0.48846861769E+02  0.10000000000E+01 0.  1.
    1000022    2    1    0    0    0 -0.59156464365E+02 -0.17497326177E+02 -0.77852033990E+00  0.62500000715E+02  0.10000014800E+02 0.  0.
    3000022    2    3    3    0    0 -0.12751481962E+02 -0.26444472140E+01 -0.40929583641E+01  0.13653138946E+02  0.25000322296E+00 0.  0.
    1000022    2    1    0    0    0  0.59156464365E+02  0.17497326177E+02  0.77852033990E+00  0.62499999285E+02  0.10000005862E+02 0.  0.
    3000022    2    5    5    0    0  0.26148208476E+02  0.77924776843E+01  0.52644932942E+01  0.27789006870E+02  0.24999643694E+00 0.  0.
        -13    1    4    4    0    0 -0.45441314911E+01 -0.98305581714E+00 -0.15050596632E+01  0.48879197352E+01  0.10500000000E+00 0.  1.
         13    1    4    4    0    0 -0.82073504712E+01 -0.16613913969E+01 -0.25878987009E+01  0.87652192110E+01  0.10500000000E+00 0. -1.
    3000001    1    5    5    0    0  0.33008255889E+02  0.97048484923E+01 -0.44859729543E+01  0.34710992415E+02  0.10000000000E+01 0. -1.
        -13    1    6    6    0    0  0.14250349864E+02  0.41959563352E+01  0.28195251911E+01  0.15120822336E+02  0.10500000000E+00 0.  1.
         13    1    6    6    0    0  0.11897858611E+02  0.35965213491E+01  0.24449681031E+01  0.12668184533E+02  0.10500000000E+00 0. -1.
</event>
<event>
11    0  0.3422856E-009  0.9118800E+02  0.7816531E-02  0.1126479E+00
         25   -1    0    0    0    0  0.00000000000E+00  0.00000000000E+00  0.99999998245E-14  0.12500000000E+03  0.12500000000E+03 0.  0.
    3000001    1    3    3    0    0  0.53057635921E+01  0.15524205355E+02  0.36174996932E+02  0.39733895886E+02  0.10000000000E+01 0.  1.
    1000022    2    1    0    0    0  0.10726838166E+02  0.30181537931E+02  0.52728168967E+02  0.62499999050E+02  0.99999894846E+01 0.  0.
    3000022    2    3    3    0    0  0.54210745743E+01  0.14657332576E+02  0.16553172035E+02  0.22766103164E+02  0.25000216978E+00 0.  0.
    1000022    2    1    0    0    0 -0.10726838166E+02 -0.30181537931E+02 -0.52728168967E+02  0.62500000950E+02  0.10000001358E+02 0.  0.
    3000022    2    5    5    0    0 -0.10116589637E+02 -0.23574427197E+02 -0.47530921512E+02  0.54012498571E+02  0.24999704509E+00 0.  0.
        -13    1    4    4    0    0  0.26102939033E+01  0.70870990485E+01  0.79023644551E+01  0.10931559640E+02  0.10500000000E+00 0.  1.
         13    1    4    4    0    0  0.28107806710E+01  0.75702335280E+01  0.86508075796E+01  0.11834543524E+02  0.10500000000E+00 0. -1.
    3000001    1    5    5    0    0 -0.61024852951E+00 -0.66071107347E+01 -0.51972474550E+01  0.84875023792E+01  0.10000000000E+01 0.  1.
        -13    1    6    6    0    0 -0.58328279352E+01 -0.13502459104E+02 -0.27135936777E+02  0.30865974362E+02  0.10500000000E+00 0.  1.
         13    1    6    6    0    0 -0.42837617017E+01 -0.10071968092E+02 -0.20394984735E+02  0.23146524208E+02  0.10500000000E+00 0. -1.
</event>
<event>
11    0  0.3422856E-009  0.9118800E+02  0.7816531E-02  0.1126479E+00
         25   -1    0    0    0    0  0.00000000000E+00  0.00000000000E+00  0.99999998245E-14  0.12500000000E+03  0.12500000000E+03 0.  0.
    3000001    1    3    3    0    0 -0.78361197435E+01 -0.10942754373E+02 -0.16806156719E+02  0.21554478643E+02  0.10000000000E+01 0. -1.
    1000022    2    1    0    0    0 -0.94823101549E+01 -0.32363083174E+02 -0.51662041846E+02  0.62499999277E+02  0.99999991782E+01 0.  0.
    3000022    2    3    3    0    0 -0.16461904113E+01 -0.21420328801E+02 -0.34855885127E+02  0.40945520634E+02  0.25000644911E+00 0.  0.
    1000022    2    1    0    0    0  0.94823101549E+01  0.32363083174E+02  0.51662041846E+02  0.62500000723E+02  0.10000008211E+02 0.  0.
    3000022    2    5    5    0    0 -0.10888652517E+01  0.37989370752E+01  0.25768311119E+01  0.47244167390E+01  0.25000901336E+00 0.  0.
        -13    1    4    4    0    0 -0.75993608498E+00 -0.97475037308E+01 -0.15988841160E+02  0.18741542052E+02  0.10500000000E+00 0.  1.
         13    1    4    4    0    0 -0.88625432636E+00 -0.11672825070E+02 -0.18867043967E+02  0.22203978583E+02  0.10500000000E+00 0. -1.
    3000001    1    5    5    0    0  0.10571175407E+02  0.28564146099E+02  0.49085210734E+02  0.57775583984E+02  0.10000000000E+01 0.  1.
        -13    1    6    6    0    0 -0.65768374045E+00  0.20715661563E+01  0.14470274300E+01  0.26132063879E+01  0.10500000000E+00 0.  1.
         13    1    6    6    0    0 -0.43118151128E+00  0.17273709189E+01  0.11298036819E+01  0.21112103511E+01  0.10500000000E+00 0. -1.
</event>
<event>
11    0  0.3422856E-009  0.9118800E+02  0.7816531E-02  0.1126479E+00
         25   -1    0    0    0    0  0.00000000000E+00  0.00000000000E+00  0.99999998245E-14  0.12500000000E+03  0.12500000000E+03 0.  0.
    3000001    1    3    3    0    0  0.39894761508E+02  0.95192191706E+01 -0.30624618218E+02  0.51196433181E+02  0.10000000000E+01 0. -1.
    1000022    2    1    0    0    0  0.45221993906E+02  0.13733271228E+02 -0.39656254816E+02  0.62499999852E+02  0.99999982066E+01 0.  0.
    3000022    2    3    3    0    0  0.53272323971E+01  0.42140520574E+01 -0.90316365972E+01  0.11303566671E+02  0.25004022759E+00 0.  0.
    1000022    2    1    0    0    0 -0.45221993906E+02 -0.13733271228E+02  0.39656254816E+02  0.62500000148E+02  0.10000000051E+02 0.  0.
    3000022    2    5    5    0    0 -0.17538327092E+02 -0.22652175128E+01  0.99443220211E+01  0.20289804523E+02  0.24999912541E+00 0.  0.
        -13    1    4    4    0    0  0.30088185126E+01  0.23055500261E+01 -0.49868821052E+01  0.62648677477E+01  0.10500000000E+00 0.  1.
         13    1    4    4    0    0  0.23184138845E+01  0.19085020313E+01 -0.40447544920E+01  0.50386989237E+01  0.10500000000E+00 0. -1.
    3000001    1    5    5    0    0 -0.27683666814E+02 -0.11468053715E+02  0.29711932795E+02  0.42210195625E+02  0.10000000000E+01 0.  1.
        -13    1    6    6    0    0 -0.78625962163E+01 -0.10346540808E+01  0.43863907841E+01  0.90632432075E+01  0.10500000000E+00 0.  1.
         13    1    6    6    0    0 -0.96757308753E+01 -0.12305634320E+01  0.55579312370E+01  0.11226561315E+02  0.10500000000E+00 0.  1.
</event>
<event>
11    0  0.3422856E-009  0.9118800E+02  0.7816531E-02  0.1126479E+00
         25   -1    0    0    0    0  0.00000000000E+00  0.00000000000E+00  0.99999998245E-14  0.12500000000E+03  0.12500000000E+03 0.  0.
    3000001    1    3    3    0    0 -0.21086528351E+02  0.50373486610E+02  0.86759703465E+01  0.55302823550E+02  0.10000000000E+01 0. -1.
    1000022    2    1    0    0    0 -0.21410609386E+02  0.56514723596E+02  0.12406525503E+02  0.62500000702E+02  0.10000001764E+02 0.  0.
    3000022    2    3    3    0    0 -0.32408103514E+00  0.61412369858E+01  0.37305551566E+01  0.71971771519E+01  0.24999389161E+00 0.  0.
    1000022    2    1    0    0    0  0.21410609386E+02 -0.56514723596E+02 -0.12406525503E+02  0.62499999298E+02  0.99999929892E+01 0.  0.
    3000022    2    5    5    0    0 -0.10771323944E+01 -0.25338437588E+01 -0.73414356618E+00  0.28604283870E+01  0.25001078338E+00 0.  0.
        -13    1    4    4    0    0 -0.11213949140E+00  0.17554348704E+01  0.10251283966E+01  0.20386368189E+01  0.10500000000E+00 0. -1.
         13    1    4    4    0    0 -0.21194154374E+00  0.43858021154E+01  0.27054267600E+01  0.51585403330E+01  0.10500000000E+00 0.  1.
    3000001    1    5    5    0    0  0.22487741781E+02 -0.53980879837E+02 -0.11672381937E+02  0.59639570911E+02  0.10000000000E+01 0. -1.
        -13    1    6    6    0    0 -0.41559369816E+00 -0.11463194871E+01 -0.31847647727E+00  0.12646022122E+01  0.10500000000E+00 0.  1.
         13    1    6    6    0    0 -0.66153869626E+00 -0.13875242717E+01 -0.41566708892E+00  0.15958261748E+01  0.10500000000E+00 0. -1.
</event>
<event>
11    0  0.3422856E-009  0.9118800E+02  0.7816531E-02  0.1126479E+00
         25   -1    0    0    0    0  0.00000000000E+00  0.00000000000E+00  0.99999998245E-14  0.12500000000E+03  0.12500000000E+03 0.  0.
    3000001    1    3    3    0    0  0.58242668131E+01 -0.10244323321E+02 -0.91152729757E+01  0.14931726144E+02  0.10000000000E+01 0.  1.
    1000022    2    1    0    0    0  0.28435419601E+02 -0.28300530985E+02 -0.46869574224E+02  0.62499999426E+02  0.99999899202E+01 0.  0.
    3000022    2    3    3    0    0  0.22611152788E+02 -0.18056207665E+02 -0.37754301248E+02  0.47568273282E+02  0.24998940556E+00 0.  0.
    1000022    2    1    0    0    0 -0.28435419601E+02  0.28300530985E+02  0.46869574224E+02  0.62500000574E+02  0.99999970946E+01 0.  0.
    3000022    2    5    5    0    0 -0.13059808091E+01  0.60782243172E+01  0.60991012131E+01  0.87127452774E+01  0.24999587751E+00 0.  0.
        -13    1    4    4    0    0  0.10738186945E+02 -0.86605498308E+01 -0.18015691841E+02  0.22691186830E+02  0.10500000000E+00 0. -1.
         13    1    4    4    0    0  0.11872965843E+02 -0.93956578337E+01 -0.19738609407E+02  0.24877086452E+02  0.10500000000E+00 0.  1.
    3000001    1    5    5    0    0 -0.27129438792E+02  0.22222306668E+02  0.40770473011E+02  0.53787255297E+02  0.10000000000E+01 0. -1.
        -13    1    6    6    0    0 -0.57106224952E+00  0.29776136434E+01  0.29860512083E+01  0.42567384135E+01  0.10500000000E+00 0.  1.
         13    1    6    6    0    0 -0.73491855959E+00  0.31006106738E+01  0.31130500048E+01  0.44560068640E+01  0.10500000000E+00 0. -1.
</event>
<event>
11    0  0.3422856E-009  0.9118800E+02  0.7816531E-02  0.1126479E+00
         25   -1    0    0    0    0  0.00000000000E+00  0.00000000000E+00  0.99999998245E-14  0.12500000000E+03  0.12500000000E+03 0.  0.
    3000001    1    3    3    0    0  0.37630976300E+01 -0.13410602556E+02  0.27105325118E+02  0.30491044824E+02  0.10000000000E+01 0.  1.
    1000022    2    1    0    0    0  0.34768290738E+01 -0.35207496206E+02  0.50542991671E+02  0.62500000389E+02  0.99999956056E+01 0.  0.
    3000022    2    3    3    0    0 -0.28626855613E+00 -0.21796893649E+02  0.23437666552E+02  0.32008955565E+02  0.25000096280E+00 0.  0.
    1000022    2    1    0    0    0 -0.34768290738E+01  0.35207496206E+02 -0.50542991671E+02  0.62499999611E+02  0.99999907452E+01 0.  0.
    3000022    2    5    5    0    0 -0.45062986013E+01  0.79076400977E+01 -0.92629020449E+01  0.12988508515E+02  0.25000032447E+00 0.  0.
        -13    1    4    4    0    0 -0.21326918233E+00 -0.14735436071E+02  0.15774377622E+02  0.21587509683E+02  0.10500000000E+00 0.  1.
         13    1    4    4    0    0 -0.72999373796E-01 -0.70614575779E+01  0.76632889300E+01  0.10421445881E+02  0.10500000000E+00 0. -1.
    3000001    1    5    5    0    0  0.10294695274E+01  0.27299856108E+02 -0.41280089626E+02  0.49511491096E+02  0.10000000000E+01 0.  1.
        -13    1    6    6    0    0 -0.19415310605E+01  0.35379691911E+01 -0.41270007893E+01  0.57732078926E+01  0.10500000000E+00 0.  1.
         13    1    6    6    0    0 -0.25647675408E+01  0.43696709066E+01 -0.51359012556E+01  0.72153006228E+01  0.10500000000E+00 0. -1.
</event>
<event>
11    0  0.3422856E-009  0.9118800E+02  0.7816531E-02  0.1126479E+00
         25   -1    0    0    0    0  0.00000000000E+00  0.00000000000E+00  0.99999998245E-14  0.12500000000E+03  0.12500000000E+03 0.  0.
    3000001    1    3    3    0    0 -0.23521470198E+02 -0.18397828619E+02  0.44297604462E+02  0.53432363033E+02  0.10000000000E+01 0.  1.
    1000022    2    1    0    0    0 -0.24057603028E+02 -0.23693735863E+02  0.51634184859E+02  0.62499996996E+02  0.99999597890E+01 0.  0.
    3000022    2    3    3    0    0 -0.53613282932E+00 -0.52959072440E+01  0.73365803970E+01  0.90676339626E+01  0.25000362185E+00 0.  0.
    1000022    2    1    0    0    0  0.24057603028E+02  0.23693735863E+02 -0.51634184859E+02  0.62500003004E+02  0.99999973448E+01 0.  0.
    3000022    2    5    5    0    0  0.13405460235E+02  0.63475295318E+01 -0.21502443808E+02  0.26123075716E+02  0.24999977601E+00 0.  0.
        -13    1    4    4    0    0 -0.26705394907E+00 -0.29281571429E+01  0.39497968920E+01  0.49251743678E+01  0.10500000000E+00 0. -1.
         13    1    4    4    0    0 -0.26907888025E+00 -0.23677501011E+01  0.33867835049E+01  0.41424595948E+01  0.10500000000E+00 0.  1.
    3000001    1    5    5    0    0  0.10652142793E+02  0.17346206331E+02 -0.30131741051E+02  0.36376927289E+02  0.10000000000E+01 0.  1.
        -13    1    6    6    0    0  0.49749954983E+01  0.24116715192E+01 -0.79590138145E+01  0.96914222705E+01  0.10500000000E+00 0. -1.
         13    1    6    6    0    0  0.84304647365E+01  0.39358580125E+01 -0.13543429993E+02  0.16431653445E+02  0.10500000000E+00 0.  1.
</event>
<event>
11    0  0.3422856E-009  0.9118800E+02  0.7816531E-02  0.1126479E+00
         25   -1    0    0    0    0  0.00000000000E+00  0.00000000000E+00  0.99999998245E-14  0.12500000000E+03  0.12500000000E+03 0.  0.
    3000001    1    3    3    0    0  0.30476774257E+02  0.35672817024E+02 -0.24949469649E+02  0.53149409021E+02  0.10000000000E+01 0.  1.
    1000022    2    1    0    0    0  0.36017405736E+02  0.43189105974E+02 -0.25371196471E+02  0.62499999995E+02  0.99999999062E+01 0.  0.
    3000022    2    3    3    0    0  0.55406314798E+01  0.75162889503E+01 -0.42172682128E+00  0.93505909733E+01  0.25000252001E+00 0.  0.
    1000022    2    1    0    0    0 -0.36017405736E+02 -0.43189105974E+02  0.25371196471E+02  0.62500000005E+02  0.99999999736E+01 0.  0.
    3000022    2    5    5    0    0 -0.24086585221E+02 -0.25380892928E+02  0.20286898917E+02  0.40447176792E+02  0.25005862388E+00 0.  0.
        -13    1    4    4    0    0  0.37004227021E+01  0.50548546327E+01 -0.33136756513E+00  0.62741942108E+01  0.10500000000E+00 0. -1.
         13    1    4    4    0    0  0.18402087776E+01  0.24614343176E+01 -0.90359256152E-01  0.30763967625E+01  0.10500000000E+00 0.  1.
    3000001    1    5    5    0    0 -0.11930820515E+02 -0.17808213047E+02  0.50842975533E+01  0.22052823213E+02  0.10000000000E+01 0.  1.
        -13    1    6    6    0    0 -0.11889889746E+02 -0.12484386796E+02  0.10065594461E+02  0.19963882605E+02  0.10500000000E+00 0. -1.
         13    1    6    6    0    0 -0.12196695476E+02 -0.12896506132E+02  0.10221304456E+02  0.20483294187E+02  0.10500000000E+00 0.  1.
</event>
<event>
11    0  0.3422856E-009  0.9118800E+02  0.7816531E-02  0.1126479E+00
         25   -1    0    0    0    0  0.00000000000E+00  0.00000000000E+00  0.99999998245E-14  0.12500000000E+03  0.12500000000E+03 0.  0.
    3000001    1    3    3    0    0 -0.20987305248E+02  0.23890517770E+02  0.78147310277E+01  0.32761163622E+02  0.10000000000E+01 0. -1.
    1000022    2    1    0    0    0 -0.43879689323E+02  0.38544080155E+02  0.19879039650E+02  0.62499996597E+02  0.10000005359E+02 0.  0.
    3000022    2    3    3    0    0 -0.22892384075E+02  0.14653562386E+02  0.12064308622E+02  0.29738832975E+02  0.25000989592E+00 0.  0.
    1000022    2    1    0    0    0  0.43879689323E+02 -0.38544080155E+02 -0.19879039650E+02  0.62500003403E+02  0.10000047892E+02 0.  0.
    3000022    2    5    5    0    0 -0.79400436428E-01  0.35657269723E+00 -0.51855445228E+00  0.68179611787E+00  0.24999741728E+00 0.  0.
        -13    1    4    4    0    0 -0.13887793888E+02  0.88203941869E+01  0.72776216683E+01  0.17990135486E+02  0.10500000000E+00 0. -1.
         13    1    4    4    0    0 -0.90045901877E+01  0.58331681990E+01  0.47866869535E+01  0.11748697489E+02  0.10500000000E+00 0.  1.
    3000001    1    5    5    0    0  0.43959089759E+02 -0.38900652853E+02 -0.19360485197E+02  0.61818207285E+02  0.10000000000E+01 0. -1.
        -13    1    6    6    0    0 -0.10144700625E+00  0.22187704377E+00 -0.26418766126E+00  0.37462119267E+00  0.10500000000E+00 0. -1.
         13    1    6    6    0    0  0.22046569825E-01  0.13469565345E+00 -0.25436679102E+00  0.30717492520E+00  0.10500000000E+00 0.  1.
</event>
<event>
11    0  0.3422856E-009  0.9118800E+02  0.7816531E-02  0.1126479E+00
         25   -1    0    0    0    0  0.00000000000E+00  0.00000000000E+00  0.99999998245E-14  0.12500000000E+03  0.12500000000E+03 0.  0.
    3000001    1    3    3    0    0 -0.17704253774E+02 -0.11116369443E+02 -0.39423955669E+02  0.44634768420E+02  0.10000000000E+01 0.  1.
    1000022    2    1    0    0    0 -0.26777420322E+02 -0.96315764906E+01 -0.54739861766E+02  0.62499998341E+02  0.99999910794E+01 0.  0.
    3000022    2    3    3    0    0 -0.90731665480E+01  0.14847929522E+01 -0.15315906097E+02  0.17865229921E+02  0.24999845957E+00 0.  0.
    1000022    2    1    0    0    0  0.26777420322E+02  0.96315764906E+01  0.54739861766E+02  0.62500001659E+02  0.10000011823E+02 0.  0.
    3000022    2    5    5    0    0  0.18440315742E+02  0.21523538529E+01  0.38547293707E+02  0.42785911663E+02  0.25002583510E+00 0.  0.
        -13    1    4    4    0    0 -0.45463806057E+01  0.72446947827E+00 -0.77955372265E+01  0.90540520369E+01  0.10500000000E+00 0. -1.
         13    1    4    4    0    0 -0.45267859423E+01  0.76032347391E+00 -0.75203688704E+01  0.88111778837E+01  0.10500000000E+00 0.  1.
    3000001    1    5    5    0    0  0.83371045805E+01  0.74792226377E+01  0.16192568059E+02  0.19714089997E+02  0.10000000000E+01 0. -1.
        -13    1    6    6    0    0  0.10672995603E+02  0.12755172962E+01  0.22450408884E+02  0.24891196508E+02  0.10500000000E+00 0. -1.
         13    1    6    6    0    0  0.77673201385E+01  0.87683655676E+00  0.16096884823E+02  0.17894715155E+02  0.10500000000E+00 0.  1.
</event>
<event>
11    0  0.3422856E-009  0.9118800E+02  0.7816531E-02  0.1126479E+00
         25   -1    0    0    0    0  0.00000000000E+00  0.00000000000E+00  0.99999998245E-14  0.12500000000E+03  0.12500000000E+03 0.  0.
    3000001    1    3    3    0    0  0.24469259465E+02  0.57928274413E+01  0.38177009650E+01  0.25453415275E+02  0.10000000000E+01 0.  1.
    1000022    2    1    0    0    0  0.58058878311E+02  0.79510828302E+01  0.19292406561E+02  0.62500001830E+02  0.10000010449E+02 0.  0.
    3000022    2    3    3    0    0  0.33589618846E+02  0.21582553889E+01  0.15474705596E+02  0.37046586555E+02  0.25000308830E+00 0.  0.
    1000022    2    1    0    0    0 -0.58058878311E+02 -0.79510828302E+01 -0.19292406561E+02  0.62499998170E+02  0.99999875687E+01 0.  0.
    3000022    2    5    5    0    0 -0.84728889601E+01  0.23433778607E+01 -0.28004915321E+01  0.92296544299E+01  0.25000189085E+00 0.  0.
        -13    1    4    4    0    0  0.15117601149E+02  0.95261225967E+00  0.68937298069E+01  0.16642832399E+02  0.10500000000E+00 0. -1.
         13    1    4    4    0    0  0.18472017698E+02  0.12056431293E+01  0.85809757887E+01  0.20403754156E+02  0.10500000000E+00 0.  1.
    3000001    1    5    5    0    0 -0.49585989351E+02 -0.10294460691E+02 -0.16491915029E+02  0.53270343740E+02  0.10000000000E+01 0. -1.
        -13    1    6    6    0    0 -0.61759318065E+01  0.17454377488E+01 -0.20432049889E+01  0.67360521257E+01  0.10500000000E+00 0.  1.
         13    1    6    6    0    0 -0.22969571536E+01  0.59794011181E+00 -0.75728654319E+00  0.24936023042E+01  0.10500000000E+00 0. -1.
</event>
<event>
11    0  0.3422856E-009  0.9118800E+02  0.7816531E-02  0.1126479E+00
         25   -1    0    0    0    0  0.00000000000E+00  0.00000000000E+00  0.99999998245E-14  0.12500000000E+03  0.12500000000E+03 0.  0.
    3000001    1    3    3    0    0  0.15108966183E+02 -0.72128718268E+01 -0.30962436634E+01  0.17055588642E+02  0.10000000000E+01 0.  1.
    1000022    2    1    0    0    0  0.57084035758E+02 -0.12807767520E+02 -0.19586321992E+02  0.62499999781E+02  0.99999958090E+01 0.  0.
    3000022    2    3    3    0    0  0.41975069576E+02 -0.55948956928E+01 -0.16490078328E+02  0.45444411139E+02  0.24999363488E+00 0.  0.
    1000022    2    1    0    0    0 -0.57084035758E+02  0.12807767520E+02  0.19586321992E+02  0.62500000219E+02  0.99999985475E+01 0.  0.
    3000022    2    5    5    0    0 -0.15186226593E+02  0.71295422036E+01  0.83438823230E+01  0.18738589076E+02  0.24999631029E+00 0.  0.
        -13    1    4    4    0    0  0.25779016956E+02 -0.34865612272E+01 -0.10168340972E+02  0.27930628484E+02  0.10500000000E+00 0. -1.
         13    1    4    4    0    0  0.16196052620E+02 -0.21083344656E+01 -0.63217373563E+01  0.17513782655E+02  0.10500000000E+00 0.  1.
    3000001    1    5    5    0    0 -0.41897809165E+02  0.56782253161E+01  0.11242439669E+02  0.43761411143E+02  0.10000000000E+01 0.  1.
        -13    1    6    6    0    0 -0.91597493283E+01  0.42551504994E+01  0.49696411029E+01  0.11256805551E+02  0.10500000000E+00 0.  1.
         13    1    6    6    0    0 -0.60264772651E+01  0.28743917042E+01  0.33742412201E+01  0.74817835245E+01  0.10500000000E+00 0. -1.
</event>
<event>
11    0  0.3422856E-009  0.9118800E+02  0.7816531E-02  0.1126479E+00
         25   -1    0    0    0    0  0.00000000000E+00  0.00000000000E+00  0.99999998245E-14  0.12500000000E+03  0.12500000000E+03 0.  0.
    3000001    1    3    3    0    0 -0.20815547142E+02 -0.65944853420E+01  0.28841845450E+02  0.36188759148E+02  0.10000000000E+01 0.  1.
    1000022    2    1    0    0    0 -0.35965749545E+02 -0.19092877317E+02  0.46348429158E+02  0.62500000114E+02  0.10000001209E+02 0.  0.
    3000022    2    3    3    0    0 -0.15150202404E+02 -0.12498391975E+02  0.17506583709E+02  0.26311240966E+02  0.24998635331E+00 0.  0.
    1000022    2    1    0    0    0  0.35965749545E+02  0.19092877317E+02 -0.46348429158E+02  0.62499999886E+02  0.99999997851E+01 0.  0.
    3000022    2    5    5    0    0  0.83649773865E+01  0.14985709891E+01 -0.14566709746E+02  0.16866241244E+02  0.24999843473E+00 0.  0.
        -13    1    4    4    0    0 -0.71234884835E+01 -0.58293744958E+01  0.82805932571E+01  0.12381637407E+02  0.10500000000E+00 0. -1.
         13    1    4    4    0    0 -0.80267139202E+01 -0.66690174794E+01  0.92259904517E+01  0.13929603559E+02  0.10500000000E+00 0.  1.
    3000001    1    5    5    0    0  0.27600772159E+02  0.17594306328E+02 -0.31781719413E+02  0.45633758642E+02  0.10000000000E+01 0.  1.
        -13    1    6    6    0    0  0.26359335350E+01  0.52217481602E+00 -0.46243896236E+01  0.53494688082E+01  0.10500000000E+00 0.  1.
         13    1    6    6    0    0  0.57290438515E+01  0.97639617313E+00 -0.99423201220E+01  0.11516772436E+02  0.10500000000E+00 0. -1.
</event>
<event>
11    0  0.3422856E-009  0.9118800E+02  0.7816531E-02  0.1126479E+00
         25   -1    0    0    0    0  0.00000000000E+00  0.00000000000E+00  0.99999998245E-14  0.12500000000E+03  0.12500000000E+03 0.  0.
    3000001    1    3    3    0    0  0.38727505244E+02 -0.43918004688E+01 -0.27334794613E+02  0.47616158710E+02  0.10000000000E+01 0.  1.
    1000022    2    1    0    0    0  0.52928268794E+02 -0.70470445548E+01 -0.30906108482E+02  0.62500001698E+02  0.10000009814E+02 0.  0.
    3000022    2    3    3    0    0  0.14200763550E+02 -0.26552440860E+01 -0.35713138689E+01  0.14883842988E+02  0.24998555267E+00 0.  0.
    1000022    2    1    0    0    0 -0.52928268794E+02  0.70470445548E+01  0.30906108482E+02  0.62499998302E+02  0.99999885916E+01 0.  0.
    3000022    2    5    5    0    0 -0.13914028790E+02  0.52202723685E+01  0.52673748468E+01  0.15768930669E+02  0.24999182720E+00 0.  0.
        -13    1    4    4    0    0  0.32892612168E+01 -0.61080962595E+00 -0.81811511874E+00  0.34456733884E+01  0.10500000000E+00 0. -1.
         13    1    4    4    0    0  0.10911502333E+02 -0.20444344600E+01 -0.27531987501E+01  0.11438169600E+02  0.10500000000E+00 0.  1.
    3000001    1    5    5    0    0 -0.39014240004E+02  0.18267721863E+01  0.25638733635E+02  0.46731067633E+02  0.10000000000E+01 0. -1.
        -13    1    6    6    0    0 -0.56142383634E+01  0.20553654489E+01  0.20751101759E+01  0.63294001905E+01  0.10500000000E+00 0. -1.
         13    1    6    6    0    0 -0.82997904262E+01  0.31649069196E+01  0.31922646709E+01  0.94395304787E+01  0.10500000000E+00 0.  1.
</event>
<event>
11    0  0.3422856E-009  0.9118800E+02  0.7816531E-02  0.1126479E+00
         25   -1    0    0    0    0  0.00000000000E+00  0.00000000000E+00  0.99999998245E-14  0.12500000000E+03  0.12500000000E+03 0.  0.
    3000001    1    3    3    0    0 -0.30783946695E+01 -0.64938708495E+01  0.35419482252E+02  0.36155035546E+02  0.10000000000E+01 0. -1.
    1000022    2    1    0    0    0 -0.13214871595E+01 -0.37835680186E+01  0.61564505006E+02  0.62500000572E+02  0.10000003981E+02 0.  0.
    3000022    2    3    3    0    0  0.17569075100E+01  0.27103028309E+01  0.26145022755E+02  0.26344965027E+02  0.25000395324E+00 0.  0.
    1000022    2    1    0    0    0  0.13214871595E+01  0.37835680186E+01 -0.61564505006E+02  0.62499999428E+02  0.99999968273E+01 0.  0.
    3000022    2    5    5    0    0 -0.36146966927E+01  0.35443728906E+01 -0.41642207951E+02  0.41949548210E+02  0.25000109654E+00 0.  0.
        -13    1    4    4    0    0  0.74344386022E+00  0.10646457773E+01  0.10883864888E+02  0.10961556427E+02  0.10500000000E+00 0.  1.
         13    1    4    4    0    0  0.10134636498E+01  0.16456570536E+01  0.15261157867E+02  0.15383408600E+02  0.10500000000E+00 0. -1.
    3000001    1    5    5    0    0  0.49361838522E+01  0.23919512799E+00 -0.19922297055E+02  0.20550451218E+02  0.10000000000E+01 0.  1.
        -13    1    6    6    0    0 -0.20945066980E+01  0.20109047935E+01 -0.24352372239E+02  0.24525084201E+02  0.10500000000E+00 0.  1.
         13    1    6    6    0    0 -0.15201899947E+01  0.15334680972E+01 -0.17289835713E+02  0.17424464009E+02  0.10500000000E+00 0. -1.
</event>
<event>
11    0  0.3422856E-009  0.9118800E+02  0.7816531E-02  0.1126479E+00
         25   -1    0    0    0    0  0.00000000000E+00  0.00000000000E+00  0.99999998245E-14  0.12500000000E+03  0.12500000000E+03 0.  0.
    3000001    1    3    3    0    0 -0.25375794573E+01 -0.12512614418E+02 -0.12721834294E+02  0.18051312886E+02  0.10000000000E+01 0.  1.
    1000022    2    1    0    0    0 -0.19498042360E+02 -0.47729140801E+02 -0.33882231682E+02  0.62500001811E+02  0.10000003254E+02 0.  0.
    3000022    2    3    3    0    0 -0.16960462903E+02 -0.35216526383E+02 -0.21160397388E+02  0.44448688925E+02  0.24999438089E+00 0.  0.
    1000022    2    1    0    0    0  0.19498042360E+02  0.47729140801E+02  0.33882231682E+02  0.62499998189E+02  0.99999806193E+01 0.  0.
    3000022    2    5    5    0    0  0.92300716179E+01  0.33622946778E+02  0.24938241374E+02  0.42868113521E+02  0.25000386547E+00 0.  0.
        -13    1    4    4    0    0 -0.45480827512E+01 -0.93904289491E+01 -0.56191133571E+01  0.11851188653E+02  0.10500000000E+00 0.  1.
         13    1    4    4    0    0 -0.12412380152E+02 -0.25826097434E+02 -0.15541284030E+02  0.32597500272E+02  0.10500000000E+00 0. -1.
    3000001    1    5    5    0    0  0.10267970742E+02  0.14106194023E+02  0.89439903081E+01  0.19631884668E+02  0.10000000000E+01 0. -1.
        -13    1    6    6    0    0  0.26599334373E+01  0.98424773317E+01  0.72724090602E+01  0.12523919692E+02  0.10500000000E+00 0.  1.
         13    1    6    6    0    0  0.65701381806E+01  0.23780469446E+02  0.17665832314E+02  0.30344193829E+02  0.10500000000E+00 0. -1.
</event>
<event>
11    0  0.3422856E-009  0.9118800E+02  0.7816531E-02  0.1126479E+00
         25   -1    0    0    0    0  0.00000000000E+00  0.00000000000E+00  0.99999998245E-14  0.12500000000E+03  0.12500000000E+03 0.  0.
    3000001    1    3    3    0    0 -0.17824635823E+02 -0.11609913967E+02  0.18074931974E+02  0.27932255734E+02  0.10000000000E+01 0.  1.
    1000022    2    1    0    0    0 -0.30693558552E+02 -0.26589985036E+02  0.46444892394E+02  0.62499998741E+02  0.99999986172E+01 0.  0.
    3000022    2    3    3    0    0 -0.12868922729E+02 -0.14980071069E+02  0.28369960420E+02  0.34567743007E+02  0.25000181356E+00 0.  0.
    1000022    2    1    0    0    0  0.30693558552E+02  0.26589985036E+02 -0.46444892394E+02  0.62500001259E+02  0.10000014349E+02 0.  0.
    3000022    2    5    5    0    0  0.54977620368E+01  0.22189040568E+01 -0.11781589392E+02  0.13191560549E+02  0.24999700146E+00 0.  0.
        -13    1    4    4    0    0 -0.87625464619E+01 -0.10248947172E+02  0.19302063228E+02  0.23545781118E+02  0.10500000000E+00 0. -1.
         13    1    4    4    0    0 -0.41063762673E+01 -0.47311238966E+01  0.90678971928E+01  0.11021961889E+02  0.10500000000E+00 0.  1.
    3000001    1    5    5    0    0  0.25195796516E+02  0.24371080979E+02 -0.34663303003E+02  0.49308440710E+02  0.10000000000E+01 0.  1.
        -13    1    6    6    0    0  0.40076797524E+01  0.16068800355E+01 -0.84970687641E+01  0.95317764885E+01  0.10500000000E+00 0. -1.
         13    1    6    6    0    0  0.14900822844E+01  0.61202402127E+00 -0.32845206275E+01  0.36597840605E+01  0.10500000000E+00 0.  1.
</event>
<event>
11    0  0.3422856E-009  0.9118800E+02  0.7816531E-02  0.1126479E+00
         25   -1    0    0    0    0  0.00000000000E+00  0.00000000000E+00  0.99999998245E-14  0.12500000000E+03  0.12500000000E+03 0.  0.
    3000001    1    3    3    0    0  0.29768514897E+02 -0.44491722506E+02 -0.46902740068E+01  0.53746409377E+02  0.10000000000E+01 0.  1.
    1000022    2    1    0    0    0  0.37094894173E+02 -0.49161780111E+02 -0.36522086160E+01  0.62500000077E+02  0.99999792211E+01 0.  0.
    3000022    2    3    3    0    0  0.73263792761E+01 -0.46700576054E+01  0.10380653908E+01  0.87535906995E+01  0.24999808813E+00 0.  0.
    1000022    2    1    0    0    0 -0.37094894173E+02  0.49161780111E+02  0.36522086160E+01  0.62499999923E+02  0.99999782636E+01 0.  0.
    3000022    2    5    5    0    0 -0.28627404636E+02  0.38375637925E+02  0.69001244974E+01  0.48372431135E+02  0.24998687314E+00 0.  0.
        -13    1    4    4    0    0  0.37268957868E+01 -0.23489096522E+01  0.46193921378E+00  0.44307495526E+01  0.10500000000E+00 0.  1.
         13    1    4    4    0    0  0.35994834893E+01 -0.23211479532E+01  0.57612617697E+00  0.43228411470E+01  0.10500000000E+00 0. -1.
    3000001    1    5    5    0    0 -0.84674895364E+01  0.10786142186E+02 -0.32479158814E+01  0.14127568789E+02  0.10000000000E+01 0. -1.
        -13    1    6    6    0    0 -0.13591136600E+02  0.18324382609E+02  0.33129838842E+01  0.23054042581E+02  0.10500000000E+00 0. -1.
         13    1    6    6    0    0 -0.15036268036E+02  0.20051255316E+02  0.35871406132E+01  0.25318388554E+02  0.10500000000E+00 0.  1.
</event>
<event>
11    0  0.3422856E-009  0.9118800E+02  0.7816531E-02  0.1126479E+00
         25   -1    0    0    0    0  0.00000000000E+00  0.00000000000E+00  0.99999998245E-14  0.12500000000E+03  0.12500000000E+03 0.  0.
    3000001    1    3    3    0    0  0.23454637134E+02 -0.49922813804E+01 -0.26760270715E+02  0.35946557071E+02  0.10000000000E+01 0.  1.
    1000022    2    1    0    0    0  0.33749086384E+02 -0.11620979789E+02 -0.50320990206E+02  0.62500000048E+02  0.99999973841E+01 0.  0.
    3000022    2    3    3    0    0  0.10294449250E+02 -0.66286984081E+01 -0.23560719491E+02  0.26553442978E+02  0.25000617068E+00 0.  0.
    1000022    2    1    0    0    0 -0.33749086384E+02  0.11620979789E+02  0.50320990206E+02  0.62499999952E+02  0.99999967813E+01 0.  0.
    3000022    2    5    5    0    0 -0.23980610312E+02  0.63474927430E+01  0.41224565614E+02  0.48113279313E+02  0.25000217332E+00 0.  0.
        -13    1    4    4    0    0  0.53115383903E+01 -0.34114125786E+01 -0.12293123855E+02  0.13819627164E+02  0.10500000000E+00 0.  1.
         13    1    4    4    0    0  0.49829108594E+01 -0.32172858295E+01 -0.11267595636E+02  0.12733815813E+02  0.10500000000E+00 0. -1.
    3000001    1    5    5    0    0 -0.97684760714E+01  0.52734870455E+01  0.90964245921E+01  0.14386720639E+02  0.10000000000E+01 0.  1.
        -13    1    6    6    0    0 -0.64372419023E+01  0.16827874099E+01  0.11002361914E+02  0.12858182199E+02  0.10500000000E+00 0.  1.
         13    1    6    6    0    0 -0.17543368410E+02  0.46647053331E+01  0.30222203700E+02  0.35255097114E+02  0.10500000000E+00 0. -1.
</event>
<event>
11    0  0.3422856E-009  0.9118800E+02  0.7816531E-02  0.1126479E+00
         25   -1    0    0    0    0  0.00000000000E+00  0.00000000000E+00  0.99999998245E-14  0.12500000000E+03  0.12500000000E+03 0.  0.
    3000001    1    3    3    0    0 -0.37822707562E+02 -0.47598351503E+00 -0.85084991653E+01  0.38783737902E+02  0.10000000000E+01 0. -1.
    1000022    2    1    0    0    0 -0.58059777963E+02 -0.30215525671E-01 -0.20864108942E+02  0.62500004709E+02  0.10000040830E+02 0.  0.
    3000022    2    3    3    0    0 -0.20237070401E+02  0.44576798936E+00 -0.12355609776E+02  0.23716266807E+02  0.24998156966E+00 0.  0.
    1000022    2    1    0    0    0  0.58059777963E+02  0.30215525671E-01  0.20864108942E+02  0.62499995291E+02  0.99999819722E+01 0.  0.
    3000022    2    5    5    0    0  0.43263256493E+02 -0.36846776973E+01  0.13104210824E+02  0.45354923170E+02  0.25000460660E+00 0.  0.
        -13    1    4    4    0    0 -0.80716184832E+01  0.21002736007E+00 -0.48653841778E+01  0.94275195374E+01  0.10500000000E+00 0. -1.
         13    1    4    4    0    0 -0.12165451918E+02  0.23574062928E+00 -0.74902255986E+01  0.14288747269E+02  0.10500000000E+00 0.  1.
    3000001    1    5    5    0    0  0.14796521470E+02  0.37148932230E+01  0.77598981176E+01  0.17145072122E+02  0.10000000000E+01 0. -1.
        -13    1    6    6    0    0  0.23885220299E+02 -0.19809253501E+01  0.72751781993E+01  0.25047296398E+02  0.10500000000E+00 0. -1.
         13    1    6    6    0    0  0.19378036194E+02 -0.17037523472E+01  0.58290326248E+01  0.20307626772E+02  0.10500000000E+00 0.  1.
</event>
<event>
11    0  0.3422856E-009  0.9118800E+02  0.7816531E-02  0.1126479E+00
         25   -1    0    0    0    0  0.00000000000E+00  0.00000000000E+00  0.99999998245E-14  0.12500000000E+03  0.12500000000E+03 0.  0.
    3000001    1    3    3    0    0 -0.11855458416E+02  0.26942256885E+02  0.34549363899E+02  0.45399291252E+02  0.10000000000E+01 0.  1.
    1000022    2    1    0    0    0 -0.21565411649E+02  0.36919749846E+02  0.44476007313E+02  0.62500001864E+02  0.10000004911E+02 0.  0.
    3000022    2    3    3    0    0 -0.97099532338E+01  0.99774929606E+01  0.99266434134E+01  0.17100710612E+02  0.24999280035E+00 0.  0.
    1000022    2    1    0    0    0  0.21565411649E+02 -0.36919749846E+02 -0.44476007313E+02  0.62499998136E+02  0.99999816138E+01 0.  0.
    3000022    2    5    5    0    0  0.89153516869E+01 -0.11070613794E+02 -0.90734540346E+01  0.16865114218E+02  0.25004793930E+00 0.  0.
        -13    1    4    4    0    0 -0.36762492707E+01  0.38580778045E+01  0.37701049567E+01  0.65287280101E+01  0.10500000000E+00 0.  1.
         13    1    4    4    0    0 -0.60337039631E+01  0.61194151562E+01  0.61565384567E+01  0.10571982602E+02  0.10500000000E+00 0. -1.
    3000001    1    5    5    0    0  0.12650059962E+02 -0.25849136051E+02 -0.35402553278E+02  0.45634883919E+02  0.10000000000E+01 0. -1.
        -13    1    6    6    0    0  0.39696410632E+01 -0.48829739332E+01 -0.39464185450E+01  0.74287770820E+01  0.10500000000E+00 0. -1.
         13    1    6    6    0    0  0.49457106237E+01 -0.61876398611E+01 -0.51270354895E+01  0.94363371355E+01  0.10500000000E+00 0.  1.
</event>
<event>
11    0  0.3422856E-009  0.9118800E+02  0.7816531E-02  0.1126479E+00
         25   -1    0    0    0    0  0.00000000000E+00  0.00000000000E+00  0.99999998245E-14  0.12500000000E+03  0.12500000000E+03 0.  0.
    3000001    1    3    3    0    0  0.90136661075E+01 -0.14572128096E+02 -0.77764759634E+01  0.18843212899E+02  0.10000000000E+01 0.  1.
    1000022    2    1    0    0    0  0.25274780330E+02 -0.41343555299E+02 -0.38185676310E+02  0.62500000651E+02  0.10000006032E+02 0.  0.
    3000022    2    3    3    0    0  0.16261114222E+02 -0.26771427204E+02 -0.30409200347E+02  0.43656787752E+02  0.25000174920E+00 0.  0.
    1000022    2    1    0    0    0 -0.25274780330E+02  0.41343555299E+02  0.38185676310E+02  0.62499999349E+02  0.99999978935E+01 0.  0.
    3000022    2    5    5    0    0 -0.18866596732E+02  0.28347187978E+02  0.31945598057E+02  0.46691490337E+02  0.24999235125E+00 0.  0.
        -13    1    4    4    0    0  0.70566684812E+01 -0.11743037142E+02 -0.13315911256E+02  0.19105496825E+02  0.10500000000E+00 0. -1.
         13    1    4    4    0    0  0.92044457408E+01 -0.15028390061E+02 -0.17093289091E+02  0.24551290927E+02  0.10500000000E+00 0.  1.
    3000001    1    5    5    0    0 -0.64081835973E+01  0.12996367321E+02  0.62400782529E+01  0.15808509012E+02  0.10000000000E+01 0. -1.
        -13    1    6    6    0    0 -0.81382928603E+01  0.12345167734E+02  0.13857890601E+02  0.20265417192E+02  0.10500000000E+00 0.  1.
         13    1    6    6    0    0 -0.10728303872E+02  0.16002020244E+02  0.18087707456E+02  0.26426073145E+02  0.10500000000E+00 0. -1.
</event>
<event>
11    0  0.3422856E-009  0.9118800E+02  0.7816531E-02  0.1126479E+00
         25   -1    0    0    0    0  0.00000000000E+00  0.00000000000E+00  0.99999998245E-14  0.12500000000E+03  0.12500000000E+03 0.  0.
    3000001    1    3    3    0    0 -0.75084123879E+01 -0.30573343486E+02  0.80727051510E+01  0.32515752444E+02  0.10000000000E+01 0.  1.
    1000022    2    1    0    0    0 -0.63685378004E+01 -0.57852924909E+02  0.20462922586E+02  0.62499996081E+02  0.99999557528E+01 0.  0.
    3000022    2    3    3    0    0  0.11398745875E+01 -0.27279581423E+02  0.12390217435E+02  0.29984243637E+02  0.25000343896E+00 0.  0.
    1000022    2    1    0    0    0  0.63685378004E+01  0.57852924909E+02 -0.20462922586E+02  0.62500003919E+02  0.10000004745E+02 0.  0.
    3000022    2    5    5    0    0  0.22988043729E+01  0.41442493769E+02 -0.10366444086E+02  0.42781894008E+02  0.25000118854E+00 0.  0.
        -13    1    4    4    0    0  0.76666653844E+00 -0.18564725811E+02  0.83769170434E+01  0.20381869055E+02  0.10500000000E+00 0. -1.
         13    1    4    4    0    0  0.37320804903E+00 -0.87148556119E+01  0.40133003913E+01  0.96023745821E+01  0.10500000000E+00 0.  1.
    3000001    1    5    5    0    0  0.40697334275E+01  0.16410431140E+02 -0.10096478499E+02  0.19718109911E+02  0.10000000000E+01 0.  1.
        -13    1    6    6    0    0  0.11838246902E+01  0.22284436525E+02 -0.55299424990E+01  0.22991060027E+02  0.10500000000E+00 0. -1.
         13    1    6    6    0    0  0.11149796827E+01  0.19158057244E+02 -0.48365015873E+01  0.19790833981E+02  0.10500000000E+00 0.  1.
</event>
<event>
11    0  0.3422856E-009  0.9118800E+02  0.7816531E-02  0.1126479E+00
         25   -1    0    0    0    0  0.00000000000E+00  0.00000000000E+00  0.99999998245E-14  0.12500000000E+03  0.12500000000E+03 0.  0.
    3000001    1    3    3    0    0  0.31508524552E+01 -0.53300539013E+01 -0.42297999483E+01  0.75649556104E+01  0.10000000000E+01 0.  1.
    1000022    2    1    0    0    0  0.44594972940E+02 -0.26163472965E+02 -0.33660229523E+02  0.62500000554E+02  0.10000004432E+02 0.  0.
    3000022    2    3    3    0    0  0.41444120485E+02 -0.20833419064E+02 -0.29430429575E+02  0.54935044944E+02  0.25001078665E+00 0.  0.
    1000022    2    1    0    0    0 -0.44594972940E+02  0.26163472965E+02  0.33660229523E+02  0.62499999446E+02  0.99999975036E+01 0.  0.
    3000022    2    5    5    0    0 -0.25203324611E+02  0.12044142614E+02  0.12935863335E+02  0.30784216807E+02  0.25000293050E+00 0.  0.
        -13    1    4    4    0    0  0.31331623780E+02 -0.15732147778E+02 -0.22262968096E+02  0.41530975137E+02  0.10500000000E+00 0. -1.
         13    1    4    4    0    0  0.10112496705E+02 -0.51012712856E+01 -0.71674614784E+01  0.13404069807E+02  0.10500000000E+00 0.  1.
    3000001    1    5    5    0    0 -0.19391648329E+02  0.14119330351E+02  0.20724366188E+02  0.31715782638E+02  0.10000000000E+01 0. -1.
        -13    1    6    6    0    0 -0.19141916177E+02  0.91270620564E+01  0.98290579419E+01  0.23373866212E+02  0.10500000000E+00 0.  1.
         13    1    6    6    0    0 -0.60614084343E+01  0.29170805576E+01  0.31068053932E+01  0.74103505948E+01  0.10500000000E+00 0. -1.
</event>
<event>
11    0  0.3422856E-009  0.9118800E+02  0.7816531E-02  0.1126479E+00
         25   -1    0    0    0    0  0.00000000000E+00  0.00000000000E+00  0.99999998245E-14  0.12500000000E+03  0.12500000000E+03 0.  0.
    3000001    1    3    3    0    0 -0.16315810657E+02  0.40894732901E+02 -0.22783170410E+02  0.49584853639E+02  0.10000000000E+01 0.  1.
    1000022    2    1    0    0    0 -0.21663219708E+02  0.52596237145E+02 -0.23887044047E+02  0.62500000497E+02  0.99999969441E+01 0.  0.
    3000022    2    3    3    0    0 -0.53474090508E+01  0.11701504245E+02 -0.11038736364E+01  0.12915146858E+02  0.24999245255E+00 0.  0.
    1000022    2    1    0    0    0  0.21663219708E+02 -0.52596237145E+02  0.23887044047E+02  0.62499999503E+02  0.99999907297E+01 0.  0.
    3000022    2    5    5    0    0  0.12170240537E+02 -0.30393384642E+02  0.84173052009E+01  0.33805119597E+02  0.24999886583E+00 0.  0.
        -13    1    4    4    0    0 -0.30108153025E+01  0.66524891351E+01 -0.68676015791E+00  0.73350722555E+01  0.10500000000E+00 0. -1.
         13    1    4    4    0    0 -0.23365937483E+01  0.50490151094E+01 -0.41711347845E+00  0.55800746029E+01  0.10500000000E+00 0.  1.
    3000001    1    5    5    0    0  0.94929791712E+01 -0.22202852504E+02  0.15469738846E+02  0.28694879906E+02  0.10000000000E+01 0. -1.
        -13    1    6    6    0    0  0.68295452331E+01 -0.17218610103E+02  0.47889928611E+01  0.19132921878E+02  0.10500000000E+00 0.  1.
         13    1    6    6    0    0  0.53406953038E+01 -0.13174774539E+02  0.36283123398E+01  0.14672197719E+02  0.10500000000E+00 0. -1.
</event>
<event>
11    0  0.3422856E-009  0.9118800E+02  0.7816531E-02  0.1126479E+00
         25   -1    0    0    0    0  0.00000000000E+00  0.00000000000E+00  0.99999998245E-14  0.12500000000E+03  0.12500000000E+03 0.  0.
    3000001    1    3    3    0    0 -0.13758095632E+02 -0.81991219391E+01 -0.43946033853E+02  0.46784235458E+02  0.10000000000E+01 0. -1.
    1000022    2    1    0    0    0 -0.17394962552E+02 -0.52939176378E+01 -0.58954557152E+02  0.62500000822E+02  0.10000000381E+02 0.  0.
    3000022    2    3    3    0    0 -0.36368669207E+01  0.29052043012E+01 -0.15008523299E+02  0.15715765364E+02  0.24999266548E+00 0.  0.
    1000022    2    1    0    0    0  0.17394962552E+02  0.52939176378E+01  0.58954557152E+02  0.62499999178E+02  0.99999901051E+01 0.  0.
    3000022    2    5    5    0    0  0.82275972615E+01  0.64766469251E+01  0.21595210467E+02  0.24001165174E+02  0.25000500286E+00 0.  0.
        -13    1    4    4    0    0 -0.15026919175E+01  0.11323042880E+01 -0.59518035412E+01  0.62430110037E+01  0.10500000000E+00 0.  1.
         13    1    4    4    0    0 -0.21341750032E+01  0.17729000132E+01 -0.90567197579E+01  0.94727543605E+01  0.10500000000E+00 0. -1.
    3000001    1    5    5    0    0  0.91673652910E+01 -0.11827292872E+01  0.37359346685E+02  0.38498834004E+02  0.10000000000E+01 0. -1.
        -13    1    6    6    0    0  0.18987242322E+01  0.15071043002E+01  0.49997360015E+01  0.55574186603E+01  0.10500000000E+00 0.  1.
         13    1    6    6    0    0  0.63288730292E+01  0.49695426249E+01  0.16595474466E+02  0.18443746514E+02  0.10500000000E+00 0. -1.
</event>
<event>
11    0  0.3422856E-009  0.9118800E+02  0.7816531E-02  0.1126479E+00
         25   -1    0    0    0    0  0.00000000000E+00  0.00000000000E+00  0.99999998245E-14  0.12500000000E+03  0.12500000000E+03 0.  0.
    3000001    1    3    3    0    0  0.40068634204E+02  0.58428025820E+01  0.34442048064E+02  0.53168491269E+02  0.10000000000E+01 0. -1.
    1000022    2    1    0    0    0  0.43743305489E+02  0.74792858839E+01  0.42858307386E+02  0.62500008953E+02  0.10000005737E+02 0.  0.
    3000022    2    3    3    0    0  0.36746712847E+01  0.16364833019E+01  0.84162593217E+01  0.93315176839E+01  0.25002933154E+00 0.  0.
    1000022    2    1    0    0    0 -0.43743305489E+02 -0.74792858839E+01 -0.42858307386E+02  0.62499991047E+02  0.99998938238E+01 0.  0.
    3000022    2    5    5    0    0 -0.18391894104E+02  0.15419594213E+01 -0.15359499008E+02  0.24012832302E+02  0.24999560966E+00 0.  0.
        -13    1    4    4    0    0  0.15164254993E+01  0.71657049319E+00  0.33894406466E+01  0.37831669885E+01  0.10500000000E+00 0.  1.
         13    1    4    4    0    0  0.21582457854E+01  0.91991280873E+00  0.50268186752E+01  0.55483506954E+01  0.10500000000E+00 0. -1.
    3000001    1    5    5    0    0 -0.25351411385E+02 -0.90212453052E+01 -0.27498808378E+02  0.38487158745E+02  0.10000000000E+01 0. -1.
        -13    1    6    6    0    0 -0.56452808035E+01  0.43514259283E+00 -0.46751231630E+01  0.73434559994E+01  0.10500000000E+00 0. -1.
         13    1    6    6    0    0 -0.12746613300E+02  0.11068168285E+01 -0.10684375845E+02  0.16669376302E+02  0.10500000000E+00 0.  1.
</event>
<event>
11    0  0.3422856E-009  0.9118800E+02  0.7816531E-02  0.1126479E+00
         25   -1    0    0    0    0  0.00000000000E+00  0.00000000000E+00  0.99999998245E-14  0.12500000000E+03  0.12500000000E+03 0.  0.
    3000001    1    3    3    0    0  0.29451292417E+02 -0.37383693712E+02  0.39635516062E+02  0.61942661503E+02  0.10000000000E+01 0. -1.
    1000022    2    1    0    0    0  0.28998860643E+02 -0.37513296402E+02  0.39472366977E+02  0.62499992597E+02  0.99999997106E+01 0.  0.
    3000022    2    3    3    0    0 -0.45243177362E+00 -0.12960269004E+00 -0.16314908494E+00  0.55733109328E+00  0.25001791251E+00 0.  0.
    1000022    2    1    0    0    0 -0.28998860643E+02  0.37513296402E+02 -0.39472366977E+02  0.62500007403E+02  0.10000092251E+02 0.  0.
    3000022    2    5    5    0    0 -0.72630729355E+00  0.42542747131E+00 -0.34610795306E+01  0.35707267498E+01  0.25001437346E+00 0.  0.
        -13    1    4    4    0    0 -0.26179877234E+00 -0.14020089908E+00 -0.99336333998E-01  0.33028411490E+00  0.10500000000E+00 0. -1.
         13    1    4    4    0    0 -0.19063300128E+00  0.10598209039E-01 -0.63812750937E-01  0.22704697838E+00  0.10500000000E+00 0.  1.
    3000001    1    5    5    0    0 -0.28272553350E+02  0.37087868931E+02 -0.36011287447E+02  0.58929280653E+02  0.10000000000E+01 0. -1.
        -13    1    6    6    0    0 -0.25679474001E+00  0.15933448939E+00 -0.15189220938E+01  0.15522500910E+01  0.10500000000E+00 0. -1.
         13    1    6    6    0    0 -0.46951255354E+00  0.26609298192E+00 -0.19421574368E+01  0.20184766588E+01  0.10500000000E+00 0.  1.
</event>
<event>
11    0  0.3422856E-009  0.9118800E+02  0.7816531E-02  0.1126479E+00
         25   -1    0    0    0    0  0.00000000000E+00  0.00000000000E+00  0.99999998245E-14  0.12500000000E+03  0.12500000000E+03 0.  0.
    3000001    1    3    3    0    0  0.51802521579E+01 -0.21988124956E+02  0.23410481463E+02  0.32547861586E+02  0.10000000000E+01 0. -1.
    1000022    2    1    0    0    0  0.13647381342E+02 -0.34594167997E+02  0.49226439387E+02  0.62500002842E+02  0.10000027180E+02 0.  0.
    3000022    2    3    3    0    0  0.84671291838E+01 -0.12606043042E+02  0.25815957924E+02  0.29952141256E+02  0.24996899025E+00 0.  0.
    1000022    2    1    0    0    0 -0.13647381342E+02  0.34594167997E+02 -0.49226439387E+02  0.62499997158E+02  0.99999916546E+01 0.  0.
    3000022    2    5    5    0    0 -0.12398240082E+02  0.18129655141E+02 -0.27712387400E+02  0.35361556334E+02  0.24999647976E+00 0.  0.
        -13    1    4    4    0    0  0.29599421700E+01 -0.44064489464E+01  0.89140218227E+01  0.10375396861E+02  0.10500000000E+00 0. -1.
         13    1    4    4    0    0  0.55071870137E+01 -0.81995940954E+01  0.16901936102E+02  0.19576744395E+02  0.10500000000E+00 0.  1.
    3000001    1    5    5    0    0 -0.12491412592E+01  0.16464512856E+02 -0.21514051987E+02  0.27138440824E+02  0.10000000000E+01 0.  1.
        -13    1    6    6    0    0 -0.78556964305E+01  0.11590366850E+02 -0.17657575248E+02  0.22535517717E+02  0.10500000000E+00 0. -1.
         13    1    6    6    0    0 -0.45425436520E+01  0.65392882911E+01 -0.10054812152E+02  0.12826038617E+02  0.10500000000E+00 0.  1.
</event>
<event>
11    0  0.3422856E-009  0.9118800E+02  0.7816531E-02  0.1126479E+00
         25   -1    0    0    0    0  0.00000000000E+00  0.00000000000E+00  0.99999998245E-14  0.12500000000E+03  0.12500000000E+03 0.  0.
    3000001    1    3    3    0    0  0.12169880051E+02 -0.99894380797E+01  0.16876275698E+02  0.23102024479E+02  0.10000000000E+01 0.  1.
    1000022    2    1    0    0    0  0.21232061363E+02 -0.27405651312E+02  0.51033125360E+02  0.62500000108E+02  0.99999987975E+01 0.  0.
    3000022    2    3    3    0    0  0.90621813123E+01 -0.17416213232E+02  0.34156849662E+02  0.39397975629E+02  0.24998269129E+00 0.  0.
    1000022    2    1    0    0    0 -0.21232061363E+02  0.27405651312E+02 -0.51033125360E+02  0.62499999892E+02  0.99999974475E+01 0.  0.
    3000022    2    5    5    0    0 -0.59281643629E+01  0.18169586749E+01 -0.76704127076E+01  0.98662150877E+01  0.24999502430E+00 0.  0.
        -13    1    4    4    0    0  0.35796295604E+01 -0.67922335421E+01  0.13263268008E+02  0.15325582779E+02  0.10500000000E+00 0. -1.
         13    1    4    4    0    0  0.54825517519E+01 -0.10623979690E+02  0.20893581654E+02  0.24072392849E+02  0.10500000000E+00 0.  1.
    3000001    1    5    5    0    0 -0.15303897000E+02  0.25588692637E+02 -0.43362712652E+02  0.52633784804E+02  0.10000000000E+01 0.  1.
        -13    1    6    6    0    0 -0.34205475119E+01  0.99927592106E+00 -0.44790243132E+01  0.57246293720E+01  0.10500000000E+00 0. -1.
         13    1    6    6    0    0 -0.25076168510E+01  0.81768275384E+00 -0.31913883944E+01  0.41415857158E+01  0.10500000000E+00 0.  1.
</event>
<event>
11    0  0.3422856E-009  0.9118800E+02  0.7816531E-02  0.1126479E+00
         25   -1    0    0    0    0  0.00000000000E+00  0.00000000000E+00  0.99999998245E-14  0.12500000000E+03  0.12500000000E+03 0.  0.
    3000001    1    3    3    0    0 -0.35804272428E+00  0.32283389186E+00 -0.44142064018E+00  0.11946834291E+01  0.10000000000E+01 0. -1.
    1000022    2    1    0    0    0 -0.55071374789E+02 -0.16613740191E+02 -0.22301952337E+02  0.62499997948E+02  0.99999990571E+01 0.  0.
    3000022    2    3    3    0    0 -0.54713332064E+02 -0.16936574083E+02 -0.21860531697E+02  0.61305314519E+02  0.24998975435E+00 0.  0.
    1000022    2    1    0    0    0  0.55071374789E+02  0.16613740191E+02  0.22301952337E+02  0.62500002052E+02  0.10000024712E+02 0.  0.
    3000022    2    5    5    0    0  0.52109972696E+02  0.13210974541E+02  0.20293350907E+02  0.57461828164E+02  0.25000438738E+00 0.  0.
        -13    1    4    4    0    0 -0.24886814752E+02 -0.76785191928E+01 -0.98738579049E+01  0.27853497095E+02  0.10500000000E+00 0. -1.
         13    1    4    4    0    0 -0.29826517312E+02 -0.92580548900E+01 -0.11986673792E+02  0.33451817423E+02  0.10500000000E+00 0.  1.
    3000001    1    5    5    0    0  0.29614020923E+01  0.34027656502E+01  0.20086014298E+01  0.50381738881E+01  0.10000000000E+01 0. -1.
        -13    1    6    6    0    0  0.15794626410E+02  0.39810154867E+01  0.61925177507E+01  0.17426330906E+02  0.10500000000E+00 0.  1.
         13    1    6    6    0    0  0.36315346286E+02  0.92299590541E+01  0.14100833157E+02  0.40035497259E+02  0.10500000000E+00 0. -1.
</event>
<event>
11    0  0.3422856E-009  0.9118800E+02  0.7816531E-02  0.1126479E+00
         25   -1    0    0    0    0  0.00000000000E+00  0.00000000000E+00  0.99999998245E-14  0.12500000000E+03  0.12500000000E+03 0.  0.
    3000001    1    3    3    0    0 -0.23296970715E+02 -0.45258124117E+01 -0.22358420818E+02  0.32621017825E+02  0.10000000000E+01 0.  1.
    1000022    2    1    0    0    0 -0.37860264235E+02 -0.14098135217E+02 -0.46627170838E+02  0.62500000565E+02  0.99999992868E+01 0.  0.
    3000022    2    3    3    0    0 -0.14563293521E+02 -0.95723228053E+01 -0.24268750020E+02  0.29878982740E+02  0.25000000542E+00 0.  0.
    1000022    2    1    0    0    0  0.37860264235E+02  0.14098135217E+02  0.46627170838E+02  0.62499999435E+02  0.99999922193E+01 0.  0.
    3000022    2    5    5    0    0  0.29583403778E+02  0.63977238832E+01  0.33656476797E+02  0.45265102927E+02  0.24992512237E+00 0.  0.
        -13    1    4    4    0    0 -0.49947940030E+01 -0.32529041242E+01 -0.82171338414E+01  0.10151929173E+02  0.10500000000E+00 0.  1.
         13    1    4    4    0    0 -0.95684995177E+01 -0.63194186811E+01 -0.16051616178E+02  0.19727053567E+02  0.10500000000E+00 0. -1.
    3000001    1    5    5    0    0  0.82768604571E+01  0.77004113338E+01  0.12970694041E+02  0.17234896508E+02  0.10000000000E+01 0.  1.
        -13    1    6    6    0    0  0.87367006639E+01  0.19160149519E+01  0.98923336300E+01  0.13336804019E+02  0.10500000000E+00 0. -1.
         13    1    6    6    0    0  0.20846703114E+02  0.44817089313E+01  0.23764143168E+02  0.31928298908E+02  0.10500000000E+00 0.  1.
</event>
<event>
11    0  0.3422856E-009  0.9118800E+02  0.7816531E-02  0.1126479E+00
         25   -1    0    0    0    0  0.00000000000E+00  0.00000000000E+00  0.99999998245E-14  0.12500000000E+03  0.12500000000E+03 0.  0.
    3000001    1    3    3    0    0  0.29803331802E+02 -0.15666035805E+02 -0.43574103753E+02  0.55076000056E+02  0.10000000000E+01 0. -1.
    1000022    2    1    0    0    0  0.36188293884E+02 -0.17816832644E+02 -0.46682093466E+02  0.62499999487E+02  0.99999972869E+01 0.  0.
    3000022    2    3    3    0    0  0.63849620820E+01 -0.21507968387E+01 -0.31079897136E+01  0.74239994304E+01  0.24999930375E+00 0.  0.
    1000022    2    1    0    0    0 -0.36188293884E+02  0.17816832644E+02  0.46682093466E+02  0.62500000513E+02  0.10000003703E+02 0.  0.
    3000022    2    5    5    0    0 -0.16351698408E+02  0.53481553558E+01  0.13512739512E+02  0.21877783992E+02  0.24999343801E+00 0.  0.
        -13    1    4    4    0    0  0.49224234565E+01 -0.16578440130E+01 -0.23996226526E+01  0.57225792552E+01  0.10500000000E+00 0.  1.
         13    1    4    4    0    0  0.14625386255E+01 -0.49295282564E+00 -0.70836706100E+00  0.17014201752E+01  0.10500000000E+00 0. -1.
    3000001    1    5    5    0    0 -0.19836595476E+02  0.12468677288E+02  0.33169353954E+02  0.40622216522E+02  0.10000000000E+01 0.  1.
        -13    1    6    6    0    0 -0.62570590200E+01  0.21109181751E+01  0.51901171151E+01  0.83997085539E+01  0.10500000000E+00 0. -1.
         13    1    6    6    0    0 -0.10094639388E+02  0.32372371807E+01  0.83226223970E+01  0.13478075438E+02  0.10500000000E+00 0.  1.
</event>
<event>
11    0  0.3422856E-009  0.9118800E+02  0.7816531E-02  0.1126479E+00
         25   -1    0    0    0    0  0.00000000000E+00  0.00000000000E+00  0.99999998245E-14  0.12500000000E+03  0.12500000000E+03 0.  0.
    3000001    1    3    3    0    0  0.12393634963E+02 -0.11014494541E+02 -0.91197985070E+01  0.18949723016E+02  0.10000000000E+01 0. -1.
    1000022    2    1    0    0    0  0.44888504178E+02 -0.23041427325E+02 -0.35501619408E+02  0.62499999805E+02  0.99999907212E+01 0.  0.
    3000022    2    3    3    0    0  0.32494869215E+02 -0.12026932785E+02 -0.26381820901E+02  0.43550276788E+02  0.24999352260E+00 0.  0.
    1000022    2    1    0    0    0 -0.44888504178E+02  0.23041427325E+02  0.35501619408E+02  0.62500000195E+02  0.99999931625E+01 0.  0.
    3000022    2    5    5    0    0 -0.23878039136E+02  0.11828373986E+02  0.24683245020E+02  0.36323494873E+02  0.25002187589E+00 0.  0.
        -13    1    4    4    0    0  0.14642672009E+02 -0.53689943196E+01 -0.11933693972E+02  0.19638177624E+02  0.10500000000E+00 0. -1.
         13    1    4    4    0    0  0.17852197206E+02 -0.66579384651E+01 -0.14448126929E+02  0.23912099165E+02  0.10500000000E+00 0.  1.
    3000001    1    5    5    0    0 -0.21010465042E+02  0.11213053339E+02  0.10818374388E+02  0.26176505322E+02  0.10000000000E+01 0.  1.
        -13    1    6    6    0    0 -0.16242298486E+02  0.80917122903E+01  0.16848648859E+02  0.24762392075E+02  0.10500000000E+00 0.  1.
         13    1    6    6    0    0 -0.76357406504E+01  0.37366616956E+01  0.78345961611E+01  0.11561102798E+02  0.10500000000E+00 0. -1.
</event>
<event>
11    0  0.3422856E-009  0.9118800E+02  0.7816531E-02  0.1126479E+00
         25   -1    0    0    0    0  0.00000000000E+00  0.00000000000E+00  0.99999998245E-14  0.12500000000E+03  0.12500000000E+03 0.  0.
    3000001    1    3    3    0    0  0.18392027939E+02 -0.29650654496E+02  0.16165145049E+02  0.38467387723E+02  0.10000000000E+01 0. -1.
    1000022    2    1    0    0    0  0.29486768688E+02 -0.43396247677E+02  0.32458375484E+02  0.62500000228E+02  0.10000002463E+02 0.  0.
    3000022    2    3    3    0    0  0.11094740749E+02 -0.13745593181E+02  0.16293230435E+02  0.24032612505E+02  0.25000321192E+00 0.  0.
    1000022    2    1    0    0    0 -0.29486768688E+02  0.43396247677E+02 -0.32458375484E+02  0.62499999772E+02  0.99999996157E+01 0.  0.
    3000022    2    5    5    0    0 -0.14603934236E+02  0.28191590641E+02 -0.15829726093E+02  0.35477928470E+02  0.25000448896E+00 0.  0.
        -13    1    4    4    0    0  0.81908773349E+01 -0.10178702407E+02  0.12084436748E+02  0.17797221433E+02  0.10500000000E+00 0. -1.
         13    1    4    4    0    0  0.29038634144E+01 -0.35668907738E+01  0.42087936872E+01  0.62353910722E+01  0.10500000000E+00 0.  1.
    3000001    1    5    5    0    0 -0.14882834453E+02  0.15204657036E+02 -0.16628649391E+02  0.27022071303E+02  0.10000000000E+01 0. -1.
        -13    1    6    6    0    0 -0.79025774071E+01  0.15351954147E+02 -0.85527905635E+01  0.19269003016E+02  0.10500000000E+00 0. -1.
         13    1    6    6    0    0 -0.67013568284E+01  0.12839636494E+02 -0.72769355298E+01  0.16208925453E+02  0.10500000000E+00 0.  1.
</event>
<event>
11    0  0.3422856E-009  0.9118800E+02  0.7816531E-02  0.1126479E+00
         25   -1    0    0    0    0  0.00000000000E+00  0.00000000000E+00  0.99999998245E-14  0.12500000000E+03  0.12500000000E+03 0.  0.
    3000001    1    3    3    0    0 -0.10678384492E+02  0.22387897853E+02 -0.14001259097E+02  0.28500545993E+02  0.10000000000E+01 0.  1.
    1000022    2    1    0    0    0 -0.26872756341E+02  0.41214232957E+02 -0.37222197379E+02  0.62500002641E+02  0.10000016045E+02 0.  0.
    3000022    2    3    3    0    0 -0.16194371849E+02  0.18826335104E+02 -0.23220938282E+02  0.33999456648E+02  0.25000928015E+00 0.  0.
    1000022    2    1    0    0    0  0.26872756341E+02 -0.41214232957E+02  0.37222197379E+02  0.62499997359E+02  0.99999830279E+01 0.  0.
    3000022    2    5    5    0    0  0.23638155400E+02 -0.29991904258E+02  0.31248047525E+02  0.49343486760E+02  0.24999946328E+00 0.  0.
        -13    1    4    4    0    0 -0.94096402740E+01  0.11013953487E+02 -0.13487722779E+02  0.19793387589E+02  0.10500000000E+00 0.  1.
         13    1    4    4    0    0 -0.67847315751E+01  0.78123816167E+01 -0.97332155034E+01  0.14206069059E+02  0.10500000000E+00 0. -1.
    3000001    1    5    5    0    0  0.32346009407E+01 -0.11222328698E+02  0.59741498537E+01  0.13156510599E+02  0.10000000000E+01 0. -1.
        -13    1    6    6    0    0  0.13208776002E+02 -0.16664492435E+02  0.17440249630E+02  0.27501825462E+02  0.10500000000E+00 0. -1.
         13    1    6    6    0    0  0.10429379398E+02 -0.13327411824E+02  0.13807797895E+02  0.21841661298E+02  0.10500000000E+00 0.  1.
</event>
<event>
11    0  0.3422856E-009  0.9118800E+02  0.7816531E-02  0.1126479E+00
         25   -1    0    0    0    0  0.00000000000E+00  0.00000000000E+00  0.99999998245E-14  0.12500000000E+03  0.12500000000E+03 0.  0.
    3000001    1    3    3    0    0  0.50973240294E+01  0.29780778223E+01 -0.25260889989E+02  0.25960820919E+02  0.10000000000E+01 0.  1.
    1000022    2    1    0    0    0  0.14175594629E+02  0.18158311324E+02 -0.57232660864E+02  0.62499993457E+02  0.99999979620E+01 0.  0.
    3000022    2    3    3    0    0  0.90782705998E+01  0.15180233501E+02 -0.31971770876E+02  0.36539172538E+02  0.25002110841E+00 0.  0.
    1000022    2    1    0    0    0 -0.14175594629E+02 -0.18158311324E+02  0.57232660864E+02  0.62500006543E+02  0.10000079753E+02 0.  0.
    3000022    2    5    5    0    0 -0.14245675181E+02 -0.17945780494E+02  0.57022151265E+02  0.61453873221E+02  0.25000001996E+00 0.  0.
        -13    1    4    4    0    0  0.43127604239E+01  0.70808388649E+01 -0.14973218938E+02  0.17115679708E+02  0.10500000000E+00 0. -1.
         13    1    4    4    0    0  0.47655101759E+01  0.80993946365E+01 -0.16998551938E+02  0.19423492830E+02  0.10500000000E+00 0.  1.
    3000001    1    5    5    0    0  0.70080552187E-01 -0.21253082998E+00  0.21050959928E+00  0.10461333227E+01  0.10000000000E+01 0.  1.
        -13    1    6    6    0    0 -0.80763925084E+01 -0.10268621312E+02  0.32433938848E+02  0.34966328286E+02  0.10500000000E+00 0.  1.
         13    1    6    6    0    0 -0.61692826731E+01 -0.76771591818E+01  0.24588212417E+02  0.26487544935E+02  0.10500000000E+00 0. -1.
</event>
<event>
11    0  0.3422856E-009  0.9118800E+02  0.7816531E-02  0.1126479E+00
         25   -1    0    0    0    0  0.00000000000E+00  0.00000000000E+00  0.99999998245E-14  0.12500000000E+03  0.12500000000E+03 0.  0.
    3000001    1    3    3    0    0  0.62391259438E+01  0.24548217700E+02 -0.36735602276E+02  0.44632344319E+02  0.10000000000E+01 0.  1.
    1000022    2    1    0    0    0  0.89300547839E+01  0.38872324002E+02 -0.47068530665E+02  0.62499997414E+02  0.99999823019E+01 0.  0.
    3000022    2    3    3    0    0  0.26909288401E+01  0.14324106302E+02 -0.10332928389E+02  0.17867653096E+02  0.24999734172E+00 0.  0.
    1000022    2    1    0    0    0 -0.89300547839E+01 -0.38872324002E+02  0.47068530665E+02  0.62500002586E+02  0.10000014622E+02 0.  0.
    3000022    2    5    5    0    0  0.77941736353E+00 -0.55627060960E+01  0.11504041798E+02  0.12804556488E+02  0.24999726120E+00 0.  0.
        -13    1    4    4    0    0  0.12013754077E+01  0.63701912916E+01 -0.45148236107E+01  0.79004618345E+01  0.10500000000E+00 0. -1.
         13    1    4    4    0    0  0.14895534323E+01  0.79539150108E+01 -0.58181047781E+01  0.99671912611E+01  0.10500000000E+00 0.  1.
    3000001    1    5    5    0    0 -0.97094721474E+01 -0.33309617906E+02  0.35564488868E+02  0.49695446098E+02  0.10000000000E+01 0.  1.
        -13    1    6    6    0    0  0.27649065595E+00 -0.20030643439E+01  0.42764715723E+01  0.47315904258E+01  0.10500000000E+00 0.  1.
         13    1    6    6    0    0  0.50292670758E+00 -0.35596417521E+01  0.72275702254E+01  0.80729660621E+01  0.10500000000E+00 0. -1.
</event>
<event>
11    0  0.3422856E-009  0.9118800E+02  0.7816531E-02  0.1126479E+00
         25   -1    0    0    0    0  0.00000000000E+00  0.00000000000E+00  0.99999998245E-14  0.12500000000E+03  0.12500000000E+03 0.  0.
    3000001    1    3    3    0    0 -0.19411974804E+01 -0.66881819246E+01 -0.20397373302E+01  0.73253364080E+01  0.10000000000E+01 0. -1.
    1000022    2    1    0    0    0 -0.35213253237E+02 -0.42090526560E+02 -0.28189790527E+02  0.62499999811E+02  0.10000002837E+02 0.  0.
    3000022    2    3    3    0    0 -0.33272055757E+02 -0.35402344635E+02 -0.26150053197E+02  0.55174663403E+02  0.24999888858E+00 0.  0.
    1000022    2    1    0    0    0  0.35213253237E+02  0.42090526560E+02  0.28189790527E+02  0.62500000189E+02  0.10000005205E+02 0.  0.
    3000022    2    5    5    0    0  0.33177414812E+00  0.42985770150E+01  0.26862879861E+01  0.50859106670E+01  0.25001145747E+00 0.  0.
        -13    1    4    4    0    0 -0.25390501293E+02 -0.27021577563E+02 -0.19975708733E+02  0.42117492498E+02  0.10500000000E+00 0.  1.
         13    1    4    4    0    0 -0.78815544637E+01 -0.83807670717E+01 -0.61743444638E+01  0.13057170905E+02  0.10500000000E+00 0. -1.
    3000001    1    5    5    0    0  0.34881479089E+02  0.37791949545E+02  0.25503502541E+02  0.57414089522E+02  0.10000000000E+01 0. -1.
        -13    1    6    6    0    0  0.56610623471E-01  0.10794800500E+01  0.67041303101E+00  0.12763073976E+01  0.10500000000E+00 0. -1.
         13    1    6    6    0    0  0.27516352464E+00  0.32190969651E+01  0.20158749551E+01  0.38096032694E+01  0.10500000000E+00 0.  1.
</event>
<event>
11    0  0.3422856E-009  0.9118800E+02  0.7816531E-02  0.1126479E+00
         25   -1    0    0    0    0  0.00000000000E+00  0.00000000000E+00  0.99999998245E-14  0.12500000000E+03  0.12500000000E+03 0.  0.
    3000001    1    3    3    0    0  0.68876007037E+01 -0.17872073423E+02 -0.38994774780E+02  0.43456213734E+02  0.10000000000E+01 0.  1.
    1000022    2    1    0    0    0  0.10241063222E+02 -0.19345076480E+02 -0.57681345405E+02  0.62500002023E+02  0.10000064260E+02 0.  0.
    3000022    2    3    3    0    0  0.33534625185E+01 -0.14730030568E+01 -0.18686570624E+02  0.19043788289E+02  0.25000365374E+00 0.  0.
    1000022    2    1    0    0    0 -0.10241063222E+02  0.19345076480E+02  0.57681345405E+02  0.62499997977E+02  0.10000038975E+02 0.  0.
    3000022    2    5    5    0    0  0.17336321595E+01  0.40942723830E+01  0.79402602373E+01  0.91037817374E+01  0.25012491786E+00 0.  0.
        -13    1    4    4    0    0  0.92610631170E+00 -0.44352499120E+00 -0.53666739907E+01  0.54650344959E+01  0.10500000000E+00 0.  1.
         13    1    4    4    0    0  0.24273562068E+01 -0.10294780656E+01 -0.13319896634E+02  0.13578753793E+02  0.10500000000E+00 0. -1.
    3000001    1    5    5    0    0 -0.11974695382E+02  0.15250804097E+02  0.49741085167E+02  0.53396216240E+02  0.10000000000E+01 0.  1.
        -13    1    6    6    0    0  0.45141052719E+00  0.10622023230E+01  0.20022357095E+01  0.23134429052E+01  0.10500000000E+00 0.  1.
         13    1    6    6    0    0  0.12822216324E+01  0.30320700600E+01  0.59380245278E+01  0.67903388322E+01  0.10500000000E+00 0. -1.
</event>
<event>
11    0  0.3422856E-009  0.9118800E+02  0.7816531E-02  0.1126479E+00
         25   -1    0    0    0    0  0.00000000000E+00  0.00000000000E+00  0.99999998245E-14  0.12500000000E+03  0.12500000000E+03 0.  0.
    3000001    1    3    3    0    0 -0.36024305830E+02  0.28564929243E+02 -0.32902568417E+02  0.56544538212E+02  0.10000000000E+01 0. -1.
    1000022    2    1    0    0    0 -0.40922409877E+02  0.31911445518E+02 -0.33365644638E+02  0.62500000644E+02  0.99999926589E+01 0.  0.
    3000022    2    3    3    0    0 -0.48981040470E+01  0.33465162748E+01 -0.46307622086E+00  0.59554624315E+01  0.24999750678E+00 0.  0.
    1000022    2    1    0    0    0  0.40922409877E+02 -0.31911445518E+02  0.33365644638E+02  0.62499999356E+02  0.99999846133E+01 0.  0.
    3000022    2    5    5    0    0  0.13727578105E+02 -0.12286294050E+02  0.17405360567E+02  0.25345778697E+02  0.24999827791E+00 0.  0.
        -13    1    4    4    0    0 -0.16148480290E+01  0.10424937624E+01 -0.16216224248E+00  0.19317994187E+01  0.10500000000E+00 0.  1.
         13    1    4    4    0    0 -0.32832560180E+01  0.23040225125E+01 -0.30091397839E+00  0.40236630128E+01  0.10500000000E+00 0. -1.
    3000001    1    5    5    0    0  0.27194831771E+02 -0.19625151468E+02  0.15960284071E+02  0.37154220660E+02  0.10000000000E+01 0. -1.
        -13    1    6    6    0    0  0.44154542558E+01 -0.39671684374E+01  0.55399115941E+01  0.81201174355E+01  0.10500000000E+00 0.  1.
         13    1    6    6    0    0  0.93121238495E+01 -0.83191256123E+01  0.11865448973E+02  0.17225661261E+02  0.10500000000E+00 0. -1.
</event>
<event>
11    0  0.3422856E-009  0.9118800E+02  0.7816531E-02  0.1126479E+00
         25   -1    0    0    0    0  0.00000000000E+00  0.00000000000E+00  0.99999998245E-14  0.12500000000E+03  0.12500000000E+03 0.  0.
    3000001    1    3    3    0    0  0.22819036020E+02  0.33036584871E+01 -0.14412125122E+02  0.27209041049E+02  0.10000000000E+01 0. -1.
    1000022    2    1    0    0    0  0.55108948272E+02  0.13751916576E+02 -0.24086059431E+02  0.62500003529E+02  0.10000039656E+02 0.  0.
    3000022    2    3    3    0    0  0.32289912252E+02  0.10448258089E+02 -0.96739343082E+01  0.35290962480E+02  0.24999487655E+00 0.  0.
    1000022    2    1    0    0    0 -0.55108948272E+02 -0.13751916576E+02  0.24086059431E+02  0.62499996471E+02  0.99999955407E+01 0.  0.
    3000022    2    5    5    0    0 -0.57146246713E+01 -0.22938871718E+01  0.61487037950E+01  0.87056253064E+01  0.25000024955E+00 0.  0.
        -13    1    4    4    0    0  0.23955818158E+02  0.77411199767E+01 -0.71457658995E+01  0.26170195976E+02  0.10500000000E+00 0.  1.
         13    1    4    4    0    0  0.83340940941E+01  0.27071381119E+01 -0.25281684087E+01  0.91207665045E+01  0.10500000000E+00 0. -1.
    3000001    1    5    5    0    0 -0.49394323601E+02 -0.11458029404E+02  0.17937355635E+02  0.53794371164E+02  0.10000000000E+01 0. -1.
        -13    1    6    6    0    0 -0.31574853660E+01 -0.13383051696E+01  0.34110422684E+01  0.48380790527E+01  0.10500000000E+00 0.  1.
         13    1    6    6    0    0 -0.25571393054E+01 -0.95558200218E+00  0.27376615266E+01  0.38675462537E+01  0.10500000000E+00 0. -1.
</event>
<event>
11    0  0.3422856E-009  0.9118800E+02  0.7816531E-02  0.1126479E+00
         25   -1    0    0    0    0  0.00000000000E+00  0.00000000000E+00  0.99999998245E-14  0.12500000000E+03  0.12500000000E+03 0.  0.
    3000001    1    3    3    0    0 -0.13378373279E+02  0.21629876679E+02  0.29283905054E+01  0.25620458772E+02  0.10000000000E+01 0.  1.
    1000022    2    1    0    0    0 -0.25543846101E+02  0.53652575970E+02  0.16588051075E+02  0.62500003587E+02  0.10000001404E+02 0.  0.
    3000022    2    3    3    0    0 -0.12165472822E+02  0.32022699291E+02  0.13659660569E+02  0.36879544815E+02  0.25000005770E+00 0.  0.
    1000022    2    1    0    0    0  0.25543846101E+02 -0.53652575970E+02 -0.16588051075E+02  0.62499996413E+02  0.99999565698E+01 0.  0.
    3000022    2    5    5    0    0  0.71751116458E+01 -0.23306797715E+02 -0.10241232985E+02  0.26450603031E+02  0.25000160060E+00 0.  0.
        -13    1    4    4    0    0 -0.77390526065E+01  0.20248603884E+02  0.86006909742E+01  0.23321273652E+02  0.10500000000E+00 0.  1.
         13    1    4    4    0    0 -0.44264202153E+01  0.11774095406E+02  0.50589695949E+01  0.13558271163E+02  0.10500000000E+00 0. -1.
    3000001    1    5    5    0    0  0.18368734455E+02 -0.30345778255E+02 -0.63468180899E+01  0.36049393383E+02  0.10000000000E+01 0. -1.
        -13    1    6    6    0    0  0.53844687107E+01 -0.17438606375E+02 -0.76889474294E+01  0.19804757842E+02  0.10500000000E+00 0.  1.
         13    1    6    6    0    0  0.17906429350E+01 -0.58681913395E+01 -0.25522855552E+01  0.66458451887E+01  0.10500000000E+00 0. -1.
</event>
<event>
11    0  0.3422856E-009  0.9118800E+02  0.7816531E-02  0.1126479E+00
         25   -1    0    0    0    0  0.00000000000E+00  0.00000000000E+00  0.99999998245E-14  0.12500000000E+03  0.12500000000E+03 0.  0.
    3000001    1    3    3    0    0 -0.17344737933E+02 -0.10881554290E+02  0.14407315862E+02  0.25056314735E+02  0.10000000000E+01 0. -1.
    1000022    2    1    0    0    0 -0.36163793456E+02 -0.22614231164E+02  0.44576080009E+02  0.62499997628E+02  0.99999693147E+01 0.  0.
    3000022    2    3    3    0    0 -0.18819055523E+02 -0.11732676873E+02  0.30168764147E+02  0.37443682894E+02  0.25000214056E+00 0.  0.
    1000022    2    1    0    0    0  0.36163793456E+02  0.22614231164E+02 -0.44576080009E+02  0.62500002372E+02  0.99999989604E+01 0.  0.
    3000022    2    5    5    0    0  0.25461315210E+02  0.20801556227E+02 -0.34442655686E+02  0.47616618363E+02  0.24999985985E+00 0.  0.
        -13    1    4    4    0    0 -0.11272536000E+02 -0.70150995482E+01  0.18166523377E+02  0.22501450756E+02  0.10500000000E+00 0. -1.
         13    1    4    4    0    0 -0.75465195229E+01 -0.47175773253E+01  0.12002240771E+02  0.14942232137E+02  0.10500000000E+00 0.  1.
    3000001    1    5    5    0    0  0.10702478247E+02  0.18126749367E+01 -0.10133424323E+02  0.14883384008E+02  0.10000000000E+01 0.  1.
        -13    1    6    6    0    0  0.10125112769E+02  0.82383681045E+01 -0.13757182430E+02  0.18964696439E+02  0.10500000000E+00 0.  1.
         13    1    6    6    0    0  0.15336202440E+02  0.12563188122E+02 -0.20685473257E+02  0.28651921924E+02  0.10500000000E+00 0. -1.
</event>
<event>
11    0  0.3422856E-009  0.9118800E+02  0.7816531E-02  0.1126479E+00
         25   -1    0    0    0    0  0.00000000000E+00  0.00000000000E+00  0.99999998245E-14  0.12500000000E+03  0.12500000000E+03 0.  0.
    3000001    1    3    3    0    0 -0.15424063889E+02  0.15202972209E+02 -0.57254064702E+02  0.61221401778E+02  0.10000000000E+01 0.  1.
    1000022    2    1    0    0    0 -0.14911715977E+02  0.14432083967E+02 -0.58099968249E+02  0.62500004271E+02  0.99999951155E+01 0.  0.
    3000022    2    3    3    0    0  0.51234791121E+00 -0.77088824182E+00 -0.84590354687E+00  0.12786024923E+01  0.25000491849E+00 0.  0.
    1000022    2    1    0    0    0  0.14911715977E+02 -0.14432083967E+02  0.58099968249E+02  0.62499995729E+02  0.99999417329E+01 0.  0.
    3000022    2    5    5    0    0  0.74300418524E+01 -0.11016913237E+02  0.45650017001E+02  0.47545393598E+02  0.25000208805E+00 0.  0.
        -13    1    4    4    0    0  0.37871197117E+00 -0.60390233020E+00 -0.63333538655E+00  0.95930156541E+00  0.10500000000E+00 0.  1.
         13    1    4    4    0    0  0.13363594004E+00 -0.16698591161E+00 -0.21256816033E+00  0.31930092692E+00  0.10500000000E+00 0. -1.
    3000001    1    5    5    0    0  0.74816741249E+01 -0.34151707300E+01  0.12449951248E+02  0.14954602131E+02  0.10000000000E+01 0.  1.
        -13    1    6    6    0    0  0.20274147423E+01 -0.30724998446E+01  0.12687696501E+02  0.13211333519E+02  0.10500000000E+00 0. -1.
         13    1    6    6    0    0  0.54026271101E+01 -0.79444133925E+01  0.32962320499E+02  0.34334060080E+02  0.10500000000E+00 0.  1.
</event>
<event>
11    0  0.3422856E-009  0.9118800E+02  0.7816531E-02  0.1126479E+00
         25   -1    0    0    0    0  0.00000000000E+00  0.00000000000E+00  0.99999998245E-14  0.12500000000E+03  0.12500000000E+03 0.  0.
    3000001    1    3    3    0    0  0.67678698456E+01  0.13729535125E+02 -0.16038182248E+02  0.22192960298E+02  0.10000000000E+01 0.  1.
    1000022    2    1    0    0    0  0.16605192280E+02  0.27858502718E+02 -0.52482581082E+02  0.62499998574E+02  0.99999960181E+01 0.  0.
    3000022    2    3    3    0    0  0.98373224340E+01  0.14128967593E+02 -0.36444398834E+02  0.40307038276E+02  0.24998046560E+00 0.  0.
    1000022    2    1    0    0    0 -0.16605192280E+02 -0.27858502718E+02  0.52482581082E+02  0.62500001426E+02  0.10000013845E+02 0.  0.
    3000022    2    5    5    0    0 -0.15622493197E+02 -0.17656497627E+02  0.38250253688E+02  0.44932823268E+02  0.24999511129E+00 0.  0.
        -13    1    4    4    0    0  0.27016962744E+01  0.38170952171E+01 -0.99143085399E+01  0.10962386487E+02  0.10500000000E+00 0.  1.
         13    1    4    4    0    0  0.71356261596E+01  0.10311872376E+02 -0.26530090294E+02  0.29344651789E+02  0.10500000000E+00 0. -1.
    3000001    1    5    5    0    0 -0.98269908299E+00 -0.10202005091E+02  0.14232327395E+02  0.17567178158E+02  0.10000000000E+01 0. -1.
        -13    1    6    6    0    0 -0.39573535011E+01 -0.44891410743E+01  0.96602419164E+01  0.11364168830E+02  0.10500000000E+00 0.  1.
         13    1    6    6    0    0 -0.11665139695E+02 -0.13167356552E+02  0.28590011771E+02  0.33568654438E+02  0.10500000000E+00 0. -1.
</event>
<event>
11    0  0.3422856E-009  0.9118800E+02  0.7816531E-02  0.1126479E+00
         25   -1    0    0    0    0  0.00000000000E+00  0.00000000000E+00  0.99999998245E-14  0.12500000000E+03  0.12500000000E+03 0.  0.
    3000001    1    3    3    0    0 -0.20185550844E+02  0.23959011730E+02  0.47878455217E+02  0.57226193128E+02  0.10000000000E+01 0.  1.
    1000022    2    1    0    0    0 -0.23832535476E+02  0.27079197882E+02  0.50049747160E+02  0.62499999318E+02  0.10000000942E+02 0.  0.
    3000022    2    3    3    0    0 -0.36469846320E+01  0.31201861519E+01  0.21712919425E+01  0.52738061897E+01  0.24992898762E+00 0.  0.
    1000022    2    1    0    0    0  0.23832535476E+02 -0.27079197882E+02 -0.50049747160E+02  0.62500000682E+02  0.10000009467E+02 0.  0.
    3000022    2    5    5    0    0  0.11343393915E+02 -0.20032805229E+02 -0.32136758737E+02  0.39532513649E+02  0.25000495195E+00 0.  0.
        -13    1    4    4    0    0 -0.97963114306E+00  0.87858159939E+00  0.62017632172E+00  0.14585014478E+01  0.10500000000E+00 0. -1.
         13    1    4    4    0    0 -0.26673534889E+01  0.22416045525E+01  0.15511156207E+01  0.38153047419E+01  0.10500000000E+00 0.  1.
    3000001    1    5    5    0    0  0.12489141561E+02 -0.70463926533E+01 -0.17912988423E+02  0.22967487033E+02  0.10000000000E+01 0.  1.
        -13    1    6    6    0    0  0.71965355541E+01 -0.12769165281E+02 -0.20547489165E+02  0.25239889896E+02  0.10500000000E+00 0. -1.
         13    1    6    6    0    0  0.41468583611E+01 -0.72636399479E+01 -0.11589269572E+02  0.14292623754E+02  0.10500000000E+00 0.  1.
</event>
<event>
11    0  0.3422856E-009  0.9118800E+02  0.7816531E-02  0.1126479E+00
         25   -1    0    0    0    0  0.00000000000E+00  0.00000000000E+00  0.99999998245E-14  0.12500000000E+03  0.12500000000E+03 0.  0.
    3000001    1    3    3    0    0  0.14550353523E+01  0.14855639564E+01 -0.74758995449E+00  0.24254729199E+01  0.10000000000E+01 0. -1.
    1000022    2    1    0    0    0  0.26201880025E+02  0.52288904512E+02  0.19636240468E+02  0.62499999673E+02  0.99999983751E+01 0.  0.
    3000022    2    3    3    0    0  0.24746844673E+02  0.50803340555E+02  0.20383830423E+02  0.60074526753E+02  0.24997811614E+00 0.  0.
    1000022    2    1    0    0    0 -0.26201880025E+02 -0.52288904512E+02 -0.19636240468E+02  0.62500000327E+02  0.10000002463E+02 0.  0.
    3000022    2    5    5    0    0 -0.13689132062E+02 -0.28761469072E+02 -0.55240339155E+01  0.32329427682E+02  0.25000746029E+00 0.  0.
        -13    1    4    4    0    0  0.93754644612E+01  0.19234139814E+02  0.77825418267E+01  0.22769067845E+02  0.10500000000E+00 0.  1.
         13    1    4    4    0    0  0.15371380211E+02  0.31569200742E+02  0.12601288596E+02  0.37305458908E+02  0.10500000000E+00 0. -1.
    3000001    1    5    5    0    0 -0.12512747963E+02 -0.23527435440E+02 -0.14112206553E+02  0.30170572645E+02  0.10000000000E+01 0.  1.
        -13    1    6    6    0    0 -0.63341880731E+01 -0.13154366091E+02 -0.25425966096E+01  0.14820091373E+02  0.10500000000E+00 0.  1.
         13    1    6    6    0    0 -0.73549439892E+01 -0.15607102981E+02 -0.29814373059E+01  0.17509336308E+02  0.10500000000E+00 0. -1.
</event>
<event>
11    0  0.3422856E-009  0.9118800E+02  0.7816531E-02  0.1126479E+00
         25   -1    0    0    0    0  0.00000000000E+00  0.00000000000E+00  0.99999998245E-14  0.12500000000E+03  0.12500000000E+03 0.  0.
    3000001    1    3    3    0    0 -0.24468260689E+01  0.22122591740E+02 -0.14127785441E+02  0.26381628922E+02  0.10000000000E+01 0. -1.
    1000022    2    1    0    0    0 -0.33798681098E+01  0.57075264546E+02 -0.23178445955E+02  0.62500001824E+02  0.10000026982E+02 0.  0.
    3000022    2    3    3    0    0 -0.93304204097E+00  0.34952672806E+02 -0.90506605141E+01  0.36118372902E+02  0.25000322295E+00 0.  0.
    1000022    2    1    0    0    0  0.33798681098E+01 -0.57075264546E+02  0.23178445955E+02  0.62499998176E+02  0.10000004187E+02 0.  0.
    3000022    2    5    5    0    0 -0.77959864756E+00 -0.47965713585E+02  0.18805495429E+02  0.51526950345E+02  0.24999944372E+00 0.  0.
        -13    1    4    4    0    0 -0.66057873917E+00  0.24448655563E+02 -0.62839345383E+01  0.25252167856E+02  0.10500000000E+00 0.  1.
         13    1    4    4    0    0 -0.27246330179E+00  0.10504017242E+02 -0.27667259757E+01  0.10866205046E+02  0.10500000000E+00 0. -1.
    3000001    1    5    5    0    0  0.41594667574E+01 -0.91095509611E+01  0.43729505258E+01  0.10973047832E+02  0.10000000000E+01 0.  1.
        -13    1    6    6    0    0 -0.50076360992E+00 -0.33003319492E+02  0.12903061015E+02  0.35439665210E+02  0.10500000000E+00 0.  1.
         13    1    6    6    0    0 -0.27883503764E+00 -0.14962394093E+02  0.59024344142E+01  0.16087285134E+02  0.10500000000E+00 0. -1.
</event>
<event>
11    0  0.3422856E-009  0.9118800E+02  0.7816531E-02  0.1126479E+00
         25   -1    0    0    0    0  0.00000000000E+00  0.00000000000E+00  0.99999998245E-14  0.12500000000E+03  0.12500000000E+03 0.  0.
    3000001    1    3    3    0    0 -0.10418902570E+02 -0.12820790351E+01 -0.34646091353E+02  0.36215313107E+02  0.10000000000E+01 0.  1.
    1000022    2    1    0    0    0 -0.25018483834E+02  0.96404133714E+00 -0.56386133399E+02  0.62499999855E+02  0.10000001652E+02 0.  0.
    3000022    2    3    3    0    0 -0.14599581264E+02  0.22461203722E+01 -0.21740042047E+02  0.26284686748E+02  0.24999883311E+00 0.  0.
    1000022    2    1    0    0    0  0.25018483834E+02 -0.96404133714E+00  0.56386133399E+02  0.62500000145E+02  0.10000003467E+02 0.  0.
    3000022    2    5    5    0    0  0.10498371187E+02  0.35548422526E+01  0.17297164918E+02  0.20545245502E+02  0.24999506788E+00 0.  0.
        -13    1    4    4    0    0 -0.10186823312E+02  0.16018293156E+01 -0.15231214258E+02  0.18393970184E+02  0.10500000000E+00 0.  1.
         13    1    4    4    0    0 -0.44127579527E+01  0.64429105663E+00 -0.65088277881E+01  0.78907165638E+01  0.10500000000E+00 0. -1.
    3000001    1    5    5    0    0  0.14520112647E+02 -0.45188835897E+01  0.39088968482E+02  0.41954754643E+02  0.10000000000E+01 0. -1.
        -13    1    6    6    0    0  0.61384804777E+01  0.21379122483E+01  0.10200482155E+02  0.12095969269E+02  0.10500000000E+00 0.  1.
         13    1    6    6    0    0  0.43598907094E+01  0.14169300043E+01  0.70966827628E+01  0.84492762335E+01  0.10500000000E+00 0. -1.
</event>
<event>
11    0  0.3422856E-009  0.9118800E+02  0.7816531E-02  0.1126479E+00
         25   -1    0    0    0    0  0.00000000000E+00  0.00000000000E+00  0.99999998245E-14  0.12500000000E+03  0.12500000000E+03 0.  0.
    3000001    1    3    3    0    0  0.56263789876E+01 -0.46081680738E+01  0.79275793469E+01  0.10804529967E+02  0.10000000000E+01 0.  1.
    1000022    2    1    0    0    0  0.45132620186E+02 -0.30310195073E+02  0.29164849218E+02  0.62499998136E+02  0.10000000344E+02 0.  0.
    3000022    2    3    3    0    0  0.39506241198E+02 -0.25702026999E+02  0.21237269871E+02  0.51695468169E+02  0.25002427993E+00 0.  0.
    1000022    2    1    0    0    0 -0.45132620186E+02  0.30310195073E+02 -0.29164849218E+02  0.62500001864E+02  0.10000023647E+02 0.  0.
    3000022    2    5    5    0    0 -0.36675703301E+02  0.22070367793E+02 -0.26533630773E+02  0.50361735625E+02  0.25001199016E+00 0.  0.
        -13    1    4    4    0    0  0.20274519443E+02 -0.13233579651E+02  0.10972294736E+02  0.26581686286E+02  0.10500000000E+00 0. -1.
         13    1    4    4    0    0  0.19231721755E+02 -0.12468447348E+02  0.10264975135E+02  0.25113781883E+02  0.10500000000E+00 0.  1.
    3000001    1    5    5    0    0 -0.84569168847E+01  0.82398272798E+01 -0.26312184449E+01  0.12138266240E+02  0.10000000000E+01 0.  1.
        -13    1    6    6    0    0 -0.89602630650E+01  0.54059944578E+01 -0.64642905808E+01  0.12300779162E+02  0.10500000000E+00 0. -1.
         13    1    6    6    0    0 -0.27715440236E+02  0.16664373336E+02 -0.20069340192E+02  0.38060956463E+02  0.10500000000E+00 0.  1.
</event>
<event>
11    0  0.3422856E-009  0.9118800E+02  0.7816531E-02  0.1126479E+00
         25   -1    0    0    0    0  0.00000000000E+00  0.00000000000E+00  0.99999998245E-14  0.12500000000E+03  0.12500000000E+03 0.  0.
    3000001    1    3    3    0    0  0.50024798701E+01  0.45018415548E+01  0.61810481607E+00  0.68317959424E+01  0.10000000000E+01 0. -1.
    1000022    2    1    0    0    0  0.34252918945E+02  0.41414940408E+02  0.30295054549E+02  0.62499999595E+02  0.99999937001E+01 0.  0.
    3000022    2    3    3    0    0  0.29250439075E+02  0.36913098853E+02  0.29676949733E+02  0.55668203653E+02  0.24999886786E+00 0.  0.
    1000022    2    1    0    0    0 -0.34252918945E+02 -0.41414940408E+02 -0.30295054549E+02  0.62500000405E+02  0.99999987596E+01 0.  0.
    3000022    2    5    5    0    0 -0.20406568472E+02 -0.25255951303E+02 -0.23696864180E+02  0.40198196297E+02  0.25000107362E+00 0.  0.
        -13    1    4    4    0    0  0.12992326714E+02  0.16297765911E+02  0.13102547952E+02  0.24619210283E+02  0.10500000000E+00 0.  1.
         13    1    4    4    0    0  0.16258112361E+02  0.20615332942E+02  0.16574401781E+02  0.31048993370E+02  0.10500000000E+00 0. -1.
    3000001    1    5    5    0    0 -0.13846350473E+02 -0.16158989105E+02 -0.65981903695E+01  0.22301804108E+02  0.10000000000E+01 0.  1.
        -13    1    6    6    0    0 -0.49704829259E+01 -0.61826147198E+01 -0.57754070519E+01  0.98130921174E+01  0.10500000000E+00 0. -1.
         13    1    6    6    0    0 -0.15436085546E+02 -0.19073336583E+02 -0.17921457128E+02  0.30385104180E+02  0.10500000000E+00 0.  1.
</event>
<event>
11    0  0.3422856E-009  0.9118800E+02  0.7816531E-02  0.1126479E+00
         25   -1    0    0    0    0  0.00000000000E+00  0.00000000000E+00  0.99999998245E-14  0.12500000000E+03  0.12500000000E+03 0.  0.
    3000001    1    3    3    0    0 -0.77860142066E+01  0.23723436368E+02  0.31172659406E+02  0.39951947947E+02  0.10000000000E+01 0.  1.
    1000022    2    1    0    0    0 -0.47380735320E+01  0.37146557493E+02  0.49029926551E+02  0.62499999120E+02  0.10000005900E+02 0.  0.
    3000022    2    3    3    0    0  0.30479406746E+01  0.13423121125E+02  0.17857267145E+02  0.22548051172E+02  0.24999740576E+00 0.  0.
    1000022    2    1    0    0    0  0.47380735320E+01 -0.37146557493E+02 -0.49029926551E+02  0.62500000880E+02  0.10000016905E+02 0.  0.
    3000022    2    5    5    0    0 -0.28754326522E+01 -0.10182251179E+02 -0.15884724774E+02  0.19087517742E+02  0.25000079876E+00 0.  0.
        -13    1    4    4    0    0  0.18824395220E+01  0.80618648625E+01  0.10800558781E+02  0.13608833109E+02  0.10500000000E+00 0. -1.
         13    1    4    4    0    0  0.11655011526E+01  0.53612562620E+01  0.70567083640E+01  0.89392180630E+01  0.10500000000E+00 0.  1.
    3000001    1    5    5    0    0  0.76135061843E+01 -0.26964306314E+02 -0.33145201777E+02  0.43412483138E+02  0.10000000000E+01 0. -1.
        -13    1    6    6    0    0 -0.89127199541E+00 -0.30491514528E+01 -0.47068108262E+01  0.56795055688E+01  0.10500000000E+00 0. -1.
         13    1    6    6    0    0 -0.19841606568E+01 -0.71330997259E+01 -0.11177913948E+02  0.13408012173E+02  0.10500000000E+00 0.  1.
</event>
<event>
11    0  0.3422856E-009  0.9118800E+02  0.7816531E-02  0.1126479E+00
         25   -1    0    0    0    0  0.00000000000E+00  0.00000000000E+00  0.99999998245E-14  0.12500000000E+03  0.12500000000E+03 0.  0.
    3000001    1    3    3    0    0 -0.69382105885E+00 -0.17191509952E+02 -0.17003434135E+02  0.24210455892E+02  0.10000000000E+01 0. -1.
    1000022    2    1    0    0    0  0.71941204363E+01 -0.37263519579E+02 -0.48640775960E+02  0.62499998612E+02  0.99999740130E+01 0.  0.
    3000022    2    3    3    0    0  0.78879414951E+01 -0.20072009627E+02 -0.31637341825E+02  0.38289542720E+02  0.24998501069E+00 0.  0.
    1000022    2    1    0    0    0 -0.71941204363E+01  0.37263519579E+02  0.48640775960E+02  0.62500001388E+02  0.99999913670E+01 0.  0.
    3000022    2    5    5    0    0 -0.90108344182E+01  0.31647279776E+02  0.43898760124E+02  0.54862638401E+02  0.24999553123E+00 0.  0.
        -13    1    4    4    0    0  0.30322545891E+01 -0.78554518551E+01 -0.12415454210E+02  0.15001907211E+02  0.10500000000E+00 0.  1.
         13    1    4    4    0    0  0.48556869060E+01 -0.12216557772E+02 -0.19221887615E+02  0.23287635509E+02  0.10500000000E+00 0. -1.
    3000001    1    5    5    0    0  0.18167139820E+01  0.56162398026E+01  0.47420158355E+01  0.76373629871E+01  0.10000000000E+01 0.  1.
        -13    1    6    6    0    0 -0.39440961884E+01  0.14023525161E+02  0.19512800767E+02  0.24351089739E+02  0.10500000000E+00 0.  1.
         13    1    6    6    0    0 -0.50667382299E+01  0.17623754615E+02  0.24385959357E+02  0.30511548662E+02  0.10500000000E+00 0. -1.
</event>
<event>
11    0  0.3422856E-009  0.9118800E+02  0.7816531E-02  0.1126479E+00
         25   -1    0    0    0    0  0.00000000000E+00  0.00000000000E+00  0.99999998245E-14  0.12500000000E+03  0.12500000000E+03 0.  0.
    3000001    1    3    3    0    0 -0.14048096747E+02 -0.23602173890E+02 -0.40829248329E+01  0.27786361938E+02  0.10000000000E+01 0. -1.
    1000022    2    1    0    0    0 -0.21314513734E+02 -0.57001715195E+02 -0.10136358603E+02  0.62500000952E+02  0.10000016119E+02 0.  0.
    3000022    2    3    3    0    0 -0.72664169870E+01 -0.33399541305E+02 -0.60534337704E+01  0.34713639014E+02  0.24999597853E+00 0.  0.
    1000022    2    1    0    0    0  0.21314513734E+02  0.57001715195E+02  0.10136358603E+02  0.62499999048E+02  0.10000004214E+02 0.  0.
    3000022    2    5    5    0    0  0.11796862404E+01  0.29818749143E+01  0.30048575751E+01  0.44016967564E+01  0.25005531143E+00 0.  0.
        -13    1    4    4    0    0 -0.27752374016E+01 -0.12578084783E+02 -0.22333581134E+01  0.13073219684E+02  0.10500000000E+00 0. -1.
         13    1    4    4    0    0 -0.44911795854E+01 -0.20821456522E+02 -0.38200756571E+01  0.21640419330E+02  0.10500000000E+00 0.  1.
    3000001    1    5    5    0    0  0.20134827494E+02  0.54019840281E+02  0.71315010283E+01  0.58098302291E+02  0.10000000000E+01 0. -1.
        -13    1    6    6    0    0  0.56582972945E+00  0.15872556618E+01  0.16256330081E+01  0.23437686523E+01  0.10500000000E+00 0.  1.
         13    1    6    6    0    0  0.61385651100E+00  0.13946192524E+01  0.13792245670E+01  0.20579281041E+01  0.10500000000E+00 0. -1.
</event>
<event>
11    0  0.3422856E-009  0.9118800E+02  0.7816531E-02  0.1126479E+00
         25   -1    0    0    0    0  0.00000000000E+00  0.00000000000E+00  0.99999998245E-14  0.12500000000E+03  0.12500000000E+03 0.  0.
    3000001    1    3    3    0    0  0.37324967933E+02  0.18935226104E+02  0.12978083107E+02  0.43830658904E+02  0.10000000000E+01 0.  1.
    1000022    2    1    0    0    0  0.52740438175E+02  0.22317523817E+02  0.22948296332E+02  0.62500000474E+02  0.10000003322E+02 0.  0.
    3000022    2    3    3    0    0  0.15415470242E+02  0.33822977123E+01  0.99702132248E+01  0.18669341569E+02  0.25000458572E+00 0.  0.
    1000022    2    1    0    0    0 -0.52740438175E+02 -0.22317523817E+02 -0.22948296332E+02  0.62499999526E+02  0.99999973997E+01 0.  0.
    3000022    2    5    5    0    0 -0.19603779954E+02 -0.76871585842E+01 -0.34137790480E+01  0.21333471005E+02  0.25000435396E+00 0.  0.
        -13    1    4    4    0    0  0.53310202939E+01  0.11205334847E+01  0.34082413014E+01  0.64267026097E+01  0.10500000000E+00 0.  1.
         13    1    4    4    0    0  0.10084449948E+02  0.22617642276E+01  0.65619719234E+01  0.12242638960E+02  0.10500000000E+00 0. -1.
    3000001    1    5    5    0    0 -0.33136658222E+02 -0.14630365232E+02 -0.19534517284E+02  0.41166528521E+02  0.10000000000E+01 0.  1.
        -13    1    6    6    0    0 -0.12525667748E+02 -0.49521493055E+01 -0.21386863569E+01  0.13638223477E+02  0.10500000000E+00 0.  1.
         13    1    6    6    0    0 -0.70781122061E+01 -0.27350092787E+01 -0.12750926911E+01  0.76952475287E+01  0.10500000000E+00 0. -1.
</event>
<event>
11    0  0.3422856E-009  0.9118800E+02  0.7816531E-02  0.1126479E+00
         25   -1    0    0    0    0  0.00000000000E+00  0.00000000000E+00  0.99999998245E-14  0.12500000000E+03  0.12500000000E+03 0.  0.
    3000001    1    3    3    0    0 -0.18159146097E+01 -0.12699643016E+01  0.14920684336E+00  0.24356965901E+01  0.10000000000E+01 0. -1.
    1000022    2    1    0    0    0 -0.26008783819E+02 -0.46580556231E+02 -0.30984591515E+02  0.62500000391E+02  0.10000004149E+02 0.  0.
    3000022    2    3    3    0    0 -0.24192869209E+02 -0.45310591930E+02 -0.31133798359E+02  0.60064303801E+02  0.25005856929E+00 0.  0.
    1000022    2    1    0    0    0  0.26008783819E+02  0.46580556231E+02  0.30984591515E+02  0.62499999609E+02  0.99999992584E+01 0.  0.
    3000022    2    5    5    0    0  0.37886625074E+01  0.27872678729E+01  0.61168752191E+00  0.47496819185E+01  0.24998182285E+00 0.  0.
        -13    1    4    4    0    0 -0.85103386494E+01 -0.16026972586E+02 -0.11045051328E+02  0.21243679014E+02  0.10500000000E+00 0.  1.
         13    1    4    4    0    0 -0.15682530560E+02 -0.29283619343E+02 -0.20088747030E+02  0.38820624787E+02  0.10500000000E+00 0. -1.
    3000001    1    5    5    0    0  0.22220121312E+02  0.43793288358E+02  0.30372903993E+02  0.57750317690E+02  0.10000000000E+01 0. -1.
        -13    1    6    6    0    0  0.14849993795E+01  0.11474473413E+01  0.28927587451E+00  0.19017266075E+01  0.10500000000E+00 0. -1.
         13    1    6    6    0    0  0.23036631279E+01  0.16398205316E+01  0.32241164740E+00  0.28479553110E+01  0.10500000000E+00 0.  1.
</event>
<event>
11    0  0.3422856E-009  0.9118800E+02  0.7816531E-02  0.1126479E+00
         25   -1    0    0    0    0  0.00000000000E+00  0.00000000000E+00  0.99999998245E-14  0.12500000000E+03  0.12500000000E+03 0.  0.
    3000001    1    3    3    0    0 -0.17532504094E+02  0.10966738617E+02 -0.89681012628E+01  0.22562909740E+02  0.10000000000E+01 0.  1.
    1000022    2    1    0    0    0 -0.45971419890E+02  0.22121327226E+02 -0.34691864360E+02  0.62500000732E+02  0.10000003688E+02 0.  0.
    3000022    2    3    3    0    0 -0.28438915797E+02  0.11154588609E+02 -0.25723763097E+02  0.39937090992E+02  0.24994054779E+00 0.  0.
    1000022    2    1    0    0    0  0.45971419890E+02 -0.22121327226E+02  0.34691864360E+02  0.62499999268E+02  0.99999945392E+01 0.  0.
    3000022    2    5    5    0    0  0.29305624543E+02 -0.99000596748E+01  0.17124127177E+02  0.35357164029E+02  0.25001029779E+00 0.  0.
        -13    1    4    4    0    0 -0.87983665407E+01  0.34962851025E+01 -0.79417675953E+01  0.12357910861E+02  0.10500000000E+00 0. -1.
         13    1    4    4    0    0 -0.19640549256E+02  0.76583035069E+01 -0.17781995502E+02  0.27579180131E+02  0.10500000000E+00 0.  1.
    3000001    1    5    5    0    0  0.16665795347E+02 -0.12221267552E+02  0.17567737182E+02  0.27142835239E+02  0.10000000000E+01 0. -1.
        -13    1    6    6    0    0  0.21479609891E+02 -0.72755427512E+01  0.12520595799E+02  0.25905279531E+02  0.10500000000E+00 0. -1.
         13    1    6    6    0    0  0.78260146518E+01 -0.26245169237E+01  0.46035313781E+01  0.94518844979E+01  0.10500000000E+00 0.  1.
</event>
<event>
11    0  0.3422856E-009  0.9118800E+02  0.7816531E-02  0.1126479E+00
         25   -1    0    0    0    0  0.00000000000E+00  0.00000000000E+00  0.99999998245E-14  0.12500000000E+03  0.12500000000E+03 0.  0.
    3000001    1    3    3    0    0  0.20574948526E+02 -0.74980214426E+01 -0.15073248610E+02  0.26603602313E+02  0.10000000000E+01 0.  1.
    1000022    2    1    0    0    0  0.52892153426E+02 -0.82088996780E+01 -0.30680354087E+02  0.62499999365E+02  0.99999932868E+01 0.  0.
    3000022    2    3    3    0    0  0.32317204900E+02 -0.71087823542E+00 -0.15607105477E+02  0.35896397051E+02  0.24999895156E+00 0.  0.
    1000022    2    1    0    0    0 -0.52892153426E+02  0.82088996780E+01  0.30680354087E+02  0.62500000635E+02  0.10000001229E+02 0.  0.
    3000022    2    5    5    0    0 -0.23375890437E+02  0.17686334991E+01  0.18686665431E+02  0.29980231619E+02  0.25000968631E+00 0.  0.
        -13    1    4    4    0    0  0.13342432802E+02 -0.23598501661E+00 -0.64112100552E+01  0.14805095115E+02  0.10500000000E+00 0. -1.
         13    1    4    4    0    0  0.18974772098E+02 -0.47489321881E+00 -0.91958954220E+01  0.21091301936E+02  0.10500000000E+00 0.  1.
    3000001    1    5    5    0    0 -0.29516262989E+02  0.64402661789E+01  0.11993688656E+02  0.32519769016E+02  0.10000000000E+01 0.  1.
        -13    1    6    6    0    0 -0.89679799608E+01  0.66184036336E+00  0.70928272865E+01  0.11453467648E+02  0.10500000000E+00 0.  1.
         13    1    6    6    0    0 -0.14407910476E+02  0.11067931357E+01  0.11593838144E+02  0.18526763971E+02  0.10500000000E+00 0. -1.
</event>
<event>
11    0  0.3422856E-009  0.9118800E+02  0.7816531E-02  0.1126479E+00
         25   -1    0    0    0    0  0.00000000000E+00  0.00000000000E+00  0.99999998245E-14  0.12500000000E+03  0.12500000000E+03 0.  0.
    3000001    1    3    3    0    0  0.18276403266E+02  0.27800808218E+02 -0.33773659507E+02  0.47419109338E+02  0.10000000000E+01 0. -1.
    1000022    2    1    0    0    0  0.23882267764E+02  0.40224916669E+02 -0.40222423713E+02  0.62500000467E+02  0.10000002721E+02 0.  0.
    3000022    2    3    3    0    0  0.56058644983E+01  0.12424108452E+02 -0.64487642059E+01  0.15080891129E+02  0.25005974346E+00 0.  0.
    1000022    2    1    0    0    0 -0.23882267764E+02 -0.40224916669E+02  0.40222423713E+02  0.62499999533E+02  0.99999968826E+01 0.  0.
    3000022    2    5    5    0    0 -0.65194272859E+01 -0.11368665896E+02  0.58017529517E+01  0.14334306204E+02  0.25000131392E+00 0.  0.
        -13    1    4    4    0    0  0.34264314173E+01  0.76591857030E+01 -0.40306429906E+01  0.93091710591E+01  0.10500000000E+00 0.  1.
         13    1    4    4    0    0  0.21794330810E+01  0.47649227485E+01 -0.24181212154E+01  0.57717200700E+01  0.10500000000E+00 0. -1.
    3000001    1    5    5    0    0 -0.17362840478E+02 -0.28856250774E+02  0.34420670762E+02  0.48165693329E+02  0.10000000000E+01 0.  1.
        -13    1    6    6    0    0 -0.19935898626E+01 -0.34156333935E+01  0.17128446460E+01  0.43111267437E+01  0.10500000000E+00 0. -1.
         13    1    6    6    0    0 -0.45258374233E+01 -0.79530325020E+01  0.40889083057E+01  0.10023179460E+02  0.10500000000E+00 0.  1.
</event>
<event>
11    0  0.3422856E-009  0.9118800E+02  0.7816531E-02  0.1126479E+00
         25   -1    0    0    0    0  0.00000000000E+00  0.00000000000E+00  0.99999998245E-14  0.12500000000E+03  0.12500000000E+03 0.  0.
    3000001    1    3    3    0    0 -0.15212069101E+01 -0.18846915198E+00 -0.55908596676E+00  0.19136792320E+01  0.10000000000E+01 0. -1.
    1000022    2    1    0    0    0 -0.51810745297E+02 -0.22432334295E+02  0.24873422914E+02  0.62499999569E+02  0.99999914258E+01 0.  0.
    3000022    2    3    3    0    0 -0.50289538387E+02 -0.22243865143E+02  0.25432508881E+02  0.60586320337E+02  0.24999269836E+00 0.  0.
    1000022    2    1    0    0    0  0.51810745297E+02  0.22432334295E+02 -0.24873422914E+02  0.62500000431E+02  0.99999968170E+01 0.  0.
    3000022    2    5    5    0    0  0.35861988473E+02  0.12673917645E+02 -0.20746506285E+02  0.43326555759E+02  0.25001040885E+00 0.  0.
        -13    1    4    4    0    0 -0.22231077459E+02 -0.97812362978E+01  0.11283921699E+02  0.26781174403E+02  0.10500000000E+00 0. -1.
         13    1    4    4    0    0 -0.28058460928E+02 -0.12462628845E+02  0.14148587181E+02  0.33805145934E+02  0.10500000000E+00 0.  1.
    3000001    1    5    5    0    0  0.15948756824E+02  0.97584166499E+01 -0.41269166289E+01  0.19173444672E+02  0.10000000000E+01 0.  1.
        -13    1    6    6    0    0  0.22792004728E+02  0.80999794426E+01 -0.13147367976E+02  0.27530881864E+02  0.10500000000E+00 0.  1.
         13    1    6    6    0    0  0.13069983745E+02  0.45739382024E+01 -0.75991383086E+01  0.15795673895E+02  0.10500000000E+00 0. -1.
</event>
<event>
11    0  0.3422856E-009  0.9118800E+02  0.7816531E-02  0.1126479E+00
         25   -1    0    0    0    0  0.00000000000E+00  0.00000000000E+00  0.99999998245E-14  0.12500000000E+03  0.12500000000E+03 0.  0.
    3000001    1    3    3    0    0  0.89279036266E+01  0.15923033126E+02 -0.14923637121E+02  0.23600114237E+02  0.10000000000E+01 0. -1.
    1000022    2    1    0    0    0  0.24970850418E+02  0.31769078814E+02 -0.46620087877E+02  0.62499995888E+02  0.99999576558E+01 0.  0.
    3000022    2    3    3    0    0  0.16042946791E+02  0.15846045688E+02 -0.31696450756E+02  0.38899881651E+02  0.24999248346E+00 0.  0.
    1000022    2    1    0    0    0 -0.24970850418E+02 -0.31769078814E+02  0.46620087877E+02  0.62500004112E+02  0.10000009050E+02 0.  0.
    3000022    2    5    5    0    0 -0.17187386180E+02 -0.18336213229E+02  0.34966876394E+02  0.43062372279E+02  0.25000459877E+00 0.  0.
        -13    1    4    4    0    0  0.98529372169E+01  0.97455656508E+01 -0.19584362467E+02  0.23991971571E+02  0.10500000000E+00 0.  1.
         13    1    4    4    0    0  0.61900095746E+01  0.61004800371E+01 -0.12112088289E+02  0.14907910080E+02  0.10500000000E+00 0. -1.
    3000001    1    5    5    0    0 -0.77834642385E+01 -0.13432865585E+02  0.11653211483E+02  0.19437631832E+02  0.10000000000E+01 0.  1.
        -13    1    6    6    0    0 -0.41892557621E+01 -0.44990552725E+01  0.85718584167E+01  0.10548893018E+02  0.10500000000E+00 0.  1.
         13    1    6    6    0    0 -0.12998130418E+02 -0.13837157956E+02  0.26395017977E+02  0.32513479262E+02  0.10500000000E+00 0. -1.
</event>
<event>
11    0  0.3422856E-009  0.9118800E+02  0.7816531E-02  0.1126479E+00
         25   -1    0    0    0    0  0.00000000000E+00  0.00000000000E+00  0.99999998245E-14  0.12500000000E+03  0.12500000000E+03 0.  0.
    3000001    1    3    3    0    0  0.70527756831E+01 -0.26930928065E+02 -0.48678457479E+02  0.56085726828E+02  0.10000000000E+01 0. -1.
    1000022    2    1    0    0    0  0.90442361179E+01 -0.32098426573E+02 -0.51905130042E+02  0.62499997693E+02  0.99999995787E+01 0.  0.
    3000022    2    3    3    0    0  0.19914604348E+01 -0.51674985075E+01 -0.32266725626E+01  0.64142708649E+01  0.24999882619E+00 0.  0.
    1000022    2    1    0    0    0 -0.90442361179E+01  0.32098426573E+02  0.51905130042E+02  0.62500002307E+02  0.10000028417E+02 0.  0.
    3000022    2    5    5    0    0  0.20598050987E+01  0.68009074019E+01  0.91950812572E+01  0.11623559087E+02  0.24993597273E+00 0.  0.
        -13    1    4    4    0    0  0.14075957047E+01 -0.37581659756E+01 -0.23333563223E+01  0.46433515800E+01  0.10500000000E+00 0.  1.
         13    1    4    4    0    0  0.58386473007E+00 -0.14093325319E+01 -0.89331624029E+00  0.17709192849E+01  0.10500000000E+00 0. -1.
    3000001    1    5    5    0    0 -0.11104041217E+02  0.25297519171E+02  0.42710048785E+02  0.50876443220E+02  0.10000000000E+01 0. -1.
        -13    1    6    6    0    0  0.14957218084E+01  0.50196190378E+01  0.67371006596E+01  0.85342433356E+01  0.10500000000E+00 0. -1.
         13    1    6    6    0    0  0.56408329037E+00  0.17812883640E+01  0.24579805975E+01  0.30893157515E+01  0.10500000000E+00 0.  1.
</event>
<event>
11    0  0.3422856E-009  0.9118800E+02  0.7816531E-02  0.1126479E+00
         25   -1    0    0    0    0  0.00000000000E+00  0.00000000000E+00  0.99999998245E-14  0.12500000000E+03  0.12500000000E+03 0.  0.
    3000001    1    3    3    0    0 -0.14892095180E+02  0.25062455608E+02  0.43051439388E+02  0.52003150033E+02  0.10000000000E+01 0. -1.
    1000022    2    1    0    0    0 -0.17759072489E+02  0.33406795411E+02  0.48732445468E+02  0.62500001580E+02  0.10000016045E+02 0.  0.
    3000022    2    3    3    0    0 -0.28669773086E+01  0.83443398027E+01  0.56810060802E+01  0.10496851547E+02  0.24999337297E+00 0.  0.
    1000022    2    1    0    0    0  0.17759072489E+02 -0.33406795411E+02 -0.48732445468E+02  0.62499998420E+02  0.99999962986E+01 0.  0.
    3000022    2    5    5    0    0  0.17131523864E+02 -0.23150268817E+02 -0.35310315099E+02  0.45566489077E+02  0.25003635961E+00 0.  0.
        -13    1    4    4    0    0 -0.14188934800E+01  0.40301127623E+01  0.28217405194E+01  0.51213584275E+01  0.10500000000E+00 0. -1.
         13    1    4    4    0    0 -0.14480838286E+01  0.43142270404E+01  0.28592655608E+01  0.53754931196E+01  0.10500000000E+00 0.  1.
    3000001    1    5    5    0    0  0.62754862436E+00 -0.10256526594E+02 -0.13422130369E+02  0.16933509343E+02  0.10000000000E+01 0. -1.
        -13    1    6    6    0    0  0.11310273323E+02 -0.15238413855E+02 -0.23190953373E+02  0.29966028813E+02  0.10500000000E+00 0.  1.
         13    1    6    6    0    0  0.58212505414E+01 -0.79118549624E+01 -0.12119361726E+02  0.15600460264E+02  0.10500000000E+00 0. -1.
</event>
<event>
11    0  0.3422856E-009  0.9118800E+02  0.7816531E-02  0.1126479E+00
         25   -1    0    0    0    0  0.00000000000E+00  0.00000000000E+00  0.99999998245E-14  0.12500000000E+03  0.12500000000E+03 0.  0.
    3000001    1    3    3    0    0  0.40007946998E+01 -0.56630287618E+01  0.91318858495E+00  0.70647127598E+01  0.10000000000E+01 0.  1.
    1000022    2    1    0    0    0  0.26343942638E+02 -0.53169731321E+02 -0.16888650236E+02  0.62499999478E+02  0.99999892752E+01 0.  0.
    3000022    2    3    3    0    0  0.22343147938E+02 -0.47506702559E+02 -0.17801838821E+02  0.55435286718E+02  0.25000057992E+00 0.  0.
    1000022    2    1    0    0    0 -0.26343942638E+02  0.53169731321E+02  0.16888650236E+02  0.62500000522E+02  0.99999957980E+01 0.  0.
    3000022    2    5    5    0    0 -0.36069064249E+01  0.11791831556E+02  0.72359728072E+01  0.14299610624E+02  0.24999227618E+00 0.  0.
        -13    1    4    4    0    0  0.12705248823E+02 -0.27087002049E+02 -0.10084150594E+02  0.31572617026E+02  0.10500000000E+00 0. -1.
         13    1    4    4    0    0  0.96378991148E+01 -0.20419700510E+02 -0.77176882271E+01  0.23862669692E+02  0.10500000000E+00 0.  1.
    3000001    1    5    5    0    0 -0.22737036213E+02  0.41377899765E+02  0.96526774291E+01  0.48200389898E+02  0.10000000000E+01 0. -1.
        -13    1    6    6    0    0 -0.98294752722E+00  0.31319523534E+01  0.18981168204E+01  0.37933077715E+01  0.10500000000E+00 0.  1.
         13    1    6    6    0    0 -0.26239588977E+01  0.86598792025E+01  0.53378559868E+01  0.10506302853E+02  0.10500000000E+00 0. -1.
</event>
<event>
11    0  0.3422856E-009  0.9118800E+02  0.7816531E-02  0.1126479E+00
         25   -1    0    0    0    0  0.00000000000E+00  0.00000000000E+00  0.99999998245E-14  0.12500000000E+03  0.12500000000E+03 0.  0.
    3000001    1    3    3    0    0  0.43272460885E+02 -0.60873252441E+01 -0.34368568095E+00  0.43711320267E+02  0.10000000000E+01 0.  1.
    1000022    2    1    0    0    0  0.60437307735E+02 -0.10506929387E+02 -0.65716188303E+01  0.62500000898E+02  0.10000010337E+02 0.  0.
    3000022    2    3    3    0    0  0.17164846851E+02 -0.44196041429E+01 -0.62279331493E+01  0.18788680631E+02  0.25000069661E+00 0.  0.
    1000022    2    1    0    0    0 -0.60437307735E+02  0.10506929387E+02  0.65716188303E+01  0.62499999102E+02  0.99999991134E+01 0.  0.
    3000022    2    5    5    0    0 -0.19446924735E+02 -0.12684616660E+01  0.23793458870E+01  0.19634552815E+02  0.25000148927E+00 0.  0.
        -13    1    4    4    0    0  0.11965125605E+02 -0.30652981366E+01 -0.43865650213E+01  0.13107755762E+02  0.10500000000E+00 0.  1.
         13    1    4    4    0    0  0.51997212454E+01 -0.13543060063E+01 -0.18413681280E+01  0.56809248694E+01  0.10500000000E+00 0. -1.
    3000001    1    5    5    0    0 -0.40990383000E+02  0.11775391053E+02  0.41922729433E+01  0.42865446287E+02  0.10000000000E+01 0.  1.
        -13    1    6    6    0    0 -0.64160811387E+01 -0.44067695512E+00  0.73689298193E+00  0.64741277115E+01  0.10500000000E+00 0.  1.
         13    1    6    6    0    0 -0.13030843596E+02 -0.82778471090E+00  0.16424529050E+01  0.13160425104E+02  0.10500000000E+00 0. -1.
</event>
<event>
11    0  0.3422856E-009  0.9118800E+02  0.7816531E-02  0.1126479E+00
         25   -1    0    0    0    0  0.00000000000E+00  0.00000000000E+00  0.99999998245E-14  0.12500000000E+03  0.12500000000E+03 0.  0.
    3000001    1    3    3    0    0 -0.29710934852E+02 -0.53809420833E+01 -0.99795951724E+01  0.31816450263E+02  0.10000000000E+01 0.  1.
    1000022    2    1    0    0    0 -0.59535877973E+02 -0.12581936646E+02 -0.10169772312E+02  0.62499999978E+02  0.99999916319E+01 0.  0.
    3000022    2    3    3    0    0 -0.29824943121E+02 -0.72009945622E+01 -0.19017714003E+00  0.30683549716E+02  0.25000196409E+00 0.  0.
    1000022    2    1    0    0    0  0.59535877973E+02  0.12581936646E+02  0.10169772312E+02  0.62500000022E+02  0.99999919033E+01 0.  0.
    3000022    2    5    5    0    0  0.37059124717E+02  0.61684541808E+01  0.16644298388E+01  0.37606666681E+02  0.25000068476E+00 0.  0.
        -13    1    4    4    0    0 -0.72477656346E+01 -0.17709516529E+01 -0.53977544413E-01  0.74619243514E+01  0.10500000000E+00 0.  1.
         13    1    4    4    0    0 -0.22577177486E+02 -0.54300429093E+01 -0.13619959562E+00  0.23221625364E+02  0.10500000000E+00 0. -1.
    3000001    1    5    5    0    0  0.22476753256E+02  0.64134824647E+01  0.85053424736E+01  0.24893333341E+02  0.10000000000E+01 0. -1.
        -13    1    6    6    0    0  0.25430316617E+02  0.42828000591E+01  0.11430356530E+01  0.25813967829E+02  0.10500000000E+00 0. -1.
         13    1    6    6    0    0  0.11628808100E+02  0.18856541217E+01  0.52139418584E+00  0.11792698851E+02  0.10500000000E+00 0.  1.
</event>
<event>
11    0  0.3422856E-009  0.9118800E+02  0.7816531E-02  0.1126479E+00
         25   -1    0    0    0    0  0.00000000000E+00  0.00000000000E+00  0.99999998245E-14  0.12500000000E+03  0.12500000000E+03 0.  0.
    3000001    1    3    3    0    0  0.15925123791E+02  0.20471596117E+02 -0.96211922699E+01  0.27681458705E+02  0.10000000000E+01 0.  1.
    1000022    2    1    0    0    0  0.26732629224E+02  0.52008639665E+02 -0.19665145440E+02  0.62499999562E+02  0.99999967516E+01 0.  0.
    3000022    2    3    3    0    0  0.10807505433E+02  0.31537043549E+02 -0.10043953170E+02  0.34818540858E+02  0.25000539042E+00 0.  0.
    1000022    2    1    0    0    0 -0.26732629224E+02 -0.52008639665E+02  0.19665145440E+02  0.62500000438E+02  0.10000002225E+02 0.  0.
    3000022    2    5    5    0    0 -0.16410000562E+01 -0.86884062390E+01  0.56769989467E+01  0.10510571505E+02  0.25002434440E+00 0.  0.
        -13    1    4    4    0    0  0.58141257984E+01  0.17164945889E+02 -0.54412605728E+01  0.18922414428E+02  0.10500000000E+00 0. -1.
         13    1    4    4    0    0  0.49933796347E+01  0.14372097660E+02 -0.46026925972E+01  0.15896126430E+02  0.10500000000E+00 0.  1.
    3000001    1    5    5    0    0 -0.25091629168E+02 -0.43320233426E+02  0.13988146493E+02  0.51989428932E+02  0.10000000000E+01 0. -1.
        -13    1    6    6    0    0 -0.67293747223E+00 -0.33603804034E+01  0.21425215276E+01  0.40430712081E+01  0.10500000000E+00 0.  1.
         13    1    6    6    0    0 -0.96806258394E+00 -0.53280258356E+01  0.35344774190E+01  0.64675002974E+01  0.10500000000E+00 0. -1.
</event>
<event>
11    0  0.3422856E-009  0.9118800E+02  0.7816531E-02  0.1126479E+00
         25   -1    0    0    0    0  0.00000000000E+00  0.00000000000E+00  0.99999998245E-14  0.12500000000E+03  0.12500000000E+03 0.  0.
    3000001    1    3    3    0    0  0.20687137286E+02  0.24557278517E+01 -0.39408541156E+02  0.44587233200E+02  0.10000000000E+01 0. -1.
    1000022    2    1    0    0    0  0.23883822226E+02  0.17613668984E+00 -0.56883934526E+02  0.62499999710E+02  0.99999984164E+01 0.  0.
    3000022    2    3    3    0    0  0.31966849395E+01 -0.22795911618E+01 -0.17475393370E+02  0.17912766510E+02  0.25000026964E+00 0.  0.
    1000022    2    1    0    0    0 -0.23883822226E+02 -0.17613668984E+00  0.56883934526E+02  0.62500000290E+02  0.10000002047E+02 0.  0.
    3000022    2    5    5    0    0 -0.86451078931E+01 -0.48516185329E+01  0.21158929629E+02  0.23367475201E+02  0.25000274802E+00 0.  0.
        -13    1    4    4    0    0  0.21820426629E+01 -0.15880920656E+01 -0.12187857298E+02  0.12483518619E+02  0.10500000000E+00 0.  1.
         13    1    4    4    0    0  0.10146422765E+01 -0.69149909617E+00 -0.52875360718E+01  0.54292478908E+01  0.10500000000E+00 0. -1.
    3000001    1    5    5    0    0 -0.15238714333E+02  0.46754818430E+01  0.35725004897E+02  0.39132525089E+02  0.10000000000E+01 0. -1.
        -13    1    6    6    0    0 -0.38626398186E+01 -0.21207976080E+01  0.95287920328E+01  0.10498889059E+02  0.10500000000E+00 0.  1.
         13    1    6    6    0    0 -0.47824680744E+01 -0.27308209249E+01  0.11630137596E+02  0.12868586143E+02  0.10500000000E+00 0. -1.
</event>
<event>
11    0  0.3422856E-009  0.9118800E+02  0.7816531E-02  0.1126479E+00
         25   -1    0    0    0    0  0.00000000000E+00  0.00000000000E+00  0.99999998245E-14  0.12500000000E+03  0.12500000000E+03 0.  0.
    3000001    1    3    3    0    0  0.43546119030E+01  0.13828785596E+01  0.11194930579E+01  0.48091852369E+01  0.10000000000E+01 0.  1.
    1000022    2    1    0    0    0  0.59214877584E+02 -0.13931425281E+02  0.10284147576E+02  0.62499999370E+02  0.99999946114E+01 0.  0.
    3000022    2    3    3    0    0  0.54860265681E+02 -0.15314303841E+02  0.91646545184E+01  0.57690814134E+02  0.24998035953E+00 0.  0.
    1000022    2    1    0    0    0 -0.59214877584E+02  0.13931425281E+02 -0.10284147576E+02  0.62500000630E+02  0.10000002480E+02 0.  0.
    3000022    2    5    5    0    0 -0.54061240872E+02  0.12193126966E+02 -0.12011345556E+02  0.56706481383E+02  0.24999790889E+00 0.  0.
        -13    1    4    4    0    0  0.37147914014E+02 -0.10392672921E+02  0.62536729702E+01  0.39078057995E+02  0.10500000000E+00 0. -1.
         13    1    4    4    0    0  0.17712351668E+02 -0.49216309197E+01  0.29109815482E+01  0.18612756139E+02  0.10500000000E+00 0.  1.
    3000001    1    5    5    0    0 -0.51536367129E+01  0.17382983155E+01  0.17271979799E+01  0.57935192469E+01  0.10000000000E+01 0.  1.
        -13    1    6    6    0    0 -0.35488221576E+02  0.80310190240E+01 -0.78361203772E+01  0.37219980450E+02  0.10500000000E+00 0. -1.
         13    1    6    6    0    0 -0.18573019296E+02  0.41621079418E+01 -0.41752251790E+01  0.19486500932E+02  0.10500000000E+00 0.  1.
</event>
<event>
11    0  0.3422856E-009  0.9118800E+02  0.7816531E-02  0.1126479E+00
         25   -1    0    0    0    0  0.00000000000E+00  0.00000000000E+00  0.99999998245E-14  0.12500000000E+03  0.12500000000E+03 0.  0.
    3000001    1    3    3    0    0 -0.72160924769E+01 -0.31201689188E+02  0.41416801222E+02  0.52363812144E+02  0.10000000000E+01 0.  1.
    1000022    2    1    0    0    0 -0.83497600524E+01 -0.33289211465E+02  0.51267531751E+02  0.62500002009E+02  0.10000017321E+02 0.  0.
    3000022    2    3    3    0    0 -0.11336675755E+01 -0.20875222770E+01  0.98507305293E+01  0.10136189865E+02  0.25000319023E+00 0.  0.
    1000022    2    1    0    0    0  0.83497600524E+01  0.33289211465E+02 -0.51267531751E+02  0.62499997991E+02  0.99999922033E+01 0.  0.
    3000022    2    5    5    0    0  0.83855351569E+01  0.26637942541E+02 -0.46547911971E+02  0.54283218268E+02  0.24998774227E+00 0.  0.
        -13    1    4    4    0    0 -0.71277302715E+00 -0.14205914019E+01  0.65123761066E+01  0.67043413453E+01  0.10500000000E+00 0. -1.
         13    1    4    4    0    0 -0.42089454837E+00 -0.66693087510E+00  0.33383544227E+01  0.34318485200E+01  0.10500000000E+00 0.  1.
    3000001    1    5    5    0    0 -0.35775104482E-01  0.66512689235E+01 -0.47196197798E+01  0.82167797231E+01  0.10000000000E+01 0.  1.
        -13    1    6    6    0    0  0.29178322195E+01  0.94431429778E+01 -0.16519016798E+02  0.19250341169E+02  0.10500000000E+00 0. -1.
         13    1    6    6    0    0  0.54677029373E+01  0.17194799564E+02 -0.30028895174E+02  0.35032877099E+02  0.10500000000E+00 0.  1.
</event>
<event>
11    0  0.3422856E-009  0.9118800E+02  0.7816531E-02  0.1126479E+00
         25   -1    0    0    0    0  0.00000000000E+00  0.00000000000E+00  0.99999998245E-14  0.12500000000E+03  0.12500000000E+03 0.  0.
    3000001    1    3    3    0    0  0.12789792853E+02  0.10668959093E+02  0.29393663595E+02  0.33799303970E+02  0.10000000000E+01 0.  1.
    1000022    2    1    0    0    0  0.28855899191E+02  0.12339346059E+02  0.53116172359E+02  0.62499998801E+02  0.99999852440E+01 0.  0.
    3000022    2    3    3    0    0  0.16066106338E+02  0.16703869659E+01  0.23722508764E+02  0.28700694831E+02  0.24999253824E+00 0.  0.
    1000022    2    1    0    0    0 -0.28855899191E+02 -0.12339346059E+02 -0.53116172359E+02  0.62500001199E+02  0.10000000227E+02 0.  0.
    3000022    2    5    5    0    0 -0.18502977146E+02 -0.26736283997E+01 -0.28609236912E+02  0.34176883826E+02  0.24999854608E+00 0.  0.
        -13    1    4    4    0    0  0.40549522598E+01  0.39640378130E+00  0.59642508627E+01  0.72237862053E+01  0.10500000000E+00 0. -1.
         13    1    4    4    0    0  0.12011154078E+02  0.12739831846E+01  0.17758257901E+02  0.21476908626E+02  0.10500000000E+00 0.  1.
    3000001    1    5    5    0    0 -0.10352922045E+02 -0.96657176589E+01 -0.24506935447E+02  0.28323117373E+02  0.10000000000E+01 0. -1.
        -13    1    6    6    0    0 -0.96952495720E+01 -0.13484640652E+01 -0.15058161293E+02  0.17960386023E+02  0.10500000000E+00 0. -1.
         13    1    6    6    0    0 -0.88077275742E+01 -0.13251643346E+01 -0.13551075619E+02  0.16216497802E+02  0.10500000000E+00 0.  1.
</event>
<event>
11    0  0.3422856E-009  0.9118800E+02  0.7816531E-02  0.1126479E+00
         25   -1    0    0    0    0  0.00000000000E+00  0.00000000000E+00  0.99999998245E-14  0.12500000000E+03  0.12500000000E+03 0.  0.
    3000001    1    3    3    0    0 -0.56893660642E+01  0.80146696091E+01  0.11292435151E+02  0.15004096334E+02  0.10000000000E+01 0.  1.
    1000022    2    1    0    0    0 -0.31760268895E+02  0.40886398601E+02  0.33553510535E+02  0.62499996350E+02  0.99999601847E+01 0.  0.
    3000022    2    3    3    0    0 -0.26070902830E+02  0.32871728992E+02  0.22261075384E+02  0.47495900016E+02  0.24999952493E+00 0.  0.
    1000022    2    1    0    0    0  0.31760268895E+02 -0.40886398601E+02 -0.33553510535E+02  0.62500003650E+02  0.10000005811E+02 0.  0.
    3000022    2    5    5    0    0  0.25261995448E+02 -0.36908803465E+02 -0.30931786963E+02  0.54380751508E+02  0.25000531078E+00 0.  0.
        -13    1    4    4    0    0 -0.14721753767E+02  0.18544408779E+02  0.12636575943E+02  0.26838763151E+02  0.10500000000E+00 0.  1.
         13    1    4    4    0    0 -0.11349149064E+02  0.14327320213E+02  0.96244994404E+01  0.20657136865E+02  0.10500000000E+00 0. -1.
    3000001    1    5    5    0    0  0.64982734466E+01 -0.39775951360E+01 -0.26217235719E+01  0.81192521417E+01  0.10000000000E+01 0.  1.
        -13    1    6    6    0    0  0.17512819438E+02 -0.25655721126E+02 -0.21449677695E+02  0.37749365152E+02  0.10500000000E+00 0.  1.
         13    1    6    6    0    0  0.77491760104E+01 -0.11253082339E+02 -0.94821092682E+01  0.16631386357E+02  0.10500000000E+00 0. -1.
</event>
<event>
11    0  0.3422856E-009  0.9118800E+02  0.7816531E-02  0.1126479E+00
         25   -1    0    0    0    0  0.00000000000E+00  0.00000000000E+00  0.99999998245E-14  0.12500000000E+03  0.12500000000E+03 0.  0.
    3000001    1    3    3    0    0 -0.61716595067E+01  0.24218601077E+01  0.52430893809E+01  0.85114495654E+01  0.10000000000E+01 0.  1.
    1000022    2    1    0    0    0 -0.56876458013E+02  0.16560773512E+02  0.17235406840E+02  0.62500000472E+02  0.10000005731E+02 0.  0.
    3000022    2    3    3    0    0 -0.50704798506E+02  0.14138913404E+02  0.11992317460E+02  0.53988550907E+02  0.24997425349E+00 0.  0.
    1000022    2    1    0    0    0  0.56876458013E+02 -0.16560773512E+02 -0.17235406840E+02  0.62499999528E+02  0.99999998320E+01 0.  0.
    3000022    2    5    5    0    0  0.42465839400E+01 -0.23859609024E+01 -0.42288432973E+01  0.64553775501E+01  0.24999818861E+00 0.  0.
        -13    1    4    4    0    0 -0.35349166146E+02  0.98220120818E+01  0.83253358104E+01  0.37621240143E+02  0.10500000000E+00 0. -1.
         13    1    4    4    0    0 -0.15355632360E+02  0.43169013223E+01  0.36669816491E+01  0.16367310764E+02  0.10500000000E+00 0.  1.
    3000001    1    5    5    0    0  0.52629874073E+02 -0.14174812609E+02 -0.13006563543E+02  0.56044621978E+02  0.10000000000E+01 0.  1.
        -13    1    6    6    0    0  0.23867885302E+01 -0.13089479267E+01 -0.22830885325E+01  0.35543807351E+01  0.10500000000E+00 0.  1.
         13    1    6    6    0    0  0.18597954098E+01 -0.10770129757E+01 -0.19457547648E+01  0.29009968150E+01  0.10500000000E+00 0. -1.
</event>
<event>
11    0  0.3422856E-009  0.9118800E+02  0.7816531E-02  0.1126479E+00
         25   -1    0    0    0    0  0.00000000000E+00  0.00000000000E+00  0.99999998245E-14  0.12500000000E+03  0.12500000000E+03 0.  0.
    3000001    1    3    3    0    0  0.69707761306E+01 -0.12200984794E+02 -0.16669996671E+02  0.21825318757E+02  0.10000000000E+01 0. -1.
    1000022    2    1    0    0    0  0.72193803026E+01 -0.39190597000E+02 -0.47098051692E+02  0.62500003757E+02  0.10000082562E+02 0.  0.
    3000022    2    3    3    0    0  0.24860417205E+00 -0.26989612206E+02 -0.30428055021E+02  0.40674685000E+02  0.24999292527E+00 0.  0.
    1000022    2    1    0    0    0 -0.72193803026E+01  0.39190597000E+02  0.47098051692E+02  0.62499996243E+02  0.10000035605E+02 0.  0.
    3000022    2    5    5    0    0 -0.52648696049E+01  0.38126866152E+02  0.42825916331E+02  0.57580364557E+02  0.24999695843E+00 0.  0.
        -13    1    4    4    0    0  0.30039484371E-01 -0.77239435583E+01 -0.86972124189E+01  0.11632400239E+02  0.10500000000E+00 0.  1.
         13    1    4    4    0    0  0.21856468767E+00 -0.19265668648E+02 -0.21730842602E+02  0.29042284761E+02  0.10500000000E+00 0. -1.
    3000001    1    5    5    0    0 -0.19545106977E+01  0.10637308485E+01  0.42721353609E+01  0.49196316861E+01  0.10000000000E+01 0.  1.
        -13    1    6    6    0    0 -0.27222201842E+01  0.20014943516E+02  0.22555400893E+02  0.30278137016E+02  0.10500000000E+00 0.  1.
         13    1    6    6    0    0 -0.25426494208E+01  0.18111922636E+02  0.20270515437E+02  0.27302227541E+02  0.10500000000E+00 0. -1.
</event>
<event>
11    0  0.3422856E-009  0.9118800E+02  0.7816531E-02  0.1126479E+00
         25   -1    0    0    0    0  0.00000000000E+00  0.00000000000E+00  0.99999998245E-14  0.12500000000E+03  0.12500000000E+03 0.  0.
    3000001    1    3    3    0    0  0.34749394086E+01 -0.18871892242E+01  0.75044309943E+01  0.85412628814E+01  0.10000000000E+01 0. -1.
    1000022    2    1    0    0    0  0.40441221973E+02  0.31781467369E+01  0.46482870232E+02  0.62499996202E+02  0.99999624449E+01 0.  0.
    3000022    2    3    3    0    0  0.36966282564E+02  0.50653359612E+01  0.38978439238E+02  0.53958733321E+02  0.25000225771E+00 0.  0.
    1000022    2    1    0    0    0 -0.40441221973E+02 -0.31781467369E+01 -0.46482870232E+02  0.62500003798E+02  0.10000009918E+02 0.  0.
    3000022    2    5    5    0    0 -0.36892716212E+02 -0.54305544654E+00 -0.38537994206E+02  0.53353602631E+02  0.24999501258E+00 0.  0.
        -13    1    4    4    0    0  0.88753404233E+01  0.12357010699E+01  0.93582617135E+01  0.12957110483E+02  0.10500000000E+00 0. -1.
         13    1    4    4    0    0  0.28090942141E+02  0.38296348913E+01  0.29620177524E+02  0.41001622838E+02  0.10500000000E+00 0.  1.
    3000001    1    5    5    0    0 -0.35485057608E+01 -0.26350912904E+01 -0.79448760261E+01  0.91464011673E+01  0.10000000000E+01 0. -1.
        -13    1    6    6    0    0 -0.22365703822E+02 -0.37122736813E+00 -0.23296859997E+02  0.32297325399E+02  0.10500000000E+00 0.  1.
         13    1    6    6    0    0 -0.14527012390E+02 -0.17182807840E+00 -0.15241134209E+02  0.21056277232E+02  0.10500000000E+00 0. -1.
</event>
<event>
11    0  0.3422856E-009  0.9118800E+02  0.7816531E-02  0.1126479E+00
         25   -1    0    0    0    0  0.00000000000E+00  0.00000000000E+00  0.99999998245E-14  0.12500000000E+03  0.12500000000E+03 0.  0.
    3000001    1    3    3    0    0  0.11142948872E+02 -0.18900666988E+01  0.97813514230E+01  0.14980403778E+02  0.10000000000E+01 0.  1.
    1000022    2    1    0    0    0  0.33157131301E+02 -0.14287285888E+02  0.50027274161E+02  0.62500000453E+02  0.10000000123E+02 0.  0.
    3000022    2    3    3    0    0  0.22014182429E+02 -0.12397219189E+02  0.40245922738E+02  0.47519596675E+02  0.24999892380E+00 0.  0.
    1000022    2    1    0    0    0 -0.33157131301E+02  0.14287285888E+02 -0.50027274161E+02  0.62499999547E+02  0.99999944660E+01 0.  0.
    3000022    2    5    5    0    0 -0.28750220643E+02  0.89069857339E+01 -0.43579599075E+02  0.52963700197E+02  0.25000216458E+00 0.  0.
        -13    1    4    4    0    0  0.10956815694E+02 -0.61996754440E+01  0.19935898531E+02  0.23578355774E+02  0.10500000000E+00 0.  1.
         13    1    4    4    0    0  0.11057366735E+02 -0.61975437454E+01  0.20310024207E+02  0.23941240901E+02  0.10500000000E+00 0. -1.
    3000001    1    5    5    0    0 -0.44069106578E+01  0.53803001544E+01 -0.64476750853E+01  0.95362993506E+01  0.10000000000E+01 0.  1.
        -13    1    6    6    0    0 -0.18049388534E+02  0.56250802101E+01 -0.27284043165E+02  0.33194155965E+02  0.10500000000E+00 0. -1.
         13    1    6    6    0    0 -0.10700832109E+02  0.32819055238E+01 -0.16295555911E+02  0.19769544232E+02  0.10500000000E+00 0.  1.
</event>
<event>
11    0  0.3422856E-009  0.9118800E+02  0.7816531E-02  0.1126479E+00
         25   -1    0    0    0    0  0.00000000000E+00  0.00000000000E+00  0.99999998245E-14  0.12500000000E+03  0.12500000000E+03 0.  0.
    3000001    1    3    3    0    0 -0.27906103580E+02  0.23954281691E+01  0.71381010298E+01  0.28921292838E+02  0.10000000000E+01 0.  1.
    1000022    2    1    0    0    0 -0.59753474813E+02 -0.54083799711E+01  0.14370854649E+02  0.62500001157E+02  0.10000017757E+02 0.  0.
    3000022    2    3    3    0    0 -0.31847371233E+02 -0.78038081401E+01  0.72327536190E+01  0.33578708319E+02  0.24990297151E+00 0.  0.
    1000022    2    1    0    0    0  0.59753474813E+02  0.54083799711E+01 -0.14370854649E+02  0.62499998843E+02  0.10000003299E+02 0.  0.
    3000022    2    5    5    0    0  0.17234091568E+02  0.60802205139E+01 -0.48901845583E+01  0.18919814969E+02  0.24999949792E+00 0.  0.
        -13    1    4    4    0    0 -0.21707790095E+02 -0.53314805699E+01  0.48805494231E+01  0.22879764500E+02  0.10500000000E+00 0. -1.
         13    1    4    4    0    0 -0.10139581138E+02 -0.24723275703E+01  0.23522041959E+01  0.10698943819E+02  0.10500000000E+00 0.  1.
    3000001    1    5    5    0    0  0.42519383244E+02 -0.67184054282E+00 -0.94806700904E+01  0.43580183875E+02  0.10000000000E+01 0. -1.
        -13    1    6    6    0    0  0.52337798574E+01  0.18809941472E+01 -0.14532620845E+01  0.57492248402E+01  0.10500000000E+00 0. -1.
         13    1    6    6    0    0  0.12000311711E+02  0.41992263667E+01 -0.34369224738E+01  0.13170590128E+02  0.10500000000E+00 0.  1.
</event>
<event>
11    0  0.3422856E-009  0.9118800E+02  0.7816531E-02  0.1126479E+00
         25   -1    0    0    0    0  0.00000000000E+00  0.00000000000E+00  0.99999998245E-14  0.12500000000E+03  0.12500000000E+03 0.  0.
    3000001    1    3    3    0    0 -0.42665708215E+00 -0.92584127814E+01 -0.14987059014E+02  0.17649707686E+02  0.10000000000E+01 0. -1.
    1000022    2    1    0    0    0 -0.15690187838E+02 -0.36223191613E+02 -0.47412534980E+02  0.62499999268E+02  0.99999915159E+01 0.  0.
    3000022    2    3    3    0    0 -0.15263530755E+02 -0.26964778831E+02 -0.32425475966E+02  0.44850291582E+02  0.24998978133E+00 0.  0.
    1000022    2    1    0    0    0  0.15690187838E+02  0.36223191613E+02  0.47412534980E+02  0.62500000732E+02  0.10000000666E+02 0.  0.
    3000022    2    5    5    0    0  0.13238639305E+02  0.25031965874E+02  0.39242511639E+02  0.48393161783E+02  0.25000295899E+00 0.  0.
        -13    1    4    4    0    0 -0.10473775824E+02 -0.18564571987E+02 -0.22250194871E+02  0.30812749145E+02  0.10500000000E+00 0.  1.
         13    1    4    4    0    0 -0.47897549318E+01 -0.84002068445E+01 -0.10175281094E+02  0.14037542437E+02  0.10500000000E+00 0. -1.
    3000001    1    5    5    0    0  0.24515485323E+01  0.11191225738E+02  0.81700233410E+01  0.14106838949E+02  0.10000000000E+01 0.  1.
        -13    1    6    6    0    0  0.35104848049E+01  0.65824877838E+01  0.10374690511E+02  0.12778805781E+02  0.10500000000E+00 0. -1.
         13    1    6    6    0    0  0.97281545004E+01  0.18449478091E+02  0.28867821128E+02  0.35614356003E+02  0.10500000000E+00 0.  1.
</event>
<event>
11    0  0.3422856E-009  0.9118800E+02  0.7816531E-02  0.1126479E+00
         25   -1    0    0    0    0  0.00000000000E+00  0.00000000000E+00  0.99999998245E-14  0.12500000000E+03  0.12500000000E+03 0.  0.
    3000001    1    3    3    0    0 -0.32767406320E+02  0.21031945106E+02 -0.48448760006E+01  0.39249438917E+02  0.10000000000E+01 0.  1.
    1000022    2    1    0    0    0 -0.54886378262E+02  0.27994315375E+02 -0.31707830834E+01  0.62500000226E+02  0.99999975429E+01 0.  0.
    3000022    2    3    3    0    0 -0.22118971943E+02  0.69623702691E+01  0.16740929172E+01  0.23250561309E+02  0.24998905125E+00 0.  0.
    1000022    2    1    0    0    0  0.54886378262E+02 -0.27994315375E+02  0.31707830834E+01  0.62499999774E+02  0.99999947120E+01 0.  0.
    3000022    2    5    5    0    0  0.40466300080E+02 -0.25049910604E+02  0.37216681401E+01  0.47738168973E+02  0.24999944478E+00 0.  0.
        -13    1    4    4    0    0 -0.11199642116E+02  0.35185657974E+01  0.77984139567E+00  0.11765690222E+02  0.10500000000E+00 0.  1.
         13    1    4    4    0    0 -0.10919329826E+02  0.34438044717E+01  0.89425152151E+00  0.11484871087E+02  0.10500000000E+00 0. -1.
    3000001    1    5    5    0    0  0.14420078182E+02 -0.29444047718E+01 -0.55088505665E+00  0.14761830800E+02  0.10000000000E+01 0.  1.
        -13    1    6    6    0    0  0.14005180957E+02 -0.86749711321E+01  0.13441347407E+01  0.16529305521E+02  0.10500000000E+00 0. -1.
         13    1    6    6    0    0  0.26461119123E+02 -0.16374939472E+02  0.23775333994E+01  0.31208863453E+02  0.10500000000E+00 0.  1.
</event>
<event>
11    0  0.3422856E-009  0.9118800E+02  0.7816531E-02  0.1126479E+00
         25   -1    0    0    0    0  0.00000000000E+00  0.00000000000E+00  0.99999998245E-14  0.12500000000E+03  0.12500000000E+03 0.  0.
    3000001    1    3    3    0    0 -0.36675918849E+01  0.36076221425E+01 -0.27167437740E+01  0.59031232827E+01  0.10000000000E+01 0. -1.
    1000022    2    1    0    0    0 -0.49946268445E+02  0.36173275547E+02 -0.17647268965E+01  0.62500000588E+02  0.10000010853E+02 0.  0.
    3000022    2    3    3    0    0 -0.46278676561E+02  0.32565653404E+02  0.95201687745E+00  0.56596877305E+02  0.24999745492E+00 0.  0.
    1000022    2    1    0    0    0  0.49946268445E+02 -0.36173275547E+02  0.17647268965E+01  0.62499999412E+02  0.10000003505E+02 0.  0.
    3000022    2    5    5    0    0  0.32176105641E+01 -0.11520056449E+01 -0.20120001218E+01  0.39737618780E+01  0.25000844970E+00 0.  0.
        -13    1    4    4    0    0 -0.23548146358E+02  0.16643875600E+02  0.51664418304E+00  0.28841146615E+02  0.10500000000E+00 0. -1.
         13    1    4    4    0    0 -0.22730530203E+02  0.15921777804E+02  0.43537269441E+00  0.27755730690E+02  0.10500000000E+00 0.  1.
    3000001    1    5    5    0    0  0.46728657881E+02 -0.35021269902E+02  0.37767270184E+01  0.58526237534E+02  0.10000000000E+01 0. -1.
        -13    1    6    6    0    0  0.15405818358E+01 -0.48002075648E+00 -0.94527360742E+00  0.18730668734E+01  0.10500000000E+00 0.  1.
         13    1    6    6    0    0  0.16770287283E+01 -0.67198488838E+00 -0.10667265144E+01  0.21006950046E+01  0.10500000000E+00 0. -1.
</event>
<event>
11    0  0.3422856E-009  0.9118800E+02  0.7816531E-02  0.1126479E+00
         25   -1    0    0    0    0  0.00000000000E+00  0.00000000000E+00  0.99999998245E-14  0.12500000000E+03  0.12500000000E+03 0.  0.
    3000001    1    3    3    0    0 -0.23405593291E+02 -0.94159582002E+01 -0.15374774911E+02  0.29561220707E+02  0.10000000000E+01 0. -1.
    1000022    2    1    0    0    0 -0.54071675173E+02 -0.18510191083E+02 -0.23235245985E+02  0.62499999613E+02  0.10000003282E+02 0.  0.
    3000022    2    3    3    0    0 -0.30666081882E+02 -0.90942328830E+01 -0.78604710742E+01  0.32938778906E+02  0.25000111919E+00 0.  0.
    1000022    2    1    0    0    0  0.54071675173E+02  0.18510191083E+02  0.23235245985E+02  0.62500000387E+02  0.10000008121E+02 0.  0.
    3000022    2    5    5    0    0  0.34723648938E+02  0.71052713346E+01  0.12467293085E+02  0.37572763811E+02  0.25001443709E+00 0.  0.
        -13    1    4    4    0    0 -0.21922245329E+02 -0.64788398534E+01 -0.56541123323E+01  0.23548677614E+02  0.10500000000E+00 0.  1.
         13    1    4    4    0    0 -0.87438365529E+01 -0.26153930297E+01 -0.22063587419E+01  0.93901012913E+01  0.10500000000E+00 0. -1.
    3000001    1    5    5    0    0  0.19348026236E+02  0.11404919749E+02  0.10767952900E+02  0.24927236576E+02  0.10000000000E+01 0.  1.
        -13    1    6    6    0    0  0.18495002698E+02  0.38270804431E+01  0.65874463352E+01  0.20002928379E+02  0.10500000000E+00 0. -1.
         13    1    6    6    0    0  0.16228646240E+02  0.32781908915E+01  0.58798467501E+01  0.17569835432E+02  0.10500000000E+00 0.  1.
</event>
<event>
11    0  0.3422856E-009  0.9118800E+02  0.7816531E-02  0.1126479E+00
         25   -1    0    0    0    0  0.00000000000E+00  0.00000000000E+00  0.99999998245E-14  0.12500000000E+03  0.12500000000E+03 0.  0.
    3000001    1    3    3    0    0  0.93841923676E+01  0.59660987138E+01 -0.15595176186E+02  0.19179857156E+02  0.10000000000E+01 0.  1.
    1000022    2    1    0    0    0  0.20245792881E+02  0.29968070240E+02 -0.49982719696E+02  0.62499998577E+02  0.10000009530E+02 0.  0.
    3000022    2    3    3    0    0  0.10861600513E+02  0.24001971526E+02 -0.34387543510E+02  0.43320141420E+02  0.25000239521E+00 0.  0.
    1000022    2    1    0    0    0 -0.20245792881E+02 -0.29968070240E+02  0.49982719696E+02  0.62500001423E+02  0.10000027322E+02 0.  0.
    3000022    2    5    5    0    0 -0.16256277234E+02 -0.28156826325E+02  0.39963939467E+02  0.51519436917E+02  0.25000854521E+00 0.  0.
        -13    1    4    4    0    0  0.39605930156E+01  0.88939187266E+01 -0.12726104521E+02  0.16023509249E+02  0.10500000000E+00 0.  1.
         13    1    4    4    0    0  0.69010074975E+01  0.15108052800E+02 -0.21661438988E+02  0.27296632172E+02  0.10500000000E+00 0. -1.
    3000001    1    5    5    0    0 -0.39895156471E+01 -0.18112439151E+01  0.10018780228E+02  0.10980564507E+02  0.10000000000E+01 0. -1.
        -13    1    6    6    0    0 -0.91921636395E+01 -0.15810277085E+02  0.22535841077E+02  0.29023023480E+02  0.10500000000E+00 0.  1.
         13    1    6    6    0    0 -0.70641135941E+01 -0.12346549240E+02  0.17428098390E+02  0.22496413437E+02  0.10500000000E+00 0. -1.
</event>
<event>
11    0  0.3422856E-009  0.9118800E+02  0.7816531E-02  0.1126479E+00
         25   -1    0    0    0    0  0.00000000000E+00  0.00000000000E+00  0.99999998245E-14  0.12500000000E+03  0.12500000000E+03 0.  0.
    3000001    1    3    3    0    0 -0.22758148980E+02 -0.33422997551E+02 -0.78045291235E+01  0.41193941122E+02  0.10000000000E+01 0.  1.
    1000022    2    1    0    0    0 -0.39724544365E+02 -0.46044425477E+02 -0.10398145093E+02  0.62500004977E+02  0.10000032912E+02 0.  0.
    3000022    2    3    3    0    0 -0.16966395386E+02 -0.12621427925E+02 -0.25936159695E+01  0.21306063855E+02  0.24999591096E+00 0.  0.
    1000022    2    1    0    0    0  0.39724544365E+02  0.46044425477E+02  0.10398145093E+02  0.62499995023E+02  0.99999706978E+01 0.  0.
    3000022    2    5    5    0    0  0.21676708563E+02  0.23869352242E+02  0.56688693456E+00  0.32249178718E+02  0.24999324657E+00 0.  0.
        -13    1    4    4    0    0 -0.45665493490E+01 -0.34347583651E+01 -0.68111004006E+00  0.57555081330E+01  0.10500000000E+00 0. -1.
         13    1    4    4    0    0 -0.12399846037E+02 -0.91866695604E+01 -0.19125059295E+01  0.15550555722E+02  0.10500000000E+00 0.  1.
    3000001    1    5    5    0    0  0.18047835802E+02  0.22175073235E+02  0.98312581585E+01  0.30250816305E+02  0.10000000000E+01 0. -1.
        -13    1    6    6    0    0  0.15742076053E+02  0.17295884198E+02  0.38369727069E+00  0.23390571118E+02  0.10500000000E+00 0.  1.
         13    1    6    6    0    0  0.59346325100E+01  0.65734680440E+01  0.18318966387E+00  0.88586075998E+01  0.10500000000E+00 0. -1.
</event>
<event>
11    0  0.3422856E-009  0.9118800E+02  0.7816531E-02  0.1126479E+00
         25   -1    0    0    0    0  0.00000000000E+00  0.00000000000E+00  0.99999998245E-14  0.12500000000E+03  0.12500000000E+03 0.  0.
    3000001    1    3    3    0    0  0.27825658335E+01  0.72026073157E+01  0.44051759731E-01  0.77860237169E+01  0.10000000000E+01 0. -1.
    1000022    2    1    0    0    0 -0.26232553314E+01  0.61584891959E+02 -0.25827443592E+01  0.62499992192E+02  0.99999034713E+01 0.  0.
    3000022    2    3    3    0    0 -0.54058211650E+01  0.54382284643E+02 -0.26267961189E+01  0.54713968475E+02  0.25000590375E+00 0.  0.
    1000022    2    1    0    0    0  0.26232553314E+01 -0.61584891959E+02  0.25827443592E+01  0.62500007808E+02  0.10000001077E+02 0.  0.
    3000022    2    5    5    0    0 -0.18694287417E+01 -0.46663500639E+02  0.18569249767E+00  0.46701970376E+02  0.24999916630E+00 0.  0.
        -13    1    4    4    0    0 -0.35769397264E+01  0.35497822107E+02 -0.16860147081E+01  0.35717552306E+02  0.10500000000E+00 0.  1.
         13    1    4    4    0    0 -0.18288814386E+01  0.18884462536E+02 -0.94078141088E+00  0.18996416169E+02  0.10500000000E+00 0. -1.
    3000001    1    5    5    0    0  0.44926840732E+01 -0.14921391320E+02  0.23970518615E+01  0.15798037433E+02  0.10000000000E+01 0. -1.
        -13    1    6    6    0    0 -0.78159404782E+00 -0.19153506308E+02  0.13863823986E+00  0.19170235750E+02  0.10500000000E+00 0. -1.
         13    1    6    6    0    0 -0.10878346939E+01 -0.27509994330E+02  0.47054257807E-01  0.27531734625E+02  0.10500000000E+00 0.  1.
</event>
<event>
11    0  0.3422856E-009  0.9118800E+02  0.7816531E-02  0.1126479E+00
         25   -1    0    0    0    0  0.00000000000E+00  0.00000000000E+00  0.99999998245E-14  0.12500000000E+03  0.12500000000E+03 0.  0.
    3000001    1    3    3    0    0 -0.20946700741E+02  0.20058330855E+02  0.10753214633E+02  0.30947254056E+02  0.10000000000E+01 0. -1.
    1000022    2    1    0    0    0 -0.47643525531E+02  0.32103319741E+02  0.22488248733E+02  0.62499999077E+02  0.99999945059E+01 0.  0.
    3000022    2    3    3    0    0 -0.26696824790E+02  0.12044988885E+02  0.11735034100E+02  0.31552745021E+02  0.24996385553E+00 0.  0.
    1000022    2    1    0    0    0  0.47643525531E+02 -0.32103319741E+02 -0.22488248733E+02  0.62500000923E+02  0.10000006049E+02 0.  0.
    3000022    2    5    5    0    0  0.24935436040E+02 -0.15494774079E+02 -0.63032081333E+01  0.30027602543E+02  0.24997497238E+00 0.  0.
        -13    1    4    4    0    0 -0.11532986369E+02  0.51676339550E+01  0.50023734317E+01  0.13592239706E+02  0.10500000000E+00 0. -1.
         13    1    4    4    0    0 -0.15163838420E+02  0.68773549303E+01  0.67326606682E+01  0.17960505314E+02  0.10500000000E+00 0.  1.
    3000001    1    5    5    0    0  0.22708089491E+02 -0.16608545662E+02 -0.16185040600E+02  0.32472398380E+02  0.10000000000E+01 0.  1.
        -13    1    6    6    0    0  0.16637763334E+02 -0.10316866326E+02 -0.41518701646E+01  0.20012544826E+02  0.10500000000E+00 0. -1.
         13    1    6    6    0    0  0.82976727058E+01 -0.51779077533E+01 -0.21513379688E+01  0.10015057718E+02  0.10500000000E+00 0.  1.
</event>
<event>
11    0  0.3422856E-009  0.9118800E+02  0.7816531E-02  0.1126479E+00
         25   -1    0    0    0    0  0.00000000000E+00  0.00000000000E+00  0.99999998245E-14  0.12500000000E+03  0.12500000000E+03 0.  0.
    3000001    1    3    3    0    0 -0.18630666312E+00  0.89913383456E+00  0.13422981716E+01  0.19091663643E+01  0.10000000000E+01 0.  1.
    1000022    2    1    0    0    0  0.78616775456E+01 -0.11513202040E+02  0.60099003743E+02  0.62499999675E+02  0.99999956691E+01 0.  0.
    3000022    2    3    3    0    0  0.80479842087E+01 -0.12412335875E+02  0.58756705572E+02  0.60590833310E+02  0.24999989220E+00 0.  0.
    1000022    2    1    0    0    0 -0.78616775456E+01  0.11513202040E+02 -0.60099003743E+02  0.62500000325E+02  0.99999997340E+01 0.  0.
    3000022    2    5    5    0    0 -0.29645667077E+01  0.14863740617E+01 -0.36006841151E+01  0.49015707055E+01  0.25001133547E+00 0.  0.
        -13    1    4    4    0    0  0.50336715174E+01 -0.77240461299E+01  0.36848054259E+02  0.37984060673E+02  0.10500000000E+00 0. -1.
         13    1    4    4    0    0  0.30143126912E+01 -0.46882897449E+01  0.21908651313E+02  0.22606772637E+02  0.10500000000E+00 0.  1.
    3000001    1    5    5    0    0 -0.48971108379E+01  0.10026827979E+02 -0.56498319628E+02  0.57598429620E+02  0.10000000000E+01 0. -1.
        -13    1    6    6    0    0 -0.20782874456E+01  0.10844238393E+01 -0.25738367968E+01  0.34829462566E+01  0.10500000000E+00 0. -1.
         13    1    6    6    0    0 -0.88627926210E+00  0.40195022236E+00 -0.10268473183E+01  0.14186244488E+01  0.10500000000E+00 0.  1.
</event>
<event>
11    0  0.3422856E-009  0.9118800E+02  0.7816531E-02  0.1126479E+00
         25   -1    0    0    0    0  0.00000000000E+00  0.00000000000E+00  0.99999998245E-14  0.12500000000E+03  0.12500000000E+03 0.  0.
    3000001    1    3    3    0    0 -0.10193859716E+02  0.18050241996E+01  0.34182637330E+02  0.35729897609E+02  0.10000000000E+01 0. -1.
    1000022    2    1    0    0    0 -0.17195121553E+02 -0.53561676901E+01  0.59007535042E+02  0.62500000038E+02  0.10000003772E+02 0.  0.
    3000022    2    3    3    0    0 -0.70012618372E+01 -0.71611918897E+01  0.24824897712E+02  0.26770102429E+02  0.25000214630E+00 0.  0.
    1000022    2    1    0    0    0  0.17195121553E+02  0.53561676901E+01 -0.59007535042E+02  0.62499999962E+02  0.10000003295E+02 0.  0.
    3000022    2    5    5    0    0  0.87990900280E+01 -0.21085520996E+01 -0.21347757788E+02  0.23187480203E+02  0.24999666298E+00 0.  0.
        -13    1    4    4    0    0 -0.52954359617E+01 -0.53867927223E+01  0.18750998349E+02  0.20215591555E+02  0.10500000000E+00 0.  1.
         13    1    4    4    0    0 -0.17058258755E+01 -0.17743991674E+01  0.60738993633E+01  0.65545108741E+01  0.10500000000E+00 0. -1.
    3000001    1    5    5    0    0  0.83960315252E+01  0.74647197897E+01 -0.37659777254E+02  0.39312519758E+02  0.10000000000E+01 0. -1.
        -13    1    6    6    0    0  0.63200922941E+01 -0.15525701761E+01 -0.15389351249E+02  0.16709195002E+02  0.10500000000E+00 0.  1.
         13    1    6    6    0    0  0.24789977339E+01 -0.55598192351E+00 -0.59584065395E+01  0.64782852016E+01  0.10500000000E+00 0. -1.
</event>
<event>
11    0  0.3422856E-009  0.9118800E+02  0.7816531E-02  0.1126479E+00
         25   -1    0    0    0    0  0.00000000000E+00  0.00000000000E+00  0.99999998245E-14  0.12500000000E+03  0.12500000000E+03 0.  0.
    3000001    1    3    3    0    0 -0.34303340510E+02  0.26487889564E+02  0.92191405494E+01  0.44320649997E+02  0.10000000000E+01 0. -1.
    1000022    2    1    0    0    0 -0.51397538819E+02  0.31800845459E+02  0.12379387070E+02  0.62500000172E+02  0.10000001437E+02 0.  0.
    3000022    2    3    3    0    0 -0.17094198309E+02  0.53129558942E+01  0.31602465205E+01  0.18179350174E+02  0.24999707281E+00 0.  0.
    1000022    2    1    0    0    0  0.51397538819E+02 -0.31800845459E+02 -0.12379387070E+02  0.62499999828E+02  0.99999992886E+01 0.  0.
    3000022    2    5    5    0    0  0.19023644465E+02 -0.64436154666E+01 -0.30008130429E+01  0.20309766370E+02  0.25000411158E+00 0.  0.
        -13    1    4    4    0    0 -0.82138878815E+01  0.25646019962E+01  0.14513926259E+01  0.87271245599E+01  0.10500000000E+00 0.  1.
         13    1    4    4    0    0 -0.88803104275E+01  0.27483538980E+01  0.17088538945E+01  0.94522256146E+01  0.10500000000E+00 0. -1.
    3000001    1    5    5    0    0  0.32373894353E+02 -0.25357229992E+02 -0.93785740270E+01  0.42190233458E+02  0.10000000000E+01 0.  1.
        -13    1    6    6    0    0  0.48493964282E+01 -0.16264103173E+01 -0.78915170904E+00  0.51764506815E+01  0.10500000000E+00 0. -1.
         13    1    6    6    0    0  0.14174248037E+02 -0.48172051493E+01 -0.22116613339E+01  0.15133315689E+02  0.10500000000E+00 0.  1.
</event>
<event>
11    0  0.3422856E-009  0.9118800E+02  0.7816531E-02  0.1126479E+00
         25   -1    0    0    0    0  0.00000000000E+00  0.00000000000E+00  0.99999998245E-14  0.12500000000E+03  0.12500000000E+03 0.  0.
    3000001    1    3    3    0    0 -0.32105442982E+02 -0.33857874774E+02 -0.11021986675E+02  0.47954137918E+02  0.10000000000E+01 0. -1.
    1000022    2    1    0    0    0 -0.45143106091E+02 -0.39995475799E+02 -0.12988911161E+02  0.62499999820E+02  0.10000002619E+02 0.  0.
    3000022    2    3    3    0    0 -0.13037663109E+02 -0.61376010254E+01 -0.19669244868E+01  0.14545861901E+02  0.25000164253E+00 0.  0.
    1000022    2    1    0    0    0  0.45143106091E+02  0.39995475799E+02  0.12988911161E+02  0.62500000180E+02  0.10000004871E+02 0.  0.
    3000022    2    5    5    0    0  0.25200711949E+02  0.16611123832E+02  0.89732645485E+01  0.31489479082E+02  0.24999704650E+00 0.  0.
        -13    1    4    4    0    0 -0.59080361325E+01 -0.28347281120E+01 -0.94105366553E+00  0.66209652932E+01  0.10500000000E+00 0.  1.
         13    1    4    4    0    0 -0.71296269768E+01 -0.33028729134E+01 -0.10258708212E+01  0.79248966082E+01  0.10500000000E+00 0. -1.
    3000001    1    5    5    0    0  0.19942394143E+02  0.23384351967E+02  0.40156466130E+01  0.31010521098E+02  0.10000000000E+01 0.  1.
        -13    1    6    6    0    0  0.11623623991E+02  0.76967672885E+01  0.40815375878E+01  0.14526487375E+02  0.10500000000E+00 0. -1.
         13    1    6    6    0    0  0.13577087957E+02  0.89143565432E+01  0.48917269607E+01  0.16962991707E+02  0.10500000000E+00 0.  1.
</event>
<event>
11    0  0.3422856E-009  0.9118800E+02  0.7816531E-02  0.1126479E+00
         25   -1    0    0    0    0  0.00000000000E+00  0.00000000000E+00  0.99999998245E-14  0.12500000000E+03  0.12500000000E+03 0.  0.
    3000001    1    3    3    0    0  0.31027180623E+02  0.52747940864E+02  0.90801648538E+01  0.61874716941E+02  0.10000000000E+01 0.  1.
    1000022    2    1    0    0    0  0.30471070998E+02  0.52878632416E+02  0.90340518936E+01  0.62500001847E+02  0.10000010164E+02 0.  0.
    3000022    2    3    3    0    0 -0.55610962446E+00  0.13069155224E+00 -0.46112960273E-01  0.62528490592E+00  0.25003322224E+00 0.  0.
    1000022    2    1    0    0    0 -0.30471070998E+02 -0.52878632416E+02 -0.90340518936E+01  0.62499998153E+02  0.99999870739E+01 0.  0.
    3000022    2    5    5    0    0 -0.11490647430E+02 -0.26425581096E+02 -0.47403965198E+00  0.28820713532E+02  0.25000056504E+00 0.  0.
        -13    1    4    4    0    0 -0.37473498964E+00  0.34382731301E-01 -0.54620095290E-01  0.39448300278E+00  0.10500000000E+00 0. -1.
         13    1    4    4    0    0 -0.18137463482E+00  0.96308820942E-01  0.85071350174E-02  0.23080190314E+00  0.10500000000E+00 0.  1.
    3000001    1    5    5    0    0 -0.18980423569E+02 -0.26453051320E+02 -0.85600122416E+01  0.33679284621E+02  0.10000000000E+01 0. -1.
        -13    1    6    6    0    0 -0.59578097663E+01 -0.13531805377E+02 -0.23964052275E+00  0.14787620043E+02  0.10500000000E+00 0.  1.
         13    1    6    6    0    0 -0.55328376635E+01 -0.12893775719E+02 -0.23439912924E+00  0.14033093489E+02  0.10500000000E+00 0. -1.
</event>
<event>
11    0  0.3422856E-009  0.9118800E+02  0.7816531E-02  0.1126479E+00
         25   -1    0    0    0    0  0.00000000000E+00  0.00000000000E+00  0.99999998245E-14  0.12500000000E+03  0.12500000000E+03 0.  0.
    3000001    1    3    3    0    0  0.40598485998E+02 -0.39480351637E+02  0.51309836822E+01  0.56870574327E+02  0.10000000000E+01 0.  1.
    1000022    2    1    0    0    0  0.45901534241E+02 -0.40698376878E+02  0.65529730387E+01  0.62500002473E+02  0.10000006368E+02 0.  0.
    3000022    2    3    3    0    0  0.53030482422E+01 -0.12180252407E+01  0.14219893565E+01  0.56294281458E+01  0.25000274712E+00 0.  0.
    1000022    2    1    0    0    0 -0.45901534241E+02  0.40698376878E+02 -0.65529730387E+01  0.62499997527E+02  0.99999754523E+01 0.  0.
    3000022    2    5    5    0    0 -0.15174557117E+02  0.18785265974E+02 -0.53057711254E+01  0.24725838830E+02  0.24999438427E+00 0.  0.
        -13    1    4    4    0    0  0.19421332389E+01 -0.49751700861E+00  0.49140082646E+00  0.20668585979E+01  0.10500000000E+00 0. -1.
         13    1    4    4    0    0  0.33609150033E+01 -0.72050823205E+00  0.93058853003E+00  0.35625695479E+01  0.10500000000E+00 0.  1.
    3000001    1    5    5    0    0 -0.30726977123E+02  0.21913110904E+02 -0.12472019133E+01  0.37774158697E+02  0.10000000000E+01 0. -1.
        -13    1    6    6    0    0 -0.88233203746E+01  0.10999058635E+02 -0.30538743593E+01  0.14428009110E+02  0.10500000000E+00 0.  1.
         13    1    6    6    0    0 -0.63512367426E+01  0.77862073393E+01 -0.22518967661E+01  0.10297829720E+02  0.10500000000E+00 0. -1.
</event>
<event>
11    0  0.3422856E-009  0.9118800E+02  0.7816531E-02  0.1126479E+00
         25   -1    0    0    0    0  0.00000000000E+00  0.00000000000E+00  0.99999998245E-14  0.12500000000E+03  0.12500000000E+03 0.  0.
    3000001    1    3    3    0    0  0.93676331318E+01 -0.90280269858E+01 -0.14119259952E+02  0.19225278238E+02  0.10000000000E+01 0. -1.
    1000022    2    1    0    0    0  0.39094057268E+02 -0.32971466422E+02 -0.34507767034E+02  0.62500009008E+02  0.10000111431E+02 0.  0.
    3000022    2    3    3    0    0  0.29726424137E+02 -0.23943439436E+02 -0.20388507083E+02  0.43274730770E+02  0.25003638571E+00 0.  0.
    1000022    2    1    0    0    0 -0.39094057268E+02  0.32971466422E+02  0.34507767034E+02  0.62499990992E+02  0.99999988276E+01 0.  0.
    3000022    2    5    5    0    0 -0.24093578867E+02  0.18423720148E+02  0.25875001682E+02  0.39868687195E+02  0.24999976449E+00 0.  0.
        -13    1    4    4    0    0  0.12730021932E+02 -0.10196303000E+02 -0.87662856917E+01  0.18516933955E+02  0.10500000000E+00 0.  1.
         13    1    4    4    0    0  0.16996402204E+02 -0.13747136436E+02 -0.11622221391E+02  0.24757796815E+02  0.10500000000E+00 0. -1.
    3000001    1    5    5    0    0 -0.15000478401E+02  0.14547746274E+02  0.86327653522E+01  0.22631303797E+02  0.10000000000E+01 0. -1.
        -13    1    6    6    0    0 -0.12851581826E+02  0.97435859301E+01  0.13772699202E+02  0.21208462710E+02  0.10500000000E+00 0. -1.
         13    1    6    6    0    0 -0.11241997041E+02  0.86801342184E+01  0.12102302480E+02  0.18660224485E+02  0.10500000000E+00 0.  1.
</event>
<event>
11    0  0.3422856E-009  0.9118800E+02  0.7816531E-02  0.1126479E+00
         25   -1    0    0    0    0  0.00000000000E+00  0.00000000000E+00  0.99999998245E-14  0.12500000000E+03  0.12500000000E+03 0.  0.
    3000001    1    3    3    0    0  0.35608774703E+00 -0.20381504884E+02  0.82326431602E+01  0.22007020544E+02  0.10000000000E+01 0. -1.
    1000022    2    1    0    0    0  0.11816944665E+02 -0.58523631110E+02  0.15543309268E+02  0.62499999840E+02  0.99999968740E+01 0.  0.
    3000022    2    3    3    0    0  0.11460856918E+02 -0.38142126226E+02  0.73106661073E+01  0.40492979295E+02  0.24999797483E+00 0.  0.
    1000022    2    1    0    0    0 -0.11816944665E+02  0.58523631110E+02 -0.15543309268E+02  0.62500000160E+02  0.99999988791E+01 0.  0.
    3000022    2    5    5    0    0 -0.45312839759E+00  0.60217130457E+01 -0.47796286193E+01  0.77054334439E+01  0.25000293874E+00 0.  0.
        -13    1    4    4    0    0  0.45921328937E+01 -0.15442818496E+02  0.29129754922E+01  0.16372683923E+02  0.10500000000E+00 0.  1.
         13    1    4    4    0    0  0.68687240245E+01 -0.22699307730E+02  0.43976906151E+01  0.24120295373E+02  0.10500000000E+00 0. -1.
    3000001    1    5    5    0    0 -0.11363816268E+02  0.52501918064E+02 -0.10763680648E+02  0.54794566717E+02  0.10000000000E+01 0. -1.
        -13    1    6    6    0    0 -0.21978184789E+00  0.24791273967E+01 -0.20405226514E+01  0.32201140353E+01  0.10500000000E+00 0.  1.
         13    1    6    6    0    0 -0.23334654970E+00  0.35425856491E+01 -0.27391059679E+01  0.44853194086E+01  0.10500000000E+00 0. -1.
</event>
<event>
11    0  0.3422856E-009  0.9118800E+02  0.7816531E-02  0.1126479E+00
         25   -1    0    0    0    0  0.00000000000E+00  0.00000000000E+00  0.99999998245E-14  0.12500000000E+03  0.12500000000E+03 0.  0.
    3000001    1    3    3    0    0  0.76819767709E+01 -0.73697073624E+01  0.22967853175E+02  0.25334712021E+02  0.10000000000E+01 0. -1.
    1000022    2    1    0    0    0  0.29214818541E+02 -0.19574378246E+02  0.50691104962E+02  0.62499997516E+02  0.99999830512E+01 0.  0.
    3000022    2    3    3    0    0  0.21532841771E+02 -0.12204670884E+02  0.27723251787E+02  0.37165285495E+02  0.24998028315E+00 0.  0.
    1000022    2    1    0    0    0 -0.29214818541E+02  0.19574378246E+02 -0.50691104962E+02  0.62500002484E+02  0.10000014105E+02 0.  0.
    3000022    2    5    5    0    0 -0.11183052369E+02  0.62146744294E+01 -0.10916042039E+02  0.16819788957E+02  0.24997641521E+00 0.  0.
        -13    1    4    4    0    0  0.86736500243E+01 -0.48767916504E+01  0.11225535969E+02  0.15001299421E+02  0.10500000000E+00 0.  1.
         13    1    4    4    0    0  0.12859191746E+02 -0.73278792337E+01  0.16497715818E+02  0.22163986073E+02  0.10500000000E+00 0. -1.
    3000001    1    5    5    0    0 -0.18031766173E+02  0.13359703817E+02 -0.39775062923E+02  0.45680213528E+02  0.10000000000E+01 0. -1.
        -13    1    6    6    0    0 -0.58780689920E+01  0.32567117614E+01 -0.56455223142E+01  0.87772896598E+01  0.10500000000E+00 0.  1.
         13    1    6    6    0    0 -0.53049833765E+01  0.29579626680E+01 -0.52705197251E+01  0.80424992970E+01  0.10500000000E+00 0. -1.
</event>
<event>
11    0  0.3422856E-009  0.9118800E+02  0.7816531E-02  0.1126479E+00
         25   -1    0    0    0    0  0.00000000000E+00  0.00000000000E+00  0.99999998245E-14  0.12500000000E+03  0.12500000000E+03 0.  0.
    3000001    1    3    3    0    0  0.31297396857E+01 -0.17948623873E+02  0.84671120898E+01  0.20115674400E+02  0.10000000000E+01 0. -1.
    1000022    2    1    0    0    0  0.44098987889E+01 -0.48749534902E+02  0.37553769505E+02  0.62500000176E+02  0.10000002875E+02 0.  0.
    3000022    2    3    3    0    0  0.12801591032E+01 -0.30800911029E+02  0.29086657415E+02  0.42384325776E+02  0.25000869442E+00 0.  0.
    1000022    2    1    0    0    0 -0.44098987889E+01  0.48749534902E+02 -0.37553769505E+02  0.62499999824E+02  0.10000000672E+02 0.  0.
    3000022    2    5    5    0    0  0.26041241125E+01  0.50410107231E+01 -0.41328487032E+01  0.70239730158E+01  0.25001403696E+00 0.  0.
        -13    1    4    4    0    0  0.84491331217E+00 -0.19874453930E+02  0.18694416608E+02  0.27298352236E+02  0.10500000000E+00 0. -1.
         13    1    4    4    0    0  0.43524579103E+00 -0.10926457099E+02  0.10392240808E+02  0.15085973540E+02  0.10500000000E+00 0.  1.
    3000001    1    5    5    0    0 -0.70140229013E+01  0.43708524179E+02 -0.33420920802E+02  0.55476026808E+02  0.10000000000E+01 0.  1.
        -13    1    6    6    0    0  0.14503231361E+01  0.27368617666E+01 -0.23279533112E+01  0.38761116016E+01  0.10500000000E+00 0.  1.
         13    1    6    6    0    0  0.11538009764E+01  0.23041489566E+01 -0.18048953920E+01  0.31478614142E+01  0.10500000000E+00 0. -1.
</event>
<event>
11    0  0.3422856E-009  0.9118800E+02  0.7816531E-02  0.1126479E+00
         25   -1    0    0    0    0  0.00000000000E+00  0.00000000000E+00  0.99999998245E-14  0.12500000000E+03  0.12500000000E+03 0.  0.
    3000001    1    3    3    0    0 -0.37329205767E+02  0.39185473438E+02 -0.15088812912E+02  0.56192910646E+02  0.10000000000E+01 0. -1.
    1000022    2    1    0    0    0 -0.41927233224E+02  0.43195522225E+02 -0.13509409894E+02  0.62499999123E+02  0.99999854313E+01 0.  0.
    3000022    2    3    3    0    0 -0.45980274563E+01  0.40100487862E+01  0.15794030176E+01  0.63070884766E+01  0.25000680662E+00 0.  0.
    1000022    2    1    0    0    0  0.41927233224E+02 -0.43195522225E+02  0.13509409894E+02  0.62500000877E+02  0.99999963956E+01 0.  0.
    3000022    2    5    5    0    0  0.22743420049E+02 -0.24922586883E+02  0.26347102634E+01  0.33843798303E+02  0.24998586041E+00 0.  0.
        -13    1    4    4    0    0 -0.23924638534E+01  0.19991205180E+01  0.79042843839E+00  0.32181000996E+01  0.10500000000E+00 0.  1.
         13    1    4    4    0    0 -0.22055636030E+01  0.20109282682E+01  0.78897457920E+00  0.30889883770E+01  0.10500000000E+00 0. -1.
    3000001    1    5    5    0    0  0.19183813175E+02 -0.18272935342E+02  0.10874699631E+02  0.28656202574E+02  0.10000000000E+01 0.  1.
        -13    1    6    6    0    0  0.12000837685E+02 -0.13250026511E+02  0.13881966011E+01  0.17931018446E+02  0.10500000000E+00 0.  1.
         13    1    6    6    0    0  0.10742582363E+02 -0.11672560372E+02  0.12465136623E+01  0.15912779857E+02  0.10500000000E+00 0. -1.
</event>
<event>
11    0  0.3422856E-009  0.9118800E+02  0.7816531E-02  0.1126479E+00
         25   -1    0    0    0    0  0.00000000000E+00  0.00000000000E+00  0.99999998245E-14  0.12500000000E+03  0.12500000000E+03 0.  0.
    3000001    1    3    3    0    0  0.55583121297E+01 -0.19421962127E+02 -0.81682963082E+01  0.21813493787E+02  0.10000000000E+01 0.  1.
    1000022    2    1    0    0    0  0.25660835673E+02 -0.48122692177E+02 -0.28844031527E+02  0.62500001131E+02  0.99999998435E+01 0.  0.
    3000022    2    3    3    0    0  0.20102523543E+02 -0.28700730050E+02 -0.20675735219E+02  0.40686507345E+02  0.24998972803E+00 0.  0.
    1000022    2    1    0    0    0 -0.25660835673E+02  0.48122692177E+02  0.28844031527E+02  0.62499998869E+02  0.99999857034E+01 0.  0.
    3000022    2    5    5    0    0 -0.25990183971E+02  0.47525633598E+02  0.27724816415E+02  0.60851486898E+02  0.25000148338E+00 0.  0.
        -13    1    4    4    0    0  0.13805273526E+02 -0.19689621265E+02 -0.14244465763E+02  0.27949643872E+02  0.10500000000E+00 0.  1.
         13    1    4    4    0    0  0.62972500174E+01 -0.90111087851E+01 -0.64312694560E+01  0.12736863473E+02  0.10500000000E+00 0. -1.
    3000001    1    5    5    0    0  0.32934829885E+00  0.59705857902E+00  0.11192151124E+01  0.16485119704E+01  0.10000000000E+01 0. -1.
        -13    1    6    6    0    0 -0.13980139734E+02  0.25427285033E+02  0.14835357205E+02  0.32589721992E+02  0.10500000000E+00 0. -1.
         13    1    6    6    0    0 -0.12010044237E+02  0.22098348565E+02  0.12889459210E+02  0.28261764906E+02  0.10500000000E+00 0.  1.
</event>
<event>
11    0  0.3422856E-009  0.9118800E+02  0.7816531E-02  0.1126479E+00
         25   -1    0    0    0    0  0.00000000000E+00  0.00000000000E+00  0.99999998245E-14  0.12500000000E+03  0.12500000000E+03 0.  0.
    3000001    1    3    3    0    0 -0.11164293969E+01  0.18348218539E+02 -0.94649031032E+01  0.20699949973E+02  0.10000000000E+01 0.  1.
    1000022    2    1    0    0    0  0.10428634416E+02  0.53251165656E+02 -0.29356547835E+02  0.62500000603E+02  0.10000005749E+02 0.  0.
    3000022    2    3    3    0    0  0.11545063813E+02  0.34902947118E+02 -0.19891644732E+02  0.41800050630E+02  0.24997306521E+00 0.  0.
    1000022    2    1    0    0    0 -0.10428634416E+02 -0.53251165656E+02  0.29356547835E+02  0.62499999397E+02  0.99999982142E+01 0.  0.
    3000022    2    5    5    0    0 -0.10816417112E+02 -0.49441487209E+02  0.29421274654E+02  0.58541689802E+02  0.25001199015E+00 0.  0.
        -13    1    4    4    0    0  0.59606172961E+01  0.17810214907E+02 -0.10144259728E+02  0.21345953809E+02  0.10500000000E+00 0. -1.
         13    1    4    4    0    0  0.55844465169E+01  0.17092732211E+02 -0.97473850037E+01  0.20454096820E+02  0.10500000000E+00 0.  1.
    3000001    1    5    5    0    0  0.38778269536E+00 -0.38096784475E+01 -0.64726819023E-01  0.39583095955E+01  0.10000000000E+01 0. -1.
        -13    1    6    6    0    0 -0.30885338216E+01 -0.14262431603E+02  0.84498144330E+01  0.16863166528E+02  0.10500000000E+00 0.  1.
         13    1    6    6    0    0 -0.77278832900E+01 -0.35179055606E+02  0.20971460221E+02  0.41678523274E+02  0.10500000000E+00 0. -1.
</event>
<event>
11    0  0.3422856E-009  0.9118800E+02  0.7816531E-02  0.1126479E+00
         25   -1    0    0    0    0  0.00000000000E+00  0.00000000000E+00  0.99999998245E-14  0.12500000000E+03  0.12500000000E+03 0.  0.
    3000001    1    3    3    0    0  0.43219254839E+01  0.53339817939E+01  0.14683451026E+01  0.70912931829E+01  0.10000000000E+01 0. -1.
    1000022    2    1    0    0    0  0.54849790181E+02  0.26485433059E+02  0.98118307759E+01  0.62500004179E+02  0.10000042599E+02 0.  0.
    3000022    2    3    3    0    0  0.50527864697E+02  0.21151451265E+02  0.83434856733E+01  0.55408710996E+02  0.24999920804E+00 0.  0.
    1000022    2    1    0    0    0 -0.54849790181E+02 -0.26485433059E+02 -0.98118307759E+01  0.62499995821E+02  0.99999903634E+01 0.  0.
    3000022    2    5    5    0    0 -0.30949975456E+02 -0.10648262329E+02 -0.83231469098E+01  0.33773121639E+02  0.24999883591E+00 0.  0.
        -13    1    4    4    0    0  0.12564075476E+02  0.52323018227E+01  0.20774979217E+01  0.13768078935E+02  0.10500000000E+00 0.  1.
         13    1    4    4    0    0  0.37963789221E+02  0.15919149443E+02  0.62659877515E+01  0.41640632061E+02  0.10500000000E+00 0. -1.
    3000001    1    5    5    0    0 -0.23899814725E+02 -0.15837170730E+02 -0.14886838661E+01  0.28726874182E+02  0.10000000000E+01 0.  1.
        -13    1    6    6    0    0 -0.92762474039E+01 -0.31788466697E+01 -0.25391782164E+01  0.10129772113E+02  0.10500000000E+00 0.  1.
         13    1    6    6    0    0 -0.21673728052E+02 -0.74694156592E+01 -0.57839686934E+01  0.23643349526E+02  0.10500000000E+00 0. -1.
</event>
<event>
11    0  0.3422856E-009  0.9118800E+02  0.7816531E-02  0.1126479E+00
         25   -1    0    0    0    0  0.00000000000E+00  0.00000000000E+00  0.99999998245E-14  0.12500000000E+03  0.12500000000E+03 0.  0.
    3000001    1    3    3    0    0 -0.21647431230E+02  0.10409938648E+02  0.26998240011E+02  0.36150837683E+02  0.10000000000E+01 0.  1.
    1000022    2    1    0    0    0 -0.39395998670E+02  0.23946014096E+02  0.40997481493E+02  0.62499998021E+02  0.99999980751E+01 0.  0.
    3000022    2    3    3    0    0 -0.17748567440E+02  0.13536075448E+02  0.13999241482E+02  0.26349160337E+02  0.25000740011E+00 0.  0.
    1000022    2    1    0    0    0  0.39395998670E+02 -0.23946014096E+02 -0.40997481493E+02  0.62500001979E+02  0.10000022815E+02 0.  0.
    3000022    2    5    5    0    0  0.37032242732E+02 -0.19429073861E+02 -0.37976601339E+02  0.56490359051E+02  0.25000713919E+00 0.  0.
        -13    1    4    4    0    0 -0.43138830236E+01  0.33093788348E+01  0.33915661310E+01  0.64090031077E+01  0.10500000000E+00 0. -1.
         13    1    4    4    0    0 -0.13434684417E+02  0.10226696613E+02  0.10607675351E+02  0.19940157230E+02  0.10500000000E+00 0.  1.
    3000001    1    5    5    0    0  0.23637559384E+01 -0.45169402347E+01 -0.30208801543E+01  0.60096429284E+01  0.10000000000E+01 0.  1.
        -13    1    6    6    0    0  0.11184878394E+02 -0.58975243613E+01 -0.11534791292E+02  0.17115628339E+02  0.10500000000E+00 0. -1.
         13    1    6    6    0    0  0.25847364338E+02 -0.13531549500E+02 -0.26441810047E+02  0.39374730712E+02  0.10500000000E+00 0.  1.
</event>
<event>
11    0  0.3422856E-009  0.9118800E+02  0.7816531E-02  0.1126479E+00
         25   -1    0    0    0    0  0.00000000000E+00  0.00000000000E+00  0.99999998245E-14  0.12500000000E+03  0.12500000000E+03 0.  0.
    3000001    1    3    3    0    0 -0.18328899878E+01 -0.44914304688E+02 -0.41197212726E+02  0.60982494109E+02  0.10000000000E+01 0.  1.
    1000022    2    1    0    0    0 -0.23513402678E+01 -0.44597454251E+02 -0.42565110726E+02  0.62500001702E+02  0.99999917449E+01 0.  0.
    3000022    2    3    3    0    0 -0.51845027997E+00  0.31685043688E+00 -0.13678980006E+01  0.15175075938E+01  0.24999893016E+00 0.  0.
    1000022    2    1    0    0    0  0.23513402678E+01  0.44597454251E+02  0.42565110726E+02  0.62499998298E+02  0.99999704657E+01 0.  0.
    3000022    2    5    5    0    0  0.39487134566E+01  0.17560819836E+02  0.11921095558E+02  0.21590502245E+02  0.25007325829E+00 0.  0.
        -13    1    4    4    0    0 -0.24701336032E+00  0.14432144158E+00 -0.49441140008E+00  0.58078559831E+00  0.10500000000E+00 0.  1.
         13    1    4    4    0    0 -0.27143691966E+00  0.17252899530E+00 -0.87348660052E+00  0.93672199550E+00  0.10500000000E+00 0. -1.
    3000001    1    5    5    0    0 -0.15973731888E+01  0.27036634416E+02  0.30644015169E+02  0.40909496053E+02  0.10000000000E+01 0.  1.
        -13    1    6    6    0    0  0.16146738607E+01  0.74780347929E+01  0.50639237885E+01  0.91751035512E+01  0.10500000000E+00 0. -1.
         13    1    6    6    0    0  0.23340395959E+01  0.10082785043E+02  0.68571717693E+01  0.12415398694E+02  0.10500000000E+00 0.  1.
</event>
<event>
11    0  0.3422856E-009  0.9118800E+02  0.7816531E-02  0.1126479E+00
         25   -1    0    0    0    0  0.00000000000E+00  0.00000000000E+00  0.99999998245E-14  0.12500000000E+03  0.12500000000E+03 0.  0.
    3000001    1    3    3    0    0  0.51920645329E+01  0.47696690023E+01  0.22007965391E+02  0.23131316805E+02  0.10000000000E+01 0.  1.
    1000022    2    1    0    0    0  0.18921364560E+02  0.23382284886E+02  0.53865579804E+02  0.62500000341E+02  0.10000003586E+02 0.  0.
    3000022    2    3    3    0    0  0.13729300027E+02  0.18612615884E+02  0.31857614413E+02  0.39368683536E+02  0.24999595585E+00 0.  0.
    1000022    2    1    0    0    0 -0.18921364560E+02 -0.23382284886E+02 -0.53865579804E+02  0.62499999659E+02  0.99999993220E+01 0.  0.
    3000022    2    5    5    0    0 -0.17943227676E+02 -0.19549940067E+02 -0.51073848601E+02  0.57556581642E+02  0.25000671705E+00 0.  0.
        -13    1    4    4    0    0  0.52127456391E+01  0.69740039472E+01  0.12035238532E+02  0.14854879322E+02  0.10500000000E+00 0. -1.
         13    1    4    4    0    0  0.85165543876E+01  0.11638611937E+02  0.19822375881E+02  0.24513804213E+02  0.10500000000E+00 0.  1.
    3000001    1    5    5    0    0 -0.97813688316E+00 -0.38323448194E+01 -0.27917312029E+01  0.49434180166E+01  0.10000000000E+01 0.  1.
        -13    1    6    6    0    0 -0.65718610881E+01 -0.72311445812E+01 -0.18883090127E+02  0.21261724480E+02  0.10500000000E+00 0.  1.
         13    1    6    6    0    0 -0.11371366588E+02 -0.12318795486E+02 -0.32190758474E+02  0.36294857163E+02  0.10500000000E+00 0. -1.
</event>
<event>
11    0  0.3422856E-009  0.9118800E+02  0.7816531E-02  0.1126479E+00
         25   -1    0    0    0    0  0.00000000000E+00  0.00000000000E+00  0.99999998245E-14  0.12500000000E+03  0.12500000000E+03 0.  0.
    3000001    1    3    3    0    0 -0.12613450686E+02  0.20416443882E+02  0.13389476910E+02  0.27499243825E+02  0.10000000000E+01 0. -1.
    1000022    2    1    0    0    0 -0.35817038962E+02  0.38151091510E+02  0.32678495878E+02  0.62500000755E+02  0.99999969039E+01 0.  0.
    3000022    2    3    3    0    0 -0.23203588277E+02  0.17734647628E+02  0.19289018967E+02  0.35000756930E+02  0.24999513689E+00 0.  0.
    1000022    2    1    0    0    0  0.35817038962E+02 -0.38151091510E+02 -0.32678495878E+02  0.62499999245E+02  0.99999874677E+01 0.  0.
    3000022    2    5    5    0    0  0.17360195677E+02 -0.14047117543E+02 -0.18398381669E+02  0.28935460117E+02  0.24999785284E+00 0.  0.
        -13    1    4    4    0    0 -0.13488550492E+02  0.10324453534E+02  0.11142719797E+02  0.20315180644E+02  0.10500000000E+00 0. -1.
         13    1    4    4    0    0 -0.97150377850E+01  0.74101940944E+01  0.81462991703E+01  0.14685576286E+02  0.10500000000E+00 0.  1.
    3000001    1    5    5    0    0  0.18456843285E+02 -0.24103973968E+02 -0.14280114209E+02  0.33564539128E+02  0.10000000000E+01 0. -1.
        -13    1    6    6    0    0  0.87139111592E+01 -0.69657648952E+01 -0.92100099140E+01  0.14466839181E+02  0.10500000000E+00 0. -1.
         13    1    6    6    0    0  0.86462845179E+01 -0.70813526477E+01 -0.91883717550E+01  0.14468620936E+02  0.10500000000E+00 0.  1.
</event>
<event>
11    0  0.3422856E-009  0.9118800E+02  0.7816531E-02  0.1126479E+00
         25   -1    0    0    0    0  0.00000000000E+00  0.00000000000E+00  0.99999998245E-14  0.12500000000E+03  0.12500000000E+03 0.  0.
    3000001    1    3    3    0    0  0.11022455413E+02  0.19842359867E+02  0.99735925404E+01  0.24813027155E+02  0.10000000000E+01 0. -1.
    1000022    2    1    0    0    0  0.37314831139E+02  0.45167809427E+02  0.19331900253E+02  0.62499999032E+02  0.99999940130E+01 0.  0.
    3000022    2    3    3    0    0  0.26292375726E+02  0.25325449560E+02  0.93583077121E+01  0.37686971877E+02  0.25001859424E+00 0.  0.
    1000022    2    1    0    0    0 -0.37314831139E+02 -0.45167809427E+02 -0.19331900253E+02  0.62500000968E+02  0.10000006113E+02 0.  0.
    3000022    2    5    5    0    0 -0.34805817664E+02 -0.39961902346E+02 -0.19899196046E+02  0.56607765257E+02  0.25000354763E+00 0.  0.
        -13    1    4    4    0    0  0.76725226515E+01  0.74107469042E+01  0.27770262248E+01  0.11023142618E+02  0.10500000000E+00 0.  1.
         13    1    4    4    0    0  0.18619853075E+02  0.17914702655E+02  0.65812814874E+01  0.26663829259E+02  0.10500000000E+00 0. -1.
    3000001    1    5    5    0    0 -0.25090134746E+01 -0.52059070809E+01  0.56729579320E+00  0.58922357105E+01  0.10000000000E+01 0.  1.
        -13    1    6    6    0    0 -0.21682923867E+02 -0.24855578324E+02 -0.12443796107E+02  0.35253482776E+02  0.10500000000E+00 0.  1.
         13    1    6    6    0    0 -0.13122893797E+02 -0.15106324022E+02 -0.74553999385E+01  0.21354282482E+02  0.10500000000E+00 0. -1.
</event>
<event>
11    0  0.3422856E-009  0.9118800E+02  0.7816531E-02  0.1126479E+00
         25   -1    0    0    0    0  0.00000000000E+00  0.00000000000E+00  0.99999998245E-14  0.12500000000E+03  0.12500000000E+03 0.  0.
    3000001    1    3    3    0    0  0.14509003423E+02  0.31304588026E+01 -0.18047373353E+02  0.23388429566E+02  0.10000000000E+01 0.  1.
    1000022    2    1    0    0    0  0.47003619703E+02  0.34676516645E+01 -0.39810616229E+02  0.62500001065E+02  0.10000004768E+02 0.  0.
    3000022    2    3    3    0    0  0.32494616280E+02  0.33719286188E+00 -0.21763242875E+02  0.39111571499E+02  0.24999677356E+00 0.  0.
    1000022    2    1    0    0    0 -0.47003619703E+02 -0.34676516645E+01  0.39810616229E+02  0.62499998935E+02  0.99999914545E+01 0.  0.
    3000022    2    5    5    0    0 -0.56997998129E+01  0.28481145425E+01  0.48885672918E+01  0.80349280889E+01  0.25000974630E+00 0.  0.
        -13    1    4    4    0    0  0.14501420064E+02  0.90952408929E-01 -0.96763493396E+01  0.17433938676E+02  0.10500000000E+00 0. -1.
         13    1    4    4    0    0  0.17993196217E+02  0.24624045295E+00 -0.12086893536E+02  0.21677632823E+02  0.10500000000E+00 0.  1.
    3000001    1    5    5    0    0 -0.41303819890E+02 -0.63157662070E+01  0.34922048937E+02  0.54465070846E+02  0.10000000000E+01 0.  1.
        -13    1    6    6    0    0 -0.43855517007E+01  0.21805410141E+01  0.37537316295E+01  0.61716569072E+01  0.10500000000E+00 0. -1.
         13    1    6    6    0    0 -0.13142481122E+01  0.66757352840E+00  0.11348356622E+01  0.18632711817E+01  0.10500000000E+00 0.  1.
</event>
<event>
11    0  0.3422856E-009  0.9118800E+02  0.7816531E-02  0.1126479E+00
         25   -1    0    0    0    0  0.00000000000E+00  0.00000000000E+00  0.99999998245E-14  0.12500000000E+03  0.12500000000E+03 0.  0.
    3000001    1    3    3    0    0 -0.40018886374E+02 -0.45007968467E+02  0.29229890764E+01  0.60305657756E+02  0.10000000000E+01 0. -1.
    1000022    2    1    0    0    0 -0.40416280418E+02 -0.46389235695E+02  0.45621395776E+01  0.62500000466E+02  0.10000001475E+02 0.  0.
    3000022    2    3    3    0    0 -0.39739404302E+00 -0.13812672282E+01  0.16391505011E+01  0.21943427101E+01  0.25000876564E+00 0.  0.
    1000022    2    1    0    0    0  0.40416280418E+02  0.46389235695E+02 -0.45621395776E+01  0.62499999534E+02  0.99999956545E+01 0.  0.
    3000022    2    5    5    0    0  0.13696627608E+01  0.13626801222E+01  0.16724058094E+01  0.25675491140E+01  0.24998813507E+00 0.  0.
        -13    1    4    4    0    0 -0.12180253995E+00 -0.33208765993E+00  0.42337708730E+00  0.56159703584E+00  0.10500000000E+00 0.  1.
         13    1    4    4    0    0 -0.27559150307E+00 -0.10491795683E+01  0.12157734138E+01  0.16327456743E+01  0.10500000000E+00 0. -1.
    3000001    1    5    5    0    0  0.39046617657E+02  0.45026555573E+02 -0.62345453870E+01  0.59932450420E+02  0.10000000000E+01 0. -1.
        -13    1    6    6    0    0  0.75172948966E+00  0.65445598342E+00  0.87894474796E+00  0.13330336567E+01  0.10500000000E+00 0. -1.
         13    1    6    6    0    0  0.61793327112E+00  0.70822413875E+00  0.79346106146E+00  0.12345154573E+01  0.10500000000E+00 0.  1.
</event>
<event>
11    0  0.3422856E-009  0.9118800E+02  0.7816531E-02  0.1126479E+00
         25   -1    0    0    0    0  0.00000000000E+00  0.00000000000E+00  0.99999998245E-14  0.12500000000E+03  0.12500000000E+03 0.  0.
    3000001    1    3    3    0    0  0.52293287066E+02 -0.22812933941E+02 -0.87836399532E+01  0.57733613762E+02  0.10000000000E+01 0. -1.
    1000022    2    1    0    0    0  0.56065820819E+02 -0.22942936556E+02 -0.11683128440E+02  0.62499999465E+02  0.99999920562E+01 0.  0.
    3000022    2    3    3    0    0  0.37725337529E+01 -0.13000261523E+00 -0.28994884863E+01  0.47663857037E+01  0.24997519368E+00 0.  0.
    1000022    2    1    0    0    0 -0.56065820819E+02  0.22942936556E+02  0.11683128440E+02  0.62500000535E+02  0.99999987408E+01 0.  0.
    3000022    2    5    5    0    0 -0.47778496519E+02  0.22903756402E+02  0.90922189869E+01  0.53759629208E+02  0.24999915279E+00 0.  0.
        -13    1    4    4    0    0  0.24096053929E+01 -0.11992759956E+00 -0.19080151437E+01  0.30776821745E+01  0.10500000000E+00 0.  1.
         13    1    4    4    0    0  0.13629283600E+01 -0.10075015668E-01 -0.99147334257E+00  0.16887035292E+01  0.10500000000E+00 0. -1.
    3000001    1    5    5    0    0 -0.82873242996E+01  0.39180154291E-01  0.25909094527E+01  0.87403713264E+01  0.10000000000E+01 0.  1.
        -13    1    6    6    0    0 -0.17476049943E+02  0.84052908595E+01  0.32735782267E+01  0.19666941182E+02  0.10500000000E+00 0.  1.
         13    1    6    6    0    0 -0.30302446576E+02  0.14498465542E+02  0.58186407602E+01  0.34092688027E+02  0.10500000000E+00 0. -1.
</event>
<event>
11    0  0.3422856E-009  0.9118800E+02  0.7816531E-02  0.1126479E+00
         25   -1    0    0    0    0  0.00000000000E+00  0.00000000000E+00  0.99999998245E-14  0.12500000000E+03  0.12500000000E+03 0.  0.
    3000001    1    3    3    0    0 -0.44292789844E+01  0.10697853176E+02 -0.48851559491E+01  0.12606638075E+02  0.10000000000E+01 0.  1.
    1000022    2    1    0    0    0 -0.27803885109E+02  0.54766512623E+02 -0.58157693077E+01  0.62499999304E+02  0.99999904130E+01 0.  0.
    3000022    2    3    3    0    0 -0.23374606125E+02  0.44068659447E+02 -0.93061335857E+00  0.49893361229E+02  0.24999312005E+00 0.  0.
    1000022    2    1    0    0    0  0.27803885109E+02 -0.54766512623E+02  0.58157693077E+01  0.62500000696E+02  0.99999991170E+01 0.  0.
    3000022    2    5    5    0    0  0.23240726795E+02 -0.37526494007E+02  0.17190380708E+01  0.44174503090E+02  0.24999389962E+00 0.  0.
        -13    1    4    4    0    0 -0.85401068990E+01  0.16037155017E+02 -0.38952951785E+00  0.18173786758E+02  0.10500000000E+00 0.  1.
         13    1    4    4    0    0 -0.14834499226E+02  0.28031504430E+02 -0.54108384073E+00  0.31719574471E+02  0.10500000000E+00 0. -1.
    3000001    1    5    5    0    0  0.45631583138E+01 -0.17240018616E+02  0.40967312368E+01  0.18325497606E+02  0.10000000000E+01 0. -1.
        -13    1    6    6    0    0  0.12032019690E+02 -0.19381807114E+02  0.95166541825E+00  0.22832884988E+02  0.10500000000E+00 0. -1.
         13    1    6    6    0    0  0.11208707106E+02 -0.18144686893E+02  0.76737265259E+00  0.21341618102E+02  0.10500000000E+00 0.  1.
</event>
<event>
11    0  0.3422856E-009  0.9118800E+02  0.7816531E-02  0.1126479E+00
         25   -1    0    0    0    0  0.00000000000E+00  0.00000000000E+00  0.99999998245E-14  0.12500000000E+03  0.12500000000E+03 0.  0.
    3000001    1    3    3    0    0  0.45333480079E+02 -0.22700992077E-01  0.21317023177E+02  0.50105293218E+02  0.10000000000E+01 0.  1.
    1000022    2    1    0    0    0  0.53974462211E+02  0.27470494580E+01  0.29756698768E+02  0.62500000222E+02  0.10000002723E+02 0.  0.
    3000022    2    3    3    0    0  0.86409821322E+01  0.27697504501E+01  0.84396755909E+01  0.12394707003E+02  0.25009567578E+00 0.  0.
    1000022    2    1    0    0    0 -0.53974462211E+02 -0.27470494580E+01 -0.29756698768E+02  0.62499999778E+02  0.99999999532E+01 0.  0.
    3000022    2    5    5    0    0 -0.53814607694E+02 -0.28832741495E+01 -0.28823300398E+02  0.61116040549E+02  0.24999084912E+00 0.  0.
        -13    1    4    4    0    0  0.61331508536E+01  0.19341426326E+01  0.59372792614E+01  0.87532141036E+01  0.10500000000E+00 0. -1.
         13    1    4    4    0    0  0.25078312786E+01  0.83560781750E+00  0.25023963296E+01  0.36414928995E+01  0.10500000000E+00 0.  1.
    3000001    1    5    5    0    0 -0.15985451684E+00  0.13622469140E+00 -0.93339836950E+00  0.13839592296E+01  0.10000000000E+01 0.  1.
        -13    1    6    6    0    0 -0.23244038896E+02 -0.11848232280E+01 -0.12476896641E+02  0.26407823179E+02  0.10500000000E+00 0.  1.
         13    1    6    6    0    0 -0.30570568798E+02 -0.16984509214E+01 -0.16346403757E+02  0.34708217369E+02  0.10500000000E+00 0. -1.
</event>
<event>
11    0  0.3422856E-009  0.9118800E+02  0.7816531E-02  0.1126479E+00
         25   -1    0    0    0    0  0.00000000000E+00  0.00000000000E+00  0.99999998245E-14  0.12500000000E+03  0.12500000000E+03 0.  0.
    3000001    1    3    3    0    0  0.35066971384E+02 -0.13391276013E+02 -0.41886911029E+01  0.37783116447E+02  0.10000000000E+01 0. -1.
    1000022    2    1    0    0    0  0.54433505106E+02 -0.28746815713E+02 -0.41065856683E+01  0.62500002756E+02  0.10000020343E+02 0.  0.
    3000022    2    3    3    0    0  0.19366533722E+02 -0.15355539701E+02  0.82105434605E-01  0.24716886309E+02  0.24999920363E+00 0.  0.
    1000022    2    1    0    0    0 -0.54433505106E+02  0.28746815713E+02  0.41065856683E+01  0.62499997244E+02  0.99999858959E+01 0.  0.
    3000022    2    5    5    0    0 -0.54058559472E+02  0.27625398170E+02  0.45783057473E+01  0.60881145377E+02  0.25000538081E+00 0.  0.
        -13    1    4    4    0    0  0.61679172155E+01 -0.48538402864E+01 -0.15101725308E-01  0.78494726807E+01  0.10500000000E+00 0.  1.
         13    1    4    4    0    0  0.13198616506E+02 -0.10501699414E+02  0.97207159913E-01  0.16867413628E+02  0.10500000000E+00 0. -1.
    3000001    1    5    5    0    0 -0.37494563420E+00  0.11214175438E+01 -0.47172007900E+00  0.16188518675E+01  0.10000000000E+01 0. -1.
        -13    1    6    6    0    0 -0.37897569416E+02  0.19409681471E+02  0.31864839426E+01  0.42698082010E+02  0.10500000000E+00 0.  1.
         13    1    6    6    0    0 -0.16160990056E+02  0.82157166988E+01  0.13918218046E+01  0.18183063367E+02  0.10500000000E+00 0. -1.
</event>
<event>
11    0  0.3422856E-009  0.9118800E+02  0.7816531E-02  0.1126479E+00
         25   -1    0    0    0    0  0.00000000000E+00  0.00000000000E+00  0.99999998245E-14  0.12500000000E+03  0.12500000000E+03 0.  0.
    3000001    1    3    3    0    0 -0.19293257997E+02 -0.26259399370E+02  0.49037540094E+00  0.32604084520E+02  0.10000000000E+01 0. -1.
    1000022    2    1    0    0    0 -0.35258649139E+02 -0.49582882476E+02  0.10228174619E+02  0.62500000703E+02  0.99999979050E+01 0.  0.
    3000022    2    3    3    0    0 -0.15965391142E+02 -0.23323483107E+02  0.97377992184E+01  0.29895916183E+02  0.24998448141E+00 0.  0.
    1000022    2    1    0    0    0  0.35258649139E+02  0.49582882476E+02 -0.10228174619E+02  0.62499999297E+02  0.99999891149E+01 0.  0.
    3000022    2    5    5    0    0  0.42297807780E+01  0.11730265970E+02  0.75178916886E-01  0.12472303546E+02  0.25003738332E+00 0.  0.
        -13    1    4    4    0    0 -0.42031554930E+01 -0.61022615196E+01  0.25270636269E+01  0.78295074766E+01  0.10500000000E+00 0.  1.
         13    1    4    4    0    0 -0.11762235649E+02 -0.17221221587E+02  0.72107355915E+01  0.22066408706E+02  0.10500000000E+00 0. -1.
    3000001    1    5    5    0    0  0.31028868361E+02  0.37852616506E+02 -0.10303353536E+02  0.50027695751E+02  0.10000000000E+01 0. -1.
        -13    1    6    6    0    0  0.15119555369E+01  0.43598678584E+01  0.91993018025E-02  0.46157953719E+01  0.10500000000E+00 0.  1.
         13    1    6    6    0    0  0.27178252412E+01  0.73703981121E+01  0.65979615083E-01  0.78565081736E+01  0.10500000000E+00 0. -1.
</event>
<event>
11    0  0.3422856E-009  0.9118800E+02  0.7816531E-02  0.1126479E+00
         25   -1    0    0    0    0  0.00000000000E+00  0.00000000000E+00  0.99999998245E-14  0.12500000000E+03  0.12500000000E+03 0.  0.
    3000001    1    3    3    0    0  0.56483382777E+02 -0.11919429412E+02  0.58223121752E+01  0.58028825996E+02  0.10000000000E+01 0. -1.
    1000022    2    1    0    0    0  0.59633135256E+02 -0.14987521577E+02  0.50511255819E+01  0.62499995787E+02  0.99999490127E+01 0.  0.
    3000022    2    3    3    0    0  0.31497524794E+01 -0.30680921654E+01 -0.77118659330E+00  0.44711697912E+01  0.25000064743E+00 0.  0.
    1000022    2    1    0    0    0 -0.59633135256E+02  0.14987521577E+02 -0.50511255819E+01  0.62500004213E+02  0.10000001673E+02 0.  0.
    3000022    2    5    5    0    0 -0.37533527660E+02  0.65288509421E+01 -0.70002002985E+01  0.38735731510E+02  0.24999642819E+00 0.  0.
        -13    1    4    4    0    0  0.11957909467E+01 -0.11055922975E+01 -0.32836396272E+00  0.16646615898E+01  0.10500000000E+00 0.  1.
         13    1    4    4    0    0  0.19539615327E+01 -0.19624998679E+01 -0.44282263059E+00  0.28065082014E+01  0.10500000000E+00 0. -1.
    3000001    1    5    5    0    0 -0.22099607596E+02  0.84586706349E+01  0.19490747166E+01  0.23764272703E+02  0.10000000000E+01 0. -1.
        -13    1    6    6    0    0 -0.13516101464E+02  0.23852362725E+01 -0.25701409606E+01  0.13963917803E+02  0.10500000000E+00 0. -1.
         13    1    6    6    0    0 -0.24017426196E+02  0.41436146696E+01 -0.44300593379E+01  0.24771813707E+02  0.10500000000E+00 0.  1.
</event>
<event>
11    0  0.3422856E-009  0.9118800E+02  0.7816531E-02  0.1126479E+00
         25   -1    0    0    0    0  0.00000000000E+00  0.00000000000E+00  0.99999998245E-14  0.12500000000E+03  0.12500000000E+03 0.  0.
    3000001    1    3    3    0    0  0.71809901541E+01 -0.10750615076E+02 -0.75432751144E+00  0.12988893490E+02  0.10000000000E+01 0.  1.
    1000022    2    1    0    0    0  0.46870094116E+02 -0.38793242601E+02 -0.10223922223E+02  0.62499999937E+02  0.10000000624E+02 0.  0.
    3000022    2    3    3    0    0  0.39689103962E+02 -0.28042627526E+02 -0.94695947117E+01  0.49511106447E+02  0.25001146093E+00 0.  0.
    1000022    2    1    0    0    0 -0.46870094116E+02  0.38793242601E+02  0.10223922223E+02  0.62500000063E+02  0.10000001413E+02 0.  0.
    3000022    2    5    5    0    0 -0.28246099101E+02  0.17510813562E+02  0.75049314559E+01  0.34071354528E+02  0.24999443319E+00 0.  0.
        -13    1    4    4    0    0  0.18541266158E+02 -0.13176386967E+02 -0.44055617637E+01  0.23169284057E+02  0.10500000000E+00 0. -1.
         13    1    4    4    0    0  0.21147837804E+02 -0.14866240559E+02 -0.50640329480E+01  0.26341822390E+02  0.10500000000E+00 0.  1.
    3000001    1    5    5    0    0 -0.18623995015E+02  0.21282429039E+02  0.27189907672E+01  0.28428645535E+02  0.10000000000E+01 0. -1.
        -13    1    6    6    0    0 -0.17231322739E+02  0.10649985311E+02  0.45174131985E+01  0.20754727593E+02  0.10500000000E+00 0. -1.
         13    1    6    6    0    0 -0.11014776362E+02  0.68608282515E+01  0.29875182574E+01  0.13316626935E+02  0.10500000000E+00 0.  1.
</event>
<event>
11    0  0.3422856E-009  0.9118800E+02  0.7816531E-02  0.1126479E+00
         25   -1    0    0    0    0  0.00000000000E+00  0.00000000000E+00  0.99999998245E-14  0.12500000000E+03  0.12500000000E+03 0.  0.
    3000001    1    3    3    0    0 -0.17138979905E+02  0.10209303598E+02  0.23793343480E+02  0.31066021729E+02  0.10000000000E+01 0.  1.
    1000022    2    1    0    0    0 -0.31320025686E+02  0.11957860141E+02  0.51791075651E+02  0.62500000420E+02  0.10000005364E+02 0.  0.
    3000022    2    3    3    0    0 -0.14181045782E+02  0.17485565429E+01  0.27997732171E+02  0.31433978691E+02  0.25000033217E+00 0.  0.
    1000022    2    1    0    0    0  0.31320025686E+02 -0.11957860141E+02 -0.51791075651E+02  0.62499999580E+02  0.10000000111E+02 0.  0.
    3000022    2    5    5    0    0  0.28050528420E+02 -0.88721449320E+01 -0.38641577319E+02  0.48567284226E+02  0.24999819189E+00 0.  0.
        -13    1    4    4    0    0 -0.60838530384E+01  0.68430421543E+00  0.12002804504E+02  0.13474415795E+02  0.10500000000E+00 0.  1.
         13    1    4    4    0    0 -0.80971927434E+01  0.10642523274E+01  0.15994927667E+02  0.17959562896E+02  0.10500000000E+00 0. -1.
    3000001    1    5    5    0    0  0.32694972660E+01 -0.30857152090E+01 -0.13149498332E+02  0.13932715353E+02  0.10000000000E+01 0.  1.
        -13    1    6    6    0    0  0.80455436689E+01 -0.25047994642E+01 -0.11096616589E+02  0.13933797688E+02  0.10500000000E+00 0.  1.
         13    1    6    6    0    0  0.20004984751E+02 -0.63673454678E+01 -0.27544960730E+02  0.34633486539E+02  0.10500000000E+00 0. -1.
</event>
<event>
11    0  0.3422856E-009  0.9118800E+02  0.7816531E-02  0.1126479E+00
         25   -1    0    0    0    0  0.00000000000E+00  0.00000000000E+00  0.99999998245E-14  0.12500000000E+03  0.12500000000E+03 0.  0.
    3000001    1    3    3    0    0  0.22743170961E+02  0.41669097124E+02 -0.32610801551E+02  0.57602342472E+02  0.10000000000E+01 0.  1.
    1000022    2    1    0    0    0  0.22705648033E+02  0.46444281813E+02 -0.33669456159E+02  0.62499999900E+02  0.99999971820E+01 0.  0.
    3000022    2    3    3    0    0 -0.37522927250E-01  0.47751846898E+01 -0.10586546081E+01  0.48976574279E+01  0.25000382120E+00 0.  0.
    1000022    2    1    0    0    0 -0.22705648033E+02 -0.46444281813E+02  0.33669456159E+02  0.62500000100E+02  0.99999984356E+01 0.  0.
    3000022    2    5    5    0    0 -0.13588128004E+02 -0.19629425130E+02  0.11399863901E+02  0.26456964021E+02  0.24998938777E+00 0.  0.
        -13    1    4    4    0    0 -0.18476089920E-01  0.30965123806E+01 -0.74392559313E+00  0.31864055890E+01  0.10500000000E+00 0. -1.
         13    1    4    4    0    0 -0.19046837331E-01  0.16786723091E+01 -0.31472901499E+00  0.17112518389E+01  0.10500000000E+00 0.  1.
    3000001    1    5    5    0    0 -0.91175200297E+01 -0.26814856684E+02  0.22269592258E+02  0.36043036079E+02  0.10000000000E+01 0.  1.
        -13    1    6    6    0    0 -0.66434216288E+01 -0.95059095407E+01  0.55859735111E+01  0.12872897584E+02  0.10500000000E+00 0. -1.
         13    1    6    6    0    0 -0.69447063749E+01 -0.10123515589E+02  0.58138903902E+01  0.13584066438E+02  0.10500000000E+00 0.  1.
</event>
<event>
11    0  0.3422856E-009  0.9118800E+02  0.7816531E-02  0.1126479E+00
         25   -1    0    0    0    0  0.00000000000E+00  0.00000000000E+00  0.99999998245E-14  0.12500000000E+03  0.12500000000E+03 0.  0.
    3000001    1    3    3    0    0 -0.21825525349E+02  0.25621814920E+00 -0.12325557222E+02  0.25086621242E+02  0.10000000000E+01 0.  1.
    1000022    2    1    0    0    0 -0.52137868781E+02 -0.11200556033E+02 -0.31023218150E+02  0.62499999402E+02  0.10000002220E+02 0.  0.
    3000022    2    3    3    0    0 -0.30312343432E+02 -0.11456774182E+02 -0.18697660928E+02  0.37413378160E+02  0.25000435754E+00 0.  0.
    1000022    2    1    0    0    0  0.52137868781E+02  0.11200556033E+02  0.31023218150E+02  0.62500000598E+02  0.10000009691E+02 0.  0.
    3000022    2    5    5    0    0  0.16949190533E+02 -0.84049979085E+00  0.81636399632E+01  0.18833189206E+02  0.24999720956E+00 0.  0.
        -13    1    4    4    0    0 -0.95563545350E+01 -0.36133348664E+01 -0.59525101124E+01  0.11824698833E+02  0.10500000000E+00 0. -1.
         13    1    4    4    0    0 -0.20755988897E+02 -0.78434393156E+01 -0.12745150816E+02  0.25588679327E+02  0.10500000000E+00 0.  1.
    3000001    1    5    5    0    0  0.35188678248E+02  0.12041055824E+02  0.22859578187E+02  0.43666811391E+02  0.10000000000E+01 0.  1.
        -13    1    6    6    0    0  0.53925677888E+01 -0.23308863707E+00  0.25559931564E+01  0.59731267930E+01  0.10500000000E+00 0. -1.
         13    1    6    6    0    0  0.11556622744E+02 -0.60741115378E+00  0.56076468068E+01  0.12860062413E+02  0.10500000000E+00 0.  1.
</event>
<event>
11    0  0.3422856E-009  0.9118800E+02  0.7816531E-02  0.1126479E+00
         25   -1    0    0    0    0  0.00000000000E+00  0.00000000000E+00  0.99999998245E-14  0.12500000000E+03  0.12500000000E+03 0.  0.
    3000001    1    3    3    0    0 -0.74105644455E+01  0.17091687257E+02  0.49163320975E+02  0.52583974441E+02  0.10000000000E+01 0. -1.
    1000022    2    1    0    0    0 -0.88661687574E+01  0.16033629896E+02  0.58911490329E+02  0.62500000435E+02  0.10000006272E+02 0.  0.
    3000022    2    3    3    0    0 -0.14556043119E+01 -0.10580573614E+01  0.97481693542E+01  0.99160259938E+01  0.24999291555E+00 0.  0.
    1000022    2    1    0    0    0  0.88661687574E+01 -0.16033629896E+02 -0.58911490329E+02  0.62499999565E+02  0.10000000837E+02 0.  0.
    3000022    2    5    5    0    0  0.10282455503E+02 -0.16125746645E+02 -0.54525115523E+02  0.57782517442E+02  0.25000623022E+00 0.  0.
        -13    1    4    4    0    0 -0.87327316931E+00 -0.55520037917E+00  0.56413610926E+01  0.57364478090E+01  0.10500000000E+00 0. -1.
         13    1    4    4    0    0 -0.58233114257E+00 -0.50285698227E+00  0.41068082617E+01  0.41795781847E+01  0.10500000000E+00 0.  1.
    3000001    1    5    5    0    0 -0.14162867455E+01  0.92116748894E-01 -0.43863748064E+01  0.47174821232E+01  0.10000000000E+01 0. -1.
        -13    1    6    6    0    0  0.78165455348E+01 -0.12233355073E+02 -0.41341008907E+02  0.43816017652E+02  0.10500000000E+00 0.  1.
         13    1    6    6    0    0  0.24659099681E+01 -0.38923915723E+01 -0.13184106616E+02  0.13966499790E+02  0.10500000000E+00 0. -1.
</event>
<event>
11    0  0.3422856E-009  0.9118800E+02  0.7816531E-02  0.1126479E+00
         25   -1    0    0    0    0  0.00000000000E+00  0.00000000000E+00  0.99999998245E-14  0.12500000000E+03  0.12500000000E+03 0.  0.
    3000001    1    3    3    0    0  0.19011155436E+01  0.49504973204E+01  0.14139284392E+01  0.55786071434E+01  0.10000000000E+01 0. -1.
    1000022    2    1    0    0    0  0.17367313441E+02  0.57540710152E+02 -0.13917371906E+02  0.62500000580E+02  0.99999965366E+01 0.  0.
    3000022    2    3    3    0    0  0.15466197897E+02  0.52590212832E+02 -0.15331300345E+02  0.56921393436E+02  0.24999474545E+00 0.  0.
    1000022    2    1    0    0    0 -0.17367313441E+02 -0.57540710152E+02  0.13917371906E+02  0.62499999420E+02  0.99999892908E+01 0.  0.
    3000022    2    5    5    0    0 -0.66140230646E+01 -0.19992378887E+02  0.97524816572E+01  0.23208056920E+02  0.24998568461E+00 0.  0.
        -13    1    4    4    0    0  0.44894265269E+01  0.15404097319E+02 -0.45078984239E+01  0.16666533472E+02  0.10500000000E+00 0. -1.
         13    1    4    4    0    0  0.10976771370E+02  0.37186115512E+02 -0.10823401921E+02  0.40254859964E+02  0.10500000000E+00 0.  1.
    3000001    1    5    5    0    0 -0.10753290376E+02 -0.37548331265E+02  0.41648902485E+01  0.39291942501E+02  0.10000000000E+01 0.  1.
        -13    1    6    6    0    0 -0.39177857616E+01 -0.11996329654E+02  0.58890759493E+01  0.13926708548E+02  0.10500000000E+00 0. -1.
         13    1    6    6    0    0 -0.26962373030E+01 -0.79960492328E+01  0.38634057080E+01  0.92813483715E+01  0.10500000000E+00 0.  1.
</event>
<event>
11    0  0.3422856E-009  0.9118800E+02  0.7816531E-02  0.1126479E+00
         25   -1    0    0    0    0  0.00000000000E+00  0.00000000000E+00  0.99999998245E-14  0.12500000000E+03  0.12500000000E+03 0.  0.
    3000001    1    3    3    0    0  0.37127200980E+02 -0.23105932869E+02  0.24719688206E+02  0.50243170395E+02  0.10000000000E+01 0.  1.
    1000022    2    1    0    0    0  0.43100311569E+02 -0.27661325573E+02  0.34401515555E+02  0.62500002329E+02  0.10000011444E+02 0.  0.
    3000022    2    3    3    0    0  0.59731105883E+01 -0.45553927041E+01  0.96818273489E+01  0.12256831934E+02  0.24999089043E+00 0.  0.
    1000022    2    1    0    0    0 -0.43100311569E+02  0.27661325573E+02 -0.34401515555E+02  0.62499997671E+02  0.99999823328E+01 0.  0.
    3000022    2    5    5    0    0 -0.33490916219E+02  0.17639585193E+02 -0.21567497166E+02  0.43566223953E+02  0.25000097493E+00 0.  0.
        -13    1    4    4    0    0  0.13653876542E+01 -0.10448766909E+01  0.22211605666E+01  0.28108059357E+01  0.10500000000E+00 0.  1.
         13    1    4    4    0    0  0.46077229342E+01 -0.35105160132E+01  0.74606667823E+01  0.94460259979E+01  0.10500000000E+00 0. -1.
    3000001    1    5    5    0    0 -0.96093953493E+01  0.10021740380E+02 -0.12834018389E+02  0.18933773718E+02  0.10000000000E+01 0.  1.
        -13    1    6    6    0    0 -0.17966852251E+02  0.93900663741E+01 -0.11529477831E+02  0.23322114191E+02  0.10500000000E+00 0.  1.
         13    1    6    6    0    0 -0.15524063969E+02  0.82495188189E+01 -0.10038019335E+02  0.20244109761E+02  0.10500000000E+00 0. -1.
</event>
<event>
11    0  0.3422856E-009  0.9118800E+02  0.7816531E-02  0.1126479E+00
         25   -1    0    0    0    0  0.00000000000E+00  0.00000000000E+00  0.99999998245E-14  0.12500000000E+03  0.12500000000E+03 0.  0.
    3000001    1    3    3    0    0 -0.16112289470E+01 -0.10387215168E+02  0.30335936239E+01  0.10986036043E+02  0.10000000000E+01 0. -1.
    1000022    2    1    0    0    0 -0.27351503407E+02 -0.50273843462E+02  0.23036624639E+02  0.62500001082E+02  0.99999992683E+01 0.  0.
    3000022    2    3    3    0    0 -0.25740274460E+02 -0.39886628295E+02  0.20003031015E+02  0.51513965039E+02  0.24999649672E+00 0.  0.
    1000022    2    1    0    0    0  0.27351503407E+02  0.50273843462E+02 -0.23036624639E+02  0.62499998918E+02  0.99999857443E+01 0.  0.
    3000022    2    5    5    0    0  0.19776458723E+01  0.26136916361E+01  0.93228270530E+00  0.34167420885E+01  0.25001658358E+00 0.  0.
        -13    1    4    4    0    0 -0.19831765479E+02 -0.30723418031E+02  0.15413015879E+02  0.39683742528E+02  0.10500000000E+00 0.  1.
         13    1    4    4    0    0 -0.59085089814E+01 -0.91632102639E+01  0.45900151357E+01  0.11830222511E+02  0.10500000000E+00 0. -1.
    3000001    1    5    5    0    0  0.25373857535E+02  0.47660151826E+02 -0.23968907344E+02  0.59083256830E+02  0.10000000000E+01 0. -1.
        -13    1    6    6    0    0  0.11342600822E+01  0.14128748798E+01  0.55805476974E+00  0.18987394466E+01  0.10500000000E+00 0.  1.
         13    1    6    6    0    0  0.84338579015E+00  0.12008167563E+01  0.37422793555E+00  0.15180026419E+01  0.10500000000E+00 0. -1.
</event>
<event>
11    0  0.3422856E-009  0.9118800E+02  0.7816531E-02  0.1126479E+00
         25   -1    0    0    0    0  0.00000000000E+00  0.00000000000E+00  0.99999998245E-14  0.12500000000E+03  0.12500000000E+03 0.  0.
    3000001    1    3    3    0    0  0.91172094413E+01 -0.53294071548E+01 -0.30103189184E+02  0.31917520074E+02  0.10000000000E+01 0.  1.
    1000022    2    1    0    0    0  0.23009975811E+02 -0.17355387624E+02 -0.54548891561E+02  0.62499999137E+02  0.99999927613E+01 0.  0.
    3000022    2    3    3    0    0  0.13892766370E+02 -0.12025980469E+02 -0.24445702377E+02  0.30582479064E+02  0.24999462898E+00 0.  0.
    1000022    2    1    0    0    0 -0.23009975811E+02  0.17355387624E+02  0.54548891561E+02  0.62500000863E+02  0.10000003543E+02 0.  0.
    3000022    2    5    5    0    0 -0.22550652522E+02  0.16810875599E+02  0.46407339352E+02  0.54266390257E+02  0.24999644347E+00 0.  0.
        -13    1    4    4    0    0  0.80329092097E+01 -0.70385225499E+01 -0.14220846201E+02  0.17785160155E+02  0.10500000000E+00 0.  1.
         13    1    4    4    0    0  0.58598571603E+01 -0.49874579193E+01 -0.10224856176E+02  0.12797318909E+02  0.10500000000E+00 0. -1.
    3000001    1    5    5    0    0 -0.45932328962E+00  0.54451202459E+00  0.81415522094E+01  0.82336106058E+01  0.10000000000E+01 0. -1.
        -13    1    6    6    0    0 -0.10911958876E+02  0.80964443131E+01  0.22301845553E+02  0.26115256022E+02  0.10500000000E+00 0. -1.
         13    1    6    6    0    0 -0.11638693646E+02  0.87144312862E+01  0.24105493799E+02  0.28151134235E+02  0.10500000000E+00 0.  1.
</event>
<event>
11    0  0.3422856E-009  0.9118800E+02  0.7816531E-02  0.1126479E+00
         25   -1    0    0    0    0  0.00000000000E+00  0.00000000000E+00  0.99999998245E-14  0.12500000000E+03  0.12500000000E+03 0.  0.
    3000001    1    3    3    0    0  0.33059990670E+01  0.24580268287E+02  0.15780528744E+02  0.29413335519E+02  0.10000000000E+01 0.  1.
    1000022    2    1    0    0    0  0.95440343572E+00  0.46825887958E+02  0.40158127788E+02  0.62500000960E+02  0.10000011178E+02 0.  0.
    3000022    2    3    3    0    0 -0.23515956313E+01  0.22245619670E+02  0.24377599045E+02  0.33086665441E+02  0.24999658878E+00 0.  0.
    1000022    2    1    0    0    0 -0.95440343572E+00 -0.46825887958E+02 -0.40158127788E+02  0.62499999040E+02  0.99999991836E+01 0.  0.
    3000022    2    5    5    0    0  0.34250527701E+01 -0.69540707123E+01 -0.60091018521E+01  0.98113150611E+01  0.25002441536E+00 0.  0.
        -13    1    4    4    0    0 -0.10428478619E+01  0.99006352222E+01  0.10751160053E+02  0.14652937486E+02  0.10500000000E+00 0.  1.
         13    1    4    4    0    0 -0.13087477693E+01  0.12344984448E+02  0.13626438991E+02  0.18433727955E+02  0.10500000000E+00 0. -1.
    3000001    1    5    5    0    0 -0.43794562059E+01 -0.39871817245E+02 -0.34149025936E+02  0.52688683979E+02  0.10000000000E+01 0.  1.
        -13    1    6    6    0    0  0.10378142337E+01 -0.22200727796E+01 -0.18997316101E+01  0.31025452005E+01  0.10500000000E+00 0.  1.
         13    1    6    6    0    0  0.23872385364E+01 -0.47339979327E+01 -0.41093702421E+01  0.67087698606E+01  0.10500000000E+00 0. -1.
</event>
<event>
11    0  0.3422856E-009  0.9118800E+02  0.7816531E-02  0.1126479E+00
         25   -1    0    0    0    0  0.00000000000E+00  0.00000000000E+00  0.99999998245E-14  0.12500000000E+03  0.12500000000E+03 0.  0.
    3000001    1    3    3    0    0  0.17295751638E+02  0.12271785153E+02 -0.34566442565E+02  0.40565732918E+02  0.10000000000E+01 0.  1.
    1000022    2    1    0    0    0  0.24143685238E+02  0.12405881134E+02 -0.55402405302E+02  0.62499998836E+02  0.99999958860E+01 0.  0.
    3000022    2    3    3    0    0  0.68479336004E+01  0.13409598016E+00 -0.20835962736E+02  0.21934265918E+02  0.25000376137E+00 0.  0.
    1000022    2    1    0    0    0 -0.24143685238E+02 -0.12405881134E+02  0.55402405302E+02  0.62500001164E+02  0.10000010437E+02 0.  0.
    3000022    2    5    5    0    0 -0.56243870859E+01 -0.15271469789E+01  0.49265007197E+01  0.76353658859E+01  0.24998976555E+00 0.  0.
        -13    1    4    4    0    0  0.30393094237E+01  0.12572122711E+00 -0.92685581075E+01  0.97555318662E+01  0.10500000000E+00 0.  1.
         13    1    4    4    0    0  0.38086241766E+01  0.83747530493E-02 -0.11567404629E+02  0.12178734052E+02  0.10500000000E+00 0. -1.
    3000001    1    5    5    0    0 -0.18519298152E+02 -0.10878734155E+02  0.50475904582E+02  0.54864635278E+02  0.10000000000E+01 0.  1.
        -13    1    6    6    0    0 -0.21466140812E+01 -0.54288634040E+00  0.18109491293E+01  0.28623835070E+01  0.10500000000E+00 0. -1.
         13    1    6    6    0    0 -0.34777730047E+01 -0.98426063853E+00  0.31155515905E+01  0.47729823790E+01  0.10500000000E+00 0.  1.
</event>
<event>
11    0  0.3422856E-009  0.9118800E+02  0.7816531E-02  0.1126479E+00
         25   -1    0    0    0    0  0.00000000000E+00  0.00000000000E+00  0.99999998245E-14  0.12500000000E+03  0.12500000000E+03 0.  0.
    3000001    1    3    3    0    0 -0.34445490670E+01 -0.34936398844E+01 -0.11151113183E+02  0.12223655882E+02  0.10000000000E+01 0.  1.
    1000022    2    1    0    0    0 -0.29831944810E+01 -0.53406996155E+01 -0.61390776520E+02  0.62499999757E+02  0.10000000310E+02 0.  0.
    3000022    2    3    3    0    0  0.46135458604E+00 -0.18470597311E+01 -0.50239663338E+02  0.50276343875E+02  0.25000690396E+00 0.  0.
    1000022    2    1    0    0    0  0.29831944810E+01  0.53406996155E+01  0.61390776520E+02  0.62500000243E+02  0.10000003344E+02 0.  0.
    3000022    2    5    5    0    0  0.62983490726E+01  0.49685871732E+01  0.47854217736E+02  0.48522620611E+02  0.24999267445E+00 0.  0.
        -13    1    4    4    0    0  0.16830127367E+00 -0.93093776410E+00 -0.25615269290E+02  0.25632947864E+02  0.10500000000E+00 0. -1.
         13    1    4    4    0    0  0.29305331237E+00 -0.91612196703E+00 -0.24624394048E+02  0.24643396011E+02  0.10500000000E+00 0.  1.
    3000001    1    5    5    0    0 -0.33151545916E+01  0.37211244226E+00  0.13536558784E+02  0.13977379631E+02  0.10000000000E+01 0.  1.
        -13    1    6    6    0    0  0.20895019568E+01  0.17170314556E+01  0.16172175188E+02  0.16397087874E+02  0.10500000000E+00 0. -1.
         13    1    6    6    0    0  0.42088471158E+01  0.32515557176E+01  0.31682042548E+02  0.32125532737E+02  0.10500000000E+00 0.  1.
</event>
<event>
11    0  0.3422856E-009  0.9118800E+02  0.7816531E-02  0.1126479E+00
         25   -1    0    0    0    0  0.00000000000E+00  0.00000000000E+00  0.99999998245E-14  0.12500000000E+03  0.12500000000E+03 0.  0.
    3000001    1    3    3    0    0 -0.38702974437E+02 -0.18921895817E+02  0.89973328728E+01  0.44021703402E+02  0.10000000000E+01 0. -1.
    1000022    2    1    0    0    0 -0.56359044884E+02 -0.20743435021E+02  0.14128621370E+02  0.62500000133E+02  0.10000001906E+02 0.  0.
    3000022    2    3    3    0    0 -0.17656070447E+02 -0.18215392047E+01  0.51312884973E+01  0.18478296732E+02  0.24999951059E+00 0.  0.
    1000022    2    1    0    0    0  0.56359044884E+02  0.20743435021E+02 -0.14128621370E+02  0.62499999867E+02  0.10000000243E+02 0.  0.
    3000022    2    5    5    0    0  0.11618383411E+01  0.19140337009E+01 -0.17965173960E+01  0.28815568092E+01  0.25000310331E+00 0.  0.
        -13    1    4    4    0    0 -0.45413020197E+01 -0.45683927258E+00  0.13487774091E+01  0.47604990972E+01  0.10500000000E+00 0. -1.
         13    1    4    4    0    0 -0.13114768427E+02 -0.13646999321E+01  0.37825110882E+01  0.13717797634E+02  0.10500000000E+00 0.  1.
    3000001    1    5    5    0    0  0.55197206543E+02  0.18829401320E+02 -0.12332103974E+02  0.59618443058E+02  0.10000000000E+01 0. -1.
        -13    1    6    6    0    0  0.63119404879E+00  0.11194083838E+01 -0.96421799320E+00  0.16100380105E+01  0.10500000000E+00 0. -1.
         13    1    6    6    0    0  0.53064429230E+00  0.79462531708E+00 -0.83229940282E+00  0.12715187987E+01  0.10500000000E+00 0.  1.
</event>
<event>
11    0  0.3422856E-009  0.9118800E+02  0.7816531E-02  0.1126479E+00
         25   -1    0    0    0    0  0.00000000000E+00  0.00000000000E+00  0.99999998245E-14  0.12500000000E+03  0.12500000000E+03 0.  0.
    3000001    1    3    3    0    0  0.19584977050E+01  0.51502051974E+01  0.40016182804E+02  0.40406128410E+02  0.10000000000E+01 0. -1.
    1000022    2    1    0    0    0  0.33522061280E+01  0.14970198931E+02  0.59757054279E+02  0.62500001079E+02  0.10000022840E+02 0.  0.
    3000022    2    3    3    0    0  0.13937084230E+01  0.98199937331E+01  0.19740871475E+02  0.22093872670E+02  0.25000569646E+00 0.  0.
    1000022    2    1    0    0    0 -0.33522061280E+01 -0.14970198931E+02 -0.59757054279E+02  0.62499998921E+02  0.10000009350E+02 0.  0.
    3000022    2    5    5    0    0 -0.11640372398E+01 -0.13516008037E+02 -0.34268473264E+02  0.36856861118E+02  0.24999123133E+00 0.  0.
        -13    1    4    4    0    0  0.55976859963E+00  0.39997921015E+01  0.78987621731E+01  0.88720429783E+01  0.10500000000E+00 0. -1.
         13    1    4    4    0    0  0.83393982340E+00  0.58202016316E+01  0.11842109302E+02  0.13221829691E+02  0.10500000000E+00 0.  1.
    3000001    1    5    5    0    0 -0.21881688882E+01 -0.14541908936E+01 -0.25488581015E+02  0.25643137803E+02  0.10000000000E+01 0. -1.
        -13    1    6    6    0    0 -0.40500057522E+00 -0.50845432433E+01 -0.12748115511E+02  0.13731062579E+02  0.10500000000E+00 0.  1.
         13    1    6    6    0    0 -0.75903666461E+00 -0.84314647936E+01 -0.21520357753E+02  0.23125798539E+02  0.10500000000E+00 0. -1.
</event>
<event>
11    0  0.3422856E-009  0.9118800E+02  0.7816531E-02  0.1126479E+00
         25   -1    0    0    0    0  0.00000000000E+00  0.00000000000E+00  0.99999998245E-14  0.12500000000E+03  0.12500000000E+03 0.  0.
    3000001    1    3    3    0    0 -0.29193990671E+02 -0.18700936330E+02 -0.28287711181E+02  0.44757219695E+02  0.10000000000E+01 0. -1.
    1000022    2    1    0    0    0 -0.35394144100E+02 -0.27725566136E+02 -0.42246862615E+02  0.62499999955E+02  0.10000006975E+02 0.  0.
    3000022    2    3    3    0    0 -0.62001534283E+01 -0.90246298065E+01 -0.13959151433E+02  0.17742780261E+02  0.24999390922E+00 0.  0.
    1000022    2    1    0    0    0  0.35394144100E+02  0.27725566136E+02  0.42246862615E+02  0.62500000045E+02  0.10000007535E+02 0.  0.
    3000022    2    5    5    0    0  0.86132804263E+01  0.20939096094E+01  0.65236684703E+01  0.11008805892E+02  0.24999940846E+00 0.  0.
        -13    1    4    4    0    0 -0.42085005702E+01 -0.60981430109E+01 -0.93654218232E+01  0.11942402445E+02  0.10500000000E+00 0.  1.
         13    1    4    4    0    0 -0.19916528581E+01 -0.29264867956E+01 -0.45937296102E+01  0.58003778156E+01  0.10500000000E+00 0. -1.
    3000001    1    5    5    0    0  0.26780863673E+02  0.25631656527E+02  0.35723194144E+02  0.51491194153E+02  0.10000000000E+01 0. -1.
        -13    1    6    6    0    0  0.39262822198E+01  0.89477579114E+00  0.29223868240E+01  0.49767143312E+01  0.10500000000E+00 0. -1.
         13    1    6    6    0    0  0.46869982065E+01  0.11991338182E+01  0.36012816464E+01  0.60320915608E+01  0.10500000000E+00 0.  1.
</event>
<event>
11    0  0.3422856E-009  0.9118800E+02  0.7816531E-02  0.1126479E+00
         25   -1    0    0    0    0  0.00000000000E+00  0.00000000000E+00  0.99999998245E-14  0.12500000000E+03  0.12500000000E+03 0.  0.
    3000001    1    3    3    0    0 -0.15808393774E+01 -0.15094137389E+02 -0.20601930761E+01  0.15348499346E+02  0.10000000000E+01 0. -1.
    1000022    2    1    0    0    0 -0.20866247333E+02 -0.55867655720E+02 -0.15800461003E+02  0.62500002248E+02  0.10000023983E+02 0.  0.
    3000022    2    3    3    0    0 -0.19285407956E+02 -0.40773518331E+02 -0.13740267927E+02  0.47151502903E+02  0.25001223841E+00 0.  0.
    1000022    2    1    0    0    0  0.20866247333E+02  0.55867655720E+02  0.15800461003E+02  0.62499997752E+02  0.99999958777E+01 0.  0.
    3000022    2    5    5    0    0  0.10195690300E+02  0.36497967092E+02  0.13563546369E+02  0.40250291865E+02  0.25000510309E+00 0.  0.
        -13    1    4    4    0    0 -0.76583058500E+01 -0.16317293430E+02 -0.54568458351E+01  0.18833265910E+02  0.10500000000E+00 0.  1.
         13    1    4    4    0    0 -0.11627102106E+02 -0.24456224902E+02 -0.82834220919E+01  0.28318236993E+02  0.10500000000E+00 0. -1.
    3000001    1    5    5    0    0  0.10670557033E+02  0.19369688628E+02  0.22369146340E+01  0.22249705886E+02  0.10000000000E+01 0. -1.
        -13    1    6    6    0    0  0.31741904321E+01  0.11451707024E+02  0.42992188058E+01  0.12637697021E+02  0.10500000000E+00 0.  1.
         13    1    6    6    0    0  0.70214998680E+01  0.25046260069E+02  0.92643275634E+01  0.27612594844E+02  0.10500000000E+00 0. -1.
</event>
<event>
11    0  0.3422856E-009  0.9118800E+02  0.7816531E-02  0.1126479E+00
         25   -1    0    0    0    0  0.00000000000E+00  0.00000000000E+00  0.99999998245E-14  0.12500000000E+03  0.12500000000E+03 0.  0.
    3000001    1    3    3    0    0 -0.38330053632E+01 -0.15942639288E+02  0.47707799990E+02  0.50456851442E+02  0.10000000000E+01 0. -1.
    1000022    2    1    0    0    0 -0.65031019015E+01 -0.23548638833E+02  0.56651754758E+02  0.62499999851E+02  0.99999969500E+01 0.  0.
    3000022    2    3    3    0    0 -0.26700965383E+01 -0.76059995452E+01  0.89439547684E+01  0.12043148409E+02  0.24990418793E+00 0.  0.
    1000022    2    1    0    0    0  0.65031019015E+01  0.23548638833E+02 -0.56651754758E+02  0.62500000149E+02  0.99999988128E+01 0.  0.
    3000022    2    5    5    0    0  0.80678548815E+01  0.11013369853E+02 -0.27090425601E+02  0.30337077369E+02  0.25001218150E+00 0.  0.
        -13    1    4    4    0    0 -0.10357028299E+01 -0.28201987503E+01  0.32722481855E+01  0.44435160099E+01  0.10500000000E+00 0. -1.
         13    1    4    4    0    0 -0.16343937084E+01 -0.47858007949E+01  0.56717065829E+01  0.75996323994E+01  0.10500000000E+00 0.  1.
    3000001    1    5    5    0    0 -0.15647529800E+01  0.12535268979E+02 -0.29561329157E+02  0.32162922780E+02  0.10000000000E+01 0. -1.
        -13    1    6    6    0    0  0.58110926734E+01  0.79079881846E+01 -0.19388072016E+02  0.21730472537E+02  0.10500000000E+00 0. -1.
         13    1    6    6    0    0  0.22567622081E+01  0.31053816688E+01 -0.77023535855E+01  0.86066048317E+01  0.10500000000E+00 0.  1.
</event>
<event>
11    0  0.3422856E-009  0.9118800E+02  0.7816531E-02  0.1126479E+00
         25   -1    0    0    0    0  0.00000000000E+00  0.00000000000E+00  0.99999998245E-14  0.12500000000E+03  0.12500000000E+03 0.  0.
    3000001    1    3    3    0    0  0.52881067793E+02 -0.17717502084E+02  0.50119983176E+01  0.56003904668E+02  0.10000000000E+01 0.  1.
    1000022    2    1    0    0    0  0.57169336786E+02 -0.22004645933E+02  0.73288747421E+01  0.62500000024E+02  0.10000004340E+02 0.  0.
    3000022    2    3    3    0    0  0.42882689932E+01 -0.42871438493E+01  0.23168764245E+01  0.64960953553E+01  0.24997031006E+00 0.  0.
    1000022    2    1    0    0    0 -0.57169336786E+02  0.22004645933E+02 -0.73288747421E+01  0.62499999976E+02  0.10000004044E+02 0.  0.
    3000022    2    5    5    0    0 -0.19783415186E+02  0.26614304747E+01 -0.24290224516E+01  0.20110429671E+02  0.25000583950E+00 0.  0.
        -13    1    4    4    0    0  0.15347215071E+01 -0.15305053225E+01  0.89040106169E+00  0.23455608492E+01  0.10500000000E+00 0. -1.
         13    1    4    4    0    0  0.27535474861E+01 -0.27566385267E+01  0.14264753628E+01  0.41505345061E+01  0.10500000000E+00 0.  1.
    3000001    1    5    5    0    0 -0.37385921600E+02  0.19343215458E+02 -0.48998522905E+01  0.42389570305E+02  0.10000000000E+01 0. -1.
        -13    1    6    6    0    0 -0.13860449441E+02  0.19082651272E+01 -0.16879096050E+01  0.14093033681E+02  0.10500000000E+00 0.  1.
         13    1    6    6    0    0 -0.59229657447E+01  0.75316534751E+00 -0.74111284657E+00  0.60173959904E+01  0.10500000000E+00 0. -1.
</event>
<event>
11    0  0.3422856E-009  0.9118800E+02  0.7816531E-02  0.1126479E+00
         25   -1    0    0    0    0  0.00000000000E+00  0.00000000000E+00  0.99999998245E-14  0.12500000000E+03  0.12500000000E+03 0.  0.
    3000001    1    3    3    0    0 -0.36290568570E+01  0.69644570622E+01  0.16907273109E+02  0.18668947475E+02  0.10000000000E+01 0.  1.
    1000022    2    1    0    0    0 -0.53860090621E+01  0.35231418125E+02  0.50358592709E+02  0.62500001004E+02  0.10000017458E+02 0.  0.
    3000022    2    3    3    0    0 -0.17569522050E+01  0.28266961063E+02  0.33451319601E+02  0.43831053530E+02  0.25000343630E+00 0.  0.
    1000022    2    1    0    0    0  0.53860090621E+01 -0.35231418125E+02 -0.50358592709E+02  0.62499998996E+02  0.10000004905E+02 0.  0.
    3000022    2    5    5    0    0  0.19356401806E+01 -0.14576510156E+02 -0.29305565050E+02  0.32788717599E+02  0.25001529597E+00 0.  0.
        -13    1    4    4    0    0 -0.55954506649E+00  0.96822914345E+01  0.11400265756E+02  0.14967863656E+02  0.10500000000E+00 0.  1.
         13    1    4    4    0    0 -0.11974071385E+01  0.18584669628E+02  0.22051053845E+02  0.28863189874E+02  0.10500000000E+00 0. -1.
    3000001    1    5    5    0    0  0.34503688815E+01 -0.20654907968E+02 -0.21053027659E+02  0.29711281397E+02  0.10000000000E+01 0.  1.
        -13    1    6    6    0    0  0.12213535702E+01 -0.88313458492E+01 -0.17678556292E+02  0.19799665443E+02  0.10500000000E+00 0.  1.
         13    1    6    6    0    0  0.71428661036E+00 -0.57451643070E+01 -0.11627008757E+02  0.12989052156E+02  0.10500000000E+00 0. -1.
</event>
<event>
11    0  0.3422856E-009  0.9118800E+02  0.7816531E-02  0.1126479E+00
         25   -1    0    0    0    0  0.00000000000E+00  0.00000000000E+00  0.99999998245E-14  0.12500000000E+03  0.12500000000E+03 0.  0.
    3000001    1    3    3    0    0  0.15678832292E+02  0.42824275478E+02  0.50996896333E+00  0.45618027364E+02  0.10000000000E+01 0. -1.
    1000022    2    1    0    0    0  0.26454850667E+02  0.55725465191E+02 -0.10312127817E+01  0.62500000560E+02  0.10000003778E+02 0.  0.
    3000022    2    3    3    0    0  0.10776018375E+02  0.12901189714E+02 -0.15411817451E+01  0.16881973196E+02  0.25001953655E+00 0.  0.
    1000022    2    1    0    0    0 -0.26454850667E+02 -0.55725465191E+02  0.10312127817E+01  0.62499999440E+02  0.99999967820E+01 0.  0.
    3000022    2    5    5    0    0 -0.10204138393E+02 -0.32141890781E+02 -0.12896758306E+01  0.33748353308E+02  0.25000784808E+00 0.  0.
        -13    1    4    4    0    0  0.36607479612E+01  0.44406939085E+01 -0.48669355732E+00  0.57765676351E+01  0.10500000000E+00 0.  1.
         13    1    4    4    0    0  0.71152704138E+01  0.84604958052E+01 -0.10544881878E+01  0.11105405561E+02  0.10500000000E+00 0. -1.
    3000001    1    5    5    0    0 -0.16250712274E+02 -0.23583574410E+02  0.23208886123E+01  0.28751646132E+02  0.10000000000E+01 0. -1.
        -13    1    6    6    0    0 -0.24029631853E+01 -0.76211179640E+01 -0.31096213554E+00  0.79977117690E+01  0.10500000000E+00 0.  1.
         13    1    6    6    0    0 -0.78011752079E+01 -0.24520772817E+02 -0.97871369501E+00  0.25750641539E+02  0.10500000000E+00 0. -1.
</event>
<event>
11    0  0.3422856E-009  0.9118800E+02  0.7816531E-02  0.1126479E+00
         25   -1    0    0    0    0  0.00000000000E+00  0.00000000000E+00  0.99999998245E-14  0.12500000000E+03  0.12500000000E+03 0.  0.
    3000001    1    3    3    0    0  0.19725158089E+02  0.14966287332E+02 -0.31587002755E+02  0.40147358084E+02  0.10000000000E+01 0.  1.
    1000022    2    1    0    0    0  0.24345681830E+02  0.21460323555E+02 -0.52468964918E+02  0.62499999776E+02  0.99999990790E+01 0.  0.
    3000022    2    3    3    0    0  0.46205237414E+01  0.64940362228E+01 -0.20881962163E+02  0.22352641691E+02  0.25000139554E+00 0.  0.
    1000022    2    1    0    0    0 -0.24345681830E+02 -0.21460323555E+02  0.52468964918E+02  0.62500000224E+02  0.10000001882E+02 0.  0.
    3000022    2    5    5    0    0 -0.51024487221E+01 -0.74398802577E+01  0.80546098290E+01  0.12096530218E+02  0.25000522183E+00 0.  0.
        -13    1    4    4    0    0  0.26158797967E+01  0.37838157873E+01 -0.11996225840E+02  0.12848367539E+02  0.10500000000E+00 0.  1.
         13    1    4    4    0    0  0.20046439446E+01  0.27102204355E+01 -0.88857363230E+01  0.95042741520E+01  0.10500000000E+00 0. -1.
    3000001    1    5    5    0    0 -0.19243233108E+02 -0.14020443297E+02  0.44414355089E+02  0.50403470006E+02  0.10000000000E+01 0.  1.
        -13    1    6    6    0    0 -0.33452815127E+01 -0.48361630101E+01  0.53176689936E+01  0.79289349591E+01  0.10500000000E+00 0. -1.
         13    1    6    6    0    0 -0.17571672094E+01 -0.26037172476E+01  0.27369408354E+01  0.41675952591E+01  0.10500000000E+00 0.  1.
</event>
<event>
11    0  0.3422856E-009  0.9118800E+02  0.7816531E-02  0.1126479E+00
         25   -1    0    0    0    0  0.00000000000E+00  0.00000000000E+00  0.99999998245E-14  0.12500000000E+03  0.12500000000E+03 0.  0.
    3000001    1    3    3    0    0  0.42499286243E+01  0.22264949253E+02  0.96230151744E+01  0.24645329772E+02  0.10000000000E+01 0.  1.
    1000022    2    1    0    0    0  0.22107891404E+02  0.53755753194E+02  0.20683573648E+02  0.62499999479E+02  0.99999926149E+01 0.  0.
    3000022    2    3    3    0    0  0.17857962780E+02  0.31490803941E+02  0.11060558474E+02  0.37854669707E+02  0.24999477082E+00 0.  0.
    1000022    2    1    0    0    0 -0.22107891404E+02 -0.53755753194E+02 -0.20683573648E+02  0.62500000521E+02  0.99999991229E+01 0.  0.
    3000022    2    5    5    0    0 -0.76196446838E+01 -0.28516663957E+02 -0.70555615110E+01  0.30349671855E+02  0.25005019027E+00 0.  0.
        -13    1    4    4    0    0  0.46668366516E+01  0.81660434604E+01  0.28775532786E+01  0.98364103209E+01  0.10500000000E+00 0. -1.
         13    1    4    4    0    0  0.13191126128E+02  0.23324760480E+02  0.81830051954E+01  0.28018259386E+02  0.10500000000E+00 0.  1.
    3000001    1    5    5    0    0 -0.14488246720E+02 -0.25239089237E+02 -0.13628012137E+02  0.32150328666E+02  0.10000000000E+01 0.  1.
        -13    1    6    6    0    0 -0.42256980729E+01 -0.16049958158E+02 -0.39939121498E+01  0.17071029270E+02  0.10500000000E+00 0.  1.
         13    1    6    6    0    0 -0.33939466110E+01 -0.12466705799E+02 -0.30616493612E+01  0.13278642584E+02  0.10500000000E+00 0. -1.
</event>
<event>
11    0  0.3422856E-009  0.9118800E+02  0.7816531E-02  0.1126479E+00
         25   -1    0    0    0    0  0.00000000000E+00  0.00000000000E+00  0.99999998245E-14  0.12500000000E+03  0.12500000000E+03 0.  0.
    3000001    1    3    3    0    0  0.11435908506E+02 -0.30906296743E+02 -0.17884241805E+02  0.37507669704E+02  0.10000000000E+01 0.  1.
    1000022    2    1    0    0    0  0.17474021765E+02 -0.46806265607E+02 -0.36195060861E+02  0.62499996846E+02  0.99999619185E+01 0.  0.
    3000022    2    3    3    0    0  0.60381132589E+01 -0.15899968864E+02 -0.18310819056E+02  0.24992327142E+02  0.24999972627E+00 0.  0.
    1000022    2    1    0    0    0 -0.17474021765E+02  0.46806265607E+02  0.36195060861E+02  0.62500003154E+02  0.10000001339E+02 0.  0.
    3000022    2    5    5    0    0 -0.71695226392E+01  0.11056496139E+02  0.56000680649E+01  0.14320315489E+02  0.25002327355E+00 0.  0.
        -13    1    4    4    0    0  0.35452854669E+01 -0.95105112072E+01 -0.10945536351E+02  0.14927647620E+02  0.10500000000E+00 0. -1.
         13    1    4    4    0    0  0.24928277919E+01 -0.63894576568E+01 -0.73652827056E+01  0.10064679522E+02  0.10500000000E+00 0.  1.
    3000001    1    5    5    0    0 -0.10304499126E+02  0.35749769468E+02  0.30594992796E+02  0.48179687665E+02  0.10000000000E+01 0.  1.
        -13    1    6    6    0    0 -0.40368134611E+01  0.61262012487E+01  0.30757104869E+01  0.79559552952E+01  0.10500000000E+00 0.  1.
         13    1    6    6    0    0 -0.31327091781E+01  0.49302948900E+01  0.25243575780E+01  0.63643601939E+01  0.10500000000E+00 0. -1.
</event>
<event>
11    0  0.3422856E-009  0.9118800E+02  0.7816531E-02  0.1126479E+00
         25   -1    0    0    0    0  0.00000000000E+00  0.00000000000E+00  0.99999998245E-14  0.12500000000E+03  0.12500000000E+03 0.  0.
    3000001    1    3    3    0    0 -0.15070701764E+01 -0.10491043369E+02 -0.30240649309E+01  0.11066987856E+02  0.10000000000E+01 0.  1.
    1000022    2    1    0    0    0 -0.53656509704E+01 -0.61360863833E+02  0.35077918966E+01  0.62500002054E+02  0.99999916058E+01 0.  0.
    3000022    2    3    3    0    0 -0.38585807940E+01 -0.50869820464E+02  0.65318568275E+01  0.51433014198E+02  0.25003233672E+00 0.  0.
    1000022    2    1    0    0    0  0.53656509704E+01  0.61360863833E+02 -0.35077918966E+01  0.62499997946E+02  0.99999659276E+01 0.  0.
    3000022    2    5    5    0    0 -0.69710300426E+00  0.22036316633E+02 -0.52317620402E+01  0.22660958408E+02  0.24999713751E+00 0.  0.
        -13    1    4    4    0    0 -0.23080618283E+01 -0.29574255076E+02  0.37941516704E+01  0.29906024888E+02  0.10500000000E+00 0. -1.
         13    1    4    4    0    0 -0.15505189657E+01 -0.21295565388E+02  0.27377051572E+01  0.21526989310E+02  0.10500000000E+00 0.  1.
    3000001    1    5    5    0    0  0.60627539747E+01  0.39324547200E+02  0.17239701436E+01  0.39839039538E+02  0.10000000000E+01 0. -1.
        -13    1    6    6    0    0 -0.46975941966E+00  0.13494620907E+02 -0.32497388736E+01  0.13888747067E+02  0.10500000000E+00 0.  1.
         13    1    6    6    0    0 -0.22734358459E+00  0.85416957260E+01 -0.19820231666E+01  0.87722113411E+01  0.10500000000E+00 0. -1.
</event>
<event>
11    0  0.3422856E-009  0.9118800E+02  0.7816531E-02  0.1126479E+00
         25   -1    0    0    0    0  0.00000000000E+00  0.00000000000E+00  0.99999998245E-14  0.12500000000E+03  0.12500000000E+03 0.  0.
    3000001    1    3    3    0    0  0.37943483919E+02  0.15166355006E+02  0.34603038855E+02  0.53554613192E+02  0.10000000000E+01 0. -1.
    1000022    2    1    0    0    0  0.43226513512E+02  0.14022906271E+02  0.41726210629E+02  0.62500000384E+02  0.10000001194E+02 0.  0.
    3000022    2    3    3    0    0  0.52830295932E+01 -0.11434487349E+01  0.71231717734E+01  0.89453871925E+01  0.24999843681E+00 0.  0.
    1000022    2    1    0    0    0 -0.43226513512E+02 -0.14022906271E+02 -0.41726210629E+02  0.62499999616E+02  0.99999963926E+01 0.  0.
    3000022    2    5    5    0    0 -0.28528853385E+02 -0.77721996227E+01 -0.20783504891E+02  0.36143037150E+02  0.24999286745E+00 0.  0.
        -13    1    4    4    0    0  0.35771367560E+01 -0.75670705084E+00  0.47351247058E+01  0.59833889988E+01  0.10500000000E+00 0. -1.
         13    1    4    4    0    0  0.17058928372E+01 -0.38674168408E+00  0.23880470676E+01  0.29619981937E+01  0.10500000000E+00 0.  1.
    3000001    1    5    5    0    0 -0.14697660127E+02 -0.62507066487E+01 -0.20942705738E+02  0.26356962466E+02  0.10000000000E+01 0. -1.
        -13    1    6    6    0    0 -0.17715869916E+02 -0.48870910764E+01 -0.12898026932E+02  0.22452301214E+02  0.10500000000E+00 0.  1.
         13    1    6    6    0    0 -0.10812983468E+02 -0.28851085463E+01 -0.78854779591E+01  0.13690735935E+02  0.10500000000E+00 0. -1.
</event>
<event>
11    0  0.3422856E-009  0.9118800E+02  0.7816531E-02  0.1126479E+00
         25   -1    0    0    0    0  0.00000000000E+00  0.00000000000E+00  0.99999998245E-14  0.12500000000E+03  0.12500000000E+03 0.  0.
    3000001    1    3    3    0    0 -0.30480542135E+02 -0.74547485249E+01  0.18037781278E+02  0.36207710199E+02  0.10000000000E+01 0. -1.
    1000022    2    1    0    0    0 -0.47794798116E+02 -0.19195898193E+02  0.33962103132E+02  0.62500001539E+02  0.10000025440E+02 0.  0.
    3000022    2    3    3    0    0 -0.17314255982E+02 -0.11741149668E+02  0.15924321854E+02  0.26292291340E+02  0.25000337478E+00 0.  0.
    1000022    2    1    0    0    0  0.47794798116E+02  0.19195898193E+02 -0.33962103132E+02  0.62499998461E+02  0.10000006203E+02 0.  0.
    3000022    2    5    5    0    0  0.20978699096E+02  0.76212912720E+01 -0.20565793450E+02  0.30351346776E+02  0.24998898641E+00 0.  0.
        -13    1    4    4    0    0 -0.87628035521E+01 -0.59437045958E+01  0.79747632914E+01  0.13256025987E+02  0.10500000000E+00 0. -1.
         13    1    4    4    0    0 -0.85514524295E+01 -0.57974450725E+01  0.79495585625E+01  0.13036265353E+02  0.10500000000E+00 0.  1.
    3000001    1    5    5    0    0  0.26816099021E+02  0.11574606921E+02 -0.13396309682E+02  0.32148651685E+02  0.10000000000E+01 0.  1.
        -13    1    6    6    0    0  0.90672445733E+01  0.33435229409E+01 -0.88414473056E+01  0.13098713115E+02  0.10500000000E+00 0. -1.
         13    1    6    6    0    0  0.11911454522E+02  0.42777683312E+01 -0.11724346144E+02  0.17252633661E+02  0.10500000000E+00 0.  1.
</event>
<event>
11    0  0.3422856E-009  0.9118800E+02  0.7816531E-02  0.1126479E+00
         25   -1    0    0    0    0  0.00000000000E+00  0.00000000000E+00  0.99999998245E-14  0.12500000000E+03  0.12500000000E+03 0.  0.
    3000001    1    3    3    0    0 -0.17610151433E+02 -0.21186909608E+01  0.16081757392E+02  0.23963080054E+02  0.10000000000E+01 0. -1.
    1000022    2    1    0    0    0 -0.47137238798E+02 -0.16567405347E+02  0.36191883642E+02  0.62499996272E+02  0.99999445492E+01 0.  0.
    3000022    2    3    3    0    0 -0.29527087366E+02 -0.14448714386E+02  0.20110126250E+02  0.38536916218E+02  0.24999615934E+00 0.  0.
    1000022    2    1    0    0    0  0.47137238798E+02  0.16567405347E+02 -0.36191883642E+02  0.62500003728E+02  0.99999911507E+01 0.  0.
    3000022    2    5    5    0    0  0.25725585437E+02  0.10893275188E+02 -0.14482881100E+02  0.31468802590E+02  0.25000216454E+00 0.  0.
        -13    1    4    4    0    0 -0.18456334258E+02 -0.90974910568E+01  0.12577159706E+02  0.24116313753E+02  0.10500000000E+00 0.  1.
         13    1    4    4    0    0 -0.11070753108E+02 -0.53512233294E+01  0.75329665444E+01  0.14420602465E+02  0.10500000000E+00 0. -1.
    3000001    1    5    5    0    0  0.21411653361E+02  0.56741301589E+01 -0.21709002542E+02  0.31031201138E+02  0.10000000000E+01 0.  1.
        -13    1    6    6    0    0  0.95018691291E+01  0.40462231804E+01 -0.52913526511E+01  0.11604605846E+02  0.10500000000E+00 0. -1.
         13    1    6    6    0    0  0.16223716308E+02  0.68470520078E+01 -0.91915284492E+01  0.19864196744E+02  0.10500000000E+00 0.  1.
</event>
<event>
11    0  0.3422856E-009  0.9118800E+02  0.7816531E-02  0.1126479E+00
         25   -1    0    0    0    0  0.00000000000E+00  0.00000000000E+00  0.99999998245E-14  0.12500000000E+03  0.12500000000E+03 0.  0.
    3000001    1    3    3    0    0  0.14264423632E+02  0.86911425446E+01 -0.20896123104E+02  0.26770463221E+02  0.10000000000E+01 0.  1.
    1000022    2    1    0    0    0  0.26228872657E+02  0.29168087684E+02 -0.47618472066E+02  0.62499999419E+02  0.99999972759E+01 0.  0.
    3000022    2    3    3    0    0  0.11964449025E+02  0.20476945139E+02 -0.26722348962E+02  0.35729536198E+02  0.25000039128E+00 0.  0.
    1000022    2    1    0    0    0 -0.26228872657E+02 -0.29168087684E+02  0.47618472066E+02  0.62500000581E+02  0.10000004534E+02 0.  0.
    3000022    2    5    5    0    0 -0.10110980019E+02 -0.48822348859E+01  0.11462627922E+02  0.16047506838E+02  0.25000476811E+00 0.  0.
        -13    1    4    4    0    0  0.67198869843E+01  0.11460959873E+02 -0.15064499974E+02  0.20086330346E+02  0.10500000000E+00 0.  1.
         13    1    4    4    0    0  0.52445620404E+01  0.90159852664E+01 -0.11657848988E+02  0.15643205853E+02  0.10500000000E+00 0. -1.
    3000001    1    5    5    0    0 -0.16117892638E+02 -0.24285852798E+02  0.36155844144E+02  0.46452493743E+02  0.10000000000E+01 0.  1.
        -13    1    6    6    0    0 -0.36694739869E+01 -0.17446210621E+01  0.40730040837E+01  0.57540532894E+01  0.10500000000E+00 0.  1.
         13    1    6    6    0    0 -0.64415060324E+01 -0.31376138239E+01  0.73896238385E+01  0.10293453548E+02  0.10500000000E+00 0. -1.
</event>
<event>
11    0  0.3422856E-009  0.9118800E+02  0.7816531E-02  0.1126479E+00
         25   -1    0    0    0    0  0.00000000000E+00  0.00000000000E+00  0.99999998245E-14  0.12500000000E+03  0.12500000000E+03 0.  0.
    3000001    1    3    3    0    0 -0.15823217359E+02  0.84603014598E+01 -0.25328512931E+02  0.31056150368E+02  0.10000000000E+01 0.  1.
    1000022    2    1    0    0    0 -0.36657995835E+02  0.85694024568E+01 -0.48877467436E+02  0.62499999602E+02  0.99999905063E+01 0.  0.
    3000022    2    3    3    0    0 -0.20834778476E+02  0.10910099701E+00 -0.23548954505E+02  0.31443849233E+02  0.24999834479E+00 0.  0.
    1000022    2    1    0    0    0  0.36657995835E+02 -0.85694024568E+01  0.48877467436E+02  0.62500000398E+02  0.99999954848E+01 0.  0.
    3000022    2    5    5    0    0  0.33584487673E+02 -0.10229827492E+02  0.42174441477E+02  0.54875433477E+02  0.25000534313E+00 0.  0.
        -13    1    4    4    0    0 -0.14402454085E+02  0.73857892109E-01 -0.16205475732E+02  0.21680973395E+02  0.10500000000E+00 0.  1.
         13    1    4    4    0    0 -0.64323243911E+01  0.35243104906E-01 -0.73434787730E+01  0.97628758385E+01  0.10500000000E+00 0. -1.
    3000001    1    5    5    0    0  0.30735081626E+01  0.16604250355E+01  0.67030259591E+01  0.76245669210E+01  0.10000000000E+01 0.  1.
        -13    1    6    6    0    0  0.21539375864E+02 -0.65623787795E+01  0.27139214617E+02  0.35264110975E+02  0.10500000000E+00 0.  1.
         13    1    6    6    0    0  0.12045111809E+02 -0.36674487128E+01  0.15035226860E+02  0.19611322502E+02  0.10500000000E+00 0. -1.
</event>
<event>
11    0  0.3422856E-009  0.9118800E+02  0.7816531E-02  0.1126479E+00
         25   -1    0    0    0    0  0.00000000000E+00  0.00000000000E+00  0.99999998245E-14  0.12500000000E+03  0.12500000000E+03 0.  0.
    3000001    1    3    3    0    0  0.44862364400E+01  0.12202938085E+02 -0.53717711348E+02  0.55277757984E+02  0.10000000000E+01 0.  1.
    1000022    2    1    0    0    0  0.15646209415E+01  0.14064986285E+02 -0.60049793236E+02  0.62500003229E+02  0.10000042905E+02 0.  0.
    3000022    2    3    3    0    0 -0.29216154984E+01  0.18620481998E+01 -0.63320818876E+01  0.72222452447E+01  0.25000945042E+00 0.  0.
    1000022    2    1    0    0    0 -0.15646209415E+01 -0.14064986285E+02  0.60049793236E+02  0.62499996771E+02  0.10000002542E+02 0.  0.
    3000022    2    5    5    0    0  0.90080129986E+00 -0.95359380336E+01  0.20806537162E+02  0.22906768409E+02  0.24998617683E+00 0.  0.
        -13    1    4    4    0    0 -0.12321304346E+01  0.85938510423E+00 -0.27879507869E+01  0.31686563013E+01  0.10500000000E+00 0.  1.
         13    1    4    4    0    0 -0.16894850638E+01  0.10026630956E+01 -0.35441311006E+01  0.40535889435E+01  0.10500000000E+00 0. -1.
    3000001    1    5    5    0    0 -0.24654222414E+01 -0.45290482514E+01  0.39243256073E+02  0.39593228362E+02  0.10000000000E+01 0. -1.
        -13    1    6    6    0    0  0.54203292220E+00 -0.63016907459E+01  0.13768891090E+02  0.15152507805E+02  0.10500000000E+00 0. -1.
         13    1    6    6    0    0  0.35876837766E+00 -0.32342472877E+01  0.70376460727E+01  0.77542606038E+01  0.10500000000E+00 0.  1.
</event>
<event>
11    0  0.3422856E-009  0.9118800E+02  0.7816531E-02  0.1126479E+00
         25   -1    0    0    0    0  0.00000000000E+00  0.00000000000E+00  0.99999998245E-14  0.12500000000E+03  0.12500000000E+03 0.  0.
    3000001    1    3    3    0    0  0.26923730962E+02  0.35406839355E+01  0.22155747253E+02  0.35061387137E+02  0.10000000000E+01 0.  1.
    1000022    2    1    0    0    0  0.48278416760E+02  0.14198547095E+02  0.35690973554E+02  0.62500000508E+02  0.10000010291E+02 0.  0.
    3000022    2    3    3    0    0  0.21354685798E+02  0.10657863159E+02  0.13535226301E+02  0.27438613371E+02  0.25000008949E+00 0.  0.
    1000022    2    1    0    0    0 -0.48278416760E+02 -0.14198547095E+02 -0.35690973554E+02  0.62499999492E+02  0.10000003943E+02 0.  0.
    3000022    2    5    5    0    0 -0.40137646265E+02 -0.77661869604E+01 -0.28307099549E+02  0.49726237460E+02  0.24999877646E+00 0.  0.
        -13    1    4    4    0    0  0.68138270016E+01  0.33960824882E+01  0.42600170623E+01  0.87246997109E+01  0.10500000000E+00 0.  1.
         13    1    4    4    0    0  0.14540858796E+02  0.72617806712E+01  0.92752092389E+01  0.18713913660E+02  0.10500000000E+00 0. -1.
    3000001    1    5    5    0    0 -0.81407704942E+01 -0.64323601346E+01 -0.73838740050E+01  0.12773762032E+02  0.10000000000E+01 0.  1.
        -13    1    6    6    0    0 -0.24554729788E+02 -0.47028286390E+01 -0.17359113659E+02  0.30436839590E+02  0.10500000000E+00 0.  1.
         13    1    6    6    0    0 -0.15582916478E+02 -0.30633583214E+01 -0.10947985890E+02  0.19289397870E+02  0.10500000000E+00 0. -1.
</event>
<event>
11    0  0.3422856E-009  0.9118800E+02  0.7816531E-02  0.1126479E+00
         25   -1    0    0    0    0  0.00000000000E+00  0.00000000000E+00  0.99999998245E-14  0.12500000000E+03  0.12500000000E+03 0.  0.
    3000001    1    3    3    0    0 -0.25391369613E+02  0.16733364166E+02 -0.17543365291E+02  0.35121173000E+02  0.10000000000E+01 0. -1.
    1000022    2    1    0    0    0 -0.38454788481E+02  0.31522253135E+02 -0.36521599547E+02  0.62499997386E+02  0.99999620027E+01 0.  0.
    3000022    2    3    3    0    0 -0.13063418867E+02  0.14788888969E+02 -0.18978234255E+02  0.27378824386E+02  0.24999978015E+00 0.  0.
    1000022    2    1    0    0    0  0.38454788481E+02 -0.31522253135E+02  0.36521599547E+02  0.62500002614E+02  0.99999946722E+01 0.  0.
    3000022    2    5    5    0    0  0.12143835410E+02 -0.49710409387E+01  0.12003509339E+02  0.17785688708E+02  0.24999979548E+00 0.  0.
        -13    1    4    4    0    0 -0.50880709945E+01  0.58526943066E+01 -0.74746343211E+01  0.10771428890E+02  0.10500000000E+00 0. -1.
         13    1    4    4    0    0 -0.79753478729E+01  0.89361946624E+01 -0.11503599934E+02  0.16607395497E+02  0.10500000000E+00 0.  1.
    3000001    1    5    5    0    0  0.26310953071E+02 -0.26551212196E+02  0.24518090208E+02  0.44714313905E+02  0.10000000000E+01 0. -1.
        -13    1    6    6    0    0  0.75750850843E+01 -0.30702921303E+01  0.74039937762E+01  0.11028996175E+02  0.10500000000E+00 0. -1.
         13    1    6    6    0    0  0.45687503257E+01 -0.19007488084E+01  0.45995155631E+01  0.67566925330E+01  0.10500000000E+00 0.  1.
</event>
<event>
11    0  0.3422856E-009  0.9118800E+02  0.7816531E-02  0.1126479E+00
         25   -1    0    0    0    0  0.00000000000E+00  0.00000000000E+00  0.99999998245E-14  0.12500000000E+03  0.12500000000E+03 0.  0.
    3000001    1    3    3    0    0  0.28653867595E+02 -0.28803056167E+02  0.29577798241E+01  0.40748112032E+02  0.10000000000E+01 0. -1.
    1000022    2    1    0    0    0  0.43993406660E+02 -0.43172670091E+02 -0.26363979084E+01  0.62499999092E+02  0.10000001013E+02 0.  0.
    3000022    2    3    3    0    0  0.15339539065E+02 -0.14369613924E+02 -0.55941777324E+01  0.21751887060E+02  0.25000622342E+00 0.  0.
    1000022    2    1    0    0    0 -0.43993406660E+02  0.43172670091E+02  0.26363979084E+01  0.62500000908E+02  0.10000012362E+02 0.  0.
    3000022    2    5    5    0    0 -0.10830276246E+01 -0.69814610340E-01  0.10812440100E+01  0.15522231327E+01  0.24997025655E+00 0.  0.
        -13    1    4    4    0    0  0.90294416137E+01 -0.84196657007E+01 -0.33454378801E+01  0.12791581840E+02  0.10500000000E+00 0.  1.
         13    1    4    4    0    0  0.63100974513E+01 -0.59499482233E+01 -0.22487398523E+01  0.89603052196E+01  0.10500000000E+00 0. -1.
    3000001    1    5    5    0    0 -0.42910379035E+02  0.43242484701E+02  0.15551538984E+01  0.60947777775E+02  0.10000000000E+01 0. -1.
        -13    1    6    6    0    0 -0.37406407430E+00  0.25818728590E-01  0.34356783910E+00  0.51928258058E+00  0.10500000000E+00 0.  1.
         13    1    6    6    0    0 -0.70896355030E+00 -0.95633338930E-01  0.73767617088E+00  0.10329405521E+01  0.10500000000E+00 0. -1.
</event>
<event>
11    0  0.3422856E-009  0.9118800E+02  0.7816531E-02  0.1126479E+00
         25   -1    0    0    0    0  0.00000000000E+00  0.00000000000E+00  0.99999998245E-14  0.12500000000E+03  0.12500000000E+03 0.  0.
    3000001    1    3    3    0    0  0.27551322997E+01  0.32992351567E+00 -0.40925698455E+01  0.50446735727E+01  0.10000000000E+01 0. -1.
    1000022    2    1    0    0    0  0.62839096561E+01  0.16330210218E+02 -0.59161532450E+02  0.62500000445E+02  0.99999923751E+01 0.  0.
    3000022    2    3    3    0    0  0.35287773564E+01  0.16000286702E+02 -0.55068962604E+02  0.57455326872E+02  0.24999903265E+00 0.  0.
    1000022    2    1    0    0    0 -0.62839096561E+01 -0.16330210218E+02  0.59161532450E+02  0.62499999555E+02  0.99999868144E+01 0.  0.
    3000022    2    5    5    0    0 -0.30446818015E+01 -0.12543941957E+02  0.52811272508E+02  0.54366474750E+02  0.25001138004E+00 0.  0.
        -13    1    4    4    0    0  0.21765156010E+01  0.95792628939E+01 -0.32980761494E+02  0.34412805051E+02  0.10500000000E+00 0. -1.
         13    1    4    4    0    0  0.13522617554E+01  0.64210238081E+01 -0.22088201110E+02  0.23042521821E+02  0.10500000000E+00 0.  1.
    3000001    1    5    5    0    0 -0.32392278546E+01 -0.37862682608E+01  0.63502599414E+01  0.81335248054E+01  0.10000000000E+01 0.  1.
        -13    1    6    6    0    0 -0.19120422041E+01 -0.76286708068E+01  0.32258891347E+02  0.33203909704E+02  0.10500000000E+00 0. -1.
         13    1    6    6    0    0 -0.11326395974E+01 -0.49152711501E+01  0.20552381161E+02  0.21162565046E+02  0.10500000000E+00 0.  1.
</event>
<event>
11    0  0.3422856E-009  0.9118800E+02  0.7816531E-02  0.1126479E+00
         25   -1    0    0    0    0  0.00000000000E+00  0.00000000000E+00  0.99999998245E-14  0.12500000000E+03  0.12500000000E+03 0.  0.
    3000001    1    3    3    0    0 -0.33920429141E+01 -0.28598774957E+02 -0.38882343165E+02  0.48396616557E+02  0.10000000000E+01 0.  1.
    1000022    2    1    0    0    0 -0.89153296373E+01 -0.34113435299E+02 -0.50626479254E+02  0.62499999507E+02  0.99999983131E+01 0.  0.
    3000022    2    3    3    0    0 -0.55232867232E+01 -0.55146603423E+01 -0.11744136089E+02  0.14103382950E+02  0.25000647826E+00 0.  0.
    1000022    2    1    0    0    0  0.89153296373E+01  0.34113435299E+02  0.50626479254E+02  0.62500000493E+02  0.10000004480E+02 0.  0.
    3000022    2    5    5    0    0  0.22312622961E+01  0.52632254930E+00  0.43251642083E+01  0.49015398020E+01  0.25000028251E+00 0.  0.
        -13    1    4    4    0    0 -0.41161880455E+01 -0.41422556507E+01 -0.87566389641E+01  0.10525732129E+02  0.10500000000E+00 0. -1.
         13    1    4    4    0    0 -0.14070986777E+01 -0.13724046916E+01 -0.29874971247E+01  0.35776508209E+01  0.10500000000E+00 0.  1.
    3000001    1    5    5    0    0  0.66840673412E+01  0.33587112750E+02  0.46301315045E+02  0.57598460691E+02  0.10000000000E+01 0.  1.
        -13    1    6    6    0    0  0.10774852105E+01  0.29796637996E+00  0.19963423889E+01  0.22904511076E+01  0.10500000000E+00 0.  1.
         13    1    6    6    0    0  0.11537770856E+01  0.22835616935E+00  0.23288218194E+01  0.26110886944E+01  0.10500000000E+00 0. -1.
</event>
<event>
11    0  0.3422856E-009  0.9118800E+02  0.7816531E-02  0.1126479E+00
         25   -1    0    0    0    0  0.00000000000E+00  0.00000000000E+00  0.99999998245E-14  0.12500000000E+03  0.12500000000E+03 0.  0.
    3000001    1    3    3    0    0 -0.75564148858E+01  0.11459809458E+02  0.58913042699E+01  0.14971109001E+02  0.10000000000E+01 0.  1.
    1000022    2    1    0    0    0 -0.33579775955E+02  0.35977007269E+02  0.37206231697E+02  0.62500000030E+02  0.99999960671E+01 0.  0.
    3000022    2    3    3    0    0 -0.26023361069E+02  0.24517197812E+02  0.31314927427E+02  0.47528891028E+02  0.24998541985E+00 0.  0.
    1000022    2    1    0    0    0  0.33579775955E+02 -0.35977007269E+02 -0.37206231697E+02  0.62499999970E+02  0.99999956976E+01 0.  0.
    3000022    2    5    5    0    0 -0.12639560674E+00 -0.31357607744E+01 -0.23250137982E+01  0.39137145889E+01  0.25000247535E+00 0.  0.
        -13    1    4    4    0    0 -0.81465251031E+01  0.76150068585E+01  0.97381882328E+01  0.14805321198E+02  0.10500000000E+00 0. -1.
         13    1    4    4    0    0 -0.17876835966E+02  0.16902190953E+02  0.21576739195E+02  0.32723569830E+02  0.10500000000E+00 0.  1.
    3000001    1    5    5    0    0  0.33706171562E+02 -0.32841246495E+02 -0.34881217899E+02  0.58586285382E+02  0.10000000000E+01 0.  1.
        -13    1    6    6    0    0 -0.24392774757E-01 -0.11177896569E+01 -0.89710530155E+00  0.14373140390E+01  0.10500000000E+00 0. -1.
         13    1    6    6    0    0 -0.10200283198E+00 -0.20179711175E+01 -0.14279084966E+01  0.24764005499E+01  0.10500000000E+00 0.  1.
</event>
<event>
11    0  0.3422856E-009  0.9118800E+02  0.7816531E-02  0.1126479E+00
         25   -1    0    0    0    0  0.00000000000E+00  0.00000000000E+00  0.99999998245E-14  0.12500000000E+03  0.12500000000E+03 0.  0.
    3000001    1    3    3    0    0 -0.73167915943E+01 -0.31965750765E+02 -0.40988157847E+02  0.52501178510E+02  0.10000000000E+01 0.  1.
    1000022    2    1    0    0    0 -0.12662122860E+02 -0.37861350042E+02 -0.47036569008E+02  0.62499999857E+02  0.99999987888E+01 0.  0.
    3000022    2    3    3    0    0 -0.53453312659E+01 -0.58955992772E+01 -0.60484111604E+01  0.99988213473E+01  0.24998717984E+00 0.  0.
    1000022    2    1    0    0    0  0.12662122860E+02  0.37861350042E+02  0.47036569008E+02  0.62500000143E+02  0.10000000575E+02 0.  0.
    3000022    2    5    5    0    0  0.73752851693E+01  0.29425578484E+02  0.40282220364E+02  0.50427961369E+02  0.25001993760E+00 0.  0.
        -13    1    4    4    0    0 -0.31800234226E+01 -0.35234136140E+01 -0.35282977757E+01  0.59149727520E+01  0.10500000000E+00 0. -1.
         13    1    4    4    0    0 -0.21653078433E+01 -0.23721856632E+01 -0.25201133847E+01  0.40838485953E+01  0.10500000000E+00 0.  1.
    3000001    1    5    5    0    0  0.52868376909E+01  0.84357715579E+01  0.67543486442E+01  0.12072038774E+02  0.10000000000E+01 0.  1.
        -13    1    6    6    0    0  0.36680341529E+01  0.14455242772E+02  0.19716738548E+02  0.24721838971E+02  0.10500000000E+00 0.  1.
         13    1    6    6    0    0  0.37072510163E+01  0.14970335713E+02  0.20565481816E+02  0.25706122398E+02  0.10500000000E+00 0. -1.
</event>
<event>
11    0  0.3422856E-009  0.9118800E+02  0.7816531E-02  0.1126479E+00
         25   -1    0    0    0    0  0.00000000000E+00  0.00000000000E+00  0.99999998245E-14  0.12500000000E+03  0.12500000000E+03 0.  0.
    3000001    1    3    3    0    0  0.97309284568E+00 -0.28792367045E+01 -0.13110070255E+00  0.32022025359E+01  0.10000000000E+01 0.  1.
    1000022    2    1    0    0    0  0.49369513389E+02 -0.35733533889E+02  0.95924780899E+01  0.62500000562E+02  0.10000006897E+02 0.  0.
    3000022    2    3    3    0    0  0.48396420543E+02 -0.32854297185E+02  0.97235787924E+01  0.59297798027E+02  0.25000274869E+00 0.  0.
    1000022    2    1    0    0    0 -0.49369513389E+02  0.35733533889E+02 -0.95924780899E+01  0.62499999438E+02  0.99999998667E+01 0.  0.
    3000022    2    5    5    0    0 -0.12329143955E+01  0.24176257708E+01  0.11758257202E+01  0.29681738033E+01  0.24999465630E+00 0.  0.
        -13    1    4    4    0    0  0.17926895383E+02 -0.12240081808E+02  0.36220480306E+01  0.22007349628E+02  0.10500000000E+00 0.  1.
         13    1    4    4    0    0  0.30469525161E+02 -0.20614215376E+02  0.61015307618E+01  0.37290448398E+02  0.10500000000E+00 0. -1.
    3000001    1    5    5    0    0 -0.48136598993E+02  0.33315908118E+02 -0.10768303810E+02  0.59531825634E+02  0.10000000000E+01 0.  1.
        -13    1    6    6    0    0 -0.46511001231E+00  0.10351074592E+01  0.52722997698E+00  0.12556955141E+01  0.10500000000E+00 0.  1.
         13    1    6    6    0    0 -0.76780438315E+00  0.13825183117E+01  0.64859574323E+00  0.17124782892E+01  0.10500000000E+00 0. -1.
</event>
<event>
11    0  0.3422856E-009  0.9118800E+02  0.7816531E-02  0.1126479E+00
         25   -1    0    0    0    0  0.00000000000E+00  0.00000000000E+00  0.99999998245E-14  0.12500000000E+03  0.12500000000E+03 0.  0.
    3000001    1    3    3    0    0 -0.49575185649E+01 -0.67985516366E+01  0.96003744569E+01  0.12804861748E+02  0.10000000000E+01 0. -1.
    1000022    2    1    0    0    0 -0.25776274386E+02 -0.15384720512E+02  0.53899381479E+02  0.62500006532E+02  0.10000077310E+02 0.  0.
    3000022    2    3    3    0    0 -0.20818755821E+02 -0.85861688755E+01  0.44299007023E+02  0.49695144784E+02  0.25000406494E+00 0.  0.
    1000022    2    1    0    0    0  0.25776274386E+02  0.15384720512E+02 -0.53899381479E+02  0.62499993468E+02  0.99999956585E+01 0.  0.
    3000022    2    5    5    0    0  0.62335950061E+01  0.19848305832E+01 -0.20621057602E+02  0.21635336274E+02  0.24999988083E+00 0.  0.
        -13    1    4    4    0    0 -0.10697102923E+02 -0.44412982157E+01  0.22647056361E+02  0.25437242924E+02  0.10500000000E+00 0. -1.
         13    1    4    4    0    0 -0.10121652898E+02 -0.41448706598E+01  0.21651950662E+02  0.24257901860E+02  0.10500000000E+00 0.  1.
    3000001    1    5    5    0    0  0.19542679380E+02  0.13399889929E+02 -0.33278323878E+02  0.40864657194E+02  0.10000000000E+01 0.  1.
        -13    1    6    6    0    0  0.26776084857E+01  0.91581509910E+00 -0.88337413511E+01  0.92765465426E+01  0.10500000000E+00 0. -1.
         13    1    6    6    0    0  0.35559865205E+01  0.10690154841E+01 -0.11787316251E+02  0.12358789732E+02  0.10500000000E+00 0.  1.
</event>
<event>
11    0  0.3422856E-009  0.9118800E+02  0.7816531E-02  0.1126479E+00
         25   -1    0    0    0    0  0.00000000000E+00  0.00000000000E+00  0.99999998245E-14  0.12500000000E+03  0.12500000000E+03 0.  0.
    3000001    1    3    3    0    0 -0.17586693136E+02 -0.24139901935E+02 -0.69884718744E+01  0.30689825351E+02  0.10000000000E+01 0. -1.
    1000022    2    1    0    0    0 -0.37473728239E+02 -0.48820452718E+02 -0.43050160087E+01  0.62499999583E+02  0.99999936678E+01 0.  0.
    3000022    2    3    3    0    0 -0.19887035103E+02 -0.24680550782E+02  0.26834558658E+01  0.31810174233E+02  0.24999441905E+00 0.  0.
    1000022    2    1    0    0    0  0.37473728239E+02  0.48820452718E+02  0.43050160087E+01  0.62500000417E+02  0.99999988766E+01 0.  0.
    3000022    2    5    5    0    0  0.82789554455E+01  0.57513612947E+01 -0.12599761111E+01  0.10162150520E+02  0.25000676973E+00 0.  0.
        -13    1    4    4    0    0 -0.91218757753E+01 -0.11295349015E+02  0.11638651729E+01  0.14565683443E+02  0.10500000000E+00 0. -1.
         13    1    4    4    0    0 -0.10765159328E+02 -0.13385201767E+02  0.15195906928E+01  0.17244490789E+02  0.10500000000E+00 0.  1.
    3000001    1    5    5    0    0  0.29194772794E+02  0.43069091423E+02  0.55649921198E+01  0.52337849896E+02  0.10000000000E+01 0.  1.
        -13    1    6    6    0    0  0.54534907332E+01  0.37261215276E+01 -0.84725271610E+00  0.66598352067E+01  0.10500000000E+00 0. -1.
         13    1    6    6    0    0  0.28254647123E+01  0.20252397671E+01 -0.41272339504E+00  0.35023153136E+01  0.10500000000E+00 0.  1.
</event>
<event>
11    0  0.3422856E-009  0.9118800E+02  0.7816531E-02  0.1126479E+00
         25   -1    0    0    0    0  0.00000000000E+00  0.00000000000E+00  0.99999998245E-14  0.12500000000E+03  0.12500000000E+03 0.  0.
    3000001    1    3    3    0    0 -0.22101198074E+01  0.63738746336E+01 -0.61265527713E+01  0.91676363512E+01  0.10000000000E+01 0.  1.
    1000022    2    1    0    0    0 -0.30977747395E+01  0.28285435436E+02 -0.54741096879E+02  0.62499998245E+02  0.10000001351E+02 0.  0.
    3000022    2    3    3    0    0 -0.88765493218E+00  0.21911560803E+02 -0.48614544107E+02  0.53332361894E+02  0.24999669902E+00 0.  0.
    1000022    2    1    0    0    0  0.30977747395E+01 -0.28285435436E+02  0.54741096879E+02  0.62500001755E+02  0.10000023285E+02 0.  0.
    3000022    2    5    5    0    0  0.18280883291E+01 -0.16896747972E+01  0.11013139598E+02  0.11293743978E+02  0.25000275285E+00 0.  0.
        -13    1    4    4    0    0 -0.34818309684E+00  0.78500707354E+01 -0.17540361240E+02  0.19220305394E+02  0.10500000000E+00 0. -1.
         13    1    4    4    0    0 -0.53947183534E+00  0.14061490067E+02 -0.31074182867E+02  0.34112056500E+02  0.10500000000E+00 0.  1.
    3000001    1    5    5    0    0  0.12696864105E+01 -0.26595760639E+02  0.43727957280E+02  0.51206257776E+02  0.10000000000E+01 0. -1.
        -13    1    6    6    0    0  0.81525401012E+00 -0.84440632540E+00  0.52311586302E+01  0.53622482932E+01  0.10500000000E+00 0. -1.
         13    1    6    6    0    0  0.10128343190E+01 -0.84526847183E+00  0.57819809681E+01  0.59314956851E+01  0.10500000000E+00 0.  1.
</event>
<event>
11    0  0.3422856E-009  0.9118800E+02  0.7816531E-02  0.1126479E+00
         25   -1    0    0    0    0  0.00000000000E+00  0.00000000000E+00  0.99999998245E-14  0.12500000000E+03  0.12500000000E+03 0.  0.
    3000001    1    3    3    0    0  0.10233365837E+02  0.68345518780E+01  0.15963566271E+02  0.20180890065E+02  0.10000000000E+01 0.  1.
    1000022    2    1    0    0    0  0.39787839962E+02  0.99288852467E+01  0.46093329308E+02  0.62499998761E+02  0.99999933656E+01 0.  0.
    3000022    2    3    3    0    0  0.29554474125E+02  0.30943333687E+01  0.30129763037E+02  0.42319108696E+02  0.25000065994E+00 0.  0.
    1000022    2    1    0    0    0 -0.39787839962E+02 -0.99288852467E+01 -0.46093329308E+02  0.62500001239E+02  0.10000008855E+02 0.  0.
    3000022    2    5    5    0    0 -0.16973373652E+02 -0.35814223060E+01 -0.12484206145E+02  0.21373813492E+02  0.25000253602E+00 0.  0.
        -13    1    4    4    0    0  0.18127496634E+02  0.19491708780E+01  0.18534811557E+02  0.25999147405E+02  0.10500000000E+00 0. -1.
         13    1    4    4    0    0  0.11426977491E+02  0.11451624906E+01  0.11594951480E+02  0.16319961291E+02  0.10500000000E+00 0.  1.
    3000001    1    5    5    0    0 -0.22814466310E+02 -0.63474629407E+01 -0.33609123164E+02  0.41126187747E+02  0.10000000000E+01 0.  1.
        -13    1    6    6    0    0 -0.73341295098E+01 -0.14880576717E+01 -0.53483273146E+01  0.91988804409E+01  0.10500000000E+00 0.  1.
         13    1    6    6    0    0 -0.96392441419E+01 -0.20933646343E+01 -0.71358788300E+01  0.12174933051E+02  0.10500000000E+00 0. -1.
</event>
<event>
11    0  0.3422856E-009  0.9118800E+02  0.7816531E-02  0.1126479E+00
         25   -1    0    0    0    0  0.00000000000E+00  0.00000000000E+00  0.99999998245E-14  0.12500000000E+03  0.12500000000E+03 0.  0.
    3000001    1    3    3    0    0  0.15081974103E+02  0.77478624609E+01  0.14226368442E+02  0.22155921886E+02  0.10000000000E+01 0. -1.
    1000022    2    1    0    0    0  0.50627788036E+02  0.15640622682E+02  0.31598228308E+02  0.62499999155E+02  0.99999931426E+01 0.  0.
    3000022    2    3    3    0    0  0.35545813933E+02  0.78927602213E+01  0.17371859866E+02  0.40344077269E+02  0.25000685837E+00 0.  0.
    1000022    2    1    0    0    0 -0.50627788036E+02 -0.15640622682E+02 -0.31598228308E+02  0.62500000845E+02  0.10000003707E+02 0.  0.
    3000022    2    5    5    0    0 -0.22910952711E+02 -0.12250155867E+02 -0.15019954820E+02  0.30010658323E+02  0.24999464665E+00 0.  0.
        -13    1    4    4    0    0  0.21016493457E+02  0.46644201397E+01  0.10341564541E+02  0.23883232500E+02  0.10500000000E+00 0. -1.
         13    1    4    4    0    0  0.14529320476E+02  0.32283400816E+01  0.70302953247E+01  0.16460844769E+02  0.10500000000E+00 0.  1.
    3000001    1    5    5    0    0 -0.27716835325E+02 -0.33904668155E+01 -0.16578273488E+02  0.32489342522E+02  0.10000000000E+01 0. -1.
        -13    1    6    6    0    0 -0.13203470516E+02 -0.69967464731E+01 -0.86780656594E+01  0.17280218270E+02  0.10500000000E+00 0.  1.
         13    1    6    6    0    0 -0.97074821950E+01 -0.52534093936E+01 -0.63418891608E+01  0.12730440053E+02  0.10500000000E+00 0. -1.
</event>
<event>
11    0  0.3422856E-009  0.9118800E+02  0.7816531E-02  0.1126479E+00
         25   -1    0    0    0    0  0.00000000000E+00  0.00000000000E+00  0.99999998245E-14  0.12500000000E+03  0.12500000000E+03 0.  0.
    3000001    1    3    3    0    0 -0.39628890181E+02  0.22039892909E+02 -0.38174235353E+02  0.59283033502E+02  0.10000000000E+01 0.  1.
    1000022    2    1    0    0    0 -0.39950094439E+02  0.24621206714E+02 -0.40050412957E+02  0.62500003068E+02  0.10000046989E+02 0.  0.
    3000022    2    3    3    0    0 -0.32120425823E+00  0.25813138049E+01 -0.18761776040E+01  0.32169695664E+01  0.24999530871E+00 0.  0.
    1000022    2    1    0    0    0  0.39950094439E+02 -0.24621206714E+02  0.40050412957E+02  0.62499996932E+02  0.10000008633E+02 0.  0.
    3000022    2    5    5    0    0  0.62930753962E+01 -0.14979138386E+00  0.63256244373E+01  0.89275556971E+01  0.24998160346E+00 0.  0.
        -13    1    4    4    0    0 -0.14367169208E+00  0.10181889989E+01 -0.66912786187E+00  0.12313031666E+01  0.10500000000E+00 0. -1.
         13    1    4    4    0    0 -0.17753256614E+00  0.15631248061E+01 -0.12070497421E+01  0.19856663998E+01  0.10500000000E+00 0.  1.
    3000001    1    5    5    0    0  0.33657019043E+02 -0.24471415330E+02  0.33724788519E+02  0.53572441234E+02  0.10000000000E+01 0.  1.
        -13    1    6    6    0    0  0.15691404403E+01 -0.23923425082E-01  0.15478738064E+01  0.22067424798E+01  0.10500000000E+00 0. -1.
         13    1    6    6    0    0  0.47239349559E+01 -0.12586795878E+00  0.47777506309E+01  0.67208132173E+01  0.10500000000E+00 0.  1.
</event>
<event>
11    0  0.3422856E-009  0.9118800E+02  0.7816531E-02  0.1126479E+00
         25   -1    0    0    0    0  0.00000000000E+00  0.00000000000E+00  0.99999998245E-14  0.12500000000E+03  0.12500000000E+03 0.  0.
    3000001    1    3    3    0    0  0.52233753054E+02 -0.17229658893E+02  0.65175582246E+01  0.55395890361E+02  0.10000000000E+01 0.  1.
    1000022    2    1    0    0    0  0.59040200191E+02 -0.15968193872E+02  0.80945362500E+01  0.62500000095E+02  0.10000002031E+02 0.  0.
    3000022    2    3    3    0    0  0.68064471371E+01  0.12614650210E+01  0.15769780253E+01  0.71041097339E+01  0.24999757891E+00 0.  0.
    1000022    2    1    0    0    0 -0.59040200191E+02  0.15968193872E+02 -0.80945362500E+01  0.62499999905E+02  0.10000000845E+02 0.  0.
    3000022    2    5    5    0    0 -0.57019669646E+02  0.13448670415E+02 -0.74243330930E+01  0.59053303747E+02  0.24999814970E+00 0.  0.
        -13    1    4    4    0    0  0.31448685303E+01  0.52061175303E+00  0.75434255214E+00  0.32773910899E+01  0.10500000000E+00 0. -1.
         13    1    4    4    0    0  0.36615786068E+01  0.74085326796E+00  0.82263547319E+00  0.38267186440E+01  0.10500000000E+00 0.  1.
    3000001    1    5    5    0    0 -0.20205305449E+01  0.25195234572E+01 -0.67020315698E+00  0.34466961581E+01  0.10000000000E+01 0.  1.
        -13    1    6    6    0    0 -0.28991822878E+02  0.67694973829E+01 -0.37606647565E+01  0.30008424034E+02  0.10500000000E+00 0.  1.
         13    1    6    6    0    0 -0.28027846768E+02  0.66791730319E+01 -0.36636683365E+01  0.29044879713E+02  0.10500000000E+00 0. -1.
</event>
<event>
11    0  0.3422856E-009  0.9118800E+02  0.7816531E-02  0.1126479E+00
         25   -1    0    0    0    0  0.00000000000E+00  0.00000000000E+00  0.99999998245E-14  0.12500000000E+03  0.12500000000E+03 0.  0.
    3000001    1    3    3    0    0 -0.38500268770E+02 -0.86748264608E+01 -0.10625955635E+02  0.40883177990E+02  0.10000000000E+01 0.  1.
    1000022    2    1    0    0    0 -0.56940221745E+02 -0.92106992895E+01 -0.21891187732E+02  0.62499999596E+02  0.10000000769E+02 0.  0.
    3000022    2    3    3    0    0 -0.18439952976E+02 -0.53587282865E+00 -0.11265232098E+02  0.21616821605E+02  0.24999335508E+00 0.  0.
    1000022    2    1    0    0    0  0.56940221745E+02  0.92106992895E+01  0.21891187732E+02  0.62500000404E+02  0.10000005820E+02 0.  0.
    3000022    2    5    5    0    0  0.45734163871E+01 -0.92591426760E-01 -0.82803392470E+00  0.46554107328E+01  0.24999657580E+00 0.  0.
        -13    1    4    4    0    0 -0.74268818406E+01 -0.15384490012E+00 -0.45210837015E+01  0.86967502531E+01  0.10500000000E+00 0.  1.
         13    1    4    4    0    0 -0.11013071135E+02 -0.38202792853E+00 -0.67441483960E+01  0.12920071352E+02  0.10500000000E+00 0. -1.
    3000001    1    5    5    0    0  0.52366805358E+02  0.93032907162E+01  0.22719221657E+02  0.57844589671E+02  0.10000000000E+01 0. -1.
        -13    1    6    6    0    0  0.31230631970E+01 -0.32247233409E-01 -0.60500696224E+00  0.31830208986E+01  0.10500000000E+00 0. -1.
         13    1    6    6    0    0  0.14503531901E+01 -0.60344193352E-01 -0.22302696247E+00  0.14723898341E+01  0.10500000000E+00 0.  1.
</event>
<event>
11    0  0.3422856E-009  0.9118800E+02  0.7816531E-02  0.1126479E+00
         25   -1    0    0    0    0  0.00000000000E+00  0.00000000000E+00  0.99999998245E-14  0.12500000000E+03  0.12500000000E+03 0.  0.
    3000001    1    3    3    0    0 -0.83979334698E+00  0.13463364922E+02 -0.19436269822E+02  0.23679865550E+02  0.10000000000E+01 0.  1.
    1000022    2    1    0    0    0  0.94690063821E+01  0.38323819946E+02 -0.47411735080E+02  0.62499998593E+02  0.99999971837E+01 0.  0.
    3000022    2    3    3    0    0  0.10308799729E+02  0.24860455024E+02 -0.27975465258E+02  0.38820133043E+02  0.24999434356E+00 0.  0.
    1000022    2    1    0    0    0 -0.94690063821E+01 -0.38323819946E+02  0.47411735080E+02  0.62500001407E+02  0.10000014772E+02 0.  0.
    3000022    2    5    5    0    0 -0.69922803435E+01 -0.36323197977E+02  0.45551544385E+02  0.58679403344E+02  0.24997066895E+00 0.  0.
        -13    1    4    4    0    0  0.69762974233E+01  0.16690354351E+02 -0.18819836621E+02  0.26104289485E+02  0.10500000000E+00 0. -1.
         13    1    4    4    0    0  0.33325023058E+01  0.81701006736E+01 -0.91556286372E+01  0.12715843557E+02  0.10500000000E+00 0.  1.
    3000001    1    5    5    0    0 -0.24767260386E+01 -0.20006219693E+01  0.18601906955E+01  0.38205980628E+01  0.10000000000E+01 0.  1.
        -13    1    6    6    0    0 -0.51294586784E+01 -0.26748425154E+02  0.33582115037E+02  0.43238398096E+02  0.10500000000E+00 0.  1.
         13    1    6    6    0    0 -0.18628216651E+01 -0.95747728230E+01  0.11969429348E+02  0.15441005248E+02  0.10500000000E+00 0. -1.
</event>
<event>
11    0  0.3422856E-009  0.9118800E+02  0.7816531E-02  0.1126479E+00
         25   -1    0    0    0    0  0.00000000000E+00  0.00000000000E+00  0.99999998245E-14  0.12500000000E+03  0.12500000000E+03 0.  0.
    3000001    1    3    3    0    0  0.43270983276E+02 -0.15096671242E+02 -0.98164073306E+00  0.45850311829E+02  0.10000000000E+01 0. -1.
    1000022    2    1    0    0    0  0.59459312923E+02 -0.15737806037E+02 -0.48126395437E+01  0.62500000223E+02  0.10000004821E+02 0.  0.
    3000022    2    3    3    0    0  0.16188329646E+02 -0.64113479473E+00 -0.38309988107E+01  0.16649688394E+02  0.25000233673E+00 0.  0.
    1000022    2    1    0    0    0 -0.59459312923E+02  0.15737806037E+02  0.48126395437E+01  0.62499999777E+02  0.10000002034E+02 0.  0.
    3000022    2    5    5    0    0 -0.48646632137E+02  0.11488219873E+02  0.74695650595E+01  0.50540388515E+02  0.24990993942E+00 0.  0.
        -13    1    4    4    0    0  0.48302666545E+01 -0.19838691856E+00 -0.10972672021E+01  0.49584124108E+01  0.10500000000E+00 0. -1.
         13    1    4    4    0    0  0.11358062992E+02 -0.44274787617E+00 -0.27337316086E+01  0.11691275983E+02  0.10500000000E+00 0.  1.
    3000001    1    5    5    0    0 -0.10812680786E+02  0.42495861643E+01 -0.26569255158E+01  0.11959611262E+02  0.10000000000E+01 0.  1.
        -13    1    6    6    0    0 -0.32379766230E+02  0.77006319198E+01  0.49628088163E+01  0.33650995370E+02  0.10500000000E+00 0.  1.
         13    1    6    6    0    0 -0.16266865907E+02  0.37875879528E+01  0.25067562432E+01  0.16889393144E+02  0.10500000000E+00 0. -1.
</event>
<event>
11    0  0.3422856E-009  0.9118800E+02  0.7816531E-02  0.1126479E+00
         25   -1    0    0    0    0  0.00000000000E+00  0.00000000000E+00  0.99999998245E-14  0.12500000000E+03  0.12500000000E+03 0.  0.
    3000001    1    3    3    0    0  0.16751878560E+02 -0.11725936471E+02 -0.22680916277E+02  0.30554001122E+02  0.10000000000E+01 0. -1.
    1000022    2    1    0    0    0  0.41321514643E+02 -0.23791138550E+02 -0.39150534993E+02  0.62500001763E+02  0.99999992118E+01 0.  0.
    3000022    2    3    3    0    0  0.24569636083E+02 -0.12065202080E+02 -0.16469618715E+02  0.31946000641E+02  0.24999564062E+00 0.  0.
    1000022    2    1    0    0    0 -0.41321514643E+02  0.23791138550E+02  0.39150534993E+02  0.62499998237E+02  0.99999771753E+01 0.  0.
    3000022    2    5    5    0    0 -0.17694910654E+02  0.67210224952E+01  0.20386961366E+02  0.27820364827E+02  0.24999791320E+00 0.  0.
        -13    1    4    4    0    0  0.16671581351E+02 -0.82388719277E+01 -0.11212318329E+02  0.21715150073E+02  0.10500000000E+00 0.  1.
         13    1    4    4    0    0  0.78980547320E+01 -0.38263301518E+01 -0.52573003865E+01  0.10230850568E+02  0.10500000000E+00 0. -1.
    3000001    1    5    5    0    0 -0.23626603990E+02  0.17070116055E+02  0.18763573627E+02  0.34679633410E+02  0.10000000000E+01 0.  1.
        -13    1    6    6    0    0 -0.81646015390E+01  0.31583669640E+01  0.94884578662E+01  0.12910377913E+02  0.10500000000E+00 0. -1.
         13    1    6    6    0    0 -0.95303091146E+01  0.35626555312E+01  0.10898503499E+02  0.14909986914E+02  0.10500000000E+00 0.  1.
</event>
<event>
11    0  0.3422856E-009  0.9118800E+02  0.7816531E-02  0.1126479E+00
         25   -1    0    0    0    0  0.00000000000E+00  0.00000000000E+00  0.99999998245E-14  0.12500000000E+03  0.12500000000E+03 0.  0.
    3000001    1    3    3    0    0 -0.42250716774E+01 -0.32351201452E+00 -0.90921583151E+01  0.10080834962E+02  0.10000000000E+01 0.  1.
    1000022    2    1    0    0    0 -0.14815851266E+02  0.16880429283E+02 -0.57461218967E+02  0.62499999057E+02  0.99999927673E+01 0.  0.
    3000022    2    3    3    0    0 -0.10590779589E+02  0.17203941298E+02 -0.48369060652E+02  0.52419164095E+02  0.25005506922E+00 0.  0.
    1000022    2    1    0    0    0  0.14815851266E+02 -0.16880429283E+02  0.57461218967E+02  0.62500000943E+02  0.10000004557E+02 0.  0.
    3000022    2    5    5    0    0  0.14121494702E+02 -0.16546599351E+02  0.45081387901E+02  0.50055974637E+02  0.24999828885E+00 0.  0.
        -13    1    4    4    0    0 -0.52469961751E+01  0.84013283055E+01 -0.23656273961E+02  0.25646512607E+02  0.10500000000E+00 0.  1.
         13    1    4    4    0    0 -0.53437834136E+01  0.88026129925E+01 -0.24712786691E+02  0.26772651488E+02  0.10500000000E+00 0. -1.
    3000001    1    5    5    0    0  0.69435656410E+00 -0.33382993294E+00  0.12379831067E+02  0.12444026306E+02  0.10000000000E+01 0. -1.
        -13    1    6    6    0    0  0.86754131413E+01 -0.10077720528E+02  0.27612916649E+02  0.30648122864E+02  0.10500000000E+00 0. -1.
         13    1    6    6    0    0  0.54460815607E+01 -0.64688788225E+01  0.17468471252E+02  0.19407851774E+02  0.10500000000E+00 0.  1.
</event>
<event>
11    0  0.3422856E-009  0.9118800E+02  0.7816531E-02  0.1126479E+00
         25   -1    0    0    0    0  0.00000000000E+00  0.00000000000E+00  0.99999998245E-14  0.12500000000E+03  0.12500000000E+03 0.  0.
    3000001    1    3    3    0    0  0.12497521989E+02 -0.14579850496E+02  0.84848926910E+01  0.21017932827E+02  0.10000000000E+01 0.  1.
    1000022    2    1    0    0    0  0.42914308340E+02 -0.32008341690E+02  0.30660694753E+02  0.62499999952E+02  0.99999996608E+01 0.  0.
    3000022    2    3    3    0    0  0.30416786350E+02 -0.17428491194E+02  0.22175802062E+02  0.41482067124E+02  0.24999728396E+00 0.  0.
    1000022    2    1    0    0    0 -0.42914308340E+02  0.32008341690E+02 -0.30660694753E+02  0.62500000048E+02  0.10000000266E+02 0.  0.
    3000022    2    5    5    0    0 -0.39936182894E+02  0.31803513081E+02 -0.27295871874E+02  0.57892048341E+02  0.24998274171E+00 0.  0.
        -13    1    4    4    0    0  0.16317397613E+02 -0.94113140849E+01  0.11867651880E+02  0.22263927861E+02  0.10500000000E+00 0. -1.
         13    1    4    4    0    0  0.14099388738E+02 -0.80171771096E+01  0.10308150182E+02  0.19218139264E+02  0.10500000000E+00 0.  1.
    3000001    1    5    5    0    0 -0.29781254454E+01  0.20482860919E+00 -0.33648228789E+01  0.46079517070E+01  0.10000000000E+01 0.  1.
        -13    1    6    6    0    0 -0.19750565899E+02  0.15663466188E+02 -0.13426817270E+02  0.28560803094E+02  0.10500000000E+00 0.  1.
         13    1    6    6    0    0 -0.20185616995E+02  0.16140046893E+02 -0.13869054604E+02  0.29331245248E+02  0.10500000000E+00 0. -1.
</event>
<event>
11    0  0.3422856E-009  0.9118800E+02  0.7816531E-02  0.1126479E+00
         25   -1    0    0    0    0  0.00000000000E+00  0.00000000000E+00  0.99999998245E-14  0.12500000000E+03  0.12500000000E+03 0.  0.
    3000001    1    3    3    0    0 -0.49955108945E+01 -0.61312252988E+01  0.11042031841E+02  0.13618866324E+02  0.10000000000E+01 0.  1.
    1000022    2    1    0    0    0 -0.29724182077E+02 -0.11081108734E+02  0.52914386147E+02  0.62499998486E+02  0.99999789259E+01 0.  0.
    3000022    2    3    3    0    0 -0.24728671182E+02 -0.49498834353E+01  0.41872354306E+02  0.48881132162E+02  0.25000376756E+00 0.  0.
    1000022    2    1    0    0    0  0.29724182077E+02  0.11081108734E+02 -0.52914386147E+02  0.62500001514E+02  0.99999978543E+01 0.  0.
    3000022    2    5    5    0    0  0.13801553219E+02  0.33392456994E+01 -0.32447182671E+02  0.35419141648E+02  0.24999734761E+00 0.  0.
        -13    1    4    4    0    0 -0.84121756678E+01 -0.16444502225E+01  0.14307125670E+02  0.16678542680E+02  0.10500000000E+00 0.  1.
         13    1    4    4    0    0 -0.16316495514E+02 -0.33054332128E+01  0.27565228636E+02  0.32202589482E+02  0.10500000000E+00 0. -1.
    3000001    1    5    5    0    0  0.15922628858E+02  0.77418630347E+01 -0.20467203475E+02  0.27080859866E+02  0.10000000000E+01 0. -1.
        -13    1    6    6    0    0  0.85900383645E+01  0.20850826201E+01 -0.20047376189E+02  0.21909921171E+02  0.10500000000E+00 0.  1.
         13    1    6    6    0    0  0.52115148542E+01  0.12541630793E+01 -0.12399806482E+02  0.13509220477E+02  0.10500000000E+00 0. -1.
</event>
<event>
11    0  0.3422856E-009  0.9118800E+02  0.7816531E-02  0.1126479E+00
         25   -1    0    0    0    0  0.00000000000E+00  0.00000000000E+00  0.99999998245E-14  0.12500000000E+03  0.12500000000E+03 0.  0.
    3000001    1    3    3    0    0 -0.64648547457E+01  0.11066309281E+02 -0.65716717531E+01  0.14437604289E+02  0.10000000000E+01 0. -1.
    1000022    2    1    0    0    0 -0.41955399770E+02  0.37121485440E+02 -0.25845496980E+02  0.62499999451E+02  0.99999983024E+01 0.  0.
    3000022    2    3    3    0    0 -0.35490545024E+02  0.26055176159E+02 -0.19273825227E+02  0.48062395161E+02  0.24999791899E+00 0.  0.
    1000022    2    1    0    0    0  0.41955399770E+02 -0.37121485440E+02  0.25845496980E+02  0.62500000549E+02  0.10000005170E+02 0.  0.
    3000022    2    5    5    0    0  0.27979851344E+02 -0.29022255338E+02  0.21745701633E+02  0.45805037119E+02  0.24999971168E+00 0.  0.
        -13    1    4    4    0    0 -0.22683528659E+02  0.16700015542E+02 -0.12282730816E+02  0.30729619145E+02  0.10500000000E+00 0.  1.
         13    1    4    4    0    0 -0.12807016365E+02  0.93551606168E+01 -0.69910944115E+01  0.17332776016E+02  0.10500000000E+00 0. -1.
    3000001    1    5    5    0    0  0.13975548426E+02 -0.80992301021E+01  0.40997953478E+01  0.16694963430E+02  0.10000000000E+01 0. -1.
        -13    1    6    6    0    0  0.19860939204E+02 -0.20573669457E+02  0.15469087708E+02  0.32512097448E+02  0.10500000000E+00 0.  1.
         13    1    6    6    0    0  0.81189121404E+01 -0.84485858810E+01  0.62766139243E+01  0.13292939671E+02  0.10500000000E+00 0. -1.
</event>
<event>
11    0  0.3422856E-009  0.9118800E+02  0.7816531E-02  0.1126479E+00
         25   -1    0    0    0    0  0.00000000000E+00  0.00000000000E+00  0.99999998245E-14  0.12500000000E+03  0.12500000000E+03 0.  0.
    3000001    1    3    3    0    0 -0.70533674075E+01  0.14298932859E+02 -0.27505628021E+01  0.16210338319E+02  0.10000000000E+01 0. -1.
    1000022    2    1    0    0    0 -0.24768339615E+02  0.50069988437E+02 -0.26187320614E+02  0.62500000002E+02  0.99999924977E+01 0.  0.
    3000022    2    3    3    0    0 -0.17714972207E+02  0.35771055578E+02 -0.23436757812E+02  0.46289661683E+02  0.25000903305E+00 0.  0.
    1000022    2    1    0    0    0  0.24768339615E+02 -0.50069988437E+02  0.26187320614E+02  0.62499999998E+02  0.99999924682E+01 0.  0.
    3000022    2    5    5    0    0  0.13043373249E+02 -0.36342798971E+02  0.16541889779E+02  0.42007442741E+02  0.25001080512E+00 0.  0.
        -13    1    4    4    0    0 -0.80414776933E+01  0.16094977222E+02 -0.10539604346E+02  0.20852048821E+02  0.10500000000E+00 0. -1.
         13    1    4    4    0    0 -0.96734945142E+01  0.19676078356E+02 -0.12897153466E+02  0.25437612862E+02  0.10500000000E+00 0.  1.
    3000001    1    5    5    0    0  0.11724966366E+02 -0.13727189466E+02  0.96454308352E+01  0.20492557257E+02  0.10000000000E+01 0. -1.
        -13    1    6    6    0    0  0.78758927811E+01 -0.21947961372E+02  0.99214909549E+01  0.25341462137E+02  0.10500000000E+00 0. -1.
         13    1    6    6    0    0  0.51674804680E+01 -0.14394837600E+02  0.66203988241E+01  0.16665980604E+02  0.10500000000E+00 0.  1.
</event>
<event>
11    0  0.3422856E-009  0.9118800E+02  0.7816531E-02  0.1126479E+00
         25   -1    0    0    0    0  0.00000000000E+00  0.00000000000E+00  0.99999998245E-14  0.12500000000E+03  0.12500000000E+03 0.  0.
    3000001    1    3    3    0    0 -0.36645992037E+01 -0.57236242700E+01  0.36386546838E+00  0.68790668108E+01  0.10000000000E+01 0. -1.
    1000022    2    1    0    0    0 -0.16284031382E+02 -0.54330144740E+02  0.24275828187E+02  0.62500001359E+02  0.10000001509E+02 0.  0.
    3000022    2    3    3    0    0 -0.12619432178E+02 -0.48606520470E+02  0.23911962718E+02  0.55620934548E+02  0.24999650755E+00 0.  0.
    1000022    2    1    0    0    0  0.16284031382E+02  0.54330144740E+02 -0.24275828187E+02  0.62499998641E+02  0.99999845253E+01 0.  0.
    3000022    2    5    5    0    0  0.13088573281E+02  0.31160021839E+02 -0.10769865394E+02  0.35472668424E+02  0.24998593525E+00 0.  0.
        -13    1    4    4    0    0 -0.75503819318E+01 -0.28906079440E+02  0.14276294742E+02  0.33111830400E+02  0.10500000000E+00 0. -1.
         13    1    4    4    0    0 -0.50690502461E+01 -0.19700441030E+02  0.96356679765E+01  0.22509104148E+02  0.10500000000E+00 0.  1.
    3000001    1    5    5    0    0  0.31954581006E+01  0.23170122901E+02 -0.13505962793E+02  0.27027330218E+02  0.10000000000E+01 0. -1.
        -13    1    6    6    0    0  0.36132920396E+01  0.86814093792E+01 -0.30219354135E+01  0.98775435618E+01  0.10500000000E+00 0.  1.
         13    1    6    6    0    0  0.94752812415E+01  0.22478612460E+02 -0.77479299802E+01  0.25595124862E+02  0.10500000000E+00 0. -1.
</event>
<event>
11    0  0.3422856E-009  0.9118800E+02  0.7816531E-02  0.1126479E+00
         25   -1    0    0    0    0  0.00000000000E+00  0.00000000000E+00  0.99999998245E-14  0.12500000000E+03  0.12500000000E+03 0.  0.
    3000001    1    3    3    0    0  0.12991220197E+01  0.11684278198E+02  0.42051925392E+01  0.12525722308E+02  0.10000000000E+01 0. -1.
    1000022    2    1    0    0    0 -0.58829146830E+01  0.51047018778E+02  0.34144445744E+02  0.62499999423E+02  0.99999970713E+01 0.  0.
    3000022    2    3    3    0    0 -0.71820367027E+01  0.39362740579E+02  0.29939253205E+02  0.49974277115E+02  0.24998719401E+00 0.  0.
    1000022    2    1    0    0    0  0.58829146830E+01 -0.51047018778E+02 -0.34144445744E+02  0.62500000577E+02  0.10000004290E+02 0.  0.
    3000022    2    5    5    0    0  0.72367468046E+01 -0.41303429947E+02 -0.23918056097E+02  0.48275042584E+02  0.24999866725E+00 0.  0.
        -13    1    4    4    0    0 -0.54826476510E+01  0.30001800579E+02  0.22839120716E+02  0.38102544841E+02  0.10500000000E+00 0.  1.
         13    1    4    4    0    0 -0.16993890517E+01  0.93609400004E+01  0.71001324884E+01  0.11871732274E+02  0.10500000000E+00 0. -1.
    3000001    1    5    5    0    0 -0.13538321216E+01 -0.97435888310E+01 -0.10226389646E+02  0.14224957994E+02  0.10000000000E+01 0. -1.
        -13    1    6    6    0    0  0.37606868137E+01 -0.21286189731E+02 -0.12260002993E+02  0.24850821656E+02  0.10500000000E+00 0. -1.
         13    1    6    6    0    0  0.34760599909E+01 -0.20017240215E+02 -0.11658053104E+02  0.23424220928E+02  0.10500000000E+00 0.  1.
</event>
<event>
11    0  0.3422856E-009  0.9118800E+02  0.7816531E-02  0.1126479E+00
         25   -1    0    0    0    0  0.00000000000E+00  0.00000000000E+00  0.99999998245E-14  0.12500000000E+03  0.12500000000E+03 0.  0.
    3000001    1    3    3    0    0 -0.20652003319E+00  0.22882275525E+01 -0.12989391891E+00  0.25090851492E+01  0.10000000000E+01 0. -1.
    1000022    2    1    0    0    0 -0.90298580521E+01  0.47814609636E+02  0.37927229868E+02  0.62500000557E+02  0.10000003653E+02 0.  0.
    3000022    2    3    3    0    0 -0.88233380189E+01  0.45526382084E+02  0.38057123787E+02  0.59990915408E+02  0.25000219976E+00 0.  0.
    1000022    2    1    0    0    0  0.90298580521E+01 -0.47814609636E+02 -0.37927229868E+02  0.62499999443E+02  0.99999966864E+01 0.  0.
    3000022    2    5    5    0    0  0.35795588033E+01 -0.39287601446E+02 -0.31329795480E+02  0.50378045347E+02  0.24999920108E+00 0.  0.
        -13    1    4    4    0    0 -0.29692741842E+01  0.15548442019E+02  0.13034661468E+02  0.20505708059E+02  0.10500000000E+00 0.  1.
         13    1    4    4    0    0 -0.58540638347E+01  0.29977940065E+02  0.25022462319E+02  0.39485207349E+02  0.10500000000E+00 0. -1.
    3000001    1    5    5    0    0  0.54502992488E+01 -0.85270081908E+01 -0.65974343883E+01  0.12121954096E+02  0.10000000000E+01 0. -1.
        -13    1    6    6    0    0  0.12925571040E+01 -0.14312124594E+02 -0.11338950106E+02  0.18305475377E+02  0.10500000000E+00 0. -1.
         13    1    6    6    0    0  0.22870016993E+01 -0.24975476851E+02 -0.19990845374E+02  0.32072569970E+02  0.10500000000E+00 0.  1.
</event>
<event>
11    0  0.3422856E-009  0.9118800E+02  0.7816531E-02  0.1126479E+00
         25   -1    0    0    0    0  0.00000000000E+00  0.00000000000E+00  0.99999998245E-14  0.12500000000E+03  0.12500000000E+03 0.  0.
    3000001    1    3    3    0    0  0.28420264312E+02 -0.24223890975E+02 -0.46006411669E+02  0.59262958348E+02  0.10000000000E+01 0. -1.
    1000022    2    1    0    0    0  0.31297930922E+02 -0.23986661967E+02 -0.47448174545E+02  0.62499997760E+02  0.10000001000E+02 0.  0.
    3000022    2    3    3    0    0  0.28776666105E+01  0.23722900811E+00 -0.14417628764E+01  0.32370394120E+01  0.25000247913E+00 0.  0.
    1000022    2    1    0    0    0 -0.31297930922E+02  0.23986661967E+02  0.47448174545E+02  0.62500002240E+02  0.10000028998E+02 0.  0.
    3000022    2    5    5    0    0 -0.17452178161E+02  0.19071883422E+02  0.32319378404E+02  0.41387437490E+02  0.25000330805E+00 0.  0.
        -13    1    4    4    0    0  0.14038788951E+01  0.49592863584E-01 -0.71822090393E+00  0.15812026028E+01  0.10500000000E+00 0.  1.
         13    1    4    4    0    0  0.14737877154E+01  0.18763614453E+00 -0.72354197252E+00  0.16558368092E+01  0.10500000000E+00 0. -1.
    3000001    1    5    5    0    0 -0.13845752761E+02  0.49147785442E+01  0.15128796141E+02  0.21112564750E+02  0.10000000000E+01 0.  1.
        -13    1    6    6    0    0 -0.58850925989E+01  0.64780736153E+01  0.11013261089E+02  0.14067789360E+02  0.10500000000E+00 0.  1.
         13    1    6    6    0    0 -0.11567085563E+02  0.12593809807E+02  0.21306117315E+02  0.27319648130E+02  0.10500000000E+00 0. -1.
</event>
<event>
11    0  0.3422856E-009  0.9118800E+02  0.7816531E-02  0.1126479E+00
         25   -1    0    0    0    0  0.00000000000E+00  0.00000000000E+00  0.99999998245E-14  0.12500000000E+03  0.12500000000E+03 0.  0.
    3000001    1    3    3    0    0  0.34452158805E+01 -0.10973984847E+02 -0.56484187317E+01  0.12853112077E+02  0.10000000000E+01 0.  1.
    1000022    2    1    0    0    0  0.29447392500E+02 -0.52598731013E+02 -0.13132956442E+02  0.62500000062E+02  0.10000001679E+02 0.  0.
    3000022    2    3    3    0    0  0.26002176619E+02 -0.41624746166E+02 -0.74845377107E+01  0.49646887985E+02  0.24999906005E+00 0.  0.
    1000022    2    1    0    0    0 -0.29447392500E+02  0.52598731013E+02  0.13132956442E+02  0.62499999938E+02  0.10000000906E+02 0.  0.
    3000022    2    5    5    0    0 -0.10948387188E+02  0.29183576042E+02  0.51471043804E+01  0.31592775653E+02  0.24999468018E+00 0.  0.
        -13    1    4    4    0    0  0.10423749075E+02 -0.16805616904E+02 -0.30102913481E+01  0.20003904201E+02  0.10500000000E+00 0. -1.
         13    1    4    4    0    0  0.15578427545E+02 -0.24819129262E+02 -0.44742463626E+01  0.29642983784E+02  0.10500000000E+00 0.  1.
    3000001    1    5    5    0    0 -0.18499005312E+02  0.23415154971E+02  0.79858520620E+01  0.30907224285E+02  0.10000000000E+01 0. -1.
        -13    1    6    6    0    0 -0.34623378454E+01  0.91905937192E+01  0.16702370622E+01  0.99627061138E+01  0.10500000000E+00 0. -1.
         13    1    6    6    0    0 -0.74860493422E+01  0.19992982323E+02  0.34768673182E+01  0.21630069539E+02  0.10500000000E+00 0.  1.
</event>
<event>
11    0  0.3422856E-009  0.9118800E+02  0.7816531E-02  0.1126479E+00
         25   -1    0    0    0    0  0.00000000000E+00  0.00000000000E+00  0.99999998245E-14  0.12500000000E+03  0.12500000000E+03 0.  0.
    3000001    1    3    3    0    0  0.39909939848E+01 -0.56425061464E+00  0.44718189605E-01  0.41531206892E+01  0.10000000000E+01 0. -1.
    1000022    2    1    0    0    0  0.52086704733E+02 -0.47619176729E+01 -0.32719256206E+02  0.62499999963E+02  0.99999799468E+01 0.  0.
    3000022    2    3    3    0    0  0.48095710748E+02 -0.41976670582E+01 -0.32763974396E+02  0.58346879274E+02  0.25000356128E+00 0.  0.
    1000022    2    1    0    0    0 -0.52086704733E+02  0.47619176729E+01  0.32719256206E+02  0.62500000037E+02  0.99999804037E+01 0.  0.
    3000022    2    5    5    0    0 -0.32930518206E+02 -0.13479526085E+01  0.22641042473E+02  0.39986439919E+02  0.25013520792E+00 0.  0.
        -13    1    4    4    0    0  0.28801915714E+02 -0.25202215649E+01 -0.19544926887E+02  0.34898668421E+02  0.10500000000E+00 0.  1.
         13    1    4    4    0    0  0.19293795033E+02 -0.16774454933E+01 -0.13219047508E+02  0.23448210853E+02  0.10500000000E+00 0. -1.
    3000001    1    5    5    0    0 -0.19156186527E+02  0.61098702814E+01  0.10078213733E+02  0.22513560117E+02  0.10000000000E+01 0.  1.
        -13    1    6    6    0    0 -0.15065432919E+02 -0.62414275735E+00  0.10439265938E+02  0.18339741589E+02  0.10500000000E+00 0.  1.
         13    1    6    6    0    0 -0.17865085287E+02 -0.72380985118E+00  0.12201776535E+02  0.21646698331E+02  0.10500000000E+00 0. -1.
</event>
<event>
11    0  0.3422856E-009  0.9118800E+02  0.7816531E-02  0.1126479E+00
         25   -1    0    0    0    0  0.00000000000E+00  0.00000000000E+00  0.99999998245E-14  0.12500000000E+03  0.12500000000E+03 0.  0.
    3000001    1    3    3    0    0 -0.90374985900E+01 -0.32368032198E+02 -0.14400410863E+01  0.33651740036E+02  0.10000000000E+01 0. -1.
    1000022    2    1    0    0    0 -0.18802418290E+02 -0.58441447175E+02  0.61086352122E+01  0.62499991996E+02  0.99999946917E+01 0.  0.
    3000022    2    3    3    0    0 -0.97649197004E+01 -0.26073414977E+02  0.75486762985E+01  0.28848251960E+02  0.25000388305E+00 0.  0.
    1000022    2    1    0    0    0  0.18802418290E+02  0.58441447175E+02 -0.61086352122E+01  0.62500008004E+02  0.10000094744E+02 0.  0.
    3000022    2    5    5    0    0  0.11939296751E+02  0.26014147365E+02  0.76490506286E+00  0.28634424204E+02  0.24999937429E+00 0.  0.
        -13    1    4    4    0    0 -0.25413513367E+01 -0.68620839088E+01  0.19642609853E+01  0.75773351784E+01  0.10500000000E+00 0.  1.
         13    1    4    4    0    0 -0.72235683637E+01 -0.19211331068E+02  0.55844153132E+01  0.21270916781E+02  0.10500000000E+00 0. -1.
    3000001    1    5    5    0    0  0.68631215394E+01  0.32427299810E+02 -0.68735402751E+01  0.33865583801E+02  0.10000000000E+01 0.  1.
        -13    1    6    6    0    0  0.43758244259E+01  0.96770465934E+01  0.28797952732E+00  0.10624830699E+02  0.10500000000E+00 0. -1.
         13    1    6    6    0    0  0.75634723252E+01  0.16337100771E+02  0.47692553554E+00  0.18009593504E+02  0.10500000000E+00 0.  1.
</event>
<event>
11    0  0.3422856E-009  0.9118800E+02  0.7816531E-02  0.1126479E+00
         25   -1    0    0    0    0  0.00000000000E+00  0.00000000000E+00  0.99999998245E-14  0.12500000000E+03  0.12500000000E+03 0.  0.
    3000001    1    3    3    0    0  0.35759998521E+02  0.97816172696E+00  0.16629920297E+02  0.39462495406E+02  0.10000000000E+01 0. -1.
    1000022    2    1    0    0    0  0.54264156425E+02 -0.51735238696E+01  0.28894386648E+02  0.62500002943E+02  0.10000038319E+02 0.  0.
    3000022    2    3    3    0    0  0.18504157904E+02 -0.61516855965E+01  0.12264466351E+02  0.23037507537E+02  0.25004645740E+00 0.  0.
    1000022    2    1    0    0    0 -0.54264156425E+02  0.51735238696E+01 -0.28894386648E+02  0.62499997057E+02  0.10000001526E+02 0.  0.
    3000022    2    5    5    0    0 -0.13914995678E+01 -0.15650477087E+01 -0.10247397029E+01  0.23448359236E+01  0.25003734149E+00 0.  0.
        -13    1    4    4    0    0  0.10264041039E+02 -0.34275343472E+01  0.68824996126E+01  0.12824911542E+02  0.10500000000E+00 0.  1.
         13    1    4    4    0    0  0.82401168655E+01 -0.27241512493E+01  0.53819667381E+01  0.10212595995E+02  0.10500000000E+00 0. -1.
    3000001    1    5    5    0    0 -0.52872656857E+02  0.67385715783E+01 -0.27869646945E+02  0.60155161133E+02  0.10000000000E+01 0. -1.
        -13    1    6    6    0    0 -0.59457739742E+00 -0.58389079975E+00 -0.43923008183E+00  0.94783902237E+00  0.10500000000E+00 0.  1.
         13    1    6    6    0    0 -0.79692217042E+00 -0.98115690898E+00 -0.58550962112E+00  0.13969969013E+01  0.10500000000E+00 0. -1.
</event>
<event>
11    0  0.3422856E-009  0.9118800E+02  0.7816531E-02  0.1126479E+00
         25   -1    0    0    0    0  0.00000000000E+00  0.00000000000E+00  0.99999998245E-14  0.12500000000E+03  0.12500000000E+03 0.  0.
    3000001    1    3    3    0    0  0.76835720263E+01 -0.38631054105E+02  0.68968544706E+01  0.39999527772E+02  0.10000000000E+01 0. -1.
    1000022    2    1    0    0    0  0.56892405026E+01 -0.61041564950E+02  0.69144532844E+01  0.62499998100E+02  0.99999994585E+01 0.  0.
    3000022    2    3    3    0    0 -0.19943315237E+01 -0.22410510845E+02  0.17598813786E-01  0.22500470328E+02  0.25000141077E+00 0.  0.
    1000022    2    1    0    0    0 -0.56892405026E+01  0.61041564950E+02 -0.69144532844E+01  0.62500001900E+02  0.10000023210E+02 0.  0.
    3000022    2    5    5    0    0 -0.82687060298E+01  0.48672154115E+02 -0.42905461411E+01  0.49556244504E+02  0.24999517157E+00 0.  0.
        -13    1    4    4    0    0 -0.13268558724E+01 -0.14327452600E+02  0.38032808121E-01  0.14389194419E+02  0.10500000000E+00 0.  1.
         13    1    4    4    0    0 -0.66747565132E+00 -0.80830582447E+01 -0.20433994336E-01  0.81112759095E+01  0.10500000000E+00 0. -1.
    3000001    1    5    5    0    0  0.25794655273E+01  0.12369410835E+02 -0.26239071433E+01  0.12943757396E+02  0.10000000000E+01 0.  1.
        -13    1    6    6    0    0 -0.47346206602E+01  0.28238669794E+02 -0.25078207022E+01  0.28742638957E+02  0.10500000000E+00 0.  1.
         13    1    6    6    0    0 -0.35340853696E+01  0.20433484321E+02 -0.17827254390E+01  0.20813605547E+02  0.10500000000E+00 0. -1.
</event>
<event>
11    0  0.3422856E-009  0.9118800E+02  0.7816531E-02  0.1126479E+00
         25   -1    0    0    0    0  0.00000000000E+00  0.00000000000E+00  0.99999998245E-14  0.12500000000E+03  0.12500000000E+03 0.  0.
    3000001    1    3    3    0    0  0.96813475586E+00 -0.65304247333E+01  0.24432619675E+01  0.71100816552E+01  0.10000000000E+01 0. -1.
    1000022    2    1    0    0    0  0.30472579500E+02 -0.53186543336E+02  0.69902340257E+01  0.62500000584E+02  0.10000010393E+02 0.  0.
    3000022    2    3    3    0    0  0.29504444744E+02 -0.46656118603E+02  0.45469720582E+01  0.55389918929E+02  0.25000263292E+00 0.  0.
    1000022    2    1    0    0    0 -0.30472579500E+02  0.53186543336E+02 -0.69902340257E+01  0.62499999416E+02  0.10000003090E+02 0.  0.
    3000022    2    5    5    0    0 -0.13996251265E+02  0.30381028850E+02 -0.77513029865E+01  0.34337256136E+02  0.24999500814E+00 0.  0.
        -13    1    4    4    0    0  0.20948306012E+02 -0.33151196938E+02  0.32709049526E+01  0.39351533990E+02  0.10500000000E+00 0.  1.
         13    1    4    4    0    0  0.85561387320E+01 -0.13504921665E+02  0.12760671056E+01  0.16038384939E+02  0.10500000000E+00 0. -1.
    3000001    1    5    5    0    0 -0.16476328234E+02  0.22805514487E+02  0.76106896084E+00  0.28162743280E+02  0.10000000000E+01 0. -1.
        -13    1    6    6    0    0 -0.95719253375E+01  0.20892321009E+02 -0.53353989957E+01  0.23592124517E+02  0.10500000000E+00 0.  1.
         13    1    6    6    0    0 -0.44243259280E+01  0.94887078410E+01 -0.24159039908E+01  0.10745131619E+02  0.10500000000E+00 0. -1.
</event>
<event>
11    0  0.3422856E-009  0.9118800E+02  0.7816531E-02  0.1126479E+00
         25   -1    0    0    0    0  0.00000000000E+00  0.00000000000E+00  0.99999998245E-14  0.12500000000E+03  0.12500000000E+03 0.  0.
    3000001    1    3    3    0    0 -0.56033393280E+01 -0.50196888180E+02  0.82849502837E+01  0.51193411645E+02  0.10000000000E+01 0.  1.
    1000022    2    1    0    0    0 -0.11094860009E+02 -0.60070752315E+02  0.86405281571E+01  0.62499999687E+02  0.10000001591E+02 0.  0.
    3000022    2    3    3    0    0 -0.54915206809E+01 -0.98738641345E+01  0.35557787336E+00  0.11306588043E+02  0.25001042104E+00 0.  0.
    1000022    2    1    0    0    0  0.11094860009E+02  0.60070752315E+02 -0.86405281571E+01  0.62500000313E+02  0.10000005497E+02 0.  0.
    3000022    2    5    5    0    0  0.86137859342E+01  0.38428406626E+02 -0.10058331835E+02  0.40646922206E+02  0.25000307576E+00 0.  0.
        -13    1    4    4    0    0 -0.39929841714E+01 -0.71441544587E+01  0.29162972321E+00  0.81901732837E+01  0.10500000000E+00 0.  1.
         13    1    4    4    0    0 -0.14985365095E+01 -0.27297096758E+01  0.63948150151E-01  0.31164147591E+01  0.10500000000E+00 0.  1.
    3000001    1    5    5    0    0  0.24810740747E+01  0.21642345688E+02  0.14178036783E+01  0.21853078107E+02  0.10000000000E+01 0.  1.
        -13    1    6    6    0    0  0.37403952191E+01  0.16802953869E+02 -0.43337571385E+01  0.17751684176E+02  0.10500000000E+00 0. -1.
         13    1    6    6    0    0  0.48733907151E+01  0.21625452757E+02 -0.57245746969E+01  0.22895238030E+02  0.10500000000E+00 0.  1.
</event>
<event>
11    0  0.3422856E-009  0.9118800E+02  0.7816531E-02  0.1126479E+00
         25   -1    0    0    0    0  0.00000000000E+00  0.00000000000E+00  0.99999998245E-14  0.12500000000E+03  0.12500000000E+03 0.  0.
    3000001    1    3    3    0    0  0.15771496662E+02  0.44290286933E+02 -0.24791578640E+02  0.53160060149E+02  0.10000000000E+01 0.  1.
    1000022    2    1    0    0    0  0.20870066675E+02  0.49127900195E+02 -0.30937654614E+02  0.62500010208E+02  0.10000127119E+02 0.  0.
    3000022    2    3    3    0    0  0.50985700131E+01  0.48376132616E+01 -0.61460759742E+01  0.93399500589E+01  0.24999795023E+00 0.  0.
    1000022    2    1    0    0    0 -0.20870066675E+02 -0.49127900195E+02  0.30937654614E+02  0.62499989792E+02  0.99999995198E+01 0.  0.
    3000022    2    5    5    0    0 -0.12560315391E+02 -0.28530692367E+02  0.12388790475E+02  0.33545589477E+02  0.25002860219E+00 0.  0.
        -13    1    4    4    0    0  0.15465533270E+01  0.15233181407E+01 -0.19338735505E+01  0.29091609203E+01  0.10500000000E+00 0.  1.
         13    1    4    4    0    0  0.35520166861E+01  0.33142951209E+01 -0.42122024237E+01  0.64307891386E+01  0.10500000000E+00 0. -1.
    3000001    1    5    5    0    0 -0.83097512838E+01 -0.20597207828E+02  0.18548864140E+02  0.28954400315E+02  0.10000000000E+01 0.  1.
        -13    1    6    6    0    0 -0.29378136542E+01 -0.67071107672E+01  0.29049784391E+01  0.78781983120E+01  0.10500000000E+00 0.  1.
         13    1    6    6    0    0 -0.96225017370E+01 -0.21823581600E+02  0.94838120354E+01  0.25667391165E+02  0.10500000000E+00 0. -1.
</event>
<event>
11    0  0.3422856E-009  0.9118800E+02  0.7816531E-02  0.1126479E+00
         25   -1    0    0    0    0  0.00000000000E+00  0.00000000000E+00  0.99999998245E-14  0.12500000000E+03  0.12500000000E+03 0.  0.
    3000001    1    3    3    0    0 -0.26906480914E+02 -0.66114730066E+01 -0.14885154232E+01  0.27764833308E+02  0.10000000000E+01 0. -1.
    1000022    2    1    0    0    0 -0.56270297793E+02 -0.25064850853E+02 -0.34142193983E+01  0.62499998970E+02  0.99999907611E+01 0.  0.
    3000022    2    3    3    0    0 -0.29363816879E+02 -0.18453377847E+02 -0.19257039751E+01  0.34735165662E+02  0.25000422412E+00 0.  0.
    1000022    2    1    0    0    0  0.56270297793E+02  0.25064850853E+02  0.34142193983E+01  0.62500001030E+02  0.10000003631E+02 0.  0.
    3000022    2    5    5    0    0  0.54152756224E+02  0.25504925839E+02  0.23904221647E+01  0.59906584545E+02  0.25000994497E+00 0.  0.
        -13    1    4    4    0    0 -0.20887610682E+02 -0.13157414615E+02 -0.13372627816E+01  0.24722644198E+02  0.10500000000E+00 0. -1.
         13    1    4    4    0    0 -0.84762061965E+01 -0.52959632316E+01 -0.58844119348E+00  0.10012521464E+02  0.10500000000E+00 0.  1.
    3000001    1    5    5    0    0  0.21175415687E+01 -0.44007498579E+00  0.10237972336E+01  0.25934164849E+01  0.10000000000E+01 0.  1.
        -13    1    6    6    0    0  0.23619726758E+02  0.11168507843E+02  0.10959573318E+01  0.26150319444E+02  0.10500000000E+00 0. -1.
         13    1    6    6    0    0  0.30533029466E+02  0.14336417996E+02  0.12944648328E+01  0.33756265100E+02  0.10500000000E+00 0.  1.
</event>
<event>
11    0  0.3422856E-009  0.9118800E+02  0.7816531E-02  0.1126479E+00
         25   -1    0    0    0    0  0.00000000000E+00  0.00000000000E+00  0.99999998245E-14  0.12500000000E+03  0.12500000000E+03 0.  0.
    3000001    1    3    3    0    0 -0.67543593850E+01  0.84436118292E+01 -0.22285202296E+02  0.24790042211E+02  0.10000000000E+01 0. -1.
    1000022    2    1    0    0    0 -0.16673521237E+02  0.93756508523E+01 -0.58654420030E+02  0.62500000702E+02  0.99999979692E+01 0.  0.
    3000022    2    3    3    0    0 -0.99191618516E+01  0.93203902307E+00 -0.36369217734E+02  0.37709958492E+02  0.25000456530E+00 0.  0.
    1000022    2    1    0    0    0  0.16673521237E+02 -0.93756508523E+01  0.58654420030E+02  0.62499999298E+02  0.99999891941E+01 0.  0.
    3000022    2    5    5    0    0  0.14454142124E+02 -0.30216520433E+01  0.41105510396E+02  0.43678119109E+02  0.24999676667E+00 0.  0.
        -13    1    4    4    0    0 -0.72569931037E+01  0.66686478232E+00 -0.26719219401E+02  0.27695421426E+02  0.10500000000E+00 0.  1.
         13    1    4    4    0    0 -0.26621687479E+01  0.26517424075E+00 -0.96499983326E+01  0.10014537066E+02  0.10500000000E+00 0. -1.
    3000001    1    5    5    0    0  0.22193791128E+01 -0.63539988090E+01  0.17548909634E+02  0.18821880189E+02  0.10000000000E+01 0.  1.
        -13    1    6    6    0    0  0.60638569829E+01 -0.12245428101E+01  0.17076008602E+02  0.18162350106E+02  0.10500000000E+00 0. -1.
         13    1    6    6    0    0  0.83902851408E+01 -0.17971092332E+01  0.24029501794E+02  0.25515769003E+02  0.10500000000E+00 0.  1.
</event>
<event>
11    0  0.3422856E-009  0.9118800E+02  0.7816531E-02  0.1126479E+00
         25   -1    0    0    0    0  0.00000000000E+00  0.00000000000E+00  0.99999998245E-14  0.12500000000E+03  0.12500000000E+03 0.  0.
    3000001    1    3    3    0    0  0.84453662164E+00  0.24215919902E+01  0.20391046071E+01  0.34256820446E+01  0.10000000000E+01 0.  1.
    1000022    2    1    0    0    0 -0.63499360193E+01  0.60330509249E+02  0.11232005590E+02  0.62500000188E+02  0.10000002012E+02 0.  0.
    3000022    2    3    3    0    0 -0.71944726409E+01  0.57908917259E+02  0.91929009827E+01  0.59074318144E+02  0.25000192427E+00 0.  0.
    1000022    2    1    0    0    0  0.63499360193E+01 -0.60330509249E+02 -0.11232005590E+02  0.62499999812E+02  0.99999996566E+01 0.  0.
    3000022    2    5    5    0    0 -0.78657701184E-01 -0.35568372970E+02 -0.96173566285E+01  0.36846592599E+02  0.24998974261E+00 0.  0.
        -13    1    4    4    0    0 -0.26917977386E+01  0.22090835836E+02  0.34741124937E+01  0.22524015753E+02  0.10500000000E+00 0. -1.
         13    1    4    4    0    0 -0.45026749023E+01  0.35818081423E+02  0.57187884890E+01  0.36550302391E+02  0.10500000000E+00 0.  1.
    3000001    1    5    5    0    0  0.64285937205E+01 -0.24762136280E+02 -0.16146489613E+01  0.25653407213E+02  0.10000000000E+01 0.  1.
        -13    1    6    6    0    0 -0.43424001431E-01 -0.92420815806E+01 -0.24767361159E+01  0.95688664101E+01  0.10500000000E+00 0.  1.
         13    1    6    6    0    0 -0.35233699754E-01 -0.26326291389E+02 -0.71406205127E+01  0.27277726188E+02  0.10500000000E+00 0. -1.
</event>
<event>
11    0  0.3422856E-009  0.9118800E+02  0.7816531E-02  0.1126479E+00
         25   -1    0    0    0    0  0.00000000000E+00  0.00000000000E+00  0.99999998245E-14  0.12500000000E+03  0.12500000000E+03 0.  0.
    3000001    1    3    3    0    0  0.34171452802E+01  0.21972460772E+01 -0.38014626989E+01  0.56529541694E+01  0.10000000000E+01 0.  1.
    1000022    2    1    0    0    0  0.51669047612E+02 -0.83679050361E+00 -0.33702513186E+02  0.62500001348E+02  0.10000003697E+02 0.  0.
    3000022    2    3    3    0    0  0.48251902332E+02 -0.30340365808E+01 -0.29901050487E+02  0.56847047178E+02  0.24999210496E+00 0.  0.
    1000022    2    1    0    0    0 -0.51669047612E+02  0.83679050361E+00  0.33702513186E+02  0.62499998652E+02  0.99999868496E+01 0.  0.
    3000022    2    5    5    0    0 -0.46010754466E+00  0.63061589618E+00  0.22498732097E+01  0.23945362360E+01  0.24999792874E+00 0.  0.
        -13    1    4    4    0    0  0.27732558114E+02 -0.17535163060E+01 -0.17110011127E+02  0.32633312807E+02  0.10500000000E+00 0.  1.
         13    1    4    4    0    0  0.20519344218E+02 -0.12805202749E+01 -0.12791039359E+02  0.24213734372E+02  0.10500000000E+00 0. -1.
    3000001    1    5    5    0    0 -0.51208940068E+02  0.20617460743E+00  0.31452639976E+02  0.60105462416E+02  0.10000000000E+01 0. -1.
        -13    1    6    6    0    0 -0.32000653092E+00  0.46874098668E+00  0.16956977120E+01  0.17912392422E+01  0.10500000000E+00 0.  1.
         13    1    6    6    0    0 -0.14010101374E+00  0.16187490950E+00  0.55417549770E+00  0.60329699371E+00  0.10500000000E+00 0. -1.
</event>
<event>
11    0  0.3422856E-009  0.9118800E+02  0.7816531E-02  0.1126479E+00
         25   -1    0    0    0    0  0.00000000000E+00  0.00000000000E+00  0.99999998245E-14  0.12500000000E+03  0.12500000000E+03 0.  0.
    3000001    1    3    3    0    0  0.38341641316E+01  0.72158712596E+00 -0.50574047359E+00  0.40592211070E+01  0.10000000000E+01 0. -1.
    1000022    2    1    0    0    0  0.44612062698E+02  0.17306031016E+02 -0.38942457945E+02  0.62499999122E+02  0.10000000587E+02 0.  0.
    3000022    2    3    3    0    0  0.40777898566E+02  0.16584443890E+02 -0.38436717471E+02  0.58440778015E+02  0.24998876052E+00 0.  0.
    1000022    2    1    0    0    0 -0.44612062698E+02 -0.17306031016E+02  0.38942457945E+02  0.62500000878E+02  0.10000011567E+02 0.  0.
    3000022    2    5    5    0    0 -0.28516028637E+02 -0.82323387192E+01  0.28985306092E+02  0.41486693728E+02  0.24999440080E+00 0.  0.
        -13    1    4    4    0    0  0.26405184100E+02  0.10777802013E+02 -0.24960263818E+02  0.37900139293E+02  0.10500000000E+00 0.  1.
         13    1    4    4    0    0  0.14372714466E+02  0.58066418779E+01 -0.13476453653E+02  0.20540638721E+02  0.10500000000E+00 0. -1.
    3000001    1    5    5    0    0 -0.16096034061E+02 -0.90736922972E+01  0.99571518528E+01  0.21013307151E+02  0.10000000000E+01 0.  1.
        -13    1    6    6    0    0 -0.19855257976E+02 -0.57223914600E+01  0.20243159896E+02  0.28927038924E+02  0.10500000000E+00 0.  1.
         13    1    6    6    0    0 -0.86607706609E+01 -0.25099472592E+01  0.87421461961E+01  0.12559654804E+02  0.10500000000E+00 0. -1.
</event>
<event>
11    0  0.3422856E-009  0.9118800E+02  0.7816531E-02  0.1126479E+00
         25   -1    0    0    0    0  0.00000000000E+00  0.00000000000E+00  0.99999998245E-14  0.12500000000E+03  0.12500000000E+03 0.  0.
    3000001    1    3    3    0    0  0.16758595353E+02  0.47751722587E+02 -0.72408389959E+00  0.50622147581E+02  0.10000000000E+01 0. -1.
    1000022    2    1    0    0    0  0.19108316900E+02  0.58548926058E+02  0.36256404702E+01  0.62500000366E+02  0.10000012984E+02 0.  0.
    3000022    2    3    3    0    0  0.23497215467E+01  0.10797203471E+02  0.43497243698E+01  0.11877852785E+02  0.24998110262E+00 0.  0.
    1000022    2    1    0    0    0 -0.19108316900E+02 -0.58548926058E+02 -0.36256404702E+01  0.62499999634E+02  0.10000008404E+02 0.  0.
    3000022    2    5    5    0    0 -0.14908221629E+02 -0.50990173537E+02 -0.60367114843E+01  0.53467347565E+02  0.25000123546E+00 0.  0.
        -13    1    4    4    0    0  0.79916427910E+00  0.39071503048E+01  0.15379276454E+01  0.42755974427E+01  0.10500000000E+00 0. -1.
         13    1    4    4    0    0  0.15505572676E+01  0.68900531663E+01  0.28117967244E+01  0.76022553426E+01  0.10500000000E+00 0.  1.
    3000001    1    5    5    0    0 -0.42000952705E+01 -0.75587525211E+01  0.24110710141E+01  0.90326520685E+01  0.10000000000E+01 0.  1.
        -13    1    6    6    0    0 -0.10839836625E+02 -0.36967039113E+02 -0.44002407080E+01  0.38774181902E+02  0.10500000000E+00 0. -1.
         13    1    6    6    0    0 -0.40683850042E+01 -0.14023134424E+02 -0.16364707763E+01  0.14693165663E+02  0.10500000000E+00 0.  1.
</event>
<event>
11    0  0.3422856E-009  0.9118800E+02  0.7816531E-02  0.1126479E+00
         25   -1    0    0    0    0  0.00000000000E+00  0.00000000000E+00  0.99999998245E-14  0.12500000000E+03  0.12500000000E+03 0.  0.
    3000001    1    3    3    0    0  0.11436480326E+02 -0.45530730790E+01  0.46532024522E+02  0.48143045841E+02  0.10000000000E+01 0.  1.
    1000022    2    1    0    0    0  0.14596778441E+02 -0.51902872295E+00  0.59940925724E+02  0.62500000447E+02  0.10000007377E+02 0.  0.
    3000022    2    3    3    0    0  0.31602981149E+01  0.40340443561E+01  0.13408901202E+02  0.14356954606E+02  0.25003215113E+00 0.  0.
    1000022    2    1    0    0    0 -0.14596778441E+02  0.51902872295E+00 -0.59940925724E+02  0.62499999553E+02  0.10000001791E+02 0.  0.
    3000022    2    5    5    0    0  0.85986578814E-01  0.73861133232E+00 -0.18610857242E+02  0.18627384337E+02  0.24999914546E+00 0.  0.
        -13    1    4    4    0    0  0.18616030270E+01  0.23238275786E+01  0.79449977698E+01  0.84852669379E+01  0.10500000000E+00 0. -1.
         13    1    4    4    0    0  0.12986950879E+01  0.17102167775E+01  0.54639034323E+01  0.58716876684E+01  0.10500000000E+00 0.  1.
    3000001    1    5    5    0    0 -0.14682765020E+02 -0.21958260936E+00 -0.41330068482E+02  0.43872615216E+02  0.10000000000E+01 0. -1.
        -13    1    6    6    0    0 -0.14098431149E-01  0.19760550889E+00 -0.51463082858E+01  0.51511902193E+01  0.10500000000E+00 0.  1.
         13    1    6    6    0    0  0.10008500996E+00  0.54100582342E+00 -0.13464548956E+02  0.13476194118E+02  0.10500000000E+00 0. -1.
</event>
<event>
11    0  0.3422856E-009  0.9118800E+02  0.7816531E-02  0.1126479E+00
         25   -1    0    0    0    0  0.00000000000E+00  0.00000000000E+00  0.99999998245E-14  0.12500000000E+03  0.12500000000E+03 0.  0.
    3000001    1    3    3    0    0  0.90518869223E+00 -0.90256205772E+01  0.30783400743E+02  0.32107615214E+02  0.10000000000E+01 0. -1.
    1000022    2    1    0    0    0  0.85777424442E+00 -0.80640820877E+01  0.61159503640E+02  0.62499999183E+02  0.99999907901E+01 0.  0.
    3000022    2    3    3    0    0 -0.47414447806E-01  0.96153848953E+00  0.30376102896E+02  0.30392383969E+02  0.25014347881E+00 0.  0.
    1000022    2    1    0    0    0 -0.85777424442E+00  0.80640820877E+01 -0.61159503640E+02  0.62500000817E+02  0.10000001006E+02 0.  0.
    3000022    2    5    5    0    0  0.12875954383E+01  0.81222881159E+01 -0.57842138216E+02  0.58424352112E+02  0.25000000538E+00 0.  0.
        -13    1    4    4    0    0 -0.71461948548E-01  0.65811623080E+00  0.21489093317E+02  0.21499543725E+02  0.10500000000E+00 0.  1.
         13    1    4    4    0    0  0.24047500741E-01  0.30342225873E+00  0.88870095791E+01  0.88928402442E+01  0.10500000000E+00 0. -1.
    3000001    1    5    5    0    0 -0.21453696827E+01 -0.58206028140E-01 -0.33173654234E+01  0.40756487054E+01  0.10000000000E+01 0. -1.
        -13    1    6    6    0    0  0.45999679002E+00  0.31818298198E+01 -0.22303822944E+02  0.22534577453E+02  0.10500000000E+00 0.  1.
         13    1    6    6    0    0  0.82759864826E+00  0.49404582961E+01 -0.35538315272E+02  0.35889774659E+02  0.10500000000E+00 0. -1.
</event>
<event>
11    0  0.3422856E-009  0.9118800E+02  0.7816531E-02  0.1126479E+00
         25   -1    0    0    0    0  0.00000000000E+00  0.00000000000E+00  0.99999998245E-14  0.12500000000E+03  0.12500000000E+03 0.  0.
    3000001    1    3    3    0    0  0.24494688779E+01  0.20748156826E+00 -0.15054053918E+01  0.30510968157E+01  0.10000000000E+01 0. -1.
    1000022    2    1    0    0    0  0.21523183194E+02  0.26892810306E+01 -0.57756127690E+02  0.62500000643E+02  0.10000007368E+02 0.  0.
    3000022    2    3    3    0    0  0.19073714317E+02  0.24817994624E+01 -0.56250722298E+02  0.59448903827E+02  0.25000163702E+00 0.  0.
    1000022    2    1    0    0    0 -0.21523183194E+02 -0.26892810306E+01  0.57756127690E+02  0.62499999357E+02  0.99999993310E+01 0.  0.
    3000022    2    5    5    0    0 -0.11875398309E+02  0.22510812392E+01  0.21745333233E+02  0.24880001351E+02  0.24999614015E+00 0.  0.
        -13    1    4    4    0    0  0.63018578240E+01  0.86401093630E+00 -0.18510364988E+02  0.19573057092E+02  0.10500000000E+00 0. -1.
         13    1    4    4    0    0  0.12771856493E+02  0.16177885261E+01 -0.37740357310E+02  0.39875846735E+02  0.10500000000E+00 0.  1.
    3000001    1    5    5    0    0 -0.96477848850E+01 -0.49403622698E+01  0.36010794457E+02  0.37619998006E+02  0.10000000000E+01 0. -1.
        -13    1    6    6    0    0 -0.34106550449E+01  0.68220261947E+00  0.62107350189E+01  0.71191448029E+01  0.10500000000E+00 0.  1.
         13    1    6    6    0    0 -0.84647432646E+01  0.15688786197E+01  0.15534598214E+02  0.17760856548E+02  0.10500000000E+00 0. -1.
</event>
<event>
11    0  0.3422856E-009  0.9118800E+02  0.7816531E-02  0.1126479E+00
         25   -1    0    0    0    0  0.00000000000E+00  0.00000000000E+00  0.99999998245E-14  0.12500000000E+03  0.12500000000E+03 0.  0.
    3000001    1    3    3    0    0 -0.22257330230E+02  0.54426823178E+01  0.25698191659E+02  0.34444282462E+02  0.10000000000E+01 0.  1.
    1000022    2    1    0    0    0 -0.33630385028E+02  0.14967127606E+02  0.49509931770E+02  0.62499992159E+02  0.99998985000E+01 0.  0.
    3000022    2    3    3    0    0 -0.11373054799E+02  0.95244452881E+01  0.23811740111E+02  0.28055709697E+02  0.24989190618E+00 0.  0.
    1000022    2    1    0    0    0  0.33630385028E+02 -0.14967127606E+02 -0.49509931770E+02  0.62500007841E+02  0.99999965186E+01 0.  0.
    3000022    2    5    5    0    0  0.17530886057E+02 -0.11053929350E+02 -0.33782847975E+02  0.39634134746E+02  0.24999947177E+00 0.  0.
        -13    1    4    4    0    0 -0.66774310676E+01  0.56239211517E+01  0.14124644934E+02  0.16605215877E+02  0.10500000000E+00 0. -1.
         13    1    4    4    0    0 -0.46956237310E+01  0.39005241364E+01  0.96870951771E+01  0.11450493820E+02  0.10500000000E+00 0.  1.
    3000001    1    5    5    0    0  0.16099498972E+02 -0.39131982561E+01 -0.15727083795E+02  0.22865873096E+02  0.10000000000E+01 0. -1.
        -13    1    6    6    0    0  0.98421229040E+01 -0.61365900270E+01 -0.18846942201E+02  0.22130146311E+02  0.10500000000E+00 0. -1.
         13    1    6    6    0    0  0.76887631526E+01 -0.49173393228E+01 -0.14935905774E+02  0.17503988435E+02  0.10500000000E+00 0.  1.
</event>
<event>
11    0  0.3422856E-009  0.9118800E+02  0.7816531E-02  0.1126479E+00
         25   -1    0    0    0    0  0.00000000000E+00  0.00000000000E+00  0.99999998245E-14  0.12500000000E+03  0.12500000000E+03 0.  0.
    3000001    1    3    3    0    0  0.39385769425E+01  0.96103783189E+01 -0.12129456482E+02  0.15999858572E+02  0.10000000000E+01 0. -1.
    1000022    2    1    0    0    0  0.88623304079E+01  0.24696488878E+02 -0.55837197548E+02  0.62500000589E+02  0.99999990179E+01 0.  0.
    3000022    2    3    3    0    0  0.49237534655E+01  0.15086110559E+02 -0.43707741066E+02  0.46500142017E+02  0.24999696749E+00 0.  0.
    1000022    2    1    0    0    0 -0.88623304079E+01 -0.24696488878E+02  0.55837197548E+02  0.62499999411E+02  0.99999916599E+01 0.  0.
    3000022    2    5    5    0    0 -0.76425993953E+01 -0.23407986983E+02  0.55067484024E+02  0.60322744308E+02  0.25000789544E+00 0.  0.
        -13    1    4    4    0    0  0.24411590012E+01  0.73375809490E+01 -0.21147528855E+02  0.22517290092E+02  0.10500000000E+00 0.  1.
         13    1    4    4    0    0  0.24825944643E+01  0.77485296101E+01 -0.22560212212E+02  0.23982851924E+02  0.10500000000E+00 0. -1.
    3000001    1    5    5    0    0 -0.12197310127E+01 -0.12885018950E+01  0.76971352413E+00  0.21772551036E+01  0.10000000000E+01 0.  1.
        -13    1    6    6    0    0 -0.35747832571E+01 -0.11165327846E+02  0.26235856781E+02  0.28736298079E+02  0.10500000000E+00 0.  1.
         13    1    6    6    0    0 -0.40678161382E+01 -0.12242659137E+02  0.28831627244E+02  0.31586446229E+02  0.10500000000E+00 0. -1.
</event>
<event>
11    0  0.3422856E-009  0.9118800E+02  0.7816531E-02  0.1126479E+00
         25   -1    0    0    0    0  0.00000000000E+00  0.00000000000E+00  0.99999998245E-14  0.12500000000E+03  0.12500000000E+03 0.  0.
    3000001    1    3    3    0    0 -0.28880937654E+02  0.14962677731E+02  0.35985974226E+02  0.48517838222E+02  0.10000000000E+01 0.  1.
    1000022    2    1    0    0    0 -0.32977366025E+02  0.17548999523E+02  0.49099652911E+02  0.62500000310E+02  0.10000003430E+02 0.  0.
    3000022    2    3    3    0    0 -0.40964283704E+01  0.25863217915E+01  0.13113678684E+02  0.13982162088E+02  0.25000444426E+00 0.  0.
    1000022    2    1    0    0    0  0.32977366025E+02 -0.17548999523E+02 -0.49099652911E+02  0.62499999690E+02  0.99999995549E+01 0.  0.
    3000022    2    5    5    0    0  0.41803218965E+01 -0.49939568316E+00 -0.10994385425E+02  0.11775546496E+02  0.24999442122E+00 0.  0.
        -13    1    4    4    0    0 -0.15040776828E+01  0.10188866333E+01  0.49593802526E+01  0.52826941174E+01  0.10500000000E+00 0. -1.
         13    1    4    4    0    0 -0.25923506876E+01  0.15674351583E+01  0.81542984318E+01  0.86994679709E+01  0.10500000000E+00 0.  1.
    3000001    1    5    5    0    0  0.28797044128E+02 -0.17049603840E+02 -0.38105267486E+02  0.50724453194E+02  0.10000000000E+01 0. -1.
        -13    1    6    6    0    0  0.17063859287E+01 -0.14232947386E+00 -0.44222433701E+01  0.47433397561E+01  0.10500000000E+00 0.  1.
         13    1    6    6    0    0  0.24739359678E+01 -0.35706620930E+00 -0.65721420547E+01  0.70322067402E+01  0.10500000000E+00 0. -1.
</event>
<event>
11    0  0.3422856E-009  0.9118800E+02  0.7816531E-02  0.1126479E+00
         25   -1    0    0    0    0  0.00000000000E+00  0.00000000000E+00  0.99999998245E-14  0.12500000000E+03  0.12500000000E+03 0.  0.
    3000001    1    3    3    0    0  0.65428003676E+01  0.47712812048E+01 -0.61723824106E+01  0.10230917144E+02  0.10000000000E+01 0. -1.
    1000022    2    1    0    0    0  0.47594855588E+02  0.86337658864E+01 -0.38294096982E+02  0.62500000468E+02  0.10000000153E+02 0.  0.
    3000022    2    3    3    0    0  0.41052055221E+02  0.38624846816E+01 -0.32121714571E+02  0.52269083324E+02  0.24999765448E+00 0.  0.
    1000022    2    1    0    0    0 -0.47594855588E+02 -0.86337658864E+01  0.38294096982E+02  0.62499999532E+02  0.99999942981E+01 0.  0.
    3000022    2    5    5    0    0 -0.22659253649E+02 -0.86427956005E+01  0.21584249669E+02  0.32466629377E+02  0.24999526820E+00 0.  0.
        -13    1    4    4    0    0  0.17955748596E+02  0.17244117652E+01 -0.13981293262E+02  0.22822578510E+02  0.10500000000E+00 0. -1.
         13    1    4    4    0    0  0.23096306624E+02  0.21380729165E+01 -0.18140421309E+02  0.29446504814E+02  0.10500000000E+00 0.  1.
    3000001    1    5    5    0    0 -0.24935601940E+02  0.90297140472E-02  0.16709847313E+02  0.30033370155E+02  0.10000000000E+01 0. -1.
        -13    1    6    6    0    0 -0.70312178175E+01 -0.26878960461E+01  0.67644798300E+01  0.10120870591E+02  0.10500000000E+00 0.  1.
         13    1    6    6    0    0 -0.15628035831E+02 -0.59548995544E+01  0.14819769839E+02  0.22345758786E+02  0.10500000000E+00 0. -1.
</event>
<event>
11    0  0.3422856E-009  0.9118800E+02  0.7816531E-02  0.1126479E+00
         25   -1    0    0    0    0  0.00000000000E+00  0.00000000000E+00  0.99999998245E-14  0.12500000000E+03  0.12500000000E+03 0.  0.
    3000001    1    3    3    0    0  0.55673802762E+00  0.10133264060E+02 -0.31936912416E+02  0.33525503313E+02  0.10000000000E+01 0.  1.
    1000022    2    1    0    0    0 -0.54364418330E+01  0.12383247235E+02 -0.60194271071E+02  0.62499999933E+02  0.10000000502E+02 0.  0.
    3000022    2    3    3    0    0 -0.59931798606E+01  0.22499831755E+01 -0.28257358655E+02  0.28974496620E+02  0.25001423288E+00 0.  0.
    1000022    2    1    0    0    0  0.54364418330E+01 -0.12383247235E+02  0.60194271071E+02  0.62500000067E+02  0.10000001336E+02 0.  0.
    3000022    2    5    5    0    0  0.32867037915E+01 -0.78274486479E+01  0.17020833698E+02  0.19022162391E+02  0.25001618952E+00 0.  0.
        -13    1    4    4    0    0 -0.38185283146E+01  0.14950356664E+01 -0.18127736596E+02  0.18586074067E+02  0.10500000000E+00 0. -1.
         13    1    4    4    0    0 -0.21746515460E+01  0.75494750915E+00 -0.10129622059E+02  0.10388422553E+02  0.10500000000E+00 0.  1.
    3000001    1    5    5    0    0  0.21497380415E+01 -0.45557985872E+01  0.43173437373E+02  0.43477837676E+02  0.10000000000E+01 0.  1.
        -13    1    6    6    0    0  0.21950983465E+01 -0.50888552724E+01  0.11073124812E+02  0.12383053857E+02  0.10500000000E+00 0. -1.
         13    1    6    6    0    0  0.10916054450E+01 -0.27385933755E+01  0.59477088861E+01  0.66391085334E+01  0.10500000000E+00 0.  1.
</event>
<event>
11    0  0.3422856E-009  0.9118800E+02  0.7816531E-02  0.1126479E+00
         25   -1    0    0    0    0  0.00000000000E+00  0.00000000000E+00  0.99999998245E-14  0.12500000000E+03  0.12500000000E+03 0.  0.
    3000001    1    3    3    0    0  0.57476024700E+01  0.12645624049E+02 -0.14474041552E+02  0.20085930912E+02  0.10000000000E+01 0. -1.
    1000022    2    1    0    0    0  0.28073463204E+02  0.42032819107E+02 -0.35374747726E+02  0.62500000609E+02  0.10000004056E+02 0.  0.
    3000022    2    3    3    0    0  0.22325860734E+02  0.29387195058E+02 -0.20900706174E+02  0.42414069697E+02  0.24999767708E+00 0.  0.
    1000022    2    1    0    0    0 -0.28073463204E+02 -0.42032819107E+02  0.35374747726E+02  0.62499999391E+02  0.99999964441E+01 0.  0.
    3000022    2    5    5    0    0 -0.13369139906E+02 -0.14532514970E+02  0.18345489562E+02  0.26954542791E+02  0.24999329686E+00 0.  0.
        -13    1    4    4    0    0  0.13644715955E+02  0.17994976405E+02 -0.12856022071E+02  0.25986261328E+02  0.10500000000E+00 0.  1.
         13    1    4    4    0    0  0.86811447797E+01  0.11392218653E+02 -0.80446841029E+01  0.16427808370E+02  0.10500000000E+00 0. -1.
    3000001    1    5    5    0    0 -0.14704323298E+02 -0.27500304136E+02  0.17029258164E+02  0.35545456600E+02  0.10000000000E+01 0. -1.
        -13    1    6    6    0    0 -0.30656522832E+01 -0.33385064522E+01  0.42071526082E+01  0.61850632432E+01  0.10500000000E+00 0. -1.
         13    1    6    6    0    0 -0.10303487623E+02 -0.11194008518E+02  0.14138336953E+02  0.20769479548E+02  0.10500000000E+00 0.  1.
</event>
<event>
11    0  0.3422856E-009  0.9118800E+02  0.7816531E-02  0.1126479E+00
         25   -1    0    0    0    0  0.00000000000E+00  0.00000000000E+00  0.99999998245E-14  0.12500000000E+03  0.12500000000E+03 0.  0.
    3000001    1    3    3    0    0 -0.51181214905E+01  0.33644418914E+02 -0.14116513023E+02  0.36856723017E+02  0.10000000000E+01 0. -1.
    1000022    2    1    0    0    0 -0.22910197230E+01  0.58667475170E+02 -0.18950671030E+02  0.62499995749E+02  0.10000006098E+02 0.  0.
    3000022    2    3    3    0    0  0.28271017675E+01  0.25023056256E+02 -0.48341580070E+01  0.25643272732E+02  0.25000792637E+00 0.  0.
    1000022    2    1    0    0    0  0.22910197230E+01 -0.58667475170E+02  0.18950671030E+02  0.62500004251E+02  0.10000059232E+02 0.  0.
    3000022    2    5    5    0    0  0.35510022095E+01 -0.24933720939E+02  0.37480881506E+01  0.25463910281E+02  0.25001082904E+00 0.  0.
        -13    1    4    4    0    0  0.13795544285E+01  0.12661403941E+02 -0.23989667062E+01  0.12960724765E+02  0.10500000000E+00 0.  1.
         13    1    4    4    0    0  0.14475473390E+01  0.12361652315E+02 -0.24351913007E+01  0.12682547967E+02  0.10500000000E+00 0. -1.
    3000001    1    5    5    0    0 -0.12599824865E+01 -0.33733754231E+02  0.15202582879E+02  0.37036093970E+02  0.10000000000E+01 0. -1.
        -13    1    6    6    0    0  0.87652708204E+00 -0.60808279781E+01  0.89429972528E+00  0.62093128141E+01  0.10500000000E+00 0. -1.
         13    1    6    6    0    0  0.26744751275E+01 -0.18852892961E+02  0.28537884253E+01  0.19254597466E+02  0.10500000000E+00 0.  1.
</event>
<event>
11    0  0.3422856E-009  0.9118800E+02  0.7816531E-02  0.1126479E+00
         25   -1    0    0    0    0  0.00000000000E+00  0.00000000000E+00  0.99999998245E-14  0.12500000000E+03  0.12500000000E+03 0.  0.
    3000001    1    3    3    0    0  0.92624462023E+01  0.32879952444E+02 -0.31275492135E+02  0.46325377394E+02  0.10000000000E+01 0.  1.
    1000022    2    1    0    0    0  0.84224186557E+01  0.47077810409E+02 -0.38974254227E+02  0.62499995005E+02  0.99999757087E+01 0.  0.
    3000022    2    3    3    0    0 -0.84002754659E+00  0.14197857965E+02 -0.76987620919E+01  0.16174617611E+02  0.25000011317E+00 0.  0.
    1000022    2    1    0    0    0 -0.84224186557E+01 -0.47077810409E+02  0.38974254227E+02  0.62500004995E+02  0.10000038146E+02 0.  0.
    3000022    2    5    5    0    0 -0.81202154233E+00 -0.31265692141E+02  0.24495985230E+02  0.39728059503E+02  0.25007087474E+00 0.  0.
        -13    1    4    4    0    0 -0.28265880095E+00  0.58371021038E+01 -0.31478460850E+01  0.66386457161E+01  0.10500000000E+00 0. -1.
         13    1    4    4    0    0 -0.55736874564E+00  0.83607558611E+01 -0.45509160068E+01  0.95359718953E+01  0.10500000000E+00 0.  1.
    3000001    1    5    5    0    0 -0.76103971134E+01 -0.15812118268E+02  0.14478268998E+02  0.22771945492E+02  0.10000000000E+01 0.  1.
        -13    1    6    6    0    0 -0.35040787624E+00 -0.16082726681E+02  0.12609815547E+02  0.20440042962E+02  0.10500000000E+00 0.  1.
         13    1    6    6    0    0 -0.46161366609E+00 -0.15182965460E+02  0.11886169683E+02  0.19288016540E+02  0.10500000000E+00 0. -1.
</event>
<event>
11    0  0.3422856E-009  0.9118800E+02  0.7816531E-02  0.1126479E+00
         25   -1    0    0    0    0  0.00000000000E+00  0.00000000000E+00  0.99999998245E-14  0.12500000000E+03  0.12500000000E+03 0.  0.
    3000001    1    3    3    0    0  0.17349836528E+02  0.29643469572E+02  0.80915469489E+01  0.35301915640E+02  0.10000000000E+01 0. -1.
    1000022    2    1    0    0    0  0.22665484328E+02  0.54968612020E+02  0.16461394341E+02  0.62500000061E+02  0.10000000835E+02 0.  0.
    3000022    2    3    3    0    0  0.53156478005E+01  0.25325142448E+02  0.83698473920E+01  0.27198084421E+02  0.24999850659E+00 0.  0.
    1000022    2    1    0    0    0 -0.22665484328E+02 -0.54968612020E+02 -0.16461394341E+02  0.62499999939E+02  0.10000000071E+02 0.  0.
    3000022    2    5    5    0    0 -0.22838428716E+01 -0.81336035691E+01  0.10000553105E+01  0.85108200133E+01  0.25000278820E+00 0.  0.
        -13    1    4    4    0    0  0.19069826895E+01  0.93502675194E+01  0.31115560536E+01  0.10037773246E+02  0.10500000000E+00 0.  1.
         13    1    4    4    0    0  0.34086651110E+01  0.15974874929E+02  0.52582913384E+01  0.17160311175E+02  0.10500000000E+00 0. -1.
    3000001    1    5    5    0    0 -0.20381641457E+02 -0.46835008451E+02 -0.17461449651E+02  0.53989179926E+02  0.10000000000E+01 0. -1.
        -13    1    6    6    0    0 -0.15940697134E+01 -0.55231278218E+01  0.70941939344E+00  0.57931252414E+01  0.10500000000E+00 0.  1.
         13    1    6    6    0    0 -0.68977315818E+00 -0.26104757473E+01  0.29063591705E+00  0.27176947719E+01  0.10500000000E+00 0. -1.
</event>
<event>
11    0  0.3422856E-009  0.9118800E+02  0.7816531E-02  0.1126479E+00
         25   -1    0    0    0    0  0.00000000000E+00  0.00000000000E+00  0.99999998245E-14  0.12500000000E+03  0.12500000000E+03 0.  0.
    3000001    1    3    3    0    0 -0.27077304022E+02  0.30606660934E+02 -0.35593440906E+02  0.54201855339E+02  0.10000000000E+01 0.  1.
    1000022    2    1    0    0    0 -0.30406189759E+02  0.32071665344E+02 -0.43047898145E+02  0.62499996611E+02  0.99999974052E+01 0.  0.
    3000022    2    3    3    0    0 -0.33288857369E+01  0.14650044098E+01 -0.74544572390E+01  0.82981412723E+01  0.24999535539E+00 0.  0.
    1000022    2    1    0    0    0  0.30406189759E+02 -0.32071665344E+02  0.43047898145E+02  0.62500003389E+02  0.10000039768E+02 0.  0.
    3000022    2    5    5    0    0  0.23919065513E+02 -0.23137431907E+02  0.37383747712E+02  0.50050669744E+02  0.24999705927E+00 0.  0.
        -13    1    4    4    0    0 -0.95285027743E+00  0.39071090407E+00 -0.21891690715E+01  0.24215831362E+01  0.10500000000E+00 0. -1.
         13    1    4    4    0    0 -0.23760354595E+01  0.10742935057E+01 -0.52652881675E+01  0.58765581362E+01  0.10500000000E+00 0.  1.
    3000001    1    5    5    0    0  0.64871242458E+01 -0.89342334368E+01  0.56641504326E+01  0.12449333645E+02  0.10000000000E+01 0. -1.
        -13    1    6    6    0    0  0.76577941808E+01 -0.74130937256E+01  0.12049448599E+02  0.16087137932E+02  0.10500000000E+00 0.  1.
         13    1    6    6    0    0  0.16261271332E+02 -0.15724338182E+02  0.25334299113E+02  0.33963531812E+02  0.10500000000E+00 0. -1.
</event>
<event>
11    0  0.3422856E-009  0.9118800E+02  0.7816531E-02  0.1126479E+00
         25   -1    0    0    0    0  0.00000000000E+00  0.00000000000E+00  0.99999998245E-14  0.12500000000E+03  0.12500000000E+03 0.  0.
    3000001    1    3    3    0    0  0.29454909618E+02  0.13740829571E+01 -0.48561750959E+01  0.29900873585E+02  0.10000000000E+01 0. -1.
    1000022    2    1    0    0    0  0.58369520500E+02  0.89359218667E+01 -0.17871720766E+02  0.62500000090E+02  0.99999992564E+01 0.  0.
    3000022    2    3    3    0    0  0.28914610882E+02  0.75618389095E+01 -0.13015545670E+02  0.32599126505E+02  0.24997933979E+00 0.  0.
    1000022    2    1    0    0    0 -0.58369520500E+02 -0.89359218667E+01  0.17871720766E+02  0.62499999910E+02  0.99999981263E+01 0.  0.
    3000022    2    5    5    0    0 -0.21528705895E+02 -0.79081176166E+01  0.52409135196E+01  0.23527711113E+02  0.25002788222E+00 0.  0.
        -13    1    4    4    0    0  0.11782416026E+02  0.30340072429E+01 -0.52503074166E+01  0.13251689716E+02  0.10500000000E+00 0.  1.
         13    1    4    4    0    0  0.17132194856E+02  0.45278316666E+01 -0.77652382531E+01  0.19347436789E+02  0.10500000000E+00 0. -1.
    3000001    1    5    5    0    0 -0.36840814605E+02 -0.10278042500E+01  0.12630807246E+02  0.38972288797E+02  0.10000000000E+01 0.  1.
        -13    1    6    6    0    0 -0.93783839608E+01 -0.35132684453E+01  0.22725767445E+01  0.10269993717E+02  0.10500000000E+00 0. -1.
         13    1    6    6    0    0 -0.12150321934E+02 -0.43948491713E+01  0.29683367751E+01  0.13257717396E+02  0.10500000000E+00 0.  1.
</event>
<event>
11    0  0.3422856E-009  0.9118800E+02  0.7816531E-02  0.1126479E+00
         25   -1    0    0    0    0  0.00000000000E+00  0.00000000000E+00  0.99999998245E-14  0.12500000000E+03  0.12500000000E+03 0.  0.
    3000001    1    3    3    0    0 -0.24634991617E+02 -0.23322634539E+02 -0.11554069290E+02  0.35851424114E+02  0.10000000000E+01 0. -1.
    1000022    2    1    0    0    0 -0.39012243859E+02 -0.45580286268E+02 -0.14378190745E+02  0.62500000160E+02  0.99999991870E+01 0.  0.
    3000022    2    3    3    0    0 -0.14377252242E+02 -0.22257651729E+02 -0.28241214546E+01  0.26648576046E+02  0.25000159948E+00 0.  0.
    1000022    2    1    0    0    0  0.39012243859E+02  0.45580286268E+02  0.14378190745E+02  0.62499999840E+02  0.99999971826E+01 0.  0.
    3000022    2    5    5    0    0  0.25339990384E+02  0.32697707211E+02  0.14037602853E+02  0.43684916573E+02  0.24994505866E+00 0.  0.
        -13    1    4    4    0    0 -0.63024076824E+01 -0.96608992509E+01 -0.12699816261E+01  0.11605050420E+02  0.10500000000E+00 0. -1.
         13    1    4    4    0    0 -0.80748445593E+01 -0.12596752478E+02 -0.15541398286E+01  0.15043525626E+02  0.10500000000E+00 0.  1.
    3000001    1    5    5    0    0  0.13672253475E+02  0.12882579057E+02  0.34058789147E+00  0.18815083267E+02  0.10000000000E+01 0. -1.
        -13    1    6    6    0    0  0.12527000436E+02  0.16130711780E+02  0.69987325970E+01  0.21589786599E+02  0.10500000000E+00 0.  1.
         13    1    6    6    0    0  0.12812989948E+02  0.16566995432E+02  0.70388702563E+01  0.22095129973E+02  0.10500000000E+00 0. -1.
</event>
<event>
11    0  0.3422856E-009  0.9118800E+02  0.7816531E-02  0.1126479E+00
         25   -1    0    0    0    0  0.00000000000E+00  0.00000000000E+00  0.99999998245E-14  0.12500000000E+03  0.12500000000E+03 0.  0.
    3000001    1    3    3    0    0  0.51009759006E+01 -0.33354311404E+02  0.29570419474E+02  0.44876940094E+02  0.10000000000E+01 0.  1.
    1000022    2    1    0    0    0  0.57388609034E+01 -0.49719194959E+02  0.36073769914E+02  0.62500003845E+02  0.10000036646E+02 0.  0.
    3000022    2    3    3    0    0  0.63788500280E+00 -0.16364883555E+02  0.65033504396E+01  0.17623063750E+02  0.24999589395E+00 0.  0.
    1000022    2    1    0    0    0 -0.57388609034E+01  0.49719194959E+02 -0.36073769914E+02  0.62499996155E+02  0.99999885891E+01 0.  0.
    3000022    2    5    5    0    0  0.42384583820E+00 -0.27380432564E+00 -0.87595997335E+00  0.10413535047E+01  0.24999428687E+00 0.  0.
        -13    1    4    4    0    0  0.37472278359E+00 -0.94674262701E+01  0.36927156163E+01  0.10169550185E+02  0.10500000000E+00 0.  1.
         13    1    4    4    0    0  0.26316221921E+00 -0.68974572851E+01  0.28106348234E+01  0.74535135650E+01  0.10500000000E+00 0. -1.
    3000001    1    5    5    0    0 -0.61627067416E+01  0.49992999285E+02 -0.35197809940E+02  0.61458642651E+02  0.10000000000E+01 0.  1.
        -13    1    6    6    0    0  0.31828868972E+00 -0.17245149172E+00 -0.66095946561E+00  0.76088081996E+00  0.10500000000E+00 0.  1.
         13    1    6    6    0    0  0.10555714848E+00 -0.10135283392E+00 -0.21500050775E+00  0.28047268471E+00  0.10500000000E+00 0. -1.
</event>
<event>
11    0  0.3422856E-009  0.9118800E+02  0.7816531E-02  0.1126479E+00
         25   -1    0    0    0    0  0.00000000000E+00  0.00000000000E+00  0.99999998245E-14  0.12500000000E+03  0.12500000000E+03 0.  0.
    3000001    1    3    3    0    0  0.31612872549E+02  0.41316432545E+02  0.13473796306E+02  0.53749088327E+02  0.10000000000E+01 0.  1.
    1000022    2    1    0    0    0  0.37626559061E+02  0.47445868281E+02  0.11805999778E+02  0.62499999964E+02  0.10000000054E+02 0.  0.
    3000022    2    3    3    0    0  0.60136865125E+01  0.61294357354E+01 -0.16677965278E+01  0.87509116378E+01  0.25000265724E+00 0.  0.
    1000022    2    1    0    0    0 -0.37626559061E+02 -0.47445868281E+02 -0.11805999778E+02  0.62500000036E+02  0.10000000500E+02 0.  0.
    3000022    2    5    5    0    0 -0.31369039801E+02 -0.36910693985E+02 -0.12981537869E+02  0.50149763821E+02  0.24999487899E+00 0.  0.
        -13    1    4    4    0    0  0.24943982961E+01  0.25530812229E+01 -0.75860886832E+00  0.36505833788E+01  0.10500000000E+00 0. -1.
         13    1    4    4    0    0  0.35192882165E+01  0.35763545125E+01 -0.90918765949E+00  0.51003282590E+01  0.10500000000E+00 0.  1.
    3000001    1    5    5    0    0 -0.62575192606E+01 -0.10535174296E+02  0.11755380914E+01  0.12350236214E+02  0.10000000000E+01 0. -1.
        -13    1    6    6    0    0 -0.16230493425E+02 -0.19202159855E+02 -0.67407408264E+01  0.26030760108E+02  0.10500000000E+00 0.  1.
         13    1    6    6    0    0 -0.15138546376E+02 -0.17708534130E+02 -0.62407970427E+01  0.24119003713E+02  0.10500000000E+00 0. -1.
</event>
<event>
11    0  0.3422856E-009  0.9118800E+02  0.7816531E-02  0.1126479E+00
         25   -1    0    0    0    0  0.00000000000E+00  0.00000000000E+00  0.99999998245E-14  0.12500000000E+03  0.12500000000E+03 0.  0.
    3000001    1    3    3    0    0  0.19429674370E+01  0.19823226193E+02 -0.41627133305E+02  0.46157920733E+02  0.10000000000E+01 0. -1.
    1000022    2    1    0    0    0 -0.22529902485E+00  0.31020383442E+02 -0.53328557116E+02  0.62499999155E+02  0.99999970874E+01 0.  0.
    3000022    2    3    3    0    0 -0.21682664619E+01  0.11197157248E+02 -0.11701423811E+02  0.16342078422E+02  0.24999611017E+00 0.  0.
    1000022    2    1    0    0    0  0.22529902485E+00 -0.31020383442E+02  0.53328557116E+02  0.62500000845E+02  0.10000007648E+02 0.  0.
    3000022    2    5    5    0    0  0.29551437177E+01 -0.24036718744E+02  0.34000830295E+02  0.41744648554E+02  0.24999945148E+00 0.  0.
        -13    1    4    4    0    0 -0.82057296341E+00  0.39604349281E+01 -0.41179250257E+01  0.57729296137E+01  0.10500000000E+00 0. -1.
         13    1    4    4    0    0 -0.13476934985E+01  0.72367223203E+01 -0.75834987858E+01  0.10569148809E+02  0.10500000000E+00 0.  1.
    3000001    1    5    5    0    0 -0.27298446928E+01 -0.69836646975E+01  0.19327726821E+02  0.20755352291E+02  0.10000000000E+01 0.  1.
        -13    1    6    6    0    0  0.21887273156E+01 -0.17711485719E+02  0.25108254827E+02  0.30804589579E+02  0.10500000000E+00 0. -1.
         13    1    6    6    0    0  0.76641640202E+00 -0.63252330250E+01  0.88925754682E+01  0.10940058975E+02  0.10500000000E+00 0.  1.
</event>
<event>
11    0  0.3422856E-009  0.9118800E+02  0.7816531E-02  0.1126479E+00
         25   -1    0    0    0    0  0.00000000000E+00  0.00000000000E+00  0.99999998245E-14  0.12500000000E+03  0.12500000000E+03 0.  0.
    3000001    1    3    3    0    0  0.12757907465E+02  0.95475308877E+01 -0.33022088676E+02  0.36679393253E+02  0.10000000000E+01 0. -1.
    1000022    2    1    0    0    0  0.26556714100E+02  0.96464858716E+01 -0.54844655197E+02  0.62500000618E+02  0.10000006009E+02 0.  0.
    3000022    2    3    3    0    0  0.13798806635E+02  0.98954983958E-01 -0.21822566521E+02  0.25820607365E+02  0.24999696405E+00 0.  0.
    1000022    2    1    0    0    0 -0.26556714100E+02 -0.96464858716E+01  0.54844655197E+02  0.62499999382E+02  0.99999982813E+01 0.  0.
    3000022    2    5    5    0    0 -0.24571871334E+02 -0.73486669776E+01  0.41569235270E+02  0.48845097452E+02  0.24991397662E+00 0.  0.
        -13    1    4    4    0    0  0.94814850433E+01  0.10901510535E+00 -0.14943417460E+02  0.17698225711E+02  0.10500000000E+00 0.  1.
         13    1    4    4    0    0  0.43173215920E+01 -0.10060121390E-01 -0.68791490607E+01  0.81223816540E+01  0.10500000000E+00 0. -1.
    3000001    1    5    5    0    0 -0.19848427662E+01 -0.22978188941E+01  0.13275419927E+02  0.13654901930E+02  0.10000000000E+01 0.  1.
        -13    1    6    6    0    0 -0.18700667182E+02 -0.55739029309E+01  0.31620023687E+02  0.37156698856E+02  0.10500000000E+00 0. -1.
         13    1    6    6    0    0 -0.58712041512E+01 -0.17747640466E+01  0.99492115828E+01  0.11688398595E+02  0.10500000000E+00 0.  1.
</event>
<event>
11    0  0.3422856E-009  0.9118800E+02  0.7816531E-02  0.1126479E+00
         25   -1    0    0    0    0  0.00000000000E+00  0.00000000000E+00  0.99999998245E-14  0.12500000000E+03  0.12500000000E+03 0.  0.
    3000001    1    3    3    0    0 -0.51499961299E+01  0.58174191100E+01 -0.22756851375E+01  0.81574241084E+01  0.10000000000E+01 0. -1.
    1000022    2    1    0    0    0 -0.28585366530E+02  0.54617903386E+02  0.24518016098E+01  0.62499999314E+02  0.10000001659E+02 0.  0.
    3000022    2    3    3    0    0 -0.23435370400E+02  0.48800484276E+02  0.47274867473E+01  0.54342575206E+02  0.24999534133E+00 0.  0.
    1000022    2    1    0    0    0  0.28585366530E+02 -0.54617903386E+02 -0.24518016098E+01  0.62500000686E+02  0.10000010233E+02 0.  0.
    3000022    2    5    5    0    0  0.10467734841E+02 -0.28942066274E+02 -0.39132457750E+01  0.31025677683E+02  0.25002058627E+00 0.  0.
        -13    1    4    4    0    0 -0.12437060608E+02  0.26053586384E+02  0.25184158428E+01  0.28979704681E+02  0.10500000000E+00 0. -1.
         13    1    4    4    0    0 -0.10998309792E+02  0.22746897892E+02  0.22090709045E+01  0.25362870524E+02  0.10500000000E+00 0.  1.
    3000001    1    5    5    0    0  0.18117631690E+02 -0.25675837112E+02  0.14614441652E+01  0.31474323003E+02  0.10000000000E+01 0.  1.
        -13    1    6    6    0    0  0.40591860395E+01 -0.11182369199E+02 -0.14521047135E+01  0.11985074272E+02  0.10500000000E+00 0.  1.
         13    1    6    6    0    0  0.64085488011E+01 -0.17759697075E+02 -0.24611410615E+01  0.19040603411E+02  0.10500000000E+00 0. -1.
</event>
<event>
11    0  0.3422856E-009  0.9118800E+02  0.7816531E-02  0.1126479E+00
         25   -1    0    0    0    0  0.00000000000E+00  0.00000000000E+00  0.99999998245E-14  0.12500000000E+03  0.12500000000E+03 0.  0.
    3000001    1    3    3    0    0  0.37884707081E+02 -0.53328405759E+01 -0.81258462083E+01  0.39124411764E+02  0.10000000000E+01 0. -1.
    1000022    2    1    0    0    0  0.60800949199E+02 -0.13181736077E+01 -0.10380601196E+02  0.62499999952E+02  0.10000005384E+02 0.  0.
    3000022    2    3    3    0    0  0.22916242118E+02  0.40146669682E+01 -0.22547549873E+01  0.23375588189E+02  0.24999890234E+00 0.  0.
    1000022    2    1    0    0    0 -0.60800949199E+02  0.13181736077E+01  0.10380601196E+02  0.62500000048E+02  0.10000005982E+02 0.  0.
    3000022    2    5    5    0    0 -0.44304502230E+02  0.49355315895E+01  0.93597826291E+01  0.45551250480E+02  0.24999901063E+00 0.  0.
        -13    1    4    4    0    0  0.12189282762E+02  0.21855108724E+01 -0.12461961698E+01  0.12446650229E+02  0.10500000000E+00 0. -1.
         13    1    4    4    0    0  0.10726959356E+02  0.18291560958E+01 -0.10085588175E+01  0.10928937960E+02  0.10500000000E+00 0.  1.
    3000001    1    5    5    0    0 -0.16496446969E+02 -0.36173579818E+01  0.10208185665E+01  0.16948749568E+02  0.10000000000E+01 0. -1.
        -13    1    6    6    0    0 -0.13654272281E+02  0.15265580853E+01  0.29334870429E+01  0.14049409324E+02  0.10500000000E+00 0.  1.
         13    1    6    6    0    0 -0.30650229948E+02  0.34089735042E+01  0.64262955861E+01  0.31501841156E+02  0.10500000000E+00 0. -1.
</event>
<event>
11    0  0.3422856E-009  0.9118800E+02  0.7816531E-02  0.1126479E+00
         25   -1    0    0    0    0  0.00000000000E+00  0.00000000000E+00  0.99999998245E-14  0.12500000000E+03  0.12500000000E+03 0.  0.
    3000001    1    3    3    0    0 -0.10428655634E+02  0.49593233772E+02 -0.27691103095E+02  0.57758487557E+02  0.10000000000E+01 0.  1.
    1000022    2    1    0    0    0 -0.13175809993E+02  0.51758247859E+02 -0.30882546921E+02  0.62500000293E+02  0.10000007094E+02 0.  0.
    3000022    2    3    3    0    0 -0.27471543591E+01  0.21650140873E+01 -0.31914438265E+01  0.47415127361E+01  0.24997251412E+00 0.  0.
    1000022    2    1    0    0    0  0.13175809993E+02 -0.51758247859E+02  0.30882546921E+02  0.62499999707E+02  0.10000003430E+02 0.  0.
    3000022    2    5    5    0    0  0.13229403140E+02 -0.33114810193E+02  0.20720193034E+02  0.41243140184E+02  0.24990264487E+00 0.  0.
        -13    1    4    4    0    0 -0.20858234334E+01  0.16622777359E+01 -0.24429521416E+01  0.36184066705E+01  0.10500000000E+00 0. -1.
         13    1    4    4    0    0 -0.66133092572E+00  0.50273635144E+00 -0.74849168487E+00  0.11231060656E+01  0.10500000000E+00 0.  1.
    3000001    1    5    5    0    0 -0.53593146955E-01 -0.18643437666E+02  0.10162353887E+02  0.21256859523E+02  0.10000000000E+01 0.  1.
        -13    1    6    6    0    0  0.81541565119E+01 -0.20247344496E+02  0.12695739708E+02  0.25251496179E+02  0.10500000000E+00 0.  1.
         13    1    6    6    0    0  0.50752466284E+01 -0.12867465697E+02  0.80244533262E+01  0.15991644005E+02  0.10500000000E+00 0. -1.
</event>
<event>
11    0  0.3422856E-009  0.9118800E+02  0.7816531E-02  0.1126479E+00
         25   -1    0    0    0    0  0.00000000000E+00  0.00000000000E+00  0.99999998245E-14  0.12500000000E+03  0.12500000000E+03 0.  0.
    3000001    1    3    3    0    0 -0.12740859197E+02  0.75641239840E+01  0.17802278249E+02  0.23183325378E+02  0.10000000000E+01 0.  1.
    1000022    2    1    0    0    0 -0.41644543632E+02  0.24596637564E+02  0.38301274177E+02  0.62499999035E+02  0.99999840969E+01 0.  0.
    3000022    2    3    3    0    0 -0.28903684435E+02  0.17032513580E+02  0.20498995928E+02  0.39316673657E+02  0.25000116353E+00 0.  0.
    1000022    2    1    0    0    0  0.41644543632E+02 -0.24596637564E+02 -0.38301274177E+02  0.62500000965E+02  0.99999961602E+01 0.  0.
    3000022    2    5    5    0    0  0.28684346226E+02 -0.20822092936E+02 -0.31165758447E+02  0.47198710539E+02  0.25000865889E+00 0.  0.
        -13    1    4    4    0    0 -0.10392532448E+02  0.61826310741E+01  0.73547793443E+01  0.14153920371E+02  0.10500000000E+00 0. -1.
         13    1    4    4    0    0 -0.18511151988E+02  0.10849882506E+02  0.13144216584E+02  0.25162753286E+02  0.10500000000E+00 0.  1.
    3000001    1    5    5    0    0  0.12960197406E+02 -0.37745446281E+01 -0.71355157305E+01  0.15301290426E+02  0.10000000000E+01 0.  1.
        -13    1    6    6    0    0  0.10720292206E+02 -0.77746478596E+01 -0.11723665080E+02  0.17686864116E+02  0.10500000000E+00 0. -1.
         13    1    6    6    0    0  0.17964054020E+02 -0.13047445077E+02 -0.19442093366E+02  0.29511846424E+02  0.10500000000E+00 0.  1.
</event>
<event>
11    0  0.3422856E-009  0.9118800E+02  0.7816531E-02  0.1126479E+00
         25   -1    0    0    0    0  0.00000000000E+00  0.00000000000E+00  0.99999998245E-14  0.12500000000E+03  0.12500000000E+03 0.  0.
    3000001    1    3    3    0    0  0.39177506246E+02  0.28082424617E+02 -0.13465208102E+02  0.50058080239E+02  0.10000000000E+01 0. -1.
    1000022    2    1    0    0    0  0.47532519117E+02  0.33153228694E+02 -0.21160639223E+02  0.62500003476E+02  0.10000041788E+02 0.  0.
    3000022    2    3    3    0    0  0.83550128711E+01  0.50708040763E+01 -0.76954311209E+01  0.12441923237E+02  0.24999926235E+00 0.  0.
    1000022    2    1    0    0    0 -0.47532519117E+02 -0.33153228694E+02  0.21160639223E+02  0.62499996524E+02  0.99999983399E+01 0.  0.
    3000022    2    5    5    0    0 -0.23884118212E+02 -0.21956441454E+02  0.14137561439E+02  0.35390246776E+02  0.24999869298E+00 0.  0.
        -13    1    4    4    0    0  0.39055040572E+01  0.22917146340E+01 -0.35658926430E+01  0.57646798043E+01  0.10500000000E+00 0.  1.
         13    1    4    4    0    0  0.44495088138E+01  0.27790894423E+01 -0.41295384779E+01  0.66772434322E+01  0.10500000000E+00 0. -1.
    3000001    1    5    5    0    0 -0.23648400905E+02 -0.11196787240E+02  0.70230777837E+01  0.27109749748E+02  0.10000000000E+01 0.  1.
        -13    1    6    6    0    0 -0.10617935761E+02 -0.96709338267E+01  0.62572614748E+01  0.15666265256E+02  0.10500000000E+00 0. -1.
         13    1    6    6    0    0 -0.13266182451E+02 -0.12285507627E+02  0.78802999641E+01  0.19723981520E+02  0.10500000000E+00 0.  1.
</event>
<event>
11    0  0.3422856E-009  0.9118800E+02  0.7816531E-02  0.1126479E+00
         25   -1    0    0    0    0  0.00000000000E+00  0.00000000000E+00  0.99999998245E-14  0.12500000000E+03  0.12500000000E+03 0.  0.
    3000001    1    3    3    0    0 -0.53194367885E+02  0.58603496733E+01 -0.41649202318E+01  0.53687345190E+02  0.10000000000E+01 0. -1.
    1000022    2    1    0    0    0 -0.60496978654E+02  0.10168429962E+02 -0.65550482905E+01  0.62500000349E+02  0.99999995698E+01 0.  0.
    3000022    2    3    3    0    0 -0.73026107691E+01  0.43080802891E+01 -0.23901280587E+01  0.88126551596E+01  0.24999800584E+00 0.  0.
    1000022    2    1    0    0    0  0.60496978654E+02 -0.10168429962E+02  0.65550482905E+01  0.62499999651E+02  0.99999952062E+01 0.  0.
    3000022    2    5    5    0    0  0.46460994258E+02 -0.11249774941E+02  0.73433416486E+01  0.48364952026E+02  0.24998860720E+00 0.  0.
        -13    1    4    4    0    0 -0.28527705756E+01  0.17169226200E+01 -0.99593250048E+00  0.34769282112E+01  0.10500000000E+00 0. -1.
         13    1    4    4    0    0 -0.44498401934E+01  0.25911576691E+01 -0.13941955582E+01  0.53357269484E+01  0.10500000000E+00 0.  1.
    3000001    1    5    5    0    0  0.14035984396E+02  0.10813449784E+01 -0.78829335809E+00  0.14135047625E+02  0.10000000000E+01 0.  1.
        -13    1    6    6    0    0  0.11267927900E+02 -0.27071860929E+01  0.17747383527E+01  0.11724153570E+02  0.10500000000E+00 0. -1.
         13    1    6    6    0    0  0.35193066357E+02 -0.85425888479E+01  0.55686032959E+01  0.36640798457E+02  0.10500000000E+00 0.  1.
</event>
<event>
11    0  0.3422856E-009  0.9118800E+02  0.7816531E-02  0.1126479E+00
         25   -1    0    0    0    0  0.00000000000E+00  0.00000000000E+00  0.99999998245E-14  0.12500000000E+03  0.12500000000E+03 0.  0.
    3000001    1    3    3    0    0  0.29696889385E+02  0.26716170877E+02 -0.75875893583E+01  0.40672233006E+02  0.10000000000E+01 0.  1.
    1000022    2    1    0    0    0  0.40510034478E+02  0.43657897094E+02 -0.16098917873E+02  0.62499999834E+02  0.99999975260E+01 0.  0.
    3000022    2    3    3    0    0  0.10813145093E+02  0.16941726218E+02 -0.85113285146E+01  0.21827766828E+02  0.24999516163E+00 0.  0.
    1000022    2    1    0    0    0 -0.40510034478E+02 -0.43657897094E+02  0.16098917873E+02  0.62500000166E+02  0.99999996000E+01 0.  0.
    3000022    2    5    5    0    0 -0.66483100859E+01 -0.13417747172E+02  0.43136199483E+01  0.15585436401E+02  0.25008914166E+00 0.  0.
        -13    1    4    4    0    0  0.78243456892E+01  0.12209940336E+02 -0.61095538791E+01  0.15736603893E+02  0.10500000000E+00 0. -1.
         13    1    4    4    0    0  0.29887994036E+01  0.47317858812E+01 -0.24017746355E+01  0.60911629350E+01  0.10500000000E+00 0.  1.
    3000001    1    5    5    0    0 -0.33861724392E+02 -0.30240149923E+02  0.11785297925E+02  0.46914563765E+02  0.10000000000E+01 0.  1.
        -13    1    6    6    0    0 -0.17992112434E+01 -0.36592221533E+01  0.12111558963E+01  0.42549960600E+01  0.10500000000E+00 0.  1.
         13    1    6    6    0    0 -0.48490988425E+01 -0.97585250184E+01  0.31024640520E+01  0.11330440341E+02  0.10500000000E+00 0. -1.
</event>
<event>
11    0  0.3422856E-009  0.9118800E+02  0.7816531E-02  0.1126479E+00
         25   -1    0    0    0    0  0.00000000000E+00  0.00000000000E+00  0.99999998245E-14  0.12500000000E+03  0.12500000000E+03 0.  0.
    3000001    1    3    3    0    0  0.30813716368E+02 -0.47533339083E+02  0.16844632549E+02  0.59107064608E+02  0.10000000000E+01 0. -1.
    1000022    2    1    0    0    0  0.33715288477E+02 -0.49099811075E+02  0.16085336348E+02  0.62499997236E+02  0.99999742147E+01 0.  0.
    3000022    2    3    3    0    0  0.29015721090E+01 -0.15664719919E+01 -0.75929620133E+00  0.33929326278E+01  0.25001178019E+00 0.  0.
    1000022    2    1    0    0    0 -0.33715288477E+02  0.49099811075E+02 -0.16085336348E+02  0.62500002764E+02  0.10000008770E+02 0.  0.
    3000022    2    5    5    0    0 -0.15303796562E+02  0.21100878658E+02 -0.20253160888E+01  0.26146083846E+02  0.25005172674E+00 0.  0.
        -13    1    4    4    0    0  0.74613715417E+00 -0.37424353853E+00 -0.20691273335E+00  0.86638141612E+00  0.10500000000E+00 0.  1.
         13    1    4    4    0    0  0.21554349548E+01 -0.11922284534E+01 -0.55238346798E+00  0.25265512116E+01  0.10500000000E+00 0.  1.
    3000001    1    5    5    0    0 -0.18411491915E+02  0.27998932417E+02 -0.14060020259E+02  0.36353918919E+02  0.10000000000E+01 0.  1.
        -13    1    6    6    0    0 -0.83381739697E+01  0.11587379408E+02 -0.10686987379E+01  0.14315922907E+02  0.10500000000E+00 0. -1.
         13    1    6    6    0    0 -0.69656225922E+01  0.95134992500E+01 -0.95661735087E+00  0.11830160939E+02  0.10500000000E+00 0.  1.
</event>
<event>
11    0  0.3422856E-009  0.9118800E+02  0.7816531E-02  0.1126479E+00
         25   -1    0    0    0    0  0.00000000000E+00  0.00000000000E+00  0.99999998245E-14  0.12500000000E+03  0.12500000000E+03 0.  0.
    3000001    1    3    3    0    0 -0.24313655607E+02  0.17153478247E+02  0.41612012571E+01  0.30061790713E+02  0.10000000000E+01 0. -1.
    1000022    2    1    0    0    0 -0.46416907968E+02  0.40635867939E+02  0.66856354832E+00  0.62499999883E+02  0.99999949865E+01 0.  0.
    3000022    2    3    3    0    0 -0.22103252361E+02  0.23482389691E+02 -0.34926377088E+01  0.32438209170E+02  0.25001092932E+00 0.  0.
    1000022    2    1    0    0    0  0.46416907968E+02 -0.40635867939E+02 -0.66856354832E+00  0.62500000117E+02  0.99999964490E+01 0.  0.
    3000022    2    5    5    0    0  0.19365998293E+02 -0.20484904072E+02 -0.44588844495E+01  0.28541502042E+02  0.25000707622E+00 0.  0.
        -13    1    4    4    0    0 -0.11844395579E+02  0.12584014771E+02 -0.19392563014E+01  0.17390194777E+02  0.10500000000E+00 0. -1.
         13    1    4    4    0    0 -0.10258856783E+02  0.10898374920E+02 -0.15533814074E+01  0.15048014393E+02  0.10500000000E+00 0.  1.
    3000001    1    5    5    0    0  0.27050909675E+02 -0.20150963866E+02  0.37903209012E+01  0.33958498075E+02  0.10000000000E+01 0. -1.
        -13    1    6    6    0    0  0.64022645290E+01 -0.67821480846E+01 -0.15285262771E+01  0.94516634156E+01  0.10500000000E+00 0. -1.
         13    1    6    6    0    0  0.12963733764E+02 -0.13702755988E+02 -0.29303581724E+01  0.19089838626E+02  0.10500000000E+00 0.  1.
</event>
<event>
11    0  0.3422856E-009  0.9118800E+02  0.7816531E-02  0.1126479E+00
         25   -1    0    0    0    0  0.00000000000E+00  0.00000000000E+00  0.99999998245E-14  0.12500000000E+03  0.12500000000E+03 0.  0.
    3000001    1    3    3    0    0 -0.18503093905E+02  0.22636157578E+02  0.31005323916E+01  0.29417229902E+02  0.10000000000E+01 0.  1.
    1000022    2    1    0    0    0 -0.40784567569E+02  0.46150125302E+02 -0.36103893113E+01  0.62500000561E+02  0.10000007097E+02 0.  0.
    3000022    2    3    3    0    0 -0.22281473664E+02  0.23513967724E+02 -0.67109217029E+01  0.33082770659E+02  0.24999528012E+00 0.  0.
    1000022    2    1    0    0    0  0.40784567569E+02 -0.46150125302E+02  0.36103893113E+01  0.62499999439E+02  0.10000000084E+02 0.  0.
    3000022    2    5    5    0    0  0.31453937005E+02 -0.28826734687E+02  0.33361848217E+01  0.42796301379E+02  0.24999347337E+00 0.  0.
        -13    1    4    4    0    0 -0.16743036867E+02  0.17631434429E+02 -0.50382153490E+01  0.24831258575E+02  0.10500000000E+00 0.  1.
         13    1    4    4    0    0 -0.55384367971E+01  0.58825332950E+01 -0.16727063539E+01  0.82515120838E+01  0.10500000000E+00 0. -1.
    3000001    1    5    5    0    0  0.93306305644E+01 -0.17323390615E+02  0.27420448963E+00  0.19703698060E+02  0.10000000000E+01 0. -1.
        -13    1    6    6    0    0  0.10219674027E+02 -0.94277037034E+01  0.10618554700E+01  0.13944959533E+02  0.10500000000E+00 0. -1.
         13    1    6    6    0    0  0.21234262978E+02 -0.19399030983E+02  0.22743293516E+01  0.28851341846E+02  0.10500000000E+00 0.  1.
</event>
<event>
11    0  0.3422856E-009  0.9118800E+02  0.7816531E-02  0.1126479E+00
         25   -1    0    0    0    0  0.00000000000E+00  0.00000000000E+00  0.99999998245E-14  0.12500000000E+03  0.12500000000E+03 0.  0.
    3000001    1    3    3    0    0  0.11619565249E+01  0.52330612305E+00 -0.15249318232E+01  0.22247267988E+01  0.10000000000E+01 0.  1.
    1000022    2    1    0    0    0  0.85164842968E+01  0.50619657208E+02 -0.34225284285E+02  0.62500003821E+02  0.10000009629E+02 0.  0.
    3000022    2    3    3    0    0  0.73545277719E+01  0.50096351085E+02 -0.32700352462E+02  0.60275277022E+02  0.24999635595E+00 0.  0.
    1000022    2    1    0    0    0 -0.85164842968E+01 -0.50619657208E+02  0.34225284285E+02  0.62499996179E+02  0.99999618698E+01 0.  0.
    3000022    2    5    5    0    0 -0.19792237520E+01 -0.26554874198E+02  0.22779791274E+02  0.35043687851E+02  0.24999478683E+00 0.  0.
        -13    1    4    4    0    0  0.30601328056E+01  0.20886757402E+02 -0.13709804342E+02  0.25171229761E+02  0.10500000000E+00 0. -1.
         13    1    4    4    0    0  0.42943949664E+01  0.29209593682E+02 -0.18990548120E+02  0.35104047261E+02  0.10500000000E+00 0.  1.
    3000001    1    5    5    0    0 -0.65372605448E+01 -0.24064783010E+02  0.11445493011E+02  0.27456308328E+02  0.10000000000E+01 0.  1.
        -13    1    6    6    0    0 -0.84970143238E+00 -0.11896120218E+02  0.10129773250E+02  0.15648098922E+02  0.10500000000E+00 0. -1.
         13    1    6    6    0    0 -0.11295223197E+01 -0.14658753980E+02  0.12650018024E+02  0.19395588930E+02  0.10500000000E+00 0.  1.
</event>
<event>
11    0  0.3422856E-009  0.9118800E+02  0.7816531E-02  0.1126479E+00
         25   -1    0    0    0    0  0.00000000000E+00  0.00000000000E+00  0.99999998245E-14  0.12500000000E+03  0.12500000000E+03 0.  0.
    3000001    1    3    3    0    0  0.80484356962E+01 -0.27699223075E+01 -0.57011385114E+01  0.10293336052E+02  0.10000000000E+01 0. -1.
    1000022    2    1    0    0    0  0.46322023625E+02  0.40215592823E+01 -0.40550550794E+02  0.62500000113E+02  0.10000001633E+02 0.  0.
    3000022    2    3    3    0    0  0.38273587928E+02  0.67914815897E+01 -0.34849412282E+02  0.52206664061E+02  0.24996169547E+00 0.  0.
    1000022    2    1    0    0    0 -0.46322023625E+02 -0.40215592823E+01  0.40550550794E+02  0.62499999887E+02  0.10000000226E+02 0.  0.
    3000022    2    5    5    0    0 -0.25262015722E+01 -0.44679821338E+00 -0.17012443202E+00  0.25831713934E+01  0.25001819604E+00 0.  0.
        -13    1    4    4    0    0  0.22610062946E+02  0.39562428277E+01 -0.20534567990E+02  0.30798479041E+02  0.10500000000E+00 0.  1.
         13    1    4    4    0    0  0.15663524983E+02  0.28352387620E+01 -0.14314844293E+02  0.21408185020E+02  0.10500000000E+00 0. -1.
    3000001    1    5    5    0    0 -0.43795822052E+02 -0.35747610689E+01  0.40720675226E+02  0.59916828494E+02  0.10000000000E+01 0. -1.
        -13    1    6    6    0    0 -0.18383386219E+01 -0.28702527851E+00 -0.11553016654E+00  0.18671487939E+01  0.10500000000E+00 0. -1.
         13    1    6    6    0    0 -0.68786295034E+00 -0.15977293487E+00 -0.54594265474E-01  0.71602259950E+00  0.10500000000E+00 0.  1.
</event>
<event>
11    0  0.3422856E-009  0.9118800E+02  0.7816531E-02  0.1126479E+00
         25   -1    0    0    0    0  0.00000000000E+00  0.00000000000E+00  0.99999998245E-14  0.12500000000E+03  0.12500000000E+03 0.  0.
    3000001    1    3    3    0    0  0.39319825972E+02 -0.90740205470E+01 -0.35651479009E+02  0.53855496645E+02  0.10000000000E+01 0.  1.
    1000022    2    1    0    0    0  0.44281282068E+02 -0.14176631126E+02 -0.40551711352E+02  0.62500000974E+02  0.10000000821E+02 0.  0.
    3000022    2    3    3    0    0  0.49614560963E+01 -0.51026105792E+01 -0.49002323424E+01  0.86445043282E+01  0.24999350253E+00 0.  0.
    1000022    2    1    0    0    0 -0.44281282068E+02  0.14176631126E+02  0.40551711352E+02  0.62499999026E+02  0.99999886521E+01 0.  0.
    3000022    2    5    5    0    0 -0.22869411532E+01  0.14450943349E+01  0.61782593160E+01  0.67492061817E+01  0.24999686367E+00 0.  0.
        -13    1    4    4    0    0  0.29658353639E+01 -0.29736767020E+01 -0.29337602416E+01  0.51241493625E+01  0.10500000000E+00 0. -1.
         13    1    4    4    0    0  0.19956207324E+01 -0.21289338772E+01 -0.19664721008E+01  0.35203549656E+01  0.10500000000E+00 0.  1.
    3000001    1    5    5    0    0 -0.41994340915E+02  0.12731536791E+02  0.34373452036E+02  0.55750792845E+02  0.10000000000E+01 0.  1.
        -13    1    6    6    0    0 -0.12630410528E+01  0.76651412974E+00  0.35234417493E+01  0.38221045737E+01  0.10500000000E+00 0. -1.
         13    1    6    6    0    0 -0.10239001004E+01  0.67858020517E+00  0.26548175667E+01  0.29271016079E+01  0.10500000000E+00 0.  1.
</event>
<event>
11    0  0.3422856E-009  0.9118800E+02  0.7816531E-02  0.1126479E+00
         25   -1    0    0    0    0  0.00000000000E+00  0.00000000000E+00  0.99999998245E-14  0.12500000000E+03  0.12500000000E+03 0.  0.
    3000001    1    3    3    0    0 -0.47685780105E+01 -0.10411587939E+02  0.34734463458E+02  0.36587203383E+02  0.10000000000E+01 0. -1.
    1000022    2    1    0    0    0 -0.15226006023E+02 -0.13522361892E+02  0.58237140013E+02  0.62499999760E+02  0.99999981259E+01 0.  0.
    3000022    2    3    3    0    0 -0.10457428012E+02 -0.31107739533E+01  0.23502676555E+02  0.25912796377E+02  0.24999121538E+00 0.  0.
    1000022    2    1    0    0    0  0.15226006023E+02  0.13522361892E+02 -0.58237140013E+02  0.62500000240E+02  0.10000001130E+02 0.  0.
    3000022    2    5    5    0    0  0.12356009074E+02  0.14321458211E+02 -0.54050871361E+02  0.57265472311E+02  0.24999726077E+00 0.  0.
        -13    1    4    4    0    0 -0.44634549465E+01 -0.13945730604E+01  0.10104988698E+02  0.11135038647E+02  0.10500000000E+00 0. -1.
         13    1    4    4    0    0 -0.59939730657E+01 -0.17162008929E+01  0.13397687857E+02  0.14777757730E+02  0.10500000000E+00 0.  1.
    3000001    1    5    5    0    0  0.28699969485E+01 -0.79909631917E+00 -0.41862686520E+01  0.52345279289E+01  0.10000000000E+01 0. -1.
        -13    1    6    6    0    0  0.45381823582E+01  0.52186828343E+01 -0.19922318547E+02  0.21088848971E+02  0.10500000000E+00 0. -1.
         13    1    6    6    0    0  0.78178267160E+01  0.91027753768E+01 -0.34128552814E+02  0.36176623340E+02  0.10500000000E+00 0.  1.
</event>
<event>
11    0  0.3422856E-009  0.9118800E+02  0.7816531E-02  0.1126479E+00
         25   -1    0    0    0    0  0.00000000000E+00  0.00000000000E+00  0.99999998245E-14  0.12500000000E+03  0.12500000000E+03 0.  0.
    3000001    1    3    3    0    0 -0.28572084747E+01  0.10275576360E+02  0.22495934723E+02  0.24916223407E+02  0.10000000000E+01 0. -1.
    1000022    2    1    0    0    0  0.45508855850E+01  0.28298182267E+02  0.54632886030E+02  0.62500000740E+02  0.10000008861E+02 0.  0.
    3000022    2    3    3    0    0  0.74080940597E+01  0.18022605907E+02  0.32136951307E+02  0.37583777332E+02  0.24999597378E+00 0.  0.
    1000022    2    1    0    0    0 -0.45508855850E+01 -0.28298182267E+02 -0.54632886030E+02  0.62499999260E+02  0.99999996158E+01 0.  0.
    3000022    2    5    5    0    0 -0.67433147109E+01 -0.25993114632E+02 -0.50433049872E+02  0.57137284833E+02  0.24999421852E+00 0.  0.
        -13    1    4    4    0    0  0.17270815844E+01  0.41850838764E+01  0.74507315962E+01  0.87190689968E+01  0.10500000000E+00 0. -1.
         13    1    4    4    0    0  0.56810124753E+01  0.13837522030E+02  0.24686219711E+02  0.28864708335E+02  0.10500000000E+00 0.  1.
    3000001    1    5    5    0    0  0.21924291259E+01 -0.23050676346E+01 -0.41998361580E+01  0.53627144271E+01  0.10000000000E+01 0.  1.
        -13    1    6    6    0    0 -0.25757140128E+01 -0.97066208333E+01 -0.18908648966E+02  0.21410297088E+02  0.10500000000E+00 0. -1.
         13    1    6    6    0    0 -0.41676006981E+01 -0.16286493799E+02 -0.31524400906E+02  0.35726987745E+02  0.10500000000E+00 0.  1.
</event>
<event>
11    0  0.3422856E-009  0.9118800E+02  0.7816531E-02  0.1126479E+00
         25   -1    0    0    0    0  0.00000000000E+00  0.00000000000E+00  0.99999998245E-14  0.12500000000E+03  0.12500000000E+03 0.  0.
    3000001    1    3    3    0    0 -0.30731068537E+01 -0.40567136423E+01 -0.28459210539E+02  0.28927972203E+02  0.10000000000E+01 0. -1.
    1000022    2    1    0    0    0 -0.15706131714E+02 -0.35217929193E+01 -0.59558072855E+02  0.62500002133E+02  0.10000031282E+02 0.  0.
    3000022    2    3    3    0    0 -0.12633024860E+02  0.53492072307E+00 -0.31098862316E+02  0.33572029930E+02  0.24999787559E+00 0.  0.
    1000022    2    1    0    0    0  0.15706131714E+02  0.35217929193E+01  0.59558072855E+02  0.62499997867E+02  0.10000004619E+02 0.  0.
    3000022    2    5    5    0    0  0.54443497813E+01  0.62381079263E+01  0.25421693734E+02  0.26737239093E+02  0.25001389952E+00 0.  0.
        -13    1    4    4    0    0 -0.63432345604E+01  0.31824121068E+00 -0.15743117504E+02  0.16976297474E+02  0.10500000000E+00 0.  1.
         13    1    4    4    0    0 -0.62897902995E+01  0.21667951238E+00 -0.15355744812E+02  0.16595732456E+02  0.10500000000E+00 0. -1.
    3000001    1    5    5    0    0  0.10261781932E+02 -0.27163150071E+01  0.34136379121E+02  0.35762758774E+02  0.10000000000E+01 0. -1.
        -13    1    6    6    0    0  0.41125685594E+01  0.47179057857E+01  0.19282489583E+02  0.20273067964E+02  0.10500000000E+00 0.  1.
         13    1    6    6    0    0  0.13317812219E+01  0.15202021406E+01  0.61392041511E+01  0.64641711286E+01  0.10500000000E+00 0. -1.
</event>
<event>
11    0  0.3422856E-009  0.9118800E+02  0.7816531E-02  0.1126479E+00
         25   -1    0    0    0    0  0.00000000000E+00  0.00000000000E+00  0.99999998245E-14  0.12500000000E+03  0.12500000000E+03 0.  0.
    3000001    1    3    3    0    0  0.34914594679E+02  0.30716241310E+02  0.10161079397E+00  0.46513726217E+02  0.10000000000E+01 0.  1.
    1000022    2    1    0    0    0  0.42379909462E+02  0.44830577084E+02 -0.64195853538E+00  0.62499995128E+02  0.99999956298E+01 0.  0.
    3000022    2    3    3    0    0  0.74653147837E+01  0.14114335774E+02 -0.74356932935E+00  0.15986268912E+02  0.24999845241E+00 0.  0.
    1000022    2    1    0    0    0 -0.42379909462E+02 -0.44830577084E+02  0.64195853538E+00  0.62500004872E+02  0.10000056523E+02 0.  0.
    3000022    2    5    5    0    0 -0.17838406578E+01 -0.60116051478E+01 -0.63427350679E+00  0.63076374825E+01  0.25000756886E+00 0.  0.
        -13    1    4    4    0    0  0.56110106294E+01  0.10555612158E+02 -0.54548471341E+00  0.11967162023E+02  0.10500000000E+00 0. -1.
         13    1    4    4    0    0  0.18543041544E+01  0.35587236160E+01 -0.19808461594E+00  0.40191068892E+01  0.10500000000E+00 0.  1.
    3000001    1    5    5    0    0 -0.40596068804E+02 -0.38818971936E+02  0.12762320422E+01  0.56192367389E+02  0.10000000000E+01 0.  1.
        -13    1    6    6    0    0 -0.12358221072E+01 -0.39852082714E+01 -0.43883709178E+00  0.41967540123E+01  0.10500000000E+00 0.  1.
         13    1    6    6    0    0 -0.54801855068E+00 -0.20263968764E+01 -0.19543641502E+00  0.21108834702E+01  0.10500000000E+00 0. -1.
</event>
<event>
11    0  0.3422856E-009  0.9118800E+02  0.7816531E-02  0.1126479E+00
         25   -1    0    0    0    0  0.00000000000E+00  0.00000000000E+00  0.99999998245E-14  0.12500000000E+03  0.12500000000E+03 0.  0.
    3000001    1    3    3    0    0  0.16794990233E+02 -0.13019409781E+02 -0.35149161214E+02  0.41085767147E+02  0.10000000000E+01 0. -1.
    1000022    2    1    0    0    0  0.29676463584E+02 -0.14092579398E+02 -0.52220272466E+02  0.62500000462E+02  0.99999958199E+01 0.  0.
    3000022    2    3    3    0    0  0.12881473351E+02 -0.10731696171E+01 -0.17071111252E+02  0.21414233316E+02  0.25000079366E+00 0.  0.
    1000022    2    1    0    0    0 -0.29676463584E+02  0.14092579398E+02  0.52220272466E+02  0.62499999538E+02  0.99999900433E+01 0.  0.
    3000022    2    5    5    0    0 -0.23405676029E+00  0.23251325568E+00 -0.42994915467E+00  0.59682845794E+00  0.25000590293E+00 0.  0.
        -13    1    4    4    0    0  0.82620300018E+01 -0.70382242164E+00 -0.11042393311E+02  0.13809488795E+02  0.10500000000E+00 0.  1.
         13    1    4    4    0    0  0.46194433492E+01 -0.36934719546E+00 -0.60287179413E+01  0.76047445206E+01  0.10500000000E+00 0. -1.
    3000001    1    5    5    0    0 -0.29442406824E+02  0.13860066142E+02  0.52650221621E+02  0.61903171080E+02  0.10000000000E+01 0. -1.
        -13    1    6    6    0    0 -0.14512511624E+00  0.10395014570E+00 -0.31247562836E+00  0.37487724720E+00  0.10500000000E+00 0.  1.
         13    1    6    6    0    0 -0.88931644059E-01  0.12856310998E+00 -0.11747352631E+00  0.22195121074E+00  0.10500000000E+00 0. -1.
</event>
<event>
11    0  0.3422856E-009  0.9118800E+02  0.7816531E-02  0.1126479E+00
         25   -1    0    0    0    0  0.00000000000E+00  0.00000000000E+00  0.99999998245E-14  0.12500000000E+03  0.12500000000E+03 0.  0.
    3000001    1    3    3    0    0 -0.79673750822E+01  0.35487734656E+02  0.48669286962E+02  0.60766420579E+02  0.10000000000E+01 0. -1.
    1000022    2    1    0    0    0 -0.67016918090E+01  0.36437073153E+02  0.49332309741E+02  0.62499999891E+02  0.10000011449E+02 0.  0.
    3000022    2    3    3    0    0  0.12656832732E+01  0.94933849752E+00  0.66302277897E+00  0.17335793116E+01  0.25000058675E+00 0.  0.
    1000022    2    1    0    0    0  0.67016918090E+01 -0.36437073153E+02 -0.49332309741E+02  0.62500000109E+02  0.10000012811E+02 0.  0.
    3000022    2    5    5    0    0 -0.36284703269E+00 -0.10353235209E+02 -0.79297510071E+01  0.13048547343E+02  0.24999896261E+00 0.  0.
        -13    1    4    4    0    0  0.76109962134E+00  0.60273322176E+00  0.46577546840E+00  0.10819111596E+01  0.10500000000E+00 0.  1.
         13    1    4    4    0    0  0.50458365181E+00  0.34660527576E+00  0.19724731057E+00  0.65166815205E+00  0.10500000000E+00 0. -1.
    3000001    1    5    5    0    0  0.70645388417E+01 -0.26083837944E+02 -0.41402558733E+02  0.49451452766E+02  0.10000000000E+01 0.  1.
        -13    1    6    6    0    0 -0.18074631171E+00 -0.43917762589E+01 -0.32900804796E+01  0.54914499451E+01  0.10500000000E+00 0.  1.
         13    1    6    6    0    0 -0.18210072097E+00 -0.59614589498E+01 -0.46396705274E+01  0.75570973982E+01  0.10500000000E+00 0. -1.
</event>
<event>
11    0  0.3422856E-009  0.9118800E+02  0.7816531E-02  0.1126479E+00
         25   -1    0    0    0    0  0.00000000000E+00  0.00000000000E+00  0.99999998245E-14  0.12500000000E+03  0.12500000000E+03 0.  0.
    3000001    1    3    3    0    0  0.97517282766E+01 -0.15136206662E+02 -0.14698519305E+02  0.23264724934E+02  0.10000000000E+01 0. -1.
    1000022    2    1    0    0    0  0.34093511284E+02 -0.42106711679E+02 -0.29511140761E+02  0.62499999818E+02  0.99999934048E+01 0.  0.
    3000022    2    3    3    0    0  0.24341783008E+02 -0.26970505018E+02 -0.14812621457E+02  0.39235274885E+02  0.24999989418E+00 0.  0.
    1000022    2    1    0    0    0 -0.34093511284E+02  0.42106711679E+02  0.29511140761E+02  0.62500000182E+02  0.99999956782E+01 0.  0.
    3000022    2    5    5    0    0 -0.19794778531E+02  0.29337377022E+02  0.23090440776E+02  0.42258086877E+02  0.25000728868E+00 0.  0.
        -13    1    4    4    0    0  0.16462670034E+02 -0.18302805706E+02 -0.10004541432E+02  0.26572807071E+02  0.10500000000E+00 0.  1.
         13    1    4    4    0    0  0.78791129737E+01 -0.86676993115E+01 -0.48080800250E+01  0.12662467814E+02  0.10500000000E+00 0. -1.
    3000001    1    5    5    0    0 -0.14298732753E+02  0.12769334657E+02  0.64206999851E+01  0.20241913305E+02  0.10000000000E+01 0. -1.
        -13    1    6    6    0    0 -0.11996560461E+02  0.17836631749E+02  0.14088460438E+02  0.25701335326E+02  0.10500000000E+00 0.  1.
         13    1    6    6    0    0 -0.77982180697E+01  0.11500745273E+02  0.90019803383E+01  0.16556751551E+02  0.10500000000E+00 0. -1.
</event>
<event>
11    0  0.3422856E-009  0.9118800E+02  0.7816531E-02  0.1126479E+00
         25   -1    0    0    0    0  0.00000000000E+00  0.00000000000E+00  0.99999998245E-14  0.12500000000E+03  0.12500000000E+03 0.  0.
    3000001    1    3    3    0    0  0.45198056813E+02  0.90296445519E+01 -0.13362127425E+02  0.47999429890E+02  0.10000000000E+01 0.  1.
    1000022    2    1    0    0    0  0.57255001911E+02  0.16711777200E+02 -0.15774377870E+02  0.62500000440E+02  0.10000015839E+02 0.  0.
    3000022    2    3    3    0    0  0.12056945098E+02  0.76821326485E+01 -0.24122504447E+01  0.14500570550E+02  0.25001389499E+00 0.  0.
    1000022    2    1    0    0    0 -0.57255001911E+02 -0.16711777200E+02  0.15774377870E+02  0.62499999560E+02  0.10000010341E+02 0.  0.
    3000022    2    5    5    0    0 -0.54828719974E+02 -0.13911686991E+02  0.14007547475E+02  0.58275187273E+02  0.24999295396E+00 0.  0.
        -13    1    4    4    0    0  0.43934663057E+01  0.27857610598E+01 -0.81950383166E+00  0.52674113559E+01  0.10500000000E+00 0. -1.
         13    1    4    4    0    0  0.76634787922E+01  0.48963715887E+01 -0.15927466130E+01  0.92331591943E+01  0.10500000000E+00 0.  1.
    3000001    1    5    5    0    0 -0.24262819364E+01 -0.28000902097E+01  0.17668303947E+01  0.42248122871E+01  0.10000000000E+01 0. -1.
        -13    1    6    6    0    0 -0.27214869276E+02 -0.69420879290E+01  0.70144299108E+01  0.28949178685E+02  0.10500000000E+00 0.  1.
         13    1    6    6    0    0 -0.27613850698E+02 -0.69695990617E+01  0.69931175647E+01  0.29326008588E+02  0.10500000000E+00 0. -1.
</event>
<event>
11    0  0.3422856E-009  0.9118800E+02  0.7816531E-02  0.1126479E+00
         25   -1    0    0    0    0  0.00000000000E+00  0.00000000000E+00  0.99999998245E-14  0.12500000000E+03  0.12500000000E+03 0.  0.
    3000001    1    3    3    0    0  0.26871854968E+02 -0.20640798860E+02  0.20817561426E+02  0.39780774637E+02  0.10000000000E+01 0. -1.
    1000022    2    1    0    0    0  0.37409465148E+02 -0.37942747829E+02  0.31098711315E+02  0.62500000225E+02  0.99999993602E+01 0.  0.
    3000022    2    3    3    0    0  0.10537610180E+02 -0.17301948969E+02  0.10281149889E+02  0.22719225588E+02  0.25000369034E+00 0.  0.
    1000022    2    1    0    0    0 -0.37409465148E+02  0.37942747829E+02 -0.31098711315E+02  0.62499999775E+02  0.99999965419E+01 0.  0.
    3000022    2    5    5    0    0 -0.12831247113E+02  0.11161037633E+02 -0.15207121913E+02  0.22815098155E+02  0.24996685978E+00 0.  0.
        -13    1    4    4    0    0  0.53629061404E+01 -0.87176340040E+01  0.52504908460E+01  0.11503763907E+02  0.10500000000E+00 0. -1.
         13    1    4    4    0    0  0.51747040395E+01 -0.85843149650E+01  0.50306590434E+01  0.11215461681E+02  0.10500000000E+00 0.  1.
    3000001    1    5    5    0    0 -0.24578218036E+02  0.26781710196E+02 -0.15891589403E+02  0.39684901620E+02  0.10000000000E+01 0. -1.
        -13    1    6    6    0    0 -0.42587568166E+01  0.37324798133E+01 -0.49985651328E+01  0.75541441320E+01  0.10500000000E+00 0.  1.
         13    1    6    6    0    0 -0.85724902960E+01  0.74285578198E+01 -0.10208556780E+02  0.15260954023E+02  0.10500000000E+00 0. -1.
</event>
<event>
11    0  0.3422856E-009  0.9118800E+02  0.7816531E-02  0.1126479E+00
         25   -1    0    0    0    0  0.00000000000E+00  0.00000000000E+00  0.99999998245E-14  0.12500000000E+03  0.12500000000E+03 0.  0.
    3000001    1    3    3    0    0  0.71763102826E+01  0.19195076459E+01 -0.50884834910E+01  0.90596138501E+01  0.10000000000E+01 0.  1.
    1000022    2    1    0    0    0  0.39972213978E+02  0.34413199533E+02 -0.32003182892E+02  0.62499999832E+02  0.10000003570E+02 0.  0.
    3000022    2    3    3    0    0  0.32795903696E+02  0.32493691887E+02 -0.26914699401E+02  0.53440385982E+02  0.24999682044E+00 0.  0.
    1000022    2    1    0    0    0 -0.39972213978E+02 -0.34413199533E+02  0.32003182892E+02  0.62500000168E+02  0.10000005666E+02 0.  0.
    3000022    2    5    5    0    0 -0.18792258100E+02 -0.14910266316E+02  0.20218905908E+02  0.31374060517E+02  0.25002223578E+00 0.  0.
        -13    1    4    4    0    0  0.17281826918E+02  0.17151999798E+02 -0.14120512863E+02  0.28146981138E+02  0.10500000000E+00 0. -1.
         13    1    4    4    0    0  0.15514076778E+02  0.15341692089E+02 -0.12794186538E+02  0.25293404844E+02  0.10500000000E+00 0.  1.
    3000001    1    5    5    0    0 -0.21179955878E+02 -0.19502933217E+02  0.11784276984E+02  0.31125939650E+02  0.10000000000E+01 0. -1.
        -13    1    6    6    0    0 -0.86828369724E+01 -0.68809792800E+01  0.92503534563E+01  0.14433280909E+02  0.10500000000E+00 0. -1.
         13    1    6    6    0    0 -0.10109421128E+02 -0.80292870355E+01  0.10968552452E+02  0.16940779608E+02  0.10500000000E+00 0.  1.
</event>
<event>
11    0  0.3422856E-009  0.9118800E+02  0.7816531E-02  0.1126479E+00
         25   -1    0    0    0    0  0.00000000000E+00  0.00000000000E+00  0.99999998245E-14  0.12500000000E+03  0.12500000000E+03 0.  0.
    3000001    1    3    3    0    0  0.24286888693E+02 -0.38579906227E+02  0.96084801285E+01  0.46600268424E+02  0.10000000000E+01 0. -1.
    1000022    2    1    0    0    0  0.31006210579E+02 -0.52819621553E+02  0.74129797210E+01  0.62500001030E+02  0.10000017248E+02 0.  0.
    3000022    2    3    3    0    0  0.67193218864E+01 -0.14239715326E+02 -0.21955004074E+01  0.15899732606E+02  0.24999143708E+00 0.  0.
    1000022    2    1    0    0    0 -0.31006210579E+02  0.52819621553E+02 -0.74129797210E+01  0.62499998970E+02  0.10000004370E+02 0.  0.
    3000022    2    5    5    0    0 -0.58814428594E+00  0.66114688078E+01  0.21804190204E+00  0.66458618969E+01  0.25000916763E+00 0.  0.
        -13    1    4    4    0    0  0.28243797028E+01 -0.60832764448E+01 -0.98585423897E+00  0.67798456170E+01  0.10500000000E+00 0.  1.
         13    1    4    4    0    0  0.38949421836E+01 -0.81564388814E+01 -0.12096461685E+01  0.91198869890E+01  0.10500000000E+00 0. -1.
    3000001    1    5    5    0    0 -0.30418066293E+02  0.46208152745E+02 -0.76310216231E+01  0.55854137073E+02  0.10000000000E+01 0. -1.
        -13    1    6    6    0    0 -0.38867275097E+00  0.39236070121E+01  0.79545839698E-01  0.39450109041E+01  0.10500000000E+00 0.  1.
         13    1    6    6    0    0 -0.19947153497E+00  0.26878617957E+01  0.13849606234E+00  0.27008509928E+01  0.10500000000E+00 0. -1.
</event>
<event>
11    0  0.3422856E-009  0.9118800E+02  0.7816531E-02  0.1126479E+00
         25   -1    0    0    0    0  0.00000000000E+00  0.00000000000E+00  0.99999998245E-14  0.12500000000E+03  0.12500000000E+03 0.  0.
    3000001    1    3    3    0    0 -0.17907880696E+00  0.78462555709E+01  0.14405358988E+02  0.16435028545E+02  0.10000000000E+01 0.  1.
    1000022    2    1    0    0    0 -0.11951157832E+02  0.38567689961E+02  0.46647113211E+02  0.62499999947E+02  0.99999969957E+01 0.  0.
    3000022    2    3    3    0    0 -0.11772079025E+02  0.30721434390E+02  0.32241754223E+02  0.46064971402E+02  0.24999853063E+00 0.  0.
    1000022    2    1    0    0    0  0.11951157832E+02 -0.38567689961E+02 -0.46647113211E+02  0.62500000053E+02  0.99999976612E+01 0.  0.
    3000022    2    5    5    0    0  0.60140114055E+01 -0.16592310364E+02 -0.27801028535E+02  0.32930726749E+02  0.24996036934E+00 0.  0.
        -13    1    4    4    0    0 -0.37669977358E+01  0.99316313651E+01  0.10461024870E+02  0.14908777275E+02  0.10500000000E+00 0.  1.
         13    1    4    4    0    0 -0.80050812896E+01  0.20789803025E+02  0.21780729353E+02  0.31156194126E+02  0.10500000000E+00 0. -1.
    3000001    1    5    5    0    0  0.59371464269E+01 -0.21975379597E+02 -0.18846084676E+02  0.29569273304E+02  0.10000000000E+01 0.  1.
        -13    1    6    6    0    0  0.30619803328E+01 -0.84732493478E+01 -0.14317576179E+02  0.16916728132E+02  0.10500000000E+00 0.  1.
         13    1    6    6    0    0  0.29520310727E+01 -0.81190610164E+01 -0.13483452356E+02  0.16013998617E+02  0.10500000000E+00 0. -1.
</event>
<event>
11    0  0.3422856E-009  0.9118800E+02  0.7816531E-02  0.1126479E+00
         25   -1    0    0    0    0  0.00000000000E+00  0.00000000000E+00  0.99999998245E-14  0.12500000000E+03  0.12500000000E+03 0.  0.
    3000001    1    3    3    0    0 -0.30970455167E+02  0.41166736901E+02  0.24809681238E+02  0.57187320303E+02  0.10000000000E+01 0.  1.
    1000022    2    1    0    0    0 -0.32053612570E+02  0.46353518858E+02  0.25103128068E+02  0.62499997954E+02  0.99999958055E+01 0.  0.
    3000022    2    3    3    0    0 -0.10831574033E+01  0.51867819571E+01  0.29344682950E+00  0.53126776505E+01  0.24999149265E+00 0.  0.
    1000022    2    1    0    0    0  0.32053612570E+02 -0.46353518858E+02 -0.25103128068E+02  0.62500002046E+02  0.10000021386E+02 0.  0.
    3000022    2    5    5    0    0  0.13977820973E+02 -0.19058267737E+02 -0.52909678949E+01  0.24220939018E+02  0.24999472542E+00 0.  0.
        -13    1    4    4    0    0 -0.60200476453E+00  0.25655596508E+01  0.16578796891E+00  0.26425398217E+01  0.10500000000E+00 0.  1.
         13    1    4    4    0    0 -0.48115263880E+00  0.26212223062E+01  0.12765886059E+00  0.26701378289E+01  0.10500000000E+00 0. -1.
    3000001    1    5    5    0    0  0.18075791597E+02 -0.27295251121E+02 -0.19812160173E+02  0.38279063028E+02  0.10000000000E+01 0.  1.
        -13    1    6    6    0    0  0.69678336355E+01 -0.94268006112E+01 -0.26775085278E+01  0.12024780757E+02  0.10500000000E+00 0. -1.
         13    1    6    6    0    0  0.70099873379E+01 -0.96314671256E+01 -0.26134593671E+01  0.12196158261E+02  0.10500000000E+00 0.  1.
</event>
<event>
11    0  0.3422856E-009  0.9118800E+02  0.7816531E-02  0.1126479E+00
         25   -1    0    0    0    0  0.00000000000E+00  0.00000000000E+00  0.99999998245E-14  0.12500000000E+03  0.12500000000E+03 0.  0.
    3000001    1    3    3    0    0  0.29252562354E+02 -0.14568888848E+02 -0.50365773078E+02  0.60047281572E+02  0.10000000000E+01 0.  1.
    1000022    2    1    0    0    0  0.28516164285E+02 -0.15661263183E+02 -0.52419490876E+02  0.62499998288E+02  0.99999986160E+01 0.  0.
    3000022    2    3    3    0    0 -0.73639806891E+00 -0.10923743353E+01 -0.20537177980E+01  0.24527167156E+01  0.24999737756E+00 0.  0.
    1000022    2    1    0    0    0 -0.28516164285E+02  0.15661263183E+02  0.52419490876E+02  0.62500001712E+02  0.10000020014E+02 0.  0.
    3000022    2    5    5    0    0 -0.10555165213E+02  0.14640870116E+01  0.21678132076E+02  0.24156965320E+02  0.24999941882E+00 0.  0.
        -13    1    4    4    0    0 -0.20843425761E+00 -0.33658767578E+00 -0.55000474372E+00  0.68575966734E+00  0.10500000000E+00 0.  1.
         13    1    4    4    0    0 -0.52796381131E+00 -0.75578665955E+00 -0.15037130543E+01  0.17669570483E+01  0.10500000000E+00 0. -1.
    3000001    1    5    5    0    0 -0.17960999071E+02  0.14197176171E+02  0.30741358800E+02  0.38343036392E+02  0.10000000000E+01 0.  1.
        -13    1    6    6    0    0 -0.26343044648E+01  0.35772399175E+00  0.54676663781E+01  0.60806189726E+01  0.10500000000E+00 0. -1.
         13    1    6    6    0    0 -0.79208607486E+01  0.11063630199E+01  0.16210465698E+02  0.18076346347E+02  0.10500000000E+00 0.  1.
</event>
<event>
11    0  0.3422856E-009  0.9118800E+02  0.7816531E-02  0.1126479E+00
         25   -1    0    0    0    0  0.00000000000E+00  0.00000000000E+00  0.99999998245E-14  0.12500000000E+03  0.12500000000E+03 0.  0.
    3000001    1    3    3    0    0 -0.28886923251E+02 -0.79902902366E+01  0.14647214047E+02  0.33374240850E+02  0.10000000000E+01 0. -1.
    1000022    2    1    0    0    0 -0.52081733950E+02 -0.23146256394E+02  0.23621891561E+02  0.62500000151E+02  0.10000003082E+02 0.  0.
    3000022    2    3    3    0    0 -0.23194810698E+02 -0.15155966157E+02  0.89746775139E+01  0.29125759300E+02  0.24992967941E+00 0.  0.
    1000022    2    1    0    0    0  0.52081733950E+02  0.23146256394E+02 -0.23621891561E+02  0.62499999849E+02  0.10000001201E+02 0.  0.
    3000022    2    5    5    0    0  0.21545685125E+02  0.11423373624E+02 -0.15100559721E+02  0.28684480415E+02  0.25000073333E+00 0.  0.
        -13    1    4    4    0    0 -0.12997455832E+02 -0.84189522845E+01  0.50406287140E+01  0.16285931920E+02  0.10500000000E+00 0. -1.
         13    1    4    4    0    0 -0.10197354867E+02 -0.67370138724E+01  0.39340487998E+01  0.12839827380E+02  0.10500000000E+00 0.  1.
    3000001    1    5    5    0    0  0.30536048825E+02  0.11722882769E+02 -0.85213318406E+01  0.33815519434E+02  0.10000000000E+01 0. -1.
        -13    1    6    6    0    0  0.15952117177E+02  0.84235929148E+01 -0.11158181697E+02  0.21211859980E+02  0.10500000000E+00 0.  1.
         13    1    6    6    0    0  0.55935679471E+01  0.29997807096E+01 -0.39423780235E+01  0.74726204350E+01  0.10500000000E+00 0. -1.
</event>
<event>
11    0  0.3422856E-009  0.9118800E+02  0.7816531E-02  0.1126479E+00
         25   -1    0    0    0    0  0.00000000000E+00  0.00000000000E+00  0.99999998245E-14  0.12500000000E+03  0.12500000000E+03 0.  0.
    3000001    1    3    3    0    0  0.56506294029E+01 -0.97547234122E+01 -0.44684870135E+01  0.12167646350E+02  0.10000000000E+01 0.  1.
    1000022    2    1    0    0    0  0.17500414294E+02 -0.45120733468E+02 -0.38263624862E+02  0.62500000882E+02  0.10000001675E+02 0.  0.
    3000022    2    3    3    0    0  0.11849784891E+02 -0.35366010056E+02 -0.33795137849E+02  0.50332354533E+02  0.25000268333E+00 0.  0.
    1000022    2    1    0    0    0 -0.17500414294E+02  0.45120733468E+02  0.38263624862E+02  0.62499999118E+02  0.99999906489E+01 0.  0.
    3000022    2    5    5    0    0 -0.46444201937E+01  0.25125419229E+02  0.21510513656E+02  0.33400928498E+02  0.24999288651E+00 0.  0.
        -13    1    4    4    0    0  0.51516676955E+01 -0.15569120995E+02 -0.14891499112E+02  0.22151861760E+02  0.10500000000E+00 0.  1.
         13    1    4    4    0    0  0.66981171959E+01 -0.19796889061E+02 -0.18903638736E+02  0.28180492773E+02  0.10500000000E+00 0. -1.
    3000001    1    5    5    0    0 -0.12855994101E+02  0.19995314240E+02  0.16753111206E+02  0.29099070620E+02  0.10000000000E+01 0. -1.
        -13    1    6    6    0    0 -0.19782399755E+01  0.11056729133E+02  0.94370421821E+01  0.14670837831E+02  0.10500000000E+00 0. -1.
         13    1    6    6    0    0 -0.26661802182E+01  0.14068690096E+02  0.12073471474E+02  0.18730090667E+02  0.10500000000E+00 0.  1.
</event>
<event>
11    0  0.3422856E-009  0.9118800E+02  0.7816531E-02  0.1126479E+00
         25   -1    0    0    0    0  0.00000000000E+00  0.00000000000E+00  0.99999998245E-14  0.12500000000E+03  0.12500000000E+03 0.  0.
    3000001    1    3    3    0    0 -0.30349740851E+01  0.43991352813E+01  0.58802437458E+01  0.80087905098E+01  0.10000000000E+01 0.  1.
    1000022    2    1    0    0    0 -0.38385653404E+01  0.23693719123E+02  0.56834171038E+02  0.62500000189E+02  0.10000005818E+02 0.  0.
    3000022    2    3    3    0    0 -0.80359125528E+00  0.19294583842E+02  0.50953927292E+02  0.54491209679E+02  0.25000264430E+00 0.  0.
    1000022    2    1    0    0    0  0.38385653404E+01 -0.23693719123E+02 -0.56834171038E+02  0.62499999811E+02  0.10000003452E+02 0.  0.
    3000022    2    5    5    0    0 -0.92929128576E-01 -0.12243688875E+02 -0.39338916099E+02  0.41201084655E+02  0.25000763192E+00 0.  0.
        -13    1    4    4    0    0 -0.35394750101E+00  0.93694219098E+01  0.24577860974E+02  0.26305771626E+02  0.10500000000E+00 0. -1.
         13    1    4    4    0    0 -0.44964375426E+00  0.99251619321E+01  0.26376066318E+02  0.28185438054E+02  0.10500000000E+00 0.  1.
    3000001    1    5    5    0    0  0.39314944689E+01 -0.11450030248E+02 -0.17495254939E+02  0.21298915156E+02  0.10000000000E+01 0. -1.
        -13    1    6    6    0    0 -0.10950992013E+00 -0.86112100206E+01 -0.27693328882E+02  0.29001662367E+02  0.10500000000E+00 0.  1.
         13    1    6    6    0    0  0.16580791557E-01 -0.36324788546E+01 -0.11645587217E+02  0.12199422288E+02  0.10500000000E+00 0. -1.
</event>
<event>
11    0  0.3422856E-009  0.9118800E+02  0.7816531E-02  0.1126479E+00
         25   -1    0    0    0    0  0.00000000000E+00  0.00000000000E+00  0.99999998245E-14  0.12500000000E+03  0.12500000000E+03 0.  0.
    3000001    1    3    3    0    0  0.41766243775E+02 -0.15715610246E+02 -0.15987674117E+02  0.47413133709E+02  0.10000000000E+01 0. -1.
    1000022    2    1    0    0    0  0.56104901340E+02 -0.15235737133E+02 -0.20648540912E+02  0.62500000986E+02  0.10000012049E+02 0.  0.
    3000022    2    3    3    0    0  0.14338657566E+02  0.47987311207E+00 -0.46608667945E+01  0.15086867277E+02  0.25001189964E+00 0.  0.
    1000022    2    1    0    0    0 -0.56104901340E+02  0.15235737133E+02  0.20648540912E+02  0.62499999014E+02  0.99999997306E+01 0.  0.
    3000022    2    5    5    0    0 -0.27412197195E+02  0.53635579484E+01  0.51174772127E+01  0.28398017654E+02  0.25004955118E+00 0.  0.
        -13    1    4    4    0    0  0.33414513305E+01  0.10082604079E+00 -0.10918134815E+01  0.35183155861E+01  0.10500000000E+00 0.  1.
         13    1    4    4    0    0  0.10997206235E+02  0.37904707128E+00 -0.35690533130E+01  0.11568551690E+02  0.10500000000E+00 0. -1.
    3000001    1    5    5    0    0 -0.28692704146E+02  0.98721791851E+01  0.15531063699E+02  0.34101981360E+02  0.10000000000E+01 0.  1.
        -13    1    6    6    0    0 -0.17446906876E+02  0.33539373062E+01  0.32522447128E+01  0.18061881842E+02  0.10500000000E+00 0. -1.
         13    1    6    6    0    0 -0.99652903182E+01  0.20096206422E+01  0.18652325000E+01  0.10336135812E+02  0.10500000000E+00 0.  1.
</event>
<event>
11    0  0.3422856E-009  0.9118800E+02  0.7816531E-02  0.1126479E+00
         25   -1    0    0    0    0  0.00000000000E+00  0.00000000000E+00  0.99999998245E-14  0.12500000000E+03  0.12500000000E+03 0.  0.
    3000001    1    3    3    0    0  0.20382031271E+01 -0.43084630266E+01 -0.61716520058E+01  0.78617055477E+01  0.10000000000E+01 0.  1.
    1000022    2    1    0    0    0  0.67104491726E+01 -0.13442076924E+02 -0.59837537285E+02  0.62499993658E+02  0.99999389364E+01 0.  0.
    3000022    2    3    3    0    0  0.46722460455E+01 -0.91336138976E+01 -0.53665885280E+02  0.54638288110E+02  0.24999766820E+00 0.  0.
    1000022    2    1    0    0    0 -0.67104491726E+01  0.13442076924E+02  0.59837537285E+02  0.62500006342E+02  0.10000018213E+02 0.  0.
    3000022    2    5    5    0    0 -0.27745812704E+01  0.97802819883E+01  0.51734988925E+02  0.52724982648E+02  0.24999824803E+00 0.  0.
        -13    1    4    4    0    0  0.28953074130E+01 -0.56900246666E+01 -0.33705994004E+02  0.34305454997E+02  0.10500000000E+00 0. -1.
         13    1    4    4    0    0  0.17769386325E+01 -0.34435892310E+01 -0.19959891275E+02  0.20332833113E+02  0.10500000000E+00 0.  1.
    3000001    1    5    5    0    0 -0.39358679021E+01  0.36617949359E+01  0.81025483604E+01  0.97750236945E+01  0.10000000000E+01 0. -1.
        -13    1    6    6    0    0 -0.15723489098E+01  0.57607070683E+01  0.30259457549E+02  0.30843213568E+02  0.10500000000E+00 0.  1.
         13    1    6    6    0    0 -0.12022323606E+01  0.40195749200E+01  0.21475531376E+02  0.21881769080E+02  0.10500000000E+00 0. -1.
</event>
<event>
11    0  0.3422856E-009  0.9118800E+02  0.7816531E-02  0.1126479E+00
         25   -1    0    0    0    0  0.00000000000E+00  0.00000000000E+00  0.99999998245E-14  0.12500000000E+03  0.12500000000E+03 0.  0.
    3000001    1    3    3    0    0  0.10156655686E+02  0.48063682236E+02 -0.36688283454E+02  0.61321328652E+02  0.10000000000E+01 0.  1.
    1000022    2    1    0    0    0  0.91580695238E+01  0.48606442885E+02 -0.36875375273E+02  0.62500000235E+02  0.10000010026E+02 0.  0.
    3000022    2    3    3    0    0 -0.99858616200E+00  0.54276064882E+00 -0.18709181911E+00  0.11786715834E+01  0.24999981561E+00 0.  0.
    1000022    2    1    0    0    0 -0.91580695238E+01 -0.48606442885E+02  0.36875375273E+02  0.62499999765E+02  0.10000007086E+02 0.  0.
    3000022    2    5    5    0    0 -0.54022643920E+01 -0.40443009997E+02  0.26111630161E+02  0.48442762570E+02  0.24999516712E+00 0.  0.
        -13    1    4    4    0    0 -0.40285672352E+00  0.15324716018E+00 -0.90244084365E-01  0.45271097463E+00  0.10500000000E+00 0. -1.
         13    1    4    4    0    0 -0.59572943848E+00  0.38951348864E+00 -0.96847734744E-01  0.72596060873E+00  0.10500000000E+00 0.  1.
    3000001    1    5    5    0    0 -0.37558051318E+01 -0.81634328877E+01  0.10763745112E+02  0.14057237195E+02  0.10000000000E+01 0. -1.
        -13    1    6    6    0    0 -0.35644138760E+01 -0.26988770450E+02  0.17379831871E+02  0.32298116935E+02  0.10500000000E+00 0. -1.
         13    1    6    6    0    0 -0.18378505160E+01 -0.13454239547E+02  0.87317982905E+01  0.16144645636E+02  0.10500000000E+00 0.  1.
</event>
<event>
11    0  0.3422856E-009  0.9118800E+02  0.7816531E-02  0.1126479E+00
         25   -1    0    0    0    0  0.00000000000E+00  0.00000000000E+00  0.99999998245E-14  0.12500000000E+03  0.12500000000E+03 0.  0.
    3000001    1    3    3    0    0  0.90298927302E+01  0.73053135556E+01  0.10977644478E+02  0.16012971215E+02  0.10000000000E+01 0.  1.
    1000022    2    1    0    0    0  0.38940879655E+02  0.37733716966E+02  0.29428293414E+02  0.62499999714E+02  0.10000000331E+02 0.  0.
    3000022    2    3    3    0    0  0.29910986924E+02  0.30428403410E+02  0.18450648936E+02  0.46487028498E+02  0.24999909872E+00 0.  0.
    1000022    2    1    0    0    0 -0.38940879655E+02 -0.37733716966E+02 -0.29428293414E+02  0.62500000286E+02  0.10000003910E+02 0.  0.
    3000022    2    5    5    0    0 -0.35076378012E+02 -0.30982769595E+02 -0.27971782493E+02  0.54523090646E+02  0.24998296095E+00 0.  0.
        -13    1    4    4    0    0  0.15840939729E+02  0.16145618655E+02  0.98505507987E+01  0.24671050835E+02  0.10500000000E+00 0. -1.
         13    1    4    4    0    0  0.14070047195E+02  0.14282784755E+02  0.86000981377E+01  0.21815977664E+02  0.10500000000E+00 0.  1.
    3000001    1    5    5    0    0 -0.38645016421E+01 -0.67509473714E+01 -0.14565109207E+01  0.79769096407E+01  0.10000000000E+01 0.  1.
        -13    1    6    6    0    0 -0.14088897351E+02 -0.12377659396E+02 -0.11164280631E+02  0.21825573709E+02  0.10500000000E+00 0. -1.
         13    1    6    6    0    0 -0.20987480661E+02 -0.18605110198E+02 -0.16807501862E+02  0.32697516937E+02  0.10500000000E+00 0.  1.
</event>
<event>
11    0  0.3422856E-009  0.9118800E+02  0.7816531E-02  0.1126479E+00
         25   -1    0    0    0    0  0.00000000000E+00  0.00000000000E+00  0.99999998245E-14  0.12500000000E+03  0.12500000000E+03 0.  0.
    3000001    1    3    3    0    0 -0.50021266455E+01 -0.21738365783E+01 -0.12079456285E+02  0.13291354355E+02  0.10000000000E+01 0.  1.
    1000022    2    1    0    0    0 -0.13652063545E+02  0.54432714586E+01 -0.59918635248E+02  0.62500004898E+02  0.99999859515E+01 0.  0.
    3000022    2    3    3    0    0 -0.86499368998E+01  0.76171080369E+01 -0.47839178963E+02  0.49208650543E+02  0.25000236472E+00 0.  0.
    1000022    2    1    0    0    0  0.13652063545E+02 -0.54432714586E+01  0.59918635248E+02  0.62499995102E+02  0.99999247249E+01 0.  0.
    3000022    2    5    5    0    0  0.24421636417E+01  0.24934949885E+01  0.70985310730E+01  0.79141221806E+01  0.25001197162E+00 0.  0.
        -13    1    4    4    0    0 -0.66179191724E+01  0.58216522055E+01 -0.36638894455E+02  0.37684321680E+02  0.10500000000E+00 0.  1.
         13    1    4    4    0    0 -0.20320177274E+01  0.17954558314E+01 -0.11200284508E+02  0.11524328863E+02  0.10500000000E+00 0. -1.
    3000001    1    5    5    0    0  0.11209899904E+02 -0.79367664471E+01  0.52820104175E+02  0.54585872921E+02  0.10000000000E+01 0.  1.
        -13    1    6    6    0    0  0.97768706106E+00  0.93431371713E+00  0.28492376126E+01  0.31556289523E+01  0.10500000000E+00 0.  1.
         13    1    6    6    0    0  0.14644765806E+01  0.15591812713E+01  0.42492934604E+01  0.47584932284E+01  0.10500000000E+00 0. -1.
</event>
<event>
11    0  0.3422856E-009  0.9118800E+02  0.7816531E-02  0.1126479E+00
         25   -1    0    0    0    0  0.00000000000E+00  0.00000000000E+00  0.99999998245E-14  0.12500000000E+03  0.12500000000E+03 0.  0.
    3000001    1    3    3    0    0  0.44081240001E+02 -0.30395640802E+02 -0.16348786461E+02  0.55994048956E+02  0.10000000000E+01 0. -1.
    1000022    2    1    0    0    0  0.50467008779E+02 -0.31598812874E+02 -0.16150730550E+02  0.62499999530E+02  0.99999946890E+01 0.  0.
    3000022    2    3    3    0    0  0.63857687775E+01 -0.12031720722E+01  0.19805591091E+00  0.65059505731E+01  0.25000160179E+00 0.  0.
    1000022    2    1    0    0    0 -0.50467008779E+02  0.31598812874E+02  0.16150730550E+02  0.62500000470E+02  0.10000000569E+02 0.  0.
    3000022    2    5    5    0    0 -0.27638937072E+02  0.19537052617E+02  0.44605356054E+01  0.34140388763E+02  0.24999917180E+00 0.  0.
        -13    1    4    4    0    0  0.27559805210E+01 -0.45317202176E+00  0.93671805265E-01  0.27965323028E+01  0.10500000000E+00 0.  1.
         13    1    4    4    0    0  0.36297882565E+01 -0.75000005048E+00  0.10438410565E+00  0.37094182703E+01  0.10500000000E+00 0. -1.
    3000001    1    5    5    0    0 -0.22828071707E+02  0.12061760257E+02  0.11690194944E+02  0.28359611707E+02  0.10000000000E+01 0. -1.
        -13    1    6    6    0    0 -0.18467949826E+02  0.13118342780E+02  0.29761936338E+01  0.22847862955E+02  0.10500000000E+00 0.  1.
         13    1    6    6    0    0 -0.91709872463E+01  0.64187098373E+01  0.14843419716E+01  0.11292525809E+02  0.10500000000E+00 0. -1.
</event>
<event>
11    0  0.3422856E-009  0.9118800E+02  0.7816531E-02  0.1126479E+00
         25   -1    0    0    0    0  0.00000000000E+00  0.00000000000E+00  0.99999998245E-14  0.12500000000E+03  0.12500000000E+03 0.  0.
    3000001    1    3    3    0    0  0.63393151788E+01 -0.16051539174E+01 -0.18123764062E+02  0.19293373469E+02  0.10000000000E+01 0. -1.
    1000022    2    1    0    0    0  0.30696276912E+02 -0.13319878881E+02 -0.51832127253E+02  0.62500000535E+02  0.10000003082E+02 0.  0.
    3000022    2    3    3    0    0  0.24356961733E+02 -0.11714724963E+02 -0.33708363191E+02  0.43206627066E+02  0.25001513106E+00 0.  0.
    1000022    2    1    0    0    0 -0.30696276912E+02  0.13319878881E+02  0.51832127253E+02  0.62499999465E+02  0.99999963989E+01 0.  0.
    3000022    2    5    5    0    0 -0.17127152105E+02  0.45585575887E+01  0.34502825419E+02  0.38789524969E+02  0.24999779128E+00 0.  0.
        -13    1    4    4    0    0  0.59707017953E+01 -0.28464104303E+01 -0.82553971353E+01  0.10578938469E+02  0.10500000000E+00 0. -1.
         13    1    4    4    0    0  0.18386259938E+02 -0.88683145329E+01 -0.25452966055E+02  0.32627688597E+02  0.10500000000E+00 0.  1.
    3000001    1    5    5    0    0 -0.13569124807E+02  0.87613212919E+01  0.17329301834E+02  0.23710474497E+02  0.10000000000E+01 0. -1.
        -13    1    6    6    0    0 -0.83804426332E+01  0.21632203206E+01  0.16890360330E+02  0.18979110568E+02  0.10500000000E+00 0.  1.
         13    1    6    6    0    0 -0.87467094714E+01  0.23953372681E+01  0.17612465089E+02  0.19810414400E+02  0.10500000000E+00 0. -1.
</event>
<event>
11    0  0.3422856E-009  0.9118800E+02  0.7816531E-02  0.1126479E+00
         25   -1    0    0    0    0  0.00000000000E+00  0.00000000000E+00  0.99999998245E-14  0.12500000000E+03  0.12500000000E+03 0.  0.
    3000001    1    3    3    0    0  0.11072196010E+02 -0.20165471874E+02  0.21629214464E+02  0.31592130329E+02  0.10000000000E+01 0.  1.
    1000022    2    1    0    0    0  0.13264971375E+02 -0.37828332693E+02  0.46896769747E+02  0.62500005793E+02  0.10000074576E+02 0.  0.
    3000022    2    3    3    0    0  0.21927753647E+01 -0.17662860819E+02  0.25267555283E+02  0.30907875464E+02  0.24999924456E+00 0.  0.
    1000022    2    1    0    0    0 -0.13264971375E+02  0.37828332693E+02 -0.46896769747E+02  0.62499994207E+02  0.10000002160E+02 0.  0.
    3000022    2    5    5    0    0 -0.72618092266E+00  0.14968412047E+02 -0.20387788104E+02  0.25304250557E+02  0.24998899024E+00 0.  0.
        -13    1    4    4    0    0  0.11551806679E+01 -0.90602055349E+01  0.13071627249E+02  0.15946793742E+02  0.10500000000E+00 0.  1.
         13    1    4    4    0    0  0.10375946969E+01 -0.86026552844E+01  0.12195928034E+02  0.14961081722E+02  0.10500000000E+00 0. -1.
    3000001    1    5    5    0    0 -0.12538790452E+02  0.22859920646E+02 -0.26508981643E+02  0.37195743650E+02  0.10000000000E+01 0. -1.
        -13    1    6    6    0    0 -0.37985304709E+00  0.80375070855E+01 -0.10834504623E+02  0.13496048456E+02  0.10500000000E+00 0. -1.
         13    1    6    6    0    0 -0.34632787556E+00  0.69309049617E+01 -0.95532834809E+01  0.11808202101E+02  0.10500000000E+00 0.  1.
</event>
<event>
11    0  0.3422856E-009  0.9118800E+02  0.7816531E-02  0.1126479E+00
         25   -1    0    0    0    0  0.00000000000E+00  0.00000000000E+00  0.99999998245E-14  0.12500000000E+03  0.12500000000E+03 0.  0.
    3000001    1    3    3    0    0 -0.30997483014E+01 -0.56041223010E+01  0.18293218959E+01  0.67350608680E+01  0.10000000000E+01 0.  1.
    1000022    2    1    0    0    0 -0.34911138694E+01 -0.60630862468E+02  0.10860968633E+02  0.62500000059E+02  0.10000000405E+02 0.  0.
    3000022    2    3    3    0    0 -0.39136556798E+00 -0.55026740167E+02  0.90316467368E+01  0.55764939191E+02  0.24999960834E+00 0.  0.
    1000022    2    1    0    0    0  0.34911138694E+01  0.60630862468E+02 -0.10860968633E+02  0.62499999941E+02  0.99999996618E+01 0.  0.
    3000022    2    5    5    0    0  0.58928274530E+01  0.24243338059E+02 -0.25138499368E+01  0.25076817936E+02  0.25000138292E+00 0.  0.
        -13    1    4    4    0    0 -0.16023341458E+00 -0.24433039833E+02  0.39444009458E+01  0.24750119880E+02  0.10500000000E+00 0.  1.
         13    1    4    4    0    0 -0.23113215340E+00 -0.30593700334E+02  0.50872457910E+01  0.31014819311E+02  0.10500000000E+00 0. -1.
    3000001    1    5    5    0    0 -0.24017135836E+01  0.36387524410E+02 -0.83471186959E+01  0.37423182004E+02  0.10000000000E+01 0.  1.
        -13    1    6    6    0    0  0.31227656255E+01  0.12776168649E+02 -0.13908923660E+01  0.13226025748E+02  0.10500000000E+00 0.  1.
         13    1    6    6    0    0  0.27700618275E+01  0.11467169410E+02 -0.11229575708E+01  0.11850792189E+02  0.10500000000E+00 0. -1.
</event>
<event>
11    0  0.3422856E-009  0.9118800E+02  0.7816531E-02  0.1126479E+00
         25   -1    0    0    0    0  0.00000000000E+00  0.00000000000E+00  0.99999998245E-14  0.12500000000E+03  0.12500000000E+03 0.  0.
    3000001    1    3    3    0    0  0.12549141410E+02  0.12553149571E+02 -0.24431386701E+01  0.17945234488E+02  0.10000000000E+01 0. -1.
    1000022    2    1    0    0    0  0.31160590584E+02  0.51677653847E+02 -0.12833098341E+02  0.62499994386E+02  0.99999286279E+01 0.  0.
    3000022    2    3    3    0    0  0.18611449174E+02  0.39124504276E+02 -0.10389959671E+02  0.44554759898E+02  0.24998476199E+00 0.  0.
    1000022    2    1    0    0    0 -0.31160590584E+02 -0.51677653847E+02  0.12833098341E+02  0.62500005614E+02  0.99999988019E+01 0.  0.
    3000022    2    5    5    0    0 -0.21418289714E+02 -0.27460455047E+02  0.99435304881E+01  0.36218172605E+02  0.25000516226E+00 0.  0.
        -13    1    4    4    0    0  0.12461918759E+02  0.26072754637E+02 -0.69311372799E+01  0.29717665496E+02  0.10500000000E+00 0.  1.
         13    1    4    4    0    0  0.61495304154E+01  0.13051749639E+02 -0.34588223908E+01  0.14837094402E+02  0.10500000000E+00 0. -1.
    3000001    1    5    5    0    0 -0.97423008699E+01 -0.24217198799E+02  0.28895678528E+01  0.26281833009E+02  0.10000000000E+01 0. -1.
        -13    1    6    6    0    0 -0.59615155655E+01 -0.75992101364E+01  0.27866632420E+01  0.10053068166E+02  0.10500000000E+00 0. -1.
         13    1    6    6    0    0 -0.15456774149E+02 -0.19861244911E+02  0.71568672461E+01  0.26165104439E+02  0.10500000000E+00 0.  1.
</event>
<event>
11    0  0.3422856E-009  0.9118800E+02  0.7816531E-02  0.1126479E+00
         25   -1    0    0    0    0  0.00000000000E+00  0.00000000000E+00  0.99999998245E-14  0.12500000000E+03  0.12500000000E+03 0.  0.
    3000001    1    3    3    0    0  0.12003828067E+01  0.12029220310E+01 -0.11105163076E+01  0.22630039250E+01  0.10000000000E+01 0. -1.
    1000022    2    1    0    0    0  0.24753202210E+02  0.56219284310E+02  0.57376885776E+01  0.62500001116E+02  0.10000006065E+02 0.  0.
    3000022    2    3    3    0    0  0.23552819403E+02  0.55016362279E+02  0.68482048852E+01  0.60236997191E+02  0.25000035156E+00 0.  0.
    1000022    2    1    0    0    0 -0.24753202210E+02 -0.56219284310E+02 -0.57376885776E+01  0.62499998884E+02  0.99999921165E+01 0.  0.
    3000022    2    5    5    0    0 -0.20561110531E+02 -0.49892386979E+02 -0.79152887849E+01  0.54541028779E+02  0.24995782840E+00 0.  0.
        -13    1    4    4    0    0  0.16598382866E+02  0.38821601838E+02  0.47914180658E+01  0.42492255708E+02  0.10500000000E+00 0. -1.
         13    1    4    4    0    0  0.69544365370E+01  0.16194760441E+02  0.20567868194E+01  0.17744741483E+02  0.10500000000E+00 0.  1.
    3000001    1    5    5    0    0 -0.41920916792E+01 -0.63268973306E+01  0.21776002073E+01  0.79589701056E+01  0.10000000000E+01 0.  1.
        -13    1    6    6    0    0 -0.14906823793E+02 -0.36075163968E+02 -0.57145240379E+01  0.39449938668E+02  0.10500000000E+00 0.  1.
         13    1    6    6    0    0 -0.56542867372E+01 -0.13817223012E+02 -0.22007647471E+01  0.15091090111E+02  0.10500000000E+00 0. -1.
</event>
<event>
11    0  0.3422856E-009  0.9118800E+02  0.7816531E-02  0.1126479E+00
         25   -1    0    0    0    0  0.00000000000E+00  0.00000000000E+00  0.99999998245E-14  0.12500000000E+03  0.12500000000E+03 0.  0.
    3000001    1    3    3    0    0 -0.11909339027E+02  0.30459350750E+02 -0.91962791232E+01  0.33987879514E+02  0.10000000000E+01 0.  1.
    1000022    2    1    0    0    0 -0.27804815942E+02  0.54102460291E+02 -0.10298839099E+02  0.62499998934E+02  0.99999890415E+01 0.  0.
    3000022    2    3    3    0    0 -0.15895476915E+02  0.23643109541E+02 -0.11025599761E+01  0.28512119420E+02  0.25000033331E+00 0.  0.
    1000022    2    1    0    0    0  0.27804815942E+02 -0.54102460291E+02  0.10298839099E+02  0.62500001066E+02  0.10000002370E+02 0.  0.
    3000022    2    5    5    0    0  0.28066949411E+01 -0.96556887096E+01 -0.14438844266E+01  0.10161553312E+02  0.25000503157E+00 0.  0.
        -13    1    4    4    0    0 -0.79524209170E+01  0.11948024486E+02 -0.56783800397E+00  0.14364182976E+02  0.10500000000E+00 0. -1.
         13    1    4    4    0    0 -0.79430559984E+01  0.11695085055E+02 -0.53472197211E+00  0.14147936444E+02  0.10500000000E+00 0.  1.
    3000001    1    5    5    0    0  0.24998121001E+02 -0.44446771581E+02  0.11742723526E+02  0.52338447755E+02  0.10000000000E+01 0. -1.
        -13    1    6    6    0    0  0.18907378112E+01 -0.65025664411E+01 -0.91954753684E+00  0.68348264399E+01  0.10500000000E+00 0.  1.
         13    1    6    6    0    0  0.91595712983E+00 -0.31531222686E+01 -0.52433688976E+00  0.33267268716E+01  0.10500000000E+00 0. -1.
</event>
<event>
11    0  0.3422856E-009  0.9118800E+02  0.7816531E-02  0.1126479E+00
         25   -1    0    0    0    0  0.00000000000E+00  0.00000000000E+00  0.99999998245E-14  0.12500000000E+03  0.12500000000E+03 0.  0.
    3000001    1    3    3    0    0  0.24729302723E+02  0.30895834899E+02  0.18539217457E+02  0.43712625306E+02  0.10000000000E+01 0. -1.
    1000022    2    1    0    0    0  0.30722131013E+02  0.43585035082E+02  0.31028138438E+02  0.62499999859E+02  0.99999995205E+01 0.  0.
    3000022    2    3    3    0    0  0.59928282905E+01  0.12689200183E+02  0.12488920982E+02  0.18787374553E+02  0.25000623223E+00 0.  0.
    1000022    2    1    0    0    0 -0.30722131013E+02 -0.43585035082E+02 -0.31028138438E+02  0.62500000141E+02  0.10000001277E+02 0.  0.
    3000022    2    5    5    0    0 -0.11327910334E+02 -0.23803091596E+02 -0.17602482987E+02  0.31698875029E+02  0.25009746849E+00 0.  0.
        -13    1    4    4    0    0  0.31673557680E+01  0.66105611203E+01  0.64514144991E+01  0.97654203660E+01  0.10500000000E+00 0. -1.
         13    1    4    4    0    0  0.28254725224E+01  0.60786390623E+01  0.60375064828E+01  0.90219541871E+01  0.10500000000E+00 0.  1.
    3000001    1    5    5    0    0 -0.19394220679E+02 -0.19781943486E+02 -0.13425655451E+02  0.30801125111E+02  0.10000000000E+01 0.  1.
        -13    1    6    6    0    0 -0.52802188603E+01 -0.11251327045E+02 -0.83084895586E+01  0.14950421240E+02  0.10500000000E+00 0.  1.
         13    1    6    6    0    0 -0.60476914737E+01 -0.12551764550E+02 -0.92939934287E+01  0.16748453790E+02  0.10500000000E+00 0. -1.
</event>
<event>
11    0  0.3422856E-009  0.9118800E+02  0.7816531E-02  0.1126479E+00
         25   -1    0    0    0    0  0.00000000000E+00  0.00000000000E+00  0.99999998245E-14  0.12500000000E+03  0.12500000000E+03 0.  0.
    3000001    1    3    3    0    0  0.90645790156E+00  0.82424707617E+01  0.53528719476E+01  0.99203441610E+01  0.10000000000E+01 0. -1.
    1000022    2    1    0    0    0  0.17092596931E+02  0.37296725869E+02  0.46076538036E+02  0.62500000836E+02  0.10000005836E+02 0.  0.
    3000022    2    3    3    0    0  0.16186139029E+02  0.29054255107E+02  0.40723666088E+02  0.52579656675E+02  0.24995972023E+00 0.  0.
    1000022    2    1    0    0    0 -0.17092596931E+02 -0.37296725869E+02 -0.46076538036E+02  0.62499999164E+02  0.99999953877E+01 0.  0.
    3000022    2    5    5    0    0 -0.15646324043E+02 -0.37187659180E+02 -0.44986757262E+02  0.60428472446E+02  0.25000379897E+00 0.  0.
        -13    1    4    4    0    0  0.59869336817E+01  0.10625420552E+02  0.14937746476E+02  0.19284455699E+02  0.10500000000E+00 0.  1.
         13    1    4    4    0    0  0.10199205348E+02  0.18428834555E+02  0.25785919612E+02  0.33295200976E+02  0.10500000000E+00 0. -1.
    3000001    1    5    5    0    0 -0.14462728877E+01 -0.10906668939E+00 -0.10897807741E+01  0.20715267181E+01  0.10000000000E+01 0. -1.
        -13    1    6    6    0    0 -0.10172392269E+02 -0.24030385627E+02 -0.29093926549E+02  0.39082023808E+02  0.10500000000E+00 0.  1.
         13    1    6    6    0    0 -0.54739317740E+01 -0.13157273553E+02 -0.15892830713E+02  0.21346448638E+02  0.10500000000E+00 0. -1.
</event>
<event>
11    0  0.3422856E-009  0.9118800E+02  0.7816531E-02  0.1126479E+00
         25   -1    0    0    0    0  0.00000000000E+00  0.00000000000E+00  0.99999998245E-14  0.12500000000E+03  0.12500000000E+03 0.  0.
    3000001    1    3    3    0    0 -0.25310644293E+02  0.26731357911E+02 -0.95396676992E+01  0.38042074997E+02  0.10000000000E+01 0.  1.
    1000022    2    1    0    0    0 -0.35230106856E+02  0.46731047840E+02 -0.19526871871E+02  0.62499999723E+02  0.99999989499E+01 0.  0.
    3000022    2    3    3    0    0 -0.99194625629E+01  0.19999689928E+02 -0.99872041721E+01  0.24457924725E+02  0.24999984897E+00 0.  0.
    1000022    2    1    0    0    0  0.35230106856E+02 -0.46731047840E+02  0.19526871871E+02  0.62500000277E+02  0.10000002418E+02 0.  0.
    3000022    2    5    5    0    0  0.32678465706E+02 -0.43980189713E+02  0.20491803301E+02  0.58498852235E+02  0.25000447580E+00 0.  0.
        -13    1    4    4    0    0 -0.61185830890E+01  0.12201399150E+02 -0.60895435460E+01  0.14946730941E+02  0.10500000000E+00 0. -1.
         13    1    4    4    0    0 -0.38008794739E+01  0.77982907782E+01 -0.38976606261E+01  0.95111937838E+01  0.10500000000E+00 0.  1.
    3000001    1    5    5    0    0  0.25516411498E+01 -0.27508581270E+01 -0.96493143001E+00  0.40011480423E+01  0.10000000000E+01 0. -1.
        -13    1    6    6    0    0  0.24385643776E+02 -0.32829877385E+02  0.15324220661E+02  0.43672682942E+02  0.10500000000E+00 0.  1.
         13    1    6    6    0    0  0.82928219296E+01 -0.11150312328E+02  0.51675826406E+01  0.14826169293E+02  0.10500000000E+00 0. -1.
</event>
<event>
11    0  0.3422856E-009  0.9118800E+02  0.7816531E-02  0.1126479E+00
         25   -1    0    0    0    0  0.00000000000E+00  0.00000000000E+00  0.99999998245E-14  0.12500000000E+03  0.12500000000E+03 0.  0.
    3000001    1    3    3    0    0  0.33525322251E+00  0.16506950049E+01 -0.24231599886E+02  0.24310648320E+02  0.10000000000E+01 0.  1.
    1000022    2    1    0    0    0 -0.88930381397E+01  0.11474388603E+02 -0.59962507854E+02  0.62500000471E+02  0.99999994754E+01 0.  0.
    3000022    2    3    3    0    0 -0.92282913622E+01  0.98236935981E+01 -0.35730907969E+02  0.38189352151E+02  0.25003211047E+00 0.  0.
    1000022    2    1    0    0    0  0.88930381397E+01 -0.11474388603E+02  0.59962507854E+02  0.62499999529E+02  0.99999935908E+01 0.  0.
    3000022    2    5    5    0    0  0.80748730772E+01 -0.73595102268E+01  0.25155101683E+02  0.27426403442E+02  0.24999817739E+00 0.  0.
        -13    1    4    4    0    0 -0.21529407276E+01  0.23099532802E+01 -0.83568091622E+01  0.89341100456E+01  0.10500000000E+00 0. -1.
         13    1    4    4    0    0 -0.70753506346E+01  0.75137403178E+01 -0.27374098806E+02  0.29255242105E+02  0.10500000000E+00 0.  1.
    3000001    1    5    5    0    0  0.81816506248E+00 -0.41148783761E+01  0.34807406171E+02  0.35073596087E+02  0.10000000000E+01 0. -1.
        -13    1    6    6    0    0  0.58983838993E+01 -0.53373709717E+01  0.18253761969E+02  0.19912039387E+02  0.10500000000E+00 0. -1.
         13    1    6    6    0    0  0.21764891779E+01 -0.20221392551E+01  0.69013397135E+01  0.75143640550E+01  0.10500000000E+00 0.  1.
</event>
<event>
11    0  0.3422856E-009  0.9118800E+02  0.7816531E-02  0.1126479E+00
         25   -1    0    0    0    0  0.00000000000E+00  0.00000000000E+00  0.99999998245E-14  0.12500000000E+03  0.12500000000E+03 0.  0.
    3000001    1    3    3    0    0  0.15740401630E+02 -0.20822244096E+02 -0.51225252021E+02  0.57500891622E+02  0.10000000000E+01 0.  1.
    1000022    2    1    0    0    0  0.18935289229E+02 -0.23757440192E+02 -0.53696265000E+02  0.62500000385E+02  0.10000001520E+02 0.  0.
    3000022    2    3    3    0    0  0.31948875987E+01 -0.29351960960E+01 -0.24710129795E+01  0.49991087629E+01  0.25000077623E+00 0.  0.
    1000022    2    1    0    0    0 -0.18935289229E+02  0.23757440192E+02  0.53696265000E+02  0.62499999615E+02  0.99999967133E+01 0.  0.
    3000022    2    5    5    0    0 -0.10986797728E+01 -0.73025532111E+00  0.46775241478E+01  0.48664258652E+01  0.24999694273E+00 0.  0.
        -13    1    4    4    0    0  0.17736678709E+01 -0.16942377649E+01 -0.14484520897E+01  0.28505048283E+01  0.10500000000E+00 0. -1.
         13    1    4    4    0    0  0.14212197278E+01 -0.12409583311E+01 -0.10225608898E+01  0.21486039346E+01  0.10500000000E+00 0.  1.
    3000001    1    5    5    0    0 -0.17836609456E+02  0.24487695514E+02  0.49018740853E+02  0.57633573750E+02  0.10000000000E+01 0.  1.
        -13    1    6    6    0    0 -0.26048452443E+00 -0.20857531234E+00  0.12039978812E+01  0.12537909501E+01  0.10500000000E+00 0.  1.
         13    1    6    6    0    0 -0.83819524837E+00 -0.52168000876E+00  0.34735262666E+01  0.36126349152E+01  0.10500000000E+00 0. -1.
</event>
<event>
11    0  0.3422856E-009  0.9118800E+02  0.7816531E-02  0.1126479E+00
         25   -1    0    0    0    0  0.00000000000E+00  0.00000000000E+00  0.99999998245E-14  0.12500000000E+03  0.12500000000E+03 0.  0.
    3000001    1    3    3    0    0  0.12673818414E+02 -0.35300864524E+01 -0.27231533479E+02  0.30259603421E+02  0.10000000000E+01 0. -1.
    1000022    2    1    0    0    0  0.30910284604E+02 -0.14854696921E+02 -0.51284913881E+02  0.62499999159E+02  0.99999894055E+01 0.  0.
    3000022    2    3    3    0    0  0.18236466190E+02 -0.11324610469E+02 -0.24053380402E+02  0.32240395738E+02  0.25001440651E+00 0.  0.
    1000022    2    1    0    0    0 -0.30910284604E+02  0.14854696921E+02  0.51284913881E+02  0.62500000841E+02  0.99999999177E+01 0.  0.
    3000022    2    5    5    0    0 -0.62838519363E+01 -0.25765491318E+00  0.13745536718E+02  0.15118050673E+02  0.24999053696E+00 0.  0.
        -13    1    4    4    0    0  0.59219992884E+01 -0.37010560133E+01 -0.78973753074E+01  0.10542649237E+02  0.10500000000E+00 0.  1.
         13    1    4    4    0    0  0.12314466902E+02 -0.76235544557E+01 -0.16156005095E+02  0.21697746501E+02  0.10500000000E+00 0. -1.
    3000001    1    5    5    0    0 -0.24626432668E+02  0.15112351835E+02  0.37539377164E+02  0.47381950168E+02  0.10000000000E+01 0. -1.
        -13    1    6    6    0    0 -0.20892439239E+01 -0.11343934712E+00  0.46857890567E+01  0.51327821640E+01  0.10500000000E+00 0.  1.
         13    1    6    6    0    0 -0.41946080124E+01 -0.14421556606E+00  0.90597476611E+01  0.99852685087E+01  0.10500000000E+00 0. -1.
</event>
<event>
11    0  0.3422856E-009  0.9118800E+02  0.7816531E-02  0.1126479E+00
         25   -1    0    0    0    0  0.00000000000E+00  0.00000000000E+00  0.99999998245E-14  0.12500000000E+03  0.12500000000E+03 0.  0.
    3000001    1    3    3    0    0  0.21317676478E+01 -0.44717443496E+00  0.59304875725E+01  0.63964897504E+01  0.10000000000E+01 0.  1.
    1000022    2    1    0    0    0  0.13457063713E+01  0.15839499362E+02  0.59611654610E+02  0.62499999729E+02  0.99999967549E+01 0.  0.
    3000022    2    3    3    0    0 -0.78606127651E+00  0.16286673797E+02  0.53681167037E+02  0.56103509978E+02  0.25000340740E+00 0.  0.
    1000022    2    1    0    0    0 -0.13457063713E+01 -0.15839499362E+02 -0.59611654610E+02  0.62500000271E+02  0.10000000148E+02 0.  0.
    3000022    2    5    5    0    0 -0.36354958498E+01 -0.15847497844E+02 -0.52619886051E+02  0.55075175195E+02  0.24999357038E+00 0.  0.
        -13    1    4    4    0    0 -0.26513023040E+00  0.62057958071E+01  0.20277246229E+02  0.21207544301E+02  0.10500000000E+00 0.  1.
         13    1    4    4    0    0 -0.52093104611E+00  0.10080877990E+02  0.33403920808E+02  0.34895965677E+02  0.10500000000E+00 0. -1.
    3000001    1    5    5    0    0  0.22897894785E+01  0.79984825941E-02 -0.69917685590E+01  0.74248250763E+01  0.10000000000E+01 0. -1.
        -13    1    6    6    0    0 -0.12096687918E+01 -0.50605783583E+01 -0.16900947083E+02  0.17684054659E+02  0.10500000000E+00 0.  1.
         13    1    6    6    0    0 -0.24258270579E+01 -0.10786919486E+02 -0.35718938968E+02  0.37391120536E+02  0.10500000000E+00 0. -1.
</event>
<event>
11    0  0.3422856E-009  0.9118800E+02  0.7816531E-02  0.1126479E+00
         25   -1    0    0    0    0  0.00000000000E+00  0.00000000000E+00  0.99999998245E-14  0.12500000000E+03  0.12500000000E+03 0.  0.
    3000001    1    3    3    0    0 -0.51701301570E+01 -0.16229148716E+02 -0.24484915080E+02  0.29843367443E+02  0.10000000000E+01 0.  1.
    1000022    2    1    0    0    0 -0.19421506975E+02 -0.36254831629E+02 -0.45985233206E+02  0.62500003788E+02  0.10000052545E+02 0.  0.
    3000022    2    3    3    0    0 -0.14251376818E+02 -0.20025682914E+02 -0.21500318126E+02  0.32656636345E+02  0.25000100898E+00 0.  0.
    1000022    2    1    0    0    0  0.19421506975E+02  0.36254831629E+02  0.45985233206E+02  0.62499996212E+02  0.10000005191E+02 0.  0.
    3000022    2    5    5    0    0  0.21820764515E+01  0.10819254277E+02  0.80074360983E+01  0.13638153910E+02  0.24997687911E+00 0.  0.
        -13    1    4    4    0    0 -0.71867352483E+01 -0.10176610593E+02 -0.10964944855E+02  0.16596795093E+02  0.10500000000E+00 0. -1.
         13    1    4    4    0    0 -0.70646415697E+01 -0.98490723205E+01 -0.10535373272E+02  0.16059841252E+02  0.10500000000E+00 0.  1.
    3000001    1    5    5    0    0  0.17239430523E+02  0.25435577352E+02  0.37977797108E+02  0.48861842302E+02  0.10000000000E+01 0.  1.
        -13    1    6    6    0    0  0.10340017739E+01  0.53876967842E+01  0.39255893251E+01  0.67466816182E+01  0.10500000000E+00 0.  1.
         13    1    6    6    0    0  0.11480746776E+01  0.54315574931E+01  0.40818467732E+01  0.68914722916E+01  0.10500000000E+00 0.  1.
</event>
<event>
11    0  0.3422856E-009  0.9118800E+02  0.7816531E-02  0.1126479E+00
         25   -1    0    0    0    0  0.00000000000E+00  0.00000000000E+00  0.99999998245E-14  0.12500000000E+03  0.12500000000E+03 0.  0.
    3000001    1    3    3    0    0  0.41680767641E+01 -0.32823742972E+02 -0.38965100931E+02  0.51127781657E+02  0.10000000000E+01 0. -1.
    1000022    2    1    0    0    0  0.30728892579E+01 -0.42776937219E+02 -0.44350208394E+02  0.62500001892E+02  0.10000012284E+02 0.  0.
    3000022    2    3    3    0    0 -0.10951875062E+01 -0.99531942471E+01 -0.53851074627E+01  0.11372220235E+02  0.24999858259E+00 0.  0.
    1000022    2    1    0    0    0 -0.30728892579E+01  0.42776937219E+02  0.44350208394E+02  0.62499998108E+02  0.99999886357E+01 0.  0.
    3000022    2    5    5    0    0 -0.24312852831E+01  0.16314614868E+02  0.10651278085E+02  0.19636446414E+02  0.24999301971E+00 0.  0.
        -13    1    4    4    0    0 -0.69279544773E+00 -0.59914952418E+01 -0.31828341700E+01  0.68205160449E+01  0.10500000000E+00 0.  1.
         13    1    4    4    0    0 -0.40239205842E+00 -0.39616990053E+01 -0.22022732927E+01  0.45517041900E+01  0.10500000000E+00 0. -1.
    3000001    1    5    5    0    0 -0.64160397481E+00  0.26462322351E+02  0.33698930309E+02  0.42863551694E+02  0.10000000000E+01 0. -1.
        -13    1    6    6    0    0 -0.95390159053E+00  0.68194108786E+01  0.44692957788E+01  0.82097455950E+01  0.10500000000E+00 0.  1.
         13    1    6    6    0    0 -0.14773836926E+01  0.94952039896E+01  0.61819823061E+01  0.11426700819E+02  0.10500000000E+00 0. -1.
</event>
<event>
11    0  0.3422856E-009  0.9118800E+02  0.7816531E-02  0.1126479E+00
         25   -1    0    0    0    0  0.00000000000E+00  0.00000000000E+00  0.99999998245E-14  0.12500000000E+03  0.12500000000E+03 0.  0.
    3000001    1    3    3    0    0 -0.41864516389E+01  0.64817304027E+01 -0.74870361836E+01  0.10797912629E+02  0.10000000000E+01 0.  1.
    1000022    2    1    0    0    0 -0.59293864637E+01  0.31868165943E+02 -0.52492973634E+02  0.62499999974E+02  0.10000004569E+02 0.  0.
    3000022    2    3    3    0    0 -0.17429348247E+01  0.25386435540E+02 -0.45005937451E+02  0.51702087344E+02  0.24999745274E+00 0.  0.
    1000022    2    1    0    0    0  0.59293864637E+01 -0.31868165943E+02  0.52492973634E+02  0.62500000026E+02  0.10000004895E+02 0.  0.
    3000022    2    5    5    0    0  0.27432291347E+01 -0.65396126363E+01  0.53763965042E+01  0.89028074543E+01  0.25000335983E+00 0.  0.
        -13    1    4    4    0    0 -0.11176725331E+01  0.15542391325E+02 -0.27487514357E+02  0.31597303532E+02  0.10500000000E+00 0.  1.
         13    1    4    4    0    0 -0.62526229166E+00  0.98440442153E+01 -0.17518423094E+02  0.20104783813E+02  0.10500000000E+00 0. -1.
    3000001    1    5    5    0    0  0.31861573290E+01 -0.25328553306E+02  0.47116577130E+02  0.53597192572E+02  0.10000000000E+01 0.  1.
        -13    1    6    6    0    0  0.16203684126E+01 -0.36991564211E+01  0.30822901039E+01  0.50814259126E+01  0.10500000000E+00 0.  1.
         13    1    6    6    0    0  0.11228607221E+01 -0.28404562152E+01  0.22941064002E+01  0.38213815417E+01  0.10500000000E+00 0. -1.
</event>
<event>
11    0  0.3422856E-009  0.9118800E+02  0.7816531E-02  0.1126479E+00
         25   -1    0    0    0    0  0.00000000000E+00  0.00000000000E+00  0.99999998245E-14  0.12500000000E+03  0.12500000000E+03 0.  0.
    3000001    1    3    3    0    0 -0.48291697366E+02 -0.23057254528E+02 -0.14349131650E+02  0.55413198788E+02  0.10000000000E+01 0. -1.
    1000022    2    1    0    0    0 -0.52369649549E+02 -0.28753004889E+02 -0.15392674117E+02  0.62499999648E+02  0.10000002771E+02 0.  0.
    3000022    2    3    3    0    0 -0.40779521833E+01 -0.56957503611E+01 -0.10435424669E+01  0.70868008592E+01  0.24999870574E+00 0.  0.
    1000022    2    1    0    0    0  0.52369649549E+02  0.28753004889E+02  0.15392674117E+02  0.62500000352E+02  0.10000007176E+02 0.  0.
    3000022    2    5    5    0    0  0.42974637025E+01  0.58716214615E+01  0.26441109563E+01  0.77458350104E+01  0.25000879304E+00 0.  0.
        -13    1    4    4    0    0 -0.23494353705E+01 -0.31902134153E+01 -0.55081561892E+00  0.40014661115E+01  0.10500000000E+00 0. -1.
         13    1    4    4    0    0 -0.17285168127E+01 -0.25055369458E+01 -0.49272684801E+00  0.30853347477E+01  0.10500000000E+00 0.  1.
    3000001    1    5    5    0    0  0.48072185847E+02  0.22881383427E+02  0.12748563160E+02  0.54754165342E+02  0.10000000000E+01 0. -1.
        -13    1    6    6    0    0  0.22910692288E+01  0.30158401044E+01  0.13733637129E+01  0.40300673238E+01  0.10500000000E+00 0.  1.
         13    1    6    6    0    0  0.20063944737E+01  0.28557813572E+01  0.12707472433E+01  0.37157676866E+01  0.10500000000E+00 0. -1.
</event>
<event>
11    0  0.3422856E-009  0.9118800E+02  0.7816531E-02  0.1126479E+00
         25   -1    0    0    0    0  0.00000000000E+00  0.00000000000E+00  0.99999998245E-14  0.12500000000E+03  0.12500000000E+03 0.  0.
    3000001    1    3    3    0    0 -0.17871181497E+01  0.36923257437E+01 -0.45567377421E+02  0.45762571449E+02  0.10000000000E+01 0.  1.
    1000022    2    1    0    0    0 -0.69510430702E+01  0.86823125859E+01 -0.60684021562E+02  0.62500000209E+02  0.10000000083E+02 0.  0.
    3000022    2    3    3    0    0 -0.51639249205E+01  0.49899868422E+01 -0.15116644141E+02  0.16737428760E+02  0.25000425753E+00 0.  0.
    1000022    2    1    0    0    0  0.69510430702E+01 -0.86823125859E+01  0.60684021562E+02  0.62499999791E+02  0.99999974671E+01 0.  0.
    3000022    2    5    5    0    0 -0.37034587939E+00 -0.48060175134E+01  0.96663135447E+01  0.10804401033E+02  0.25000744564E+00 0.  0.
        -13    1    4    4    0    0 -0.33021203274E+01  0.32646728503E+01 -0.98208077439E+01  0.10863764413E+02  0.10500000000E+00 0. -1.
         13    1    4    4    0    0 -0.18618045932E+01  0.17253139919E+01 -0.52958363973E+01  0.58736643470E+01  0.10500000000E+00 0.  1.
    3000001    1    5    5    0    0  0.73213889496E+01 -0.38762950725E+01  0.51017708017E+02  0.51695598758E+02  0.10000000000E+01 0.  1.
        -13    1    6    6    0    0 -0.22325133512E+00 -0.23983075780E+01  0.49549056116E+01  0.55103389203E+01  0.10500000000E+00 0. -1.
         13    1    6    6    0    0 -0.14709454428E+00 -0.24077099354E+01  0.47114079332E+01  0.52940621125E+01  0.10500000000E+00 0.  1.
</event>
<event>
11    0  0.3422856E-009  0.9118800E+02  0.7816531E-02  0.1126479E+00
         25   -1    0    0    0    0  0.00000000000E+00  0.00000000000E+00  0.99999998245E-14  0.12500000000E+03  0.12500000000E+03 0.  0.
    3000001    1    3    3    0    0 -0.52807350817E+01  0.33880317203E+01 -0.26797226150E+02  0.27540084445E+02  0.10000000000E+01 0.  1.
    1000022    2    1    0    0    0 -0.22285519524E+02  0.53900416605E+01 -0.57276111139E+02  0.62499999490E+02  0.10000004976E+02 0.  0.
    3000022    2    3    3    0    0 -0.17004784442E+02  0.20020099402E+01 -0.30478884989E+02  0.34959915045E+02  0.24998404807E+00 0.  0.
    1000022    2    1    0    0    0  0.22285519524E+02 -0.53900416605E+01  0.57276111139E+02  0.62500000510E+02  0.10000011349E+02 0.  0.
    3000022    2    5    5    0    0  0.38294245599E+01 -0.36499647772E+01  0.61972731674E+01  0.81520198905E+01  0.24999649808E+00 0.  0.
        -13    1    4    4    0    0 -0.12106951897E+02  0.14515330481E+01 -0.21772271495E+02  0.24954519901E+02  0.10500000000E+00 0.  1.
         13    1    4    4    0    0 -0.48978325456E+01  0.55047689209E+00 -0.87066134941E+01  0.10005395144E+02  0.10500000000E+00 0. -1.
    3000001    1    5    5    0    0  0.18456094964E+02 -0.17400768834E+01  0.51078837971E+02  0.54347980619E+02  0.10000000000E+01 0.  1.
        -13    1    6    6    0    0  0.21609415384E+01 -0.21478840342E+01  0.35870776525E+01  0.47075710554E+01  0.10500000000E+00 0.  1.
         13    1    6    6    0    0  0.16684830215E+01 -0.15020807430E+01  0.26101955149E+01  0.34444488351E+01  0.10500000000E+00 0. -1.
</event>
<event>
11    0  0.3422856E-009  0.9118800E+02  0.7816531E-02  0.1126479E+00
         25   -1    0    0    0    0  0.00000000000E+00  0.00000000000E+00  0.99999998245E-14  0.12500000000E+03  0.12500000000E+03 0.  0.
    3000001    1    3    3    0    0 -0.11910886878E+02  0.71292182635E+01  0.36916989660E+00  0.13922329751E+02  0.10000000000E+01 0.  1.
    1000022    2    1    0    0    0 -0.41851209972E+02  0.45217498067E+02 -0.31787084024E+01  0.62499998938E+02  0.99999886285E+01 0.  0.
    3000022    2    3    3    0    0 -0.29940323094E+02  0.38088279803E+02 -0.35478782990E+01  0.48577669187E+02  0.24999578092E+00 0.  0.
    1000022    2    1    0    0    0  0.41851209972E+02 -0.45217498067E+02  0.31787084024E+01  0.62500001062E+02  0.10000001908E+02 0.  0.
    3000022    2    5    5    0    0  0.22823492271E+02 -0.23423166295E+02 -0.31850373790E+01  0.32859754797E+02  0.25000702412E+00 0.  0.
        -13    1    4    4    0    0 -0.21171143211E+02  0.26916739379E+02 -0.24649323938E+01  0.34333876571E+02  0.10500000000E+00 0.  1.
         13    1    4    4    0    0 -0.87691798824E+01  0.11171540424E+02 -0.10829459052E+01  0.14243792616E+02  0.10500000000E+00 0. -1.
    3000001    1    5    5    0    0  0.19027717701E+02 -0.21794331772E+02  0.63637457814E+01  0.29640246265E+02  0.10000000000E+01 0.  1.
        -13    1    6    6    0    0  0.12306486875E+02 -0.12700734862E+02 -0.16768419959E+01  0.17764602706E+02  0.10500000000E+00 0. -1.
         13    1    6    6    0    0  0.10517005396E+02 -0.10722431433E+02 -0.15081953831E+01  0.15095152091E+02  0.10500000000E+00 0.  1.
</event>
<event>
11    0  0.3422856E-009  0.9118800E+02  0.7816531E-02  0.1126479E+00
         25   -1    0    0    0    0  0.00000000000E+00  0.00000000000E+00  0.99999998245E-14  0.12500000000E+03  0.12500000000E+03 0.  0.
    3000001    1    3    3    0    0 -0.88189534245E+01  0.16632030486E+02  0.11256149199E+02  0.21956759150E+02  0.10000000000E+01 0.  1.
    1000022    2    1    0    0    0 -0.31326735699E+02  0.37120391831E+02  0.38038954644E+02  0.62500000018E+02  0.10000003628E+02 0.  0.
    3000022    2    3    3    0    0 -0.22507782275E+02  0.20488361346E+02  0.26782805445E+02  0.40543240868E+02  0.24999804984E+00 0.  0.
    1000022    2    1    0    0    0  0.31326735699E+02 -0.37120391831E+02 -0.38038954644E+02  0.62499999982E+02  0.10000003402E+02 0.  0.
    3000022    2    5    5    0    0  0.48214248724E+01 -0.20993180809E+01 -0.18436676191E+01  0.55780717689E+01  0.25000032990E+00 0.  0.
        -13    1    4    4    0    0 -0.87343802861E+01  0.78938082473E+01  0.10419817063E+02  0.15722125183E+02  0.10500000000E+00 0. -1.
         13    1    4    4    0    0 -0.13773401989E+02  0.12594553098E+02  0.16362988381E+02  0.24821115685E+02  0.10500000000E+00 0.  1.
    3000001    1    5    5    0    0  0.26505310827E+02 -0.35021073750E+02 -0.36195287025E+02  0.56921928213E+02  0.10000000000E+01 0.  1.
        -13    1    6    6    0    0  0.32565560047E+01 -0.14561634692E+01 -0.12103895969E+01  0.37685059423E+01  0.10500000000E+00 0. -1.
         13    1    6    6    0    0  0.15648688677E+01 -0.64315461166E+00 -0.63327802221E+00  0.18095658267E+01  0.10500000000E+00 0.  1.
</event>
<event>
11    0  0.3422856E-009  0.9118800E+02  0.7816531E-02  0.1126479E+00
         25   -1    0    0    0    0  0.00000000000E+00  0.00000000000E+00  0.99999998245E-14  0.12500000000E+03  0.12500000000E+03 0.  0.
    3000001    1    3    3    0    0  0.11675366079E+02 -0.25684321941E+01 -0.89762708985E+01  0.14982805354E+02  0.10000000000E+01 0.  1.
    1000022    2    1    0    0    0  0.54487163249E+02  0.32399853382E+01 -0.28755898438E+02  0.62500000736E+02  0.99999966554E+01 0.  0.
    3000022    2    3    3    0    0  0.42811797170E+02  0.58084175323E+01 -0.19779627540E+02  0.47517195383E+02  0.25000054984E+00 0.  0.
    1000022    2    1    0    0    0 -0.54487163249E+02 -0.32399853382E+01  0.28755898438E+02  0.62499999264E+02  0.99999874524E+01 0.  0.
    3000022    2    5    5    0    0 -0.38683598317E+02 -0.53554537693E+01  0.23969709250E+02  0.45822605037E+02  0.25001406081E+00 0.  0.
        -13    1    4    4    0    0  0.26765584666E+02  0.35813029616E+01 -0.12400371972E+02  0.29715358040E+02  0.10500000000E+00 0. -1.
         13    1    4    4    0    0  0.16046212504E+02  0.22271145707E+01 -0.73792555683E+01  0.17801837343E+02  0.10500000000E+00 0.  1.
    3000001    1    5    5    0    0 -0.15803564932E+02  0.21154684311E+01  0.47861891884E+01  0.16677394227E+02  0.10000000000E+01 0.  1.
        -13    1    6    6    0    0 -0.11806490423E+02 -0.15970167910E+01  0.73468929324E+01  0.13997554769E+02  0.10500000000E+00 0.  1.
         13    1    6    6    0    0 -0.26877107894E+02 -0.37584369783E+01  0.16622816317E+02  0.31825050268E+02  0.10500000000E+00 0. -1.
</event>
<event>
11    0  0.3422856E-009  0.9118800E+02  0.7816531E-02  0.1126479E+00
         25   -1    0    0    0    0  0.00000000000E+00  0.00000000000E+00  0.99999998245E-14  0.12500000000E+03  0.12500000000E+03 0.  0.
    3000001    1    3    3    0    0  0.38372298309E+01 -0.14012239764E+01 -0.73304377836E+00  0.42690882619E+01  0.10000000000E+01 0. -1.
    1000022    2    1    0    0    0  0.53840040595E+02 -0.19132955736E+02  0.23268646141E+02  0.62499999155E+02  0.10000001732E+02 0.  0.
    3000022    2    3    3    0    0  0.50002810764E+02 -0.17731731760E+02  0.24001689919E+02  0.58230910893E+02  0.24993782074E+00 0.  0.
    1000022    2    1    0    0    0 -0.53840040595E+02  0.19132955736E+02 -0.23268646141E+02  0.62500000845E+02  0.10000012300E+02 0.  0.
    3000022    2    5    5    0    0 -0.41487091011E+02  0.10213225443E+02 -0.16601190270E+02  0.45838310663E+02  0.25002324624E+00 0.  0.
        -13    1    4    4    0    0  0.33649500226E+02 -0.11882674696E+02  0.16119422811E+02  0.39157804333E+02  0.10500000000E+00 0.  1.
         13    1    4    4    0    0  0.16353310538E+02 -0.58490570639E+01  0.78822671078E+01  0.19073106560E+02  0.10500000000E+00 0. -1.
    3000001    1    5    5    0    0 -0.12352949584E+02  0.89197302929E+01 -0.66674558711E+01  0.16661690182E+02  0.10000000000E+01 0.  1.
        -13    1    6    6    0    0 -0.24294276850E+02  0.59290416192E+01 -0.96732758827E+01  0.26813219006E+02  0.10500000000E+00 0. -1.
         13    1    6    6    0    0 -0.17192814161E+02  0.42841838242E+01 -0.69279143869E+01  0.19025091657E+02  0.10500000000E+00 0.  1.
</event>
<event>
11    0  0.3422856E-009  0.9118800E+02  0.7816531E-02  0.1126479E+00
         25   -1    0    0    0    0  0.00000000000E+00  0.00000000000E+00  0.99999998245E-14  0.12500000000E+03  0.12500000000E+03 0.  0.
    3000001    1    3    3    0    0  0.29102499658E+02  0.33014803065E+02 -0.24754769614E+02  0.50504765383E+02  0.10000000000E+01 0. -1.
    1000022    2    1    0    0    0  0.37189797917E+02  0.41777162471E+02 -0.26035311145E+02  0.62499998686E+02  0.10000001801E+02 0.  0.
    3000022    2    3    3    0    0  0.80872982594E+01  0.87623594060E+01 -0.12805415310E+01  0.11995233302E+02  0.24999974047E+00 0.  0.
    1000022    2    1    0    0    0 -0.37189797917E+02 -0.41777162471E+02  0.26035311145E+02  0.62500001314E+02  0.10000018232E+02 0.  0.
    3000022    2    5    5    0    0 -0.27219295664E+02 -0.36267365934E+02  0.21693074639E+02  0.50267920913E+02  0.24999487411E+00 0.  0.
        -13    1    4    4    0    0  0.46808026501E+01  0.50110238136E+01 -0.68540782349E+00  0.68921028717E+01  0.10500000000E+00 0. -1.
         13    1    4    4    0    0  0.34064956092E+01  0.37513355924E+01 -0.59513370749E+00  0.51031304306E+01  0.10500000000E+00 0.  1.
    3000001    1    5    5    0    0 -0.99705022534E+01 -0.55097965369E+01  0.43422365063E+01  0.12232080401E+02  0.10000000000E+01 0.  1.
        -13    1    6    6    0    0 -0.67647026567E+01 -0.89942590412E+01  0.53592353315E+01  0.12465565614E+02  0.10500000000E+00 0. -1.
         13    1    6    6    0    0 -0.20454593007E+02 -0.27273106893E+02  0.16333839307E+02  0.37802355299E+02  0.10500000000E+00 0.  1.
</event>
<event>
11    0  0.3422856E-009  0.9118800E+02  0.7816531E-02  0.1126479E+00
         25   -1    0    0    0    0  0.00000000000E+00  0.00000000000E+00  0.99999998245E-14  0.12500000000E+03  0.12500000000E+03 0.  0.
    3000001    1    3    3    0    0 -0.31194535321E+01 -0.89624395302E+01  0.73141700698E+01  0.12023036076E+02  0.10000000000E+01 0.  1.
    1000022    2    1    0    0    0 -0.29757153707E+01 -0.36898044472E+02  0.49355137090E+02  0.62500001978E+02  0.10000006113E+02 0.  0.
    3000022    2    3    3    0    0  0.14373816134E+00 -0.27935604941E+02  0.42040967020E+02  0.50476965902E+02  0.24998915675E+00 0.  0.
    1000022    2    1    0    0    0  0.29757153707E+01  0.36898044472E+02 -0.49355137090E+02  0.62499998022E+02  0.99999813867E+01 0.  0.
    3000022    2    5    5    0    0  0.57343273065E+01  0.23045977981E+02 -0.35325964669E+02  0.42567427573E+02  0.24999924948E+00 0.  0.
        -13    1    4    4    0    0  0.22413995836E-01 -0.66678199748E+01  0.10010446982E+02  0.12028316565E+02  0.10500000000E+00 0. -1.
         13    1    4    4    0    0  0.12132416550E+00 -0.21267784967E+02  0.32030520038E+02  0.38448649337E+02  0.10500000000E+00 0.  1.
    3000001    1    5    5    0    0 -0.27586119358E+01  0.13852066491E+02 -0.14029172421E+02  0.19932570449E+02  0.10000000000E+01 0.  1.
        -13    1    6    6    0    0  0.26380626490E+01  0.10863777020E+02 -0.16586895327E+02  0.20002928467E+02  0.10500000000E+00 0. -1.
         13    1    6    6    0    0  0.30962646575E+01  0.12182200961E+02 -0.18739069342E+02  0.22564499105E+02  0.10500000000E+00 0.  1.
</event>
<event>
11    0  0.3422856E-009  0.9118800E+02  0.7816531E-02  0.1126479E+00
         25   -1    0    0    0    0  0.00000000000E+00  0.00000000000E+00  0.99999998245E-14  0.12500000000E+03  0.12500000000E+03 0.  0.
    3000001    1    3    3    0    0  0.74098656130E+01 -0.37108971863E+02  0.54373911799E+01  0.38243262465E+02  0.10000000000E+01 0. -1.
    1000022    2    1    0    0    0  0.77501047228E+01 -0.61161822280E+02  0.23275014362E+01  0.62499999501E+02  0.10000002344E+02 0.  0.
    3000022    2    3    3    0    0  0.34023910980E+00 -0.24052850417E+02 -0.31098897437E+01  0.24256737036E+02  0.25000316551E+00 0.  0.
    1000022    2    1    0    0    0 -0.77501047228E+01  0.61161822280E+02 -0.23275014362E+01  0.62500000499E+02  0.10000008578E+02 0.  0.
    3000022    2    5    5    0    0 -0.31499201827E+01  0.40544936865E+01 -0.57177928330E+00  0.51720732975E+01  0.24998886795E+00 0.  0.
        -13    1    4    4    0    0  0.20524088851E+00 -0.12124769446E+02 -0.15083934732E+01  0.12220410542E+02  0.10500000000E+00 0. -1.
         13    1    4    4    0    0  0.13499822129E+00 -0.11928080971E+02 -0.16014962705E+01  0.12036326494E+02  0.10500000000E+00 0.  1.
    3000001    1    5    5    0    0 -0.46001845401E+01  0.57107328594E+02 -0.17557221529E+01  0.57327927201E+02  0.10000000000E+01 0. -1.
        -13    1    6    6    0    0 -0.15194580769E+01  0.19521494824E+01 -0.20747707182E+00  0.24846955919E+01  0.10500000000E+00 0.  1.
         13    1    6    6    0    0 -0.16304621058E+01  0.21023442041E+01 -0.36430221148E+00  0.26873777055E+01  0.10500000000E+00 0. -1.
</event>
<event>
11    0  0.3422856E-009  0.9118800E+02  0.7816531E-02  0.1126479E+00
         25   -1    0    0    0    0  0.00000000000E+00  0.00000000000E+00  0.99999998245E-14  0.12500000000E+03  0.12500000000E+03 0.  0.
    3000001    1    3    3    0    0  0.42129744301E+01  0.17982848257E+01 -0.59367079647E+01  0.75648848849E+01  0.10000000000E+01 0.  1.
    1000022    2    1    0    0    0  0.15650009043E+02  0.32093312619E+02 -0.50312484994E+02  0.62499997121E+02  0.99999997933E+01 0.  0.
    3000022    2    3    3    0    0  0.11437034613E+02  0.30295027794E+02 -0.44375777030E+02  0.54935112236E+02  0.24999927460E+00 0.  0.
    1000022    2    1    0    0    0 -0.15650009043E+02 -0.32093312619E+02  0.50312484994E+02  0.62500002879E+02  0.10000035782E+02 0.  0.
    3000022    2    5    5    0    0  0.13925831958E+01 -0.19466426870E+01  0.26983966709E+01  0.36155986186E+01  0.25000613872E+00 0.  0.
        -13    1    4    4    0    0  0.73020870863E+01  0.19490998674E+02 -0.28482355113E+02  0.35277118404E+02  0.10500000000E+00 0.  1.
         13    1    4    4    0    0  0.41349475270E+01  0.10804029119E+02 -0.15893421917E+02  0.19657993832E+02  0.10500000000E+00 0. -1.
    3000001    1    5    5    0    0 -0.17042592239E+02 -0.30146669932E+02  0.47614088323E+02  0.58884404261E+02  0.10000000000E+01 0. -1.
        -13    1    6    6    0    0  0.80287471924E+00 -0.10355699278E+01  0.15405976917E+01  0.20252108872E+01  0.10500000000E+00 0.  1.
         13    1    6    6    0    0  0.58970847659E+00 -0.91107275917E+00  0.11577989792E+01  0.15903877314E+01  0.10500000000E+00 0. -1.
</event>
<event>
11    0  0.3422856E-009  0.9118800E+02  0.7816531E-02  0.1126479E+00
         25   -1    0    0    0    0  0.00000000000E+00  0.00000000000E+00  0.99999998245E-14  0.12500000000E+03  0.12500000000E+03 0.  0.
    3000001    1    3    3    0    0  0.70659687841E+01 -0.11702101837E+02  0.25418160369E+02  0.28878192098E+02  0.10000000000E+01 0.  1.
    1000022    2    1    0    0    0  0.15724976630E+02 -0.34095139802E+02  0.48954025567E+02  0.62500000636E+02  0.10000000609E+02 0.  0.
    3000022    2    3    3    0    0  0.86590078459E+01 -0.22393037965E+02  0.23535865198E+02  0.33621808539E+02  0.24998526146E+00 0.  0.
    1000022    2    1    0    0    0 -0.15724976630E+02  0.34095139802E+02 -0.48954025567E+02  0.62499999364E+02  0.99999926528E+01 0.  0.
    3000022    2    5    5    0    0 -0.51751174406E+01  0.51904868856E+01 -0.51575779862E+01  0.89658298093E+01  0.24999770257E+00 0.  0.
        -13    1    4    4    0    0  0.59603791146E+01 -0.15544872287E+02  0.16328312708E+02  0.23319390955E+02  0.10500000000E+00 0. -1.
         13    1    4    4    0    0  0.26986287313E+01 -0.68481656775E+01  0.72075524899E+01  0.10302417584E+02  0.10500000000E+00 0.  1.
    3000001    1    5    5    0    0 -0.10549859189E+02  0.28904652916E+02 -0.43796447581E+02  0.53534169554E+02  0.10000000000E+01 0. -1.
        -13    1    6    6    0    0 -0.25649428213E+01  0.26681051403E+01 -0.25954165189E+01  0.45216068629E+01  0.10500000000E+00 0.  1.
         13    1    6    6    0    0 -0.26101746193E+01  0.25223817453E+01 -0.25621614674E+01  0.44442229464E+01  0.10500000000E+00 0. -1.
</event>
<event>
11    0  0.3422856E-009  0.9118800E+02  0.7816531E-02  0.1126479E+00
         25   -1    0    0    0    0  0.00000000000E+00  0.00000000000E+00  0.99999998245E-14  0.12500000000E+03  0.12500000000E+03 0.  0.
    3000001    1    3    3    0    0  0.90955232170E+00 -0.35482582852E+00 -0.23096951562E+01  0.26996071028E+01  0.10000000000E+01 0.  1.
    1000022    2    1    0    0    0  0.54155805582E+02 -0.32699288550E+01 -0.29371880170E+02  0.62499988955E+02  0.99998780801E+01 0.  0.
    3000022    2    3    3    0    0  0.53246253260E+02 -0.29151030265E+01 -0.27062185014E+02  0.59800381852E+02  0.24999991545E+00 0.  0.
    1000022    2    1    0    0    0 -0.54155805582E+02  0.32699288550E+01  0.29371880170E+02  0.62500011045E+02  0.10000016149E+02 0.  0.
    3000022    2    5    5    0    0 -0.33028959769E+02  0.63127904367E+01  0.20345469192E+02  0.39303487259E+02  0.24997514428E+00 0.  0.
        -13    1    4    4    0    0  0.29780000445E+02 -0.16379364457E+01 -0.15209469173E+02  0.33479400231E+02  0.10500000000E+00 0.  1.
         13    1    4    4    0    0  0.23466252816E+02 -0.12771665807E+01 -0.11852715841E+02  0.26320981621E+02  0.10500000000E+00 0. -1.
    3000001    1    5    5    0    0 -0.21126845813E+02 -0.30428615817E+01  0.90264109781E+01  0.23196523786E+02  0.10000000000E+01 0.  1.
        -13    1    6    6    0    0 -0.14199137750E+02  0.27507535443E+01  0.88145697296E+01  0.16937822245E+02  0.10500000000E+00 0. -1.
         13    1    6    6    0    0 -0.18829822019E+02  0.35620368924E+01  0.11530899463E+02  0.22365665014E+02  0.10500000000E+00 0.  1.
</event>
<event>
11    0  0.3422856E-009  0.9118800E+02  0.7816531E-02  0.1126479E+00
         25   -1    0    0    0    0  0.00000000000E+00  0.00000000000E+00  0.99999998245E-14  0.12500000000E+03  0.12500000000E+03 0.  0.
    3000001    1    3    3    0    0  0.10214682544E+02 -0.75005593511E+01  0.84299389167E+01  0.15253261953E+02  0.10000000000E+01 0.  1.
    1000022    2    1    0    0    0  0.31112825340E+02 -0.25318712362E+02  0.46874354797E+02  0.62500003161E+02  0.10000008062E+02 0.  0.
    3000022    2    3    3    0    0  0.20898142796E+02 -0.17818153011E+02  0.38444415880E+02  0.47246741209E+02  0.24998686302E+00 0.  0.
    1000022    2    1    0    0    0 -0.31112825340E+02  0.25318712362E+02 -0.46874354797E+02  0.62499996839E+02  0.99999685450E+01 0.  0.
    3000022    2    5    5    0    0 -0.11706561909E+02  0.43676840767E+01 -0.11108521060E+02  0.16720705566E+02  0.24999709374E+00 0.  0.
        -13    1    4    4    0    0  0.15620037767E+02 -0.13331193877E+02  0.28701780374E+02  0.35291777110E+02  0.10500000000E+00 0. -1.
         13    1    4    4    0    0  0.52781050294E+01 -0.44869591344E+01  0.97426355065E+01  0.11954964098E+02  0.10500000000E+00 0.  1.
    3000001    1    5    5    0    0 -0.19406263431E+02  0.20951028285E+02 -0.35765833737E+02  0.45779291273E+02  0.10000000000E+01 0. -1.
        -13    1    6    6    0    0 -0.85890710678E+01  0.31727236068E+01 -0.81634481709E+01  0.12267486618E+02  0.10500000000E+00 0. -1.
         13    1    6    6    0    0 -0.31174908414E+01  0.11949604699E+01 -0.29450728889E+01  0.44532189472E+01  0.10500000000E+00 0.  1.
</event>
<event>
11    0  0.3422856E-009  0.9118800E+02  0.7816531E-02  0.1126479E+00
         25   -1    0    0    0    0  0.00000000000E+00  0.00000000000E+00  0.99999998245E-14  0.12500000000E+03  0.12500000000E+03 0.  0.
    3000001    1    3    3    0    0  0.22268725523E+02  0.13954796283E+02 -0.35349251295E+02  0.44059074466E+02  0.10000000000E+01 0.  1.
    1000022    2    1    0    0    0  0.30480450497E+02  0.13711977092E+02 -0.51857247726E+02  0.62500002651E+02  0.10000000571E+02 0.  0.
    3000022    2    3    3    0    0  0.82117249743E+01 -0.24281919030E+00 -0.16507996431E+02  0.18440928185E+02  0.24999590403E+00 0.  0.
    1000022    2    1    0    0    0 -0.30480450497E+02 -0.13711977092E+02  0.51857247726E+02  0.62499997349E+02  0.99999674286E+01 0.  0.
    3000022    2    5    5    0    0 -0.18272935532E+02 -0.60731982704E+01  0.21361864782E+02  0.28760662079E+02  0.25001216807E+00 0.  0.
        -13    1    4    4    0    0  0.34897492247E+01 -0.10079370041E+00 -0.71625660542E+01  0.79688070940E+01  0.10500000000E+00 0. -1.
         13    1    4    4    0    0  0.47219757496E+01 -0.14202548989E+00 -0.93454303769E+01  0.10472121091E+02  0.10500000000E+00 0.  1.
    3000001    1    5    5    0    0 -0.12207514965E+02 -0.76387788219E+01  0.30495382944E+02  0.33739335270E+02  0.10000000000E+01 0.  1.
        -13    1    6    6    0    0 -0.95678423685E+01 -0.31856625034E+01  0.11086534382E+02  0.14987138579E+02  0.10500000000E+00 0.  1.
         13    1    6    6    0    0 -0.87050931634E+01 -0.28875357670E+01  0.10275330400E+02  0.13773523500E+02  0.10500000000E+00 0. -1.
</event>
<event>
11    0  0.3422856E-009  0.9118800E+02  0.7816531E-02  0.1126479E+00
         25   -1    0    0    0    0  0.00000000000E+00  0.00000000000E+00  0.99999998245E-14  0.12500000000E+03  0.12500000000E+03 0.  0.
    3000001    1    3    3    0    0  0.12343753688E+02 -0.62402046318E+01 -0.28989776679E+02  0.32135892097E+02  0.10000000000E+01 0.  1.
    1000022    2    1    0    0    0  0.30621610553E+02 -0.59025218547E+01 -0.53232764096E+02  0.62499999451E+02  0.99999980478E+01 0.  0.
    3000022    2    3    3    0    0  0.18277856864E+02  0.33768277708E+00 -0.24242987417E+02  0.30364107354E+02  0.24999056333E+00 0.  0.
    1000022    2    1    0    0    0 -0.30621610553E+02  0.59025218547E+01  0.53232764096E+02  0.62500000549E+02  0.10000004911E+02 0.  0.
    3000022    2    5    5    0    0 -0.23894114599E+02  0.54063198877E+01  0.48047297261E+02  0.53932942449E+02  0.24999976889E+00 0.  0.
        -13    1    4    4    0    0  0.50807073116E+01  0.63634448005E-01 -0.66982845837E+01  0.84080721627E+01  0.10500000000E+00 0.  1.
         13    1    4    4    0    0  0.13197149553E+02  0.27404832908E+00 -0.17544702834E+02  0.21956035191E+02  0.10500000000E+00 0. -1.
    3000001    1    5    5    0    0 -0.67274959533E+01  0.49620196700E+00  0.51854668354E+01  0.85670581003E+01  0.10000000000E+01 0.  1.
        -13    1    6    6    0    0 -0.67520712613E+01  0.15290551365E+01  0.13489736273E+02  0.15162865351E+02  0.10500000000E+00 0.  1.
         13    1    6    6    0    0 -0.17142043338E+02  0.38772647512E+01  0.34557560988E+02  0.38770077098E+02  0.10500000000E+00 0. -1.
</event>
<event>
11    0  0.3422856E-009  0.9118800E+02  0.7816531E-02  0.1126479E+00
         25   -1    0    0    0    0  0.00000000000E+00  0.00000000000E+00  0.99999998245E-14  0.12500000000E+03  0.12500000000E+03 0.  0.
    3000001    1    3    3    0    0  0.69555252644E+01  0.12575592494E+01 -0.68721860026E+01  0.99089720670E+01  0.10000000000E+01 0.  1.
    1000022    2    1    0    0    0  0.52719737055E+02 -0.83378634069E+01 -0.30941222830E+02  0.62500000375E+02  0.10000006763E+02 0.  0.
    3000022    2    3    3    0    0  0.45764211791E+02 -0.95954226562E+01 -0.24069036828E+02  0.52591028308E+02  0.25001578445E+00 0.  0.
    1000022    2    1    0    0    0 -0.52719737055E+02  0.83378634069E+01  0.30941222830E+02  0.62499999625E+02  0.10000002077E+02 0.  0.
    3000022    2    5    5    0    0 -0.44499705004E+02  0.83680412543E+01  0.22097334512E+02  0.50384546756E+02  0.24999887123E+00 0.  0.
        -13    1    4    4    0    0  0.25061287439E+02 -0.52091384061E+01 -0.13119783854E+02  0.28763570787E+02  0.10500000000E+00 0.  1.
         13    1    4    4    0    0  0.20702924351E+02 -0.43862842501E+01 -0.10949252974E+02  0.23827457521E+02  0.10500000000E+00 0. -1.
    3000001    1    5    5    0    0 -0.82200320514E+01 -0.30177847483E-01  0.88438883189E+01  0.12115452869E+02  0.10000000000E+01 0. -1.
        -13    1    6    6    0    0 -0.25091161740E+02  0.46640416523E+01  0.12497758875E+02  0.28416978796E+02  0.10500000000E+00 0.  1.
         13    1    6    6    0    0 -0.19408543264E+02  0.37039996020E+01  0.95995756367E+01  0.21967567960E+02  0.10500000000E+00 0. -1.
</event>
<event>
11    0  0.3422856E-009  0.9118800E+02  0.7816531E-02  0.1126479E+00
         25   -1    0    0    0    0  0.00000000000E+00  0.00000000000E+00  0.99999998245E-14  0.12500000000E+03  0.12500000000E+03 0.  0.
    3000001    1    3    3    0    0 -0.31658085834E+02  0.21046291326E+02  0.35755659060E+02  0.52198160237E+02  0.10000000000E+01 0. -1.
    1000022    2    1    0    0    0 -0.37001132437E+02  0.21255345577E+02  0.44557564299E+02  0.62499999409E+02  0.99999936319E+01 0.  0.
    3000022    2    3    3    0    0 -0.53430466030E+01  0.20905425082E+00  0.88019052383E+01  0.10301839172E+02  0.25000763705E+00 0.  0.
    1000022    2    1    0    0    0  0.37001132437E+02 -0.21255345577E+02 -0.44557564299E+02  0.62500000591E+02  0.10000001020E+02 0.  0.
    3000022    2    5    5    0    0  0.35016384456E+02 -0.19415765133E+02 -0.37429045732E+02  0.54809808284E+02  0.25000731676E+00 0.  0.
        -13    1    4    4    0    0 -0.34537539485E+01  0.17150349377E+00  0.56043563318E+01  0.65861722328E+01  0.10500000000E+00 0.  1.
         13    1    4    4    0    0 -0.18892926545E+01  0.37550757050E-01  0.31975489065E+01  0.37156669392E+01  0.10500000000E+00 0. -1.
    3000001    1    5    5    0    0  0.19847479815E+01 -0.18395804439E+01 -0.71285185672E+01  0.76901923073E+01  0.10000000000E+01 0. -1.
        -13    1    6    6    0    0  0.19259680358E+02 -0.10628824292E+02 -0.20495142825E+02  0.30066078855E+02  0.10500000000E+00 0.  1.
         13    1    6    6    0    0  0.15756704098E+02 -0.87869408418E+01 -0.16933902907E+02  0.24743729429E+02  0.10500000000E+00 0. -1.
</event>
<event>
11    0  0.3422856E-009  0.9118800E+02  0.7816531E-02  0.1126479E+00
         25   -1    0    0    0    0  0.00000000000E+00  0.00000000000E+00  0.99999998245E-14  0.12500000000E+03  0.12500000000E+03 0.  0.
    3000001    1    3    3    0    0  0.13384687819E+02 -0.24577638479E+02 -0.10114293140E+02  0.29774302795E+02  0.10000000000E+01 0. -1.
    1000022    2    1    0    0    0  0.25603259494E+02 -0.47246047122E+02 -0.30307327142E+02  0.62500001713E+02  0.10000013513E+02 0.  0.
    3000022    2    3    3    0    0  0.12218571675E+02 -0.22668408643E+02 -0.20193034002E+02  0.32725698918E+02  0.25000655794E+00 0.  0.
    1000022    2    1    0    0    0 -0.25603259494E+02  0.47246047122E+02  0.30307327142E+02  0.62499998287E+02  0.99999921059E+01 0.  0.
    3000022    2    5    5    0    0 -0.25334893834E+02  0.42148852502E+02  0.29162308656E+02  0.57174166855E+02  0.24999318067E+00 0.  0.
        -13    1    4    4    0    0  0.49345958655E+01 -0.91138548741E+01 -0.80505033288E+01  0.13123803407E+02  0.10500000000E+00 0.  1.
         13    1    4    4    0    0  0.72839758095E+01 -0.13554553769E+02 -0.12142530673E+02  0.19601895510E+02  0.10500000000E+00 0. -1.
    3000001    1    5    5    0    0 -0.26836566009E+00  0.50971946194E+01  0.11450184864E+01  0.53258314327E+01  0.10000000000E+01 0. -1.
        -13    1    6    6    0    0 -0.18328515748E+02  0.30485285414E+02  0.21138137293E+02  0.41377759600E+02  0.10500000000E+00 0.  1.
         13    1    6    6    0    0 -0.70063780853E+01  0.11663567088E+02  0.80241713623E+01  0.15796407254E+02  0.10500000000E+00 0. -1.
</event>
<event>
11    0  0.3422856E-009  0.9118800E+02  0.7816531E-02  0.1126479E+00
         25   -1    0    0    0    0  0.00000000000E+00  0.00000000000E+00  0.99999998245E-14  0.12500000000E+03  0.12500000000E+03 0.  0.
    3000001    1    3    3    0    0  0.17740681675E+01 -0.17100803930E+02  0.16302957497E+02  0.23714367714E+02  0.10000000000E+01 0.  1.
    1000022    2    1    0    0    0  0.65104371790E+01 -0.35024548194E+02  0.50370077149E+02  0.62499995712E+02  0.10000001182E+02 0.  0.
    3000022    2    3    3    0    0  0.47363690115E+01 -0.17923744264E+02  0.34067119652E+02  0.38785627999E+02  0.24999605870E+00 0.  0.
    1000022    2    1    0    0    0 -0.65104371790E+01  0.35024548194E+02 -0.50370077149E+02  0.62500004288E+02  0.10000054776E+02 0.  0.
    3000022    2    5    5    0    0 -0.14626550776E+01  0.18856568946E+02 -0.18852627522E+02  0.26705685073E+02  0.24999682591E+00 0.  0.
        -13    1    4    4    0    0  0.11120561191E+01 -0.42180133437E+01  0.79868116342E+01  0.91010159026E+01  0.10500000000E+00 0.  1.
         13    1    4    4    0    0  0.36243128924E+01 -0.13705730920E+02  0.26080308018E+02  0.29684612096E+02  0.10500000000E+00 0. -1.
    3000001    1    5    5    0    0 -0.50477821014E+01  0.16167979248E+02 -0.31517449626E+02  0.35794319215E+02  0.10000000000E+01 0.  1.
        -13    1    6    6    0    0 -0.33686826163E+00  0.46358000360E+01 -0.46242123461E+01  0.65573231598E+01  0.10500000000E+00 0. -1.
         13    1    6    6    0    0 -0.11257868160E+01  0.14220768910E+02 -0.14228415176E+02  0.20148361913E+02  0.10500000000E+00 0.  1.
</event>
<event>
11    0  0.3422856E-009  0.9118800E+02  0.7816531E-02  0.1126479E+00
         25   -1    0    0    0    0  0.00000000000E+00  0.00000000000E+00  0.99999998245E-14  0.12500000000E+03  0.12500000000E+03 0.  0.
    3000001    1    3    3    0    0 -0.41720450019E+01 -0.82626385007E+01 -0.59489986356E+01  0.11048427004E+02  0.10000000000E+01 0.  1.
    1000022    2    1    0    0    0 -0.10942589514E+02 -0.37633901388E+02 -0.47646606773E+02  0.62500000176E+02  0.10000004305E+02 0.  0.
    3000022    2    3    3    0    0 -0.67705445121E+01 -0.29371262887E+02 -0.41697608137E+02  0.51451573172E+02  0.25000192572E+00 0.  0.
    1000022    2    1    0    0    0  0.10942589514E+02  0.37633901388E+02  0.47646606773E+02  0.62499999824E+02  0.10000002103E+02 0.  0.
    3000022    2    5    5    0    0  0.10337588478E+02  0.17876010605E+02  0.23873424317E+02  0.31566127151E+02  0.25000805600E+00 0.  0.
        -13    1    4    4    0    0 -0.31405088216E+01 -0.13924091102E+02 -0.19750870082E+02  0.24369058305E+02  0.10500000000E+00 0.  1.
         13    1    4    4    0    0 -0.36300356905E+01 -0.15447171785E+02 -0.21946738055E+02  0.27082514867E+02  0.10500000000E+00 0. -1.
    3000001    1    5    5    0    0  0.60500103645E+00  0.19757890783E+02  0.23773182456E+02  0.30933872673E+02  0.10000000000E+01 0.  1.
        -13    1    6    6    0    0  0.40358186680E+01  0.69277927729E+01  0.91835168559E+01  0.12191396633E+02  0.10500000000E+00 0.  1.
         13    1    6    6    0    0  0.63017698096E+01  0.10948217832E+02  0.14689907461E+02  0.19374730518E+02  0.10500000000E+00 0. -1.
</event>
<event>
11    0  0.3422856E-009  0.9118800E+02  0.7816531E-02  0.1126479E+00
         25   -1    0    0    0    0  0.00000000000E+00  0.00000000000E+00  0.99999998245E-14  0.12500000000E+03  0.12500000000E+03 0.  0.
    3000001    1    3    3    0    0  0.33834927085E+02  0.11977421157E+02 -0.34996602031E+02  0.50140034524E+02  0.10000000000E+01 0.  1.
    1000022    2    1    0    0    0  0.43108244240E+02  0.18306123671E+02 -0.40159869410E+02  0.62500000084E+02  0.10000000708E+02 0.  0.
    3000022    2    3    3    0    0  0.92733171554E+01  0.63287025138E+01 -0.51632673792E+01  0.12359965560E+02  0.25006406565E+00 0.  0.
    1000022    2    1    0    0    0 -0.43108244240E+02 -0.18306123671E+02  0.40159869410E+02  0.62499999916E+02  0.99999996560E+01 0.  0.
    3000022    2    5    5    0    0 -0.50404110371E+01 -0.37764095288E+01  0.18643141268E+01  0.65730647926E+01  0.25000250326E+00 0.  0.
        -13    1    4    4    0    0  0.68106567425E+01  0.46753141896E+01 -0.37710511012E+01  0.90816000486E+01  0.10500000000E+00 0. -1.
         13    1    4    4    0    0  0.24626604129E+01  0.16533883242E+01 -0.13922162780E+01  0.32783655112E+01  0.10500000000E+00 0.  1.
    3000001    1    5    5    0    0 -0.38067833203E+02 -0.14529714142E+02  0.38295555283E+02  0.55926935123E+02  0.10000000000E+01 0. -1.
        -13    1    6    6    0    0 -0.21795552435E+01 -0.17133611800E+01  0.80451281752E+00  0.28886559965E+01  0.10500000000E+00 0.  1.
         13    1    6    6    0    0 -0.28608557936E+01 -0.20630483488E+01  0.10598013093E+01  0.36844087961E+01  0.10500000000E+00 0. -1.
</event>
<event>
11    0  0.3422856E-009  0.9118800E+02  0.7816531E-02  0.1126479E+00
         25   -1    0    0    0    0  0.00000000000E+00  0.00000000000E+00  0.99999998245E-14  0.12500000000E+03  0.12500000000E+03 0.  0.
    3000001    1    3    3    0    0  0.19576224234E+02 -0.33333560120E+02 -0.16858125044E+02  0.42184726685E+02  0.10000000000E+01 0.  1.
    1000022    2    1    0    0    0  0.23536481096E+02 -0.52523474770E+02 -0.22216412807E+02  0.62499996972E+02  0.99999639556E+01 0.  0.
    3000022    2    3    3    0    0  0.39602568622E+01 -0.19189914651E+02 -0.53582877636E+01  0.20315270287E+02  0.25000069719E+00 0.  0.
    1000022    2    1    0    0    0 -0.23536481096E+02  0.52523474770E+02  0.22216412807E+02  0.62500003028E+02  0.10000001809E+02 0.  0.
    3000022    2    5    5    0    0 -0.23688480680E+02  0.47840922165E+02  0.18731079120E+02  0.56575734830E+02  0.24999213123E+00 0.  0.
        -13    1    4    4    0    0  0.26080944665E+01 -0.12640598306E+02 -0.35864174830E+01  0.13396279246E+02  0.10500000000E+00 0. -1.
         13    1    4    4    0    0  0.13521623956E+01 -0.65493163445E+01 -0.17718702805E+01  0.69189910402E+01  0.10500000000E+00 0.  1.
    3000001    1    5    5    0    0  0.15199958323E+00  0.46825526055E+01  0.34853336871E+01  0.59242681985E+01  0.10000000000E+01 0.  1.
        -13    1    6    6    0    0 -0.54498338039E+01  0.10993107103E+02  0.43034459566E+01  0.13003067498E+02  0.10500000000E+00 0.  1.
         13    1    6    6    0    0 -0.18238646876E+02  0.36847815062E+02  0.14427633163E+02  0.43572667332E+02  0.10500000000E+00 0. -1.
</event>
<event>
11    0  0.3422856E-009  0.9118800E+02  0.7816531E-02  0.1126479E+00
         25   -1    0    0    0    0  0.00000000000E+00  0.00000000000E+00  0.99999998245E-14  0.12500000000E+03  0.12500000000E+03 0.  0.
    3000001    1    3    3    0    0  0.12288880358E+02 -0.10991437694E+02 -0.42229870038E+02  0.45345233559E+02  0.10000000000E+01 0. -1.
    1000022    2    1    0    0    0  0.20077330251E+02 -0.99690499302E+01 -0.57478421785E+02  0.62500001436E+02  0.10000003104E+02 0.  0.
    3000022    2    3    3    0    0  0.77884498929E+01  0.10223877639E+01 -0.15248551746E+02  0.17154767877E+02  0.25000415045E+00 0.  0.
    1000022    2    1    0    0    0 -0.20077330251E+02  0.99690499302E+01  0.57478421785E+02  0.62499998564E+02  0.99999851558E+01 0.  0.
    3000022    2    5    5    0    0 -0.18895514506E+02  0.59334457265E+01  0.51008682486E+02  0.54719232770E+02  0.24999877184E+00 0.  0.
        -13    1    4    4    0    0  0.38554343113E+01  0.57394507332E+00 -0.75466451853E+01  0.84945079451E+01  0.10500000000E+00 0.  1.
         13    1    4    4    0    0  0.39330155816E+01  0.44844269063E+00 -0.77019065612E+01  0.86602599319E+01  0.10500000000E+00 0. -1.
    3000001    1    5    5    0    0 -0.11818157457E+01  0.40356042037E+01  0.64697392991E+01  0.77807657942E+01  0.10000000000E+01 0.  1.
        -13    1    6    6    0    0 -0.12998224066E+02  0.40475547445E+01  0.34959577405E+02  0.37516924255E+02  0.10500000000E+00 0.  1.
         13    1    6    6    0    0 -0.58972904401E+01  0.18858909820E+01  0.16049105081E+02  0.17202308515E+02  0.10500000000E+00 0. -1.
</event>
<event>
11    0  0.3422856E-009  0.9118800E+02  0.7816531E-02  0.1126479E+00
         25   -1    0    0    0    0  0.00000000000E+00  0.00000000000E+00  0.99999998245E-14  0.12500000000E+03  0.12500000000E+03 0.  0.
    3000001    1    3    3    0    0  0.92213495847E+00 -0.33507944882E+02  0.21584524436E+02  0.39881379091E+02  0.10000000000E+01 0. -1.
    1000022    2    1    0    0    0  0.41106960849E+01 -0.47717538489E+02  0.38889440499E+02  0.62500001617E+02  0.10000015900E+02 0.  0.
    3000022    2    3    3    0    0  0.31885611265E+01 -0.14209593607E+02  0.17304916064E+02  0.22618622525E+02  0.24998490947E+00 0.  0.
    1000022    2    1    0    0    0 -0.41106960849E+01  0.47717538489E+02 -0.38889440499E+02  0.62499998383E+02  0.99999956916E+01 0.  0.
    3000022    2    5    5    0    0 -0.40982510684E+00  0.25976784447E+02 -0.15121809224E+02  0.30061485336E+02  0.24999911006E+00 0.  0.
        -13    1    4    4    0    0  0.22374384451E+01 -0.99636920892E+01  0.12204102410E+02  0.15913278464E+02  0.10500000000E+00 0.  1.
         13    1    4    4    0    0  0.95112268140E+00 -0.42459015175E+01  0.51008136533E+01  0.67053440611E+01  0.10500000000E+00 0. -1.
    3000001    1    5    5    0    0 -0.37008709781E+01  0.21740754042E+02 -0.23767631275E+02  0.32438513047E+02  0.10000000000E+01 0. -1.
        -13    1    6    6    0    0 -0.32586123737E+00  0.18471705251E+02 -0.10723897194E+02  0.21361719885E+02  0.10500000000E+00 0. -1.
         13    1    6    6    0    0 -0.83963869471E-01  0.75050791964E+01 -0.43979120300E+01  0.86997654508E+01  0.10500000000E+00 0.  1.
</event>
<event>
11    0  0.3422856E-009  0.9118800E+02  0.7816531E-02  0.1126479E+00
         25   -1    0    0    0    0  0.00000000000E+00  0.00000000000E+00  0.99999998245E-14  0.12500000000E+03  0.12500000000E+03 0.  0.
    3000001    1    3    3    0    0 -0.40166920972E+01  0.35633803141E+01  0.21138112439E+02  0.21832345091E+02  0.10000000000E+01 0. -1.
    1000022    2    1    0    0    0 -0.24602733277E+01  0.19914366467E+02  0.58340510146E+02  0.62499999199E+02  0.99999919572E+01 0.  0.
    3000022    2    3    3    0    0  0.15564187696E+01  0.16350986153E+02  0.37202397707E+02  0.40667654109E+02  0.25001594434E+00 0.  0.
    1000022    2    1    0    0    0  0.24602733277E+01 -0.19914366467E+02 -0.58340510146E+02  0.62500000801E+02  0.10000001967E+02 0.  0.
    3000022    2    5    5    0    0  0.49317224888E+01 -0.11678332040E+02 -0.43592002882E+02  0.45398574235E+02  0.25000284505E+00 0.  0.
        -13    1    4    4    0    0  0.56109508975E+00  0.59113203877E+01  0.13306139128E+02  0.14571303989E+02  0.10500000000E+00 0.  1.
         13    1    4    4    0    0  0.99532367983E+00  0.10439665766E+02  0.23896258579E+02  0.26096350120E+02  0.10500000000E+00 0. -1.
    3000001    1    5    5    0    0 -0.24714491611E+01 -0.82360344272E+01 -0.14748507265E+02  0.17101426565E+02  0.10000000000E+01 0. -1.
        -13    1    6    6    0    0  0.36774831821E+01 -0.87504950899E+01 -0.32712344667E+02  0.34061761045E+02  0.10500000000E+00 0. -1.
         13    1    6    6    0    0  0.12542393067E+01 -0.29278369503E+01 -0.10879658215E+02  0.11336813191E+02  0.10500000000E+00 0.  1.
</event>
<event>
11    0  0.3422856E-009  0.9118800E+02  0.7816531E-02  0.1126479E+00
         25   -1    0    0    0    0  0.00000000000E+00  0.00000000000E+00  0.99999998245E-14  0.12500000000E+03  0.12500000000E+03 0.  0.
    3000001    1    3    3    0    0  0.39880994443E+02 -0.39087616062E+02 -0.73067564487E+00  0.55855790515E+02  0.10000000000E+01 0. -1.
    1000022    2    1    0    0    0  0.42509666705E+02 -0.44679910042E+02  0.16981799467E+01  0.62499999067E+02  0.99999971768E+01 0.  0.
    3000022    2    3    3    0    0  0.26286722619E+01 -0.55922939801E+01  0.24288555916E+01  0.66442085520E+01  0.24999595662E+00 0.  0.
    1000022    2    1    0    0    0 -0.42509666705E+02  0.44679910042E+02 -0.16981799467E+01  0.62500000933E+02  0.10000008839E+02 0.  0.
    3000022    2    5    5    0    0 -0.37983890145E+02  0.34984793461E+02 -0.13613061985E+00  0.51640998350E+02  0.24999002765E+00 0.  0.
        -13    1    4    4    0    0  0.11834076213E+01 -0.26198235798E+01  0.11850792836E+01  0.31111681240E+01  0.10500000000E+00 0. -1.
         13    1    4    4    0    0  0.14452646406E+01 -0.29724704003E+01  0.12437763079E+01  0.35330404280E+01  0.10500000000E+00 0.  1.
    3000001    1    5    5    0    0 -0.45257765597E+01  0.96951165814E+01 -0.15620493268E+01  0.10859002583E+02  0.10000000000E+01 0. -1.
        -13    1    6    6    0    0 -0.16496343491E+02  0.15246671461E+02 -0.60689856920E-02  0.22463334593E+02  0.10500000000E+00 0. -1.
         13    1    6    6    0    0 -0.21487546654E+02  0.19738122000E+02 -0.13006163416E+00  0.29177663757E+02  0.10500000000E+00 0.  1.
</event>
<event>
11    0  0.3422856E-009  0.9118800E+02  0.7816531E-02  0.1126479E+00
         25   -1    0    0    0    0  0.00000000000E+00  0.00000000000E+00  0.99999998245E-14  0.12500000000E+03  0.12500000000E+03 0.  0.
    3000001    1    3    3    0    0 -0.38613830476E+01 -0.49717291859E+02  0.51765182116E+01  0.50144947199E+02  0.10000000000E+01 0. -1.
    1000022    2    1    0    0    0 -0.27256566748E+01 -0.61601913643E+02  0.20062348765E+01  0.62499999611E+02  0.10000000213E+02 0.  0.
    3000022    2    3    3    0    0  0.11357263728E+01 -0.11884621784E+02 -0.31702833352E+01  0.12355052412E+02  0.25002867095E+00 0.  0.
    1000022    2    1    0    0    0  0.27256566748E+01  0.61601913643E+02 -0.20062348765E+01  0.62500000389E+02  0.10000005075E+02 0.  0.
    3000022    2    5    5    0    0  0.30475336285E+01  0.58704672388E+01  0.91568781248E+00  0.66821237254E+01  0.24989296281E+00 0.  0.
        -13    1    4    4    0    0  0.31046343478E+00 -0.30523119214E+01 -0.79046533182E+00  0.31699930679E+01  0.10500000000E+00 0.  1.
         13    1    4    4    0    0  0.82526293805E+00 -0.88323098624E+01 -0.23798180033E+01  0.91850593439E+01  0.10500000000E+00 0. -1.
    3000001    1    5    5    0    0 -0.32187695370E+00  0.55731446404E+02 -0.29219226889E+01  0.55817876664E+02  0.10000000000E+01 0.  1.
        -13    1    6    6    0    0  0.13717571440E+01  0.25223164221E+01  0.36176457733E+00  0.28958066933E+01  0.10500000000E+00 0. -1.
         13    1    6    6    0    0  0.16757764844E+01  0.33481508168E+01  0.55392323515E+00  0.37863170321E+01  0.10500000000E+00 0.  1.
</event>
<event>
11    0  0.3422856E-009  0.9118800E+02  0.7816531E-02  0.1126479E+00
         25   -1    0    0    0    0  0.00000000000E+00  0.00000000000E+00  0.99999998245E-14  0.12500000000E+03  0.12500000000E+03 0.  0.
    3000001    1    3    3    0    0  0.70831721211E+01 -0.90286234487E+01  0.15657489316E+02  0.19438218549E+02  0.10000000000E+01 0.  1.
    1000022    2    1    0    0    0  0.35197733388E+02 -0.23585677761E+02  0.44845126094E+02  0.62500000099E+02  0.10000002346E+02 0.  0.
    3000022    2    3    3    0    0  0.28114561267E+02 -0.14557054313E+02  0.29187636778E+02  0.43061781551E+02  0.25000825635E+00 0.  0.
    1000022    2    1    0    0    0 -0.35197733388E+02  0.23585677761E+02 -0.44845126094E+02  0.62499999901E+02  0.10000001104E+02 0.  0.
    3000022    2    5    5    0    0 -0.57290630634E+01  0.16532246673E+00 -0.77471725138E+01  0.96400553994E+01  0.24998208643E+00 0.  0.
        -13    1    4    4    0    0  0.18198496237E+02 -0.94180311773E+01  0.18813544192E+02  0.27818070505E+02  0.10500000000E+00 0. -1.
         13    1    4    4    0    0  0.99160650294E+01 -0.51390231353E+01  0.10374092586E+02  0.15243711046E+02  0.10500000000E+00 0.  1.
    3000001    1    5    5    0    0 -0.29468670324E+02  0.23420355295E+02 -0.37097953580E+02  0.52859944501E+02  0.10000000000E+01 0.  1.
        -13    1    6    6    0    0 -0.19082132849E+01  0.10077869628E+00 -0.25378033719E+01  0.31785067628E+01  0.10500000000E+00 0.  1.
         13    1    6    6    0    0 -0.38208497785E+01  0.64543770449E-01 -0.52093691418E+01  0.64615486366E+01  0.10500000000E+00 0. -1.
</event>
<event>
11    0  0.3422856E-009  0.9118800E+02  0.7816531E-02  0.1126479E+00
         25   -1    0    0    0    0  0.00000000000E+00  0.00000000000E+00  0.99999998245E-14  0.12500000000E+03  0.12500000000E+03 0.  0.
    3000001    1    3    3    0    0  0.90181095983E+01  0.36650590815E+01  0.13301757195E+02  0.16513500637E+02  0.10000000000E+01 0. -1.
    1000022    2    1    0    0    0  0.19120191557E+02  0.14594794324E+02  0.56812499386E+02  0.62500002550E+02  0.10000024287E+02 0.  0.
    3000022    2    3    3    0    0  0.10102081959E+02  0.10929735243E+02  0.43510742190E+02  0.45986501913E+02  0.24999973486E+00 0.  0.
    1000022    2    1    0    0    0 -0.19120191557E+02 -0.14594794324E+02 -0.56812499386E+02  0.62499997450E+02  0.99999924132E+01 0.  0.
    3000022    2    5    5    0    0 -0.46088262299E+01 -0.63834844773E+01 -0.29058141169E+02  0.30106946759E+02  0.25004330619E+00 0.  0.
        -13    1    4    4    0    0  0.67901044417E+01  0.74212073627E+01  0.29433530143E+02  0.31105040728E+02  0.10500000000E+00 0.  1.
         13    1    4    4    0    0  0.33119775171E+01  0.35085278803E+01  0.14077212048E+02  0.14881461185E+02  0.10500000000E+00 0. -1.
    3000001    1    5    5    0    0 -0.14511365327E+02 -0.82113098471E+01 -0.27754358217E+02  0.32393050691E+02  0.10000000000E+01 0.  1.
        -13    1    6    6    0    0 -0.18176005711E+01 -0.24156918099E+01 -0.11214405650E+02  0.11615212346E+02  0.10500000000E+00 0. -1.
         13    1    6    6    0    0 -0.27912256587E+01 -0.39677926674E+01 -0.17843735519E+02  0.18491734413E+02  0.10500000000E+00 0.  1.
</event>
<event>
11    0  0.3422856E-009  0.9118800E+02  0.7816531E-02  0.1126479E+00
         25   -1    0    0    0    0  0.00000000000E+00  0.00000000000E+00  0.99999998245E-14  0.12500000000E+03  0.12500000000E+03 0.  0.
    3000001    1    3    3    0    0 -0.35335545207E+02 -0.14079714946E+02  0.51080897685E+01  0.38391818258E+02  0.10000000000E+01 0.  1.
    1000022    2    1    0    0    0 -0.54249152261E+02 -0.25221052378E+02  0.15072427437E+02  0.62500000550E+02  0.99999997885E+01 0.  0.
    3000022    2    3    3    0    0 -0.18913607055E+02 -0.11141337432E+02  0.99643376685E+01  0.24108182293E+02  0.24999338248E+00 0.  0.
    1000022    2    1    0    0    0  0.54249152261E+02  0.25221052378E+02 -0.15072427437E+02  0.62499999450E+02  0.99999929115E+01 0.  0.
    3000022    2    5    5    0    0  0.35602443026E+02  0.13617952094E+02 -0.54687506163E+01  0.38509119724E+02  0.25000000203E+00 0.  0.
        -13    1    4    4    0    0 -0.10226700792E+02 -0.59513238007E+01  0.53448927972E+01  0.12983935000E+02  0.10500000000E+00 0. -1.
         13    1    4    4    0    0 -0.86869062623E+01 -0.51900136316E+01  0.46194448714E+01  0.11124247293E+02  0.10500000000E+00 0.  1.
    3000001    1    5    5    0    0  0.18646709236E+02  0.11603100284E+02 -0.96036768207E+01  0.23990879726E+02  0.10000000000E+01 0.  1.
        -13    1    6    6    0    0  0.17177567104E+02  0.65374608273E+01 -0.26977760186E+01  0.18576765761E+02  0.10500000000E+00 0. -1.
         13    1    6    6    0    0  0.18424875922E+02  0.70804912666E+01 -0.27709745977E+01  0.19932353963E+02  0.10500000000E+00 0.  1.
</event>
<event>
11    0  0.3422856E-009  0.9118800E+02  0.7816531E-02  0.1126479E+00
         25   -1    0    0    0    0  0.00000000000E+00  0.00000000000E+00  0.99999998245E-14  0.12500000000E+03  0.12500000000E+03 0.  0.
    3000001    1    3    3    0    0 -0.16755531801E+02 -0.52047155645E+01 -0.38709511668E+01  0.17995031897E+02  0.10000000000E+01 0.  1.
    1000022    2    1    0    0    0 -0.60843586371E+02 -0.33424931450E+01 -0.96506819644E+01  0.62500000385E+02  0.10000006138E+02 0.  0.
    3000022    2    3    3    0    0 -0.44088054570E+02  0.18622224195E+01 -0.57797307976E+01  0.44504968487E+02  0.25000771371E+00 0.  0.
    1000022    2    1    0    0    0  0.60843586371E+02  0.33424931450E+01  0.96506819644E+01  0.62499999615E+02  0.10000001331E+02 0.  0.
    3000022    2    5    5    0    0  0.25105788165E+02 -0.34997433681E+01  0.39537362779E+01  0.25656253724E+02  0.25004317405E+00 0.  0.
        -13    1    4    4    0    0 -0.32868115856E+02  0.13913348534E+01 -0.43377797238E+01  0.33182468421E+02  0.10500000000E+00 0.  1.
         13    1    4    4    0    0 -0.11219938714E+02  0.47088756607E+00 -0.14419510738E+01  0.11322500066E+02  0.10500000000E+00 0. -1.
    3000001    1    5    5    0    0  0.35737798207E+02  0.68422365131E+01  0.56969456866E+01  0.36843745891E+02  0.10000000000E+01 0. -1.
        -13    1    6    6    0    0  0.14834930651E+02 -0.20138158626E+01  0.23703071101E+01  0.15157836341E+02  0.10500000000E+00 0. -1.
         13    1    6    6    0    0  0.10270857514E+02 -0.14859275055E+01  0.15834291678E+01  0.10498417383E+02  0.10500000000E+00 0.  1.
</event>
<event>
11    0  0.3422856E-009  0.9118800E+02  0.7816531E-02  0.1126479E+00
         25   -1    0    0    0    0  0.00000000000E+00  0.00000000000E+00  0.99999998245E-14  0.12500000000E+03  0.12500000000E+03 0.  0.
    3000001    1    3    3    0    0  0.25207028349E+02 -0.64533670679E+01 -0.48341795711E+02  0.54908737349E+02  0.10000000000E+01 0. -1.
    1000022    2    1    0    0    0  0.25264191227E+02 -0.85628392614E+01 -0.55629566667E+02  0.62499998520E+02  0.99999776460E+01 0.  0.
    3000022    2    3    3    0    0  0.57162877150E-01 -0.21094721935E+01 -0.72877709561E+01  0.75912611711E+01  0.25000025888E+00 0.  0.
    1000022    2    1    0    0    0 -0.25264191227E+02  0.85628392614E+01  0.55629566667E+02  0.62500001480E+02  0.99999961412E+01 0.  0.
    3000022    2    5    5    0    0 -0.21974387962E+02  0.59373123740E+01  0.52305190105E+02  0.57044025262E+02  0.25000333334E+00 0.  0.
        -13    1    4    4    0    0  0.13840007177E-01 -0.79386844804E+00 -0.25401547338E+01  0.26634244368E+01  0.10500000000E+00 0.  1.
         13    1    4    4    0    0  0.43322869973E-01 -0.13156037454E+01 -0.47476162223E+01  0.49278367343E+01  0.10500000000E+00 0. -1.
    3000001    1    5    5    0    0 -0.32898032651E+01  0.26255268874E+01  0.33243765621E+01  0.54559762175E+01  0.10000000000E+01 0. -1.
        -13    1    6    6    0    0 -0.80922080738E+01  0.21415907830E+01  0.19134442968E+02  0.20885597317E+02  0.10500000000E+00 0. -1.
         13    1    6    6    0    0 -0.13882179888E+02  0.37957215909E+01  0.33170747137E+02  0.36158427945E+02  0.10500000000E+00 0.  1.
</event>
<event>
11    0  0.3422856E-009  0.9118800E+02  0.7816531E-02  0.1126479E+00
         25   -1    0    0    0    0  0.00000000000E+00  0.00000000000E+00  0.99999998245E-14  0.12500000000E+03  0.12500000000E+03 0.  0.
    3000001    1    3    3    0    0  0.11738204436E+02 -0.26041857084E+01 -0.60845284519E+01  0.13512539105E+02  0.10000000000E+01 0. -1.
    1000022    2    1    0    0    0  0.47193107051E+02 -0.29182675204E+02 -0.26970950798E+02  0.62500000449E+02  0.99999991985E+01 0.  0.
    3000022    2    3    3    0    0  0.35454902614E+02 -0.26578489495E+02 -0.20886422346E+02  0.48987461343E+02  0.25001434818E+00 0.  0.
    1000022    2    1    0    0    0 -0.47193107051E+02  0.29182675204E+02  0.26970950798E+02  0.62499999551E+02  0.99999935899E+01 0.  0.
    3000022    2    5    5    0    0 -0.36335507060E+02  0.22013469336E+02  0.15816774671E+02  0.45333152566E+02  0.24991015000E+00 0.  0.
        -13    1    4    4    0    0  0.15578208640E+02 -0.11672813862E+02 -0.91027011007E+01  0.21489657052E+02  0.10500000000E+00 0.  1.
         13    1    4    4    0    0  0.19876693975E+02 -0.14905675633E+02 -0.11783721245E+02  0.27497804291E+02  0.10500000000E+00 0. -1.
    3000001    1    5    5    0    0 -0.10857599991E+02  0.71692058678E+01  0.11154176127E+02  0.17166846986E+02  0.10000000000E+01 0. -1.
        -13    1    6    6    0    0 -0.14695291695E+02  0.88405399038E+01  0.63485407441E+01  0.18287201491E+02  0.10500000000E+00 0.  1.
         13    1    6    6    0    0 -0.21640215364E+02  0.13172929432E+02  0.94682339266E+01  0.27045951074E+02  0.10500000000E+00 0. -1.
</event>
<event>
11    0  0.3422856E-009  0.9118800E+02  0.7816531E-02  0.1126479E+00
         25   -1    0    0    0    0  0.00000000000E+00  0.00000000000E+00  0.99999998245E-14  0.12500000000E+03  0.12500000000E+03 0.  0.
    3000001    1    3    3    0    0 -0.50420222001E+02 -0.13539853728E+02  0.16338235169E+02  0.54712561209E+02  0.10000000000E+01 0. -1.
    1000022    2    1    0    0    0 -0.58149778154E+02 -0.12626901361E+02  0.16291557059E+02  0.62499999617E+02  0.99999891703E+01 0.  0.
    3000022    2    3    3    0    0 -0.77295561531E+01  0.91295236763E+00 -0.46678109931E-01  0.77874384082E+01  0.24999553378E+00 0.  0.
    1000022    2    1    0    0    0  0.58149778154E+02  0.12626901361E+02 -0.16291557059E+02  0.62500000383E+02  0.99999939612E+01 0.  0.
    3000022    2    5    5    0    0  0.86192519729E+01  0.53225290745E+01 -0.12293104393E+01  0.10207571185E+02  0.24997003594E+00 0.  0.
        -13    1    4    4    0    0 -0.56513753017E+01  0.66967595803E+00  0.13545921787E-02  0.56918833020E+01  0.10500000000E+00 0. -1.
         13    1    4    4    0    0 -0.20781808514E+01  0.24327640960E+00 -0.48032702110E-01  0.20955551062E+01  0.10500000000E+00 0.  1.
    3000001    1    5    5    0    0  0.49530526181E+02  0.73043722862E+01 -0.15062246619E+02  0.52292429198E+02  0.10000000000E+01 0. -1.
        -13    1    6    6    0    0  0.63948029964E+01  0.39361089791E+01 -0.88180540952E+00  0.75614195121E+01  0.10500000000E+00 0. -1.
         13    1    6    6    0    0  0.22244489765E+01  0.13864200954E+01 -0.34750502977E+00  0.26461516728E+01  0.10500000000E+00 0.  1.
</event>
<event>
11    0  0.3422856E-009  0.9118800E+02  0.7816531E-02  0.1126479E+00
         25   -1    0    0    0    0  0.00000000000E+00  0.00000000000E+00  0.99999998245E-14  0.12500000000E+03  0.12500000000E+03 0.  0.
    3000001    1    3    3    0    0  0.23010675531E+02  0.23036590591E+02 -0.52054936136E+02  0.61407589682E+02  0.10000000000E+01 0.  1.
    1000022    2    1    0    0    0  0.22793392093E+02  0.22317458829E+02 -0.52807597175E+02  0.62499997404E+02  0.99999832175E+01 0.  0.
    3000022    2    3    3    0    0 -0.21728343791E+00 -0.71913176274E+00 -0.75266103985E+00  0.10924077218E+01  0.24998680999E+00 0.  0.
    1000022    2    1    0    0    0 -0.22793392093E+02 -0.22317458829E+02  0.52807597175E+02  0.62500002596E+02  0.10000015670E+02 0.  0.
    3000022    2    5    5    0    0 -0.12976723142E+02 -0.89590969485E+01  0.17988186761E+02  0.23922753303E+02  0.25000204081E+00 0.  0.
        -13    1    4    4    0    0 -0.56324952228E-01 -0.41622656970E+00 -0.41887773700E+00  0.60241233066E+00  0.10500000000E+00 0. -1.
         13    1    4    4    0    0 -0.16095848568E+00 -0.30290519304E+00 -0.33378330284E+00  0.48999539114E+00  0.10500000000E+00 0.  1.
    3000001    1    5    5    0    0 -0.98166689518E+01 -0.13358361880E+02  0.34819410414E+02  0.38577249293E+02  0.10000000000E+01 0. -1.
        -13    1    6    6    0    0 -0.67658255323E+01 -0.47345372673E+01  0.94847921257E+01  0.12576348633E+02  0.10500000000E+00 0. -1.
         13    1    6    6    0    0 -0.62108976093E+01 -0.42245596812E+01  0.85033946357E+01  0.11346404670E+02  0.10500000000E+00 0.  1.
</event>
<event>
11    0  0.3422856E-009  0.9118800E+02  0.7816531E-02  0.1126479E+00
         25   -1    0    0    0    0  0.00000000000E+00  0.00000000000E+00  0.99999998245E-14  0.12500000000E+03  0.12500000000E+03 0.  0.
    3000001    1    3    3    0    0  0.34603611905E+01  0.18627944822E+00 -0.48402717616E+02  0.48536912471E+02  0.10000000000E+01 0. -1.
    1000022    2    1    0    0    0  0.55116528478E+01  0.53357085511E+01 -0.61216026487E+02  0.62499999617E+02  0.99999975198E+01 0.  0.
    3000022    2    3    3    0    0  0.20512916573E+01  0.51494291028E+01 -0.12813308871E+02  0.13963087146E+02  0.25000174422E+00 0.  0.
    1000022    2    1    0    0    0 -0.55116528478E+01 -0.53357085511E+01  0.61216026487E+02  0.62500000383E+02  0.10000002312E+02 0.  0.
    3000022    2    5    5    0    0  0.15365877341E+01  0.67024255732E+00  0.26565955120E+02  0.26619969868E+02  0.24999485115E+00 0.  0.
        -13    1    4    4    0    0  0.10549600421E+01  0.27556436116E+01 -0.66825912769E+01  0.73057897300E+01  0.10500000000E+00 0. -1.
         13    1    4    4    0    0  0.99633161516E+00  0.23937854912E+01 -0.61307175943E+01  0.66572974161E+01  0.10500000000E+00 0.  1.
    3000001    1    5    5    0    0 -0.70482405818E+01 -0.60059511084E+01  0.34650071367E+02  0.35880030515E+02  0.10000000000E+01 0. -1.
        -13    1    6    6    0    0  0.65328337203E+00  0.31320755785E+00  0.10564714694E+02  0.10590047200E+02  0.10500000000E+00 0.  1.
         13    1    6    6    0    0  0.88330436203E+00  0.35703499947E+00  0.16001240426E+02  0.16029922668E+02  0.10500000000E+00 0. -1.
</event>
<event>
11    0  0.3422856E-009  0.9118800E+02  0.7816531E-02  0.1126479E+00
         25   -1    0    0    0    0  0.00000000000E+00  0.00000000000E+00  0.99999998245E-14  0.12500000000E+03  0.12500000000E+03 0.  0.
    3000001    1    3    3    0    0  0.21388223612E+02 -0.38242475338E+02  0.16131262384E+02  0.46702897719E+02  0.10000000000E+01 0. -1.
    1000022    2    1    0    0    0  0.31971024832E+02 -0.49931484092E+02  0.17057257782E+02  0.62500004138E+02  0.10000047088E+02 0.  0.
    3000022    2    3    3    0    0  0.10582801220E+02 -0.11689008754E+02  0.92599539742E+00  0.15797106419E+02  0.24999283244E+00 0.  0.
    1000022    2    1    0    0    0 -0.31971024832E+02  0.49931484092E+02 -0.17057257782E+02  0.62499995862E+02  0.99999953625E+01 0.  0.
    3000022    2    5    5    0    0 -0.18712831217E+02  0.22586902912E+02 -0.48286291483E+01  0.29727367403E+02  0.24995588619E+00 0.  0.
        -13    1    4    4    0    0  0.76626082410E+01 -0.84288159900E+01  0.70001197222E+00  0.11413218030E+02  0.10500000000E+00 0.  1.
         13    1    4    4    0    0  0.29201929791E+01 -0.32601927639E+01  0.22598342520E+00  0.43838883883E+01  0.10500000000E+00 0. -1.
    3000001    1    5    5    0    0 -0.13258193615E+02  0.27344581180E+02 -0.12228628633E+02  0.32772628459E+02  0.10000000000E+01 0. -1.
        -13    1    6    6    0    0 -0.11908827117E+02  0.14370836249E+02 -0.30131052334E+01  0.18905843698E+02  0.10500000000E+00 0.  1.
         13    1    6    6    0    0 -0.68040041002E+01  0.82160666627E+01 -0.18155239149E+01  0.10821523705E+02  0.10500000000E+00 0. -1.
</event>
<event>
11    0  0.3422856E-009  0.9118800E+02  0.7816531E-02  0.1126479E+00
         25   -1    0    0    0    0  0.00000000000E+00  0.00000000000E+00  0.99999998245E-14  0.12500000000E+03  0.12500000000E+03 0.  0.
    3000001    1    3    3    0    0 -0.13000289507E+01  0.10025947416E+01 -0.82338778577E+00  0.20912290487E+01  0.10000000000E+01 0.  1.
    1000022    2    1    0    0    0 -0.36430759447E+02  0.46782732042E+02  0.17041881486E+02  0.62499999488E+02  0.99999980113E+01 0.  0.
    3000022    2    3    3    0    0 -0.35130730496E+02  0.45780137301E+02  0.17865269271E+02  0.60408770439E+02  0.25000677934E+00 0.  0.
    1000022    2    1    0    0    0  0.36430759447E+02 -0.46782732042E+02 -0.17041881486E+02  0.62500000512E+02  0.10000004410E+02 0.  0.
    3000022    2    5    5    0    0  0.46616720350E+01 -0.12566256117E+02 -0.30587848133E+01  0.13749932489E+02  0.24999989159E+00 0.  0.
        -13    1    4    4    0    0 -0.12200743820E+02  0.15896529748E+02  0.62625733256E+01  0.20994967432E+02  0.10500000000E+00 0.  1.
         13    1    4    4    0    0 -0.22929986676E+02  0.29883607553E+02  0.11602695946E+02  0.39413803008E+02  0.10500000000E+00 0. -1.
    3000001    1    5    5    0    0  0.31769087412E+02 -0.34216475925E+02 -0.13983096672E+02  0.48750068023E+02  0.10000000000E+01 0. -1.
        -13    1    6    6    0    0  0.13433648618E+01 -0.35430264306E+01 -0.83401558007E+00  0.38812720116E+01  0.10500000000E+00 0. -1.
         13    1    6    6    0    0  0.33183071732E+01 -0.90232296863E+01 -0.22247692333E+01  0.98686604769E+01  0.10500000000E+00 0.  1.
</event>
<event>
11    0  0.3422856E-009  0.9118800E+02  0.7816531E-02  0.1126479E+00
         25   -1    0    0    0    0  0.00000000000E+00  0.00000000000E+00  0.99999998245E-14  0.12500000000E+03  0.12500000000E+03 0.  0.
    3000001    1    3    3    0    0 -0.18121909725E+02  0.14071794631E+02 -0.20620673666E+02  0.30864724179E+02  0.10000000000E+01 0.  1.
    1000022    2    1    0    0    0 -0.43736936249E+02  0.25347096503E+02 -0.35367419834E+02  0.62500005736E+02  0.10000071888E+02 0.  0.
    3000022    2    3    3    0    0 -0.25615026524E+02  0.11275301872E+02 -0.14746746167E+02  0.31635281557E+02  0.25000105141E+00 0.  0.
    1000022    2    1    0    0    0  0.43736936249E+02 -0.25347096503E+02  0.35367419834E+02  0.62499994264E+02  0.10000000191E+02 0.  0.
    3000022    2    5    5    0    0  0.32191728727E+02 -0.21651337816E+02  0.30692798253E+02  0.49469164057E+02  0.25000036529E+00 0.  0.
        -13    1    4    4    0    0 -0.62329321032E+01  0.27214173080E+01 -0.35926366738E+01  0.76924390175E+01  0.10500000000E+00 0.  1.
         13    1    4    4    0    0 -0.19382094421E+02  0.85538845637E+01 -0.11154109493E+02  0.23942842539E+02  0.10500000000E+00 0. -1.
    3000001    1    5    5    0    0  0.11545207521E+02 -0.36957586868E+01  0.46746215802E+01  0.13030830208E+02  0.10000000000E+01 0.  1.
        -13    1    6    6    0    0  0.18609976138E+02 -0.12556541647E+02  0.17689822534E+02  0.28582141212E+02  0.10500000000E+00 0.  1.
         13    1    6    6    0    0  0.13581752590E+02 -0.90947961691E+01  0.13002975720E+02  0.20887022845E+02  0.10500000000E+00 0. -1.
</event>
<event>
11    0  0.3422856E-009  0.9118800E+02  0.7816531E-02  0.1126479E+00
         25   -1    0    0    0    0  0.00000000000E+00  0.00000000000E+00  0.99999998245E-14  0.12500000000E+03  0.12500000000E+03 0.  0.
    3000001    1    3    3    0    0 -0.62415883187E+01  0.50223336047E+01 -0.25677496603E+02  0.26916818003E+02  0.10000000000E+01 0.  1.
    1000022    2    1    0    0    0 -0.15069051663E+02  0.22243035966E+02 -0.55537563893E+02  0.62499999678E+02  0.99999994795E+01 0.  0.
    3000022    2    3    3    0    0 -0.88274633443E+01  0.17220702362E+02 -0.29860067289E+02  0.35583181675E+02  0.25000137040E+00 0.  0.
    1000022    2    1    0    0    0  0.15069051663E+02 -0.22243035966E+02  0.55537563893E+02  0.62500000322E+02  0.10000003505E+02 0.  0.
    3000022    2    5    5    0    0  0.14080939253E+02 -0.12767859824E+02  0.39072527787E+02  0.43451306324E+02  0.24999771788E+00 0.  0.
        -13    1    4    4    0    0 -0.34868487211E+01  0.66865879130E+01 -0.11696399598E+02  0.13917088793E+02  0.10500000000E+00 0.  1.
         13    1    4    4    0    0 -0.53406146231E+01  0.10534114449E+02 -0.18163667691E+02  0.21666092882E+02  0.10500000000E+00 0. -1.
    3000001    1    5    5    0    0  0.98811240949E+00 -0.94751761429E+01  0.16465036105E+02  0.19048693998E+02  0.10000000000E+01 0.  1.
        -13    1    6    6    0    0  0.89999650398E+01 -0.81895007737E+01  0.25135842944E+02  0.27926491351E+02  0.10500000000E+00 0. -1.
         13    1    6    6    0    0  0.50809742136E+01 -0.45783590498E+01  0.13936684843E+02  0.15524814974E+02  0.10500000000E+00 0.  1.
</event>
<event>
11    0  0.3422856E-009  0.9118800E+02  0.7816531E-02  0.1126479E+00
         25   -1    0    0    0    0  0.00000000000E+00  0.00000000000E+00  0.99999998245E-14  0.12500000000E+03  0.12500000000E+03 0.  0.
    3000001    1    3    3    0    0  0.52576732017E+01  0.13673449846E+01 -0.35434355964E+01  0.65626744265E+01  0.10000000000E+01 0. -1.
    1000022    2    1    0    0    0  0.29881727581E+02  0.26906821287E+02 -0.46790552761E+02  0.62500001354E+02  0.99999833326E+01 0.  0.
    3000022    2    3    3    0    0  0.24624054379E+02  0.25539476303E+02 -0.43247117165E+02  0.55937326928E+02  0.24999387213E+00 0.  0.
    1000022    2    1    0    0    0 -0.29881727581E+02 -0.26906821287E+02  0.46790552761E+02  0.62499998646E+02  0.99999664026E+01 0.  0.
    3000022    2    5    5    0    0 -0.38612118870E+01 -0.56275374839E+01  0.13767484031E+02  0.15368287193E+02  0.24999864723E+00 0.  0.
        -13    1    4    4    0    0  0.18582996902E+02  0.19241327571E+02 -0.32620163208E+02  0.42185809620E+02  0.10500000000E+00 0.  1.
         13    1    4    4    0    0  0.60410574764E+01  0.62981487317E+01 -0.10626953956E+02  0.13751517308E+02  0.10500000000E+00 0. -1.
    3000001    1    5    5    0    0 -0.26020515694E+02 -0.21279283803E+02  0.33023068730E+02  0.47131711453E+02  0.10000000000E+01 0.  1.
        -13    1    6    6    0    0 -0.15537219026E+01 -0.23763042453E+01  0.56994119915E+01  0.63682961353E+01  0.10500000000E+00 0.  1.
         13    1    6    6    0    0 -0.23074899844E+01 -0.32512332386E+01  0.80680720397E+01  0.89999910576E+01  0.10500000000E+00 0. -1.
</event>
<event>
11    0  0.3422856E-009  0.9118800E+02  0.7816531E-02  0.1126479E+00
         25   -1    0    0    0    0  0.00000000000E+00  0.00000000000E+00  0.99999998245E-14  0.12500000000E+03  0.12500000000E+03 0.  0.
    3000001    1    3    3    0    0  0.40356765569E+01 -0.64842691110E+01  0.47266128295E+02  0.47889657706E+02  0.10000000000E+01 0.  1.
    1000022    2    1    0    0    0  0.96905190533E+01 -0.53853719035E+01  0.60690539595E+02  0.62500001362E+02  0.10000009191E+02 0.  0.
    3000022    2    3    3    0    0  0.56548424964E+01  0.10988972075E+01  0.13424411301E+02  0.14610343657E+02  0.25000852840E+00 0.  0.
    1000022    2    1    0    0    0 -0.96905190533E+01  0.53853719035E+01 -0.60690539595E+02  0.62499998638E+02  0.99999921645E+01 0.  0.
    3000022    2    5    5    0    0 -0.96968824593E+00  0.22296429698E+01 -0.36368844190E+02  0.36450883826E+02  0.25000186431E+00 0.  0.
        -13    1    4    4    0    0  0.29314195213E+01  0.60486052648E+00  0.71216299693E+01  0.77257824902E+01  0.10500000000E+00 0.  1.
         13    1    4    4    0    0  0.27234229751E+01  0.49403668098E+00  0.63027813313E+01  0.68845611664E+01  0.10500000000E+00 0. -1.
    3000001    1    5    5    0    0 -0.87208308074E+01  0.31557289338E+01 -0.24321695405E+02  0.26049114812E+02  0.10000000000E+01 0.  1.
        -13    1    6    6    0    0 -0.63638398852E+00  0.14288435912E+01 -0.22505455395E+02  0.22559989497E+02  0.10500000000E+00 0.  1.
         13    1    6    6    0    0 -0.33330425741E+00  0.80079937859E+00 -0.13863388795E+02  0.13890894329E+02  0.10500000000E+00 0. -1.
</event>
<event>
11    0  0.3422856E-009  0.9118800E+02  0.7816531E-02  0.1126479E+00
         25   -1    0    0    0    0  0.00000000000E+00  0.00000000000E+00  0.99999998245E-14  0.12500000000E+03  0.12500000000E+03 0.  0.
    3000001    1    3    3    0    0 -0.37137124329E+01 -0.21368556907E+01 -0.15653117663E+01  0.46699050529E+01  0.10000000000E+01 0.  1.
    1000022    2    1    0    0    0 -0.57764339129E+02 -0.19500377630E+02  0.94481258710E+01  0.62500004895E+02  0.99999963343E+01 0.  0.
    3000022    2    3    3    0    0 -0.54050626696E+02 -0.17363521939E+02  0.11013437637E+02  0.57830099842E+02  0.24999756831E+00 0.  0.
    1000022    2    1    0    0    0  0.57764339129E+02  0.19500377630E+02 -0.94481258710E+01  0.62499995105E+02  0.99999351433E+01 0.  0.
    3000022    2    5    5    0    0  0.41023373847E+02  0.16740982547E+02 -0.33200039228E+01  0.44432674927E+02  0.24995330578E+00 0.  0.
        -13    1    4    4    0    0 -0.35533100848E+02 -0.11418686121E+02  0.71843314447E+01  0.38008068774E+02  0.10500000000E+00 0. -1.
         13    1    4    4    0    0 -0.18517525849E+02 -0.59448358177E+01  0.38291061926E+01  0.19822031069E+02  0.10500000000E+00 0.  1.
    3000001    1    5    5    0    0  0.16740965282E+02  0.27593950825E+01 -0.61281219482E+01  0.18067320178E+02  0.10000000000E+01 0.  1.
        -13    1    6    6    0    0  0.23000048083E+02  0.93873568340E+01 -0.17951828141E+01  0.24906994730E+02  0.10500000000E+00 0.  1.
         13    1    6    6    0    0  0.18023325764E+02  0.73536257130E+01 -0.15248211087E+01  0.19525680197E+02  0.10500000000E+00 0. -1.
</event>
<event>
11    0  0.3422856E-009  0.9118800E+02  0.7816531E-02  0.1126479E+00
         25   -1    0    0    0    0  0.00000000000E+00  0.00000000000E+00  0.99999998245E-14  0.12500000000E+03  0.12500000000E+03 0.  0.
    3000001    1    3    3    0    0  0.82802018730E+01  0.10909627935E+02 -0.16707154576E+02  0.21626621067E+02  0.10000000000E+01 0.  1.
    1000022    2    1    0    0    0  0.35379503168E+02  0.28591605519E+02 -0.41678061742E+02  0.62500000988E+02  0.10000007118E+02 0.  0.
    3000022    2    3    3    0    0  0.27099301295E+02  0.17681977584E+02 -0.24970907165E+02  0.40873379921E+02  0.25003905484E+00 0.  0.
    1000022    2    1    0    0    0 -0.35379503168E+02 -0.28591605519E+02  0.41678061742E+02  0.62499999012E+02  0.99999947734E+01 0.  0.
    3000022    2    5    5    0    0 -0.84211692297E+01 -0.52912028717E+01  0.14900094393E+02  0.17916144675E+02  0.25001615238E+00 0.  0.
        -13    1    4    4    0    0  0.83781039690E+01  0.54172388453E+01 -0.77304407198E+01  0.12621800250E+02  0.10500000000E+00 0.  1.
         13    1    4    4    0    0  0.18721197326E+02  0.12264738739E+02 -0.17240466446E+02  0.28251579671E+02  0.10500000000E+00 0. -1.
    3000001    1    5    5    0    0 -0.26958333938E+02 -0.23300402647E+02  0.26777967349E+02  0.44583854337E+02  0.10000000000E+01 0. -1.
        -13    1    6    6    0    0 -0.46390069865E+01 -0.28972888051E+01  0.80765838098E+01  0.97548397874E+01  0.10500000000E+00 0.  1.
         13    1    6    6    0    0 -0.37821622432E+01 -0.23939140666E+01  0.68235105835E+01  0.81613048880E+01  0.10500000000E+00 0. -1.
</event>
<event>
11    0  0.3422856E-009  0.9118800E+02  0.7816531E-02  0.1126479E+00
         25   -1    0    0    0    0  0.00000000000E+00  0.00000000000E+00  0.99999998245E-14  0.12500000000E+03  0.12500000000E+03 0.  0.
    3000001    1    3    3    0    0  0.21520052119E+02  0.11627921283E+02  0.39511241062E+02  0.46480741892E+02  0.10000000000E+01 0.  1.
    1000022    2    1    0    0    0  0.26023932921E+02  0.10900727843E+02  0.54865089166E+02  0.62500008501E+02  0.10000105060E+02 0.  0.
    3000022    2    3    3    0    0  0.45038808018E+01 -0.72719343931E+00  0.15353848104E+02  0.16019266609E+02  0.24999701549E+00 0.  0.
    1000022    2    1    0    0    0 -0.26023932921E+02 -0.10900727843E+02 -0.54865089166E+02  0.62499991499E+02  0.99999987975E+01 0.  0.
    3000022    2    5    5    0    0 -0.22938956758E+02 -0.54355573358E+01 -0.42792491792E+02  0.48856942940E+02  0.24999808305E+00 0.  0.
        -13    1    4    4    0    0  0.17951496403E+01 -0.34855093827E+00  0.60680973076E+01  0.63385234812E+01  0.10500000000E+00 0. -1.
         13    1    4    4    0    0  0.27087311615E+01 -0.37864250103E+00  0.92857507966E+01  0.96807431277E+01  0.10500000000E+00 0.  1.
    3000001    1    5    5    0    0 -0.30849761632E+01 -0.54651705077E+01 -0.12072597374E+02  0.13643048559E+02  0.10000000000E+01 0.  1.
        -13    1    6    6    0    0 -0.92593930641E+01 -0.21382216213E+01 -0.17183005958E+02  0.19636065553E+02  0.10500000000E+00 0.  1.
         13    1    6    6    0    0 -0.13679563694E+02 -0.32973357145E+01 -0.25609485833E+02  0.29220877388E+02  0.10500000000E+00 0. -1.
</event>
<event>
11    0  0.3422856E-009  0.9118800E+02  0.7816531E-02  0.1126479E+00
         25   -1    0    0    0    0  0.00000000000E+00  0.00000000000E+00  0.99999998245E-14  0.12500000000E+03  0.12500000000E+03 0.  0.
    3000001    1    3    3    0    0  0.87295383281E+01  0.22210938443E+02  0.65614440598E+01  0.24770611097E+02  0.10000000000E+01 0. -1.
    1000022    2    1    0    0    0  0.31202722199E+02  0.49098430529E+02  0.20542254489E+02  0.62499999904E+02  0.10000000775E+02 0.  0.
    3000022    2    3    3    0    0  0.22473183871E+02  0.26887492086E+02  0.13980810429E+02  0.37729388808E+02  0.24999118095E+00 0.  0.
    1000022    2    1    0    0    0 -0.31202722199E+02 -0.49098430529E+02 -0.20542254489E+02  0.62500000096E+02  0.10000001973E+02 0.  0.
    3000022    2    5    5    0    0 -0.15806848654E+02 -0.25536385305E+02 -0.15811592692E+02  0.33941602760E+02  0.24999127795E+00 0.  0.
        -13    1    4    4    0    0  0.13518661938E+02  0.16099944676E+02  0.84319283781E+01  0.22651067973E+02  0.10500000000E+00 0.  1.
         13    1    4    4    0    0  0.89545219328E+01  0.10787547410E+02  0.55488820508E+01  0.15078320834E+02  0.10500000000E+00 0. -1.
    3000001    1    5    5    0    0 -0.15395873545E+02 -0.23562045224E+02 -0.47306617964E+01  0.28558397336E+02  0.10000000000E+01 0.  1.
        -13    1    6    6    0    0 -0.55887002924E+01 -0.89352057825E+01 -0.55169495294E+01  0.11896185542E+02  0.10500000000E+00 0.  1.
         13    1    6    6    0    0 -0.10218148361E+02 -0.16601179523E+02 -0.10294643163E+02  0.22045417218E+02  0.10500000000E+00 0. -1.
</event>
<event>
11    0  0.3422856E-009  0.9118800E+02  0.7816531E-02  0.1126479E+00
         25   -1    0    0    0    0  0.00000000000E+00  0.00000000000E+00  0.99999998245E-14  0.12500000000E+03  0.12500000000E+03 0.  0.
    3000001    1    3    3    0    0 -0.17379447338E+02  0.14610281559E+02  0.24207114414E-01  0.22726770624E+02  0.10000000000E+01 0. -1.
    1000022    2    1    0    0    0 -0.38091806899E+02  0.48459279300E+02 -0.26386549787E+01  0.62500000560E+02  0.10000003343E+02 0.  0.
    3000022    2    3    3    0    0 -0.20712359560E+02  0.33848997740E+02 -0.26628620931E+01  0.39773229936E+02  0.24999683347E+00 0.  0.
    1000022    2    1    0    0    0  0.38091806899E+02 -0.48459279300E+02  0.26386549787E+01  0.62499999440E+02  0.99999963438E+01 0.  0.
    3000022    2    5    5    0    0  0.22537515573E+02 -0.36073382651E+02  0.18384496655E+01  0.42575473273E+02  0.24996638346E+00 0.  0.
        -13    1    4    4    0    0 -0.14116933042E+02  0.22974158739E+02 -0.18170671601E+01  0.27026145236E+02  0.10500000000E+00 0.  1.
         13    1    4    4    0    0 -0.65954265188E+01  0.10874839001E+02 -0.84579493296E+00  0.12747084700E+02  0.10500000000E+00 0. -1.
    3000001    1    5    5    0    0  0.15554291325E+02 -0.12385896649E+02  0.80020531322E+00  0.19924526167E+02  0.10000000000E+01 0.  1.
        -13    1    6    6    0    0  0.13860038674E+02 -0.22101795572E+02  0.11710101234E+01  0.26114599925E+02  0.10500000000E+00 0. -1.
         13    1    6    6    0    0  0.86774768997E+01 -0.13971587079E+02  0.66743954205E+00  0.16460873348E+02  0.10500000000E+00 0.  1.
</event>
<event>
11    0  0.3422856E-009  0.9118800E+02  0.7816531E-02  0.1126479E+00
         25   -1    0    0    0    0  0.00000000000E+00  0.00000000000E+00  0.99999998245E-14  0.12500000000E+03  0.12500000000E+03 0.  0.
    3000001    1    3    3    0    0  0.18960271214E+02 -0.17768011553E+02  0.69841158539E+01  0.26925303959E+02  0.10000000000E+01 0. -1.
    1000022    2    1    0    0    0  0.36438842891E+02 -0.48392648116E+02  0.11688140368E+02  0.62500002512E+02  0.10000001290E+02 0.  0.
    3000022    2    3    3    0    0  0.17478571677E+02 -0.30624636563E+02  0.47040245145E+01  0.35574698552E+02  0.24999593273E+00 0.  0.
    1000022    2    1    0    0    0 -0.36438842891E+02  0.48392648116E+02 -0.11688140368E+02  0.62499997488E+02  0.99999698950E+01 0.  0.
    3000022    2    5    5    0    0 -0.10821301856E+02  0.88448520902E+01 -0.52501156900E+01  0.14931786034E+02  0.25007413340E+00 0.  0.
        -13    1    4    4    0    0  0.57748987736E+01 -0.10051089655E+02  0.15874977187E+01  0.11700642423E+02  0.10500000000E+00 0.  1.
         13    1    4    4    0    0  0.11703672903E+02 -0.20573546908E+02  0.31165267958E+01  0.23874056129E+02  0.10500000000E+00 0. -1.
    3000001    1    5    5    0    0 -0.25617541035E+02  0.39547796026E+02 -0.64380246785E+01  0.47568211454E+02  0.10000000000E+01 0. -1.
        -13    1    6    6    0    0 -0.72698089555E+01  0.60014176016E+01 -0.35668436381E+01  0.10079709024E+02  0.10500000000E+00 0.  1.
         13    1    6    6    0    0 -0.35514929000E+01  0.28434344885E+01 -0.16832720519E+01  0.48520770099E+01  0.10500000000E+00 0. -1.
</event>
<event>
11    0  0.3422856E-009  0.9118800E+02  0.7816531E-02  0.1126479E+00
         25   -1    0    0    0    0  0.00000000000E+00  0.00000000000E+00  0.99999998245E-14  0.12500000000E+03  0.12500000000E+03 0.  0.
    3000001    1    3    3    0    0 -0.48992901916E+02  0.23493194983E+01 -0.13371534282E+02  0.50849008538E+02  0.10000000000E+01 0. -1.
    1000022    2    1    0    0    0 -0.59848745223E+02  0.65713786188E+01 -0.13460858967E+02  0.62499999863E+02  0.99999968487E+01 0.  0.
    3000022    2    3    3    0    0 -0.10855843307E+02  0.42220591205E+01 -0.89324684736E-01  0.11650991324E+02  0.25000563825E+00 0.  0.
    1000022    2    1    0    0    0  0.59848745223E+02 -0.65713786188E+01  0.13460858967E+02  0.62500000137E+02  0.99999985674E+01 0.  0.
    3000022    2    5    5    0    0  0.13842727874E+02  0.26019746796E+01  0.23793145113E+01  0.14286882933E+02  0.24999834491E+00 0.  0.
        -13    1    4    4    0    0 -0.57560410843E+01  0.23033679254E+01 -0.17594146260E-01  0.62007134523E+01  0.10500000000E+00 0. -1.
         13    1    4    4    0    0 -0.50998022227E+01  0.19186911951E+01 -0.71730538476E-01  0.54502778721E+01  0.10500000000E+00 0.  1.
    3000001    1    5    5    0    0  0.46006017349E+02 -0.91733532984E+01  0.11081544455E+02  0.48213117205E+02  0.10000000000E+01 0. -1.
        -13    1    6    6    0    0  0.59916107496E+01  0.11092810019E+01  0.10938227429E+01  0.61917184132E+01  0.10500000000E+00 0. -1.
         13    1    6    6    0    0  0.78511171241E+01  0.14926936777E+01  0.12854917685E+01  0.80951645195E+01  0.10500000000E+00 0.  1.
</event>
<event>
11    0  0.3422856E-009  0.9118800E+02  0.7816531E-02  0.1126479E+00
         25   -1    0    0    0    0  0.00000000000E+00  0.00000000000E+00  0.99999998245E-14  0.12500000000E+03  0.12500000000E+03 0.  0.
    3000001    1    3    3    0    0 -0.10649126460E+01  0.11696321929E+02  0.22423065792E+01  0.11998580099E+02  0.10000000000E+01 0.  1.
    1000022    2    1    0    0    0  0.11025726877E+02  0.56597968147E+02  0.21939762130E+02  0.62500002338E+02  0.10000023917E+02 0.  0.
    3000022    2    3    3    0    0  0.12090639523E+02  0.44901646218E+02  0.19697455551E+02  0.50501422238E+02  0.24999146117E+00 0.  0.
    1000022    2    1    0    0    0 -0.11025726877E+02 -0.56597968147E+02 -0.21939762130E+02  0.62499997662E+02  0.99999946952E+01 0.  0.
    3000022    2    5    5    0    0 -0.72781497434E+01 -0.44911019526E+02 -0.13113671064E+02  0.47349783605E+02  0.25000041309E+00 0.  0.
        -13    1    4    4    0    0  0.40074246860E+01  0.15071667700E+02  0.65821290513E+01  0.16927789806E+02  0.10500000000E+00 0. -1.
         13    1    4    4    0    0  0.80832148367E+01  0.29829978519E+02  0.13115326500E+02  0.33573632433E+02  0.10500000000E+00 0.  1.
    3000001    1    5    5    0    0 -0.37475771334E+01 -0.11686948622E+02 -0.88260910662E+01  0.15150214057E+02  0.10000000000E+01 0.  1.
        -13    1    6    6    0    0 -0.50133515097E+01 -0.30792188316E+02 -0.90376522614E+01  0.32480497811E+02  0.10500000000E+00 0. -1.
         13    1    6    6    0    0 -0.22647982337E+01 -0.14118831209E+02 -0.40760188025E+01  0.14869285795E+02  0.10500000000E+00 0.  1.
</event>
<event>
11    0  0.3422856E-009  0.9118800E+02  0.7816531E-02  0.1126479E+00
         25   -1    0    0    0    0  0.00000000000E+00  0.00000000000E+00  0.99999998245E-14  0.12500000000E+03  0.12500000000E+03 0.  0.
    3000001    1    3    3    0    0  0.26227976724E+01 -0.35811175226E+02  0.31057973142E+02  0.47485966710E+02  0.10000000000E+01 0.  1.
    1000022    2    1    0    0    0  0.90643694861E+00 -0.49655755132E+02  0.36602378826E+02  0.62500000834E+02  0.10000016143E+02 0.  0.
    3000022    2    3    3    0    0 -0.17163607237E+01 -0.13844579905E+02  0.55444056843E+01  0.15014034123E+02  0.24999876778E+00 0.  0.
    1000022    2    1    0    0    0 -0.90643694861E+00  0.49655755132E+02 -0.36602378826E+02  0.62499999166E+02  0.10000005720E+02 0.  0.
    3000022    2    5    5    0    0  0.24453280287E+01  0.23662410519E+02 -0.22390657567E+02  0.32669455863E+02  0.24999871227E+00 0.  0.
        -13    1    4    4    0    0 -0.40059347156E+00 -0.32490472629E+01  0.12864531352E+01  0.35189160142E+01  0.10500000000E+00 0.  1.
         13    1    4    4    0    0 -0.13157672522E+01 -0.10595532642E+02  0.42579525491E+01  0.11495118109E+02  0.10500000000E+00 0. -1.
    3000001    1    5    5    0    0 -0.33517649773E+01  0.25993344613E+02 -0.14211721259E+02  0.29830543303E+02  0.10000000000E+01 0.  1.
        -13    1    6    6    0    0  0.13673996138E+01  0.13562999068E+02 -0.12754007224E+02  0.18668166774E+02  0.10500000000E+00 0.  1.
         13    1    6    6    0    0  0.10779284149E+01  0.10099411451E+02 -0.96366503433E+01  0.14001289089E+02  0.10500000000E+00 0. -1.
</event>
<event>
11    0  0.3422856E-009  0.9118800E+02  0.7816531E-02  0.1126479E+00
         25   -1    0    0    0    0  0.00000000000E+00  0.00000000000E+00  0.99999998245E-14  0.12500000000E+03  0.12500000000E+03 0.  0.
    3000001    1    3    3    0    0 -0.52445691912E+02  0.25818508542E+02 -0.91456505321E+01  0.59175914924E+02  0.10000000000E+01 0. -1.
    1000022    2    1    0    0    0 -0.55386532118E+02  0.25074273915E+02 -0.10481544739E+02  0.62499999754E+02  0.10000001836E+02 0.  0.
    3000022    2    3    3    0    0 -0.29408402060E+01 -0.74423462683E+00 -0.13358942067E+01  0.33240848300E+01  0.25000065655E+00 0.  0.
    1000022    2    1    0    0    0  0.55386532118E+02 -0.25074273915E+02  0.10481544739E+02  0.62500000246E+02  0.10000004907E+02 0.  0.
    3000022    2    5    5    0    0  0.23866649529E+02 -0.11435347011E+02 -0.36942264012E+00  0.26468530408E+02  0.25001583853E+00 0.  0.
        -13    1    4    4    0    0 -0.17362700561E+01 -0.43678593463E+00 -0.71778572661E+00  0.19317497275E+01  0.10500000000E+00 0.  1.
         13    1    4    4    0    0 -0.12045701499E+01 -0.30744869220E+00 -0.61810848008E+00  0.13923351025E+01  0.10500000000E+00 0. -1.
    3000001    1    5    5    0    0  0.31519882590E+02 -0.13638926905E+02  0.10850967379E+02  0.36031469837E+02  0.10000000000E+01 0. -1.
        -13    1    6    6    0    0  0.78819710073E+01 -0.38163401498E+01 -0.16131146936E+00  0.87593929864E+01  0.10500000000E+00 0. -1.
         13    1    6    6    0    0  0.15984678521E+02 -0.76190068609E+01 -0.20811117076E+00  0.17709137422E+02  0.10500000000E+00 0.  1.
</event>
<event>
11    0  0.3422856E-009  0.9118800E+02  0.7816531E-02  0.1126479E+00
         25   -1    0    0    0    0  0.00000000000E+00  0.00000000000E+00  0.99999998245E-14  0.12500000000E+03  0.12500000000E+03 0.  0.
    3000001    1    3    3    0    0 -0.27121510168E+01 -0.88411728281E+01  0.11627286552E+02  0.14890127356E+02  0.10000000000E+01 0.  1.
    1000022    2    1    0    0    0 -0.17582201094E+02 -0.47056730945E+02  0.35815923225E+02  0.62499999732E+02  0.99999943740E+01 0.  0.
    3000022    2    3    3    0    0 -0.14870050077E+02 -0.38215558117E+02  0.24188636673E+02  0.47609872376E+02  0.25006411900E+00 0.  0.
    1000022    2    1    0    0    0  0.17582201094E+02  0.47056730945E+02 -0.35815923225E+02  0.62500000268E+02  0.99999977266E+01 0.  0.
    3000022    2    5    5    0    0  0.90016573778E+01  0.15611283450E+02 -0.17388250359E+02  0.25043078000E+02  0.24999723081E+00 0.  0.
        -13    1    4    4    0    0 -0.97531997151E+01 -0.25206085601E+02  0.15966291556E+02  0.31391163519E+02  0.10500000000E+00 0. -1.
         13    1    4    4    0    0 -0.51168503619E+01 -0.13009472516E+02  0.82223451169E+01  0.16218708857E+02  0.10500000000E+00 0.  1.
    3000001    1    5    5    0    0  0.85805437160E+01  0.31445447494E+02 -0.18427672866E+02  0.37456922269E+02  0.10000000000E+01 0.  1.
        -13    1    6    6    0    0  0.36927272857E+01  0.64863934277E+01 -0.71333308043E+01  0.10324968178E+02  0.10500000000E+00 0.  1.
         13    1    6    6    0    0  0.53089300922E+01  0.91248900225E+01 -0.10254919555E+02  0.14718109822E+02  0.10500000000E+00 0. -1.
</event>
<event>
11    0  0.3422856E-009  0.9118800E+02  0.7816531E-02  0.1126479E+00
         25   -1    0    0    0    0  0.00000000000E+00  0.00000000000E+00  0.99999998245E-14  0.12500000000E+03  0.12500000000E+03 0.  0.
    3000001    1    3    3    0    0 -0.14399713161E+02 -0.21111571559E+02 -0.40228623666E+02  0.47669616685E+02  0.10000000000E+01 0. -1.
    1000022    2    1    0    0    0 -0.14189919885E+02 -0.30443666407E+02 -0.51750160600E+02  0.62500001527E+02  0.10000020908E+02 0.  0.
    3000022    2    3    3    0    0  0.20979327652E+00 -0.93320948472E+01 -0.11521536934E+02  0.14830384842E+02  0.24998757427E+00 0.  0.
    1000022    2    1    0    0    0  0.14189919885E+02  0.30443666407E+02  0.51750160600E+02  0.62499998473E+02  0.10000001817E+02 0.  0.
    3000022    2    5    5    0    0  0.12574854929E+02  0.25307023363E+02  0.35640973180E+02  0.45485314935E+02  0.24999498301E+00 0.  0.
        -13    1    4    4    0    0  0.10370537222E+00 -0.61322370215E+01 -0.74996066553E+01  0.96886640294E+01  0.10500000000E+00 0. -1.
         13    1    4    4    0    0  0.10608790430E+00 -0.31998578257E+01 -0.40219302786E+01  0.51417208125E+01  0.10500000000E+00 0.  1.
    3000001    1    5    5    0    0  0.16150649554E+01  0.51366430435E+01  0.16109187420E+02  0.17014683538E+02  0.10000000000E+01 0. -1.
        -13    1    6    6    0    0  0.88284237564E+01  0.17739943938E+02  0.25061545716E+02  0.31949002733E+02  0.10500000000E+00 0. -1.
         13    1    6    6    0    0  0.37464311730E+01  0.75670794252E+01  0.10579427464E+02  0.13536312202E+02  0.10500000000E+00 0.  1.
</event>
<event>
11    0  0.3422856E-009  0.9118800E+02  0.7816531E-02  0.1126479E+00
         25   -1    0    0    0    0  0.00000000000E+00  0.00000000000E+00  0.99999998245E-14  0.12500000000E+03  0.12500000000E+03 0.  0.
    3000001    1    3    3    0    0 -0.51977813880E+01  0.25670150023E+01 -0.58292181263E+01  0.82816834848E+01  0.10000000000E+01 0. -1.
    1000022    2    1    0    0    0 -0.23277455786E+02  0.57618857502E+01 -0.56843742502E+02  0.62500001627E+02  0.99999933263E+01 0.  0.
    3000022    2    3    3    0    0 -0.18079674398E+02  0.31948707479E+01 -0.51014524375E+02  0.54218318142E+02  0.24999899897E+00 0.  0.
    1000022    2    1    0    0    0  0.23277455786E+02 -0.57618857502E+01  0.56843742502E+02  0.62499998373E+02  0.99999729860E+01 0.  0.
    3000022    2    5    5    0    0  0.13369929271E+02 -0.78147393030E+01  0.38999462075E+02  0.41962431981E+02  0.24999303547E+00 0.  0.
        -13    1    4    4    0    0 -0.92841290027E+01  0.15747150797E+01 -0.26222116083E+02  0.27861894692E+02  0.10500000000E+00 0.  1.
         13    1    4    4    0    0 -0.87955453958E+01  0.16201556682E+01 -0.24792408292E+02  0.26356423451E+02  0.10500000000E+00 0. -1.
    3000001    1    5    5    0    0  0.99075265151E+01  0.20528535528E+01  0.17844280426E+02  0.20537566391E+02  0.10000000000E+01 0.  1.
        -13    1    6    6    0    0  0.67854273854E+01 -0.39244174170E+01  0.19584062780E+02  0.21094777004E+02  0.10500000000E+00 0. -1.
         13    1    6    6    0    0  0.65845018860E+01 -0.38903218860E+01  0.19415399295E+02  0.20867654977E+02  0.10500000000E+00 0.  1.
</event>
<event>
11    0  0.3422856E-009  0.9118800E+02  0.7816531E-02  0.1126479E+00
         25   -1    0    0    0    0  0.00000000000E+00  0.00000000000E+00  0.99999998245E-14  0.12500000000E+03  0.12500000000E+03 0.  0.
    3000001    1    3    3    0    0  0.22686367135E+02 -0.17252339953E+02 -0.84925101295E+01  0.29756297081E+02  0.10000000000E+01 0.  1.
    1000022    2    1    0    0    0  0.40149572391E+02 -0.43398583270E+02 -0.17630227861E+02  0.62499998197E+02  0.99999823554E+01 0.  0.
    3000022    2    3    3    0    0  0.17463205256E+02 -0.26146243317E+02 -0.91377177311E+01  0.32743701116E+02  0.25000006102E+00 0.  0.
    1000022    2    1    0    0    0 -0.40149572391E+02  0.43398583270E+02  0.17630227861E+02  0.62500001803E+02  0.10000004898E+02 0.  0.
    3000022    2    5    5    0    0 -0.35252727006E+02  0.41732455155E+02  0.15246203287E+02  0.56717385545E+02  0.25006752090E+00 0.  0.
        -13    1    4    4    0    0  0.92303971126E+01 -0.13814418332E+02 -0.47583396928E+01  0.17282685160E+02  0.10500000000E+00 0. -1.
         13    1    4    4    0    0  0.82328081431E+01 -0.12331824985E+02 -0.43793780382E+01  0.15461015955E+02  0.10500000000E+00 0.  1.
    3000001    1    5    5    0    0 -0.48968453855E+01  0.16661281150E+01  0.23840245735E+01  0.57826162584E+01  0.10000000000E+01 0. -1.
        -13    1    6    6    0    0 -0.19733035510E+02  0.23311623374E+02  0.85844751898E+01  0.31725836696E+02  0.10500000000E+00 0.  1.
         13    1    6    6    0    0 -0.15519691495E+02  0.18420831782E+02  0.66617280973E+01  0.24991548849E+02  0.10500000000E+00 0. -1.
</event>
<event>
11    0  0.3422856E-009  0.9118800E+02  0.7816531E-02  0.1126479E+00
         25   -1    0    0    0    0  0.00000000000E+00  0.00000000000E+00  0.99999998245E-14  0.12500000000E+03  0.12500000000E+03 0.  0.
    3000001    1    3    3    0    0  0.16059022829E+02  0.43675972145E+02  0.19450623977E+02  0.50446105203E+02  0.10000000000E+01 0.  1.
    1000022    2    1    0    0    0  0.16153128906E+02  0.55571222859E+02  0.21381444230E+02  0.62500001033E+02  0.99999794094E+01 0.  0.
    3000022    2    3    3    0    0  0.94106077259E-01  0.11895250714E+02  0.19308202523E+01  0.12053895829E+02  0.24998463527E+00 0.  0.
    1000022    2    1    0    0    0 -0.16153128906E+02 -0.55571222859E+02 -0.21381444230E+02  0.62499998967E+02  0.99999665006E+01 0.  0.
    3000022    2    5    5    0    0 -0.13419477802E+02 -0.31196776879E+02 -0.97320046254E+01  0.35328397831E+02  0.25001432956E+00 0.  0.
        -13    1    4    4    0    0  0.12739041597E-01  0.57295077939E+01  0.86991563321E+00  0.57961366489E+01  0.10500000000E+00 0. -1.
         13    1    4    4    0    0  0.81367035661E-01  0.61657429200E+01  0.10609046191E+01  0.62577591805E+01  0.10500000000E+00 0.  1.
    3000001    1    5    5    0    0 -0.27336511043E+01 -0.24374445981E+02 -0.11649439604E+02  0.27171601136E+02  0.10000000000E+01 0.  1.
        -13    1    6    6    0    0 -0.10258816041E+02 -0.23881251413E+02 -0.74416540073E+01  0.27036026242E+02  0.10500000000E+00 0. -1.
         13    1    6    6    0    0 -0.31606617616E+01 -0.73155254661E+01 -0.22903506181E+01  0.82923715890E+01  0.10500000000E+00 0.  1.
</event>
<event>
11    0  0.3422856E-009  0.9118800E+02  0.7816531E-02  0.1126479E+00
         25   -1    0    0    0    0  0.00000000000E+00  0.00000000000E+00  0.99999998245E-14  0.12500000000E+03  0.12500000000E+03 0.  0.
    3000001    1    3    3    0    0  0.19182257927E+01 -0.10194787980E+01  0.80121474234E+01  0.83614253298E+01  0.10000000000E+01 0.  1.
    1000022    2    1    0    0    0  0.21977195680E+01 -0.28245066652E+02  0.54805439072E+02  0.62500001112E+02  0.10000011285E+02 0.  0.
    3000022    2    3    3    0    0  0.27949377530E+00 -0.27225587854E+02  0.46793291649E+02  0.54138575783E+02  0.24998737154E+00 0.  0.
    1000022    2    1    0    0    0 -0.21977195680E+01  0.28245066652E+02 -0.54805439072E+02  0.62499998888E+02  0.99999973803E+01 0.  0.
    3000022    2    5    5    0    0 -0.52640261897E+01  0.11506043896E+02 -0.28088171931E+02  0.30807578932E+02  0.24999881198E+00 0.  0.
        -13    1    4    4    0    0  0.16252871094E+00 -0.16002128907E+02  0.27375344118E+02  0.31709857075E+02  0.10500000000E+00 0. -1.
         13    1    4    4    0    0  0.11696506437E+00 -0.11223458947E+02  0.19417947531E+02  0.22428718707E+02  0.10500000000E+00 0.  1.
    3000001    1    5    5    0    0  0.30663066217E+01  0.16739022755E+02 -0.26717267142E+02  0.31692419955E+02  0.10000000000E+01 0.  1.
        -13    1    6    6    0    0 -0.38958302875E+01  0.84439118407E+01 -0.20680305124E+02  0.22675166721E+02  0.10500000000E+00 0. -1.
         13    1    6    6    0    0 -0.13681959022E+01  0.30621320555E+01 -0.74078668064E+01  0.81324122113E+01  0.10500000000E+00 0.  1.
</event>
<event>
11    0  0.3422856E-009  0.9118800E+02  0.7816531E-02  0.1126479E+00
         25   -1    0    0    0    0  0.00000000000E+00  0.00000000000E+00  0.99999998245E-14  0.12500000000E+03  0.12500000000E+03 0.  0.
    3000001    1    3    3    0    0  0.15461264853E+00  0.16799540580E+02  0.46259309164E+01  0.17454160123E+02  0.10000000000E+01 0. -1.
    1000022    2    1    0    0    0 -0.13800141469E+02  0.59277579111E+02  0.10098252184E+02  0.62500000336E+02  0.10000002750E+02 0.  0.
    3000022    2    3    3    0    0 -0.13954754117E+02  0.42478038531E+02  0.54723212680E+01  0.45045840213E+02  0.25000095679E+00 0.  0.
    1000022    2    1    0    0    0  0.13800141469E+02 -0.59277579111E+02 -0.10098252184E+02  0.62499999664E+02  0.99999985471E+01 0.  0.
    3000022    2    5    5    0    0  0.90972143427E+01 -0.35828863435E+02 -0.12735479755E+01  0.36988527836E+02  0.25000644851E+00 0.  0.
        -13    1    4    4    0    0 -0.10418251317E+02  0.31681590448E+02  0.41089219887E+01  0.33602937352E+02  0.10500000000E+00 0.  1.
         13    1    4    4    0    0 -0.35365028001E+01  0.10796448084E+02  0.13633992793E+01  0.11442902860E+02  0.10500000000E+00 0. -1.
    3000001    1    5    5    0    0  0.47029271262E+01 -0.23448715676E+02 -0.88247042089E+01  0.25511471827E+02  0.10000000000E+01 0.  1.
        -13    1    6    6    0    0  0.40683613229E+01 -0.15811015191E+02 -0.60330959328E+00  0.16337526516E+02  0.10500000000E+00 0.  1.
         13    1    6    6    0    0  0.50288530197E+01 -0.20017848244E+02 -0.67023838222E+00  0.20651001320E+02  0.10500000000E+00 0. -1.
</event>
<event>
11    0  0.3422856E-009  0.9118800E+02  0.7816531E-02  0.1126479E+00
         25   -1    0    0    0    0  0.00000000000E+00  0.00000000000E+00  0.99999998245E-14  0.12500000000E+03  0.12500000000E+03 0.  0.
    3000001    1    3    3    0    0  0.22557895694E+02  0.29817768093E+02 -0.73412556483E+01  0.38116295553E+02  0.10000000000E+01 0.  1.
    1000022    2    1    0    0    0  0.42406480985E+02  0.43857833369E+02 -0.91886252414E+01  0.62500000034E+02  0.99999996542E+01 0.  0.
    3000022    2    3    3    0    0  0.19848585291E+02  0.14040065276E+02 -0.18473695931E+01  0.24383704481E+02  0.24999761344E+00 0.  0.
    1000022    2    1    0    0    0 -0.42406480985E+02 -0.43857833369E+02  0.91886252414E+01  0.62499999966E+02  0.99999992260E+01 0.  0.
    3000022    2    5    5    0    0 -0.19761533616E+02 -0.18414006454E+02 -0.68966878798E+00  0.27020954568E+02  0.24999632710E+00 0.  0.
        -13    1    4    4    0    0  0.12475125129E+02  0.87577776778E+01 -0.11834387244E+01  0.15288524097E+02  0.10500000000E+00 0. -1.
         13    1    4    4    0    0  0.73734601612E+01  0.52822875984E+01 -0.66393086874E+00  0.90951803841E+01  0.10500000000E+00 0.  1.
    3000001    1    5    5    0    0 -0.22644947369E+02 -0.25443826915E+02  0.98782940294E+01  0.35479045398E+02  0.10000000000E+01 0. -1.
        -13    1    6    6    0    0 -0.84095020523E+01 -0.78203819259E+01 -0.35741064486E+00  0.11489859251E+02  0.10500000000E+00 0. -1.
         13    1    6    6    0    0 -0.11352031563E+02 -0.10593624528E+02 -0.33225814312E+00  0.15531095317E+02  0.10500000000E+00 0.  1.
</event>
<event>
11    0  0.3422856E-009  0.9118800E+02  0.7816531E-02  0.1126479E+00
         25   -1    0    0    0    0  0.00000000000E+00  0.00000000000E+00  0.99999998245E-14  0.12500000000E+03  0.12500000000E+03 0.  0.
    3000001    1    3    3    0    0  0.57764742869E+00  0.37413236621E+00 -0.48773774491E+00  0.13082582647E+01  0.10000000000E+01 0. -1.
    1000022    2    1    0    0    0 -0.82791221934E+01  0.22149799638E+02 -0.56983264821E+02  0.62499998946E+02  0.99999955115E+01 0.  0.
    3000022    2    3    3    0    0 -0.88567696220E+01  0.21775667272E+02 -0.56495527076E+02  0.61191740681E+02  0.24998934088E+00 0.  0.
    1000022    2    1    0    0    0  0.82791221934E+01 -0.22149799638E+02  0.56983264821E+02  0.62500001054E+02  0.10000008688E+02 0.  0.
    3000022    2    5    5    0    0  0.56388064940E+00 -0.61419299155E+01  0.26424953934E+02  0.27136358574E+02  0.25000358638E+00 0.  0.
        -13    1    4    4    0    0 -0.54725750034E+01  0.13615055056E+02 -0.35258280182E+02  0.38190000625E+02  0.10500000000E+00 0. -1.
         13    1    4    4    0    0 -0.33841946187E+01  0.81606122163E+01 -0.21237246894E+02  0.23001740056E+02  0.10500000000E+00 0.  1.
    3000001    1    5    5    0    0  0.77152415440E+01 -0.16007869723E+02  0.30558310887E+02  0.35363642480E+02  0.10000000000E+01 0. -1.
        -13    1    6    6    0    0  0.28147722381E+00 -0.37450738509E+01  0.16072747404E+02  0.16506030464E+02  0.10500000000E+00 0.  1.
         13    1    6    6    0    0  0.28240342559E+00 -0.23968560646E+01  0.10352206530E+02  0.10630328110E+02  0.10500000000E+00 0. -1.
</event>
<event>
11    0  0.3422856E-009  0.9118800E+02  0.7816531E-02  0.1126479E+00
         25   -1    0    0    0    0  0.00000000000E+00  0.00000000000E+00  0.99999998245E-14  0.12500000000E+03  0.12500000000E+03 0.  0.
    3000001    1    3    3    0    0 -0.34911855180E+01  0.19728461116E+01  0.12716726859E+02  0.13371448691E+02  0.10000000000E+01 0. -1.
    1000022    2    1    0    0    0  0.22899973131E+01  0.82554055930E+01  0.61097088733E+02  0.62499999899E+02  0.99999963232E+01 0.  0.
    3000022    2    3    3    0    0  0.57811828311E+01  0.62825594814E+01  0.48380361875E+02  0.49128551208E+02  0.25000016087E+00 0.  0.
    1000022    2    1    0    0    0 -0.22899973131E+01 -0.82554055930E+01 -0.61097088733E+02  0.62500000101E+02  0.99999975866E+01 0.  0.
    3000022    2    5    5    0    0  0.22665492675E+01 -0.29016797000E+01 -0.67677408373E+01  0.77085542313E+01  0.25000326555E+00 0.  0.
        -13    1    4    4    0    0  0.27329258839E+01  0.30500517683E+01  0.22973313944E+02  0.23335721079E+02  0.10500000000E+00 0.  1.
         13    1    4    4    0    0  0.30482569471E+01  0.32325077131E+01  0.25407047930E+02  0.25792830129E+02  0.10500000000E+00 0. -1.
    3000001    1    5    5    0    0 -0.45565465806E+01 -0.53537258930E+01 -0.54329347896E+02  0.54791445870E+02  0.10000000000E+01 0. -1.
        -13    1    6    6    0    0  0.13781886903E+01 -0.16720404946E+01 -0.39165515960E+01  0.44772228989E+01  0.10500000000E+00 0. -1.
         13    1    6    6    0    0  0.88836057719E+00 -0.12296392054E+01 -0.28511892413E+01  0.32313313325E+01  0.10500000000E+00 0.  1.
</event>
<event>
11    0  0.3422856E-009  0.9118800E+02  0.7816531E-02  0.1126479E+00
         25   -1    0    0    0    0  0.00000000000E+00  0.00000000000E+00  0.99999998245E-14  0.12500000000E+03  0.12500000000E+03 0.  0.
    3000001    1    3    3    0    0  0.41155936596E+02 -0.23514310828E+02  0.24298248061E+02  0.53274185021E+02  0.10000000000E+01 0.  1.
    1000022    2    1    0    0    0  0.45064770852E+02 -0.29869118795E+02  0.29719557462E+02  0.62500000138E+02  0.10000004602E+02 0.  0.
    3000022    2    3    3    0    0  0.39088342561E+01 -0.63548079663E+01  0.54213094008E+01  0.92258151172E+01  0.24999885621E+00 0.  0.
    1000022    2    1    0    0    0 -0.45064770852E+02  0.29869118795E+02 -0.29719557462E+02  0.62499999862E+02  0.10000002874E+02 0.  0.
    3000022    2    5    5    0    0 -0.18192407195E+02  0.14752101205E+02 -0.79198370093E+01  0.24725988145E+02  0.25000403978E+00 0.  0.
        -13    1    4    4    0    0  0.22440690260E+01 -0.37669801186E+01  0.32050167018E+01  0.54322317758E+01  0.10500000000E+00 0.  1.
         13    1    4    4    0    0  0.16647652301E+01 -0.25878278477E+01  0.22162926990E+01  0.37935833414E+01  0.10500000000E+00 0. -1.
    3000001    1    5    5    0    0 -0.26872363657E+02  0.15117017590E+02 -0.21799720452E+02  0.37774011716E+02  0.10000000000E+01 0.  1.
        -13    1    6    6    0    0 -0.73917158369E+01  0.59550753729E+01 -0.32687726823E+01  0.10039735333E+02  0.10500000000E+00 0. -1.
         13    1    6    6    0    0 -0.10800691358E+02  0.87970258319E+01 -0.46510643270E+01  0.14686252812E+02  0.10500000000E+00 0.  1.
</event>
<event>
11    0  0.3422856E-009  0.9118800E+02  0.7816531E-02  0.1126479E+00
         25   -1    0    0    0    0  0.00000000000E+00  0.00000000000E+00  0.99999998245E-14  0.12500000000E+03  0.12500000000E+03 0.  0.
    3000001    1    3    3    0    0  0.22213014802E+02 -0.19036730145E+02  0.23046627087E+02  0.37255363927E+02  0.10000000000E+01 0.  1.
    1000022    2    1    0    0    0  0.41433564175E+02 -0.24935000346E+02  0.38311295835E+02  0.62500001385E+02  0.10000015102E+02 0.  0.
    3000022    2    3    3    0    0  0.19220549373E+02 -0.58982702005E+01  0.15264668748E+02  0.25244637458E+02  0.24999768446E+00 0.  0.
    1000022    2    1    0    0    0 -0.41433564175E+02  0.24935000346E+02 -0.38311295835E+02  0.62499998615E+02  0.99999977941E+01 0.  0.
    3000022    2    5    5    0    0 -0.13193267764E+01 -0.65468895351E+00 -0.26041802043E+01  0.30022478414E+01  0.24999359159E+00 0.  0.
        -13    1    4    4    0    0  0.99529921060E+01 -0.31240324530E+01  0.79054596875E+01  0.13089268448E+02  0.10500000000E+00 0. -1.
         13    1    4    4    0    0  0.92675572669E+01 -0.27742377475E+01  0.73592090607E+01  0.12155369010E+02  0.10500000000E+00 0.  1.
    3000001    1    5    5    0    0 -0.40114237398E+02  0.25589689299E+02 -0.35707115631E+02  0.59497750774E+02  0.10000000000E+01 0. -1.
        -13    1    6    6    0    0 -0.74070990029E+00 -0.43971640013E+00 -0.15106132908E+01  0.17421191645E+01  0.10500000000E+00 0. -1.
         13    1    6    6    0    0 -0.57861687615E+00 -0.21497255337E+00 -0.10935669135E+01  0.12601286769E+01  0.10500000000E+00 0.  1.
</event>
<event>
11    0  0.3422856E-009  0.9118800E+02  0.7816531E-02  0.1126479E+00
         25   -1    0    0    0    0  0.00000000000E+00  0.00000000000E+00  0.99999998245E-14  0.12500000000E+03  0.12500000000E+03 0.  0.
    3000001    1    3    3    0    0  0.11660326406E+02 -0.34840066352E+01  0.26880672256E+02  0.29524092789E+02  0.10000000000E+01 0. -1.
    1000022    2    1    0    0    0  0.28800910507E+02  0.19299039517E+01  0.54525525510E+02  0.62500000043E+02  0.10000004897E+02 0.  0.
    3000022    2    3    3    0    0  0.17140584101E+02  0.54139105869E+01  0.27644853255E+02  0.32975907254E+02  0.24999313621E+00 0.  0.
    1000022    2    1    0    0    0 -0.28800910507E+02 -0.19299039517E+01 -0.54525525510E+02  0.62499999957E+02  0.10000004360E+02 0.  0.
    3000022    2    5    5    0    0 -0.24046484328E+02 -0.33973341759E+01 -0.37035068126E+02  0.44288080255E+02  0.24998695772E+00 0.  0.
        -13    1    4    4    0    0  0.10421438672E+02  0.33027325597E+01  0.16700148015E+02  0.19960470813E+02  0.10500000000E+00 0.  1.
         13    1    4    4    0    0  0.67191454292E+01  0.21111780272E+01  0.10944705240E+02  0.13015436441E+02  0.10500000000E+00 0. -1.
    3000001    1    5    5    0    0 -0.47544261784E+01  0.14674302241E+01 -0.17490457384E+02  0.18211919703E+02  0.10000000000E+01 0.  1.
        -13    1    6    6    0    0 -0.65177907900E+01 -0.90094580562E+00 -0.99793431829E+01  0.11953728100E+02  0.10500000000E+00 0.  1.
         13    1    6    6    0    0 -0.17528693538E+02 -0.24963883702E+01 -0.27055724943E+02  0.32334352154E+02  0.10500000000E+00 0. -1.
</event>
<event>
11    0  0.3422856E-009  0.9118800E+02  0.7816531E-02  0.1126479E+00
         25   -1    0    0    0    0  0.00000000000E+00  0.00000000000E+00  0.99999998245E-14  0.12500000000E+03  0.12500000000E+03 0.  0.
    3000001    1    3    3    0    0  0.16115522940E+02 -0.27327136554E+01  0.79988489699E+01  0.18225240421E+02  0.10000000000E+01 0.  1.
    1000022    2    1    0    0    0  0.52884594363E+02 -0.23317809675E+02  0.21581230115E+02  0.62500000461E+02  0.99999997675E+01 0.  0.
    3000022    2    3    3    0    0  0.36769071423E+02 -0.20585096020E+02  0.13582381145E+02  0.44274760040E+02  0.25001517180E+00 0.  0.
    1000022    2    1    0    0    0 -0.52884594363E+02  0.23317809675E+02 -0.21581230115E+02  0.62499999539E+02  0.99999940044E+01 0.  0.
    3000022    2    5    5    0    0 -0.12124552432E+02  0.96244604905E+01 -0.36829619404E+01  0.15914198765E+02  0.25000452103E+00 0.  0.
        -13    1    4    4    0    0  0.10275074395E+02 -0.57079625269E+01  0.37951748077E+01  0.12352018736E+02  0.10500000000E+00 0. -1.
         13    1    4    4    0    0  0.26493997028E+02 -0.14877133493E+02  0.97872063372E+01  0.31922741304E+02  0.10500000000E+00 0.  1.
    3000001    1    5    5    0    0 -0.40760041931E+02  0.13693349185E+02 -0.17898268174E+02  0.46585800774E+02  0.10000000000E+01 0.  1.
        -13    1    6    6    0    0 -0.31147294700E+01  0.25051480264E+01 -0.93362406956E+00  0.41060912324E+01  0.10500000000E+00 0. -1.
         13    1    6    6    0    0 -0.90098229621E+01  0.71193124640E+01 -0.27493378708E+01  0.11808107532E+02  0.10500000000E+00 0.  1.
</event>
<event>
11    0  0.3422856E-009  0.9118800E+02  0.7816531E-02  0.1126479E+00
         25   -1    0    0    0    0  0.00000000000E+00  0.00000000000E+00  0.99999998245E-14  0.12500000000E+03  0.12500000000E+03 0.  0.
    3000001    1    3    3    0    0  0.23642108200E+02 -0.45651120346E+02 -0.22231072860E+02  0.56019591836E+02  0.10000000000E+01 0. -1.
    1000022    2    1    0    0    0  0.27167509294E+02 -0.48417609568E+02 -0.26905606650E+02  0.62499999184E+02  0.99999875608E+01 0.  0.
    3000022    2    3    3    0    0  0.35254010937E+01 -0.27664892224E+01 -0.46745337901E+01  0.64804073476E+01  0.24999549241E+00 0.  0.
    1000022    2    1    0    0    0 -0.27167509294E+02  0.48417609568E+02  0.26905606650E+02  0.62500000816E+02  0.99999977614E+01 0.  0.
    3000022    2    5    5    0    0 -0.23824549847E+02  0.45269107577E+02  0.26905305629E+02  0.57800166484E+02  0.24999681540E+00 0.  0.
        -13    1    4    4    0    0  0.26891950721E+01 -0.20845325458E+01 -0.35468910634E+01  0.49161476062E+01  0.10500000000E+00 0.  1.
         13    1    4    4    0    0  0.83620602155E+00 -0.68195667658E+00 -0.11276427267E+01  0.15642597413E+01  0.10500000000E+00 0. -1.
    3000001    1    5    5    0    0 -0.33429594468E+01  0.31485019917E+01  0.30102106717E-03  0.46998343317E+01  0.10000000000E+01 0.  1.
        -13    1    6    6    0    0 -0.92501385565E+01  0.17455969241E+02  0.10361495828E+02  0.22308015292E+02  0.10500000000E+00 0. -1.
         13    1    6    6    0    0 -0.14574411291E+02  0.27813138336E+02  0.16543809801E+02  0.35492151193E+02  0.10500000000E+00 0.  1.
</event>
<event>
11    0  0.3422856E-009  0.9118800E+02  0.7816531E-02  0.1126479E+00
         25   -1    0    0    0    0  0.00000000000E+00  0.00000000000E+00  0.99999998245E-14  0.12500000000E+03  0.12500000000E+03 0.  0.
    3000001    1    3    3    0    0  0.81126811153E+01 -0.19369843899E+02 -0.35937817784E+01  0.21328893901E+02  0.10000000000E+01 0. -1.
    1000022    2    1    0    0    0  0.10444842282E+02 -0.59724233777E+02 -0.11409258532E+02  0.62499999489E+02  0.99999962638E+01 0.  0.
    3000022    2    3    3    0    0  0.23321611670E+01 -0.40354389878E+02 -0.78154767531E+01  0.41171105588E+02  0.25000064846E+00 0.  0.
    1000022    2    1    0    0    0 -0.10444842282E+02  0.59724233777E+02  0.11409258532E+02  0.62500000511E+02  0.10000002655E+02 0.  0.
    3000022    2    5    5    0    0 -0.33276855156E+01  0.27251314289E+02  0.37111080547E+00  0.27457381806E+02  0.24994203543E+00 0.  0.
        -13    1    4    4    0    0  0.11028825656E+01 -0.19247049205E+02 -0.36593407537E+01  0.19623125459E+02  0.10500000000E+00 0. -1.
         13    1    4    4    0    0  0.12292786014E+01 -0.21107340674E+02 -0.41561359994E+01  0.21547980129E+02  0.10500000000E+00 0.  1.
    3000001    1    5    5    0    0 -0.71171567667E+01  0.32472919488E+02  0.11038147726E+02  0.35042618705E+02  0.10000000000E+01 0.  1.
        -13    1    6    6    0    0 -0.79965876352E+00  0.67265372134E+01  0.80572953770E-01  0.67751954970E+01  0.10500000000E+00 0.  1.
         13    1    6    6    0    0 -0.25280267521E+01  0.20524777076E+02  0.29053785170E+00  0.20682186309E+02  0.10500000000E+00 0. -1.
</event>
<event>
11    0  0.3422856E-009  0.9118800E+02  0.7816531E-02  0.1126479E+00
         25   -1    0    0    0    0  0.00000000000E+00  0.00000000000E+00  0.99999998245E-14  0.12500000000E+03  0.12500000000E+03 0.  0.
    3000001    1    3    3    0    0  0.39235122519E+02  0.35722571253E+02 -0.16813644253E+02  0.55670419156E+02  0.10000000000E+01 0.  1.
    1000022    2    1    0    0    0  0.43381257522E+02  0.38144338028E+02 -0.21663930896E+02  0.62499999711E+02  0.10000001717E+02 0.  0.
    3000022    2    3    3    0    0  0.41461350029E+01  0.24217667747E+01 -0.48502866432E+01  0.68295805553E+01  0.25000053092E+00 0.  0.
    1000022    2    1    0    0    0 -0.43381257522E+02 -0.38144338028E+02  0.21663930896E+02  0.62500000289E+02  0.10000005324E+02 0.  0.
    3000022    2    5    5    0    0 -0.34039075780E+02 -0.24870917561E+02  0.17943616627E+02  0.45817650668E+02  0.25002974410E+00 0.  0.
        -13    1    4    4    0    0  0.25942630946E+01  0.15785410230E+01 -0.30327040369E+01  0.42930538712E+01  0.10500000000E+00 0.  1.
         13    1    4    4    0    0  0.15518719083E+01  0.84322575172E+00 -0.18175826063E+01  0.25365266841E+01  0.10500000000E+00 0. -1.
    3000001    1    5    5    0    0 -0.93421817420E+01 -0.13273420467E+02  0.37203142691E+01  0.16682349620E+02  0.10000000000E+01 0. -1.
        -13    1    6    6    0    0 -0.12096955656E+02 -0.88220323422E+01  0.63121672321E+01  0.16248663667E+02  0.10500000000E+00 0.  1.
         13    1    6    6    0    0 -0.21942120123E+02 -0.16048885219E+02  0.11631449395E+02  0.29568987001E+02  0.10500000000E+00 0. -1.
</event>
<event>
11    0  0.3422856E-009  0.9118800E+02  0.7816531E-02  0.1126479E+00
         25   -1    0    0    0    0  0.00000000000E+00  0.00000000000E+00  0.99999998245E-14  0.12500000000E+03  0.12500000000E+03 0.  0.
    3000001    1    3    3    0    0  0.96632311438E+01  0.22838491506E+02 -0.32998864088E+01  0.25037251860E+02  0.10000000000E+01 0. -1.
    1000022    2    1    0    0    0  0.34059216965E+02  0.50429440740E+02 -0.10153384004E+02  0.62500000444E+02  0.10000004753E+02 0.  0.
    3000022    2    3    3    0    0  0.24395985822E+02  0.27590949234E+02 -0.68534975955E+01  0.37462748583E+02  0.24999656394E+00 0.  0.
    1000022    2    1    0    0    0 -0.34059216965E+02 -0.50429440740E+02  0.10153384004E+02  0.62499999556E+02  0.99999992081E+01 0.  0.
    3000022    2    5    5    0    0 -0.23204272351E+01 -0.99570956003E+01  0.16798170834E+01  0.10363996343E+02  0.24999885489E+00 0.  0.
        -13    1    4    4    0    0  0.14299737727E+02  0.16252006251E+02 -0.40655144180E+01  0.22026112656E+02  0.10500000000E+00 0.  1.
         13    1    4    4    0    0  0.10096248094E+02  0.11338942984E+02 -0.27879831775E+01  0.15436635928E+02  0.10500000000E+00 0. -1.
    3000001    1    5    5    0    0 -0.31738789730E+02 -0.40472345140E+02  0.84735669209E+01  0.52136003213E+02  0.10000000000E+01 0. -1.
        -13    1    6    6    0    0 -0.78404427096E+00 -0.31988263061E+01  0.57655085628E+00  0.33452430472E+01  0.10500000000E+00 0. -1.
         13    1    6    6    0    0 -0.15363829642E+01 -0.67582692942E+01  0.11032662272E+01  0.70187532963E+01  0.10500000000E+00 0.  1.
</event>
<event>
11    0  0.3422856E-009  0.9118800E+02  0.7816531E-02  0.1126479E+00
         25   -1    0    0    0    0  0.00000000000E+00  0.00000000000E+00  0.99999998245E-14  0.12500000000E+03  0.12500000000E+03 0.  0.
    3000001    1    3    3    0    0 -0.19509498233E+02  0.30651369900E+01  0.17797548531E+02  0.26603915497E+02  0.10000000000E+01 0.  1.
    1000022    2    1    0    0    0 -0.45807835759E+02  0.17756275314E+02  0.37317656988E+02  0.62500004945E+02  0.99999982578E+01 0.  0.
    3000022    2    3    3    0    0 -0.26298337526E+02  0.14691138324E+02  0.19520108457E+02  0.35896089448E+02  0.25000323471E+00 0.  0.
    1000022    2    1    0    0    0  0.45807835759E+02 -0.17756275314E+02 -0.37317656988E+02  0.62499995055E+02  0.99999364390E+01 0.  0.
    3000022    2    5    5    0    0  0.18559946079E+02 -0.50894338090E+01 -0.91873800585E+01  0.21327081071E+02  0.24999947748E+00 0.  0.
        -13    1    4    4    0    0 -0.72394087015E+01  0.40662730934E+01  0.53415802111E+01  0.98735565714E+01  0.10500000000E+00 0. -1.
         13    1    4    4    0    0 -0.19058928825E+02  0.10624865230E+02  0.14178528246E+02  0.26022532877E+02  0.10500000000E+00 0.  1.
    3000001    1    5    5    0    0  0.27247889681E+02 -0.12666841505E+02 -0.28130276930E+02  0.41172913983E+02  0.10000000000E+01 0. -1.
        -13    1    6    6    0    0  0.11049615842E+02 -0.30306763309E+01 -0.53992677454E+01  0.12666575167E+02  0.10500000000E+00 0. -1.
         13    1    6    6    0    0  0.75103302371E+01 -0.20587574780E+01 -0.37881123131E+01  0.86605059044E+01  0.10500000000E+00 0.  1.
</event>
<event>
11    0  0.3422856E-009  0.9118800E+02  0.7816531E-02  0.1126479E+00
         25   -1    0    0    0    0  0.00000000000E+00  0.00000000000E+00  0.99999998245E-14  0.12500000000E+03  0.12500000000E+03 0.  0.
    3000001    1    3    3    0    0  0.12364856022E+02  0.10745909645E+02  0.46580993354E+00  0.16418928632E+02  0.10000000000E+01 0.  1.
    1000022    2    1    0    0    0  0.39716221588E+02  0.45624913276E+02 -0.12134209706E+02  0.62499999349E+02  0.99999952368E+01 0.  0.
    3000022    2    3    3    0    0  0.27351365566E+02  0.34879003632E+02 -0.12600019640E+02  0.46081070717E+02  0.24998163782E+00 0.  0.
    1000022    2    1    0    0    0 -0.39716221588E+02 -0.45624913276E+02  0.12134209706E+02  0.62500000651E+02  0.10000003371E+02 0.  0.
    3000022    2    5    5    0    0 -0.28284410446E+02 -0.38430689217E+02  0.84105383275E+01  0.48453332208E+02  0.24999821509E+00 0.  0.
        -13    1    4    4    0    0  0.15877963806E+02  0.20142732329E+02 -0.72912924189E+01  0.26664833966E+02  0.10500000000E+00 0.  1.
         13    1    4    4    0    0  0.11473401760E+02  0.14736271303E+02 -0.53087272207E+01  0.19416236751E+02  0.10500000000E+00 0. -1.
    3000001    1    5    5    0    0 -0.11431811142E+02 -0.71942240591E+01  0.37236713785E+01  0.14046668442E+02  0.10000000000E+01 0.  1.
        -13    1    6    6    0    0 -0.73539791213E+01 -0.99472728852E+01  0.21972498972E+01  0.12564560433E+02  0.10500000000E+00 0. -1.
         13    1    6    6    0    0 -0.20930431325E+02 -0.28483416332E+02  0.62132884303E+01  0.35888771775E+02  0.10500000000E+00 0.  1.
</event>
<event>
11    0  0.3422856E-009  0.9118800E+02  0.7816531E-02  0.1126479E+00
         25   -1    0    0    0    0  0.00000000000E+00  0.00000000000E+00  0.99999998245E-14  0.12500000000E+03  0.12500000000E+03 0.  0.
    3000001    1    3    3    0    0  0.18757240030E+02 -0.53941762176E+01 -0.55350189254E+01  0.20311760758E+02  0.10000000000E+01 0. -1.
    1000022    2    1    0    0    0  0.60206574307E+02 -0.12994813499E+02 -0.35431881492E+01  0.62499992467E+02  0.99999054258E+01 0.  0.
    3000022    2    3    3    0    0  0.41449334277E+02 -0.76006372817E+01  0.19918307762E+01  0.42188231709E+02  0.25001159163E+00 0.  0.
    1000022    2    1    0    0    0 -0.60206574307E+02  0.12994813499E+02  0.35431881492E+01  0.62500007533E+02  0.99999995854E+01 0.  0.
    3000022    2    5    5    0    0 -0.59241347048E+01 -0.16277606439E+01  0.87130136944E+00  0.62102047025E+01  0.24999931307E+00 0.  0.
        -13    1    4    4    0    0  0.15726004331E+02 -0.28256945662E+01  0.73439038202E+00  0.15995065372E+02  0.10500000000E+00 0.  1.
         13    1    4    4    0    0  0.25723329946E+02 -0.47749427156E+01  0.12574403942E+01  0.26193166337E+02  0.10500000000E+00 0. -1.
    3000001    1    5    5    0    0 -0.54282439602E+02  0.14622574143E+02  0.26718867798E+01  0.56289802830E+02  0.10000000000E+01 0.  1.
        -13    1    6    6    0    0 -0.39311280819E+01 -0.11076393634E+01  0.53156481855E+00  0.41199780475E+01  0.10500000000E+00 0. -1.
         13    1    6    6    0    0 -0.19930066229E+01 -0.52012128047E+00  0.33973655089E+00  0.20902266550E+01  0.10500000000E+00 0.  1.
</event>
<event>
11    0  0.3422856E-009  0.9118800E+02  0.7816531E-02  0.1126479E+00
         25   -1    0    0    0    0  0.00000000000E+00  0.00000000000E+00  0.99999998245E-14  0.12500000000E+03  0.12500000000E+03 0.  0.
    3000001    1    3    3    0    0  0.22081498691E+02  0.11949989273E+02  0.15003196837E+02  0.29265863107E+02  0.10000000000E+01 0. -1.
    1000022    2    1    0    0    0  0.40146130965E+02  0.33336054521E+02  0.32912710719E+02  0.62500001007E+02  0.99999618240E+01 0.  0.
    3000022    2    3    3    0    0  0.18064632274E+02  0.21386065249E+02  0.17909513882E+02  0.33234137900E+02  0.25001690562E+00 0.  0.
    1000022    2    1    0    0    0 -0.40146130965E+02 -0.33336054521E+02 -0.32912710719E+02  0.62499998993E+02  0.99999492338E+01 0.  0.
    3000022    2    5    5    0    0 -0.14295622031E+02 -0.98913335555E+01 -0.16317361791E+02  0.23843701196E+02  0.25000426255E+00 0.  0.
        -13    1    4    4    0    0  0.82438751412E+01  0.97897642351E+01  0.82639752925E+01  0.15235001600E+02  0.10500000000E+00 0.  1.
         13    1    4    4    0    0  0.98207571327E+01  0.11596301014E+02  0.96455385897E+01  0.17999136300E+02  0.10500000000E+00 0. -1.
    3000001    1    5    5    0    0 -0.25850508934E+02 -0.23444720966E+02 -0.16595348928E+02  0.38656297797E+02  0.10000000000E+01 0.  1.
        -13    1    6    6    0    0 -0.57238438856E+01 -0.38919649505E+01 -0.64587031277E+01  0.94676106328E+01  0.10500000000E+00 0. -1.
         13    1    6    6    0    0 -0.85717781454E+01 -0.59993686050E+01 -0.98586586634E+01  0.14376090563E+02  0.10500000000E+00 0.  1.
</event>
<event>
11    0  0.3422856E-009  0.9118800E+02  0.7816531E-02  0.1126479E+00
         25   -1    0    0    0    0  0.00000000000E+00  0.00000000000E+00  0.99999998245E-14  0.12500000000E+03  0.12500000000E+03 0.  0.
    3000001    1    3    3    0    0 -0.11791042740E+01 -0.25286306219E+02 -0.42352665784E+02  0.49351148600E+02  0.10000000000E+01 0.  1.
    1000022    2    1    0    0    0 -0.49898061945E+01 -0.28393532605E+02 -0.54545019085E+02  0.62499999614E+02  0.99999992566E+01 0.  0.
    3000022    2    3    3    0    0 -0.38107019205E+01 -0.31072263862E+01 -0.12192353301E+02  0.13148851014E+02  0.24999809312E+00 0.  0.
    1000022    2    1    0    0    0  0.49898061945E+01  0.28393532605E+02  0.54545019085E+02  0.62500000386E+02  0.10000004083E+02 0.  0.
    3000022    2    5    5    0    0  0.63666236446E+01  0.22171072692E+02  0.48277321493E+02  0.53505631772E+02  0.24999972958E+00 0.  0.
        -13    1    4    4    0    0 -0.16243114594E+01 -0.12412937976E+01 -0.50662323418E+01  0.54641498103E+01  0.10500000000E+00 0.  1.
         13    1    4    4    0    0 -0.21863904611E+01 -0.18659325886E+01 -0.71261209589E+01  0.76847012040E+01  0.10500000000E+00 0. -1.
    3000001    1    5    5    0    0 -0.13768174502E+01  0.62224599127E+01  0.62676975917E+01  0.89943686136E+01  0.10000000000E+01 0. -1.
        -13    1    6    6    0    0  0.37101835513E+01  0.12907494558E+02  0.28257307102E+02  0.31286663411E+02  0.10500000000E+00 0. -1.
         13    1    6    6    0    0  0.26564400933E+01  0.92635781343E+01  0.20020014391E+02  0.22218968361E+02  0.10500000000E+00 0.  1.
</event>
<event>
11    0  0.3422856E-009  0.9118800E+02  0.7816531E-02  0.1126479E+00
         25   -1    0    0    0    0  0.00000000000E+00  0.00000000000E+00  0.99999998245E-14  0.12500000000E+03  0.12500000000E+03 0.  0.
    3000001    1    3    3    0    0  0.23094422823E+01  0.55957893163E+00 -0.20624616785E+02  0.20785126167E+02  0.10000000000E+01 0. -1.
    1000022    2    1    0    0    0 -0.66263148585E+01  0.47744921086E+01 -0.61151827412E+02  0.62499998277E+02  0.99999982641E+01 0.  0.
    3000022    2    3    3    0    0 -0.89357571408E+01  0.42149131770E+01 -0.40527210627E+02  0.41714872110E+02  0.25001039246E+00 0.  0.
    1000022    2    1    0    0    0  0.66263148585E+01 -0.47744921086E+01  0.61151827412E+02  0.62500001723E+02  0.10000019803E+02 0.  0.
    3000022    2    5    5    0    0  0.84766139552E+01 -0.11672006162E+01  0.35988427339E+02  0.36992495732E+02  0.24999342176E+00 0.  0.
        -13    1    4    4    0    0 -0.55614512014E+01  0.26364040490E+01 -0.25493448796E+02  0.26226080955E+02  0.10500000000E+00 0. -1.
         13    1    4    4    0    0 -0.33743059394E+01  0.15785091280E+01 -0.15033761832E+02  0.15488791155E+02  0.10500000000E+00 0.  1.
    3000001    1    5    5    0    0 -0.18502990967E+01 -0.36072914924E+01  0.25163400073E+02  0.25507505991E+02  0.10000000000E+01 0. -1.
        -13    1    6    6    0    0  0.61120179083E+01 -0.88099648249E+00  0.25952932280E+02  0.26677680496E+02  0.10500000000E+00 0. -1.
         13    1    6    6    0    0  0.23645960470E+01 -0.28620413366E+00  0.10035495059E+02  0.10314815236E+02  0.10500000000E+00 0.  1.
</event>
<event>
11    0  0.3422856E-009  0.9118800E+02  0.7816531E-02  0.1126479E+00
         25   -1    0    0    0    0  0.00000000000E+00  0.00000000000E+00  0.99999998245E-14  0.12500000000E+03  0.12500000000E+03 0.  0.
    3000001    1    3    3    0    0 -0.20616297181E+01 -0.25825943750E+01  0.13285650369E+01  0.36993507346E+01  0.10000000000E+01 0.  1.
    1000022    2    1    0    0    0 -0.41133295230E+02 -0.44006482362E+02 -0.13331598239E+02  0.62500000610E+02  0.10000004914E+02 0.  0.
    3000022    2    3    3    0    0 -0.39071665512E+02 -0.41423887987E+02 -0.14660163276E+02  0.58800649875E+02  0.24999331431E+00 0.  0.
    1000022    2    1    0    0    0  0.41133295230E+02  0.44006482362E+02  0.13331598239E+02  0.62499999390E+02  0.99999972895E+01 0.  0.
    3000022    2    5    5    0    0  0.24528857109E+02  0.32186388999E+02  0.11155967836E+02  0.41977929804E+02  0.25000890051E+00 0.  0.
        -13    1    4    4    0    0 -0.27319365549E+02 -0.29015642888E+02 -0.10230051422E+02  0.41145112022E+02  0.10500000000E+00 0. -1.
         13    1    4    4    0    0 -0.11752299963E+02 -0.12408245099E+02 -0.44301118546E+01  0.17655537853E+02  0.10500000000E+00 0.  1.
    3000001    1    5    5    0    0  0.16604438121E+02  0.11820093363E+02  0.21756304036E+01  0.20522069586E+02  0.10000000000E+01 0. -1.
        -13    1    6    6    0    0  0.99432544119E+01  0.13135257249E+02  0.45778999269E+01  0.17098873765E+02  0.10500000000E+00 0. -1.
         13    1    6    6    0    0  0.14585602697E+02  0.19051131749E+02  0.65780679087E+01  0.24879056039E+02  0.10500000000E+00 0.  1.
</event>
<event>
11    0  0.3422856E-009  0.9118800E+02  0.7816531E-02  0.1126479E+00
         25   -1    0    0    0    0  0.00000000000E+00  0.00000000000E+00  0.99999998245E-14  0.12500000000E+03  0.12500000000E+03 0.  0.
    3000001    1    3    3    0    0 -0.28603813240E+02  0.10530677841E+02  0.11110960917E+02  0.32458076963E+02  0.10000000000E+01 0. -1.
    1000022    2    1    0    0    0 -0.50863328787E+02  0.18343254944E+02  0.29710213847E+02  0.62499999346E+02  0.99999947111E+01 0.  0.
    3000022    2    3    3    0    0 -0.22259515547E+02  0.78125771032E+01  0.18599252930E+02  0.30041922383E+02  0.24999508362E+00 0.  0.
    1000022    2    1    0    0    0  0.50863328787E+02 -0.18343254944E+02 -0.29710213847E+02  0.62500000654E+02  0.10000002883E+02 0.  0.
    3000022    2    5    5    0    0  0.41186480242E+02 -0.18264074626E+02 -0.26419488718E+02  0.52229823481E+02  0.25000013166E+00 0.  0.
        -13    1    4    4    0    0 -0.10729855177E+02  0.38326456942E+01  0.89512635018E+01  0.14489827757E+02  0.10500000000E+00 0. -1.
         13    1    4    4    0    0 -0.11529660370E+02  0.39799314091E+01  0.96479894277E+01  0.15552094626E+02  0.10500000000E+00 0.  1.
    3000001    1    5    5    0    0  0.96768485449E+01 -0.79180317997E-01 -0.32907251289E+01  0.10270177173E+02  0.10000000000E+01 0.  1.
        -13    1    6    6    0    0  0.10412366616E+02 -0.46329333554E+01 -0.66550465799E+01  0.13197807394E+02  0.10500000000E+00 0.  1.
         13    1    6    6    0    0  0.30774113626E+02 -0.13631141271E+02 -0.19764442138E+02  0.39032016088E+02  0.10500000000E+00 0. -1.
</event>
<event>
11    0  0.3422856E-009  0.9118800E+02  0.7816531E-02  0.1126479E+00
         25   -1    0    0    0    0  0.00000000000E+00  0.00000000000E+00  0.99999998245E-14  0.12500000000E+03  0.12500000000E+03 0.  0.
    3000001    1    3    3    0    0 -0.37228557270E+01  0.39192864362E+02  0.26354176605E+02  0.47386526526E+02  0.10000000000E+01 0.  1.
    1000022    2    1    0    0    0  0.47236051486E+00  0.50384800243E+02  0.35600543776E+02  0.62499999840E+02  0.10000002140E+02 0.  0.
    3000022    2    3    3    0    0  0.41952162419E+01  0.11191935881E+02  0.92463671709E+01  0.15113473314E+02  0.25000331486E+00 0.  0.
    1000022    2    1    0    0    0 -0.47236051486E+00 -0.50384800243E+02 -0.35600543776E+02  0.62500000160E+02  0.10000004145E+02 0.  0.
    3000022    2    5    5    0    0 -0.40811428561E+01 -0.39317233634E+02 -0.25371023923E+02  0.46970756230E+02  0.24999648652E+00 0.  0.
        -13    1    4    4    0    0  0.23575565563E+01  0.61005885511E+01  0.50487712635E+01  0.82629516431E+01  0.10500000000E+00 0. -1.
         13    1    4    4    0    0  0.18376596856E+01  0.50913473301E+01  0.41975959074E+01  0.68505216705E+01  0.10500000000E+00 0.  1.
    3000001    1    5    5    0    0  0.36087823412E+01 -0.11067566609E+02 -0.10229519853E+02  0.15529243931E+02  0.10000000000E+01 0. -1.
        -13    1    6    6    0    0 -0.22285825899E+01 -0.21980488472E+02 -0.14132637713E+02  0.26226912277E+02  0.10500000000E+00 0.  1.
         13    1    6    6    0    0 -0.18525602662E+01 -0.17336745162E+02 -0.11238386210E+02  0.20743843953E+02  0.10500000000E+00 0. -1.
</event>
<event>
11    0  0.3422856E-009  0.9118800E+02  0.7816531E-02  0.1126479E+00
         25   -1    0    0    0    0  0.00000000000E+00  0.00000000000E+00  0.99999998245E-14  0.12500000000E+03  0.12500000000E+03 0.  0.
    3000001    1    3    3    0    0 -0.12151417111E+02 -0.15847058103E+02 -0.19169507880E+02  0.27699390258E+02  0.10000000000E+01 0.  1.
    1000022    2    1    0    0    0 -0.20394521968E+02 -0.30209086647E+02 -0.49776748797E+02  0.62499998383E+02  0.99999817361E+01 0.  0.
    3000022    2    3    3    0    0 -0.82431048565E+01 -0.14362028544E+02 -0.30607240917E+02  0.34800608125E+02  0.24997539964E+00 0.  0.
    1000022    2    1    0    0    0  0.20394521968E+02  0.30209086647E+02  0.49776748797E+02  0.62500001617E+02  0.10000001948E+02 0.  0.
    3000022    2    5    5    0    0  0.18523782076E+02  0.20946907565E+02  0.33342476133E+02  0.43516510182E+02  0.25000945257E+00 0.  0.
        -13    1    4    4    0    0 -0.46168310342E+01 -0.81301586650E+01 -0.17385329971E+02  0.19740195843E+02  0.10500000000E+00 0.  1.
         13    1    4    4    0    0 -0.36262738223E+01 -0.62318698791E+01 -0.13221910947E+02  0.15060412282E+02  0.10500000000E+00 0. -1.
    3000001    1    5    5    0    0  0.18707398914E+01  0.92621790816E+01  0.16434272664E+02  0.18983491435E+02  0.10000000000E+01 0.  1.
        -13    1    6    6    0    0  0.88006639421E+01  0.98501286756E+01  0.15745574347E+02  0.20552636261E+02  0.10500000000E+00 0.  1.
         13    1    6    6    0    0  0.97231181341E+01  0.11096778890E+02  0.17596901786E+02  0.22963873921E+02  0.10500000000E+00 0. -1.
</event>
<event>
11    0  0.3422856E-009  0.9118800E+02  0.7816531E-02  0.1126479E+00
         25   -1    0    0    0    0  0.00000000000E+00  0.00000000000E+00  0.99999998245E-14  0.12500000000E+03  0.12500000000E+03 0.  0.
    3000001    1    3    3    0    0 -0.11667678586E+01 -0.15146903773E+02 -0.51823768840E+00  0.15233470105E+02  0.10000000000E+01 0.  1.
    1000022    2    1    0    0    0 -0.18583738034E+02 -0.58350117346E+02  0.74938808030E+01  0.62500002363E+02  0.10000026610E+02 0.  0.
    3000022    2    3    3    0    0 -0.17416970175E+02 -0.43203213574E+02  0.80121184914E+01  0.47266532258E+02  0.25003156990E+00 0.  0.
    1000022    2    1    0    0    0  0.18583738034E+02  0.58350117346E+02 -0.74938808030E+01  0.62499997637E+02  0.99999970761E+01 0.  0.
    3000022    2    5    5    0    0  0.15902910366E+02  0.34055391586E+02 -0.45958081997E+01  0.37866293864E+02  0.25000766552E+00 0.  0.
        -13    1    4    4    0    0 -0.10953678181E+02 -0.27049254304E+02  0.49796879247E+01  0.29604958046E+02  0.10500000000E+00 0.  1.
         13    1    4    4    0    0 -0.64632919948E+01 -0.16153959270E+02  0.30324305667E+01  0.17661574212E+02  0.10500000000E+00 0. -1.
    3000001    1    5    5    0    0  0.26808276681E+01  0.24294725761E+02 -0.28980726033E+01  0.24633703773E+02  0.10000000000E+01 0.  1.
        -13    1    6    6    0    0  0.85498805834E+01  0.18450412351E+02 -0.24558291932E+01  0.20483171042E+02  0.10500000000E+00 0.  1.
         13    1    6    6    0    0  0.73530297824E+01  0.15604979235E+02 -0.21399790065E+01  0.17383122822E+02  0.10500000000E+00 0. -1.
</event>
<event>
11    0  0.3422856E-009  0.9118800E+02  0.7816531E-02  0.1126479E+00
         25   -1    0    0    0    0  0.00000000000E+00  0.00000000000E+00  0.99999998245E-14  0.12500000000E+03  0.12500000000E+03 0.  0.
    3000001    1    3    3    0    0  0.97760759438E+01  0.12704543986E+02  0.29934288574E+02  0.33971145568E+02  0.10000000000E+01 0. -1.
    1000022    2    1    0    0    0  0.23668948294E+02  0.16317743851E+02  0.54587197435E+02  0.62499999880E+02  0.99999991748E+01 0.  0.
    3000022    2    3    3    0    0  0.13892872350E+02  0.36131998647E+01  0.24652908860E+02  0.28528854312E+02  0.24999534141E+00 0.  0.
    1000022    2    1    0    0    0 -0.23668948294E+02 -0.16317743851E+02 -0.54587197435E+02  0.62500000120E+02  0.10000000677E+02 0.  0.
    3000022    2    5    5    0    0 -0.19698148652E+02 -0.16714178169E+02 -0.42547385904E+02  0.49776735144E+02  0.25000424278E+00 0.  0.
        -13    1    4    4    0    0  0.49396588609E+01  0.12361254175E+01  0.86804719384E+01  0.10064286054E+02  0.10500000000E+00 0.  1.
         13    1    4    4    0    0  0.89532134894E+01  0.23770744471E+01  0.15972436922E+02  0.18464568258E+02  0.10500000000E+00 0. -1.
    3000001    1    5    5    0    0 -0.39707996423E+01  0.39643431863E+00 -0.12039811531E+02  0.12723264977E+02  0.10000000000E+01 0. -1.
        -13    1    6    6    0    0 -0.99413932843E+01 -0.84747299799E+01 -0.21632162552E+02  0.25270809847E+02  0.10500000000E+00 0. -1.
         13    1    6    6    0    0 -0.97567553674E+01 -0.82394481895E+01 -0.20915223352E+02  0.24505925296E+02  0.10500000000E+00 0.  1.
</event>
<event>
11    0  0.3422856E-009  0.9118800E+02  0.7816531E-02  0.1126479E+00
         25   -1    0    0    0    0  0.00000000000E+00  0.00000000000E+00  0.99999998245E-14  0.12500000000E+03  0.12500000000E+03 0.  0.
    3000001    1    3    3    0    0 -0.36368946982E+02  0.28194093102E+02 -0.32110844503E+02  0.56122308623E+02  0.10000000000E+01 0.  1.
    1000022    2    1    0    0    0 -0.40903859006E+02  0.28185564038E+02 -0.36588226516E+02  0.62500000237E+02  0.10000000414E+02 0.  0.
    3000022    2    3    3    0    0 -0.45349120238E+01 -0.85290644121E-02 -0.44773820127E+01  0.63776916136E+01  0.25000164521E+00 0.  0.
    1000022    2    1    0    0    0  0.40903859006E+02 -0.28185564038E+02  0.36588226516E+02  0.62499999763E+02  0.99999974556E+01 0.  0.
    3000022    2    5    5    0    0  0.48363043465E+01 -0.72036061714E+01  0.40577521002E+01  0.95817342896E+01  0.24999657056E+00 0.  0.
        -13    1    4    4    0    0 -0.34867611909E+01  0.28277509779E-02 -0.34427500593E+01  0.49011289076E+01  0.10500000000E+00 0. -1.
         13    1    4    4    0    0 -0.10481508329E+01 -0.11356815390E-01 -0.10346319534E+01  0.14765627060E+01  0.10500000000E+00 0.  1.
    3000001    1    5    5    0    0  0.36067554660E+02 -0.20981957866E+02  0.32530474416E+02  0.52918265474E+02  0.10000000000E+01 0.  1.
        -13    1    6    6    0    0  0.11161341757E+01 -0.16517101649E+01  0.93129284083E+00  0.22027785459E+01  0.10500000000E+00 0. -1.
         13    1    6    6    0    0  0.37201701709E+01 -0.55518960065E+01  0.31264592594E+01  0.73789557437E+01  0.10500000000E+00 0.  1.
</event>
<event>
11    0  0.3422856E-009  0.9118800E+02  0.7816531E-02  0.1126479E+00
         25   -1    0    0    0    0  0.00000000000E+00  0.00000000000E+00  0.99999998245E-14  0.12500000000E+03  0.12500000000E+03 0.  0.
    3000001    1    3    3    0    0  0.21745194915E+02 -0.77262093959E+01  0.40937098337E+02  0.47004189534E+02  0.10000000000E+01 0. -1.
    1000022    2    1    0    0    0  0.23530478010E+02 -0.11457742078E+02  0.55868476118E+02  0.62499999086E+02  0.10000000653E+02 0.  0.
    3000022    2    3    3    0    0  0.17852830950E+01 -0.37315326824E+01  0.14931377781E+02  0.15495809552E+02  0.24999865564E+00 0.  0.
    1000022    2    1    0    0    0 -0.23530478010E+02  0.11457742078E+02 -0.55868476118E+02  0.62500000914E+02  0.10000012077E+02 0.  0.
    3000022    2    5    5    0    0 -0.12075932057E+02  0.92051123498E+01 -0.22598157631E+02  0.27226851694E+02  0.24999280011E+00 0.  0.
        -13    1    4    4    0    0  0.10391432216E+01 -0.20816113591E+01  0.85924861132E+01  0.89025146498E+01  0.10500000000E+00 0.  1.
         13    1    4    4    0    0  0.74613987339E+00 -0.16499213233E+01  0.63388916680E+01  0.65932949018E+01  0.10500000000E+00 0. -1.
    3000001    1    5    5    0    0 -0.11454545953E+02  0.22526297285E+01 -0.33270318487E+02  0.35273149220E+02  0.10000000000E+01 0.  1.
        -13    1    6    6    0    0 -0.74707650751E+01  0.57287551281E+01 -0.14107951095E+02  0.16961022234E+02  0.10500000000E+00 0.  1.
         13    1    6    6    0    0 -0.46051669824E+01  0.34763572217E+01 -0.84902065361E+01  0.10265829460E+02  0.10500000000E+00 0. -1.
</event>
<event>
11    0  0.3422856E-009  0.9118800E+02  0.7816531E-02  0.1126479E+00
         25   -1    0    0    0    0  0.00000000000E+00  0.00000000000E+00  0.99999998245E-14  0.12500000000E+03  0.12500000000E+03 0.  0.
    3000001    1    3    3    0    0 -0.16354988173E+02  0.44848526520E+01  0.15815982691E+02  0.23210877836E+02  0.10000000000E+01 0.  1.
    1000022    2    1    0    0    0 -0.45452790976E+02  0.22442585303E+02  0.35165667318E+02  0.62499999589E+02  0.99999974062E+01 0.  0.
    3000022    2    3    3    0    0 -0.29097802804E+02  0.17957732651E+02  0.19349684627E+02  0.39289121753E+02  0.25000600835E+00 0.  0.
    1000022    2    1    0    0    0  0.45452790976E+02 -0.22442585303E+02 -0.35165667318E+02  0.62500000411E+02  0.10000002540E+02 0.  0.
    3000022    2    5    5    0    0  0.34919265611E+02 -0.15179304443E+02 -0.30699899216E+02  0.48911273825E+02  0.25000225831E+00 0.  0.
        -13    1    4    4    0    0 -0.17832320507E+02  0.10960520735E+02  0.11788971257E+02  0.24023229128E+02  0.10500000000E+00 0.  1.
         13    1    4    4    0    0 -0.11265482296E+02  0.69972119165E+01  0.75607133698E+01  0.15265892625E+02  0.10500000000E+00 0. -1.
    3000001    1    5    5    0    0  0.10533525365E+02 -0.72632808605E+01 -0.44657681016E+01  0.13588726585E+02  0.10000000000E+01 0.  1.
        -13    1    6    6    0    0  0.14961581952E+02 -0.65534691399E+01 -0.13109476772E+02  0.20944361974E+02  0.10500000000E+00 0. -1.
         13    1    6    6    0    0  0.19957683660E+02 -0.86258353030E+01 -0.17590422445E+02  0.27966911852E+02  0.10500000000E+00 0.  1.
</event>
<event>
11    0  0.3422856E-009  0.9118800E+02  0.7816531E-02  0.1126479E+00
         25   -1    0    0    0    0  0.00000000000E+00  0.00000000000E+00  0.99999998245E-14  0.12500000000E+03  0.12500000000E+03 0.  0.
    3000001    1    3    3    0    0  0.39616644164E+02 -0.19088707201E+02  0.28644291133E+02  0.52491453132E+02  0.10000000000E+01 0. -1.
    1000022    2    1    0    0    0  0.43963708644E+02 -0.22451170369E+02  0.37005237076E+02  0.62500001726E+02  0.99999958012E+01 0.  0.
    3000022    2    3    3    0    0  0.43470644805E+01 -0.33624631684E+01  0.83609459433E+01  0.10008548594E+02  0.24999948776E+00 0.  0.
    1000022    2    1    0    0    0 -0.43963708644E+02  0.22451170369E+02 -0.37005237076E+02  0.62499998274E+02  0.99999742212E+01 0.  0.
    3000022    2    5    5    0    0 -0.23614630192E+02  0.83995532396E+01 -0.23233825339E+02  0.34177132616E+02  0.25000050611E+00 0.  0.
        -13    1    4    4    0    0  0.14270758042E+01 -0.10774954756E+01  0.26367151245E+01  0.31876062333E+01  0.10500000000E+00 0.  1.
         13    1    4    4    0    0  0.29199886763E+01 -0.22849676928E+01  0.57242308189E+01  0.68209423612E+01  0.10500000000E+00 0. -1.
    3000001    1    5    5    0    0 -0.20349078453E+02  0.14051617129E+02 -0.13771411738E+02  0.28322865658E+02  0.10000000000E+01 0.  1.
        -13    1    6    6    0    0 -0.15212932021E+02  0.54370284915E+01 -0.14904489598E+02  0.21980660015E+02  0.10500000000E+00 0. -1.
         13    1    6    6    0    0 -0.84016981702E+01  0.29625247480E+01 -0.83293357409E+01  0.12196472601E+02  0.10500000000E+00 0.  1.
</event>
<event>
11    0  0.3422856E-009  0.9118800E+02  0.7816531E-02  0.1126479E+00
         25   -1    0    0    0    0  0.00000000000E+00  0.00000000000E+00  0.99999998245E-14  0.12500000000E+03  0.12500000000E+03 0.  0.
    3000001    1    3    3    0    0 -0.32025419006E+02 -0.40982627219E+02  0.78341111531E+01  0.52607760776E+02  0.10000000000E+01 0. -1.
    1000022    2    1    0    0    0 -0.38387867203E+02 -0.48030404306E+02  0.50696967511E+01  0.62500000098E+02  0.10000005050E+02 0.  0.
    3000022    2    3    3    0    0 -0.63624481964E+01 -0.70477770869E+01 -0.27644144020E+01  0.98922393224E+01  0.25000581661E+00 0.  0.
    1000022    2    1    0    0    0  0.38387867203E+02  0.48030404306E+02 -0.50696967511E+01  0.62499999902E+02  0.10000003820E+02 0.  0.
    3000022    2    5    5    0    0  0.34518450971E+02  0.39605867699E+02 -0.16351923495E+01  0.52563148313E+02  0.24998581708E+00 0.  0.
        -13    1    4    4    0    0 -0.28852308046E+01 -0.32493651784E+01 -0.12061999909E+01  0.45109726530E+01  0.10500000000E+00 0. -1.
         13    1    4    4    0    0 -0.34772173918E+01 -0.37984119085E+01 -0.15582144111E+01  0.53812666694E+01  0.10500000000E+00 0.  1.
    3000001    1    5    5    0    0  0.38694162317E+01  0.84245366064E+01 -0.34345044015E+01  0.99368515885E+01  0.10000000000E+01 0.  1.
        -13    1    6    6    0    0  0.14385337584E+02  0.16533730604E+02 -0.62024607976E+00  0.21924824179E+02  0.10500000000E+00 0.  1.
         13    1    6    6    0    0  0.20133113387E+02  0.23072137096E+02 -0.10149462698E+01  0.30638324134E+02  0.10500000000E+00 0. -1.
</event>
<event>
11    0  0.3422856E-009  0.9118800E+02  0.7816531E-02  0.1126479E+00
         25   -1    0    0    0    0  0.00000000000E+00  0.00000000000E+00  0.99999998245E-14  0.12500000000E+03  0.12500000000E+03 0.  0.
    3000001    1    3    3    0    0  0.69883160974E+01  0.50573954882E+01 -0.10312594864E+01  0.87451304810E+01  0.10000000000E+01 0. -1.
    1000022    2    1    0    0    0  0.59312524018E+02  0.14255717063E+02 -0.92222059151E+01  0.62499999610E+02  0.99999947495E+01 0.  0.
    3000022    2    3    3    0    0  0.52324207921E+02  0.91983215751E+01 -0.81909464287E+01  0.53754869129E+02  0.24999482140E+00 0.  0.
    1000022    2    1    0    0    0 -0.59312524018E+02 -0.14255717063E+02  0.92222059151E+01  0.62500000390E+02  0.99999996193E+01 0.  0.
    3000022    2    5    5    0    0 -0.50544260175E+02 -0.12970939299E+02  0.44158993006E+01  0.52369171796E+02  0.24997002011E+00 0.  0.
        -13    1    4    4    0    0  0.22842265157E+02  0.39953336792E+01 -0.36388480778E+01  0.23473048567E+02  0.10500000000E+00 0.  1.
         13    1    4    4    0    0  0.29481942763E+02  0.52029878960E+01 -0.45520983510E+01  0.30281820562E+02  0.10500000000E+00 0. -1.
    3000001    1    5    5    0    0 -0.87682638431E+01 -0.12847777642E+01  0.48063066145E+01  0.10130828594E+02  0.10000000000E+01 0. -1.
        -13    1    6    6    0    0 -0.27675539649E+02 -0.71642260551E+01  0.24484687498E+01  0.28692641114E+02  0.10500000000E+00 0. -1.
         13    1    6    6    0    0 -0.22868720525E+02 -0.58067132440E+01  0.19674305509E+01  0.23676530682E+02  0.10500000000E+00 0.  1.
</event>
<event>
11    0  0.3422856E-009  0.9118800E+02  0.7816531E-02  0.1126479E+00
         25   -1    0    0    0    0  0.00000000000E+00  0.00000000000E+00  0.99999998245E-14  0.12500000000E+03  0.12500000000E+03 0.  0.
    3000001    1    3    3    0    0  0.38454607692E+01 -0.12239950112E+02 -0.51567244616E+02  0.53148703319E+02  0.10000000000E+01 0.  1.
    1000022    2    1    0    0    0  0.16069361961E+01 -0.17030654161E+02 -0.59275835043E+02  0.62499998535E+02  0.99999885869E+01 0.  0.
    3000022    2    3    3    0    0 -0.22385245732E+01 -0.47907040489E+01 -0.77085904273E+01  0.93512952156E+01  0.25003656775E+00 0.  0.
    1000022    2    1    0    0    0 -0.16069361961E+01  0.17030654161E+02  0.59275835043E+02  0.62500001465E+02  0.10000006899E+02 0.  0.
    3000022    2    5    5    0    0  0.35236536474E+00  0.17160384058E+02  0.47195171121E+02  0.50220012327E+02  0.25003706678E+00 0.  0.
        -13    1    4    4    0    0 -0.13058674148E+01 -0.26382845609E+01 -0.42814151517E+01  0.51968621139E+01  0.10500000000E+00 0.  1.
         13    1    4    4    0    0 -0.93265715840E+00 -0.21524194881E+01 -0.34271752756E+01  0.41544331018E+01  0.10500000000E+00 0. -1.
    3000001    1    5    5    0    0 -0.19593015608E+01 -0.12972989702E+00  0.12080663921E+02  0.12279989138E+02  0.10000000000E+01 0. -1.
        -13    1    6    6    0    0  0.11841349403E+00  0.52606564813E+01  0.14334683455E+02  0.15270320990E+02  0.10500000000E+00 0. -1.
         13    1    6    6    0    0  0.23395187070E+00  0.11899727577E+02  0.32860487666E+02  0.34949691337E+02  0.10500000000E+00 0.  1.
</event>
<event>
11    0  0.3422856E-009  0.9118800E+02  0.7816531E-02  0.1126479E+00
         25   -1    0    0    0    0  0.00000000000E+00  0.00000000000E+00  0.99999998245E-14  0.12500000000E+03  0.12500000000E+03 0.  0.
    3000001    1    3    3    0    0  0.45923642498E+02  0.13725783670E+02  0.19821627301E+02  0.51877499809E+02  0.10000000000E+01 0. -1.
    1000022    2    1    0    0    0  0.55401417425E+02  0.18515969882E+02  0.19851739448E+02  0.62500000305E+02  0.10000014278E+02 0.  0.
    3000022    2    3    3    0    0  0.94777749276E+01  0.47901862120E+01  0.30112147660E-01  0.10622500496E+02  0.25001702312E+00 0.  0.
    1000022    2    1    0    0    0 -0.55401417425E+02 -0.18515969882E+02 -0.19851739448E+02  0.62499999695E+02  0.10000010467E+02 0.  0.
    3000022    2    5    5    0    0 -0.11740882591E+02 -0.60430126040E+01 -0.75017522363E+00  0.13228438718E+02  0.25000540612E+00 0.  0.
        -13    1    4    4    0    0  0.36100212018E+01  0.17791272804E+01 -0.33791634263E-01  0.40261288891E+01  0.10500000000E+00 0.  1.
         13    1    4    4    0    0  0.58677537258E+01  0.30110589315E+01  0.63903781923E-01  0.65963716064E+01  0.10500000000E+00 0. -1.
    3000001    1    5    5    0    0 -0.43660534835E+02 -0.12472957278E+02 -0.19101564225E+02  0.49271560977E+02  0.10000000000E+01 0.  1.
        -13    1    6    6    0    0 -0.36686562775E+01 -0.19416146483E+01 -0.24983840042E+00  0.41596094229E+01  0.10500000000E+00 0. -1.
         13    1    6    6    0    0 -0.80722263131E+01 -0.41013979557E+01 -0.50033682321E+00  0.90688292947E+01  0.10500000000E+00 0.  1.
</event>
<event>
11    0  0.3422856E-009  0.9118800E+02  0.7816531E-02  0.1126479E+00
         25   -1    0    0    0    0  0.00000000000E+00  0.00000000000E+00  0.99999998245E-14  0.12500000000E+03  0.12500000000E+03 0.  0.
    3000001    1    3    3    0    0 -0.41854491726E+01 -0.25565667557E+01 -0.13448545850E+01  0.51829192747E+01  0.10000000000E+01 0.  1.
    1000022    2    1    0    0    0 -0.54756912147E+02 -0.24710245123E+02  0.14047584680E+02  0.62500002410E+02  0.10000001205E+02 0.  0.
    3000022    2    3    3    0    0 -0.50571462974E+02 -0.22153678367E+02  0.15392439265E+02  0.57317083136E+02  0.25000027865E+00 0.  0.
    1000022    2    1    0    0    0  0.54756912147E+02  0.24710245123E+02 -0.14047584680E+02  0.62499997590E+02  0.99999710741E+01 0.  0.
    3000022    2    5    5    0    0  0.41098239262E+01  0.50524756699E+01 -0.22625109243E+01  0.68992475181E+01  0.24999506922E+00 0.  0.
        -13    1    4    4    0    0 -0.20998345517E+02 -0.92529290310E+01  0.63547406597E+01  0.23810522127E+02  0.10500000000E+00 0.  1.
         13    1    4    4    0    0 -0.29573117457E+02 -0.12900749336E+02  0.90376986048E+01  0.33506561009E+02  0.10500000000E+00 0. -1.
    3000001    1    5    5    0    0  0.50647088221E+02  0.19657769453E+02 -0.11785073755E+02  0.55600750071E+02  0.10000000000E+01 0. -1.
        -13    1    6    6    0    0  0.23877405301E+01  0.28514480366E+01 -0.13323165830E+01  0.39519809238E+01  0.10500000000E+00 0. -1.
         13    1    6    6    0    0  0.17220833961E+01  0.22010276333E+01 -0.93019434134E+00  0.29472665943E+01  0.10500000000E+00 0.  1.
</event>
<event>
11    0  0.3422856E-009  0.9118800E+02  0.7816531E-02  0.1126479E+00
         25   -1    0    0    0    0  0.00000000000E+00  0.00000000000E+00  0.99999998245E-14  0.12500000000E+03  0.12500000000E+03 0.  0.
    3000001    1    3    3    0    0  0.30206747696E+02  0.52102645076E+02 -0.29860788168E+01  0.60307958819E+02  0.10000000000E+01 0.  1.
    1000022    2    1    0    0    0  0.32079578464E+02  0.52659776804E+02 -0.20244874286E+01  0.62500000960E+02  0.10000006160E+02 0.  0.
    3000022    2    3    3    0    0  0.18728307682E+01  0.55713172803E+00  0.96159138825E+00  0.21920421407E+01  0.24999979998E+00 0.  0.
    1000022    2    1    0    0    0 -0.32079578464E+02 -0.52659776804E+02  0.20244874286E+01  0.62499999040E+02  0.99999941576E+01 0.  0.
    3000022    2    5    5    0    0 -0.13050275149E+02 -0.17872412321E+02  0.51167424477E+01  0.22715113048E+02  0.25000768873E+00 0.  0.
        -13    1    4    4    0    0  0.99895193698E+00  0.28098246117E+00  0.58312333652E+00  0.11949535311E+01  0.10500000000E+00 0.  1.
         13    1    4    4    0    0  0.87387883123E+00  0.27614926686E+00  0.37846805173E+00  0.99708860962E+00  0.10500000000E+00 0. -1.
    3000001    1    5    5    0    0 -0.19029303315E+02 -0.34787364482E+02 -0.30922550191E+01  0.39784885992E+02  0.10000000000E+01 0. -1.
        -13    1    6    6    0    0 -0.33184075466E+01 -0.45947658578E+01  0.13077982844E+01  0.58176510110E+01  0.10500000000E+00 0. -1.
         13    1    6    6    0    0 -0.97318676026E+01 -0.13277646464E+02  0.38089441633E+01  0.16897462037E+02  0.10500000000E+00 0.  1.
</event>
<event>
11    0  0.3422856E-009  0.9118800E+02  0.7816531E-02  0.1126479E+00
         25   -1    0    0    0    0  0.00000000000E+00  0.00000000000E+00  0.99999998245E-14  0.12500000000E+03  0.12500000000E+03 0.  0.
    3000001    1    3    3    0    0 -0.15059258203E+01  0.70988251394E+01 -0.29687890830E+02  0.30578292838E+02  0.10000000000E+01 0. -1.
    1000022    2    1    0    0    0 -0.48929125406E+01  0.23650543647E+02 -0.56771130191E+02  0.62500000534E+02  0.10000001779E+02 0.  0.
    3000022    2    3    3    0    0 -0.33869867203E+01  0.16551718507E+02 -0.27083239361E+02  0.31921707696E+02  0.25000665578E+00 0.  0.
    1000022    2    1    0    0    0  0.48929125406E+01 -0.23650543647E+02  0.56771130191E+02  0.62499999466E+02  0.99999951079E+01 0.  0.
    3000022    2    5    5    0    0 -0.16104026088E+01 -0.15035579867E+02  0.36576111100E+02  0.39579495437E+02  0.24999468015E+00 0.  0.
        -13    1    4    4    0    0 -0.19381004505E+01  0.93970202586E+01 -0.15259786970E+02  0.18025879909E+02  0.10500000000E+00 0.  1.
         13    1    4    4    0    0 -0.14488862698E+01  0.71546982487E+01 -0.11823452391E+02  0.13895827787E+02  0.10500000000E+00 0. -1.
    3000001    1    5    5    0    0  0.65033151494E+01 -0.86149637795E+01  0.20195019091E+02  0.22920504029E+02  0.10000000000E+01 0. -1.
        -13    1    6    6    0    0 -0.86645046035E+00 -0.75009302294E+01  0.18195627612E+02  0.19700420805E+02  0.10500000000E+00 0.  1.
         13    1    6    6    0    0 -0.74395214841E+00 -0.75346496378E+01  0.18380483489E+02  0.19879074632E+02  0.10500000000E+00 0. -1.
</event>
<event>
11    0  0.3422856E-009  0.9118800E+02  0.7816531E-02  0.1126479E+00
         25   -1    0    0    0    0  0.00000000000E+00  0.00000000000E+00  0.99999998245E-14  0.12500000000E+03  0.12500000000E+03 0.  0.
    3000001    1    3    3    0    0  0.37946879803E-01  0.58261337743E-01 -0.46078597436E+00  0.11032488674E+01  0.10000000000E+01 0.  1.
    1000022    2    1    0    0    0 -0.20535579260E+02 -0.35270594886E+02 -0.46265810896E+02  0.62499998470E+02  0.99999835838E+01 0.  0.
    3000022    2    3    3    0    0 -0.20573526139E+02 -0.35328856224E+02 -0.45805024922E+02  0.61396749602E+02  0.24998748203E+00 0.  0.
    1000022    2    1    0    0    0  0.20535579260E+02  0.35270594886E+02  0.46265810896E+02  0.62500001530E+02  0.10000002713E+02 0.  0.
    3000022    2    5    5    0    0  0.18153710268E+02  0.25272318648E+02  0.38903727358E+02  0.49817765858E+02  0.25001278258E+00 0.  0.
        -13    1    4    4    0    0 -0.93690622161E+01 -0.16026637847E+02 -0.20888263735E+02  0.27945715850E+02  0.10500000000E+00 0. -1.
         13    1    4    4    0    0 -0.11204463923E+02 -0.19302218376E+02 -0.24916761187E+02  0.33451033753E+02  0.10500000000E+00 0.  1.
    3000001    1    5    5    0    0  0.23818689921E+01  0.99982762379E+01  0.73620835378E+01  0.12682235672E+02  0.10000000000E+01 0.  1.
        -13    1    6    6    0    0  0.13095113396E+02  0.18166416271E+02  0.28020768786E+02  0.35870254854E+02  0.10500000000E+00 0.  1.
         13    1    6    6    0    0  0.50585968718E+01  0.71059023774E+01  0.10882958573E+02  0.13947511004E+02  0.10500000000E+00 0. -1.
</event>
<event>
11    0  0.3422856E-009  0.9118800E+02  0.7816531E-02  0.1126479E+00
         25   -1    0    0    0    0  0.00000000000E+00  0.00000000000E+00  0.99999998245E-14  0.12500000000E+03  0.12500000000E+03 0.  0.
    3000001    1    3    3    0    0  0.34412432305E+02  0.73812149764E+01  0.50712716225E+02  0.61737163998E+02  0.10000000000E+01 0.  1.
    1000022    2    1    0    0    0  0.34639555536E+02  0.80002003940E+01  0.50421699967E+02  0.62499999766E+02  0.10000006451E+02 0.  0.
    3000022    2    3    3    0    0  0.22712323128E+00  0.61898541765E+00 -0.29101625744E+00  0.76283576728E+00  0.25000007258E+00 0.  0.
    1000022    2    1    0    0    0 -0.34639555536E+02 -0.80002003940E+01 -0.50421699967E+02  0.62500000234E+02  0.10000009380E+02 0.  0.
    3000022    2    5    5    0    0 -0.26778844457E+02 -0.64867138557E+01 -0.31036411010E+02  0.41503075504E+02  0.25000164072E+00 0.  0.
        -13    1    4    4    0    0  0.17421926003E+00  0.48985219406E+00 -0.21348411801E+00  0.57175868269E+00  0.10500000000E+00 0.  1.
         13    1    4    4    0    0  0.52903971249E-01  0.12913322359E+00 -0.77532139427E-01  0.19107708458E+00  0.10500000000E+00 0. -1.
    3000001    1    5    5    0    0 -0.78607110795E+01 -0.15134865384E+01 -0.19385288957E+02  0.20996924730E+02  0.10000000000E+01 0.  1.
        -13    1    6    6    0    0 -0.79742129819E+01 -0.18928312841E+01 -0.91949016876E+01  0.12317797084E+02  0.10500000000E+00 0. -1.
         13    1    6    6    0    0 -0.18804631475E+02 -0.45938825716E+01 -0.21841509323E+02  0.29185278421E+02  0.10500000000E+00 0.  1.
</event>
<event>
11    0  0.3422856E-009  0.9118800E+02  0.7816531E-02  0.1126479E+00
         25   -1    0    0    0    0  0.00000000000E+00  0.00000000000E+00  0.99999998245E-14  0.12500000000E+03  0.12500000000E+03 0.  0.
    3000001    1    3    3    0    0  0.39069061252E-01 -0.16190648619E+01 -0.15172047708E+01  0.24340927951E+01  0.10000000000E+01 0. -1.
    1000022    2    1    0    0    0 -0.54983658192E+01 -0.61428605560E+02 -0.15952127109E+01  0.62499997672E+02  0.99999698809E+01 0.  0.
    3000022    2    3    3    0    0 -0.55374348804E+01 -0.59809540698E+02 -0.78007940108E-01  0.60065904877E+02  0.24999962438E+00 0.  0.
    1000022    2    1    0    0    0  0.54983658192E+01  0.61428605560E+02  0.15952127109E+01  0.62500002328E+02  0.99999989828E+01 0.  0.
    3000022    2    5    5    0    0 -0.67294912317E-01  0.14613730257E+02  0.43929536696E+01  0.15261919350E+02  0.24999930334E+00 0.  0.
        -13    1    4    4    0    0 -0.18610518292E+01 -0.20550624593E+02  0.99802151960E-02  0.20634989937E+02  0.10500000000E+00 0. -1.
         13    1    4    4    0    0 -0.36763830512E+01 -0.39258916105E+02 -0.87988155304E-01  0.39430914940E+02  0.10500000000E+00 0.  1.
    3000001    1    5    5    0    0  0.55656607315E+01  0.46814875303E+02 -0.27977409588E+01  0.47238082978E+02  0.10000000000E+01 0. -1.
        -13    1    6    6    0    0 -0.72684628595E-01  0.79863916942E+01  0.23418947174E+01  0.83236549193E+01  0.10500000000E+00 0. -1.
         13    1    6    6    0    0  0.53897162777E-02  0.66273385633E+01  0.20510589522E+01  0.69382644304E+01  0.10500000000E+00 0.  1.
</event>
<event>
11    0  0.3422856E-009  0.9118800E+02  0.7816531E-02  0.1126479E+00
         25   -1    0    0    0    0  0.00000000000E+00  0.00000000000E+00  0.99999998245E-14  0.12500000000E+03  0.12500000000E+03 0.  0.
    3000001    1    3    3    0    0 -0.15768613048E+01  0.18138696115E+02  0.14599024030E+02  0.23358730508E+02  0.10000000000E+01 0.  1.
    1000022    2    1    0    0    0 -0.78758564210E+01  0.39210463450E+02  0.46976170499E+02  0.62499998167E+02  0.99999808934E+01 0.  0.
    3000022    2    3    3    0    0 -0.62989951162E+01  0.21071767334E+02  0.32377146470E+02  0.39141267659E+02  0.25000478810E+00 0.  0.
    1000022    2    1    0    0    0  0.78758564210E+01 -0.39210463450E+02 -0.46976170499E+02  0.62500001833E+02  0.10000003802E+02 0.  0.
    3000022    2    5    5    0    0  0.63635502886E+01 -0.30018250624E+02 -0.41614222588E+02  0.51704894984E+02  0.25000184788E+00 0.  0.
        -13    1    4    4    0    0 -0.27996408560E+01  0.95431535809E+01  0.14564091019E+02  0.17636143042E+02  0.10500000000E+00 0.  1.
         13    1    4    4    0    0 -0.34993542602E+01  0.11528613753E+02  0.17813055450E+02  0.21505124617E+02  0.10500000000E+00 0. -1.
    3000001    1    5    5    0    0  0.15123061324E+01 -0.91922128258E+01 -0.53619479112E+01  0.10795106849E+02  0.10000000000E+01 0. -1.
        -13    1    6    6    0    0  0.22778022514E+01 -0.11001679836E+02 -0.15279429085E+02  0.18965687978E+02  0.10500000000E+00 0.  1.
         13    1    6    6    0    0  0.40857480372E+01 -0.19016570788E+02 -0.26334793502E+02  0.32739207006E+02  0.10500000000E+00 0. -1.
</event>
<event>
11    0  0.3422856E-009  0.9118800E+02  0.7816531E-02  0.1126479E+00
         25   -1    0    0    0    0  0.00000000000E+00  0.00000000000E+00  0.99999998245E-14  0.12500000000E+03  0.12500000000E+03 0.  0.
    3000001    1    3    3    0    0 -0.57611349072E+00 -0.70349110304E+00 -0.11387933220E+01  0.17673869742E+01  0.10000000000E+01 0. -1.
    1000022    2    1    0    0    0 -0.32129859218E+02 -0.52517131343E+02 -0.39840762875E+01  0.62500000335E+02  0.10000012008E+02 0.  0.
    3000022    2    3    3    0    0 -0.31553745727E+02 -0.51813640240E+02 -0.28452829654E+01  0.60732613361E+02  0.25001231930E+00 0.  0.
    1000022    2    1    0    0    0  0.32129859218E+02  0.52517131343E+02  0.39840762875E+01  0.62499999665E+02  0.10000007822E+02 0.  0.
    3000022    2    5    5    0    0  0.44718742779E+01  0.30882414103E+01 -0.13333781468E+01  0.56013651248E+01  0.24999882608E+00 0.  0.
        -13    1    4    4    0    0 -0.13460245789E+02 -0.22189239441E+02 -0.11697095419E+01  0.25979218793E+02  0.10500000000E+00 0.  1.
         13    1    4    4    0    0 -0.18093499938E+02 -0.29624400798E+02 -0.16755734236E+01  0.34753394568E+02  0.10500000000E+00 0. -1.
    3000001    1    5    5    0    0  0.27657984940E+02  0.49428889932E+02  0.53174544342E+01  0.56898634540E+02  0.10000000000E+01 0. -1.
        -13    1    6    6    0    0  0.12138793187E+01  0.88097590180E+00 -0.38429409219E+00  0.15518790189E+01  0.10500000000E+00 0.  1.
         13    1    6    6    0    0  0.32579949592E+01  0.22072655085E+01 -0.94908405457E+00  0.40494861059E+01  0.10500000000E+00 0. -1.
</event>
<event>
11    0  0.3422856E-009  0.9118800E+02  0.7816531E-02  0.1126479E+00
         25   -1    0    0    0    0  0.00000000000E+00  0.00000000000E+00  0.99999998245E-14  0.12500000000E+03  0.12500000000E+03 0.  0.
    3000001    1    3    3    0    0 -0.11122150655E+02  0.78748172699E+01 -0.61680808117E+01  0.14992004640E+02  0.10000000000E+01 0. -1.
    1000022    2    1    0    0    0 -0.47080551216E+02  0.18362832073E+02 -0.35390367775E+02  0.62499999567E+02  0.99999955020E+01 0.  0.
    3000022    2    3    3    0    0 -0.35958400562E+02  0.10488014804E+02 -0.29222286963E+02  0.47507994927E+02  0.25000234441E+00 0.  0.
    1000022    2    1    0    0    0  0.47080551216E+02 -0.18362832073E+02  0.35390367775E+02  0.62500000433E+02  0.10000000915E+02 0.  0.
    3000022    2    5    5    0    0  0.41894366860E+02 -0.13198857235E+02  0.28242661237E+02  0.52221243064E+02  0.25001293094E+00 0.  0.
        -13    1    4    4    0    0 -0.24382366779E+02  0.70760668466E+01 -0.19758351759E+02  0.32171012123E+02  0.10500000000E+00 0. -1.
         13    1    4    4    0    0 -0.11576033783E+02  0.34119479569E+01 -0.94639352037E+01  0.15336982804E+02  0.10500000000E+00 0.  1.
    3000001    1    5    5    0    0  0.51861843567E+01 -0.51639748384E+01  0.71477065376E+01  0.10278757369E+02  0.10000000000E+01 0.  1.
        -13    1    6    6    0    0  0.15372760141E+02 -0.48572491010E+01  0.10297753678E+02  0.19130326160E+02  0.10500000000E+00 0. -1.
         13    1    6    6    0    0  0.26521606719E+02 -0.83416081341E+01  0.17944907559E+02  0.33090916903E+02  0.10500000000E+00 0.  1.
</event>
<event>
11    0  0.3422856E-009  0.9118800E+02  0.7816531E-02  0.1126479E+00
         25   -1    0    0    0    0  0.00000000000E+00  0.00000000000E+00  0.99999998245E-14  0.12500000000E+03  0.12500000000E+03 0.  0.
    3000001    1    3    3    0    0  0.71435376387E+01 -0.42364465955E+02  0.76307277801E+01  0.43646375704E+02  0.10000000000E+01 0. -1.
    1000022    2    1    0    0    0  0.87333704526E+01 -0.60901048068E+02  0.45870116970E+01  0.62500000370E+02  0.99999977325E+01 0.  0.
    3000022    2    3    3    0    0  0.15898328139E+01 -0.18536582114E+02 -0.30437160831E+01  0.18853624666E+02  0.25002125057E+00 0.  0.
    1000022    2    1    0    0    0 -0.87333704526E+01  0.60901048068E+02 -0.45870116970E+01  0.62499999630E+02  0.99999931063E+01 0.  0.
    3000022    2    5    5    0    0 -0.12440559637E+00  0.29938970863E+02 -0.49444796404E+01  0.30345804195E+02  0.25000040274E+00 0.  0.
        -13    1    4    4    0    0  0.50621226706E+00 -0.62586005935E+01 -0.10729187493E+01  0.63709113862E+01  0.10500000000E+00 0.  1.
         13    1    4    4    0    0  0.10836205469E+01 -0.12277981520E+02 -0.19707973338E+01  0.12482713280E+02  0.10500000000E+00 0. -1.
    3000001    1    5    5    0    0 -0.86089648562E+01  0.30962077205E+02  0.35746794342E+00  0.32154195435E+02  0.10000000000E+01 0.  1.
        -13    1    6    6    0    0  0.36583653966E-02  0.12449200352E+02 -0.20225499420E+01  0.12612863911E+02  0.10500000000E+00 0.  1.
         13    1    6    6    0    0 -0.12806396177E+00  0.17489770512E+02 -0.29219296985E+01  0.17732940284E+02  0.10500000000E+00 0. -1.
</event>
<event>
11    0  0.3422856E-009  0.9118800E+02  0.7816531E-02  0.1126479E+00
         25   -1    0    0    0    0  0.00000000000E+00  0.00000000000E+00  0.99999998245E-14  0.12500000000E+03  0.12500000000E+03 0.  0.
    3000001    1    3    3    0    0  0.10446843123E+02  0.19374740631E+02  0.34532175518E+02  0.40963254897E+02  0.10000000000E+01 0. -1.
    1000022    2    1    0    0    0  0.19963193683E+02  0.23643637288E+02  0.53373207788E+02  0.62500000317E+02  0.10000002191E+02 0.  0.
    3000022    2    3    3    0    0  0.95163505597E+01  0.42688966567E+01  0.18841032271E+02  0.21536745420E+02  0.24999927345E+00 0.  0.
    1000022    2    1    0    0    0 -0.19963193683E+02 -0.23643637288E+02 -0.53373207788E+02  0.62499999683E+02  0.99999982249E+01 0.  0.
    3000022    2    5    5    0    0 -0.91745546709E+01 -0.15025510556E+02 -0.21780271359E+02  0.28006805103E+02  0.24998143870E+00 0.  0.
        -13    1    4    4    0    0  0.47663090116E+01  0.21738089786E+01  0.93402145417E+01  0.10709518185E+02  0.10500000000E+00 0. -1.
         13    1    4    4    0    0  0.47500415481E+01  0.20950876781E+01  0.95008177288E+01  0.10827227235E+02  0.10500000000E+00 0.  1.
    3000001    1    5    5    0    0 -0.10788639012E+02 -0.86181267318E+01 -0.31592936429E+02  0.34493194579E+02  0.10000000000E+01 0. -1.
        -13    1    6    6    0    0 -0.32828244540E+01 -0.52735228627E+01 -0.77159922533E+01  0.99062879643E+01  0.10500000000E+00 0.  1.
         13    1    6    6    0    0 -0.58917302169E+01 -0.97519876934E+01 -0.14064279106E+02  0.18100517139E+02  0.10500000000E+00 0. -1.
</event>
<event>
11    0  0.3422856E-009  0.9118800E+02  0.7816531E-02  0.1126479E+00
         25   -1    0    0    0    0  0.00000000000E+00  0.00000000000E+00  0.99999998245E-14  0.12500000000E+03  0.12500000000E+03 0.  0.
    3000001    1    3    3    0    0  0.11646945425E+02 -0.20705795342E+02 -0.30115100289E+02  0.38370568981E+02  0.10000000000E+01 0. -1.
    1000022    2    1    0    0    0  0.18760646498E+02 -0.39395929798E+02 -0.43614773067E+02  0.62500001667E+02  0.10000031856E+02 0.  0.
    3000022    2    3    3    0    0  0.71137010734E+01 -0.18690134456E+02 -0.13499672778E+02  0.24129432687E+02  0.24997549666E+00 0.  0.
    1000022    2    1    0    0    0 -0.18760646498E+02  0.39395929798E+02  0.43614773067E+02  0.62499998333E+02  0.10000011013E+02 0.  0.
    3000022    2    5    5    0    0 -0.14553819263E+01  0.14646566195E+01 -0.10071415187E+00  0.20823064735E+01  0.25000268900E+00 0.  0.
        -13    1    4    4    0    0  0.27060981552E+01 -0.72776724533E+01 -0.52222928908E+01  0.93579298780E+01  0.10500000000E+00 0.  1.
         13    1    4    4    0    0  0.44076029182E+01 -0.11412462003E+02 -0.82773798867E+01  0.14771502809E+02  0.10500000000E+00 0. -1.
    3000001    1    5    5    0    0 -0.17305264572E+02  0.37931273178E+02  0.43715487219E+02  0.60417691859E+02  0.10000000000E+01 0.  1.
        -13    1    6    6    0    0 -0.37447766872E+00  0.41758303172E+00 -0.51233626153E-01  0.57293891228E+00  0.10500000000E+00 0.  1.
         13    1    6    6    0    0 -0.10809042576E+01  0.10470735878E+01 -0.49480525713E-01  0.15093675612E+01  0.10500000000E+00 0. -1.
</event>
<event>
11    0  0.3422856E-009  0.9118800E+02  0.7816531E-02  0.1126479E+00
         25   -1    0    0    0    0  0.00000000000E+00  0.00000000000E+00  0.99999998245E-14  0.12500000000E+03  0.12500000000E+03 0.  0.
    3000001    1    3    3    0    0  0.43452731953E+02 -0.12851559644E+02  0.32578788159E+02  0.55818276016E+02  0.10000000000E+01 0. -1.
    1000022    2    1    0    0    0  0.46056818080E+02 -0.16279270878E+02  0.37682950088E+02  0.62500000226E+02  0.10000007448E+02 0.  0.
    3000022    2    3    3    0    0  0.26040861272E+01 -0.34277112342E+01  0.51041619295E+01  0.66817242109E+01  0.25000112997E+00 0.  0.
    1000022    2    1    0    0    0 -0.46056818080E+02  0.16279270878E+02 -0.37682950088E+02  0.62499999774E+02  0.10000004617E+02 0.  0.
    3000022    2    5    5    0    0 -0.36087889099E+02  0.13931564539E+02 -0.24554790707E+02  0.45819477035E+02  0.24999795145E+00 0.  0.
        -13    1    4    4    0    0  0.12481233198E+01 -0.15774931331E+01  0.24696468518E+01  0.31869228072E+01  0.10500000000E+00 0.  1.
         13    1    4    4    0    0  0.13559628074E+01 -0.18502181011E+01  0.26345150777E+01  0.34948014037E+01  0.10500000000E+00 0. -1.
    3000001    1    5    5    0    0 -0.99689289810E+01  0.23477063389E+01 -0.13128159381E+02  0.16680522738E+02  0.10000000000E+01 0.  1.
        -13    1    6    6    0    0 -0.22587652658E+02  0.87136594295E+01 -0.15438296081E+02  0.28713793273E+02  0.10500000000E+00 0. -1.
         13    1    6    6    0    0 -0.13500236441E+02  0.52179051098E+01 -0.91164946260E+01  0.17105683762E+02  0.10500000000E+00 0.  1.
</event>
<event>
11    0  0.3422856E-009  0.9118800E+02  0.7816531E-02  0.1126479E+00
         25   -1    0    0    0    0  0.00000000000E+00  0.00000000000E+00  0.99999998245E-14  0.12500000000E+03  0.12500000000E+03 0.  0.
    3000001    1    3    3    0    0 -0.25828662844E+01  0.23748590642E+01 -0.16531598354E+01  0.40055076157E+01  0.10000000000E+01 0. -1.
    1000022    2    1    0    0    0 -0.24103840096E+02  0.56765931107E+02 -0.16982242657E+01  0.62499999501E+02  0.99999965090E+01 0.  0.
    3000022    2    3    3    0    0 -0.21520973812E+02  0.54391072042E+02 -0.45064430332E-01  0.58494491885E+02  0.25003676876E+00 0.  0.
    1000022    2    1    0    0    0  0.24103840096E+02 -0.56765931107E+02  0.16982242657E+01  0.62500000499E+02  0.10000002745E+02 0.  0.
    3000022    2    5    5    0    0  0.18237914314E+02 -0.33216584053E+02  0.39809152960E+01  0.38103453402E+02  0.24999971483E+00 0.  0.
        -13    1    4    4    0    0 -0.10582471456E+02  0.26713598274E+02  0.44653495100E-01  0.28733570154E+02  0.10500000000E+00 0. -1.
         13    1    4    4    0    0 -0.10938502356E+02  0.27677473768E+02 -0.89717925432E-01  0.29760921731E+02  0.10500000000E+00 0.  1.
    3000001    1    5    5    0    0  0.58659257828E+01 -0.23549347053E+02 -0.22826910302E+01  0.24396547097E+02  0.10000000000E+01 0. -1.
        -13    1    6    6    0    0  0.10795094277E+02 -0.19570061593E+02  0.23948659817E+01  0.22478162275E+02  0.10500000000E+00 0. -1.
         13    1    6    6    0    0  0.74428200371E+01 -0.13646522460E+02  0.15860493142E+01  0.15625291126E+02  0.10500000000E+00 0.  1.
</event>
<event>
11    0  0.3422856E-009  0.9118800E+02  0.7816531E-02  0.1126479E+00
         25   -1    0    0    0    0  0.00000000000E+00  0.00000000000E+00  0.99999998245E-14  0.12500000000E+03  0.12500000000E+03 0.  0.
    3000001    1    3    3    0    0  0.95800537884E+00 -0.14871018156E+02 -0.35110592840E+00  0.14939485622E+02  0.10000000000E+01 0. -1.
    1000022    2    1    0    0    0  0.51465434187E+00 -0.58929821328E+02 -0.18255444462E+02  0.62500000092E+02  0.10000002411E+02 0.  0.
    3000022    2    3    3    0    0 -0.44335103697E+00 -0.44058803172E+02 -0.17904338533E+02  0.47560514470E+02  0.25000240875E+00 0.  0.
    1000022    2    1    0    0    0 -0.51465434187E+00  0.58929821328E+02  0.18255444462E+02  0.62499999908E+02  0.10000001261E+02 0.  0.
    3000022    2    5    5    0    0  0.29997011932E+01  0.10294913557E+02  0.10289890308E+01  0.10775192364E+02  0.24999935577E+00 0.  0.
        -13    1    4    4    0    0 -0.15353225519E+00 -0.17434701250E+02 -0.71482888673E+01  0.18844135389E+02  0.10500000000E+00 0. -1.
         13    1    4    4    0    0 -0.28981878177E+00 -0.26624101922E+02 -0.10756049666E+02  0.28716379081E+02  0.10500000000E+00 0.  1.
    3000001    1    5    5    0    0 -0.35143555351E+01  0.48634907771E+02  0.17226455431E+02  0.51724807544E+02  0.10000000000E+01 0. -1.
        -13    1    6    6    0    0  0.77566366585E+00  0.26525159566E+01  0.23475825966E+00  0.27755416522E+01  0.10500000000E+00 0.  1.
         13    1    6    6    0    0  0.22240375274E+01  0.76423976001E+01  0.79423077118E+00  0.79996507123E+01  0.10500000000E+00 0. -1.
</event>
<event>
11    0  0.3422856E-009  0.9118800E+02  0.7816531E-02  0.1126479E+00
         25   -1    0    0    0    0  0.00000000000E+00  0.00000000000E+00  0.99999998245E-14  0.12500000000E+03  0.12500000000E+03 0.  0.
    3000001    1    3    3    0    0 -0.44076691978E+01  0.33696114773E+02  0.73538066429E+01  0.34784108020E+02  0.10000000000E+01 0. -1.
    1000022    2    1    0    0    0 -0.15567671919E+02  0.57415353796E+02  0.16351601006E+02  0.62500001651E+02  0.10000004520E+02 0.  0.
    3000022    2    3    3    0    0 -0.11160002721E+02  0.23719239022E+02  0.89977943631E+01  0.27715893631E+02  0.24999166014E+00 0.  0.
    1000022    2    1    0    0    0  0.15567671919E+02 -0.57415353796E+02 -0.16351601006E+02  0.62499998349E+02  0.99999838873E+01 0.  0.
    3000022    2    5    5    0    0  0.16687869116E+02 -0.53324606483E+02 -0.16035658550E+02  0.58130916641E+02  0.24998439751E+00 0.  0.
        -13    1    4    4    0    0 -0.42667092527E+01  0.92054581998E+01  0.35037529663E+01  0.10734643840E+02  0.10500000000E+00 0. -1.
         13    1    4    4    0    0 -0.68932934683E+01  0.14513780822E+02  0.54940413968E+01  0.16981249791E+02  0.10500000000E+00 0.  1.
    3000001    1    5    5    0    0 -0.11201971975E+01 -0.40907473129E+01 -0.31594245637E+00  0.43690817085E+01  0.10000000000E+01 0.  1.
        -13    1    6    6    0    0  0.84564710337E+01 -0.27147575951E+02 -0.82190930937E+01  0.29598434057E+02  0.10500000000E+00 0. -1.
         13    1    6    6    0    0  0.82313980825E+01 -0.26177030532E+02 -0.78165654560E+01  0.28532482584E+02  0.10500000000E+00 0.  1.
</event>
<event>
11    0  0.3422856E-009  0.9118800E+02  0.7816531E-02  0.1126479E+00
         25   -1    0    0    0    0  0.00000000000E+00  0.00000000000E+00  0.99999998245E-14  0.12500000000E+03  0.12500000000E+03 0.  0.
    3000001    1    3    3    0    0 -0.41344934313E+02 -0.39011935230E+01 -0.12157765786E+02  0.43283185802E+02  0.10000000000E+01 0. -1.
    1000022    2    1    0    0    0 -0.57906687472E+02 -0.47815241258E+00 -0.21279971474E+02  0.62500001873E+02  0.99999982273E+01 0.  0.
    3000022    2    3    3    0    0 -0.16561753159E+02  0.34230411104E+01 -0.91222056879E+01  0.19216816071E+02  0.25001034888E+00 0.  0.
    1000022    2    1    0    0    0  0.57906687472E+02  0.47815241258E+00  0.21279971474E+02  0.62499998127E+02  0.99999748102E+01 0.  0.
    3000022    2    5    5    0    0  0.35581069721E+02  0.25524920451E+01  0.84986438937E+01  0.36671749491E+02  0.25004913622E+00 0.  0.
        -13    1    4    4    0    0 -0.90005207942E+01  0.19262617458E+01 -0.49448851549E+01  0.10449056085E+02  0.10500000000E+00 0.  1.
         13    1    4    4    0    0 -0.75612323645E+01  0.14967793647E+01 -0.41773205330E+01  0.87677599860E+01  0.10500000000E+00 0. -1.
    3000001    1    5    5    0    0  0.22325617751E+02 -0.20743396325E+01  0.12781327580E+02  0.25828248635E+02  0.10000000000E+01 0. -1.
        -13    1    6    6    0    0  0.22133982739E+02  0.15794135469E+01  0.53482879934E+01  0.22825927111E+02  0.10500000000E+00 0. -1.
         13    1    6    6    0    0  0.13447086982E+02  0.97307849822E+00  0.31503559004E+01  0.13845822380E+02  0.10500000000E+00 0.  1.
</event>
<event>
11    0  0.3422856E-009  0.9118800E+02  0.7816531E-02  0.1126479E+00
         25   -1    0    0    0    0  0.00000000000E+00  0.00000000000E+00  0.99999998245E-14  0.12500000000E+03  0.12500000000E+03 0.  0.
    3000001    1    3    3    0    0 -0.33382216648E+01  0.24692419580E+01  0.15392780804E+02  0.15974310020E+02  0.10000000000E+01 0.  1.
    1000022    2    1    0    0    0 -0.26569493411E+02  0.91964353778E+00  0.55672850702E+02  0.62499999563E+02  0.99999957850E+01 0.  0.
    3000022    2    3    3    0    0 -0.23231271747E+02 -0.15495984202E+01  0.40280069898E+02  0.46525689543E+02  0.25002847031E+00 0.  0.
    1000022    2    1    0    0    0  0.26569493411E+02 -0.91964353778E+00 -0.55672850702E+02  0.62500000437E+02  0.10000001251E+02 0.  0.
    3000022    2    5    5    0    0  0.91068576456E+01  0.43630369184E+01 -0.18435508299E+02  0.21021451404E+02  0.25001110395E+00 0.  0.
        -13    1    4    4    0    0 -0.14356891153E+02 -0.94188659428E+00  0.25008645230E+02  0.28852224094E+02  0.10500000000E+00 0.  1.
         13    1    4    4    0    0 -0.88743805940E+01 -0.60771182596E+00  0.15271424667E+02  0.17673465448E+02  0.10500000000E+00 0. -1.
    3000001    1    5    5    0    0  0.17462635766E+02 -0.52826804562E+01 -0.37237342403E+02  0.41478549033E+02  0.10000000000E+01 0.  1.
        -13    1    6    6    0    0  0.37112637591E+01  0.17487423188E+01 -0.73703296681E+01  0.84358972732E+01  0.10500000000E+00 0. -1.
         13    1    6    6    0    0  0.53955938865E+01  0.26142945996E+01 -0.11065178631E+02  0.12585554131E+02  0.10500000000E+00 0.  1.
</event>
<event>
11    0  0.3422856E-009  0.9118800E+02  0.7816531E-02  0.1126479E+00
         25   -1    0    0    0    0  0.00000000000E+00  0.00000000000E+00  0.99999998245E-14  0.12500000000E+03  0.12500000000E+03 0.  0.
    3000001    1    3    3    0    0 -0.48187339920E+00 -0.66313641202E+00  0.94717269863E+00  0.16028374823E+01  0.10000000000E+01 0.  1.
    1000022    2    1    0    0    0  0.17826464518E+02 -0.54116185548E+02  0.23662326460E+02  0.62500000038E+02  0.99999967873E+01 0.  0.
    3000022    2    3    3    0    0  0.18308337917E+02 -0.53453049136E+02  0.22715153761E+02  0.60897162556E+02  0.24999535245E+00 0.  0.
    1000022    2    1    0    0    0 -0.17826464518E+02  0.54116185548E+02 -0.23662326460E+02  0.62499999962E+02  0.99999963130E+01 0.  0.
    3000022    2    5    5    0    0 -0.40270252287E+01  0.79768348425E+01 -0.75701819682E+01  0.11713965242E+02  0.25000072309E+00 0.  0.
        -13    1    4    4    0    0  0.11398979944E+02 -0.33251218362E+02  0.14195995541E+02  0.37909333689E+02  0.10500000000E+00 0.  1.
         13    1    4    4    0    0  0.69093579731E+01 -0.20201830775E+02  0.85191582197E+01  0.22987828867E+02  0.10500000000E+00 0. -1.
    3000001    1    5    5    0    0 -0.13799439289E+02  0.46139350706E+02 -0.16092144492E+02  0.50786034720E+02  0.10000000000E+01 0.  1.
        -13    1    6    6    0    0 -0.13640756731E+01  0.26780790625E+01 -0.24776530617E+01  0.38964855449E+01  0.10500000000E+00 0.  1.
         13    1    6    6    0    0 -0.26629495556E+01  0.52987557800E+01 -0.50925289065E+01  0.78174796971E+01  0.10500000000E+00 0. -1.
</event>
<event>
11    0  0.3422856E-009  0.9118800E+02  0.7816531E-02  0.1126479E+00
         25   -1    0    0    0    0  0.00000000000E+00  0.00000000000E+00  0.99999998245E-14  0.12500000000E+03  0.12500000000E+03 0.  0.
    3000001    1    3    3    0    0 -0.16716833975E+02  0.19193330044E+01  0.85825018068E+01  0.18915488749E+02  0.10000000000E+01 0. -1.
    1000022    2    1    0    0    0 -0.53390993131E+02 -0.83977783375E+01  0.29751120321E+02  0.62500000301E+02  0.10000002440E+02 0.  0.
    3000022    2    3    3    0    0 -0.36674159155E+02 -0.10317111342E+02  0.21168618514E+02  0.43584511552E+02  0.25000253535E+00 0.  0.
    1000022    2    1    0    0    0  0.53390993131E+02  0.83977783375E+01 -0.29751120321E+02  0.62499999699E+02  0.99999986778E+01 0.  0.
    3000022    2    5    5    0    0  0.51679617927E+02  0.97045674711E+01 -0.28666678421E+02  0.59889919784E+02  0.25000239343E+00 0.  0.
        -13    1    4    4    0    0 -0.18329381392E+02 -0.52112594234E+01  0.10539445587E+02  0.21776464021E+02  0.10500000000E+00 0.  1.
         13    1    4    4    0    0 -0.18344777763E+02 -0.51058519186E+01  0.10629172927E+02  0.21808047531E+02  0.10500000000E+00 0. -1.
    3000001    1    5    5    0    0  0.17113752039E+01 -0.13067891337E+01 -0.10844418998E+01  0.26100799149E+01  0.10000000000E+01 0.  1.
        -13    1    6    6    0    0  0.35819313612E+02  0.66805598597E+01 -0.19882453496E+02  0.41508747147E+02  0.10500000000E+00 0.  1.
         13    1    6    6    0    0  0.15860304314E+02  0.30240076115E+01 -0.87842249248E+01  0.18381172637E+02  0.10500000000E+00 0. -1.
</event>
<event>
11    0  0.3422856E-009  0.9118800E+02  0.7816531E-02  0.1126479E+00
         25   -1    0    0    0    0  0.00000000000E+00  0.00000000000E+00  0.99999998245E-14  0.12500000000E+03  0.12500000000E+03 0.  0.
    3000001    1    3    3    0    0  0.46892362659E+02  0.14850865148E+02  0.13690121083E+02  0.51067223213E+02  0.10000000000E+01 0.  1.
    1000022    2    1    0    0    0  0.55164856700E+02  0.22286164659E+02  0.16322240743E+02  0.62500000260E+02  0.99999969834E+01 0.  0.
    3000022    2    3    3    0    0  0.82724940408E+01  0.74352995107E+01  0.26321196607E+01  0.11432777047E+02  0.25000125993E+00 0.  0.
    1000022    2    1    0    0    0 -0.55164856700E+02 -0.22286164659E+02 -0.16322240743E+02  0.62499999740E+02  0.99999937333E+01 0.  0.
    3000022    2    5    5    0    0 -0.19467450458E+02 -0.68658244514E+01 -0.10523416567E+02  0.23171663056E+02  0.24999957429E+00 0.  0.
        -13    1    4    4    0    0  0.47826989474E+01  0.43600425489E+01  0.15784236253E+01  0.66623289014E+01  0.10500000000E+00 0.  1.
         13    1    4    4    0    0  0.34897950934E+01  0.30752569618E+01  0.10536960354E+01  0.47704481456E+01  0.10500000000E+00 0. -1.
    3000001    1    5    5    0    0 -0.35697406242E+02 -0.15420340207E+02 -0.57988241762E+01  0.39328336684E+02  0.10000000000E+01 0.  1.
        -13    1    6    6    0    0 -0.12745021055E+02 -0.45501575430E+01 -0.69203974555E+01  0.15200079648E+02  0.10500000000E+00 0.  1.
         13    1    6    6    0    0 -0.67224294029E+01 -0.23156669085E+01 -0.36030191117E+01  0.79715834078E+01  0.10500000000E+00 0. -1.
</event>
<event>
11    0  0.3422856E-009  0.9118800E+02  0.7816531E-02  0.1126479E+00
         25   -1    0    0    0    0  0.00000000000E+00  0.00000000000E+00  0.99999998245E-14  0.12500000000E+03  0.12500000000E+03 0.  0.
    3000001    1    3    3    0    0  0.93892132343E+01  0.12520828149E+02 -0.18864832632E+02  0.24531823677E+02  0.10000000000E+01 0. -1.
    1000022    2    1    0    0    0  0.28253207616E+02  0.20739163504E+02 -0.50772958823E+02  0.62499998997E+02  0.99999941828E+01 0.  0.
    3000022    2    3    3    0    0  0.18863994381E+02  0.82183353558E+01 -0.31908126190E+02  0.37968175320E+02  0.25000027955E+00 0.  0.
    1000022    2    1    0    0    0 -0.28253207616E+02 -0.20739163504E+02  0.50772958823E+02  0.62500001003E+02  0.10000006715E+02 0.  0.
    3000022    2    5    5    0    0 -0.27429223966E+02 -0.20198477813E+02  0.50716632188E+02  0.61094845224E+02  0.24999827075E+00 0.  0.
        -13    1    4    4    0    0  0.73862213197E+01  0.32497970709E+01 -0.12412564203E+02  0.14805411899E+02  0.10500000000E+00 0.  1.
         13    1    4    4    0    0  0.11477773062E+02  0.49685382848E+01 -0.19495561987E+02  0.23162763422E+02  0.10500000000E+00 0. -1.
    3000001    1    5    5    0    0 -0.82398364935E+00 -0.54068569149E+00  0.56326634362E-01  0.14051557782E+01  0.10000000000E+01 0. -1.
        -13    1    6    6    0    0 -0.18740848396E+02 -0.13852395504E+02  0.34745720166E+02  0.41837594991E+02  0.10500000000E+00 0. -1.
         13    1    6    6    0    0 -0.86883755706E+01 -0.63460823091E+01  0.15970912022E+02  0.19257250233E+02  0.10500000000E+00 0.  1.
</event>
<event>
11    0  0.3422856E-009  0.9118800E+02  0.7816531E-02  0.1126479E+00
         25   -1    0    0    0    0  0.00000000000E+00  0.00000000000E+00  0.99999998245E-14  0.12500000000E+03  0.12500000000E+03 0.  0.
    3000001    1    3    3    0    0  0.28818297992E+02  0.12968655243E+02 -0.13133082490E+02  0.34236795611E+02  0.10000000000E+01 0.  1.
    1000022    2    1    0    0    0  0.46819994825E+02  0.29978000571E+02 -0.26748043850E+02  0.62499997661E+02  0.99999712045E+01 0.  0.
    3000022    2    3    3    0    0  0.18001696833E+02  0.17009345328E+02 -0.13614961361E+02  0.28263202050E+02  0.24999986888E+00 0.  0.
    1000022    2    1    0    0    0 -0.46819994825E+02 -0.29978000571E+02  0.26748043850E+02  0.62500002339E+02  0.10000000447E+02 0.  0.
    3000022    2    5    5    0    0 -0.38047679121E+02 -0.27792637785E+02  0.20061772695E+02  0.51211266570E+02  0.24999690974E+00 0.  0.
        -13    1    4    4    0    0  0.12722591966E+02  0.11987625044E+02 -0.95672994351E+01  0.19927662783E+02  0.10500000000E+00 0. -1.
         13    1    4    4    0    0  0.52791048667E+01  0.50217202840E+01 -0.40476619255E+01  0.83355392667E+01  0.10500000000E+00 0.  1.
    3000001    1    5    5    0    0 -0.87723157040E+01 -0.21853627860E+01  0.66862711548E+01  0.11288735769E+02  0.10000000000E+01 0. -1.
        -13    1    6    6    0    0 -0.17485551292E+02 -0.12693124580E+02  0.91789579026E+01  0.23476034775E+02  0.10500000000E+00 0. -1.
         13    1    6    6    0    0 -0.20562127829E+02 -0.15099513205E+02  0.10882814793E+02  0.27735231795E+02  0.10500000000E+00 0.  1.
</event>
<event>
11    0  0.3422856E-009  0.9118800E+02  0.7816531E-02  0.1126479E+00
         25   -1    0    0    0    0  0.00000000000E+00  0.00000000000E+00  0.99999998245E-14  0.12500000000E+03  0.12500000000E+03 0.  0.
    3000001    1    3    3    0    0  0.40427718946E+02 -0.35297583820E+02  0.27950483090E+02  0.60519000220E+02  0.10000000000E+01 0. -1.
    1000022    2    1    0    0    0  0.40240067400E+02 -0.36091983074E+02  0.29738102387E+02  0.62500000900E+02  0.10000055616E+02 0.  0.
    3000022    2    3    3    0    0 -0.18765154568E+00 -0.79439925371E+00  0.17876192966E+01  0.19810006792E+01  0.24999532937E+00 0.  0.
    1000022    2    1    0    0    0 -0.40240067400E+02  0.36091983074E+02 -0.29738102387E+02  0.62499999100E+02  0.10000044371E+02 0.  0.
    3000022    2    5    5    0    0 -0.24330486676E+02  0.17451278314E+02 -0.20511311819E+02  0.36294574148E+02  0.25000674960E+00 0.  0.
        -13    1    4    4    0    0 -0.13279846032E+00 -0.30548837912E+00  0.78815362452E+00  0.86207291843E+00  0.10500000000E+00 0.  1.
         13    1    4    4    0    0 -0.54853085358E-01 -0.48891087459E+00  0.99946567205E+00  0.11189277608E+01  0.10500000000E+00 0. -1.
    3000001    1    5    5    0    0 -0.15909580725E+02  0.18640704759E+02 -0.92267905681E+01  0.26205424953E+02  0.10000000000E+01 0. -1.
        -13    1    6    6    0    0 -0.15791349396E+02  0.11383149312E+02 -0.13374677311E+02  0.23618548266E+02  0.10500000000E+00 0.  1.
         13    1    6    6    0    0 -0.85391372792E+01  0.60681290024E+01 -0.71366345078E+01  0.12676025882E+02  0.10500000000E+00 0. -1.
</event>
<event>
11    0  0.3422856E-009  0.9118800E+02  0.7816531E-02  0.1126479E+00
         25   -1    0    0    0    0  0.00000000000E+00  0.00000000000E+00  0.99999998245E-14  0.12500000000E+03  0.12500000000E+03 0.  0.
    3000001    1    3    3    0    0  0.34417809855E+02 -0.96652214386E+01  0.44851144729E+02  0.57363989786E+02  0.10000000000E+01 0.  1.
    1000022    2    1    0    0    0  0.36900383602E+02 -0.76273594336E+01  0.48851151385E+02  0.62499999888E+02  0.10000003623E+02 0.  0.
    3000022    2    3    3    0    0  0.24825737470E+01  0.20378620050E+01  0.40000066561E+01  0.51360101021E+01  0.24998511795E+00 0.  0.
    1000022    2    1    0    0    0 -0.36900383602E+02  0.76273594336E+01 -0.48851151385E+02  0.62500000112E+02  0.10000005018E+02 0.  0.
    3000022    2    5    5    0    0 -0.14919060175E+02  0.79177658732E+01 -0.23297742884E+02  0.28777016828E+02  0.25000219627E+00 0.  0.
        -13    1    4    4    0    0  0.15587029475E+01  0.13526715947E+01  0.25469557134E+01  0.32798298321E+01  0.10500000000E+00 0. -1.
         13    1    4    4    0    0  0.92387079952E+00  0.68519041030E+00  0.14530509427E+01  0.18561802700E+01  0.10500000000E+00 0.  1.
    3000001    1    5    5    0    0 -0.21981323427E+02 -0.29040643956E+00 -0.25553408501E+02  0.33722983284E+02  0.10000000000E+01 0. -1.
        -13    1    6    6    0    0 -0.87137818563E+01  0.46973407513E+01 -0.13652375741E+02  0.16863967289E+02  0.10500000000E+00 0.  1.
         13    1    6    6    0    0 -0.62052783186E+01  0.32204251219E+01 -0.96453671431E+01  0.11913049538E+02  0.10500000000E+00 0. -1.
</event>
<event>
11    0  0.3422856E-009  0.9118800E+02  0.7816531E-02  0.1126479E+00
         25   -1    0    0    0    0  0.00000000000E+00  0.00000000000E+00  0.99999998245E-14  0.12500000000E+03  0.12500000000E+03 0.  0.
    3000001    1    3    3    0    0  0.88474135387E+00  0.42393019183E+01 -0.33024163035E+01  0.55371835313E+01  0.10000000000E+01 0. -1.
    1000022    2    1    0    0    0 -0.64180725411E+01  0.59552486565E+02 -0.14783758044E+02  0.62500006448E+02  0.10000049646E+02 0.  0.
    3000022    2    3    3    0    0 -0.73028138949E+01  0.55313184646E+02 -0.11481341740E+02  0.56962822917E+02  0.24999994539E+00 0.  0.
    1000022    2    1    0    0    0  0.64180725411E+01 -0.59552486565E+02  0.14783758044E+02  0.62499993552E+02  0.99999690444E+01 0.  0.
    3000022    2    5    5    0    0  0.89465777532E+01 -0.49658659438E+02  0.11930483288E+02  0.51850001502E+02  0.25002726783E+00 0.  0.
        -13    1    4    4    0    0 -0.23789756640E+01  0.17644568136E+02 -0.36511725349E+01  0.18175048715E+02  0.10500000000E+00 0.  1.
         13    1    4    4    0    0 -0.49238382310E+01  0.37668616511E+02 -0.78301692054E+01  0.38787774202E+02  0.10500000000E+00 0. -1.
    3000001    1    5    5    0    0 -0.25285052121E+01 -0.98938271273E+01  0.28532747556E+01  0.10649992050E+02  0.10000000000E+01 0. -1.
        -13    1    6    6    0    0  0.65605823358E+01 -0.36227839551E+02  0.86903633468E+01  0.37828970899E+02  0.10500000000E+00 0.  1.
         13    1    6    6    0    0  0.23859954174E+01 -0.13430819886E+02  0.32401199414E+01  0.14021030603E+02  0.10500000000E+00 0. -1.
</event>
<event>
11    0  0.3422856E-009  0.9118800E+02  0.7816531E-02  0.1126479E+00
         25   -1    0    0    0    0  0.00000000000E+00  0.00000000000E+00  0.99999998245E-14  0.12500000000E+03  0.12500000000E+03 0.  0.
    3000001    1    3    3    0    0  0.27628764851E+00 -0.14709994634E+00  0.12051766903E+01  0.15970047320E+01  0.10000000000E+01 0.  1.
    1000022    2    1    0    0    0  0.51419855271E+02 -0.21392841283E+02  0.26544205864E+02  0.62500000811E+02  0.10000003113E+02 0.  0.
    3000022    2    3    3    0    0  0.51143567622E+02 -0.21245741336E+02  0.25339029174E+02  0.60902996079E+02  0.24999586611E+00 0.  0.
    1000022    2    1    0    0    0 -0.51419855271E+02  0.21392841283E+02 -0.26544205864E+02  0.62499999189E+02  0.99999929709E+01 0.  0.
    3000022    2    5    5    0    0 -0.48864023103E+02  0.17754157543E+02 -0.24993925352E+02  0.57685887942E+02  0.24999855530E+00 0.  0.
        -13    1    4    4    0    0  0.34172165803E+02 -0.14214724047E+02  0.16989009824E+02  0.40723860023E+02  0.10500000000E+00 0. -1.
         13    1    4    4    0    0  0.16971401819E+02 -0.70310172894E+01  0.83500193500E+01  0.20179136056E+02  0.10500000000E+00 0.  1.
    3000001    1    5    5    0    0 -0.25558321675E+01  0.36386837399E+01 -0.15502805116E+01  0.48141112463E+01  0.10000000000E+01 0.  1.
        -13    1    6    6    0    0 -0.22776680775E+02  0.83450420213E+01 -0.11643297199E+02  0.26907142326E+02  0.10500000000E+00 0.  1.
         13    1    6    6    0    0 -0.26087342328E+02  0.94091155214E+01 -0.13350628153E+02  0.30778745616E+02  0.10500000000E+00 0. -1.
</event>
<event>
11    0  0.3422856E-009  0.9118800E+02  0.7816531E-02  0.1126479E+00
         25   -1    0    0    0    0  0.00000000000E+00  0.00000000000E+00  0.99999998245E-14  0.12500000000E+03  0.12500000000E+03 0.  0.
    3000001    1    3    3    0    0  0.68797597835E+01  0.13724404809E+02 -0.79389754793E-01  0.15384949944E+02  0.10000000000E+01 0.  1.
    1000022    2    1    0    0    0  0.39313627557E+02  0.46623666077E+02 -0.93232151450E+01  0.62500000360E+02  0.10000007708E+02 0.  0.
    3000022    2    3    3    0    0  0.32433867774E+02  0.32899261268E+02 -0.92438253902E+01  0.47115050416E+02  0.24999421016E+00 0.  0.
    1000022    2    1    0    0    0 -0.39313627557E+02 -0.46623666077E+02  0.93232151450E+01  0.62499999640E+02  0.10000003209E+02 0.  0.
    3000022    2    5    5    0    0 -0.14377869604E+02 -0.24260296152E+02  0.25922672432E+01  0.28320795454E+02  0.25000392585E+00 0.  0.
        -13    1    4    4    0    0  0.18898944048E+02  0.19200007306E+02 -0.54527948791E+01  0.27487349157E+02  0.10500000000E+00 0.  1.
         13    1    4    4    0    0  0.13534923726E+02  0.13699253962E+02 -0.37910305112E+01  0.19627701259E+02  0.10500000000E+00 0. -1.
    3000001    1    5    5    0    0 -0.24935757954E+02 -0.22363369925E+02  0.67309479018E+01  0.34179204186E+02  0.10000000000E+01 0.  1.
        -13    1    6    6    0    0 -0.53167289828E+01 -0.88580842925E+01  0.96251075590E+00  0.10376450085E+02  0.10500000000E+00 0. -1.
         13    1    6    6    0    0 -0.90611406207E+01 -0.15402211860E+02  0.16297564873E+01  0.17944345369E+02  0.10500000000E+00 0.  1.
</event>
<event>
11    0  0.3422856E-009  0.9118800E+02  0.7816531E-02  0.1126479E+00
         25   -1    0    0    0    0  0.00000000000E+00  0.00000000000E+00  0.99999998245E-14  0.12500000000E+03  0.12500000000E+03 0.  0.
    3000001    1    3    3    0    0  0.47897801294E+01  0.13421605796E+02  0.16905113144E+02  0.22132879303E+02  0.10000000000E+01 0.  1.
    1000022    2    1    0    0    0  0.45344930690E+01  0.30088269937E+02  0.53669213574E+02  0.62500000140E+02  0.99999958290E+01 0.  0.
    3000022    2    3    3    0    0 -0.25528706037E+00  0.16666664141E+02  0.36764100431E+02  0.40367120837E+02  0.24999822069E+00 0.  0.
    1000022    2    1    0    0    0 -0.45344930690E+01 -0.30088269937E+02 -0.53669213574E+02  0.62499999860E+02  0.99999940827E+01 0.  0.
    3000022    2    5    5    0    0 -0.43528607447E+01 -0.54461823446E+01 -0.81451824982E+01  0.10724495260E+02  0.25000371022E+00 0.  0.
        -13    1    4    4    0    0 -0.10690852354E+00  0.79498966195E+01  0.17376308146E+02  0.19109144289E+02  0.10500000000E+00 0. -1.
         13    1    4    4    0    0 -0.14837853682E+00  0.87167675212E+01  0.19387792285E+02  0.21257976548E+02  0.10500000000E+00 0.  1.
    3000001    1    5    5    0    0 -0.18163232425E+00 -0.24642087592E+02 -0.45524031076E+02  0.51775504600E+02  0.10000000000E+01 0. -1.
        -13    1    6    6    0    0 -0.17106396176E+01 -0.20720106976E+01 -0.32079502271E+01  0.41858674002E+01  0.10500000000E+00 0. -1.
         13    1    6    6    0    0 -0.26422211271E+01 -0.33741716471E+01 -0.49372322711E+01  0.65386278597E+01  0.10500000000E+00 0.  1.
</event>
<event>
11    0  0.3422856E-009  0.9118800E+02  0.7816531E-02  0.1126479E+00
         25   -1    0    0    0    0  0.00000000000E+00  0.00000000000E+00  0.99999998245E-14  0.12500000000E+03  0.12500000000E+03 0.  0.
    3000001    1    3    3    0    0 -0.33354692836E+01  0.38492442932E-01  0.24499474193E+01  0.42578256620E+01  0.10000000000E+01 0. -1.
    1000022    2    1    0    0    0 -0.25295287816E+02 -0.16362452161E+02  0.53839283220E+02  0.62500000557E+02  0.10000011277E+02 0.  0.
    3000022    2    3    3    0    0 -0.21959818533E+02 -0.16400944603E+02  0.51389335801E+02  0.58242174895E+02  0.24997712949E+00 0.  0.
    1000022    2    1    0    0    0  0.25295287816E+02  0.16362452161E+02 -0.53839283220E+02  0.62499999443E+02  0.10000004318E+02 0.  0.
    3000022    2    5    5    0    0  0.21671408181E+02  0.16825507299E+02 -0.42901444880E+02  0.50924886864E+02  0.25000180402E+00 0.  0.
        -13    1    4    4    0    0 -0.10269302381E+02 -0.76235703211E+01  0.24099498203E+02  0.27283222582E+02  0.10500000000E+00 0.  1.
         13    1    4    4    0    0 -0.11690516152E+02 -0.87773742824E+01  0.27289837598E+02  0.30958952313E+02  0.10500000000E+00 0. -1.
    3000001    1    5    5    0    0  0.36238796356E+01 -0.46305513850E+00 -0.10937838340E+02  0.11575112579E+02  0.10000000000E+01 0. -1.
        -13    1    6    6    0    0  0.85659498415E+01  0.66081637671E+01 -0.16819287964E+02  0.19998569890E+02  0.10500000000E+00 0. -1.
         13    1    6    6    0    0  0.13105458339E+02  0.10217343532E+02 -0.26082156916E+02  0.30926316973E+02  0.10500000000E+00 0.  1.
</event>
<event>
11    0  0.3422856E-009  0.9118800E+02  0.7816531E-02  0.1126479E+00
         25   -1    0    0    0    0  0.00000000000E+00  0.00000000000E+00  0.99999998245E-14  0.12500000000E+03  0.12500000000E+03 0.  0.
    3000001    1    3    3    0    0  0.36738820172E+01 -0.44600257532E+01 -0.65089254957E+01  0.87610130638E+01  0.10000000000E+01 0. -1.
    1000022    2    1    0    0    0  0.31877943827E+01 -0.37615828517E+02 -0.48796896832E+02  0.62499998283E+02  0.10000002847E+02 0.  0.
    3000022    2    3    3    0    0 -0.48608763443E+00 -0.33155802764E+02 -0.42287971336E+02  0.53738985220E+02  0.24994916311E+00 0.  0.
    1000022    2    1    0    0    0 -0.31877943827E+01  0.37615828517E+02  0.48796896832E+02  0.62500001717E+02  0.10000024303E+02 0.  0.
    3000022    2    5    5    0    0  0.73153411707E-01  0.11366531283E+01  0.62238145307E+01  0.63321162818E+01  0.24999507565E+00 0.  0.
        -13    1    4    4    0    0 -0.96709643523E-01 -0.83066067401E+01 -0.10608867871E+02  0.13474723403E+02  0.10500000000E+00 0. -1.
         13    1    4    4    0    0 -0.38937799091E+00 -0.24849196024E+02 -0.31679103465E+02  0.40264261816E+02  0.10500000000E+00 0.  1.
    3000001    1    5    5    0    0 -0.32609477944E+01  0.36479175389E+02  0.42573082301E+02  0.56167885435E+02  0.10000000000E+01 0.  1.
        -13    1    6    6    0    0  0.54423204089E-01  0.88395208837E+00  0.47636028878E+01  0.48463667476E+01  0.10500000000E+00 0. -1.
         13    1    6    6    0    0  0.18730207618E-01  0.25270103989E+00  0.14602116430E+01  0.14857495342E+01  0.10500000000E+00 0.  1.
</event>
<event>
11    0  0.3422856E-009  0.9118800E+02  0.7816531E-02  0.1126479E+00
         25   -1    0    0    0    0  0.00000000000E+00  0.00000000000E+00  0.99999998245E-14  0.12500000000E+03  0.12500000000E+03 0.  0.
    3000001    1    3    3    0    0  0.35657689229E+02  0.51167836774E+01 -0.39584246703E+02  0.53530971067E+02  0.10000000000E+01 0.  1.
    1000022    2    1    0    0    0  0.43849501221E+02  0.44639330175E+01 -0.43168793147E+02  0.62499999755E+02  0.99999906172E+01 0.  0.
    3000022    2    3    3    0    0  0.81918119923E+01 -0.65285065990E+00 -0.35845464436E+01  0.89690286881E+01  0.25000940139E+00 0.  0.
    1000022    2    1    0    0    0 -0.43849501221E+02 -0.44639330175E+01  0.43168793147E+02  0.62500000245E+02  0.99999936763E+01 0.  0.
    3000022    2    5    5    0    0 -0.58674783628E+00 -0.46859473531E+00  0.37331336491E+01  0.38161029778E+01  0.25000209196E+00 0.  0.
        -13    1    4    4    0    0  0.42811397664E+01 -0.35302714595E+00 -0.18010559792E+01  0.46591430012E+01  0.10500000000E+00 0.  1.
         13    1    4    4    0    0  0.39106722259E+01 -0.29982351395E+00 -0.17834904644E+01  0.43098856869E+01  0.10500000000E+00 0. -1.
    3000001    1    5    5    0    0 -0.43262753385E+02 -0.39953382822E+01  0.39435659498E+02  0.58683897267E+02  0.10000000000E+01 0.  1.
        -13    1    6    6    0    0 -0.40522781363E+00 -0.35919333875E+00  0.24466247194E+01  0.25080324865E+01  0.10500000000E+00 0.  1.
         13    1    6    6    0    0 -0.18152002265E+00 -0.10940139657E+00  0.12865089297E+01  0.13080704914E+01  0.10500000000E+00 0. -1.
</event>
<event>
11    0  0.3422856E-009  0.9118800E+02  0.7816531E-02  0.1126479E+00
         25   -1    0    0    0    0  0.00000000000E+00  0.00000000000E+00  0.99999998245E-14  0.12500000000E+03  0.12500000000E+03 0.  0.
    3000001    1    3    3    0    0  0.27733344285E+00  0.10829614814E+02  0.30445091953E+02  0.32330497907E+02  0.10000000000E+01 0. -1.
    1000022    2    1    0    0    0 -0.58990277834E+01  0.13930671481E+02  0.59811269081E+02  0.62499999979E+02  0.99999975788E+01 0.  0.
    3000022    2    3    3    0    0 -0.61763612263E+01  0.31010566674E+01  0.29366177127E+02  0.30169502072E+02  0.25001147052E+00 0.  0.
    1000022    2    1    0    0    0  0.58990277834E+01 -0.13930671481E+02 -0.59811269081E+02  0.62500000021E+02  0.99999978455E+01 0.  0.
    3000022    2    5    5    0    0  0.85309205343E+01 -0.94290626873E+01 -0.38956016387E+02  0.40979477116E+02  0.25000731601E+00 0.  0.
        -13    1    4    4    0    0 -0.20793481552E+01  0.10077471929E+01  0.96367071376E+01  0.99104183873E+01  0.10500000000E+00 0.  1.
         13    1    4    4    0    0 -0.40970130710E+01  0.20933094745E+01  0.19729469990E+02  0.20259083685E+02  0.10500000000E+00 0. -1.
    3000001    1    5    5    0    0 -0.26318927509E+01 -0.45016087937E+01 -0.20855252694E+02  0.21520522905E+02  0.10000000000E+01 0.  1.
        -13    1    6    6    0    0  0.47432977173E+01 -0.52105100698E+01 -0.21788702543E+02  0.22899931701E+02  0.10500000000E+00 0. -1.
         13    1    6    6    0    0  0.37876228170E+01 -0.42185526176E+01 -0.17167313844E+02  0.18079545415E+02  0.10500000000E+00 0.  1.
</event>
<event>
11    0  0.3422856E-009  0.9118800E+02  0.7816531E-02  0.1126479E+00
         25   -1    0    0    0    0  0.00000000000E+00  0.00000000000E+00  0.99999998245E-14  0.12500000000E+03  0.12500000000E+03 0.  0.
    3000001    1    3    3    0    0 -0.44882771991E+00 -0.78053535267E+00  0.52976004175E+01  0.54658258244E+01  0.10000000000E+01 0.  1.
    1000022    2    1    0    0    0  0.27747741223E+01 -0.36237162488E+02  0.49853973809E+02  0.62499999218E+02  0.99999940517E+01 0.  0.
    3000022    2    3    3    0    0  0.32236018422E+01 -0.35456627136E+02  0.44556373391E+02  0.57034173393E+02  0.25001637267E+00 0.  0.
    1000022    2    1    0    0    0 -0.27747741223E+01  0.36237162488E+02 -0.49853973809E+02  0.62500000782E+02  0.10000003832E+02 0.  0.
    3000022    2    5    5    0    0 -0.70956691541E+00  0.34643361833E+02 -0.47770723048E+02  0.59015002207E+02  0.25000140856E+00 0.  0.
        -13    1    4    4    0    0  0.14262614567E+01 -0.15073411285E+02  0.19002989318E+02  0.24297460311E+02  0.10500000000E+00 0.  1.
         13    1    4    4    0    0  0.17973403855E+01 -0.20383215850E+02  0.25553384073E+02  0.32736713082E+02  0.10500000000E+00 0. -1.
    3000001    1    5    5    0    0 -0.20652072069E+01  0.15938006555E+01 -0.20832507605E+01  0.34849985750E+01  0.10000000000E+01 0.  1.
        -13    1    6    6    0    0 -0.49060590485E+00  0.22642876490E+02 -0.31139753274E+02  0.38505010179E+02  0.10500000000E+00 0.  1.
         13    1    6    6    0    0 -0.21896101056E+00  0.12000485342E+02 -0.16630969774E+02  0.20509992029E+02  0.10500000000E+00 0. -1.
</event>
<event>
11    0  0.3422856E-009  0.9118800E+02  0.7816531E-02  0.1126479E+00
         25   -1    0    0    0    0  0.00000000000E+00  0.00000000000E+00  0.99999998245E-14  0.12500000000E+03  0.12500000000E+03 0.  0.
    3000001    1    3    3    0    0 -0.37845777716E+01 -0.42792215875E+01  0.17846013341E+02  0.18764726442E+02  0.10000000000E+01 0.  1.
    1000022    2    1    0    0    0 -0.19318361433E+02 -0.86219219739E+00  0.58585887179E+02  0.62500002265E+02  0.10000082136E+02 0.  0.
    3000022    2    3    3    0    0 -0.15533783661E+02  0.34170293902E+01  0.40739873839E+02  0.43735275823E+02  0.25001242110E+00 0.  0.
    1000022    2    1    0    0    0  0.19318361433E+02  0.86219219739E+00 -0.58585887179E+02  0.62499997735E+02  0.10000053823E+02 0.  0.
    3000022    2    5    5    0    0  0.17296856877E+02  0.11674778017E+01 -0.57343061074E+02  0.59906872845E+02  0.24999695009E+00 0.  0.
        -13    1    4    4    0    0 -0.52995898937E+01  0.11099575143E+01  0.13852867135E+02  0.14873823032E+02  0.10500000000E+00 0.  1.
         13    1    4    4    0    0 -0.10234193767E+02  0.23070718759E+01  0.26887006704E+02  0.28861452791E+02  0.10500000000E+00 0. -1.
    3000001    1    5    5    0    0  0.20215045555E+01 -0.30528560429E+00 -0.12428261057E+01  0.25931248904E+01  0.10000000000E+01 0.  1.
        -13    1    6    6    0    0  0.11100765073E+02  0.71715708344E+00 -0.36626336463E+02  0.38278464535E+02  0.10500000000E+00 0.  1.
         13    1    6    6    0    0  0.61960918048E+01  0.45032071824E+00 -0.20716724611E+02  0.21628408309E+02  0.10500000000E+00 0. -1.
</event>
<event>
11    0  0.3422856E-009  0.9118800E+02  0.7816531E-02  0.1126479E+00
         25   -1    0    0    0    0  0.00000000000E+00  0.00000000000E+00  0.99999998245E-14  0.12500000000E+03  0.12500000000E+03 0.  0.
    3000001    1    3    3    0    0 -0.65379703944E+01 -0.10008399648E+02 -0.75476534699E+01  0.14173220992E+02  0.10000000000E+01 0. -1.
    1000022    2    1    0    0    0 -0.42868192577E+02 -0.33684270404E+02 -0.28877988097E+02  0.62500000180E+02  0.99999909293E+01 0.  0.
    3000022    2    3    3    0    0 -0.36330222182E+02 -0.23675870756E+02 -0.21330334627E+02  0.48326779188E+02  0.25002307451E+00 0.  0.
    1000022    2    1    0    0    0  0.42868192577E+02  0.33684270404E+02  0.28877988097E+02  0.62499999820E+02  0.99999886746E+01 0.  0.
    3000022    2    5    5    0    0  0.31687643769E+02  0.24560459374E+02  0.25902255244E+02  0.47731669333E+02  0.24999655476E+00 0.  0.
        -13    1    4    4    0    0 -0.91288772914E+01 -0.59762308433E+01 -0.53841955940E+01  0.12167675328E+02  0.10500000000E+00 0.  1.
         13    1    4    4    0    0 -0.27201344891E+02 -0.17699639913E+02 -0.15946139033E+02  0.36159103860E+02  0.10500000000E+00 0. -1.
    3000001    1    5    5    0    0  0.11180548808E+02  0.91238110299E+01  0.29757328523E+01  0.14768330487E+02  0.10000000000E+01 0.  1.
        -13    1    6    6    0    0  0.19397474996E+02  0.15013829246E+02  0.15918560205E+02  0.29241899543E+02  0.10500000000E+00 0. -1.
         13    1    6    6    0    0  0.12290168773E+02  0.95466301280E+01  0.99836950391E+01  0.18489769790E+02  0.10500000000E+00 0.  1.
</event>
<event>
11    0  0.3422856E-009  0.9118800E+02  0.7816531E-02  0.1126479E+00
         25   -1    0    0    0    0  0.00000000000E+00  0.00000000000E+00  0.99999998245E-14  0.12500000000E+03  0.12500000000E+03 0.  0.
    3000001    1    3    3    0    0  0.18103762977E+02  0.11737987090E+02 -0.10610862236E+02  0.24064849309E+02  0.10000000000E+01 0. -1.
    1000022    2    1    0    0    0  0.43211272111E+02  0.23561791734E+02 -0.37200506103E+02  0.62500002831E+02  0.10000031620E+02 0.  0.
    3000022    2    3    3    0    0  0.25107509134E+02  0.11823804644E+02 -0.26589643867E+02  0.38435153522E+02  0.24998829745E+00 0.  0.
    1000022    2    1    0    0    0 -0.43211272111E+02 -0.23561791734E+02  0.37200506103E+02  0.62499997169E+02  0.99999962300E+01 0.  0.
    3000022    2    5    5    0    0 -0.11714076994E+02 -0.47691899992E+01  0.14972317556E+02  0.19600958179E+02  0.24999089667E+00 0.  0.
        -13    1    4    4    0    0  0.92010465219E+01  0.43304878217E+01 -0.96617752610E+01  0.14027590957E+02  0.10500000000E+00 0. -1.
         13    1    4    4    0    0  0.15906462612E+02  0.74933168222E+01 -0.16927868606E+02  0.24407562565E+02  0.10500000000E+00 0.  1.
    3000001    1    5    5    0    0 -0.31497195117E+02 -0.18792601735E+02  0.22228188547E+02  0.42899038990E+02  0.10000000000E+01 0.  1.
        -13    1    6    6    0    0 -0.27732075232E+01 -0.11183106035E+01  0.35608797552E+01  0.46510416257E+01  0.10500000000E+00 0.  1.
         13    1    6    6    0    0 -0.89408694711E+01 -0.36508793956E+01  0.11411437801E+02  0.14949916553E+02  0.10500000000E+00 0. -1.
</event>
<event>
11    0  0.3422856E-009  0.9118800E+02  0.7816531E-02  0.1126479E+00
         25   -1    0    0    0    0  0.00000000000E+00  0.00000000000E+00  0.99999998245E-14  0.12500000000E+03  0.12500000000E+03 0.  0.
    3000001    1    3    3    0    0 -0.49482047054E+02  0.27803322011E+02 -0.11694832260E+01  0.56779092864E+02  0.10000000000E+01 0. -1.
    1000022    2    1    0    0    0 -0.54020999886E+02  0.29750085726E+02  0.17070258876E+01  0.62500000208E+02  0.10000002958E+02 0.  0.
    3000022    2    3    3    0    0 -0.45389528326E+01  0.19467637143E+01  0.28765091136E+01  0.57209073431E+01  0.24998874264E+00 0.  0.
    1000022    2    1    0    0    0  0.54020999886E+02 -0.29750085726E+02 -0.17070258876E+01  0.62499999792E+02  0.10000000364E+02 0.  0.
    3000022    2    5    5    0    0  0.81370154156E+00 -0.12693738724E+01 -0.14992983007E+01  0.21409847611E+01  0.25000025194E+00 0.  0.
        -13    1    4    4    0    0 -0.25887281645E+01  0.10715169387E+01  0.16950220787E+01  0.32762458557E+01  0.10500000000E+00 0. -1.
         13    1    4    4    0    0 -0.19502246681E+01  0.87524677559E+00  0.11814870349E+01  0.24446614874E+01  0.10500000000E+00 0.  1.
    3000001    1    5    5    0    0  0.53207298345E+02 -0.28480711853E+02 -0.20772758690E+00  0.60359015031E+02  0.10000000000E+01 0. -1.
        -13    1    6    6    0    0  0.32086886847E+00 -0.51169793072E+00 -0.51636144990E+00  0.80152713616E+00  0.10500000000E+00 0.  1.
         13    1    6    6    0    0  0.49283267310E+00 -0.75767594171E+00 -0.98293685080E+00  0.13394576249E+01  0.10500000000E+00 0. -1.
</event>
<event>
11    0  0.3422856E-009  0.9118800E+02  0.7816531E-02  0.1126479E+00
         25   -1    0    0    0    0  0.00000000000E+00  0.00000000000E+00  0.99999998245E-14  0.12500000000E+03  0.12500000000E+03 0.  0.
    3000001    1    3    3    0    0  0.41486883243E+02  0.20894816030E+02 -0.68944935822E+01  0.46971149229E+02  0.10000000000E+01 0.  1.
    1000022    2    1    0    0    0  0.52033887891E+02  0.30442288177E+02 -0.13114562204E+02  0.62500002565E+02  0.10000009017E+02 0.  0.
    3000022    2    3    3    0    0  0.10547004648E+02  0.95474721469E+01 -0.62200686218E+01  0.15528853336E+02  0.25000166837E+00 0.  0.
    1000022    2    1    0    0    0 -0.52033887891E+02 -0.30442288177E+02  0.13114562204E+02  0.62499997435E+02  0.99999769493E+01 0.  0.
    3000022    2    5    5    0    0 -0.12511081744E+02 -0.89645041429E+01  0.76105242583E+01  0.17171840110E+02  0.25002465850E+00 0.  0.
        -13    1    4    4    0    0  0.26252543867E+01  0.24123206440E+01 -0.15563271813E+01  0.38915846104E+01  0.10500000000E+00 0. -1.
         13    1    4    4    0    0  0.79217502615E+01  0.71351515029E+01 -0.46637414405E+01  0.11637268726E+02  0.10500000000E+00 0.  1.
    3000001    1    5    5    0    0 -0.39522806147E+02 -0.21477784034E+02  0.55040379456E+01  0.45328157325E+02  0.10000000000E+01 0.  1.
        -13    1    6    6    0    0 -0.63169390716E+01 -0.46027535837E+01  0.38948012909E+01  0.87332446366E+01  0.10500000000E+00 0. -1.
         13    1    6    6    0    0 -0.61941426725E+01 -0.43617505592E+01  0.37157229675E+01  0.84385954731E+01  0.10500000000E+00 0.  1.
</event>
<event>
11    0  0.3422856E-009  0.9118800E+02  0.7816531E-02  0.1126479E+00
         25   -1    0    0    0    0  0.00000000000E+00  0.00000000000E+00  0.99999998245E-14  0.12500000000E+03  0.12500000000E+03 0.  0.
    3000001    1    3    3    0    0  0.26655186376E+02 -0.29166039859E+02  0.15246023891E+02  0.42362696872E+02  0.10000000000E+01 0.  1.
    1000022    2    1    0    0    0  0.42329102747E+02 -0.41745223939E+02  0.16487366885E+02  0.62499999519E+02  0.10000000601E+02 0.  0.
    3000022    2    3    3    0    0  0.15673916370E+02 -0.12579184080E+02  0.12413429941E+01  0.20137302646E+02  0.24999790430E+00 0.  0.
    1000022    2    1    0    0    0 -0.42329102747E+02  0.41745223939E+02 -0.16487366885E+02  0.62500000481E+02  0.10000006616E+02 0.  0.
    3000022    2    5    5    0    0 -0.23553385061E+02  0.22118249477E+02 -0.38974399334E+01  0.32545836133E+02  0.25000766161E+00 0.  0.
        -13    1    4    4    0    0  0.76911657327E+01 -0.61921109211E+01  0.54370168858E+00  0.98895351009E+01  0.10500000000E+00 0. -1.
         13    1    4    4    0    0  0.79827506376E+01 -0.63870731587E+01  0.69764130551E+00  0.10247767546E+02  0.10500000000E+00 0.  1.
    3000001    1    5    5    0    0 -0.18775717685E+02  0.19626974462E+02 -0.12589926951E+02  0.29954164348E+02  0.10000000000E+01 0.  1.
        -13    1    6    6    0    0 -0.16641173676E+02  0.15621869410E+02 -0.27973371620E+01  0.22995816693E+02  0.10500000000E+00 0. -1.
         13    1    6    6    0    0 -0.69122113854E+01  0.64963800666E+01 -0.11001027715E+01  0.95500194405E+01  0.10500000000E+00 0.  1.
</event>
<event>
11    0  0.3422856E-009  0.9118800E+02  0.7816531E-02  0.1126479E+00
         25   -1    0    0    0    0  0.00000000000E+00  0.00000000000E+00  0.99999998245E-14  0.12500000000E+03  0.12500000000E+03 0.  0.
    3000001    1    3    3    0    0  0.22850101913E+02  0.72195011053E+01 -0.87983117386E+01  0.25547184641E+02  0.10000000000E+01 0.  1.
    1000022    2    1    0    0    0  0.58430721562E+02  0.64019541302E+01 -0.18738086639E+02  0.62499999209E+02  0.99999885659E+01 0.  0.
    3000022    2    3    3    0    0  0.35580619649E+02 -0.81754697508E+00 -0.99397749000E+01  0.36952814568E+02  0.25000351778E+00 0.  0.
    1000022    2    1    0    0    0 -0.58430721562E+02 -0.64019541302E+01  0.18738086639E+02  0.62500000791E+02  0.99999984496E+01 0.  0.
    3000022    2    5    5    0    0 -0.86497891357E+01  0.18158681062E+01  0.51733388120E+01  0.10244128210E+02  0.24999849774E+00 0.  0.
        -13    1    4    4    0    0  0.13167508555E+02 -0.24407759775E+00 -0.36898610619E+01  0.13677315346E+02  0.10500000000E+00 0.  1.
         13    1    4    4    0    0  0.22413111095E+02 -0.57346937733E+00 -0.62499138381E+01  0.23275499222E+02  0.10500000000E+00 0. -1.
    3000001    1    5    5    0    0 -0.49780932427E+02 -0.82178222364E+01  0.13564747827E+02  0.52255872581E+02  0.10000000000E+01 0. -1.
        -13    1    6    6    0    0 -0.22470173509E+01  0.49411339863E+00  0.13208913959E+01  0.26549979483E+01  0.10500000000E+00 0. -1.
         13    1    6    6    0    0 -0.64027717848E+01  0.13217547076E+01  0.38524474161E+01  0.75891302617E+01  0.10500000000E+00 0.  1.
</event>
<event>
11    0  0.3422856E-009  0.9118800E+02  0.7816531E-02  0.1126479E+00
         25   -1    0    0    0    0  0.00000000000E+00  0.00000000000E+00  0.99999998245E-14  0.12500000000E+03  0.12500000000E+03 0.  0.
    3000001    1    3    3    0    0  0.22898836404E+02 -0.58058828508E+01 -0.33231560173E+01  0.23876941811E+02  0.10000000000E+01 0. -1.
    1000022    2    1    0    0    0  0.61475968605E+02 -0.39404902585E+01 -0.33805051713E+01  0.62499999771E+02  0.99999988414E+01 0.  0.
    3000022    2    3    3    0    0  0.38577132201E+02  0.18653925923E+01 -0.57349154006E-01  0.38623057960E+02  0.24999783000E+00 0.  0.
    1000022    2    1    0    0    0 -0.61475968605E+02  0.39404902585E+01  0.33805051713E+01  0.62500000229E+02  0.10000001700E+02 0.  0.
    3000022    2    5    5    0    0 -0.59774828591E+02  0.24182235288E+01  0.25704791375E+01  0.59879443891E+02  0.24999917706E+00 0.  0.
        -13    1    4    4    0    0  0.14289080066E+02  0.72471940246E+00  0.27875595318E-01  0.14307859008E+02  0.10500000000E+00 0.  1.
         13    1    4    4    0    0  0.24288052135E+02  0.11406731898E+01 -0.85224749324E-01  0.24315198952E+02  0.10500000000E+00 0. -1.
    3000001    1    5    5    0    0 -0.17011400138E+01  0.15222667297E+01  0.81002603376E+00  0.26205563376E+01  0.10000000000E+01 0.  1.
        -13    1    6    6    0    0 -0.27273895744E+02  0.10873843204E+01  0.12378846199E+01  0.27323820689E+02  0.10500000000E+00 0.  1.
         13    1    6    6    0    0 -0.32500932847E+02  0.13308392084E+01  0.13325945176E+01  0.32555623202E+02  0.10500000000E+00 0. -1.
</event>
<event>
11    0  0.3422856E-009  0.9118800E+02  0.7816531E-02  0.1126479E+00
         25   -1    0    0    0    0  0.00000000000E+00  0.00000000000E+00  0.99999998245E-14  0.12500000000E+03  0.12500000000E+03 0.  0.
    3000001    1    3    3    0    0 -0.61242827288E+01  0.31075918003E+02  0.98867757588E+01  0.33195901156E+02  0.10000000000E+01 0.  1.
    1000022    2    1    0    0    0 -0.13460393509E+02  0.54042956801E+02  0.26541034442E+02  0.62500000285E+02  0.10000007662E+02 0.  0.
    3000022    2    3    3    0    0 -0.73361107805E+01  0.22967038798E+02  0.16654258683E+02  0.29304099129E+02  0.25000194306E+00 0.  0.
    1000022    2    1    0    0    0  0.13460393509E+02 -0.54042956801E+02 -0.26541034442E+02  0.62499999715E+02  0.10000004094E+02 0.  0.
    3000022    2    5    5    0    0  0.10281398727E+02 -0.25185829587E+02 -0.94669814195E+01  0.28804850427E+02  0.24999838243E+00 0.  0.
        -13    1    4    4    0    0 -0.41863234790E+01  0.13214697164E+02  0.96433248366E+01  0.16886629750E+02  0.10500000000E+00 0. -1.
         13    1    4    4    0    0 -0.31497873014E+01  0.97523416338E+01  0.70109338464E+01  0.12417469379E+02  0.10500000000E+00 0.  1.
    3000001    1    5    5    0    0  0.31789947824E+01 -0.28857127214E+02 -0.17074053022E+02  0.33695149287E+02  0.10000000000E+01 0.  1.
        -13    1    6    6    0    0  0.73642941561E+01 -0.18053903783E+02 -0.68280995777E+01  0.20659386222E+02  0.10500000000E+00 0. -1.
         13    1    6    6    0    0  0.29171045708E+01 -0.71319258039E+01 -0.26388818418E+01  0.81454642056E+01  0.10500000000E+00 0.  1.
</event>
<event>
11    0  0.3422856E-009  0.9118800E+02  0.7816531E-02  0.1126479E+00
         25   -1    0    0    0    0  0.00000000000E+00  0.00000000000E+00  0.99999998245E-14  0.12500000000E+03  0.12500000000E+03 0.  0.
    3000001    1    3    3    0    0 -0.11129198062E+02 -0.47193031430E+02  0.36687485820E+02  0.60811289090E+02  0.10000000000E+01 0.  1.
    1000022    2    1    0    0    0 -0.10671318865E+02 -0.47180264743E+02  0.38293545705E+02  0.62499999697E+02  0.99999945943E+01 0.  0.
    3000022    2    3    3    0    0  0.45787919612E+00  0.12766687269E-01  0.16060598858E+01  0.16887106066E+01  0.24999761911E+00 0.  0.
    1000022    2    1    0    0    0  0.10671318865E+02  0.47180264743E+02 -0.38293545705E+02  0.62500000303E+02  0.99999983808E+01 0.  0.
    3000022    2    5    5    0    0 -0.31229339112E+00  0.20528506909E+02 -0.15075808062E+02  0.25472722856E+02  0.24999580981E+00 0.  0.
        -13    1    4    4    0    0  0.31699318470E+00 -0.36766673653E-01  0.94651683890E+00  0.10043682560E+01  0.10500000000E+00 0. -1.
         13    1    4    4    0    0  0.14088601141E+00  0.49533360922E-01  0.65954304691E+00  0.68434235057E+00  0.10500000000E+00 0.  1.
    3000001    1    5    5    0    0  0.10983612257E+02  0.26651757834E+02 -0.23217737643E+02  0.37027277447E+02  0.10000000000E+01 0. -1.
        -13    1    6    6    0    0 -0.22636759722E+00  0.10701641304E+02 -0.78883688510E+01  0.13297133413E+02  0.10500000000E+00 0.  1.
         13    1    6    6    0    0 -0.85925793902E-01  0.98268656054E+01 -0.71874392115E+01  0.12175589443E+02  0.10500000000E+00 0. -1.
</event>
<event>
11    0  0.3422856E-009  0.9118800E+02  0.7816531E-02  0.1126479E+00
         25   -1    0    0    0    0  0.00000000000E+00  0.00000000000E+00  0.99999998245E-14  0.12500000000E+03  0.12500000000E+03 0.  0.
    3000001    1    3    3    0    0 -0.64268086344E+00 -0.46059228411E+01 -0.42071135321E+01  0.63503833099E+01  0.10000000000E+01 0. -1.
    1000022    2    1    0    0    0  0.20982992964E+02 -0.46709549875E+02 -0.34411944978E+02  0.62500000578E+02  0.10000003590E+02 0.  0.
    3000022    2    3    3    0    0  0.21625673827E+02 -0.42103627034E+02 -0.30204831446E+02  0.56149617268E+02  0.24999752858E+00 0.  0.
    1000022    2    1    0    0    0 -0.20982992964E+02  0.46709549875E+02  0.34411944978E+02  0.62499999422E+02  0.99999963659E+01 0.  0.
    3000022    2    5    5    0    0 -0.23406817632E+01  0.16349533019E+02  0.10215528239E+02  0.19421780176E+02  0.25001388299E+00 0.  0.
        -13    1    4    4    0    0  0.61133475041E+01 -0.11861643902E+02 -0.85582178109E+01  0.15853256159E+02  0.10500000000E+00 0. -1.
         13    1    4    4    0    0  0.15512326323E+02 -0.30241983132E+02 -0.21646613635E+02  0.40296361109E+02  0.10500000000E+00 0.  1.
    3000001    1    5    5    0    0 -0.18642311201E+02  0.30360016856E+02  0.24196416739E+02  0.43078219246E+02  0.10000000000E+01 0.  1.
        -13    1    6    6    0    0 -0.59115752129E+00  0.39890446113E+01  0.24820935297E+01  0.47364287618E+01  0.10500000000E+00 0.  1.
         13    1    6    6    0    0 -0.17495242419E+01  0.12360488408E+02  0.77334347090E+01  0.14685351414E+02  0.10500000000E+00 0. -1.
</event>
<event>
11    0  0.3422856E-009  0.9118800E+02  0.7816531E-02  0.1126479E+00
         25   -1    0    0    0    0  0.00000000000E+00  0.00000000000E+00  0.99999998245E-14  0.12500000000E+03  0.12500000000E+03 0.  0.
    3000001    1    3    3    0    0 -0.14478820713E+02 -0.58124758198E+02  0.14946996576E+01  0.59927939159E+02  0.10000000000E+01 0. -1.
    1000022    2    1    0    0    0 -0.15084751699E+02 -0.59725648724E+02  0.33981158612E+01  0.62499999800E+02  0.99999967102E+01 0.  0.
    3000022    2    3    3    0    0 -0.60593098626E+00 -0.16008905263E+01  0.19034162036E+01  0.25720606405E+01  0.24999971427E+00 0.  0.
    1000022    2    1    0    0    0  0.15084751699E+02  0.59725648724E+02 -0.33981158612E+01  0.62500000200E+02  0.99999992101E+01 0.  0.
    3000022    2    5    5    0    0  0.93960686690E+01  0.50923139669E+02 -0.41199206735E+01  0.51946977767E+02  0.24998509019E+00 0.  0.
        -13    1    4    4    0    0 -0.37318019246E+00 -0.82770385604E+00  0.10623346617E+01  0.14014053884E+01  0.10500000000E+00 0.  1.
         13    1    4    4    0    0 -0.23275079381E+00 -0.77318667029E+00  0.84108154192E+00  0.11706552521E+01  0.10500000000E+00 0. -1.
    3000001    1    5    5    0    0  0.56886830305E+01  0.88025090552E+01  0.72180481225E+00  0.10553022433E+02  0.10000000000E+01 0.  1.
        -13    1    6    6    0    0  0.36726289577E+01  0.20233247240E+02 -0.16167200720E+01  0.20627586047E+02  0.10500000000E+00 0.  1.
         13    1    6    6    0    0  0.57234397113E+01  0.30689892429E+02 -0.25032006014E+01  0.31319391720E+02  0.10500000000E+00 0. -1.
</event>
<event>
11    0  0.3422856E-009  0.9118800E+02  0.7816531E-02  0.1126479E+00
         25   -1    0    0    0    0  0.00000000000E+00  0.00000000000E+00  0.99999998245E-14  0.12500000000E+03  0.12500000000E+03 0.  0.
    3000001    1    3    3    0    0  0.18985986699E+02 -0.64383595765E+00 -0.81389232727E+00  0.19040604938E+02  0.10000000000E+01 0.  1.
    1000022    2    1    0    0    0  0.60366513941E+02  0.12588790978E+02 -0.19121203563E+01  0.62500000367E+02  0.10000008897E+02 0.  0.
    3000022    2    3    3    0    0  0.41380527242E+02  0.13232626935E+02 -0.10982280290E+01  0.43459395430E+02  0.24999166319E+00 0.  0.
    1000022    2    1    0    0    0 -0.60366513941E+02 -0.12588790978E+02  0.19121203563E+01  0.62499999633E+02  0.10000004309E+02 0.  0.
    3000022    2    5    5    0    0 -0.28862272377E+01  0.47172113713E+00  0.19897921230E+01  0.35460653358E+01  0.24995634440E+00 0.  0.
        -13    1    4    4    0    0  0.29132085194E+02  0.92971557705E+01 -0.81406849778E+00  0.30590672201E+02  0.10500000000E+00 0.  1.
         13    1    4    4    0    0  0.12248442049E+02  0.39354711650E+01 -0.28415953121E+00  0.12868723229E+02  0.10500000000E+00 0. -1.
    3000001    1    5    5    0    0 -0.57480286703E+02 -0.13060512115E+02 -0.77671766736E-01  0.58953934297E+02  0.10000000000E+01 0. -1.
        -13    1    6    6    0    0 -0.14385550892E+01  0.30330998810E+00  0.10089278144E+01  0.17861685330E+01  0.10500000000E+00 0.  1.
         13    1    6    6    0    0 -0.14476721485E+01  0.16841114903E+00  0.98086430858E+00  0.17598968028E+01  0.10500000000E+00 0. -1.
</event>
<event>
11    0  0.3422856E-009  0.9118800E+02  0.7816531E-02  0.1126479E+00
         25   -1    0    0    0    0  0.00000000000E+00  0.00000000000E+00  0.99999998245E-14  0.12500000000E+03  0.12500000000E+03 0.  0.
    3000001    1    3    3    0    0  0.27938115238E+01 -0.57017917473E+02 -0.23693071414E+02  0.61815935881E+02  0.10000000000E+01 0. -1.
    1000022    2    1    0    0    0  0.22849001539E+01 -0.56789340538E+02 -0.24000001015E+02  0.62499999880E+02  0.99999984403E+01 0.  0.
    3000022    2    3    3    0    0 -0.50891136989E+00  0.22857693458E+00 -0.30692960113E+00  0.68406399949E+00  0.24999915584E+00 0.  0.
    1000022    2    1    0    0    0 -0.22849001539E+01  0.56789340538E+02  0.24000001015E+02  0.62500000120E+02  0.99999999384E+01 0.  0.
    3000022    2    5    5    0    0 -0.33490249614E+01  0.43451500799E+02  0.14029837347E+02  0.45783705851E+02  0.24999119118E+00 0.  0.
        -13    1    4    4    0    0 -0.27064913514E+00  0.16792113576E+00 -0.11340200030E+00  0.35402468256E+00  0.10500000000E+00 0. -1.
         13    1    4    4    0    0 -0.23826223475E+00  0.60655798826E-01 -0.19352760082E+00  0.33003931693E+00  0.10500000000E+00 0.  1.
    3000001    1    5    5    0    0  0.10641248075E+01  0.13337839740E+02  0.99701636676E+01  0.16716294269E+02  0.10000000000E+01 0. -1.
        -13    1    6    6    0    0 -0.24670258423E+01  0.31633021932E+02  0.10190534968E+02  0.33325550573E+02  0.10500000000E+00 0. -1.
         13    1    6    6    0    0 -0.88199911911E+00  0.11818478867E+02  0.38393023798E+01  0.12458155278E+02  0.10500000000E+00 0.  1.
</event>
<event>
11    0  0.3422856E-009  0.9118800E+02  0.7816531E-02  0.1126479E+00
         25   -1    0    0    0    0  0.00000000000E+00  0.00000000000E+00  0.99999998245E-14  0.12500000000E+03  0.12500000000E+03 0.  0.
    3000001    1    3    3    0    0  0.29610414958E+02  0.21612221059E+02  0.45337289100E+01  0.36951582793E+02  0.10000000000E+01 0.  1.
    1000022    2    1    0    0    0  0.46702273943E+02  0.40296596073E+02  0.11541403045E+01  0.62500000204E+02  0.99999969556E+01 0.  0.
    3000022    2    3    3    0    0  0.17091858985E+02  0.18684375015E+02 -0.33795886055E+01  0.25548417411E+02  0.24999962754E+00 0.  0.
    1000022    2    1    0    0    0 -0.46702273943E+02 -0.40296596073E+02 -0.11541403045E+01  0.62499999796E+02  0.99999944081E+01 0.  0.
    3000022    2    5    5    0    0 -0.45414114310E+02 -0.39621550931E+02  0.20967074846E+00  0.60269524113E+02  0.24999658967E+00 0.  0.
        -13    1    4    4    0    0  0.11090006346E+02  0.12039836294E+02 -0.21752039697E+01  0.16513280596E+02  0.10500000000E+00 0. -1.
         13    1    4    4    0    0  0.60018526385E+01  0.66445387210E+01 -0.12043846358E+01  0.90351368147E+01  0.10500000000E+00 0.  1.
    3000001    1    5    5    0    0 -0.12881596325E+01 -0.67504514264E+00 -0.13638110530E+01  0.22304756828E+01  0.10000000000E+01 0. -1.
        -13    1    6    6    0    0 -0.12498742792E+02 -0.10920987091E+02  0.21784674291E-01  0.16598133329E+02  0.10500000000E+00 0. -1.
         13    1    6    6    0    0 -0.32915371518E+02 -0.28700563840E+02  0.18788607417E+00  0.43671390785E+02  0.10500000000E+00 0.  1.
</event>
<event>
11    0  0.3422856E-009  0.9118800E+02  0.7816531E-02  0.1126479E+00
         25   -1    0    0    0    0  0.00000000000E+00  0.00000000000E+00  0.99999998245E-14  0.12500000000E+03  0.12500000000E+03 0.  0.
    3000001    1    3    3    0    0 -0.88908473523E+01  0.16690584710E+02 -0.33004619406E+02  0.38051644993E+02  0.10000000000E+01 0.  1.
    1000022    2    1    0    0    0 -0.13425279927E+02  0.33894910111E+02 -0.49770944314E+02  0.62499999733E+02  0.99999998089E+01 0.  0.
    3000022    2    3    3    0    0 -0.45344325750E+01  0.17204325401E+02 -0.16766324908E+02  0.24448354740E+02  0.25001451781E+00 0.  0.
    1000022    2    1    0    0    0  0.13425279927E+02 -0.33894910111E+02  0.49770944314E+02  0.62500000267E+02  0.10000003142E+02 0.  0.
    3000022    2    5    5    0    0  0.32675944585E+01 -0.19110528847E+02  0.30608185888E+02  0.36232761852E+02  0.25000339398E+00 0.  0.
        -13    1    4    4    0    0 -0.34446983695E+01  0.13006623560E+02 -0.12699910740E+02  0.18502350150E+02  0.10500000000E+00 0. -1.
         13    1    4    4    0    0 -0.10897342055E+01  0.41977018410E+01 -0.40664141688E+01  0.59460045894E+01  0.10500000000E+00 0.  1.
    3000001    1    5    5    0    0  0.10157685469E+02 -0.14784381264E+02  0.19162758426E+02  0.26267238415E+02  0.10000000000E+01 0.  1.
        -13    1    6    6    0    0  0.94355001700E+00 -0.57308094420E+01  0.92231539668E+01  0.10900002642E+02  0.10500000000E+00 0.  1.
         13    1    6    6    0    0  0.23240444415E+01 -0.13379719405E+02  0.21385031921E+02  0.25332759210E+02  0.10500000000E+00 0. -1.
</event>
<event>
11    0  0.3422856E-009  0.9118800E+02  0.7816531E-02  0.1126479E+00
         25   -1    0    0    0    0  0.00000000000E+00  0.00000000000E+00  0.99999998245E-14  0.12500000000E+03  0.12500000000E+03 0.  0.
    3000001    1    3    3    0    0  0.22170049324E+00  0.17232999430E+02 -0.51320715509E+01  0.18010096582E+02  0.10000000000E+01 0.  1.
    1000022    2    1    0    0    0 -0.84832672393E+01  0.60860702684E+02 -0.55008150029E+01  0.62499999069E+02  0.99999981878E+01 0.  0.
    3000022    2    3    3    0    0 -0.87049677325E+01  0.43627703253E+02 -0.36874345199E+00  0.44489902488E+02  0.24999448307E+00 0.  0.
    1000022    2    1    0    0    0  0.84832672393E+01 -0.60860702684E+02  0.55008150029E+01  0.62500000931E+02  0.10000009821E+02 0.  0.
    3000022    2    5    5    0    0  0.68381304443E+01 -0.58684595052E+02  0.39687782940E+01  0.59215331088E+02  0.25002060362E+00 0.  0.
        -13    1    4    4    0    0 -0.47294001252E+01  0.23637654148E+02 -0.13402598590E+00  0.24106739869E+02  0.10500000000E+00 0. -1.
         13    1    4    4    0    0 -0.39755676073E+01  0.19990049105E+02 -0.23471746609E+00  0.20383162618E+02  0.10500000000E+00 0.  1.
    3000001    1    5    5    0    0  0.16451367950E+01 -0.21761076317E+01  0.15320367089E+01  0.32846698428E+01  0.10000000000E+01 0.  1.
        -13    1    6    6    0    0  0.22636299240E+01 -0.19307660523E+02  0.12549031757E+01  0.19480646351E+02  0.10500000000E+00 0.  1.
         13    1    6    6    0    0  0.45745005204E+01 -0.39376934529E+02  0.27138751183E+01  0.39734684736E+02  0.10500000000E+00 0. -1.
</event>
<event>
11    0  0.3422856E-009  0.9118800E+02  0.7816531E-02  0.1126479E+00
         25   -1    0    0    0    0  0.00000000000E+00  0.00000000000E+00  0.99999998245E-14  0.12500000000E+03  0.12500000000E+03 0.  0.
    3000001    1    3    3    0    0 -0.96463006607E+01 -0.11499243006E+02 -0.42306912596E+02  0.44901654308E+02  0.10000000000E+01 0. -1.
    1000022    2    1    0    0    0 -0.19076868541E+02 -0.16379008884E+02 -0.56338715608E+02  0.62499998854E+02  0.10000006752E+02 0.  0.
    3000022    2    3    3    0    0 -0.94305678802E+01 -0.48797658785E+01 -0.14031803012E+02  0.17598344547E+02  0.25001887699E+00 0.  0.
    1000022    2    1    0    0    0  0.19076868541E+02  0.16379008884E+02  0.56338715608E+02  0.62500001146E+02  0.10000021073E+02 0.  0.
    3000022    2    5    5    0    0  0.67034407668E+00  0.29391454566E+01  0.21680429041E+01  0.37216730559E+01  0.25000621066E+00 0.  0.
        -13    1    4    4    0    0 -0.63032916636E+01 -0.32382818180E+01 -0.92816838640E+01  0.11678126360E+02  0.10500000000E+00 0.  1.
         13    1    4    4    0    0 -0.31272762166E+01 -0.16414840605E+01 -0.47501191480E+01  0.59202181866E+01  0.10500000000E+00 0. -1.
    3000001    1    5    5    0    0  0.18406524464E+02  0.13439863428E+02  0.54170672704E+02  0.58778328090E+02  0.10000000000E+01 0. -1.
        -13    1    6    6    0    0  0.37952390004E+00  0.16000096588E+01  0.12622932180E+01  0.20756874686E+01  0.10500000000E+00 0.  1.
         13    1    6    6    0    0  0.29082017664E+00  0.13391357977E+01  0.90574968606E+00  0.16459855873E+01  0.10500000000E+00 0. -1.
</event>
<event>
11    0  0.3422856E-009  0.9118800E+02  0.7816531E-02  0.1126479E+00
         25   -1    0    0    0    0  0.00000000000E+00  0.00000000000E+00  0.99999998245E-14  0.12500000000E+03  0.12500000000E+03 0.  0.
    3000001    1    3    3    0    0 -0.31374028736E+02  0.29464563459E+00 -0.88646211220E+01  0.32618982247E+02  0.10000000000E+01 0.  1.
    1000022    2    1    0    0    0 -0.58312359119E+02 -0.86562836397E+01 -0.18193066890E+02  0.62499999530E+02  0.99999892925E+01 0.  0.
    3000022    2    3    3    0    0 -0.26938330383E+02 -0.89509292743E+01 -0.93284457682E+01  0.29881017283E+02  0.25002941512E+00 0.  0.
    1000022    2    1    0    0    0  0.58312359119E+02  0.86562836397E+01  0.18193066890E+02  0.62500000470E+02  0.99999951674E+01 0.  0.
    3000022    2    5    5    0    0  0.15382074833E+02  0.19499881953E+01  0.94721100033E+01  0.18171242349E+02  0.25000094237E+00 0.  0.
        -13    1    4    4    0    0 -0.11269898987E+02 -0.36789785775E+01 -0.39137926031E+01  0.12484963119E+02  0.10500000000E+00 0.  1.
         13    1    4    4    0    0 -0.15668431396E+02 -0.52719506968E+01 -0.54146531651E+01  0.17396054164E+02  0.10500000000E+00 0. -1.
    3000001    1    5    5    0    0  0.42930284286E+02  0.67062954443E+01  0.87209568869E+01  0.44328758121E+02  0.10000000000E+01 0. -1.
        -13    1    6    6    0    0  0.76859625719E+01  0.10425689190E+01  0.47329297618E+01  0.90869477679E+01  0.10500000000E+00 0.  1.
         13    1    6    6    0    0  0.76961122613E+01  0.90741927637E+00  0.47391802415E+01  0.90842945815E+01  0.10500000000E+00 0. -1.
</event>
<event>
11    0  0.3422856E-009  0.9118800E+02  0.7816531E-02  0.1126479E+00
         25   -1    0    0    0    0  0.00000000000E+00  0.00000000000E+00  0.99999998245E-14  0.12500000000E+03  0.12500000000E+03 0.  0.
    3000001    1    3    3    0    0 -0.87934763819E+00 -0.61548786899E+00  0.21956863992E+02  0.22005816367E+02  0.10000000000E+01 0. -1.
    1000022    2    1    0    0    0  0.33745750261E+01  0.10150220061E+02  0.60760474161E+02  0.62500000991E+02  0.10000008987E+02 0.  0.
    3000022    2    3    3    0    0  0.42539226643E+01  0.10765707930E+02  0.38803610168E+02  0.40494184624E+02  0.25000204268E+00 0.  0.
    1000022    2    1    0    0    0 -0.33745750261E+01 -0.10150220061E+02 -0.60760474161E+02  0.62499999009E+02  0.99999966001E+01 0.  0.
    3000022    2    5    5    0    0  0.29029376870E+01 -0.17666601108E+01 -0.24769646046E+02  0.25002919767E+02  0.24999293674E+00 0.  0.
        -13    1    4    4    0    0  0.23783889243E+01  0.61932026838E+01  0.22190187541E+02  0.23160914089E+02  0.10500000000E+00 0.  1.
         13    1    4    4    0    0  0.18755337400E+01  0.45725052463E+01  0.16613422628E+02  0.17333270535E+02  0.10500000000E+00 0. -1.
    3000001    1    5    5    0    0 -0.62775127131E+01 -0.83835599503E+01 -0.35990828115E+02  0.37497079242E+02  0.10000000000E+01 0. -1.
        -13    1    6    6    0    0  0.73295826664E+00 -0.44139234896E+00 -0.64708272871E+01  0.65279924789E+01  0.10500000000E+00 0. -1.
         13    1    6    6    0    0  0.21699794204E+01 -0.13252677618E+01 -0.18298818759E+02  0.18474927288E+02  0.10500000000E+00 0.  1.
</event>
<event>
11    0  0.3422856E-009  0.9118800E+02  0.7816531E-02  0.1126479E+00
         25   -1    0    0    0    0  0.00000000000E+00  0.00000000000E+00  0.99999998245E-14  0.12500000000E+03  0.12500000000E+03 0.  0.
    3000001    1    3    3    0    0  0.64757374457E+01  0.23807804118E+02  0.42822149770E+02  0.49431601464E+02  0.10000000000E+01 0. -1.
    1000022    2    1    0    0    0  0.75547038603E+01  0.34004995895E+02  0.50919904461E+02  0.62499999178E+02  0.99999965358E+01 0.  0.
    3000022    2    3    3    0    0  0.10789664146E+01  0.10197191777E+02  0.80977546914E+01  0.13068397714E+02  0.24999823987E+00 0.  0.
    1000022    2    1    0    0    0 -0.75547038603E+01 -0.34004995895E+02 -0.50919904461E+02  0.62500000822E+02  0.10000006807E+02 0.  0.
    3000022    2    5    5    0    0 -0.76194263346E+01 -0.12029021102E+02 -0.20226046634E+02  0.24736783726E+02  0.25000065337E+00 0.  0.
        -13    1    4    4    0    0  0.43145783376E+00  0.38859045849E+01  0.30147896335E+01  0.49382579761E+01  0.10500000000E+00 0. -1.
         13    1    4    4    0    0  0.64750858083E+00  0.63112871918E+01  0.50829650579E+01  0.81301397380E+01  0.10500000000E+00 0.  1.
    3000001    1    5    5    0    0  0.64722474357E-01 -0.21975974793E+02 -0.30693857827E+02  0.37763217096E+02  0.10000000000E+01 0. -1.
        -13    1    6    6    0    0 -0.35616290426E+01 -0.57106439778E+01 -0.96441324736E+01  0.11760823621E+02  0.10500000000E+00 0. -1.
         13    1    6    6    0    0 -0.40577972920E+01 -0.63183771239E+01 -0.10581914161E+02  0.12975960105E+02  0.10500000000E+00 0.  1.
</event>
<event>
11    0  0.3422856E-009  0.9118800E+02  0.7816531E-02  0.1126479E+00
         25   -1    0    0    0    0  0.00000000000E+00  0.00000000000E+00  0.99999998245E-14  0.12500000000E+03  0.12500000000E+03 0.  0.
    3000001    1    3    3    0    0 -0.33908380839E+02  0.63644579205E+01  0.25899503232E+02  0.43151696182E+02  0.10000000000E+01 0. -1.
    1000022    2    1    0    0    0 -0.46011704037E+02  0.43960545782E+01  0.40863772431E+02  0.62500000888E+02  0.10000000474E+02 0.  0.
    3000022    2    3    3    0    0 -0.12103323198E+02 -0.19684033423E+01  0.14964269199E+02  0.19348304706E+02  0.24999635742E+00 0.  0.
    1000022    2    1    0    0    0  0.46011704037E+02 -0.43960545782E+01 -0.40863772431E+02  0.62499999112E+02  0.99999893765E+01 0.  0.
    3000022    2    5    5    0    0  0.37025933276E+02 -0.32211035341E+01 -0.27128886742E+02  0.46014500303E+02  0.24999862425E+00 0.  0.
        -13    1    4    4    0    0 -0.87844704124E+01 -0.14658205946E+01  0.10855128580E+02  0.14041381411E+02  0.10500000000E+00 0. -1.
         13    1    4    4    0    0 -0.33188527855E+01 -0.50258274762E+00  0.41091406183E+01  0.53069232943E+01  0.10500000000E+00 0.  1.
    3000001    1    5    5    0    0  0.89857707611E+01 -0.11749510441E+01 -0.13734885688E+02  0.16485498810E+02  0.10000000000E+01 0.  1.
        -13    1    6    6    0    0  0.21330007890E+02 -0.19150655794E+01 -0.15598708704E+02  0.26494668351E+02  0.10500000000E+00 0. -1.
         13    1    6    6    0    0  0.15695925385E+02 -0.13060379548E+01 -0.11530178038E+02  0.19519831952E+02  0.10500000000E+00 0.  1.
</event>
<event>
11    0  0.3422856E-009  0.9118800E+02  0.7816531E-02  0.1126479E+00
         25   -1    0    0    0    0  0.00000000000E+00  0.00000000000E+00  0.99999998245E-14  0.12500000000E+03  0.12500000000E+03 0.  0.
    3000001    1    3    3    0    0  0.96349895697E+01  0.45317182800E+02 -0.21330341559E+02  0.51014346531E+02  0.10000000000E+01 0.  1.
    1000022    2    1    0    0    0  0.11635440110E+02  0.52697719388E+02 -0.29896768239E+02  0.62500002206E+02  0.10000021465E+02 0.  0.
    3000022    2    3    3    0    0  0.20004505408E+01  0.73805365888E+01 -0.85664266794E+01  0.11485655675E+02  0.24999506375E+00 0.  0.
    1000022    2    1    0    0    0 -0.11635440110E+02 -0.52697719388E+02  0.29896768239E+02  0.62499997794E+02  0.99999938926E+01 0.  0.
    3000022    2    5    5    0    0  0.71564203092E+00 -0.85493292511E+00  0.20847919267E+01  0.23773750576E+01  0.25000192840E+00 0.  0.
        -13    1    4    4    0    0  0.12757278673E+01  0.44732292883E+01 -0.51919747973E+01  0.69717206737E+01  0.10500000000E+00 0.  1.
         13    1    4    4    0    0  0.72472267353E+00  0.29073073005E+01 -0.33744518821E+01  0.45139350015E+01  0.10500000000E+00 0. -1.
    3000001    1    5    5    0    0 -0.12351082141E+02 -0.51842786463E+02  0.27811976312E+02  0.60122622737E+02  0.10000000000E+01 0. -1.
        -13    1    6    6    0    0  0.43685365263E+00 -0.60386811325E+00  0.13460365035E+01  0.15421858127E+01  0.10500000000E+00 0.  1.
         13    1    6    6    0    0  0.27878837829E+00 -0.25106481186E+00  0.73875542315E+00  0.83518924494E+00  0.10500000000E+00 0. -1.
</event>
<event>
11    0  0.3422856E-009  0.9118800E+02  0.7816531E-02  0.1126479E+00
         25   -1    0    0    0    0  0.00000000000E+00  0.00000000000E+00  0.99999998245E-14  0.12500000000E+03  0.12500000000E+03 0.  0.
    3000001    1    3    3    0    0 -0.38532867154E+02 -0.29159840276E+02 -0.15542983498E+02  0.50770685165E+02  0.10000000000E+01 0.  1.
    1000022    2    1    0    0    0 -0.44284848992E+02 -0.36488498381E+02 -0.22664767178E+02  0.62500000459E+02  0.10000001093E+02 0.  0.
    3000022    2    3    3    0    0 -0.57519818376E+01 -0.73286581043E+01 -0.71217836801E+01  0.11729315295E+02  0.25001964446E+00 0.  0.
    1000022    2    1    0    0    0  0.44284848992E+02  0.36488498381E+02  0.22664767178E+02  0.62499999541E+02  0.99999953540E+01 0.  0.
    3000022    2    5    5    0    0  0.40526523230E+02  0.36097071823E+02  0.20379750414E+02  0.57972358997E+02  0.25000289364E+00 0.  0.
        -13    1    4    4    0    0 -0.28706159002E+01 -0.35682355675E+01 -0.34508743891E+01  0.57351808831E+01  0.10500000000E+00 0.  1.
         13    1    4    4    0    0 -0.28813659374E+01 -0.37604225368E+01 -0.36709092910E+01  0.59941344115E+01  0.10500000000E+00 0. -1.
    3000001    1    5    5    0    0  0.37583257620E+01  0.39142655750E+00  0.22850167634E+01  0.45276405436E+01  0.10000000000E+01 0. -1.
        -13    1    6    6    0    0  0.22442339982E+02  0.19904806370E+02  0.11242317045E+02  0.32035303308E+02  0.10500000000E+00 0. -1.
         13    1    6    6    0    0  0.18084183248E+02  0.16192265453E+02  0.91374333689E+01  0.25937055689E+02  0.10500000000E+00 0.  1.
</event>
<event>
11    0  0.3422856E-009  0.9118800E+02  0.7816531E-02  0.1126479E+00
         25   -1    0    0    0    0  0.00000000000E+00  0.00000000000E+00  0.99999998245E-14  0.12500000000E+03  0.12500000000E+03 0.  0.
    3000001    1    3    3    0    0  0.40978515231E+01  0.16629559682E+01 -0.11208937517E+02  0.12091240214E+02  0.10000000000E+01 0.  1.
    1000022    2    1    0    0    0  0.98112781919E+01 -0.75119308552E+01 -0.60444683929E+02  0.62499999507E+02  0.99999919097E+01 0.  0.
    3000022    2    3    3    0    0  0.57134266687E+01 -0.91748868234E+01 -0.49235746412E+02  0.50408759293E+02  0.24999238184E+00 0.  0.
    1000022    2    1    0    0    0 -0.98112781919E+01  0.75119308552E+01  0.60444683929E+02  0.62500000493E+02  0.99999980665E+01 0.  0.
    3000022    2    5    5    0    0 -0.74232211301E+01 -0.16800616317E+00  0.35595825067E+02  0.36362861478E+02  0.24998922671E+00 0.  0.
        -13    1    4    4    0    0  0.18410182928E+01 -0.29508851980E+01 -0.15610399991E+02  0.15993520084E+02  0.10500000000E+00 0. -1.
         13    1    4    4    0    0  0.38724083759E+01 -0.62240016254E+01 -0.33625346421E+02  0.34415239209E+02  0.10500000000E+00 0.  1.
    3000001    1    5    5    0    0 -0.23880570618E+01  0.76799370183E+01  0.24848858862E+02  0.26137139015E+02  0.10000000000E+01 0.  1.
        -13    1    6    6    0    0 -0.46625607381E+01 -0.11706075676E+00  0.22641092758E+02  0.23116731649E+02  0.10500000000E+00 0.  1.
         13    1    6    6    0    0 -0.27606603920E+01 -0.50945406404E-01  0.12954732309E+02  0.13246129829E+02  0.10500000000E+00 0. -1.
</event>
<event>
11    0  0.3422856E-009  0.9118800E+02  0.7816531E-02  0.1126479E+00
         25   -1    0    0    0    0  0.00000000000E+00  0.00000000000E+00  0.99999998245E-14  0.12500000000E+03  0.12500000000E+03 0.  0.
    3000001    1    3    3    0    0  0.80500880776E+01 -0.55224092539E+02  0.94066836473E+01  0.56603798566E+02  0.10000000000E+01 0. -1.
    1000022    2    1    0    0    0  0.87946216707E+01 -0.60637965897E+02  0.72070639226E+01  0.62499999062E+02  0.99999916982E+01 0.  0.
    3000022    2    3    3    0    0  0.74453359310E+00 -0.54138733574E+01 -0.21996197248E+01  0.58962004963E+01  0.24999671425E+00 0.  0.
    1000022    2    1    0    0    0 -0.87946216707E+01  0.60637965897E+02 -0.72070639226E+01  0.62500000938E+02  0.10000003421E+02 0.  0.
    3000022    2    5    5    0    0 -0.28729180613E+00  0.12134651675E+02  0.22474496975E+01  0.12346895553E+02  0.24998361016E+00 0.  0.
        -13    1    4    4    0    0  0.53957496136E+00 -0.35096662559E+01 -0.14232200190E+01  0.38269411531E+01  0.10500000000E+00 0.  1.
         13    1    4    4    0    0  0.20495863174E+00 -0.19042071015E+01 -0.77639970577E+00  0.20692593432E+01  0.10500000000E+00 0. -1.
    3000001    1    5    5    0    0 -0.85073298645E+01  0.48503314222E+02 -0.94545136201E+01  0.50153105385E+02  0.10000000000E+01 0. -1.
        -13    1    6    6    0    0 -0.16891352116E+00  0.45869633124E+01  0.85587136824E+00  0.46703645474E+01  0.10500000000E+00 0.  1.
         13    1    6    6    0    0 -0.11837828498E+00  0.75476883622E+01  0.13915783293E+01  0.76765310054E+01  0.10500000000E+00 0. -1.
</event>
<event>
11    0  0.3422856E-009  0.9118800E+02  0.7816531E-02  0.1126479E+00
         25   -1    0    0    0    0  0.00000000000E+00  0.00000000000E+00  0.99999998245E-14  0.12500000000E+03  0.12500000000E+03 0.  0.
    3000001    1    3    3    0    0 -0.44286809253E+00 -0.65850498167E+01  0.60224861456E+01  0.89905145909E+01  0.10000000000E+01 0.  1.
    1000022    2    1    0    0    0 -0.25799362438E+02 -0.42051851265E+02  0.37044361992E+02  0.62500000593E+02  0.10000001080E+02 0.  0.
    3000022    2    3    3    0    0 -0.25356494346E+02 -0.35466801449E+02  0.31021875847E+02  0.53509486002E+02  0.25000124740E+00 0.  0.
    1000022    2    1    0    0    0  0.25799362438E+02  0.42051851265E+02 -0.37044361992E+02  0.62499999407E+02  0.99999936716E+01 0.  0.
    3000022    2    5    5    0    0 -0.64610932205E+00  0.27097769565E+01 -0.11200071926E+01  0.30128490694E+01  0.24998998688E+00 0.  0.
        -13    1    4    4    0    0 -0.74735786214E+01 -0.10378837149E+02  0.91087114533E+01  0.15702047233E+02  0.10500000000E+00 0. -1.
         13    1    4    4    0    0 -0.17882915724E+02 -0.25087964300E+02  0.21913164393E+02  0.37807438769E+02  0.10500000000E+00 0.  1.
    3000001    1    5    5    0    0  0.26445471760E+02  0.39342074309E+02 -0.35924354800E+02  0.59487150338E+02  0.10000000000E+01 0. -1.
        -13    1    6    6    0    0 -0.41171913815E+00  0.16908779039E+01 -0.63423586380E+00  0.18552252870E+01  0.10500000000E+00 0.  1.
         13    1    6    6    0    0 -0.23439018390E+00  0.10188990525E+01 -0.48577132878E+00  0.11576237823E+01  0.10500000000E+00 0. -1.
</event>
<event>
11    0  0.3422856E-009  0.9118800E+02  0.7816531E-02  0.1126479E+00
         25   -1    0    0    0    0  0.00000000000E+00  0.00000000000E+00  0.99999998245E-14  0.12500000000E+03  0.12500000000E+03 0.  0.
    3000001    1    3    3    0    0  0.30342502103E+01 -0.12371860215E+02  0.14646357889E+02  0.19436702368E+02  0.10000000000E+01 0.  1.
    1000022    2    1    0    0    0  0.18528784094E+02 -0.45749312519E+02  0.37012628633E+02  0.62499998520E+02  0.99999850336E+01 0.  0.
    3000022    2    3    3    0    0  0.15494533884E+02 -0.33377452304E+02  0.22366270744E+02  0.43063296152E+02  0.25001181049E+00 0.  0.
    1000022    2    1    0    0    0 -0.18528784094E+02  0.45749312519E+02 -0.37012628633E+02  0.62500001480E+02  0.10000003537E+02 0.  0.
    3000022    2    5    5    0    0 -0.82511551950E+01  0.32378182975E+02 -0.23208222260E+02  0.40683072357E+02  0.25000221208E+00 0.  0.
        -13    1    4    4    0    0  0.10090353844E+02 -0.21602851385E+02  0.14502686828E+02  0.27907658069E+02  0.10500000000E+00 0. -1.
         13    1    4    4    0    0  0.54041800400E+01 -0.11774600919E+02  0.78635839164E+01  0.15155638083E+02  0.10500000000E+00 0.  1.
    3000001    1    5    5    0    0 -0.10277628899E+02  0.13371129544E+02 -0.13804406373E+02  0.21816929124E+02  0.10000000000E+01 0. -1.
        -13    1    6    6    0    0 -0.45006446408E+01  0.17793890019E+02 -0.12677854668E+02  0.22307338437E+02  0.10500000000E+00 0.  1.
         13    1    6    6    0    0 -0.37505105542E+01  0.14584292956E+02 -0.10530367593E+02  0.18375733919E+02  0.10500000000E+00 0. -1.
</event>
<event>
11    0  0.3422856E-009  0.9118800E+02  0.7816531E-02  0.1126479E+00
         25   -1    0    0    0    0  0.00000000000E+00  0.00000000000E+00  0.99999998245E-14  0.12500000000E+03  0.12500000000E+03 0.  0.
    3000001    1    3    3    0    0  0.29304155163E+02  0.44882575571E+02 -0.21529620806E+02  0.57772862763E+02  0.10000000000E+01 0. -1.
    1000022    2    1    0    0    0  0.29735589653E+02  0.49583338338E+02 -0.21529915251E+02  0.62499999934E+02  0.10000000414E+02 0.  0.
    3000022    2    3    3    0    0  0.43143448930E+00  0.47007627669E+01 -0.29444458414E-03  0.47271371711E+01  0.25003887318E+00 0.  0.
    1000022    2    1    0    0    0 -0.29735589653E+02 -0.49583338338E+02  0.21529915251E+02  0.62500000066E+02  0.10000001240E+02 0.  0.
    3000022    2    5    5    0    0 -0.19864400920E+02 -0.34382403435E+02  0.98428454546E+01  0.40910734461E+02  0.24999529393E+00 0.  0.
        -13    1    4    4    0    0  0.17942933080E+00  0.20739052128E+01  0.65211859517E-01  0.20853189931E+01  0.10500000000E+00 0.  1.
         13    1    4    4    0    0  0.25200515850E+00  0.26268575542E+01 -0.65506304102E-01  0.26418181780E+01  0.10500000000E+00 0. -1.
    3000001    1    5    5    0    0 -0.98711887327E+01 -0.15200934903E+02  0.11687069796E+02  0.21589265605E+02  0.10000000000E+01 0.  1.
        -13    1    6    6    0    0 -0.98135230394E+01 -0.16883316352E+02  0.48863244491E+01  0.20130543885E+02  0.10500000000E+00 0.  1.
         13    1    6    6    0    0 -0.10050877881E+02 -0.17499087083E+02  0.49565210055E+01  0.20780190577E+02  0.10500000000E+00 0. -1.
</event>
<event>
11    0  0.3422856E-009  0.9118800E+02  0.7816531E-02  0.1126479E+00
         25   -1    0    0    0    0  0.00000000000E+00  0.00000000000E+00  0.99999998245E-14  0.12500000000E+03  0.12500000000E+03 0.  0.
    3000001    1    3    3    0    0 -0.20629360475E+02  0.12237628405E+02 -0.72312607267E+01  0.25072319284E+02  0.10000000000E+01 0. -1.
    1000022    2    1    0    0    0 -0.49044175802E+02  0.36587850540E+02 -0.78897517246E+01  0.62499998312E+02  0.99999809770E+01 0.  0.
    3000022    2    3    3    0    0 -0.28414815327E+02  0.24350222135E+02 -0.65849099798E+00  0.37427679028E+02  0.24999792580E+00 0.  0.
    1000022    2    1    0    0    0  0.49044175802E+02 -0.36587850540E+02  0.78897517246E+01  0.62500001688E+02  0.10000002072E+02 0.  0.
    3000022    2    5    5    0    0  0.34730224664E+01 -0.26414208498E+01  0.33088864340E+01  0.54818078205E+01  0.24999678019E+00 0.  0.
        -13    1    4    4    0    0 -0.12240634003E+02  0.10571160388E+02 -0.26259889198E+00  0.16175986397E+02  0.10500000000E+00 0. -1.
         13    1    4    4    0    0 -0.16174181324E+02  0.13779061747E+02 -0.39589210600E+00  0.21251692631E+02  0.10500000000E+00 0.  1.
    3000001    1    5    5    0    0  0.45571153335E+02 -0.33946429690E+02  0.45808652907E+01  0.57018193867E+02  0.10000000000E+01 0. -1.
        -13    1    6    6    0    0  0.13440005886E+01 -0.10975799869E+01  0.12929712283E+01  0.21665223301E+01  0.10500000000E+00 0.  1.
         13    1    6    6    0    0  0.21290218778E+01 -0.15438408629E+01  0.20159152057E+01  0.33152854904E+01  0.10500000000E+00 0. -1.
</event>
<event>
11    0  0.3422856E-009  0.9118800E+02  0.7816531E-02  0.1126479E+00
         25   -1    0    0    0    0  0.00000000000E+00  0.00000000000E+00  0.99999998245E-14  0.12500000000E+03  0.12500000000E+03 0.  0.
    3000001    1    3    3    0    0  0.75702083674E+01 -0.26154816721E+02  0.18139084951E+02  0.32732382976E+02  0.10000000000E+01 0. -1.
    1000022    2    1    0    0    0  0.10384293584E+02 -0.54325126476E+02  0.27334904786E+02  0.62500000172E+02  0.10000004094E+02 0.  0.
    3000022    2    3    3    0    0  0.28140852166E+01 -0.28170309755E+02  0.91958198350E+01  0.29767617196E+02  0.25000747737E+00 0.  0.
    1000022    2    1    0    0    0 -0.10384293584E+02  0.54325126476E+02 -0.27334904786E+02  0.62499999828E+02  0.10000001950E+02 0.  0.
    3000022    2    5    5    0    0 -0.18691113743E+01  0.34603129115E+02 -0.15633851348E+02  0.38017758110E+02  0.25000379220E+00 0.  0.
        -13    1    4    4    0    0  0.14756153569E+01 -0.14385226770E+02  0.46383859156E+01  0.15186765251E+02  0.10500000000E+00 0. -1.
         13    1    4    4    0    0  0.13384698597E+01 -0.13785082986E+02  0.45574339194E+01  0.14580851944E+02  0.10500000000E+00 0.  1.
    3000001    1    5    5    0    0 -0.85151822097E+01  0.19721997362E+02 -0.11701053438E+02  0.24482241718E+02  0.10000000000E+01 0.  1.
        -13    1    6    6    0    0 -0.11741040775E+01  0.21374689798E+02 -0.95940318219E+01  0.23458737305E+02  0.10500000000E+00 0.  1.
         13    1    6    6    0    0 -0.69500729682E+00  0.13228439317E+02 -0.60398195265E+01  0.14559020805E+02  0.10500000000E+00 0. -1.
</event>
<event>
11    0  0.3422856E-009  0.9118800E+02  0.7816531E-02  0.1126479E+00
         25   -1    0    0    0    0  0.00000000000E+00  0.00000000000E+00  0.99999998245E-14  0.12500000000E+03  0.12500000000E+03 0.  0.
    3000001    1    3    3    0    0  0.62271955341E+01 -0.38628501793E+02  0.38274847843E+00  0.39141865201E+02  0.10000000000E+01 0.  1.
    1000022    2    1    0    0    0  0.14235186084E+02 -0.59783175984E+02 -0.54389083472E+01  0.62499997437E+02  0.99999651014E+01 0.  0.
    3000022    2    3    3    0    0  0.80079905500E+01 -0.21154674190E+02 -0.58216568256E+01  0.23358132236E+02  0.25000118801E+00 0.  0.
    1000022    2    1    0    0    0 -0.14235186084E+02  0.59783175984E+02  0.54389083472E+01  0.62500002563E+02  0.99999971446E+01 0.  0.
    3000022    2    5    5    0    0 -0.54907336845E+01  0.36386325832E+02  0.69789198460E+01  0.37455049375E+02  0.25007506700E+00 0.  0.
        -13    1    4    4    0    0  0.41231100112E+01 -0.10702531467E+02 -0.29620129089E+01  0.11846044126E+02  0.10500000000E+00 0. -1.
         13    1    4    4    0    0  0.38848805388E+01 -0.10452142724E+02 -0.28596439167E+01  0.11512088110E+02  0.10500000000E+00 0.  1.
    3000001    1    5    5    0    0 -0.87444523995E+01  0.23396850151E+02 -0.15400114988E+01  0.25044953188E+02  0.10000000000E+01 0. -1.
        -13    1    6    6    0    0 -0.26019629966E+01  0.17425859214E+02  0.34045517639E+01  0.17945271759E+02  0.10500000000E+00 0.  1.
         13    1    6    6    0    0 -0.28887706879E+01  0.18960466618E+02  0.35743680821E+01  0.19509777617E+02  0.10500000000E+00 0. -1.
</event>
<event>
11    0  0.3422856E-009  0.9118800E+02  0.7816531E-02  0.1126479E+00
         25   -1    0    0    0    0  0.00000000000E+00  0.00000000000E+00  0.99999998245E-14  0.12500000000E+03  0.12500000000E+03 0.  0.
    3000001    1    3    3    0    0  0.18786648579E+01 -0.68291944356E+00  0.98329909121E+01  0.10083822236E+02  0.10000000000E+01 0. -1.
    1000022    2    1    0    0    0  0.13814700170E+02 -0.25252392466E+02  0.54568493750E+02  0.62499999656E+02  0.10000009040E+02 0.  0.
    3000022    2    3    3    0    0  0.11936035312E+02 -0.24569473023E+02  0.44735502838E+02  0.52416177420E+02  0.24999511994E+00 0.  0.
    1000022    2    1    0    0    0 -0.13814700170E+02  0.25252392466E+02 -0.54568493750E+02  0.62500000344E+02  0.10000013342E+02 0.  0.
    3000022    2    5    5    0    0 -0.75022140841E+01  0.12253917103E+02 -0.17143317265E+02  0.22369567039E+02  0.25000426095E+00 0.  0.
        -13    1    4    4    0    0  0.72760879624E+01 -0.14991428665E+02  0.27409062567E+02  0.32077283632E+02  0.10500000000E+00 0. -1.
         13    1    4    4    0    0  0.46599473495E+01 -0.95780443576E+01  0.17326440271E+02  0.20338893787E+02  0.10500000000E+00 0.  1.
    3000001    1    5    5    0    0 -0.63124860856E+01  0.12998475364E+02 -0.37425176485E+02  0.40130433305E+02  0.10000000000E+01 0.  1.
        -13    1    6    6    0    0 -0.27243921130E+01  0.45445405147E+01 -0.62711729573E+01  0.82105904864E+01  0.10500000000E+00 0.  1.
         13    1    6    6    0    0 -0.47778219712E+01  0.77093765880E+01 -0.10872144308E+02  0.14158976553E+02  0.10500000000E+00 0. -1.
</event>
<event>
11    0  0.3422856E-009  0.9118800E+02  0.7816531E-02  0.1126479E+00
         25   -1    0    0    0    0  0.00000000000E+00  0.00000000000E+00  0.99999998245E-14  0.12500000000E+03  0.12500000000E+03 0.  0.
    3000001    1    3    3    0    0 -0.42352673513E+01 -0.48189386972E+01  0.15367969158E+02  0.16683349057E+02  0.10000000000E+01 0. -1.
    1000022    2    1    0    0    0 -0.15158668134E+02 -0.32514579949E+02  0.50192297604E+02  0.62500000800E+02  0.10000011617E+02 0.  0.
    3000022    2    3    3    0    0 -0.10923400783E+02 -0.27695641252E+02  0.34824328446E+02  0.45816651743E+02  0.24999244712E+00 0.  0.
    1000022    2    1    0    0    0  0.15158668134E+02  0.32514579949E+02 -0.50192297604E+02  0.62499999200E+02  0.10000001618E+02 0.  0.
    3000022    2    5    5    0    0  0.51284299694E+01  0.18275438988E+02 -0.32599040201E+02  0.37723366681E+02  0.25001507468E+00 0.  0.
        -13    1    4    4    0    0 -0.63825136718E+01 -0.16010261074E+02  0.20137503198E+02  0.26506508644E+02  0.10500000000E+00 0.  1.
         13    1    4    4    0    0 -0.45408871109E+01 -0.11685380178E+02  0.14686825248E+02  0.19310143100E+02  0.10500000000E+00 0. -1.
    3000001    1    5    5    0    0  0.10030238165E+02  0.14239140961E+02 -0.17593257403E+02  0.24776632519E+02  0.10000000000E+01 0.  1.
        -13    1    6    6    0    0  0.24566516283E+01  0.89164437188E+01 -0.15781007107E+02  0.18291782749E+02  0.10500000000E+00 0.  1.
         13    1    6    6    0    0  0.26717783412E+01  0.93589952697E+01 -0.16818033094E+02  0.19431583932E+02  0.10500000000E+00 0. -1.
</event>
<event>
11    0  0.3422856E-009  0.9118800E+02  0.7816531E-02  0.1126479E+00
         25   -1    0    0    0    0  0.00000000000E+00  0.00000000000E+00  0.99999998245E-14  0.12500000000E+03  0.12500000000E+03 0.  0.
    3000001    1    3    3    0    0 -0.16998043039E+01  0.11508819400E+02 -0.17247093863E+02  0.20827974106E+02  0.10000000000E+01 0.  1.
    1000022    2    1    0    0    0  0.86839579649E+01  0.32570248822E+02 -0.51672214294E+02  0.62500000030E+02  0.10000001969E+02 0.  0.
    3000022    2    3    3    0    0  0.10383762269E+02  0.21061429422E+02 -0.34425120431E+02  0.41672025924E+02  0.24999941777E+00 0.  0.
    1000022    2    1    0    0    0 -0.86839579649E+01 -0.32570248822E+02  0.51672214294E+02  0.62499999970E+02  0.10000001596E+02 0.  0.
    3000022    2    5    5    0    0 -0.27219297850E+01 -0.18677864810E+02  0.36309273067E+02  0.40923066066E+02  0.24997990429E+00 0.  0.
        -13    1    4    4    0    0  0.25675812497E+01  0.52666754095E+01 -0.85931358382E+01  0.10401122626E+02  0.10500000000E+00 0. -1.
         13    1    4    4    0    0  0.78161810191E+01  0.15794754013E+02 -0.25831984593E+02  0.31270903298E+02  0.10500000000E+00 0.  1.
    3000001    1    5    5    0    0 -0.59620281799E+01 -0.13892384012E+02  0.15362941227E+02  0.21576933904E+02  0.10000000000E+01 0.  1.
        -13    1    6    6    0    0 -0.18117281690E+01 -0.12045072490E+02  0.23457756081E+02  0.26431864777E+02  0.10500000000E+00 0.  1.
         13    1    6    6    0    0 -0.91020161594E+00 -0.66327923201E+01  0.12851516987E+02  0.14491201289E+02  0.10500000000E+00 0. -1.
</event>
<event>
11    0  0.3422856E-009  0.9118800E+02  0.7816531E-02  0.1126479E+00
         25   -1    0    0    0    0  0.00000000000E+00  0.00000000000E+00  0.99999998245E-14  0.12500000000E+03  0.12500000000E+03 0.  0.
    3000001    1    3    3    0    0  0.32313484902E+02  0.59859689906E+01  0.63891971333E+01  0.33493506404E+02  0.10000000000E+01 0.  1.
    1000022    2    1    0    0    0  0.60050860697E+02  0.21927512956E+01  0.13976273333E+02  0.62500001160E+02  0.99999950047E+01 0.  0.
    3000022    2    3    3    0    0  0.27737375795E+02 -0.37932176951E+01  0.75870761998E+01  0.29006494756E+02  0.24999257848E+00 0.  0.
    1000022    2    1    0    0    0 -0.60050860697E+02 -0.21927512956E+01 -0.13976273333E+02  0.62499998840E+02  0.99999805037E+01 0.  0.
    3000022    2    5    5    0    0 -0.34956119783E+02 -0.38157111217E+01 -0.12387940311E+02  0.37282885169E+02  0.24999944166E+00 0.  0.
        -13    1    4    4    0    0  0.88464625994E+01 -0.11608588429E+01  0.24325446226E+01  0.92485562179E+01  0.10500000000E+00 0.  1.
         13    1    4    4    0    0  0.18890913195E+02 -0.26323588521E+01  0.51545315771E+01  0.19757938538E+02  0.10500000000E+00 0. -1.
    3000001    1    5    5    0    0 -0.25094740913E+02  0.16229598261E+01 -0.15883330224E+01  0.25217113671E+02  0.10000000000E+01 0.  1.
        -13    1    6    6    0    0 -0.17476755878E+02 -0.19345839805E+01 -0.62606314509E+01  0.18665104938E+02  0.10500000000E+00 0. -1.
         13    1    6    6    0    0 -0.17479363905E+02 -0.18811271412E+01 -0.61273088598E+01  0.18617780231E+02  0.10500000000E+00 0.  1.
</event>
<event>
11    0  0.3422856E-009  0.9118800E+02  0.7816531E-02  0.1126479E+00
         25   -1    0    0    0    0  0.00000000000E+00  0.00000000000E+00  0.99999998245E-14  0.12500000000E+03  0.12500000000E+03 0.  0.
    3000001    1    3    3    0    0 -0.29042738038E+02 -0.34124155421E+02 -0.41514790140E+02  0.61093505516E+02  0.10000000000E+01 0. -1.
    1000022    2    1    0    0    0 -0.28892127882E+02 -0.33720548255E+02 -0.42830127636E+02  0.62499998515E+02  0.99999776434E+01 0.  0.
    3000022    2    3    3    0    0  0.15061015620E+00  0.40360716573E+00 -0.13153374964E+01  0.14064929985E+01  0.25005531800E+00 0.  0.
    1000022    2    1    0    0    0  0.28892127882E+02  0.33720548255E+02  0.42830127636E+02  0.62500001485E+02  0.99999962070E+01 0.  0.
    3000022    2    5    5    0    0  0.26573709451E+02  0.27702718552E+02  0.39827549323E+02  0.55316352351E+02  0.25000639831E+00 0.  0.
        -13    1    4    4    0    0  0.11442532507E+00  0.12901354144E+00 -0.53654080147E+00  0.57327016366E+00  0.10500000000E+00 0.  1.
         13    1    4    4    0    0  0.36184831134E-01  0.27459362429E+00 -0.77879669492E+00  0.83322283486E+00  0.10500000000E+00 0. -1.
    3000001    1    5    5    0    0  0.23184184315E+01  0.60178297031E+01  0.30025783135E+01  0.71836491345E+01  0.10000000000E+01 0.  1.
        -13    1    6    6    0    0  0.89840978360E+01  0.93879114036E+01  0.13557191947E+02  0.18779120665E+02  0.10500000000E+00 0. -1.
         13    1    6    6    0    0  0.17589611615E+02  0.18314807148E+02  0.26270357376E+02  0.36537231686E+02  0.10500000000E+00 0.  1.
</event>
<event>
11    0  0.3422856E-009  0.9118800E+02  0.7816531E-02  0.1126479E+00
         25   -1    0    0    0    0  0.00000000000E+00  0.00000000000E+00  0.99999998245E-14  0.12500000000E+03  0.12500000000E+03 0.  0.
    3000001    1    3    3    0    0  0.10848554122E+02  0.21199134032E+02 -0.31590691864E+02  0.39573554588E+02  0.10000000000E+01 0. -1.
    1000022    2    1    0    0    0  0.15352039626E+02  0.26994326377E+02 -0.53309204389E+02  0.62500000554E+02  0.10000000970E+02 0.  0.
    3000022    2    3    3    0    0  0.45034855042E+01  0.57951923450E+01 -0.21718512525E+02  0.22926445966E+02  0.25000468864E+00 0.  0.
    1000022    2    1    0    0    0 -0.15352039626E+02 -0.26994326377E+02  0.53309204389E+02  0.62499999446E+02  0.99999940469E+01 0.  0.
    3000022    2    5    5    0    0 -0.13384013372E+02 -0.19910184294E+02  0.32419123499E+02  0.40331244949E+02  0.24999614584E+00 0.  0.
        -13    1    4    4    0    0  0.19810194010E+01  0.25858885816E+01 -0.98356559204E+01  0.10361583374E+02  0.10500000000E+00 0.  1.
         13    1    4    4    0    0  0.25224661032E+01  0.32093037633E+01 -0.11882856605E+02  0.12564862593E+02  0.10500000000E+00 0. -1.
    3000001    1    5    5    0    0 -0.19680262537E+01 -0.70841420830E+01  0.20890080890E+02  0.22168754498E+02  0.10000000000E+01 0. -1.
        -13    1    6    6    0    0 -0.68436715215E+01 -0.10250767983E+02  0.16748441326E+02  0.20795081053E+02  0.10500000000E+00 0. -1.
         13    1    6    6    0    0 -0.65403418505E+01 -0.96594163108E+01  0.15670682173E+02  0.19536163896E+02  0.10500000000E+00 0.  1.
</event>
<event>
11    0  0.3422856E-009  0.9118800E+02  0.7816531E-02  0.1126479E+00
         25   -1    0    0    0    0  0.00000000000E+00  0.00000000000E+00  0.99999998245E-14  0.12500000000E+03  0.12500000000E+03 0.  0.
    3000001    1    3    3    0    0  0.15741210030E+02 -0.97012685939E+01 -0.40697502350E+02  0.44712269044E+02  0.10000000000E+01 0.  1.
    1000022    2    1    0    0    0  0.27304081090E+02 -0.13804703995E+02 -0.53573941846E+02  0.62499999741E+02  0.10000001311E+02 0.  0.
    3000022    2    3    3    0    0  0.11562871059E+02 -0.41034354010E+01 -0.12876439496E+02  0.17787730697E+02  0.25000007309E+00 0.  0.
    1000022    2    1    0    0    0 -0.27304081090E+02  0.13804703995E+02  0.53573941846E+02  0.62500000259E+02  0.10000004547E+02 0.  0.
    3000022    2    5    5    0    0 -0.27595781359E+02  0.14232695069E+02  0.51984648099E+02  0.60552150157E+02  0.24998574017E+00 0.  0.
        -13    1    4    4    0    0  0.65066836346E+01 -0.23644733343E+01 -0.73232635406E+01  0.10078138715E+02  0.10500000000E+00 0. -1.
         13    1    4    4    0    0  0.50561874247E+01 -0.17389620667E+01 -0.55531759551E+01  0.77095919821E+01  0.10500000000E+00 0.  1.
    3000001    1    5    5    0    0  0.29170026975E+00 -0.42799107421E+00  0.15892937466E+01  0.19478501021E+01  0.10000000000E+01 0. -1.
        -13    1    6    6    0    0 -0.10970561911E+02  0.56845670452E+01  0.20800492056E+02  0.24193780728E+02  0.10500000000E+00 0. -1.
         13    1    6    6    0    0 -0.16625219448E+02  0.85481280238E+01  0.31184156043E+02  0.36358369429E+02  0.10500000000E+00 0.  1.
</event>
<event>
11    0  0.3422856E-009  0.9118800E+02  0.7816531E-02  0.1126479E+00
         25   -1    0    0    0    0  0.00000000000E+00  0.00000000000E+00  0.99999998245E-14  0.12500000000E+03  0.12500000000E+03 0.  0.
    3000001    1    3    3    0    0  0.16186046484E+02  0.73389236001E+01 -0.40917705307E+02  0.44621816502E+02  0.10000000000E+01 0. -1.
    1000022    2    1    0    0    0  0.19740214659E+02  0.15737283112E+02 -0.56293088626E+02  0.62500000563E+02  0.10000004439E+02 0.  0.
    3000022    2    3    3    0    0  0.35541681751E+01  0.83983595119E+01 -0.15375383319E+02  0.17878184060E+02  0.24999836952E+00 0.  0.
    1000022    2    1    0    0    0 -0.19740214659E+02 -0.15737283112E+02  0.56293088626E+02  0.62499999437E+02  0.99999974029E+01 0.  0.
    3000022    2    5    5    0    0 -0.18567827232E+02 -0.10144598068E+02  0.47020894439E+02  0.51562623000E+02  0.24999752257E+00 0.  0.
        -13    1    4    4    0    0  0.23638920224E+01  0.55565978801E+01 -0.10074823068E+02  0.11746354768E+02  0.10500000000E+00 0. -1.
         13    1    4    4    0    0  0.11902761527E+01  0.28417616318E+01 -0.53005602510E+01  0.61318292920E+01  0.10500000000E+00 0.  1.
    3000001    1    5    5    0    0 -0.11723874274E+01 -0.55926850438E+01  0.92721941869E+01  0.10937376437E+02  0.10000000000E+01 0. -1.
        -13    1    6    6    0    0 -0.45181182398E+01 -0.24643738749E+01  0.11491567993E+02  0.12591810472E+02  0.10500000000E+00 0. -1.
         13    1    6    6    0    0 -0.14049708992E+02 -0.76802241933E+01  0.35529326446E+02  0.38970812529E+02  0.10500000000E+00 0.  1.
</event>
<event>
11    0  0.3422856E-009  0.9118800E+02  0.7816531E-02  0.1126479E+00
         25   -1    0    0    0    0  0.00000000000E+00  0.00000000000E+00  0.99999998245E-14  0.12500000000E+03  0.12500000000E+03 0.  0.
    3000001    1    3    3    0    0  0.72594125367E+00 -0.70812622842E+01  0.10118025828E+02  0.12411515335E+02  0.10000000000E+01 0.  1.
    1000022    2    1    0    0    0 -0.15641302432E+02 -0.35855383338E+02  0.47707349449E+02  0.62500001662E+02  0.10000008009E+02 0.  0.
    3000022    2    3    3    0    0 -0.16367243686E+02 -0.28774121053E+02  0.37589323621E+02  0.50088486327E+02  0.25000795346E+00 0.  0.
    1000022    2    1    0    0    0  0.15641302432E+02  0.35855383338E+02 -0.47707349449E+02  0.62499998338E+02  0.99999872384E+01 0.  0.
    3000022    2    5    5    0    0  0.53905166625E+00  0.11795276938E+02 -0.11690352719E+02  0.16617640600E+02  0.24999535650E+00 0.  0.
        -13    1    4    4    0    0 -0.66043780077E+01 -0.11508856420E+02  0.15009800157E+02  0.20034388204E+02  0.10500000000E+00 0.  1.
         13    1    4    4    0    0 -0.97628656783E+01 -0.17265264634E+02  0.22579523464E+02  0.30054098123E+02  0.10500000000E+00 0. -1.
    3000001    1    5    5    0    0  0.15102250766E+02  0.24060106400E+02 -0.36016996730E+02  0.45882357739E+02  0.10000000000E+01 0.  1.
        -13    1    6    6    0    0  0.16590778446E+00  0.29990875869E+01 -0.29747980351E+01  0.42287705183E+01  0.10500000000E+00 0.  1.
         13    1    6    6    0    0  0.37314388180E+00  0.87961893508E+01 -0.87155546835E+01  0.12388870081E+02  0.10500000000E+00 0. -1.
</event>
<event>
11    0  0.3422856E-009  0.9118800E+02  0.7816531E-02  0.1126479E+00
         25   -1    0    0    0    0  0.00000000000E+00  0.00000000000E+00  0.99999998245E-14  0.12500000000E+03  0.12500000000E+03 0.  0.
    3000001    1    3    3    0    0  0.17373659111E+02 -0.75678468528E+01  0.25033462956E+02  0.31413223402E+02  0.10000000000E+01 0.  1.
    1000022    2    1    0    0    0  0.34923533055E+02 -0.23651730338E+02  0.45024353801E+02  0.62499999119E+02  0.99999972874E+01 0.  0.
    3000022    2    3    3    0    0  0.17549873943E+02 -0.16083883485E+02  0.19990890845E+02  0.31086775718E+02  0.25004874199E+00 0.  0.
    1000022    2    1    0    0    0 -0.34923533055E+02  0.23651730338E+02 -0.45024353801E+02  0.62500000881E+02  0.10000008296E+02 0.  0.
    3000022    2    5    5    0    0  0.48971448039E+00  0.76326241967E+00 -0.21994098828E+01  0.23921321263E+01  0.25000496749E+00 0.  0.
        -13    1    4    4    0    0  0.13070371942E+02 -0.11973769482E+02  0.14923201149E+02  0.23171506982E+02  0.10500000000E+00 0. -1.
         13    1    4    4    0    0  0.44795020015E+01 -0.41101140033E+01  0.50676896958E+01  0.79152687355E+01  0.10500000000E+00 0.  1.
    3000001    1    5    5    0    0 -0.35413247535E+02  0.22888467918E+02 -0.42824943918E+02  0.60107868754E+02  0.10000000000E+01 0.  1.
        -13    1    6    6    0    0  0.18992166378E+00  0.37631266332E+00 -0.11533528142E+01  0.12324484464E+01  0.10500000000E+00 0.  1.
         13    1    6    6    0    0  0.29979281661E+00  0.38694975634E+00 -0.10460570685E+01  0.11596836799E+01  0.10500000000E+00 0. -1.
</event>
<event>
11    0  0.3422856E-009  0.9118800E+02  0.7816531E-02  0.1126479E+00
         25   -1    0    0    0    0  0.00000000000E+00  0.00000000000E+00  0.99999998245E-14  0.12500000000E+03  0.12500000000E+03 0.  0.
    3000001    1    3    3    0    0 -0.10333560592E+02  0.11647823348E+02 -0.16364864744E+01  0.15688605777E+02  0.10000000000E+01 0.  1.
    1000022    2    1    0    0    0 -0.42204772973E+02  0.43835538394E+02  0.10171175332E+02  0.62499999169E+02  0.99999900259E+01 0.  0.
    3000022    2    3    3    0    0 -0.31871212381E+02  0.32187715045E+02  0.11807661806E+02  0.46811393391E+02  0.24999087257E+00 0.  0.
    1000022    2    1    0    0    0  0.42204772973E+02 -0.43835538394E+02 -0.10171175332E+02  0.62500000831E+02  0.10000000417E+02 0.  0.
    3000022    2    5    5    0    0  0.24232922724E+01 -0.68740581749E+01 -0.21224544452E+01  0.75955462344E+01  0.24997699420E+00 0.  0.
        -13    1    4    4    0    0 -0.91965225425E+01  0.92295544401E+01  0.33861723607E+01  0.13462462267E+02  0.10500000000E+00 0. -1.
         13    1    4    4    0    0 -0.22674689838E+02  0.22958160605E+02  0.84214894454E+01  0.33348931124E+02  0.10500000000E+00 0.  1.
    3000001    1    5    5    0    0  0.39781480700E+02 -0.36961480219E+02 -0.80487208865E+01  0.54904454597E+02  0.10000000000E+01 0. -1.
        -13    1    6    6    0    0  0.17158258272E+01 -0.47212709232E+01 -0.14654042000E+01  0.52338219180E+01  0.10500000000E+00 0. -1.
         13    1    6    6    0    0  0.70746644522E+00 -0.21527872517E+01 -0.65705024515E+00  0.23617243164E+01  0.10500000000E+00 0.  1.
</event>
<event>
11    0  0.3422856E-009  0.9118800E+02  0.7816531E-02  0.1126479E+00
         25   -1    0    0    0    0  0.00000000000E+00  0.00000000000E+00  0.99999998245E-14  0.12500000000E+03  0.12500000000E+03 0.  0.
    3000001    1    3    3    0    0  0.28349731502E+02  0.24046573990E+02  0.22126320416E+02  0.43272613188E+02  0.10000000000E+01 0.  1.
    1000022    2    1    0    0    0  0.36982335279E+02  0.39490864000E+02  0.29648417596E+02  0.62499999586E+02  0.99999910106E+01 0.  0.
    3000022    2    3    3    0    0  0.86326037761E+01  0.15444290010E+02  0.75220971794E+01  0.19227386398E+02  0.24999975483E+00 0.  0.
    1000022    2    1    0    0    0 -0.36982335279E+02 -0.39490864000E+02 -0.29648417596E+02  0.62500000414E+02  0.99999961844E+01 0.  0.
    3000022    2    5    5    0    0 -0.70445435551E+01 -0.70549719196E+01 -0.13646135511E+01  0.10065927145E+02  0.24999291997E+00 0.  0.
        -13    1    4    4    0    0  0.30666459674E+01  0.54075640034E+01  0.26884126989E+01  0.67738212097E+01  0.10500000000E+00 0.  1.
         13    1    4    4    0    0  0.55659578087E+01  0.10036726006E+02  0.48336844805E+01  0.12453565189E+02  0.10500000000E+00 0. -1.
    3000001    1    5    5    0    0 -0.29937791723E+02 -0.32435892080E+02 -0.28283804045E+02  0.52434073269E+02  0.10000000000E+01 0.  1.
        -13    1    6    6    0    0 -0.45830220327E+01 -0.46423353466E+01 -0.93477645833E+00  0.65909180278E+01  0.10500000000E+00 0.  1.
         13    1    6    6    0    0 -0.24615215224E+01 -0.24126365730E+01 -0.42983709279E+00  0.34750091173E+01  0.10500000000E+00 0. -1.
</event>
<event>
11    0  0.3422856E-009  0.9118800E+02  0.7816531E-02  0.1126479E+00
         25   -1    0    0    0    0  0.00000000000E+00  0.00000000000E+00  0.99999998245E-14  0.12500000000E+03  0.12500000000E+03 0.  0.
    3000001    1    3    3    0    0 -0.75152726858E+01  0.49336376903E+01  0.87494699632E+01  0.12584646560E+02  0.10000000000E+01 0.  1.
    1000022    2    1    0    0    0 -0.34240172223E+02  0.39987543722E+02  0.32169193345E+02  0.62500000166E+02  0.99999986752E+01 0.  0.
    3000022    2    3    3    0    0 -0.26724899537E+02  0.35053906032E+02  0.23419723382E+02  0.49915353606E+02  0.24999797943E+00 0.  0.
    1000022    2    1    0    0    0  0.34240172223E+02 -0.39987543722E+02 -0.32169193345E+02  0.62499999834E+02  0.99999966017E+01 0.  0.
    3000022    2    5    5    0    0  0.65415327847E+01 -0.11745446015E+02 -0.12289199073E+02  0.18216313427E+02  0.25001544166E+00 0.  0.
        -13    1    4    4    0    0 -0.15980484208E+02  0.20971939174E+02  0.13937501691E+02  0.29823867734E+02  0.10500000000E+00 0. -1.
         13    1    4    4    0    0 -0.10744415329E+02  0.14081966857E+02  0.94822216905E+01  0.20091485872E+02  0.10500000000E+00 0.  1.
    3000001    1    5    5    0    0  0.27698639438E+02 -0.28242097707E+02 -0.19879994272E+02  0.44283686407E+02  0.10000000000E+01 0.  1.
        -13    1    6    6    0    0  0.33550721649E+01 -0.59477522522E+01 -0.61651278064E+01  0.92006571480E+01  0.10500000000E+00 0.  1.
         13    1    6    6    0    0  0.31864606198E+01 -0.57976937631E+01 -0.61240712669E+01  0.90156562787E+01  0.10500000000E+00 0. -1.
</event>
<event>
11    0  0.3422856E-009  0.9118800E+02  0.7816531E-02  0.1126479E+00
         25   -1    0    0    0    0  0.00000000000E+00  0.00000000000E+00  0.99999998245E-14  0.12500000000E+03  0.12500000000E+03 0.  0.
    3000001    1    3    3    0    0 -0.13822891130E+01 -0.54884887804E+01  0.35361273705E+00  0.57584090036E+01  0.10000000000E+01 0. -1.
    1000022    2    1    0    0    0 -0.37917339164E+00 -0.54409151898E+02  0.29081790047E+02  0.62500000388E+02  0.99999976713E+01 0.  0.
    3000022    2    3    3    0    0  0.10031157213E+01 -0.48920663117E+02  0.28728177310E+02  0.56741591384E+02  0.25000051064E+00 0.  0.
    1000022    2    1    0    0    0  0.37917339164E+00  0.54409151898E+02 -0.29081790047E+02  0.62499999612E+02  0.99999928258E+01 0.  0.
    3000022    2    5    5    0    0 -0.15894923682E+01  0.11783596520E+02 -0.10806867619E+02  0.16069552642E+02  0.25000287310E+00 0.  0.
        -13    1    4    4    0    0  0.58918157965E+00 -0.25858806946E+02  0.15147988565E+02  0.29974949777E+02  0.10500000000E+00 0.  1.
         13    1    4    4    0    0  0.41393414169E+00 -0.23061856172E+02  0.13580188746E+02  0.26766641607E+02  0.10500000000E+00 0. -1.
    3000001    1    5    5    0    0  0.19686657598E+01  0.42625555377E+02 -0.18274922428E+02  0.46430446970E+02  0.10000000000E+01 0.  1.
        -13    1    6    6    0    0 -0.90483983384E+00  0.63071346365E+01 -0.57358752860E+01  0.85737957023E+01  0.10500000000E+00 0.  1.
         13    1    6    6    0    0 -0.68465253435E+00  0.54764618837E+01 -0.50709923335E+01  0.74957569400E+01  0.10500000000E+00 0. -1.
</event>
<event>
11    0  0.3422856E-009  0.9118800E+02  0.7816531E-02  0.1126479E+00
         25   -1    0    0    0    0  0.00000000000E+00  0.00000000000E+00  0.99999998245E-14  0.12500000000E+03  0.12500000000E+03 0.  0.
    3000001    1    3    3    0    0 -0.29885977649E+02 -0.50202327412E+01 -0.19374586718E+02  0.35982620906E+02  0.10000000000E+01 0.  1.
    1000022    2    1    0    0    0 -0.53581822752E+02 -0.97480204980E+00 -0.30566126920E+02  0.62500005023E+02  0.10000027231E+02 0.  0.
    3000022    2    3    3    0    0 -0.23695845103E+02  0.40454306914E+01 -0.11191540201E+02  0.26517384117E+02  0.25000739394E+00 0.  0.
    1000022    2    1    0    0    0  0.53581822752E+02  0.97480204980E+00  0.30566126920E+02  0.62499994977E+02  0.99999644375E+01 0.  0.
    3000022    2    5    5    0    0  0.13641064765E+02  0.17588759966E+00  0.30490659246E+01  0.13981018703E+02  0.24999315920E+00 0.  0.
        -13    1    4    4    0    0 -0.10384006375E+02  0.17544746226E+01 -0.49730741954E+01  0.11646813365E+02  0.10500000000E+00 0. -1.
         13    1    4    4    0    0 -0.13311838728E+02  0.22909560687E+01 -0.62184660061E+01  0.14870570752E+02  0.10500000000E+00 0.  1.
    3000001    1    5    5    0    0  0.39940757987E+02  0.79891445014E+00  0.27517060995E+02  0.48518976274E+02  0.10000000000E+01 0. -1.
        -13    1    6    6    0    0  0.86981601737E+01  0.12512491100E+00  0.18857306630E+01  0.89017218437E+01  0.10500000000E+00 0.  1.
         13    1    6    6    0    0  0.49429045913E+01  0.50762688656E-01  0.11633352616E+01  0.50792968588E+01  0.10500000000E+00 0. -1.
</event>
<event>
11    0  0.3422856E-009  0.9118800E+02  0.7816531E-02  0.1126479E+00
         25   -1    0    0    0    0  0.00000000000E+00  0.00000000000E+00  0.99999998245E-14  0.12500000000E+03  0.12500000000E+03 0.  0.
    3000001    1    3    3    0    0 -0.14558529565E+02  0.35471044531E+02 -0.31790487784E+01  0.38487038524E+02  0.10000000000E+01 0. -1.
    1000022    2    1    0    0    0 -0.29655924948E+02  0.54075951566E+02 -0.16023698194E+01  0.62500000405E+02  0.10000001963E+02 0.  0.
    3000022    2    3    3    0    0 -0.15097395382E+02  0.18604907035E+02  0.15766789590E+01  0.24012961880E+02  0.25001723536E+00 0.  0.
    1000022    2    1    0    0    0  0.29655924948E+02 -0.54075951566E+02  0.16023698194E+01  0.62499999595E+02  0.99999969040E+01 0.  0.
    3000022    2    5    5    0    0  0.11152702794E+02 -0.27887302344E+02  0.41338698841E+01  0.30318901561E+02  0.24999995327E+00 0.  0.
        -13    1    4    4    0    0 -0.93153445453E+01  0.11449116283E+02  0.10296402778E+01  0.14796252626E+02  0.10500000000E+00 0.  1.
         13    1    4    4    0    0 -0.57820508371E+01  0.71557907514E+01  0.54703868121E+00  0.92167092544E+01  0.10500000000E+00 0. -1.
    3000001    1    5    5    0    0  0.18503222153E+02 -0.26188649222E+02 -0.25315000647E+01  0.32181098034E+02  0.10000000000E+01 0. -1.
        -13    1    6    6    0    0  0.79133214558E+01 -0.19695483144E+02  0.28933832509E+01  0.21422310901E+02  0.10500000000E+00 0. -1.
         13    1    6    6    0    0  0.32393813386E+01 -0.81918192009E+01  0.12404866331E+01  0.88965906596E+01  0.10500000000E+00 0.  1.
</event>
<event>
11    0  0.3422856E-009  0.9118800E+02  0.7816531E-02  0.1126479E+00
         25   -1    0    0    0    0  0.00000000000E+00  0.00000000000E+00  0.99999998245E-14  0.12500000000E+03  0.12500000000E+03 0.  0.
    3000001    1    3    3    0    0 -0.16230660601E+02 -0.55531906606E+01  0.76013839427E+01  0.18789712821E+02  0.10000000000E+01 0. -1.
    1000022    2    1    0    0    0 -0.48328539913E+02 -0.10742112332E+02  0.36813163420E+02  0.62500001361E+02  0.10000021083E+02 0.  0.
    3000022    2    3    3    0    0 -0.32097879313E+02 -0.51889216718E+01  0.29211779477E+02  0.43710288540E+02  0.24999913448E+00 0.  0.
    1000022    2    1    0    0    0  0.48328539913E+02  0.10742112332E+02 -0.36813163420E+02  0.62499998639E+02  0.10000004070E+02 0.  0.
    3000022    2    5    5    0    0  0.39336855291E+02  0.12223040123E+02 -0.28198567464E+02  0.49920062115E+02  0.25000100253E+00 0.  0.
        -13    1    4    4    0    0 -0.14273571410E+02 -0.22433318767E+01  0.12954193511E+02  0.19405914903E+02  0.10500000000E+00 0.  1.
         13    1    4    4    0    0 -0.17824307902E+02 -0.29455897950E+01  0.16257585966E+02  0.24304373637E+02  0.10500000000E+00 0. -1.
    3000001    1    5    5    0    0  0.89916846218E+01 -0.14809277908E+01 -0.86145959556E+01  0.12579936524E+02  0.10000000000E+01 0.  1.
        -13    1    6    6    0    0  0.15418718076E+02  0.47270659211E+01 -0.11025946825E+02  0.19536236785E+02  0.10500000000E+00 0.  1.
         13    1    6    6    0    0  0.23918137216E+02  0.74959742020E+01 -0.17172620639E+02  0.30383825330E+02  0.10500000000E+00 0. -1.
</event>
<event>
11    0  0.3422856E-009  0.9118800E+02  0.7816531E-02  0.1126479E+00
         25   -1    0    0    0    0  0.00000000000E+00  0.00000000000E+00  0.99999998245E-14  0.12500000000E+03  0.12500000000E+03 0.  0.
    3000001    1    3    3    0    0  0.26772065441E+01 -0.33512451305E+02 -0.13939064156E+02  0.36408094387E+02  0.10000000000E+01 0.  1.
    1000022    2    1    0    0    0  0.12732687681E+02 -0.55959508348E+02 -0.22642046253E+02  0.62499998427E+02  0.99999817402E+01 0.  0.
    3000022    2    3    3    0    0  0.10055481136E+02 -0.22447057042E+02 -0.87029820978E+01  0.26091904040E+02  0.24997660536E+00 0.  0.
    1000022    2    1    0    0    0 -0.12732687681E+02  0.55959508348E+02  0.22642046253E+02  0.62500001573E+02  0.10000001398E+02 0.  0.
    3000022    2    5    5    0    0 -0.97606246431E+01  0.22642477646E+02  0.75328436959E+01  0.25782897992E+02  0.25001463362E+00 0.  0.
        -13    1    4    4    0    0  0.64416078976E+01 -0.14441588086E+02 -0.55401023115E+01  0.16755820999E+02  0.10500000000E+00 0. -1.
         13    1    4    4    0    0  0.36138732388E+01 -0.80054689565E+01 -0.31628797863E+01  0.93360830406E+01  0.10500000000E+00 0.  1.
    3000001    1    5    5    0    0 -0.29720630375E+01  0.33317030701E+02  0.15109202557E+02  0.36717103581E+02  0.10000000000E+01 0.  1.
        -13    1    6    6    0    0 -0.31695950241E+01  0.73875130812E+01  0.24035491097E+01  0.83910521071E+01  0.10500000000E+00 0. -1.
         13    1    6    6    0    0 -0.65910296190E+01  0.15254964565E+02  0.51292945862E+01  0.17391845885E+02  0.10500000000E+00 0.  1.
</event>
<event>
11    0  0.3422856E-009  0.9118800E+02  0.7816531E-02  0.1126479E+00
         25   -1    0    0    0    0  0.00000000000E+00  0.00000000000E+00  0.99999998245E-14  0.12500000000E+03  0.12500000000E+03 0.  0.
    3000001    1    3    3    0    0  0.16156321231E+02 -0.36004431564E+02 -0.14415962936E+02  0.42025775368E+02  0.10000000000E+01 0. -1.
    1000022    2    1    0    0    0  0.18020330958E+02 -0.55887584449E+02 -0.18923412171E+02  0.62500000629E+02  0.10000006355E+02 0.  0.
    3000022    2    3    3    0    0  0.18640097267E+01 -0.19883152885E+02 -0.45074492353E+01  0.20474225261E+02  0.25000100818E+00 0.  0.
    1000022    2    1    0    0    0 -0.18020330958E+02  0.55887584449E+02  0.18923412171E+02  0.62499999371E+02  0.99999984917E+01 0.  0.
    3000022    2    5    5    0    0 -0.22975035617E+01  0.15772475324E+02  0.14925911343E+01  0.16010615599E+02  0.24996624853E+00 0.  0.
        -13    1    4    4    0    0  0.94911872928E+00 -0.10774445827E+02 -0.24120888997E+01  0.11082360177E+02  0.10500000000E+00 0.  1.
         13    1    4    4    0    0  0.91489099737E+00 -0.91087070584E+01 -0.20953603356E+01  0.93918650836E+01  0.10500000000E+00 0. -1.
    3000001    1    5    5    0    0 -0.15722827396E+02  0.40115109125E+02  0.17430821037E+02  0.46489383772E+02  0.10000000000E+01 0.  1.
        -13    1    6    6    0    0 -0.94251149278E+00  0.60725663555E+01  0.59769759590E+00  0.61751645704E+01  0.10500000000E+00 0. -1.
         13    1    6    6    0    0 -0.13549920689E+01  0.96999089683E+01  0.89489353840E+00  0.98354510290E+01  0.10500000000E+00 0.  1.
</event>
<event>
11    0  0.3422856E-009  0.9118800E+02  0.7816531E-02  0.1126479E+00
         25   -1    0    0    0    0  0.00000000000E+00  0.00000000000E+00  0.99999998245E-14  0.12500000000E+03  0.12500000000E+03 0.  0.
    3000001    1    3    3    0    0 -0.40150212365E+02  0.34504769083E+02 -0.77487740555E+01  0.53513195959E+02  0.10000000000E+01 0. -1.
    1000022    2    1    0    0    0 -0.44955006337E+02  0.40323039915E+02 -0.12623383308E+02  0.62499999581E+02  0.99999999319E+01 0.  0.
    3000022    2    3    3    0    0 -0.48047939723E+01  0.58182708321E+01 -0.48746092527E+01  0.89868036211E+01  0.25000673300E+00 0.  0.
    1000022    2    1    0    0    0  0.44955006337E+02 -0.40323039915E+02  0.12623383308E+02  0.62500000419E+02  0.10000005175E+02 0.  0.
    3000022    2    5    5    0    0  0.12823750151E+01 -0.77115267315E+00  0.21747724712E+01  0.26516589267E+01  0.24999527467E+00 0.  0.
        -13    1    4    4    0    0 -0.26948282176E+01  0.33409681328E+01 -0.27210463355E+01  0.50832357162E+01  0.10500000000E+00 0.  1.
         13    1    4    4    0    0 -0.21099657548E+01  0.24773026993E+01 -0.21535629172E+01  0.39035679049E+01  0.10500000000E+00 0. -1.
    3000001    1    5    5    0    0  0.43672631322E+02 -0.39551887242E+02  0.10448610837E+02  0.59848341493E+02  0.10000000000E+01 0. -1.
        -13    1    6    6    0    0  0.79203784754E+00 -0.48477273809E+00  0.14482286382E+01  0.17235776014E+01  0.10500000000E+00 0. -1.
         13    1    6    6    0    0  0.49033716753E+00 -0.28637993506E+00  0.72654383300E+00  0.92808132529E+00  0.10500000000E+00 0.  1.
</event>
<event>
11    0  0.3422856E-009  0.9118800E+02  0.7816531E-02  0.1126479E+00
         25   -1    0    0    0    0  0.00000000000E+00  0.00000000000E+00  0.99999998245E-14  0.12500000000E+03  0.12500000000E+03 0.  0.
    3000001    1    3    3    0    0 -0.31609319260E+01  0.65628879838E+01 -0.40292681370E+01  0.83843897243E+01  0.10000000000E+01 0. -1.
    1000022    2    1    0    0    0 -0.12382416326E+02  0.59425978205E+02 -0.11021742372E+02  0.62500000037E+02  0.10000004003E+02 0.  0.
    3000022    2    3    3    0    0 -0.92214844003E+01  0.52863090221E+02 -0.69924742354E+01  0.54115610313E+02  0.25000272590E+00 0.  0.
    1000022    2    1    0    0    0  0.12382416326E+02 -0.59425978205E+02  0.11021742372E+02  0.62499999963E+02  0.10000003537E+02 0.  0.
    3000022    2    5    5    0    0 -0.10986380723E+01 -0.17101526008E+01  0.13122037890E+01  0.24322840718E+01  0.24999898059E+00 0.  0.
        -13    1    4    4    0    0 -0.51137542253E+01  0.28927748504E+02 -0.38333174139E+01  0.29625503594E+02  0.10500000000E+00 0. -1.
         13    1    4    4    0    0 -0.41077301751E+01  0.23935341717E+02 -0.31591568215E+01  0.24490106719E+02  0.10500000000E+00 0.  1.
    3000001    1    5    5    0    0  0.13481054399E+02 -0.57715825604E+02  0.97095385835E+01  0.60067715891E+02  0.10000000000E+01 0. -1.
        -13    1    6    6    0    0 -0.30812519817E+00 -0.56726358889E+00  0.43937741040E+00  0.78791282881E+00  0.10500000000E+00 0. -1.
         13    1    6    6    0    0 -0.79051287415E+00 -0.11428890119E+01  0.87282637855E+00  0.16443712430E+01  0.10500000000E+00 0.  1.
</event>
<event>
11    0  0.3422856E-009  0.9118800E+02  0.7816531E-02  0.1126479E+00
         25   -1    0    0    0    0  0.00000000000E+00  0.00000000000E+00  0.99999998245E-14  0.12500000000E+03  0.12500000000E+03 0.  0.
    3000001    1    3    3    0    0 -0.25195324276E+02  0.31527835625E+02 -0.45001170511E+02  0.60455885834E+02  0.10000000000E+01 0.  1.
    1000022    2    1    0    0    0 -0.24240074769E+02  0.32467977053E+02 -0.46524179171E+02  0.62499999694E+02  0.99999977766E+01 0.  0.
    3000022    2    3    3    0    0  0.95524950691E+00  0.94014142707E+00 -0.15230086597E+01  0.20441138600E+01  0.24995713981E+00 0.  0.
    1000022    2    1    0    0    0  0.24240074769E+02 -0.32467977053E+02  0.46524179171E+02  0.62500000306E+02  0.10000001605E+02 0.  0.
    3000022    2    5    5    0    0  0.18513268006E+02 -0.25435935605E+02  0.41522110838E+02  0.52094876077E+02  0.25002534856E+00 0.  0.
        -13    1    4    4    0    0  0.57822028529E+00  0.48738809742E+00 -0.90024179566E+00  0.11804008414E+01  0.10500000000E+00 0. -1.
         13    1    4    4    0    0  0.37702922162E+00  0.45275332965E+00 -0.62276686406E+00  0.86371301856E+00  0.10500000000E+00 0.  1.
    3000001    1    5    5    0    0  0.57268067627E+01 -0.70320414478E+01  0.50020683322E+01  0.10405124229E+02  0.10000000000E+01 0.  1.
        -13    1    6    6    0    0  0.89802023844E+01 -0.12453124327E+02  0.20270802266E+02  0.25429132700E+02  0.10500000000E+00 0.  1.
         13    1    6    6    0    0  0.95330656220E+01 -0.12982811278E+02  0.21251308572E+02  0.26665743377E+02  0.10500000000E+00 0. -1.
</event>
<event>
11    0  0.3422856E-009  0.9118800E+02  0.7816531E-02  0.1126479E+00
         25   -1    0    0    0    0  0.00000000000E+00  0.00000000000E+00  0.99999998245E-14  0.12500000000E+03  0.12500000000E+03 0.  0.
    3000001    1    3    3    0    0  0.27267016445E+02 -0.43128686554E+02 -0.30781621268E+02  0.59599345613E+02  0.10000000000E+01 0. -1.
    1000022    2    1    0    0    0  0.27380325818E+02 -0.43940648143E+02 -0.33552757793E+02  0.62500002503E+02  0.99999978157E+01 0.  0.
    3000022    2    3    3    0    0  0.11330937289E+00 -0.81196158902E+00 -0.27711365247E+01  0.29006568898E+01  0.24998423568E+00 0.  0.
    1000022    2    1    0    0    0 -0.27380325818E+02  0.43940648143E+02  0.33552757793E+02  0.62499997497E+02  0.99999665262E+01 0.  0.
    3000022    2    5    5    0    0  0.58269564474E+00  0.25196568932E+01  0.72343627365E+00  0.26970424126E+01  0.24994531352E+00 0.  0.
        -13    1    4    4    0    0  0.13086142197E+00 -0.50344288877E+00 -0.17327677468E+01  0.18122054294E+01  0.10500000000E+00 0.  1.
         13    1    4    4    0    0 -0.17552049089E-01 -0.30851870025E+00 -0.10383687779E+01  0.10884514604E+01  0.10500000000E+00 0. -1.
    3000001    1    5    5    0    0 -0.27963021463E+02  0.41420991249E+02  0.32829321519E+02  0.59802955084E+02  0.10000000000E+01 0. -1.
        -13    1    6    6    0    0  0.36836713425E+00  0.13466602347E+01  0.35086362099E+00  0.14433705047E+01  0.10500000000E+00 0.  1.
         13    1    6    6    0    0  0.21432851049E+00  0.11729966585E+01  0.37257265266E+00  0.12536719079E+01  0.10500000000E+00 0. -1.
</event>
<event>
11    0  0.3422856E-009  0.9118800E+02  0.7816531E-02  0.1126479E+00
         25   -1    0    0    0    0  0.00000000000E+00  0.00000000000E+00  0.99999998245E-14  0.12500000000E+03  0.12500000000E+03 0.  0.
    3000001    1    3    3    0    0  0.22491235512E+02 -0.30394872949E+01  0.38946581492E+02  0.45088029097E+02  0.10000000000E+01 0.  1.
    1000022    2    1    0    0    0  0.25454399946E+02 -0.33285381268E+01  0.56100307046E+02  0.62499999144E+02  0.99999899856E+01 0.  0.
    3000022    2    3    3    0    0  0.29631644338E+01 -0.28905083194E+00  0.17153725554E+02  0.17411970048E+02  0.25001344999E+00 0.  0.
    1000022    2    1    0    0    0 -0.25454399946E+02  0.33285381268E+01 -0.56100307046E+02  0.62500000856E+02  0.10000000681E+02 0.  0.
    3000022    2    5    5    0    0 -0.91554904383E-01  0.21206933586E+01 -0.45264305485E+01  0.50056747480E+01  0.24996709800E+00 0.  0.
        -13    1    4    4    0    0  0.20145619837E+01 -0.23734104615E+00  0.11487271153E+02  0.11665471028E+02  0.10500000000E+00 0. -1.
         13    1    4    4    0    0  0.94860245013E+00 -0.51709785793E-01  0.56664544005E+01  0.57464990197E+01  0.10500000000E+00 0.  1.
    3000001    1    5    5    0    0 -0.25362845042E+02  0.12078447682E+01 -0.51573876498E+02  0.57494326108E+02  0.10000000000E+01 0.  1.
        -13    1    6    6    0    0 -0.70669425249E-01  0.15833028650E+01 -0.32964243050E+01  0.36591365551E+01  0.10500000000E+00 0.  1.
         13    1    6    6    0    0 -0.20885479134E-01  0.53739049364E+00 -0.12300062435E+01  0.13465381929E+01  0.10500000000E+00 0. -1.
</event>
<event>
11    0  0.3422856E-009  0.9118800E+02  0.7816531E-02  0.1126479E+00
         25   -1    0    0    0    0  0.00000000000E+00  0.00000000000E+00  0.99999998245E-14  0.12500000000E+03  0.12500000000E+03 0.  0.
    3000001    1    3    3    0    0  0.92894390968E+01  0.52745750648E+02 -0.39357863399E+01  0.53711249327E+02  0.10000000000E+01 0.  1.
    1000022    2    1    0    0    0  0.14439552822E+02  0.59760772369E+02 -0.51380527257E+01  0.62500000191E+02  0.99999919150E+01 0.  0.
    3000022    2    3    3    0    0  0.51501137248E+01  0.70150217203E+01 -0.12022663858E+01  0.87887508638E+01  0.24999233934E+00 0.  0.
    1000022    2    1    0    0    0 -0.14439552822E+02 -0.59760772369E+02  0.51380527257E+01  0.62499999809E+02  0.99999895272E+01 0.  0.
    3000022    2    5    5    0    0 -0.55435911157E+01 -0.35947779797E+02 -0.77484232079E+00  0.36381824572E+02  0.25000753724E+00 0.  0.
        -13    1    4    4    0    0  0.19959413666E+01  0.28218533563E+01 -0.49218909481E+00  0.34928374438E+01  0.10500000000E+00 0. -1.
         13    1    4    4    0    0  0.31541723581E+01  0.41931683640E+01 -0.71007729100E+00  0.52959134201E+01  0.10500000000E+00 0.  1.
    3000001    1    5    5    0    0 -0.88959617058E+01 -0.23812992571E+02  0.59128950465E+01  0.26118175237E+02  0.10000000000E+01 0.  1.
        -13    1    6    6    0    0 -0.16933756856E+01 -0.11123818332E+02 -0.19663608018E+00  0.11254179056E+02  0.10500000000E+00 0.  1.
         13    1    6    6    0    0 -0.38502154302E+01 -0.24823961466E+02 -0.57820624061E+00  0.25127645516E+02  0.10500000000E+00 0. -1.
</event>
<event>
11    0  0.3422856E-009  0.9118800E+02  0.7816531E-02  0.1126479E+00
         25   -1    0    0    0    0  0.00000000000E+00  0.00000000000E+00  0.99999998245E-14  0.12500000000E+03  0.12500000000E+03 0.  0.
    3000001    1    3    3    0    0 -0.10506703259E+02 -0.48365889261E+01 -0.16282538725E+01  0.11723251106E+02  0.10000000000E+01 0.  1.
    1000022    2    1    0    0    0 -0.50969456650E+02 -0.33481071835E+02  0.93478506137E+01  0.62499999644E+02  0.99999981005E+01 0.  0.
    3000022    2    3    3    0    0 -0.40462753391E+02 -0.28644482909E+02  0.10976104486E+02  0.50776748538E+02  0.25001870407E+00 0.  0.
    1000022    2    1    0    0    0  0.50969456650E+02  0.33481071835E+02 -0.93478506137E+01  0.62500000356E+02  0.10000002550E+02 0.  0.
    3000022    2    5    5    0    0  0.75683451089E+01  0.88962369031E+01  0.29338866092E+00  0.11686379285E+02  0.25001031326E+00 0.  0.
        -13    1    4    4    0    0 -0.16318094878E+02 -0.11626927060E+02  0.44189197684E+01  0.20518370555E+02  0.10500000000E+00 0.  1.
         13    1    4    4    0    0 -0.24144658513E+02 -0.17017555849E+02  0.65571847178E+01  0.30258377983E+02  0.10500000000E+00 0. -1.
    3000001    1    5    5    0    0  0.43401111541E+02  0.24584834932E+02 -0.96412392747E+01  0.50813621071E+02  0.10000000000E+01 0. -1.
        -13    1    6    6    0    0  0.49500154066E+01  0.57350511899E+01  0.17303323386E+00  0.75785506646E+01  0.10500000000E+00 0. -1.
         13    1    6    6    0    0  0.26183297023E+01  0.31611857133E+01  0.12035542706E+00  0.41078286202E+01  0.10500000000E+00 0.  1.
</event>
<event>
11    0  0.3422856E-009  0.9118800E+02  0.7816531E-02  0.1126479E+00
         25   -1    0    0    0    0  0.00000000000E+00  0.00000000000E+00  0.99999998245E-14  0.12500000000E+03  0.12500000000E+03 0.  0.
    3000001    1    3    3    0    0  0.21312456506E+01  0.10264522510E+02  0.10351990389E+00  0.10531540569E+02  0.10000000000E+01 0.  1.
    1000022    2    1    0    0    0  0.20765720729E+02  0.55083598488E+02 -0.18461636572E+02  0.62499999917E+02  0.99999992458E+01 0.  0.
    3000022    2    3    3    0    0  0.18634475079E+02  0.44819075977E+02 -0.18565156476E+02  0.51968459348E+02  0.24999814007E+00 0.  0.
    1000022    2    1    0    0    0 -0.20765720729E+02 -0.55083598488E+02  0.18461636572E+02  0.62500000083E+02  0.10000000289E+02 0.  0.
    3000022    2    5    5    0    0 -0.88926048356E+01 -0.16674796605E+02  0.18506201819E+01  0.18989854042E+02  0.24999775931E+00 0.  0.
        -13    1    4    4    0    0  0.10469989979E+02  0.25242340481E+02 -0.10386140168E+02  0.29234899961E+02  0.10500000000E+00 0.  1.
         13    1    4    4    0    0  0.81644850996E+01  0.19576735496E+02 -0.81790163080E+01  0.22733559387E+02  0.10500000000E+00 0. -1.
    3000001    1    5    5    0    0 -0.11873115893E+02 -0.38408801882E+02  0.16611016390E+02  0.43510146041E+02  0.10000000000E+01 0.  1.
        -13    1    6    6    0    0 -0.42213983426E+01 -0.78829657920E+01  0.80966333081E+00  0.89793058393E+01  0.10500000000E+00 0. -1.
         13    1    6    6    0    0 -0.46712064930E+01 -0.87918308135E+01  0.10409568511E+01  0.10010548203E+02  0.10500000000E+00 0.  1.
</event>
<event>
11    0  0.3422856E-009  0.9118800E+02  0.7816531E-02  0.1126479E+00
         25   -1    0    0    0    0  0.00000000000E+00  0.00000000000E+00  0.99999998245E-14  0.12500000000E+03  0.12500000000E+03 0.  0.
    3000001    1    3    3    0    0  0.18968992873E+02 -0.38430349444E+02 -0.10049139365E+02  0.44030667165E+02  0.10000000000E+01 0.  1.
    1000022    2    1    0    0    0  0.20784757834E+02 -0.55986463962E+02 -0.15484174574E+02  0.62500000341E+02  0.10000003760E+02 0.  0.
    3000022    2    3    3    0    0  0.18157649613E+01 -0.17556114518E+02 -0.54350352083E+01  0.18469333176E+02  0.25000177741E+00 0.  0.
    1000022    2    1    0    0    0 -0.20784757834E+02  0.55986463962E+02  0.15484174574E+02  0.62499999659E+02  0.99999994946E+01 0.  0.
    3000022    2    5    5    0    0 -0.15786284998E+02  0.50515058437E+02  0.14984773394E+02  0.55005307493E+02  0.24999168976E+00 0.  0.
        -13    1    4    4    0    0  0.50356092389E+00 -0.48725875029E+01 -0.15493168649E+01  0.51387829615E+01  0.10500000000E+00 0. -1.
         13    1    4    4    0    0  0.13122040374E+01 -0.12683527015E+02 -0.38857183434E+01  0.13330550215E+02  0.10500000000E+00 0.  1.
    3000001    1    5    5    0    0 -0.49984728359E+01  0.54714055254E+01  0.49940117943E+00  0.74946921653E+01  0.10000000000E+01 0. -1.
        -13    1    6    6    0    0 -0.85757195546E+01  0.27315538654E+02  0.80485369084E+01  0.29740067068E+02  0.10500000000E+00 0. -1.
         13    1    6    6    0    0 -0.72105654439E+01  0.23199519783E+02  0.69362364857E+01  0.25265240425E+02  0.10500000000E+00 0.  1.
</event>
<event>
11    0  0.3422856E-009  0.9118800E+02  0.7816531E-02  0.1126479E+00
         25   -1    0    0    0    0  0.00000000000E+00  0.00000000000E+00  0.99999998245E-14  0.12500000000E+03  0.12500000000E+03 0.  0.
    3000001    1    3    3    0    0 -0.39826519022E+02 -0.20232921489E+02  0.31133924471E+02  0.54459562819E+02  0.10000000000E+01 0.  1.
    1000022    2    1    0    0    0 -0.42829677685E+02 -0.25667845235E+02  0.36235763179E+02  0.62499999113E+02  0.99999893154E+01 0.  0.
    3000022    2    3    3    0    0 -0.30031586628E+01 -0.54349237468E+01  0.51018387079E+01  0.80404362945E+01  0.24999903466E+00 0.  0.
    1000022    2    1    0    0    0  0.42829677685E+02  0.25667845235E+02 -0.36235763179E+02  0.62500000887E+02  0.10000000403E+02 0.  0.
    3000022    2    5    5    0    0  0.34003554762E+02  0.24354581562E+02 -0.31402687177E+02  0.52302759545E+02  0.25002926764E+00 0.  0.
        -13    1    4    4    0    0 -0.99554173469E+00 -0.18704398255E+01  0.17987092090E+01  0.27813716589E+01  0.10500000000E+00 0. -1.
         13    1    4    4    0    0 -0.20076169281E+01 -0.35644839213E+01  0.33031294989E+01  0.52590646356E+01  0.10500000000E+00 0.  1.
    3000001    1    5    5    0    0  0.88261229236E+01  0.13132636736E+01 -0.48330760018E+01  0.10197241342E+02  0.10000000000E+01 0. -1.
        -13    1    6    6    0    0  0.16307331381E+02  0.11726275199E+02 -0.15010038471E+02  0.25074825357E+02  0.10500000000E+00 0.  1.
         13    1    6    6    0    0  0.17696223381E+02  0.12628306363E+02 -0.16392648706E+02  0.27227934188E+02  0.10500000000E+00 0. -1.
</event>
<event>
11    0  0.3422856E-009  0.9118800E+02  0.7816531E-02  0.1126479E+00
         25   -1    0    0    0    0  0.00000000000E+00  0.00000000000E+00  0.99999998245E-14  0.12500000000E+03  0.12500000000E+03 0.  0.
    3000001    1    3    3    0    0  0.97019047837E+01  0.14647921090E+02 -0.19463366599E+02  0.26239496719E+02  0.10000000000E+01 0.  1.
    1000022    2    1    0    0    0  0.11806657668E+02  0.35781266313E+02 -0.48852368151E+02  0.62500001102E+02  0.10000003977E+02 0.  0.
    3000022    2    3    3    0    0  0.21047528848E+01  0.21133345223E+02 -0.29389001551E+02  0.36260504383E+02  0.25000177454E+00 0.  0.
    1000022    2    1    0    0    0 -0.11806657668E+02 -0.35781266313E+02  0.48852368151E+02  0.62499998898E+02  0.99999902033E+01 0.  0.
    3000022    2    5    5    0    0 -0.38358921382E+01 -0.22013043305E+02  0.22566451729E+02  0.31758390774E+02  0.24999371169E+00 0.  0.
        -13    1    4    4    0    0  0.12351005905E+01  0.13017657188E+02 -0.18084194534E+02  0.22316675135E+02  0.10500000000E+00 0. -1.
         13    1    4    4    0    0  0.86965229429E+00  0.81156880351E+01 -0.11304807017E+02  0.13943829247E+02  0.10500000000E+00 0.  1.
    3000001    1    5    5    0    0 -0.79707655302E+01 -0.13768223008E+02  0.26285916422E+02  0.30741608124E+02  0.10000000000E+01 0. -1.
        -13    1    6    6    0    0 -0.14813585558E+01 -0.88436980786E+01  0.90887011450E+01  0.12767965084E+02  0.10500000000E+00 0. -1.
         13    1    6    6    0    0 -0.23545335825E+01 -0.13169345227E+02  0.13477750584E+02  0.18990425690E+02  0.10500000000E+00 0.  1.
</event>
<event>
11    0  0.3422856E-009  0.9118800E+02  0.7816531E-02  0.1126479E+00
         25   -1    0    0    0    0  0.00000000000E+00  0.00000000000E+00  0.99999998245E-14  0.12500000000E+03  0.12500000000E+03 0.  0.
    3000001    1    3    3    0    0 -0.22992571968E+02 -0.30863307738E+02 -0.22334910772E+02  0.44508992007E+02  0.10000000000E+01 0. -1.
    1000022    2    1    0    0    0 -0.32574970737E+02 -0.45746421738E+02 -0.25541849230E+02  0.62500000978E+02  0.10000011993E+02 0.  0.
    3000022    2    3    3    0    0 -0.95823987682E+01 -0.14883114000E+02 -0.32069384574E+01  0.17991008971E+02  0.25000208568E+00 0.  0.
    1000022    2    1    0    0    0  0.32574970737E+02  0.45746421738E+02  0.25541849230E+02  0.62499999022E+02  0.99999997681E+01 0.  0.
    3000022    2    5    5    0    0  0.23916757388E+02  0.26880930436E+02  0.13177738807E+02  0.38318546481E+02  0.24999856274E+00 0.  0.
        -13    1    4    4    0    0 -0.32032253700E+01 -0.50758636805E+01 -0.10906625315E+01  0.61012797536E+01  0.10500000000E+00 0.  1.
         13    1    4    4    0    0 -0.63791733982E+01 -0.98072503193E+01 -0.21162759259E+01  0.11889729217E+02  0.10500000000E+00 0. -1.
    3000001    1    5    5    0    0  0.86582133487E+01  0.18865491302E+02  0.12364110423E+02  0.24181452541E+02  0.10000000000E+01 0.  1.
        -13    1    6    6    0    0  0.14653228811E+02  0.16428528940E+02  0.81215948172E+01  0.23464547835E+02  0.10500000000E+00 0. -1.
         13    1    6    6    0    0  0.92635285768E+01  0.10452401497E+02  0.50561439894E+01  0.14853998646E+02  0.10500000000E+00 0.  1.
</event>
<event>
11    0  0.3422856E-009  0.9118800E+02  0.7816531E-02  0.1126479E+00
         25   -1    0    0    0    0  0.00000000000E+00  0.00000000000E+00  0.99999998245E-14  0.12500000000E+03  0.12500000000E+03 0.  0.
    3000001    1    3    3    0    0  0.14835476588E+02 -0.51419525896E+02  0.22091988946E+02  0.57906087629E+02  0.10000000000E+01 0. -1.
    1000022    2    1    0    0    0  0.13405668976E+02 -0.54938451898E+02  0.24663821585E+02  0.62499997845E+02  0.10000008894E+02 0.  0.
    3000022    2    3    3    0    0 -0.14298076122E+01 -0.35189260020E+01  0.25718326393E+01  0.45939102162E+01  0.24999586888E+00 0.  0.
    1000022    2    1    0    0    0 -0.13405668976E+02  0.54938451898E+02 -0.24663821585E+02  0.62500002155E+02  0.10000035829E+02 0.  0.
    3000022    2    5    5    0    0  0.10489277558E+01  0.97011883453E+01 -0.24624711368E+01  0.10066755621E+02  0.24999976284E+00 0.  0.
        -13    1    4    4    0    0 -0.82889889514E+00 -0.19763197552E+01  0.15243748653E+01  0.26320442404E+01  0.10500000000E+00 0.  1.
         13    1    4    4    0    0 -0.60090871708E+00 -0.15426062468E+01  0.10474577740E+01  0.19618659758E+01  0.10500000000E+00 0. -1.
    3000001    1    5    5    0    0 -0.14454596732E+02  0.45237263552E+02 -0.22201350448E+02  0.52433246534E+02  0.10000000000E+01 0. -1.
        -13    1    6    6    0    0  0.36036097373E+00  0.37146533652E+01 -0.89524324183E+00  0.38394003590E+01  0.10500000000E+00 0. -1.
         13    1    6    6    0    0  0.68856678211E+00  0.59865349801E+01 -0.15672278949E+01  0.62273552618E+01  0.10500000000E+00 0.  1.
</event>
<event>
11    0  0.3422856E-009  0.9118800E+02  0.7816531E-02  0.1126479E+00
         25   -1    0    0    0    0  0.00000000000E+00  0.00000000000E+00  0.99999998245E-14  0.12500000000E+03  0.12500000000E+03 0.  0.
    3000001    1    3    3    0    0 -0.62022709224E+01 -0.30701898263E+01 -0.65052010252E+00  0.70226353008E+01  0.10000000000E+01 0.  1.
    1000022    2    1    0    0    0 -0.38078622796E+02 -0.47765796806E+02 -0.86427657958E+01  0.62499996313E+02  0.99999640042E+01 0.  0.
    3000022    2    3    3    0    0 -0.31876351873E+02 -0.44695606979E+02 -0.79922456933E+01  0.55477361013E+02  0.25000340734E+00 0.  0.
    1000022    2    1    0    0    0  0.38078622796E+02  0.47765796806E+02  0.86427657958E+01  0.62500003687E+02  0.10000010087E+02 0.  0.
    3000022    2    5    5    0    0  0.22390516843E+01  0.23130667310E+01 -0.17658073935E+01  0.36802457431E+01  0.25000566465E+00 0.  0.
        -13    1    4    4    0    0 -0.10399276578E+02 -0.14498848177E+02 -0.25776922105E+01  0.18028229916E+02  0.10500000000E+00 0.  1.
         13    1    4    4    0    0 -0.21477075296E+02 -0.30196758803E+02 -0.54145534828E+01  0.37449131096E+02  0.10500000000E+00 0. -1.
    3000001    1    5    5    0    0  0.35839571112E+02  0.45452730075E+02  0.10408573189E+02  0.58819757943E+02  0.10000000000E+01 0.  1.
        -13    1    6    6    0    0  0.62786808053E+00  0.70073335214E+00 -0.54582928970E+00  0.10927946609E+01  0.10500000000E+00 0.  1.
         13    1    6    6    0    0  0.16111836037E+01  0.16123333788E+01 -0.12199781038E+01  0.25874510823E+01  0.10500000000E+00 0. -1.
</event>
<event>
11    0  0.3422856E-009  0.9118800E+02  0.7816531E-02  0.1126479E+00
         25   -1    0    0    0    0  0.00000000000E+00  0.00000000000E+00  0.99999998245E-14  0.12500000000E+03  0.12500000000E+03 0.  0.
    3000001    1    3    3    0    0  0.45204568269E+02  0.44671206147E+01  0.43061265960E+01  0.45639356757E+02  0.10000000000E+01 0.  1.
    1000022    2    1    0    0    0  0.61343814230E+02  0.15216509791E+00  0.65698918820E+01  0.62499998339E+02  0.99999807235E+01 0.  0.
    3000022    2    3    3    0    0  0.16139245962E+02 -0.43149555167E+01  0.22637652860E+01  0.16860641582E+02  0.24999990827E+00 0.  0.
    1000022    2    1    0    0    0 -0.61343814230E+02 -0.15216509791E+00 -0.65698918820E+01  0.62500001661E+02  0.10000001487E+02 0.  0.
    3000022    2    5    5    0    0 -0.60757292365E+02 -0.91109997826E+00 -0.63256453270E+01  0.61093002574E+02  0.24999194715E+00 0.  0.
        -13    1    4    4    0    0  0.37371358286E+01 -0.10093145307E+01  0.52220644276E+00  0.39075087450E+01  0.10500000000E+00 0.  1.
         13    1    4    4    0    0  0.12402110133E+02 -0.33056409860E+01  0.17415588433E+01  0.12953132837E+02  0.10500000000E+00 0. -1.
    3000001    1    5    5    0    0 -0.58652186497E+00  0.75893488035E+00 -0.24424655503E+00  0.14069990868E+01  0.10000000000E+01 0.  1.
        -13    1    6    6    0    0 -0.40682558292E+02 -0.60153463852E+00 -0.41830452105E+01  0.40901604923E+02  0.10500000000E+00 0. -1.
         13    1    6    6    0    0 -0.20074734074E+02 -0.30956533974E+00 -0.21426001165E+01  0.20191397651E+02  0.10500000000E+00 0.  1.
</event>
<event>
11    0  0.3422856E-009  0.9118800E+02  0.7816531E-02  0.1126479E+00
         25   -1    0    0    0    0  0.00000000000E+00  0.00000000000E+00  0.99999998245E-14  0.12500000000E+03  0.12500000000E+03 0.  0.
    3000001    1    3    3    0    0 -0.13923531795E+02  0.18687302637E+02  0.20814671238E+02  0.31262286484E+02  0.10000000000E+01 0. -1.
    1000022    2    1    0    0    0 -0.35656371665E+02  0.35265459344E+02  0.35933558550E+02  0.62500001585E+02  0.10000005251E+02 0.  0.
    3000022    2    3    3    0    0 -0.21732839870E+02  0.16578156708E+02  0.15118887312E+02  0.31237715101E+02  0.24996507823E+00 0.  0.
    1000022    2    1    0    0    0  0.35656371665E+02 -0.35265459344E+02 -0.35933558550E+02  0.62499998415E+02  0.99999854341E+01 0.  0.
    3000022    2    5    5    0    0  0.30249601971E+01  0.59041485492E-01 -0.20288723462E+01  0.36514035305E+01  0.25010928407E+00 0.  0.
        -13    1    4    4    0    0 -0.10727168723E+02  0.81321506353E+01  0.73833257189E+01  0.15353453893E+02  0.10500000000E+00 0.  1.
         13    1    4    4    0    0 -0.11005671148E+02  0.84460060722E+01  0.77355615932E+01  0.15884261209E+02  0.10500000000E+00 0. -1.
    3000001    1    5    5    0    0  0.32631411468E+02 -0.35324500830E+02 -0.33904686204E+02  0.58848594884E+02  0.10000000000E+01 0.  1.
        -13    1    6    6    0    0  0.17260749859E+01  0.12909781724E-01 -0.10815981480E+01  0.20397012216E+01  0.10500000000E+00 0. -1.
         13    1    6    6    0    0  0.12988852112E+01  0.46131703768E-01 -0.94727419816E+00  0.16117023089E+01  0.10500000000E+00 0.  1.
</event>
<event>
11    0  0.3422856E-009  0.9118800E+02  0.7816531E-02  0.1126479E+00
         25   -1    0    0    0    0  0.00000000000E+00  0.00000000000E+00  0.99999998245E-14  0.12500000000E+03  0.12500000000E+03 0.  0.
    3000001    1    3    3    0    0 -0.14705625564E+02  0.51618489949E+01  0.20502156977E+02  0.25772825785E+02  0.10000000000E+01 0.  1.
    1000022    2    1    0    0    0 -0.42811577813E+02  0.16508156162E+02  0.41241964805E+02  0.62500000501E+02  0.99999993488E+01 0.  0.
    3000022    2    3    3    0    0 -0.28105952249E+02  0.11346307168E+02  0.20739807828E+02  0.36727174716E+02  0.24999137582E+00 0.  0.
    1000022    2    1    0    0    0  0.42811577813E+02 -0.16508156162E+02 -0.41241964805E+02  0.62499999499E+02  0.99999930842E+01 0.  0.
    3000022    2    5    5    0    0  0.43734770485E+01 -0.32110200618E+01 -0.15218245393E+01  0.56406030761E+01  0.25000360531E+00 0.  0.
        -13    1    4    4    0    0 -0.16900140173E+02  0.67602450304E+01  0.12424362156E+02  0.22038408534E+02  0.10500000000E+00 0. -1.
         13    1    4    4    0    0 -0.11205812076E+02  0.45860621371E+01  0.83154456725E+01  0.14688766182E+02  0.10500000000E+00 0.  1.
    3000001    1    5    5    0    0  0.38438100764E+02 -0.13297136101E+02 -0.39720140265E+02  0.56859396423E+02  0.10000000000E+01 0. -1.
        -13    1    6    6    0    0  0.28921385159E+01 -0.20994522133E+01 -0.94834766161E+00  0.36989935224E+01  0.10500000000E+00 0. -1.
         13    1    6    6    0    0  0.14813385326E+01 -0.11115678484E+01 -0.57347687771E+00  0.19416095537E+01  0.10500000000E+00 0.  1.
</event>
<event>
11    0  0.3422856E-009  0.9118800E+02  0.7816531E-02  0.1126479E+00
         25   -1    0    0    0    0  0.00000000000E+00  0.00000000000E+00  0.99999998245E-14  0.12500000000E+03  0.12500000000E+03 0.  0.
    3000001    1    3    3    0    0 -0.42648359595E+02 -0.26211415877E+02  0.19011069456E+00  0.50069522072E+02  0.10000000000E+01 0. -1.
    1000022    2    1    0    0    0 -0.52364893354E+02 -0.32223903561E+02  0.50781828802E+01  0.62500000162E+02  0.10000003107E+02 0.  0.
    3000022    2    3    3    0    0 -0.97165337590E+01 -0.60124876848E+01  0.48880721857E+01  0.12430478090E+02  0.24999881771E+00 0.  0.
    1000022    2    1    0    0    0  0.52364893354E+02  0.32223903561E+02 -0.50781828802E+01  0.62499999838E+02  0.10000001084E+02 0.  0.
    3000022    2    5    5    0    0  0.15517734210E+02  0.50774895493E+01  0.78388122478E+00  0.16348025598E+02  0.24999206743E+00 0.  0.
        -13    1    4    4    0    0 -0.72525007532E+01 -0.44995731500E+01  0.36220195070E+01  0.92722691945E+01  0.10500000000E+00 0.  1.
         13    1    4    4    0    0 -0.24640330058E+01 -0.15129145348E+01  0.12660526787E+01  0.31582088957E+01  0.10500000000E+00 0. -1.
    3000001    1    5    5    0    0  0.36847159144E+02  0.27146414012E+02 -0.58620641050E+01  0.46151974240E+02  0.10000000000E+01 0. -1.
        -13    1    6    6    0    0  0.98097559514E+01  0.32345363693E+01  0.55023928649E+00  0.10344434524E+02  0.10500000000E+00 0.  1.
         13    1    6    6    0    0  0.57079782587E+01  0.18429531800E+01  0.23364193829E+00  0.60035910738E+01  0.10500000000E+00 0. -1.
</event>
<event>
11    0  0.3422856E-009  0.9118800E+02  0.7816531E-02  0.1126479E+00
         25   -1    0    0    0    0  0.00000000000E+00  0.00000000000E+00  0.99999998245E-14  0.12500000000E+03  0.12500000000E+03 0.  0.
    3000001    1    3    3    0    0  0.21772698483E+02  0.34114264278E+02  0.14864179421E+02  0.43125134856E+02  0.10000000000E+01 0.  1.
    1000022    2    1    0    0    0  0.33754545991E+02  0.44773727153E+02  0.25733129395E+02  0.62500000024E+02  0.10000001815E+02 0.  0.
    3000022    2    3    3    0    0  0.11981847507E+02  0.10659462875E+02  0.10868949974E+02  0.19374865168E+02  0.25001652739E+00 0.  0.
    1000022    2    1    0    0    0 -0.33754545991E+02 -0.44773727153E+02 -0.25733129395E+02  0.62499999976E+02  0.10000001519E+02 0.  0.
    3000022    2    5    5    0    0 -0.24176445991E+02 -0.35619492487E+02 -0.15597407345E+02  0.45788540632E+02  0.25010315137E+00 0.  0.
        -13    1    4    4    0    0  0.88547926748E+01  0.79105740294E+01  0.80701803647E+01  0.14356997280E+02  0.10500000000E+00 0. -1.
         13    1    4    4    0    0  0.31270548327E+01  0.27488888457E+01  0.27987696094E+01  0.50178678878E+01  0.10500000000E+00 0.  1.
    3000001    1    5    5    0    0 -0.95781000003E+01 -0.91542346659E+01 -0.10135722050E+02  0.16711459344E+02  0.10000000000E+01 0.  1.
        -13    1    6    6    0    0 -0.15186424139E+02 -0.22290369894E+02 -0.97326587119E+01  0.28674444001E+02  0.10500000000E+00 0.  1.
         13    1    6    6    0    0 -0.89900218516E+01 -0.13329122593E+02 -0.58647486332E+01  0.17114096632E+02  0.10500000000E+00 0. -1.
</event>
<event>
11    0  0.3422856E-009  0.9118800E+02  0.7816531E-02  0.1126479E+00
         25   -1    0    0    0    0  0.00000000000E+00  0.00000000000E+00  0.99999998245E-14  0.12500000000E+03  0.12500000000E+03 0.  0.
    3000001    1    3    3    0    0  0.48760279888E+02 -0.33847310129E+02 -0.75236827500E+01  0.59839878842E+02  0.10000000000E+01 0.  1.
    1000022    2    1    0    0    0  0.50012582668E+02 -0.34812372125E+02 -0.96483333670E+01  0.62500000751E+02  0.10000003957E+02 0.  0.
    3000022    2    3    3    0    0  0.12523027795E+01 -0.96506199571E+00 -0.21246506169E+01  0.26601219092E+01  0.25000284086E+00 0.  0.
    1000022    2    1    0    0    0 -0.50012582668E+02  0.34812372125E+02  0.96483333670E+01  0.62499999249E+02  0.99999945637E+01 0.  0.
    3000022    2    5    5    0    0 -0.47422641109E+01  0.20914339090E+01  0.35817298932E+01  0.63051132032E+01  0.24999756833E+00 0.  0.
        -13    1    4    4    0    0  0.75100274824E+00 -0.64913021352E+00 -0.13628631563E+01  0.16893182485E+01  0.10500000000E+00 0.  1.
         13    1    4    4    0    0  0.50130003127E+00 -0.31593178219E+00 -0.76178746068E+00  0.97080366068E+00  0.10500000000E+00 0. -1.
    3000001    1    5    5    0    0 -0.45270318557E+02  0.32720938216E+02  0.60666034738E+01  0.56194886045E+02  0.10000000000E+01 0.  1.
        -13    1    6    6    0    0 -0.32170131868E+01  0.13843530874E+01  0.23688277408E+01  0.42294180664E+01  0.10500000000E+00 0.  1.
         13    1    6    6    0    0 -0.15252509241E+01  0.70708082167E+00  0.12129021524E+01  0.20756951368E+01  0.10500000000E+00 0. -1.
</event>
<event>
11    0  0.3422856E-009  0.9118800E+02  0.7816531E-02  0.1126479E+00
         25   -1    0    0    0    0  0.00000000000E+00  0.00000000000E+00  0.99999998245E-14  0.12500000000E+03  0.12500000000E+03 0.  0.
    3000001    1    3    3    0    0 -0.21535186029E+02 -0.92163148654E+01 -0.23194146578E+01  0.23560228805E+02  0.10000000000E+01 0.  1.
    1000022    2    1    0    0    0 -0.58619110847E+02 -0.14006530534E+02 -0.13185858008E+02  0.62499999414E+02  0.10000001062E+02 0.  0.
    3000022    2    3    3    0    0 -0.37083924819E+02 -0.47902156689E+01 -0.10866443350E+02  0.38939770609E+02  0.24999581888E+00 0.  0.
    1000022    2    1    0    0    0  0.58619110847E+02  0.14006530534E+02  0.13185858008E+02  0.62500000586E+02  0.10000008381E+02 0.  0.
    3000022    2    5    5    0    0  0.14071781264E+02  0.13158073463E+01 -0.64196462569E+00  0.14149946740E+02  0.24999451549E+00 0.  0.
        -13    1    4    4    0    0 -0.20939032469E+02 -0.27539795655E+01 -0.60914045045E+01  0.21980530431E+02  0.10500000000E+00 0.  1.
         13    1    4    4    0    0 -0.16144892349E+02 -0.20362361034E+01 -0.47750388458E+01  0.16959240178E+02  0.10500000000E+00 0. -1.
    3000001    1    5    5    0    0  0.44547329584E+02  0.12690723188E+02  0.13827822634E+02  0.48350053846E+02  0.10000000000E+01 0. -1.
        -13    1    6    6    0    0  0.52938878767E+01  0.54942579463E+00 -0.21504632393E+00  0.53277000174E+01  0.10500000000E+00 0.  1.
         13    1    6    6    0    0  0.87778933869E+01  0.76638155169E+00 -0.42691830176E+00  0.88222467224E+01  0.10500000000E+00 0. -1.
</event>
<event>
11    0  0.3422856E-009  0.9118800E+02  0.7816531E-02  0.1126479E+00
         25   -1    0    0    0    0  0.00000000000E+00  0.00000000000E+00  0.99999998245E-14  0.12500000000E+03  0.12500000000E+03 0.  0.
    3000001    1    3    3    0    0 -0.15351804026E+02 -0.23168291693E+02 -0.34754371955E+02  0.44511953415E+02  0.10000000000E+01 0.  1.
    1000022    2    1    0    0    0 -0.17945222602E+02 -0.36914748799E+02 -0.46059964390E+02  0.62500000113E+02  0.10000000066E+02 0.  0.
    3000022    2    3    3    0    0 -0.25934185761E+01 -0.13746457106E+02 -0.11305592435E+02  0.17988046698E+02  0.25000162243E+00 0.  0.
    1000022    2    1    0    0    0  0.17945222602E+02  0.36914748799E+02  0.46059964390E+02  0.62499999887E+02  0.99999986579E+01 0.  0.
    3000022    2    5    5    0    0  0.12727885046E+01  0.80670038690E+01  0.14234946828E+02  0.16413188443E+02  0.25000333259E+00 0.  0.
        -13    1    4    4    0    0 -0.10483981021E+01 -0.59073456483E+01 -0.48592679653E+01  0.77213587760E+01  0.10500000000E+00 0.  1.
         13    1    4    4    0    0 -0.15450204741E+01 -0.78391114578E+01 -0.64463244696E+01  0.10266687922E+02  0.10500000000E+00 0. -1.
    3000001    1    5    5    0    0  0.16672434098E+02  0.28847744930E+02  0.31825017562E+02  0.46086811445E+02  0.10000000000E+01 0.  1.
        -13    1    6    6    0    0  0.29783182807E+00  0.19674873976E+01  0.34346359374E+01  0.39708260450E+01  0.10500000000E+00 0. -1.
         13    1    6    6    0    0  0.97495667652E+00  0.60995164714E+01  0.10800310890E+02  0.12442362398E+02  0.10500000000E+00 0.  1.
</event>
<event>
11    0  0.3422856E-009  0.9118800E+02  0.7816531E-02  0.1126479E+00
         25   -1    0    0    0    0  0.00000000000E+00  0.00000000000E+00  0.99999998245E-14  0.12500000000E+03  0.12500000000E+03 0.  0.
    3000001    1    3    3    0    0 -0.18417723727E+02 -0.52876867476E+02  0.18386902984E+02  0.58942801619E+02  0.10000000000E+01 0. -1.
    1000022    2    1    0    0    0 -0.21411538079E+02 -0.54542447901E+02  0.19311072381E+02  0.62500001294E+02  0.10000002968E+02 0.  0.
    3000022    2    3    3    0    0 -0.29938143519E+01 -0.16655804251E+01  0.92416939617E+00  0.35571996751E+01  0.24999585961E+00 0.  0.
    1000022    2    1    0    0    0  0.21411538079E+02  0.54542447901E+02 -0.19311072381E+02  0.62499998706E+02  0.99999867926E+01 0.  0.
    3000022    2    5    5    0    0  0.43532969871E+01  0.23788475585E+02 -0.94113609214E+01  0.25951473574E+02  0.25000191405E+00 0.  0.
        -13    1    4    4    0    0 -0.22234147082E+01 -0.12204147691E+01  0.65371982983E+00  0.26213278676E+01  0.10500000000E+00 0.  1.
         13    1    4    4    0    0 -0.77039964369E+00 -0.44516565593E+00  0.27044956634E+00  0.93587180754E+00  0.10500000000E+00 0. -1.
    3000001    1    5    5    0    0  0.17058241092E+02  0.30753972316E+02 -0.98997114593E+01  0.36548525132E+02  0.10000000000E+01 0. -1.
        -13    1    6    6    0    0  0.22188497549E+01  0.12377548165E+02 -0.48399141702E+01  0.13474523628E+02  0.10500000000E+00 0. -1.
         13    1    6    6    0    0  0.21344472322E+01  0.11410927419E+02 -0.45714467512E+01  0.12476949946E+02  0.10500000000E+00 0.  1.
</event>
<event>
11    0  0.3422856E-009  0.9118800E+02  0.7816531E-02  0.1126479E+00
         25   -1    0    0    0    0  0.00000000000E+00  0.00000000000E+00  0.99999998245E-14  0.12500000000E+03  0.12500000000E+03 0.  0.
    3000001    1    3    3    0    0 -0.12454442312E+02 -0.33870749133E+02  0.48435001752E+02  0.60409355028E+02  0.10000000000E+01 0. -1.
    1000022    2    1    0    0    0 -0.11139329168E+02 -0.35022903977E+02  0.49553622721E+02  0.62499999635E+02  0.99999986149E+01 0.  0.
    3000022    2    3    3    0    0  0.13151131440E+01 -0.11521548440E+01  0.11186209684E+01  0.20906446069E+01  0.24999727071E+00 0.  0.
    1000022    2    1    0    0    0  0.11139329168E+02  0.35022903977E+02 -0.49553622721E+02  0.62500000365E+02  0.10000003176E+02 0.  0.
    3000022    2    5    5    0    0  0.23618567756E+01  0.83450483807E+01 -0.19560345106E+02  0.21398313016E+02  0.24999871675E+00 0.  0.
        -13    1    4    4    0    0  0.88675439307E+00 -0.70472481667E+00  0.69906315896E+00  0.13351721691E+01  0.10500000000E+00 0. -1.
         13    1    4    4    0    0  0.42835875091E+00 -0.44743002731E+00  0.41955780947E+00  0.75547243782E+00  0.10500000000E+00 0.  1.
    3000001    1    5    5    0    0  0.87774723924E+01  0.26677855597E+02 -0.29993277615E+02  0.41101687349E+02  0.10000000000E+01 0. -1.
        -13    1    6    6    0    0  0.14132241738E+01  0.48200969874E+01 -0.11436729406E+02  0.12491610866E+02  0.10500000000E+00 0. -1.
         13    1    6    6    0    0  0.94863260178E+00  0.35249513933E+01 -0.81236157005E+01  0.89067021499E+01  0.10500000000E+00 0.  1.
</event>
<event>
11    0  0.3422856E-009  0.9118800E+02  0.7816531E-02  0.1126479E+00
         25   -1    0    0    0    0  0.00000000000E+00  0.00000000000E+00  0.99999998245E-14  0.12500000000E+03  0.12500000000E+03 0.  0.
    3000001    1    3    3    0    0 -0.45147549964E+02 -0.67435261563E+01 -0.14251913820E+02  0.47831929298E+02  0.10000000000E+01 0.  1.
    1000022    2    1    0    0    0 -0.56380750665E+02 -0.87911715530E+01 -0.23455830881E+02  0.62499997963E+02  0.10000000014E+02 0.  0.
    3000022    2    3    3    0    0 -0.11233200701E+02 -0.20476453967E+01 -0.92039170605E+01  0.14668068666E+02  0.24999893719E+00 0.  0.
    1000022    2    1    0    0    0  0.56380750665E+02  0.87911715530E+01  0.23455830881E+02  0.62500002037E+02  0.10000025475E+02 0.  0.
    3000022    2    5    5    0    0  0.42633864572E+02  0.62553559158E+01  0.12982224614E+02  0.45004183496E+02  0.24998044296E+00 0.  0.
        -13    1    4    4    0    0 -0.33711745503E+01 -0.57865484840E+00 -0.27952060573E+01  0.44185813543E+01  0.10500000000E+00 0. -1.
         13    1    4    4    0    0 -0.78620261504E+01 -0.14689905483E+01 -0.64087110031E+01  0.10249487311E+02  0.10500000000E+00 0.  1.
    3000001    1    5    5    0    0  0.13746886093E+02  0.25358156372E+01  0.10473606266E+02  0.17495818541E+02  0.10000000000E+01 0.  1.
        -13    1    6    6    0    0  0.29538490062E+02  0.43255563860E+01  0.89451211397E+01  0.31165029286E+02  0.10500000000E+00 0.  1.
         13    1    6    6    0    0  0.13095374510E+02  0.19297995298E+01  0.40371034747E+01  0.13839154210E+02  0.10500000000E+00 0. -1.
</event>
<event>
11    0  0.3422856E-009  0.9118800E+02  0.7816531E-02  0.1126479E+00
         25   -1    0    0    0    0  0.00000000000E+00  0.00000000000E+00  0.99999998245E-14  0.12500000000E+03  0.12500000000E+03 0.  0.
    3000001    1    3    3    0    0  0.31578801060E+02  0.67967998759E+01  0.36251903523E+02  0.48565601756E+02  0.10000000000E+01 0. -1.
    1000022    2    1    0    0    0  0.43561132064E+02  0.10237654705E+02  0.42471969718E+02  0.62500000367E+02  0.10000001684E+02 0.  0.
    3000022    2    3    3    0    0  0.11982331004E+02  0.34408548294E+01  0.62200661952E+01  0.13934398611E+02  0.25000587542E+00 0.  0.
    1000022    2    1    0    0    0 -0.43561132064E+02 -0.10237654705E+02 -0.42471969718E+02  0.62499999633E+02  0.99999970908E+01 0.  0.
    3000022    2    5    5    0    0 -0.24002060284E+02 -0.76220161686E+01 -0.29846548161E+02  0.39052182606E+02  0.25000155958E+00 0.  0.
        -13    1    4    4    0    0  0.45603078253E+01  0.13580200831E+01  0.24183041981E+01  0.53385247215E+01  0.10500000000E+00 0.  1.
         13    1    4    4    0    0  0.74220231786E+01  0.20828347463E+01  0.38017619971E+01  0.85958738896E+01  0.10500000000E+00 0. -1.
    3000001    1    5    5    0    0 -0.19559071780E+02 -0.26156385366E+01 -0.12625421557E+02  0.23447817027E+02  0.10000000000E+01 0.  1.
        -13    1    6    6    0    0 -0.94387545630E+01 -0.30619101050E+01 -0.11776894239E+02  0.15400378051E+02  0.10500000000E+00 0. -1.
         13    1    6    6    0    0 -0.14563305721E+02 -0.45601060637E+01 -0.18069653922E+02  0.23651804555E+02  0.10500000000E+00 0.  1.
</event>
<event>
11    0  0.3422856E-009  0.9118800E+02  0.7816531E-02  0.1126479E+00
         25   -1    0    0    0    0  0.00000000000E+00  0.00000000000E+00  0.99999998245E-14  0.12500000000E+03  0.12500000000E+03 0.  0.
    3000001    1    3    3    0    0 -0.34011666548E+01  0.23089555507E+01 -0.26727558319E+02  0.27060332298E+02  0.10000000000E+01 0.  1.
    1000022    2    1    0    0    0 -0.18520473954E+02  0.70914761978E+01 -0.58420483917E+02  0.62499999150E+02  0.99999981236E+01 0.  0.
    3000022    2    3    3    0    0 -0.15119307299E+02  0.47825206472E+01 -0.31692925598E+02  0.35439666852E+02  0.24999339339E+00 0.  0.
    1000022    2    1    0    0    0  0.18520473954E+02 -0.70914761978E+01  0.58420483917E+02  0.62500000850E+02  0.10000008754E+02 0.  0.
    3000022    2    5    5    0    0  0.10071227911E+02 -0.12638125323E+01  0.16877865565E+02  0.19696489756E+02  0.25001783953E+00 0.  0.
        -13    1    4    4    0    0 -0.63315156706E+01  0.19477312749E+01 -0.13155264670E+02  0.14729350337E+02  0.10500000000E+00 0. -1.
         13    1    4    4    0    0 -0.87877916281E+01  0.28347893722E+01 -0.18537660928E+02  0.20710316515E+02  0.10500000000E+00 0.  1.
    3000001    1    5    5    0    0  0.84492460423E+01 -0.58276636655E+01  0.41542618352E+02  0.42803511094E+02  0.10000000000E+01 0. -1.
        -13    1    6    6    0    0  0.52142413292E+01 -0.58623179120E+00  0.87153359545E+01  0.10173499209E+02  0.10500000000E+00 0. -1.
         13    1    6    6    0    0  0.48569865820E+01 -0.67758074114E+00  0.81625296109E+01  0.95229905475E+01  0.10500000000E+00 0.  1.
</event>
<event>
11    0  0.3422856E-009  0.9118800E+02  0.7816531E-02  0.1126479E+00
         25   -1    0    0    0    0  0.00000000000E+00  0.00000000000E+00  0.99999998245E-14  0.12500000000E+03  0.12500000000E+03 0.  0.
    3000001    1    3    3    0    0  0.48908611274E+01  0.69785507136E+01  0.12126464363E+02  0.14855027115E+02  0.10000000000E+01 0.  1.
    1000022    2    1    0    0    0  0.26421954590E+02  0.40237041649E+02  0.38588987669E+02  0.62499993741E+02  0.10000002162E+02 0.  0.
    3000022    2    3    3    0    0  0.21531093463E+02  0.33258490935E+02  0.26462523306E+02  0.47644966626E+02  0.25000011570E+00 0.  0.
    1000022    2    1    0    0    0 -0.26421954590E+02 -0.40237041649E+02 -0.38588987669E+02  0.62500006259E+02  0.10000080403E+02 0.  0.
    3000022    2    5    5    0    0 -0.71353849574E+01 -0.79302091039E+01 -0.40441881034E+01  0.11411393298E+02  0.25000932386E+00 0.  0.
        -13    1    4    4    0    0  0.13722036886E+02  0.21303013514E+02  0.16922384715E+02  0.30471147181E+02  0.10500000000E+00 0.  1.
         13    1    4    4    0    0  0.78090565766E+01  0.11955477421E+02  0.95401385910E+01  0.17173819445E+02  0.10500000000E+00 0. -1.
    3000001    1    5    5    0    0 -0.19286569633E+02 -0.32306832545E+02 -0.34544799566E+02  0.51088612961E+02  0.10000000000E+01 0. -1.
        -13    1    6    6    0    0 -0.26945102257E+01 -0.29054544024E+01 -0.15054188553E+01  0.42402077273E+01  0.10500000000E+00 0.  1.
         13    1    6    6    0    0 -0.44408747316E+01 -0.50247547015E+01 -0.25387692481E+01  0.71711855706E+01  0.10500000000E+00 0. -1.
</event>
<event>
11    0  0.3422856E-009  0.9118800E+02  0.7816531E-02  0.1126479E+00
         25   -1    0    0    0    0  0.00000000000E+00  0.00000000000E+00  0.99999998245E-14  0.12500000000E+03  0.12500000000E+03 0.  0.
    3000001    1    3    3    0    0 -0.33496067686E+02 -0.73027096000E+00 -0.26462907126E+02  0.42706033528E+02  0.10000000000E+01 0. -1.
    1000022    2    1    0    0    0 -0.51710713937E+02 -0.41998925016E+01 -0.33385827008E+02  0.62499995680E+02  0.99999491006E+01 0.  0.
    3000022    2    3    3    0    0 -0.18214646251E+02 -0.34696215416E+01 -0.69229198821E+01  0.19793962152E+02  0.25001256782E+00 0.  0.
    1000022    2    1    0    0    0  0.51710713937E+02  0.41998925016E+01  0.33385827008E+02  0.62500004320E+02  0.10000003106E+02 0.  0.
    3000022    2    5    5    0    0  0.18743398786E+02 -0.21608267753E+01  0.15651784409E+02  0.24515811754E+02  0.25000075917E+00 0.  0.
        -13    1    4    4    0    0 -0.60661151960E+01 -0.11978849883E+01 -0.23447086255E+01  0.66137255427E+01  0.10500000000E+00 0. -1.
         13    1    4    4    0    0 -0.12148531055E+02 -0.22717365533E+01 -0.45782112566E+01  0.13180236609E+02  0.10500000000E+00 0.  1.
    3000001    1    5    5    0    0  0.32967315152E+02  0.63607192769E+01  0.17734042599E+02  0.37984192566E+02  0.10000000000E+01 0. -1.
        -13    1    6    6    0    0  0.76437536363E+01 -0.81724191238E+00  0.63838344838E+01  0.99929586065E+01  0.10500000000E+00 0. -1.
         13    1    6    6    0    0  0.11099645149E+02 -0.13435848630E+01  0.92679499253E+01  0.14522853147E+02  0.10500000000E+00 0.  1.
</event>
<event>
11    0  0.3422856E-009  0.9118800E+02  0.7816531E-02  0.1126479E+00
         25   -1    0    0    0    0  0.00000000000E+00  0.00000000000E+00  0.99999998245E-14  0.12500000000E+03  0.12500000000E+03 0.  0.
    3000001    1    3    3    0    0 -0.32997691558E+02  0.26534309730E+02 -0.20104408527E+02  0.46883946967E+02  0.10000000000E+01 0. -1.
    1000022    2    1    0    0    0 -0.46914141632E+02  0.33244760054E+02 -0.22362888430E+02  0.62499995061E+02  0.99999923780E+01 0.  0.
    3000022    2    3    3    0    0 -0.13916450074E+02  0.67104503238E+01 -0.22584799032E+01  0.15616048094E+02  0.25000075464E+00 0.  0.
    1000022    2    1    0    0    0  0.46914141632E+02 -0.33244760054E+02  0.22362888430E+02  0.62500004939E+02  0.10000054120E+02 0.  0.
    3000022    2    5    5    0    0  0.42027229445E+02 -0.25621921563E+02  0.18133571021E+02  0.52456265440E+02  0.25001315559E+00 0.  0.
        -13    1    4    4    0    0 -0.87997572137E+01  0.42247740793E+01 -0.14843677126E+01  0.98741488518E+01  0.10500000000E+00 0.  1.
         13    1    4    4    0    0 -0.51166928604E+01  0.24856762444E+01 -0.77411219067E+00  0.57418992419E+01  0.10500000000E+00 0. -1.
    3000001    1    5    5    0    0  0.48869121869E+01 -0.76228384903E+01  0.42293174095E+01  0.10043739499E+02  0.10000000000E+01 0.  1.
        -13    1    6    6    0    0  0.27157731678E+02 -0.16519994999E+02  0.11761678165E+02  0.33893962928E+02  0.10500000000E+00 0. -1.
         13    1    6    6    0    0  0.14869497767E+02 -0.91019265639E+01  0.63718928556E+01  0.18562302513E+02  0.10500000000E+00 0.  1.
</event>
<event>
11    0  0.3422856E-009  0.9118800E+02  0.7816531E-02  0.1126479E+00
         25   -1    0    0    0    0  0.00000000000E+00  0.00000000000E+00  0.99999998245E-14  0.12500000000E+03  0.12500000000E+03 0.  0.
    3000001    1    3    3    0    0 -0.29759753678E+02 -0.26166672983E+02 -0.36605956456E+01  0.39808763790E+02  0.10000000000E+01 0. -1.
    1000022    2    1    0    0    0 -0.47604938715E+02 -0.37313926937E+02 -0.12152811145E+02  0.62499998306E+02  0.99999817992E+01 0.  0.
    3000022    2    3    3    0    0 -0.17845185037E+02 -0.11147253954E+02 -0.84922154993E+01  0.22691234516E+02  0.25000013210E+00 0.  0.
    1000022    2    1    0    0    0  0.47604938715E+02  0.37313926937E+02  0.12152811145E+02  0.62500001694E+02  0.10000002971E+02 0.  0.
    3000022    2    5    5    0    0  0.39520933101E+02  0.33718124069E+02  0.76133944563E+01  0.52505640838E+02  0.25000155116E+00 0.  0.
        -13    1    4    4    0    0 -0.62528055408E+01 -0.38470685496E+01 -0.29350134312E+01  0.79071386985E+01  0.10500000000E+00 0. -1.
         13    1    4    4    0    0 -0.11592379496E+02 -0.73001854048E+01 -0.55572020681E+01  0.14784095818E+02  0.10500000000E+00 0.  1.
    3000001    1    5    5    0    0  0.80840056140E+01  0.35958028686E+01  0.45394166886E+01  0.99943608555E+01  0.10000000000E+01 0. -1.
        -13    1    6    6    0    0  0.18956711136E+02  0.16262164419E+02  0.36633516541E+01  0.25243733065E+02  0.10500000000E+00 0.  1.
         13    1    6    6    0    0  0.20564221965E+02  0.17455959650E+02  0.39500428022E+01  0.27261907774E+02  0.10500000000E+00 0. -1.
</event>
<event>
11    0  0.3422856E-009  0.9118800E+02  0.7816531E-02  0.1126479E+00
         25   -1    0    0    0    0  0.00000000000E+00  0.00000000000E+00  0.99999998245E-14  0.12500000000E+03  0.12500000000E+03 0.  0.
    3000001    1    3    3    0    0  0.59323336768E+01  0.87814003450E+01  0.76378679721E+01  0.13101244293E+02  0.10000000000E+01 0.  1.
    1000022    2    1    0    0    0  0.38996287243E+02  0.43023306944E+02  0.20845501124E+02  0.62500002051E+02  0.99999990048E+01 0.  0.
    3000022    2    3    3    0    0  0.33063953566E+02  0.34241906599E+02  0.13207633152E+02  0.49398757758E+02  0.25000308543E+00 0.  0.
    1000022    2    1    0    0    0 -0.38996287243E+02 -0.43023306944E+02 -0.20845501124E+02  0.62499997949E+02  0.99999733690E+01 0.  0.
    3000022    2    5    5    0    0 -0.29212974996E+02 -0.27440463040E+02 -0.17666612157E+02  0.43801239762E+02  0.24999927282E+00 0.  0.
        -13    1    4    4    0    0  0.11193201608E+02  0.11597667778E+02  0.45288321924E+01  0.16742610494E+02  0.10500000000E+00 0. -1.
         13    1    4    4    0    0  0.21870751958E+02  0.22644238822E+02  0.86788009594E+01  0.32656147264E+02  0.10500000000E+00 0.  1.
    3000001    1    5    5    0    0 -0.97833122470E+01 -0.15582843904E+02 -0.31788889665E+01  0.18698758187E+02  0.10000000000E+01 0.  1.
        -13    1    6    6    0    0 -0.79530368301E+01 -0.75158183415E+01 -0.48049062108E+01  0.11951421207E+02  0.10500000000E+00 0.  1.
         13    1    6    6    0    0 -0.21259938166E+02 -0.19924644699E+02 -0.12861705947E+02  0.31849818556E+02  0.10500000000E+00 0. -1.
</event>
<event>
11    0  0.3422856E-009  0.9118800E+02  0.7816531E-02  0.1126479E+00
         25   -1    0    0    0    0  0.00000000000E+00  0.00000000000E+00  0.99999998245E-14  0.12500000000E+03  0.12500000000E+03 0.  0.
    3000001    1    3    3    0    0  0.16047587085E+02 -0.15470976051E+02 -0.28186637087E+02  0.35949445913E+02  0.10000000000E+01 0. -1.
    1000022    2    1    0    0    0  0.27613092570E+02 -0.33597060715E+02 -0.43760768370E+02  0.62500000365E+02  0.99999913654E+01 0.  0.
    3000022    2    3    3    0    0  0.11565505484E+02 -0.18126084664E+02 -0.15574131283E+02  0.26550554451E+02  0.25002816245E+00 0.  0.
    1000022    2    1    0    0    0 -0.27613092570E+02  0.33597060715E+02  0.43760768370E+02  0.62499999635E+02  0.99999868077E+01 0.  0.
    3000022    2    5    5    0    0 -0.23055772961E+02  0.22115350820E+02  0.34556830522E+02  0.47062665149E+02  0.25001298526E+00 0.  0.
        -13    1    4    4    0    0  0.65779315787E+01 -0.10346072523E+02 -0.88030179328E+01  0.15093526766E+02  0.10500000000E+00 0.  1.
         13    1    4    4    0    0  0.49875739055E+01 -0.77800121407E+01 -0.67711133506E+01  0.11457027685E+02  0.10500000000E+00 0. -1.
    3000001    1    5    5    0    0 -0.45573196083E+01  0.11481709895E+02  0.92039378479E+01  0.15437334486E+02  0.10000000000E+01 0. -1.
        -13    1    6    6    0    0 -0.10457433565E+02  0.99728138324E+01  0.15707188235E+02  0.21343423338E+02  0.10500000000E+00 0. -1.
         13    1    6    6    0    0 -0.12598339396E+02  0.12142536987E+02  0.18849642287E+02  0.25719241812E+02  0.10500000000E+00 0.  1.
</event>
<event>
11    0  0.3422856E-009  0.9118800E+02  0.7816531E-02  0.1126479E+00
         25   -1    0    0    0    0  0.00000000000E+00  0.00000000000E+00  0.99999998245E-14  0.12500000000E+03  0.12500000000E+03 0.  0.
    3000001    1    3    3    0    0 -0.10036190275E+02 -0.48732791256E+01 -0.71816534545E+01  0.13306017850E+02  0.10000000000E+01 0.  1.
    1000022    2    1    0    0    0 -0.46136826792E+02 -0.54556363104E+01 -0.40594080633E+02  0.62500000033E+02  0.99999933857E+01 0.  0.
    3000022    2    3    3    0    0 -0.36100636516E+02 -0.58235718485E+00 -0.33412427178E+02  0.49193982183E+02  0.24999259243E+00 0.  0.
    1000022    2    1    0    0    0  0.46136826792E+02  0.54556363104E+01  0.40594080633E+02  0.62499999967E+02  0.99999929768E+01 0.  0.
    3000022    2    5    5    0    0  0.11159653028E+02  0.56584594432E+01  0.99961199007E+01  0.16016895266E+02  0.25000383053E+00 0.  0.
        -13    1    4    4    0    0 -0.16175374512E+02 -0.32276457192E+00 -0.15005502487E+02  0.22066332895E+02  0.10500000000E+00 0. -1.
         13    1    4    4    0    0 -0.19925262005E+02 -0.25959261293E+00 -0.18406924691E+02  0.27127649288E+02  0.10500000000E+00 0.  1.
    3000001    1    5    5    0    0  0.34977173764E+02 -0.20282313274E+00  0.30597960732E+02  0.46483104701E+02  0.10000000000E+01 0.  1.
        -13    1    6    6    0    0  0.36940912328E+01  0.18607105029E+01  0.33714683644E+01  0.53372631136E+01  0.10500000000E+00 0. -1.
         13    1    6    6    0    0  0.74655617951E+01  0.37977489403E+01  0.66246515362E+01  0.10679632152E+02  0.10500000000E+00 0.  1.
</event>
<event>
11    0  0.3422856E-009  0.9118800E+02  0.7816531E-02  0.1126479E+00
         25   -1    0    0    0    0  0.00000000000E+00  0.00000000000E+00  0.99999998245E-14  0.12500000000E+03  0.12500000000E+03 0.  0.
    3000001    1    3    3    0    0  0.27953331192E+02 -0.64942879863E+00  0.13902348898E+02  0.31242371667E+02  0.10000000000E+01 0.  1.
    1000022    2    1    0    0    0  0.57044907667E+02  0.69409698966E+01  0.22448861949E+02  0.62500000536E+02  0.10000005515E+02 0.  0.
    3000022    2    3    3    0    0  0.29091576475E+02  0.75903986952E+01  0.85465130508E+01  0.31257628868E+02  0.25000599952E+00 0.  0.
    1000022    2    1    0    0    0 -0.57044907667E+02 -0.69409698966E+01 -0.22448861949E+02  0.62499999464E+02  0.99999988206E+01 0.  0.
    3000022    2    5    5    0    0 -0.43335463374E+02 -0.25282699281E+01 -0.20235247800E+02  0.47894491208E+02  0.24999971125E+00 0.  0.
        -13    1    4    4    0    0  0.20966356189E+02  0.54805912086E+01  0.61997736714E+01  0.22540478931E+02  0.10500000000E+00 0. -1.
         13    1    4    4    0    0  0.81252202854E+01  0.21098074867E+01  0.23467393795E+01  0.87171499375E+01  0.10500000000E+00 0.  1.
    3000001    1    5    5    0    0 -0.13709444293E+02 -0.44126999685E+01 -0.22136141488E+01  0.14605508256E+02  0.10000000000E+01 0.  1.
        -13    1    6    6    0    0 -0.28419815374E+02 -0.16025911200E+01 -0.13264258990E+02  0.31403913701E+02  0.10500000000E+00 0.  1.
         13    1    6    6    0    0 -0.14915648000E+02 -0.92567880813E+00 -0.69709888101E+01  0.16490577507E+02  0.10500000000E+00 0. -1.
</event>
<event>
11    0  0.3422856E-009  0.9118800E+02  0.7816531E-02  0.1126479E+00
         25   -1    0    0    0    0  0.00000000000E+00  0.00000000000E+00  0.99999998245E-14  0.12500000000E+03  0.12500000000E+03 0.  0.
    3000001    1    3    3    0    0  0.42511477217E+02 -0.18510569547E+02 -0.69240836617E+01  0.46891468464E+02  0.10000000000E+01 0.  1.
    1000022    2    1    0    0    0  0.57751754888E+02 -0.19142258130E+02 -0.10225404163E+02  0.62500001695E+02  0.10000004127E+02 0.  0.
    3000022    2    3    3    0    0  0.15240277671E+02 -0.63168858261E+00 -0.33013205017E+01  0.15608533231E+02  0.24999720433E+00 0.  0.
    1000022    2    1    0    0    0 -0.57751754888E+02  0.19142258130E+02  0.10225404163E+02  0.62499998305E+02  0.99999829432E+01 0.  0.
    3000022    2    5    5    0    0 -0.40860790559E+02  0.18043783529E+02  0.64888199407E+01  0.45137009390E+02  0.25000658245E+00 0.  0.
        -13    1    4    4    0    0  0.59094637415E+01 -0.30666687481E+00 -0.12773576480E+01  0.60546241705E+01  0.10500000000E+00 0.  1.
         13    1    4    4    0    0  0.93308139297E+01 -0.32502170780E+00 -0.20239628537E+01  0.95539090604E+01  0.10500000000E+00 0. -1.
    3000001    1    5    5    0    0 -0.16890964329E+02  0.10984746008E+01  0.37365842227E+01  0.17362988915E+02  0.10000000000E+01 0. -1.
        -13    1    6    6    0    0 -0.29942978611E+02  0.13257880113E+02  0.47698710128E+01  0.33092537643E+02  0.10500000000E+00 0. -1.
         13    1    6    6    0    0 -0.10917811948E+02  0.47859034155E+01  0.17189489279E+01  0.12044471747E+02  0.10500000000E+00 0.  1.
</event>
<event>
11    0  0.3422856E-009  0.9118800E+02  0.7816531E-02  0.1126479E+00
         25   -1    0    0    0    0  0.00000000000E+00  0.00000000000E+00  0.99999998245E-14  0.12500000000E+03  0.12500000000E+03 0.  0.
    3000001    1    3    3    0    0 -0.24062279750E+02 -0.41695778060E+01 -0.16457233184E+02  0.29465559725E+02  0.10000000000E+01 0. -1.
    1000022    2    1    0    0    0 -0.46575074445E+02 -0.11609575820E+01 -0.40443352063E+02  0.62499998396E+02  0.99999845681E+01 0.  0.
    3000022    2    3    3    0    0 -0.22512794695E+02  0.30086202240E+01 -0.23986118879E+02  0.33034438671E+02  0.25003757320E+00 0.  0.
    1000022    2    1    0    0    0  0.46575074445E+02  0.11609575820E+01  0.40443352063E+02  0.62500001604E+02  0.10000004614E+02 0.  0.
    3000022    2    5    5    0    0  0.18253263213E+02  0.32915299653E+01  0.21246509065E+02  0.28204475493E+02  0.25000586223E+00 0.  0.
        -13    1    4    4    0    0 -0.63594891337E+01  0.88791970373E+00 -0.68037755631E+01  0.93559548072E+01  0.10500000000E+00 0.  1.
         13    1    4    4    0    0 -0.16153305561E+02  0.21207005203E+01 -0.17182343316E+02  0.23678483864E+02  0.10500000000E+00 0. -1.
    3000001    1    5    5    0    0  0.28321811232E+02 -0.21305723833E+01  0.19196842998E+02  0.34295526111E+02  0.10000000000E+01 0.  1.
        -13    1    6    6    0    0  0.89075451649E+01  0.15903711621E+01  0.10264808118E+02  0.13683966969E+02  0.10500000000E+00 0.  1.
         13    1    6    6    0    0  0.93457180483E+01  0.17011588032E+01  0.10981700947E+02  0.14520508524E+02  0.10500000000E+00 0. -1.
</event>
<event>
11    0  0.3422856E-009  0.9118800E+02  0.7816531E-02  0.1126479E+00
         25   -1    0    0    0    0  0.00000000000E+00  0.00000000000E+00  0.99999998245E-14  0.12500000000E+03  0.12500000000E+03 0.  0.
    3000001    1    3    3    0    0  0.21585103691E+02 -0.19443955077E+02  0.71512632131E+00  0.29077405250E+02  0.10000000000E+01 0. -1.
    1000022    2    1    0    0    0  0.52041587654E+02 -0.33125910003E+02 -0.77279462093E+00  0.62499998475E+02  0.99999919411E+01 0.  0.
    3000022    2    3    3    0    0  0.30456483963E+02 -0.13681954925E+02 -0.14879209422E+01  0.33422593225E+02  0.25004644361E+00 0.  0.
    1000022    2    1    0    0    0 -0.52041587654E+02  0.33125910003E+02  0.77279462093E+00  0.62500001525E+02  0.10000010999E+02 0.  0.
    3000022    2    5    5    0    0 -0.47908233988E+02  0.27048398244E+02 -0.21085104938E+00  0.55017467160E+02  0.25000628649E+00 0.  0.
        -13    1    4    4    0    0  0.17344880180E+02 -0.77960813544E+01 -0.78188773829E+00  0.19032764549E+02  0.10500000000E+00 0. -1.
         13    1    4    4    0    0  0.13111603783E+02 -0.58858735711E+01 -0.70603320394E+00  0.14389828676E+02  0.10500000000E+00 0.  1.
    3000001    1    5    5    0    0 -0.41333536659E+01  0.60775117591E+01  0.98364567031E+00  0.74825343644E+01  0.10000000000E+01 0.  1.
        -13    1    6    6    0    0 -0.18814356125E+02  0.10685595454E+02 -0.53663957800E-01  0.21637371639E+02  0.10500000000E+00 0. -1.
         13    1    6    6    0    0 -0.29093877863E+02  0.16362802790E+02 -0.15718709158E+00  0.33380095522E+02  0.10500000000E+00 0.  1.
</event>
<event>
11    0  0.3422856E-009  0.9118800E+02  0.7816531E-02  0.1126479E+00
         25   -1    0    0    0    0  0.00000000000E+00  0.00000000000E+00  0.99999998245E-14  0.12500000000E+03  0.12500000000E+03 0.  0.
    3000001    1    3    3    0    0 -0.23692646595E+02  0.11510872757E+02  0.28299346856E+02  0.38674212685E+02  0.10000000000E+01 0.  1.
    1000022    2    1    0    0    0 -0.32517845817E+02  0.15655812438E+02  0.50037346064E+02  0.62499992392E+02  0.99999144084E+01 0.  0.
    3000022    2    3    3    0    0 -0.88251992214E+01  0.41449396811E+01  0.21737999207E+02  0.23825779706E+02  0.25000563661E+00 0.  0.
    1000022    2    1    0    0    0  0.32517845817E+02 -0.15655812438E+02 -0.50037346064E+02  0.62500007608E+02  0.10000009514E+02 0.  0.
    3000022    2    5    5    0    0  0.96721621620E+01 -0.54096891404E+00 -0.17036136730E+02  0.19599383209E+02  0.24999843416E+00 0.  0.
        -13    1    4    4    0    0 -0.39184968740E+01  0.17863541223E+01  0.94924424373E+01  0.10424162663E+02  0.10500000000E+00 0. -1.
         13    1    4    4    0    0 -0.49067023474E+01  0.23585855588E+01  0.12245556770E+02  0.13401617043E+02  0.10500000000E+00 0.  1.
    3000001    1    5    5    0    0  0.22845683655E+02 -0.15114843524E+02 -0.33001209334E+02  0.42900624400E+02  0.10000000000E+01 0. -1.
        -13    1    6    6    0    0  0.71680207447E+01 -0.38771705621E+00 -0.12564285099E+02  0.14470768154E+02  0.10500000000E+00 0. -1.
         13    1    6    6    0    0  0.25041414173E+01 -0.15325185783E+00 -0.44718516315E+01  0.51286150552E+01  0.10500000000E+00 0.  1.
</event>
<event>
11    0  0.3422856E-009  0.9118800E+02  0.7816531E-02  0.1126479E+00
         25   -1    0    0    0    0  0.00000000000E+00  0.00000000000E+00  0.99999998245E-14  0.12500000000E+03  0.12500000000E+03 0.  0.
    3000001    1    3    3    0    0  0.11113933429E+01  0.31216359096E+00 -0.97844169839E+00  0.18138328003E+01  0.10000000000E+01 0. -1.
    1000022    2    1    0    0    0  0.20625320726E+01  0.89331369831E+00 -0.61653856866E+02  0.62500000142E+02  0.99999951647E+01 0.  0.
    3000022    2    3    3    0    0  0.95113872969E+00  0.58115010735E+00 -0.60675415168E+02  0.60686167341E+02  0.25000090302E+00 0.  0.
    1000022    2    1    0    0    0 -0.20625320726E+01 -0.89331369831E+00  0.61653856866E+02  0.62499999858E+02  0.99999933932E+01 0.  0.
    3000022    2    5    5    0    0 -0.47407136756E+01 -0.19089440195E+01  0.17256405128E+02  0.17999012425E+02  0.24999383820E+00 0.  0.
        -13    1    4    4    0    0  0.33001768620E+00  0.19191616195E+00 -0.24170196446E+02  0.24173439241E+02  0.10500000000E+00 0. -1.
         13    1    4    4    0    0  0.62112104349E+00  0.38923394541E+00 -0.36505218722E+02  0.36512728100E+02  0.10500000000E+00 0.  1.
    3000001    1    5    5    0    0  0.26781816031E+01  0.10156303211E+01  0.44397451738E+02  0.44500987433E+02  0.10000000000E+01 0. -1.
        -13    1    6    6    0    0 -0.12241437845E+01 -0.47252346003E+00  0.45228138543E+01  0.47104858121E+01  0.10500000000E+00 0. -1.
         13    1    6    6    0    0 -0.35165698911E+01 -0.14364205594E+01  0.12733591274E+02  0.13288526613E+02  0.10500000000E+00 0.  1.
</event>
<event>
11    0  0.3422856E-009  0.9118800E+02  0.7816531E-02  0.1126479E+00
         25   -1    0    0    0    0  0.00000000000E+00  0.00000000000E+00  0.99999998245E-14  0.12500000000E+03  0.12500000000E+03 0.  0.
    3000001    1    3    3    0    0 -0.14637198194E+02  0.10493368128E+02  0.31147116367E+01  0.18304638052E+02  0.10000000000E+01 0.  1.
    1000022    2    1    0    0    0 -0.41342978207E+02  0.45705428003E+02  0.28322830910E+01  0.62500001072E+02  0.10000015526E+02 0.  0.
    3000022    2    3    3    0    0 -0.26705780013E+02  0.35212059875E+02 -0.28242854569E+00  0.44195363019E+02  0.24999965785E+00 0.  0.
    1000022    2    1    0    0    0  0.41342978207E+02 -0.45705428003E+02 -0.28322830910E+01  0.62499998928E+02  0.10000002129E+02 0.  0.
    3000022    2    5    5    0    0  0.15527506758E+02 -0.11341194771E+02 -0.32672974355E+01  0.19505483822E+02  0.25000328731E+00 0.  0.
        -13    1    4    4    0    0 -0.10671224449E+02  0.14166617811E+02 -0.13778068313E+00  0.17736913485E+02  0.10500000000E+00 0.  1.
         13    1    4    4    0    0 -0.16034555564E+02  0.21045442063E+02 -0.14464786256E+00  0.26458449535E+02  0.10500000000E+00 0. -1.
    3000001    1    5    5    0    0  0.25815471449E+02 -0.34364233232E+02  0.43501434446E+00  0.42994515106E+02  0.10000000000E+01 0.  1.
        -13    1    6    6    0    0  0.58402334927E+01 -0.42181264353E+01 -0.12711802053E+01  0.73162724107E+01  0.10500000000E+00 0. -1.
         13    1    6    6    0    0  0.96872732653E+01 -0.71230683355E+01 -0.19961172302E+01  0.12189211411E+02  0.10500000000E+00 0.  1.
</event>
<event>
11    0  0.3422856E-009  0.9118800E+02  0.7816531E-02  0.1126479E+00
         25   -1    0    0    0    0  0.00000000000E+00  0.00000000000E+00  0.99999998245E-14  0.12500000000E+03  0.12500000000E+03 0.  0.
    3000001    1    3    3    0    0  0.39810992612E+01  0.34904078024E+02  0.48769291118E+02  0.60113123112E+02  0.10000000000E+01 0. -1.
    1000022    2    1    0    0    0  0.57232124463E+01  0.35179001981E+02  0.50358039763E+02  0.62499996930E+02  0.10000005320E+02 0.  0.
    3000022    2    3    3    0    0  0.17421131851E+01  0.27492395644E+00  0.15887486444E+01  0.23868738180E+01  0.25000567238E+00 0.  0.
    1000022    2    1    0    0    0 -0.57232124463E+01 -0.35179001981E+02 -0.50358039763E+02  0.62500003070E+02  0.10000043699E+02 0.  0.
    3000022    2    5    5    0    0 -0.25382213502E+01 -0.25130638335E+01 -0.90396449802E+01  0.97229490532E+01  0.24999893779E+00 0.  0.
        -13    1    4    4    0    0  0.12628284604E+01  0.16132739179E+00  0.11577591443E+01  0.17240050708E+01  0.10500000000E+00 0. -1.
         13    1    4    4    0    0  0.47928472475E+00  0.11359656465E+00  0.43098950009E+00  0.66286874724E+00  0.10500000000E+00 0.  1.
    3000001    1    5    5    0    0 -0.31849910961E+01 -0.32665938147E+02 -0.41318394783E+02  0.52777054017E+02  0.10000000000E+01 0.  1.
        -13    1    6    6    0    0 -0.95372500721E+00 -0.92468057043E+00 -0.35253588618E+01  0.37687936599E+01  0.10500000000E+00 0. -1.
         13    1    6    6    0    0 -0.15844963430E+01 -0.15883832631E+01 -0.55142861184E+01  0.59541553933E+01  0.10500000000E+00 0.  1.
</event>
<event>
11    0  0.3422856E-009  0.9118800E+02  0.7816531E-02  0.1126479E+00
         25   -1    0    0    0    0  0.00000000000E+00  0.00000000000E+00  0.99999998245E-14  0.12500000000E+03  0.12500000000E+03 0.  0.
    3000001    1    3    3    0    0 -0.42404674540E+02 -0.73947513792E+01  0.37832223000E+02  0.57315930316E+02  0.10000000000E+01 0.  1.
    1000022    2    1    0    0    0 -0.44801050458E+02 -0.10664903835E+02  0.41053330924E+02  0.62499997269E+02  0.99999691342E+01 0.  0.
    3000022    2    3    3    0    0 -0.23963759175E+01 -0.32701524559E+01  0.32211079246E+01  0.51840669533E+01  0.24999858307E+00 0.  0.
    1000022    2    1    0    0    0  0.44801050458E+02  0.10664903835E+02 -0.41053330924E+02  0.62500002731E+02  0.10000003272E+02 0.  0.
    3000022    2    5    5    0    0  0.36325231371E+02  0.55157742965E+01 -0.35495758601E+02  0.51087743781E+02  0.24997158244E+00 0.  0.
        -13    1    4    4    0    0 -0.11149531586E+01 -0.14764776083E+01  0.13919636987E+01  0.23176916560E+01  0.10500000000E+00 0. -1.
         13    1    4    4    0    0 -0.12814227588E+01 -0.17936748477E+01  0.18291442259E+01  0.28663752973E+01  0.10500000000E+00 0.  1.
    3000001    1    5    5    0    0  0.84758190871E+01  0.51491295386E+01 -0.55575723237E+01  0.11412258950E+02  0.10000000000E+01 0.  1.
        -13    1    6    6    0    0  0.14586730661E+02  0.21833851857E+01 -0.14325622519E+02  0.20561477764E+02  0.10500000000E+00 0.  1.
         13    1    6    6    0    0  0.21738500709E+02  0.33323891107E+01 -0.21170136081E+02  0.30526266018E+02  0.10500000000E+00 0. -1.
</event>
<event>
11    0  0.3422856E-009  0.9118800E+02  0.7816531E-02  0.1126479E+00
         25   -1    0    0    0    0  0.00000000000E+00  0.00000000000E+00  0.99999998245E-14  0.12500000000E+03  0.12500000000E+03 0.  0.
    3000001    1    3    3    0    0 -0.19153976471E+01 -0.26161786579E+01 -0.11594896971E-01  0.33931214771E+01  0.10000000000E+01 0. -1.
    1000022    2    1    0    0    0 -0.14263570358E+02 -0.51188193198E+02 -0.31345960580E+02  0.62499998698E+02  0.10000001513E+02 0.  0.
    3000022    2    3    3    0    0 -0.12348172711E+02 -0.48572014540E+02 -0.31334365683E+02  0.59106877221E+02  0.24999242434E+00 0.  0.
    1000022    2    1    0    0    0  0.14263570358E+02  0.51188193198E+02  0.31345960580E+02  0.62500001302E+02  0.10000017792E+02 0.  0.
    3000022    2    5    5    0    0  0.57907259957E+01  0.17622483496E+02  0.57064029200E+01  0.19409017600E+02  0.24999560250E+00 0.  0.
        -13    1    4    4    0    0 -0.46251045114E+01 -0.18434352646E+02 -0.11868313910E+02  0.22407249927E+02  0.10500000000E+00 0.  1.
         13    1    4    4    0    0 -0.77230681999E+01 -0.30137661894E+02 -0.19466051773E+02  0.36699627293E+02  0.10500000000E+00 0. -1.
    3000001    1    5    5    0    0  0.84728443627E+01  0.33565709702E+02  0.25639557660E+02  0.43090983702E+02  0.10000000000E+01 0. -1.
        -13    1    6    6    0    0  0.38780784834E+01  0.11963472278E+02  0.38596000003E+01  0.13155671736E+02  0.10500000000E+00 0.  1.
         13    1    6    6    0    0  0.19126475123E+01  0.56590112184E+01  0.18468029197E+01  0.62533458644E+01  0.10500000000E+00 0. -1.
</event>
<event>
11    0  0.3422856E-009  0.9118800E+02  0.7816531E-02  0.1126479E+00
         25   -1    0    0    0    0  0.00000000000E+00  0.00000000000E+00  0.99999998245E-14  0.12500000000E+03  0.12500000000E+03 0.  0.
    3000001    1    3    3    0    0 -0.45478415601E+00 -0.80606374890E+00 -0.63677786531E+00  0.15040124486E+01  0.10000000000E+01 0. -1.
    1000022    2    1    0    0    0 -0.59160322895E+02 -0.85742792022E+01 -0.15257393370E+02  0.62499998774E+02  0.99999862704E+01 0.  0.
    3000022    2    3    3    0    0 -0.58705538739E+02 -0.77682154534E+01 -0.14620615505E+02  0.60995986326E+02  0.25000018031E+00 0.  0.
    1000022    2    1    0    0    0  0.59160322895E+02  0.85742792022E+01  0.15257393370E+02  0.62500001226E+02  0.10000001593E+02 0.  0.
    3000022    2    5    5    0    0  0.30370596243E+02  0.92408973701E+01  0.92388295760E+01  0.33063359933E+02  0.24999545526E+00 0.  0.
        -13    1    4    4    0    0 -0.31510009792E+02 -0.41263650248E+01 -0.78995025748E+01  0.32746309278E+02  0.10500000000E+00 0. -1.
         13    1    4    4    0    0 -0.27195528947E+02 -0.36418504286E+01 -0.67211129303E+01  0.28249677047E+02  0.10500000000E+00 0.  1.
    3000001    1    5    5    0    0  0.28789726652E+02 -0.66661816787E+00  0.60185637945E+01  0.29436641293E+02  0.10000000000E+01 0. -1.
        -13    1    6    6    0    0  0.18477308169E+02  0.56705604981E+01  0.55818184789E+01  0.20117999306E+02  0.10500000000E+00 0.  1.
         13    1    6    6    0    0  0.11893288075E+02  0.35703368720E+01  0.36570110971E+01  0.12945360627E+02  0.10500000000E+00 0. -1.
</event>
<event>
11    0  0.3422856E-009  0.9118800E+02  0.7816531E-02  0.1126479E+00
         25   -1    0    0    0    0  0.00000000000E+00  0.00000000000E+00  0.99999998245E-14  0.12500000000E+03  0.12500000000E+03 0.  0.
    3000001    1    3    3    0    0 -0.17760480246E+01 -0.13229906206E+02 -0.57547851423E+01  0.14570597683E+02  0.10000000000E+01 0. -1.
    1000022    2    1    0    0    0 -0.99137238122E+01 -0.46678783975E+02 -0.39103185868E+02  0.62499999127E+02  0.99999976310E+01 0.  0.
    3000022    2    3    3    0    0 -0.81376757876E+01 -0.33448877768E+02 -0.33348400726E+02  0.47929401444E+02  0.25000112348E+00 0.  0.
    1000022    2    1    0    0    0  0.99137238122E+01  0.46678783975E+02  0.39103185868E+02  0.62500000873E+02  0.10000008544E+02 0.  0.
    3000022    2    5    5    0    0  0.43753839262E+01  0.29705055798E+02  0.29955044791E+02  0.42413459556E+02  0.25003721860E+00 0.  0.
        -13    1    4    4    0    0 -0.27448803014E+01 -0.11121637681E+02 -0.11045268227E+02  0.15913333019E+02  0.10500000000E+00 0. -1.
         13    1    4    4    0    0 -0.53927954862E+01 -0.22327240087E+02 -0.22303132499E+02  0.32016068424E+02  0.10500000000E+00 0.  1.
    3000001    1    5    5    0    0  0.55383398859E+01  0.16973728176E+02  0.91481410773E+01  0.20086541317E+02  0.10000000000E+01 0.  1.
        -13    1    6    6    0    0  0.22321112760E+01  0.15110360933E+02  0.15143066167E+02  0.21508807642E+02  0.10500000000E+00 0. -1.
         13    1    6    6    0    0  0.21432726503E+01  0.14594694866E+02  0.14811978624E+02  0.20904651914E+02  0.10500000000E+00 0.  1.
</event>
<event>
11    0  0.3422856E-009  0.9118800E+02  0.7816531E-02  0.1126479E+00
         25   -1    0    0    0    0  0.00000000000E+00  0.00000000000E+00  0.99999998245E-14  0.12500000000E+03  0.12500000000E+03 0.  0.
    3000001    1    3    3    0    0 -0.92687342544E+01 -0.95747704376E+01 -0.17605148724E+02  0.22102645209E+02  0.10000000000E+01 0. -1.
    1000022    2    1    0    0    0 -0.13484964714E+02 -0.30325078350E+02 -0.52007647088E+02  0.62499999990E+02  0.99999996361E+01 0.  0.
    3000022    2    3    3    0    0 -0.42162304601E+01 -0.20750307913E+02 -0.34402498364E+02  0.40397354781E+02  0.25000369534E+00 0.  0.
    1000022    2    1    0    0    0  0.13484964714E+02  0.30325078350E+02  0.52007647088E+02  0.62500000010E+02  0.99999997656E+01 0.  0.
    3000022    2    5    5    0    0  0.12794607539E+02  0.17054393324E+02  0.32865662992E+02  0.39176123205E+02  0.25002343447E+00 0.  0.
        -13    1    4    4    0    0 -0.28591507098E+01 -0.14010377860E+02 -0.23327355744E+02  0.27361322730E+02  0.10500000000E+00 0.  1.
         13    1    4    4    0    0 -0.13570797504E+01 -0.67399300530E+01 -0.11075142620E+02  0.13036032050E+02  0.10500000000E+00 0. -1.
    3000001    1    5    5    0    0  0.69035717532E+00  0.13270685026E+02  0.19141984096E+02  0.23323876805E+02  0.10000000000E+01 0. -1.
        -13    1    6    6    0    0  0.48531270342E+01  0.65685972254E+01  0.12613628044E+02  0.15027107138E+02  0.10500000000E+00 0.  1.
         13    1    6    6    0    0  0.79414805050E+01  0.10485796099E+02  0.20252034948E+02  0.24149016067E+02  0.10500000000E+00 0. -1.
</event>
<event>
11    0  0.3422856E-009  0.9118800E+02  0.7816531E-02  0.1126479E+00
         25   -1    0    0    0    0  0.00000000000E+00  0.00000000000E+00  0.99999998245E-14  0.12500000000E+03  0.12500000000E+03 0.  0.
    3000001    1    3    3    0    0 -0.71929995011E+01  0.61981975304E+01 -0.69054925805E+01  0.11783154171E+02  0.10000000000E+01 0.  1.
    1000022    2    1    0    0    0 -0.24523660247E+02  0.46914150670E+02 -0.31684421220E+02  0.62499999951E+02  0.10000000040E+02 0.  0.
    3000022    2    3    3    0    0 -0.17330660746E+02  0.40715953139E+02 -0.24778928640E+02  0.50716845779E+02  0.24999864544E+00 0.  0.
    1000022    2    1    0    0    0  0.24523660247E+02 -0.46914150670E+02  0.31684421220E+02  0.62500000049E+02  0.10000000658E+02 0.  0.
    3000022    2    5    5    0    0  0.10240326828E+02 -0.10311439458E+02  0.95680465089E+01  0.17401151816E+02  0.24998659213E+00 0.  0.
        -13    1    4    4    0    0 -0.10504444521E+02  0.24671777593E+02 -0.14943835408E+02  0.30698032608E+02  0.10500000000E+00 0.  1.
         13    1    4    4    0    0 -0.68262162248E+01  0.16044175546E+02 -0.98350932314E+01  0.20018813171E+02  0.10500000000E+00 0. -1.
    3000001    1    5    5    0    0  0.14283333419E+02 -0.36602711212E+02  0.22116374711E+02  0.45098848233E+02  0.10000000000E+01 0.  1.
        -13    1    6    6    0    0  0.31863651738E+01 -0.31939605279E+01  0.30277011601E+01  0.54343634576E+01  0.10500000000E+00 0.  1.
         13    1    6    6    0    0  0.70539616539E+01 -0.71174789303E+01  0.65403453488E+01  0.11966788359E+02  0.10500000000E+00 0. -1.
</event>
<event>
11    0  0.3422856E-009  0.9118800E+02  0.7816531E-02  0.1126479E+00
         25   -1    0    0    0    0  0.00000000000E+00  0.00000000000E+00  0.99999998245E-14  0.12500000000E+03  0.12500000000E+03 0.  0.
    3000001    1    3    3    0    0 -0.18028553685E+02 -0.70952982733E+00  0.25683676706E+01  0.18251813417E+02  0.10000000000E+01 0. -1.
    1000022    2    1    0    0    0 -0.59277312598E+02  0.12359884028E+02  0.11818758328E+02  0.62499998845E+02  0.10000014261E+02 0.  0.
    3000022    2    3    3    0    0 -0.41248758913E+02  0.13069413855E+02  0.92503906575E+01  0.44248185428E+02  0.24999183733E+00 0.  0.
    1000022    2    1    0    0    0  0.59277312598E+02 -0.12359884028E+02 -0.11818758328E+02  0.62500001155E+02  0.10000028698E+02 0.  0.
    3000022    2    5    5    0    0  0.14015821578E+02  0.52992890584E+00 -0.26279767065E+00  0.14030525467E+02  0.25000619764E+00 0.  0.
        -13    1    4    4    0    0 -0.20259842792E+02  0.63734737255E+01  0.45935625731E+01  0.21730030819E+02  0.10500000000E+00 0. -1.
         13    1    4    4    0    0 -0.20988916121E+02  0.66959401297E+01  0.46568280844E+01  0.22518154608E+02  0.10500000000E+00 0.  1.
    3000001    1    5    5    0    0  0.45261491019E+02 -0.12889812934E+02 -0.11555960657E+02  0.48469475688E+02  0.10000000000E+01 0.  1.
        -13    1    6    6    0    0  0.83690348700E+01  0.35911338383E+00 -0.11012976240E+00  0.83781179655E+01  0.10500000000E+00 0. -1.
         13    1    6    6    0    0  0.56467867082E+01  0.17081552201E+00 -0.15266790825E+00  0.56524075013E+01  0.10500000000E+00 0.  1.
</event>
<event>
11    0  0.3422856E-009  0.9118800E+02  0.7816531E-02  0.1126479E+00
         25   -1    0    0    0    0  0.00000000000E+00  0.00000000000E+00  0.99999998245E-14  0.12500000000E+03  0.12500000000E+03 0.  0.
    3000001    1    3    3    0    0  0.20207790038E+02  0.19067500940E+02 -0.69971435928E+01  0.28668526100E+02  0.10000000000E+01 0. -1.
    1000022    2    1    0    0    0  0.46500463507E+02  0.33854602659E+02 -0.22311943260E+02  0.62500000245E+02  0.99999995468E+01 0.  0.
    3000022    2    3    3    0    0  0.26292673470E+02  0.14787101719E+02 -0.15314799667E+02  0.33831474144E+02  0.24999701000E+00 0.  0.
    1000022    2    1    0    0    0 -0.46500463507E+02 -0.33854602659E+02  0.22311943260E+02  0.62499999755E+02  0.99999964899E+01 0.  0.
    3000022    2    5    5    0    0 -0.16881428277E+02 -0.13476267873E+02  0.13487929835E+02  0.25467217122E+02  0.24996052069E+00 0.  0.
        -13    1    4    4    0    0  0.16081481482E+02  0.89744903337E+01 -0.93626148108E+01  0.20659745993E+02  0.10500000000E+00 0. -1.
         13    1    4    4    0    0  0.10211191988E+02  0.58126113858E+01 -0.59521848562E+01  0.13171728152E+02  0.10500000000E+00 0.  1.
    3000001    1    5    5    0    0 -0.29619035230E+02 -0.20378334786E+02  0.88240134246E+01  0.37032782633E+02  0.10000000000E+01 0. -1.
        -13    1    6    6    0    0 -0.11703372394E+02 -0.93960752522E+01  0.93453094212E+01  0.17680525691E+02  0.10500000000E+00 0.  1.
         13    1    6    6    0    0 -0.51780558830E+01 -0.40801926204E+01  0.41426204139E+01  0.77866914309E+01  0.10500000000E+00 0. -1.
</event>
<event>
11    0  0.3422856E-009  0.9118800E+02  0.7816531E-02  0.1126479E+00
         25   -1    0    0    0    0  0.00000000000E+00  0.00000000000E+00  0.99999998245E-14  0.12500000000E+03  0.12500000000E+03 0.  0.
    3000001    1    3    3    0    0 -0.33647943779E+02  0.21698572262E+02  0.26473673519E+02  0.48009036111E+02  0.10000000000E+01 0. -1.
    1000022    2    1    0    0    0 -0.44352700015E+02  0.23089741234E+02  0.36137954236E+02  0.62499998179E+02  0.99999943542E+01 0.  0.
    3000022    2    3    3    0    0 -0.10704756236E+02  0.13911689724E+01  0.96642807173E+01  0.14490962068E+02  0.25000535018E+00 0.  0.
    1000022    2    1    0    0    0  0.44352700015E+02 -0.23089741234E+02 -0.36137954236E+02  0.62500001821E+02  0.10000017120E+02 0.  0.
    3000022    2    5    5    0    0  0.16150094886E+02 -0.10766383033E+02 -0.87636185758E+01  0.21297983105E+02  0.25001075274E+00 0.  0.
        -13    1    4    4    0    0 -0.33012895890E+01  0.42374573965E+00  0.29167380157E+01  0.44267887972E+01  0.10500000000E+00 0.  1.
         13    1    4    4    0    0 -0.74034666472E+01  0.96742323278E+00  0.67475427015E+01  0.10064173270E+02  0.10500000000E+00 0. -1.
    3000001    1    5    5    0    0  0.28202605130E+02 -0.12323358201E+02 -0.27374335660E+02  0.41202018716E+02  0.10000000000E+01 0. -1.
        -13    1    6    6    0    0  0.90768435484E+01 -0.60590843867E+01 -0.49994116539E+01  0.12004446438E+02  0.10500000000E+00 0.  1.
         13    1    6    6    0    0  0.70732513372E+01 -0.47072986467E+01 -0.37642069219E+01  0.92935366670E+01  0.10500000000E+00 0. -1.
</event>
<event>
11    0  0.3422856E-009  0.9118800E+02  0.7816531E-02  0.1126479E+00
         25   -1    0    0    0    0  0.00000000000E+00  0.00000000000E+00  0.99999998245E-14  0.12500000000E+03  0.12500000000E+03 0.  0.
    3000001    1    3    3    0    0 -0.14458788831E+02  0.66507919095E+01  0.65554777677E+01  0.17241342647E+02  0.10000000000E+01 0. -1.
    1000022    2    1    0    0    0 -0.43340814531E+02  0.37159472431E+02  0.23387970837E+02  0.62500002803E+02  0.10000028752E+02 0.  0.
    3000022    2    3    3    0    0 -0.28882025700E+02  0.30508680521E+02  0.16832493069E+02  0.45258660157E+02  0.25000123938E+00 0.  0.
    1000022    2    1    0    0    0  0.43340814531E+02 -0.37159472431E+02 -0.23387970837E+02  0.62499997197E+02  0.99999937095E+01 0.  0.
    3000022    2    5    5    0    0  0.28450649288E+02 -0.17980613100E+02 -0.13738926220E+02  0.36353300882E+02  0.24999785594E+00 0.  0.
        -13    1    4    4    0    0 -0.12714661914E+02  0.13470097758E+02  0.73565185728E+01  0.19930768969E+02  0.10500000000E+00 0. -1.
         13    1    4    4    0    0 -0.16167363786E+02  0.17038582763E+02  0.94759744961E+01  0.25327891188E+02  0.10500000000E+00 0.  1.
    3000001    1    5    5    0    0  0.14890165243E+02 -0.19178859331E+02 -0.96490446162E+01  0.26146696315E+02  0.10000000000E+01 0. -1.
        -13    1    6    6    0    0  0.82222229824E+01 -0.51649437035E+01 -0.39996300236E+01  0.10501888381E+02  0.10500000000E+00 0.  1.
         13    1    6    6    0    0  0.20228426306E+02 -0.12815669396E+02 -0.97392961968E+01  0.25851412501E+02  0.10500000000E+00 0. -1.
</event>
<event>
11    0  0.3422856E-009  0.9118800E+02  0.7816531E-02  0.1126479E+00
         25   -1    0    0    0    0  0.00000000000E+00  0.00000000000E+00  0.99999998245E-14  0.12500000000E+03  0.12500000000E+03 0.  0.
    3000001    1    3    3    0    0 -0.34964405644E+01 -0.71558661568E+00 -0.28555633286E+02  0.28795161975E+02  0.10000000000E+01 0. -1.
    1000022    2    1    0    0    0 -0.15973734310E+02 -0.75402533230E+01 -0.59112052184E+02  0.62500000954E+02  0.99999898942E+01 0.  0.
    3000022    2    3    3    0    0 -0.12477293746E+02 -0.68246667073E+01 -0.30556418898E+02  0.33704838979E+02  0.24999966686E+00 0.  0.
    1000022    2    1    0    0    0  0.15973734310E+02  0.75402533230E+01  0.59112052184E+02  0.62499999046E+02  0.99999779697E+01 0.  0.
    3000022    2    5    5    0    0  0.11158918626E+02  0.13259116754E+01  0.23956717192E+02  0.26462545327E+02  0.24999975977E+00 0.  0.
        -13    1    4    4    0    0 -0.29796734071E+01 -0.16112372879E+01 -0.72975882467E+01  0.80461393494E+01  0.10500000000E+00 0.  1.
         13    1    4    4    0    0 -0.94976203387E+01 -0.52134294194E+01 -0.23258830651E+02  0.25658699630E+02  0.10500000000E+00 0. -1.
    3000001    1    5    5    0    0  0.48148156841E+01  0.62143416476E+01  0.35155334992E+02  0.36037453719E+02  0.10000000000E+01 0.  1.
        -13    1    6    6    0    0  0.68599841109E+01  0.82444659355E+00  0.14871473989E+02  0.16398501694E+02  0.10500000000E+00 0.  1.
         13    1    6    6    0    0  0.42989345153E+01  0.50146508189E+00  0.90852432029E+01  0.10064043633E+02  0.10500000000E+00 0. -1.
</event>
<event>
11    0  0.3422856E-009  0.9118800E+02  0.7816531E-02  0.1126479E+00
         25   -1    0    0    0    0  0.00000000000E+00  0.00000000000E+00  0.99999998245E-14  0.12500000000E+03  0.12500000000E+03 0.  0.
    3000001    1    3    3    0    0  0.24679328541E+01  0.26786017312E+00  0.78673861145E+00  0.27895159594E+01  0.10000000000E+01 0.  1.
    1000022    2    1    0    0    0  0.36821628981E+02  0.40776748584E+02  0.28065537346E+02  0.62499999364E+02  0.99999974034E+01 0.  0.
    3000022    2    3    3    0    0  0.34353696127E+02  0.40508888411E+02  0.27278798734E+02  0.59710483404E+02  0.24998027423E+00 0.  0.
    1000022    2    1    0    0    0 -0.36821628981E+02 -0.40776748584E+02 -0.28065537346E+02  0.62500000636E+02  0.10000005358E+02 0.  0.
    3000022    2    5    5    0    0 -0.13575270758E+02 -0.10569539407E+02 -0.12722211453E+02  0.21399072347E+02  0.24998717426E+00 0.  0.
        -13    1    4    4    0    0  0.10337412306E+02  0.12233734017E+02  0.82667679733E+01  0.18024339625E+02  0.10500000000E+00 0.  1.
         13    1    4    4    0    0  0.24016283820E+02  0.28275154393E+02  0.19012030761E+02  0.41686143779E+02  0.10500000000E+00 0. -1.
    3000001    1    5    5    0    0 -0.23246358223E+02 -0.30207209176E+02 -0.15343325893E+02  0.41100928290E+02  0.10000000000E+01 0.  1.
        -13    1    6    6    0    0 -0.72914175765E+01 -0.57142728820E+01 -0.69251044033E+01  0.11566580343E+02  0.10500000000E+00 0. -1.
         13    1    6    6    0    0 -0.62838531818E+01 -0.48552665255E+01 -0.57971070499E+01  0.98324920031E+01  0.10500000000E+00 0.  1.
</event>
<event>
11    0  0.3422856E-009  0.9118800E+02  0.7816531E-02  0.1126479E+00
         25   -1    0    0    0    0  0.00000000000E+00  0.00000000000E+00  0.99999998245E-14  0.12500000000E+03  0.12500000000E+03 0.  0.
    3000001    1    3    3    0    0 -0.13526510898E+02  0.11779681881E+02 -0.27855938662E+02  0.33146353058E+02  0.10000000000E+01 0.  1.
    1000022    2    1    0    0    0 -0.24272608012E+02  0.13352257967E+02 -0.55125377523E+02  0.62499996728E+02  0.10000002573E+02 0.  0.
    3000022    2    3    3    0    0 -0.10746097113E+02  0.15725760861E+01 -0.27269438861E+02  0.29353643670E+02  0.25000441826E+00 0.  0.
    1000022    2    1    0    0    0  0.24272608012E+02 -0.13352257967E+02  0.55125377523E+02  0.62500003272E+02  0.10000043472E+02 0.  0.
    3000022    2    5    5    0    0  0.17655194228E+02 -0.14223030574E+02  0.43645160997E+02  0.49182954740E+02  0.24995315361E+00 0.  0.
        -13    1    4    4    0    0 -0.73435885815E+01  0.10694952705E+01 -0.18765104051E+02  0.20179501194E+02  0.10500000000E+00 0. -1.
         13    1    4    4    0    0 -0.34025085319E+01  0.50308081556E+00 -0.85043348105E+01  0.91741424768E+01  0.10500000000E+00 0.  1.
    3000001    1    5    5    0    0  0.66174137839E+01  0.87077260678E+00  0.11480216526E+02  0.13317048532E+02  0.10000000000E+01 0.  1.
        -13    1    6    6    0    0  0.10599453757E+02 -0.85807040164E+01  0.26136031656E+02  0.29480164129E+02  0.10500000000E+00 0. -1.
         13    1    6    6    0    0  0.70557404704E+01 -0.56423265575E+01  0.17509129341E+02  0.19702790611E+02  0.10500000000E+00 0.  1.
</event>
<event>
11    0  0.3422856E-009  0.9118800E+02  0.7816531E-02  0.1126479E+00
         25   -1    0    0    0    0  0.00000000000E+00  0.00000000000E+00  0.99999998245E-14  0.12500000000E+03  0.12500000000E+03 0.  0.
    3000001    1    3    3    0    0  0.39740555334E+01 -0.28879911009E+01 -0.35250930703E+01  0.61286124968E+01  0.10000000000E+01 0. -1.
    1000022    2    1    0    0    0  0.49879251565E+02 -0.35077743301E+02 -0.93734821245E+01  0.62499999874E+02  0.10000000264E+02 0.  0.
    3000022    2    3    3    0    0  0.45905196032E+02 -0.32189752200E+02 -0.58483890542E+01  0.56371387377E+02  0.24998170910E+00 0.  0.
    1000022    2    1    0    0    0 -0.49879251565E+02  0.35077743301E+02  0.93734821245E+01  0.62500000126E+02  0.10000001842E+02 0.  0.
    3000022    2    5    5    0    0 -0.27301592427E+02  0.24836441653E+02  0.41250457307E+01  0.37138986026E+02  0.24999545070E+00 0.  0.
        -13    1    4    4    0    0  0.21869424956E+02 -0.15399826717E+02 -0.27476871677E+01  0.26888421683E+02  0.10500000000E+00 0. -1.
         13    1    4    4    0    0  0.24035771076E+02 -0.16789925483E+02 -0.31007018865E+01  0.29482965694E+02  0.10500000000E+00 0.  1.
    3000001    1    5    5    0    0 -0.22577659138E+02  0.10241301647E+02  0.52484363938E+01  0.25361014100E+02  0.10000000000E+01 0.  1.
        -13    1    6    6    0    0 -0.13431252431E+02  0.12293019087E+02  0.19952381412E+01  0.18316900949E+02  0.10500000000E+00 0.  1.
         13    1    6    6    0    0 -0.13870339996E+02  0.12543422567E+02  0.21298075895E+01  0.18822085078E+02  0.10500000000E+00 0. -1.
</event>
<event>
11    0  0.3422856E-009  0.9118800E+02  0.7816531E-02  0.1126479E+00
         25   -1    0    0    0    0  0.00000000000E+00  0.00000000000E+00  0.99999998245E-14  0.12500000000E+03  0.12500000000E+03 0.  0.
    3000001    1    3    3    0    0 -0.17754356843E+02 -0.24332437169E+02  0.40342334179E+02  0.50356614387E+02  0.10000000000E+01 0.  1.
    1000022    2    1    0    0    0 -0.25944049547E+02 -0.30147833523E+02  0.47162105215E+02  0.62499994262E+02  0.99999770697E+01 0.  0.
    3000022    2    3    3    0    0 -0.81896927041E+01 -0.58153963541E+01  0.68197710356E+01  0.12143379875E+02  0.24999292615E+00 0.  0.
    1000022    2    1    0    0    0  0.25944049547E+02  0.30147833523E+02 -0.47162105215E+02  0.62500005738E+02  0.10000048792E+02 0.  0.
    3000022    2    5    5    0    0  0.18749974303E+02  0.18902803376E+02 -0.24518358831E+02  0.36195164512E+02  0.25000481653E+00 0.  0.
        -13    1    4    4    0    0 -0.57284384506E+01 -0.40225564413E+01  0.47169499954E+01  0.84413630218E+01  0.10500000000E+00 0.  1.
         13    1    4    4    0    0 -0.24612542535E+01 -0.17928399128E+01  0.21028210402E+01  0.37020168530E+01  0.10500000000E+00 0. -1.
    3000001    1    5    5    0    0  0.71940752440E+01  0.11245030148E+02 -0.22643746384E+02  0.26304841226E+02  0.10000000000E+01 0. -1.
        -13    1    6    6    0    0  0.12641194798E+02  0.12817475356E+02 -0.16578981124E+02  0.24473682202E+02  0.10500000000E+00 0. -1.
         13    1    6    6    0    0  0.61087795053E+01  0.60853280194E+01 -0.79393777070E+01  0.11721482309E+02  0.10500000000E+00 0.  1.
</event>
<event>
11    0  0.3422856E-009  0.9118800E+02  0.7816531E-02  0.1126479E+00
         25   -1    0    0    0    0  0.00000000000E+00  0.00000000000E+00  0.99999998245E-14  0.12500000000E+03  0.12500000000E+03 0.  0.
    3000001    1    3    3    0    0 -0.13050640255E+02 -0.27392973969E+02 -0.21684222108E+02  0.37308172327E+02  0.10000000000E+01 0.  1.
    1000022    2    1    0    0    0 -0.17452433182E+02 -0.41841648060E+02 -0.41844224317E+02  0.62499999288E+02  0.99999932962E+01 0.  0.
    3000022    2    3    3    0    0 -0.44017929262E+01 -0.14448674091E+02 -0.20160002209E+02  0.25191826961E+02  0.24998519592E+00 0.  0.
    1000022    2    1    0    0    0  0.17452433182E+02  0.41841648060E+02  0.41844224317E+02  0.62500000712E+02  0.10000002193E+02 0.  0.
    3000022    2    5    5    0    0  0.15253616561E+02  0.31356982384E+02  0.26681841698E+02  0.43908043968E+02  0.24997252118E+00 0.  0.
        -13    1    4    4    0    0 -0.24090505392E+01 -0.79957874361E+01 -0.11247946684E+02  0.14009406512E+02  0.10500000000E+00 0. -1.
         13    1    4    4    0    0 -0.19927423870E+01 -0.64528866552E+01 -0.89120555257E+01  0.11182420449E+02  0.10500000000E+00 0.  1.
    3000001    1    5    5    0    0  0.21988166211E+01  0.10484665677E+02  0.15162382619E+02  0.18591956744E+02  0.10000000000E+01 0.  1.
        -13    1    6    6    0    0  0.99618294463E+01  0.20575310961E+02  0.17446383181E+02  0.28757064839E+02  0.10500000000E+00 0. -1.
         13    1    6    6    0    0  0.52917871142E+01  0.10781671423E+02  0.92354585171E+01  0.15150979128E+02  0.10500000000E+00 0.  1.
</event>
<event>
11    0  0.3422856E-009  0.9118800E+02  0.7816531E-02  0.1126479E+00
         25   -1    0    0    0    0  0.00000000000E+00  0.00000000000E+00  0.99999998245E-14  0.12500000000E+03  0.12500000000E+03 0.  0.
    3000001    1    3    3    0    0  0.18943768827E+01 -0.51051326195E+02  0.10932193827E+02  0.52252649999E+02  0.10000000000E+01 0. -1.
    1000022    2    1    0    0    0 -0.90559567387E+00 -0.60865286556E+02  0.10042249563E+02  0.62499999299E+02  0.99999962507E+01 0.  0.
    3000022    2    3    3    0    0 -0.27999725566E+01 -0.98139603607E+01 -0.88994426393E+00  0.10247349300E+02  0.25000519647E+00 0.  0.
    1000022    2    1    0    0    0  0.90559567387E+00  0.60865286556E+02 -0.10042249563E+02  0.62500000701E+02  0.10000005014E+02 0.  0.
    3000022    2    5    5    0    0  0.38465469272E+01  0.34040221267E+02 -0.19672709779E+01  0.34314213481E+02  0.25000917483E+00 0.  0.
        -13    1    4    4    0    0 -0.11191386153E+01 -0.41594000722E+01 -0.37562928472E+00  0.43249511628E+01  0.10500000000E+00 0.  1.
         13    1    4    4    0    0 -0.16808339412E+01 -0.56545602885E+01 -0.51431497921E+00  0.59223981369E+01  0.10500000000E+00 0. -1.
    3000001    1    5    5    0    0 -0.29409512534E+01  0.26825065289E+02 -0.80749785854E+01  0.28185787220E+02  0.10000000000E+01 0.  1.
        -13    1    6    6    0    0  0.28172909078E+01  0.24593763631E+02 -0.14135900889E+01  0.24795152742E+02  0.10500000000E+00 0.  1.
         13    1    6    6    0    0  0.10292560194E+01  0.94464576361E+01 -0.55368088906E+00  0.95190607389E+01  0.10500000000E+00 0. -1.
</event>
<event>
11    0  0.3422856E-009  0.9118800E+02  0.7816531E-02  0.1126479E+00
         25   -1    0    0    0    0  0.00000000000E+00  0.00000000000E+00  0.99999998245E-14  0.12500000000E+03  0.12500000000E+03 0.  0.
    3000001    1    3    3    0    0 -0.80172836427E+01  0.89854488941E+00  0.45823823488E+02  0.46539306172E+02  0.10000000000E+01 0. -1.
    1000022    2    1    0    0    0 -0.50507013560E+01  0.22401753268E+01  0.61446903473E+02  0.62499999206E+02  0.99999992354E+01 0.  0.
    3000022    2    3    3    0    0  0.29665822867E+01  0.13416304374E+01  0.15623079985E+02  0.15960693034E+02  0.25002244797E+00 0.  0.
    1000022    2    1    0    0    0  0.50507013560E+01 -0.22401753268E+01 -0.61446903473E+02  0.62500000794E+02  0.10000009156E+02 0.  0.
    3000022    2    5    5    0    0  0.49697563800E+00 -0.56144956679E+01 -0.28245397234E+02  0.28803376746E+02  0.25000136112E+00 0.  0.
        -13    1    4    4    0    0  0.13365484664E+01  0.65826229668E+00  0.73722731600E+01  0.75220414516E+01  0.10500000000E+00 0. -1.
         13    1    4    4    0    0  0.16300338203E+01  0.68336814073E+00  0.82508068248E+01  0.84386515826E+01  0.10500000000E+00 0.  1.
    3000001    1    5    5    0    0  0.45537257180E+01  0.33743203411E+01 -0.33201506239E+02  0.33696624048E+02  0.10000000000E+01 0.  1.
        -13    1    6    6    0    0  0.39694890525E+00 -0.42130761294E+01 -0.21139538971E+02  0.21559190889E+02  0.10500000000E+00 0.  1.
         13    1    6    6    0    0  0.10002673275E+00 -0.14014195385E+01 -0.71058582632E+01  0.72441858567E+01  0.10500000000E+00 0. -1.
</event>
<event>
11    0  0.3422856E-009  0.9118800E+02  0.7816531E-02  0.1126479E+00
         25   -1    0    0    0    0  0.00000000000E+00  0.00000000000E+00  0.99999998245E-14  0.12500000000E+03  0.12500000000E+03 0.  0.
    3000001    1    3    3    0    0 -0.31540974077E+02 -0.46335951407E+02  0.31786039197E+01  0.56151197328E+02  0.10000000000E+01 0. -1.
    1000022    2    1    0    0    0 -0.33662655325E+02 -0.51699012730E+02  0.53647563588E+00  0.62500000294E+02  0.99999974939E+01 0.  0.
    3000022    2    3    3    0    0 -0.21216812478E+01 -0.53630613230E+01 -0.26421282838E+01  0.63488029658E+01  0.24999831846E+00 0.  0.
    1000022    2    1    0    0    0  0.33662655325E+02  0.51699012730E+02 -0.53647563588E+00  0.62499999706E+02  0.99999938221E+01 0.  0.
    3000022    2    5    5    0    0  0.21364038723E+01  0.38835682779E+01  0.25775457247E+01  0.51334729873E+01  0.24995774398E+00 0.  0.
        -13    1    4    4    0    0 -0.97555726934E+00 -0.24438198142E+01 -0.11325822717E+01  0.28666591831E+01  0.10500000000E+00 0.  1.
         13    1    4    4    0    0 -0.11461239784E+01 -0.29192415088E+01 -0.15095460121E+01  0.34821437827E+01  0.10500000000E+00 0. -1.
    3000001    1    5    5    0    0  0.31526251452E+02  0.47815444452E+02 -0.31140213606E+01  0.57366526719E+02  0.10000000000E+01 0. -1.
        -13    1    6    6    0    0  0.11561893976E+01  0.21237289688E+01  0.13294736565E+01  0.27614351087E+01  0.10500000000E+00 0. -1.
         13    1    6    6    0    0  0.98021447467E+00  0.17598393090E+01  0.12480720682E+01  0.23720378786E+01  0.10500000000E+00 0.  1.
</event>
<event>
11    0  0.3422856E-009  0.9118800E+02  0.7816531E-02  0.1126479E+00
         25   -1    0    0    0    0  0.00000000000E+00  0.00000000000E+00  0.99999998245E-14  0.12500000000E+03  0.12500000000E+03 0.  0.
    3000001    1    3    3    0    0 -0.25905693776E+02 -0.11197522847E+02 -0.32159970484E+02  0.42798985846E+02  0.10000000000E+01 0.  1.
    1000022    2    1    0    0    0 -0.41803378625E+02 -0.17807821209E+02 -0.41732588149E+02  0.62499999398E+02  0.10000002521E+02 0.  0.
    3000022    2    3    3    0    0 -0.15897684849E+02 -0.66102983619E+01 -0.95726176652E+01  0.19701013552E+02  0.24999601352E+00 0.  0.
    1000022    2    1    0    0    0  0.41803378625E+02  0.17807821209E+02  0.41732588149E+02  0.62500000602E+02  0.10000010044E+02 0.  0.
    3000022    2    5    5    0    0  0.80983421208E+01  0.69236767849E+01  0.13468190601E+02  0.17174839219E+02  0.24999760460E+00 0.  0.
        -13    1    4    4    0    0 -0.41537777884E+01 -0.17584855157E+01 -0.25253853252E+01  0.51705645016E+01  0.10500000000E+00 0.  1.
         13    1    4    4    0    0 -0.11743907061E+02 -0.48518128462E+01 -0.70472323400E+01  0.14530449050E+02  0.10500000000E+00 0. -1.
    3000001    1    5    5    0    0  0.33705036505E+02  0.10884144424E+02  0.28264397548E+02  0.45325161383E+02  0.10000000000E+01 0.  1.
        -13    1    6    6    0    0  0.50082532533E+01  0.42887651155E+01  0.84318452364E+01  0.10704351730E+02  0.10500000000E+00 0.  1.
         13    1    6    6    0    0  0.30900888674E+01  0.26349116694E+01  0.50363453647E+01  0.64704874891E+01  0.10500000000E+00 0. -1.
</event>
<event>
11    0  0.3422856E-009  0.9118800E+02  0.7816531E-02  0.1126479E+00
         25   -1    0    0    0    0  0.00000000000E+00  0.00000000000E+00  0.99999998245E-14  0.12500000000E+03  0.12500000000E+03 0.  0.
    3000001    1    3    3    0    0 -0.19402951552E+02 -0.43589366270E+01 -0.23749864873E+02  0.30992433576E+02  0.10000000000E+01 0.  1.
    1000022    2    1    0    0    0 -0.42413445961E+02 -0.16008858889E+02 -0.41845740518E+02  0.62500000270E+02  0.10000003653E+02 0.  0.
    3000022    2    3    3    0    0 -0.23010494409E+02 -0.11649922262E+02 -0.18095875645E+02  0.31507566694E+02  0.25000400831E+00 0.  0.
    1000022    2    1    0    0    0  0.42413445961E+02  0.16008858889E+02  0.41845740518E+02  0.62499999730E+02  0.10000000277E+02 0.  0.
    3000022    2    5    5    0    0  0.28089063806E+02  0.14965743620E+02  0.31422287101E+02  0.44725737587E+02  0.24997690362E+00 0.  0.
        -13    1    4    4    0    0 -0.12941407130E+02 -0.64780046408E+01 -0.10154680300E+02  0.17679737544E+02  0.10500000000E+00 0.  1.
         13    1    4    4    0    0 -0.10069087279E+02 -0.51719176209E+01 -0.79411953454E+01  0.13827829151E+02  0.10500000000E+00 0. -1.
    3000001    1    5    5    0    0  0.14324382155E+02  0.10431152690E+01  0.10423453416E+02  0.17774262142E+02  0.10000000000E+01 0. -1.
        -13    1    6    6    0    0  0.12392269602E+02  0.66161310948E+01  0.13777742121E+02  0.19676857968E+02  0.10500000000E+00 0.  1.
         13    1    6    6    0    0  0.15696794204E+02  0.83496125250E+01  0.17644544981E+02  0.25048879619E+02  0.10500000000E+00 0. -1.
</event>
<event>
11    0  0.3422856E-009  0.9118800E+02  0.7816531E-02  0.1126479E+00
         25   -1    0    0    0    0  0.00000000000E+00  0.00000000000E+00  0.99999998245E-14  0.12500000000E+03  0.12500000000E+03 0.  0.
    3000001    1    3    3    0    0  0.34759436803E+02 -0.46855407705E+02  0.27201732507E+01  0.58412729953E+02  0.10000000000E+01 0.  1.
    1000022    2    1    0    0    0  0.34725986327E+02 -0.50881797141E+02  0.33761850602E+01  0.62500000638E+02  0.10000002377E+02 0.  0.
    3000022    2    3    3    0    0 -0.33450475967E-01 -0.40263894356E+01  0.65601180947E+00  0.40872706848E+01  0.24999866979E+00 0.  0.
    1000022    2    1    0    0    0 -0.34725986327E+02  0.50881797141E+02 -0.33761850602E+01  0.62499999362E+02  0.99999944004E+01 0.  0.
    3000022    2    5    5    0    0 -0.11923195114E+02  0.11456398710E+02 -0.36873178257E+01  0.16943154299E+02  0.25002340145E+00 0.  0.
        -13    1    4    4    0    0 -0.65367754815E-01 -0.20592722705E+01  0.28735685437E+00  0.20829004270E+01  0.10500000000E+00 0. -1.
         13    1    4    4    0    0  0.31917278848E-01 -0.19671171651E+01  0.36865495510E+00  0.20043702577E+01  0.10500000000E+00 0.  1.
    3000001    1    5    5    0    0 -0.22802791213E+02  0.39425398431E+02  0.31113276554E+00  0.45556845063E+02  0.10000000000E+01 0.  1.
        -13    1    6    6    0    0 -0.47373634460E+01  0.46131861725E+01 -0.15206970279E+01  0.67858414020E+01  0.10500000000E+00 0. -1.
         13    1    6    6    0    0 -0.71858316683E+01  0.68432125374E+01 -0.21666207978E+01  0.10157312897E+02  0.10500000000E+00 0.  1.
</event>
<event>
11    0  0.3422856E-009  0.9118800E+02  0.7816531E-02  0.1126479E+00
         25   -1    0    0    0    0  0.00000000000E+00  0.00000000000E+00  0.99999998245E-14  0.12500000000E+03  0.12500000000E+03 0.  0.
    3000001    1    3    3    0    0  0.59141301918E+01 -0.18108313545E+02  0.44219922855E+02  0.48159002613E+02  0.10000000000E+01 0.  1.
    1000022    2    1    0    0    0  0.27727112342E+01 -0.25430014733E+02  0.56141577525E+02  0.62499998857E+02  0.99999776649E+01 0.  0.
    3000022    2    3    3    0    0 -0.31414189576E+01 -0.73217011877E+01  0.11921654669E+02  0.14340996244E+02  0.25000373213E+00 0.  0.
    1000022    2    1    0    0    0 -0.27727112342E+01  0.25430014733E+02 -0.56141577525E+02  0.62500001143E+02  0.99999919504E+01 0.  0.
    3000022    2    5    5    0    0 -0.12618169701E+01  0.52631505912E+01 -0.45425875925E+01  0.70703973846E+01  0.24996185572E+00 0.  0.
        -13    1    4    4    0    0 -0.13167870982E+01 -0.29470237320E+01  0.49052236343E+01  0.58729141865E+01  0.10500000000E+00 0. -1.
         13    1    4    4    0    0 -0.18246318594E+01 -0.43746774556E+01  0.70164310351E+01  0.84680820576E+01  0.10500000000E+00 0.  1.
    3000001    1    5    5    0    0 -0.15108942641E+01  0.20166864142E+02 -0.51598989932E+02  0.55429603758E+02  0.10000000000E+01 0.  1.
        -13    1    6    6    0    0 -0.88067686181E+00  0.34406472619E+01 -0.29939638193E+01  0.46463415357E+01  0.10500000000E+00 0.  1.
         13    1    6    6    0    0 -0.38114010833E+00  0.18225033293E+01 -0.15486237732E+01  0.24240558489E+01  0.10500000000E+00 0. -1.
</event>
<event>
11    0  0.3422856E-009  0.9118800E+02  0.7816531E-02  0.1126479E+00
         25   -1    0    0    0    0  0.00000000000E+00  0.00000000000E+00  0.99999998245E-14  0.12500000000E+03  0.12500000000E+03 0.  0.
    3000001    1    3    3    0    0 -0.34923554678E+01 -0.53829342167E+01  0.25277746670E+01  0.69686564173E+01  0.10000000000E+01 0. -1.
    1000022    2    1    0    0    0 -0.35515804025E+02 -0.50299933633E+02 -0.38463375232E+01  0.62499997993E+02  0.99999888859E+01 0.  0.
    3000022    2    3    3    0    0 -0.32023448558E+02 -0.44916999416E+02 -0.63741121903E+01  0.55531341575E+02  0.24999378200E+00 0.  0.
    1000022    2    1    0    0    0  0.35515804025E+02  0.50299933633E+02  0.38463375232E+01  0.62500002007E+02  0.10000013976E+02 0.  0.
    3000022    2    5    5    0    0  0.32277748560E+02  0.39715758542E+02  0.44382124290E+01  0.51370757583E+02  0.24995282931E+00 0.  0.
        -13    1    4    4    0    0 -0.10644164942E+02 -0.14994966661E+02 -0.20867177383E+01  0.18507098324E+02  0.10500000000E+00 0. -1.
         13    1    4    4    0    0 -0.21379283616E+02 -0.29922032755E+02 -0.42873944519E+01  0.37024243251E+02  0.10500000000E+00 0.  1.
    3000001    1    5    5    0    0  0.32380554654E+01  0.10584175091E+02 -0.59187490582E+00  0.11129244424E+02  0.10000000000E+01 0.  1.
        -13    1    6    6    0    0  0.11595741003E+02  0.14348620396E+02  0.16279426407E+01  0.18520403314E+02  0.10500000000E+00 0.  1.
         13    1    6    6    0    0  0.20682007557E+02  0.25367138146E+02  0.28102697883E+01  0.32850354269E+02  0.10500000000E+00 0. -1.
</event>
<event>
11    0  0.3422856E-009  0.9118800E+02  0.7816531E-02  0.1126479E+00
         25   -1    0    0    0    0  0.00000000000E+00  0.00000000000E+00  0.99999998245E-14  0.12500000000E+03  0.12500000000E+03 0.  0.
    3000001    1    3    3    0    0 -0.77343450441E-01  0.83869070069E+01 -0.10734683468E+02  0.13659415079E+02  0.10000000000E+01 0.  1.
    1000022    2    1    0    0    0  0.16283514734E+02  0.42116957063E+02 -0.42038779460E+02  0.62500001488E+02  0.10000014160E+02 0.  0.
    3000022    2    3    3    0    0  0.16360858185E+02  0.33730050056E+02 -0.31304095992E+02  0.48840586409E+02  0.24999513929E+00 0.  0.
    1000022    2    1    0    0    0 -0.16283514734E+02 -0.42116957063E+02  0.42038779460E+02  0.62499998512E+02  0.99999955582E+01 0.  0.
    3000022    2    5    5    0    0 -0.20425412112E+01 -0.18432442453E+02  0.18279356965E+02  0.26040819743E+02  0.24998492420E+00 0.  0.
        -13    1    4    4    0    0  0.76136613735E+01  0.15759050426E+02 -0.14534446822E+02  0.22750311630E+02  0.10500000000E+00 0. -1.
         13    1    4    4    0    0  0.87471968112E+01  0.17970999630E+02 -0.16769649170E+02  0.26090274779E+02  0.10500000000E+00 0.  1.
    3000001    1    5    5    0    0 -0.14240973523E+02 -0.23684514609E+02  0.23759422495E+02  0.36459178768E+02  0.10000000000E+01 0.  1.
        -13    1    6    6    0    0 -0.74839811258E+00 -0.62808351523E+01  0.62102944745E+01  0.88649744729E+01  0.10500000000E+00 0.  1.
         13    1    6    6    0    0 -0.12941430987E+01 -0.12151607301E+02  0.12069062490E+02  0.17175845271E+02  0.10500000000E+00 0. -1.
</event>
<event>
11    0  0.3422856E-009  0.9118800E+02  0.7816531E-02  0.1126479E+00
         25   -1    0    0    0    0  0.00000000000E+00  0.00000000000E+00  0.99999998245E-14  0.12500000000E+03  0.12500000000E+03 0.  0.
    3000001    1    3    3    0    0 -0.10870738467E+02 -0.51217545136E+01  0.35108159962E+01  0.12559106380E+02  0.10000000000E+01 0. -1.
    1000022    2    1    0    0    0 -0.41536081681E+02 -0.38807579745E+02  0.23978653313E+02  0.62500001070E+02  0.99999995993E+01 0.  0.
    3000022    2    3    3    0    0 -0.30665343215E+02 -0.33685825231E+02  0.20467837317E+02  0.49940894690E+02  0.25000407924E+00 0.  0.
    1000022    2    1    0    0    0  0.41536081681E+02  0.38807579745E+02 -0.23978653313E+02  0.62499998930E+02  0.99999862203E+01 0.  0.
    3000022    2    5    5    0    0  0.22770915257E+02  0.21446890849E+02 -0.78326708844E+01  0.32247433113E+02  0.25000099624E+00 0.  0.
        -13    1    4    4    0    0 -0.15197043426E+02 -0.16720897070E+02  0.10223993552E+02  0.24800798311E+02  0.10500000000E+00 0.  1.
         13    1    4    4    0    0 -0.15468299789E+02 -0.16964928161E+02  0.10243843765E+02  0.25140096379E+02  0.10500000000E+00 0. -1.
    3000001    1    5    5    0    0  0.18765166424E+02  0.17360688896E+02 -0.16145982429E+02  0.30252565816E+02  0.10000000000E+01 0. -1.
        -13    1    6    6    0    0  0.11524656418E+02  0.10778746529E+02 -0.39105643658E+01  0.16257386658E+02  0.10500000000E+00 0. -1.
         13    1    6    6    0    0  0.11246258839E+02  0.10668144320E+02 -0.39221065186E+01  0.15990046455E+02  0.10500000000E+00 0.  1.
</event>
<event>
11    0  0.3422856E-009  0.9118800E+02  0.7816531E-02  0.1126479E+00
         25   -1    0    0    0    0  0.00000000000E+00  0.00000000000E+00  0.99999998245E-14  0.12500000000E+03  0.12500000000E+03 0.  0.
    3000001    1    3    3    0    0 -0.50614426140E+01  0.27938417026E+02  0.49138347613E+02  0.56760466466E+02  0.10000000000E+01 0.  1.
    1000022    2    1    0    0    0 -0.45129050959E+01  0.27889214866E+02  0.54845924346E+02  0.62500000299E+02  0.10000000089E+02 0.  0.
    3000022    2    3    3    0    0  0.54853751810E+00 -0.49202160509E-01  0.57075767333E+01  0.57395338336E+01  0.25000439781E+00 0.  0.
    1000022    2    1    0    0    0  0.45129050959E+01 -0.27889214866E+02 -0.54845924346E+02  0.62499999701E+02  0.99999963476E+01 0.  0.
    3000022    2    5    5    0    0 -0.19977951558E+01 -0.53047216648E+01 -0.58542640489E+01  0.81526784272E+01  0.25000111369E+00 0.  0.
        -13    1    4    4    0    0  0.42572853371E+00 -0.21882206932E-01  0.43517476559E+01  0.43738377057E+01  0.10500000000E+00 0. -1.
         13    1    4    4    0    0  0.12280898440E+00 -0.27319953577E-01  0.13558290774E+01  0.13656961279E+01  0.10500000000E+00 0.  1.
    3000001    1    5    5    0    0  0.65107002517E+01 -0.22584493201E+02 -0.48991660298E+02  0.54347321274E+02  0.10000000000E+01 0.  1.
        -13    1    6    6    0    0 -0.99341896797E+00 -0.24954441700E+01 -0.27088853898E+01  0.38161771324E+01  0.10500000000E+00 0.  1.
         13    1    6    6    0    0 -0.10043761878E+01 -0.28092774949E+01 -0.31453786592E+01  0.43365012947E+01  0.10500000000E+00 0. -1.
</event>
<event>
11    0  0.3422856E-009  0.9118800E+02  0.7816531E-02  0.1126479E+00
         25   -1    0    0    0    0  0.00000000000E+00  0.00000000000E+00  0.99999998245E-14  0.12500000000E+03  0.12500000000E+03 0.  0.
    3000001    1    3    3    0    0 -0.22612123377E+02  0.20497467759E+02  0.32450474752E+02  0.44558810798E+02  0.10000000000E+01 0. -1.
    1000022    2    1    0    0    0 -0.32539100904E+02  0.22748542652E+02  0.47222459175E+02  0.62499999364E+02  0.99999994738E+01 0.  0.
    3000022    2    3    3    0    0 -0.99269775277E+01  0.22510748935E+01  0.14771984423E+02  0.17941188566E+02  0.25000467968E+00 0.  0.
    1000022    2    1    0    0    0  0.32539100904E+02 -0.22748542652E+02 -0.47222459175E+02  0.62500000636E+02  0.10000007423E+02 0.  0.
    3000022    2    5    5    0    0  0.13099268943E+02 -0.11884136697E+02 -0.14327972855E+02  0.22763498352E+02  0.24999849068E+00 0.  0.
        -13    1    4    4    0    0 -0.57636966279E+01  0.13732701188E+01  0.85944903961E+01  0.10439461663E+02  0.10500000000E+00 0. -1.
         13    1    4    4    0    0 -0.41632808998E+01  0.87780477469E+00  0.61774940271E+01  0.75017269030E+01  0.10500000000E+00 0.  1.
    3000001    1    5    5    0    0  0.19439831962E+02 -0.10864405956E+02 -0.32894486320E+02  0.39736502284E+02  0.10000000000E+01 0. -1.
        -13    1    6    6    0    0  0.45977922059E+01 -0.41470696339E+01 -0.49473243840E+01  0.79262174634E+01  0.10500000000E+00 0.  1.
         13    1    6    6    0    0  0.85014767369E+01 -0.77370670627E+01 -0.93806484711E+01  0.14837280889E+02  0.10500000000E+00 0. -1.
</event>
<event>
11    0  0.3422856E-009  0.9118800E+02  0.7816531E-02  0.1126479E+00
         25   -1    0    0    0    0  0.00000000000E+00  0.00000000000E+00  0.99999998245E-14  0.12500000000E+03  0.12500000000E+03 0.  0.
    3000001    1    3    3    0    0 -0.39736115436E+02  0.46821278427E+01  0.39497853632E+01  0.40217931268E+02  0.10000000000E+01 0. -1.
    1000022    2    1    0    0    0 -0.61075482706E+02  0.39366957965E+00  0.87109397971E+01  0.62499999311E+02  0.99999939118E+01 0.  0.
    3000022    2    3    3    0    0 -0.21339367270E+02 -0.42884582630E+01  0.47611544339E+01  0.22282068043E+02  0.24998993848E+00 0.  0.
    1000022    2    1    0    0    0  0.61075482706E+02 -0.39366957965E+00 -0.87109397971E+01  0.62500000689E+02  0.10000002526E+02 0.  0.
    3000022    2    5    5    0    0  0.59686186538E+01 -0.22352391824E+00  0.20949943869E+01  0.63344985658E+01  0.24999804449E+00 0.  0.
        -13    1    4    4    0    0 -0.11069626337E+02 -0.22841664778E+01  0.24374195265E+01  0.11563134639E+02  0.10500000000E+00 0. -1.
         13    1    4    4    0    0 -0.10269740933E+02 -0.20042917852E+01  0.23237349074E+01  0.10718933404E+02  0.10500000000E+00 0.  1.
    3000001    1    5    5    0    0  0.55106864052E+02 -0.17014566141E+00 -0.10805934184E+02  0.56165502123E+02  0.10000000000E+01 0. -1.
        -13    1    6    6    0    0  0.25245467034E+01 -0.34115501632E-01  0.86010345179E+00  0.26693262957E+01  0.10500000000E+00 0. -1.
         13    1    6    6    0    0  0.34440719504E+01 -0.18940841661E+00  0.12348909351E+01  0.36651722700E+01  0.10500000000E+00 0.  1.
</event>
<event>
11    0  0.3422856E-009  0.9118800E+02  0.7816531E-02  0.1126479E+00
         25   -1    0    0    0    0  0.00000000000E+00  0.00000000000E+00  0.99999998245E-14  0.12500000000E+03  0.12500000000E+03 0.  0.
    3000001    1    3    3    0    0  0.18922350297E+02 -0.21260889225E+02  0.99196071172E+01  0.30157575446E+02  0.10000000000E+01 0.  1.
    1000022    2    1    0    0    0  0.36630232155E+02 -0.39892292984E+02  0.29547945307E+02  0.62500000247E+02  0.10000000590E+02 0.  0.
    3000022    2    3    3    0    0  0.17707881857E+02 -0.18631403759E+02  0.19628338190E+02  0.32342424802E+02  0.24999204893E+00 0.  0.
    1000022    2    1    0    0    0 -0.36630232155E+02  0.39892292984E+02 -0.29547945307E+02  0.62499999753E+02  0.99999974966E+01 0.  0.
    3000022    2    5    5    0    0 -0.17191591149E+02  0.12078202126E+02 -0.13265494215E+02  0.24848935650E+02  0.24998674480E+00 0.  0.
        -13    1    4    4    0    0  0.84926674675E+01 -0.88394431740E+01  0.93773550899E+01  0.15433955093E+02  0.10500000000E+00 0.  1.
         13    1    4    4    0    0  0.92152143896E+01 -0.97919605855E+01  0.10250983100E+02  0.16908469708E+02  0.10500000000E+00 0. -1.
    3000001    1    5    5    0    0 -0.19438641006E+02  0.27814090859E+02 -0.16282451092E+02  0.37651064102E+02  0.10000000000E+01 0.  1.
        -13    1    6    6    0    0 -0.72803130277E+01  0.50504451890E+01 -0.55496449431E+01  0.10455598423E+02  0.10500000000E+00 0. -1.
         13    1    6    6    0    0 -0.99112781212E+01  0.70277569366E+01 -0.77158492720E+01  0.14393337227E+02  0.10500000000E+00 0.  1.
</event>
<event>
11    0  0.3422856E-009  0.9118800E+02  0.7816531E-02  0.1126479E+00
         25   -1    0    0    0    0  0.00000000000E+00  0.00000000000E+00  0.99999998245E-14  0.12500000000E+03  0.12500000000E+03 0.  0.
    3000001    1    3    3    0    0  0.90216100434E+01 -0.44992304687E+02 -0.11519236228E+02  0.47322190694E+02  0.10000000000E+01 0. -1.
    1000022    2    1    0    0    0  0.15219255256E+02 -0.56730663848E+02 -0.18874748390E+02  0.62500001449E+02  0.10000005160E+02 0.  0.
    3000022    2    3    3    0    0  0.61976452125E+01 -0.11738359162E+02 -0.73555121613E+01  0.15177810755E+02  0.24999637215E+00 0.  0.
    1000022    2    1    0    0    0 -0.15219255256E+02  0.56730663848E+02  0.18874748390E+02  0.62499998551E+02  0.99999870430E+01 0.  0.
    3000022    2    5    5    0    0 -0.12822593041E+02  0.30349693884E+02  0.12467547420E+02  0.35228185441E+02  0.24999931481E+00 0.  0.
        -13    1    4    4    0    0  0.23192683740E+01 -0.42747713352E+01 -0.27194278342E+01  0.55730591692E+01  0.10500000000E+00 0. -1.
         13    1    4    4    0    0  0.38783768385E+01 -0.74635878264E+01 -0.46360843271E+01  0.96047515862E+01  0.10500000000E+00 0.  1.
    3000001    1    5    5    0    0 -0.23966622151E+01  0.26380969964E+02  0.64072009699E+01  0.27271813109E+02  0.10000000000E+01 0.  1.
        -13    1    6    6    0    0 -0.79889702649E+01  0.18843280887E+02  0.78035837439E+01  0.21904333469E+02  0.10500000000E+00 0.  1.
         13    1    6    6    0    0 -0.48336227758E+01  0.11506412998E+02  0.46639636757E+01  0.13323851972E+02  0.10500000000E+00 0. -1.
</event>
<event>
11    0  0.3422856E-009  0.9118800E+02  0.7816531E-02  0.1126479E+00
         25   -1    0    0    0    0  0.00000000000E+00  0.00000000000E+00  0.99999998245E-14  0.12500000000E+03  0.12500000000E+03 0.  0.
    3000001    1    3    3    0    0 -0.11389436407E+02  0.72641911747E+01 -0.12513946865E+02  0.18441437071E+02  0.10000000000E+01 0. -1.
    1000022    2    1    0    0    0 -0.32620715471E+02  0.37355210512E+02 -0.36697782417E+02  0.62500001009E+02  0.10000003076E+02 0.  0.
    3000022    2    3    3    0    0 -0.21231279064E+02  0.30091019337E+02 -0.24183835552E+02  0.44058563938E+02  0.24999763226E+00 0.  0.
    1000022    2    1    0    0    0  0.32620715471E+02 -0.37355210512E+02  0.36697782417E+02  0.62499998991E+02  0.99999904696E+01 0.  0.
    3000022    2    5    5    0    0  0.28773292710E+02 -0.27305640135E+02  0.30531738859E+02  0.50057466298E+02  0.24999580004E+00 0.  0.
        -13    1    4    4    0    0 -0.14830569674E+02  0.21003641928E+02 -0.16830026394E+02  0.30730434174E+02  0.10500000000E+00 0. -1.
         13    1    4    4    0    0 -0.64007093903E+01  0.90873774095E+01 -0.73538091575E+01  0.13328129764E+02  0.10500000000E+00 0.  1.
    3000001    1    5    5    0    0  0.38474227610E+01 -0.10049570377E+02  0.61660435580E+01  0.12442532693E+02  0.10000000000E+01 0. -1.
        -13    1    6    6    0    0  0.21859457813E+02 -0.20719801501E+02  0.23193136415E+02  0.38014190402E+02  0.10500000000E+00 0.  1.
         13    1    6    6    0    0  0.69138348970E+01 -0.65858386341E+01  0.73386024433E+01  0.12043275896E+02  0.10500000000E+00 0. -1.
</event>
<event>
11    0  0.3422856E-009  0.9118800E+02  0.7816531E-02  0.1126479E+00
         25   -1    0    0    0    0  0.00000000000E+00  0.00000000000E+00  0.99999998245E-14  0.12500000000E+03  0.12500000000E+03 0.  0.
    3000001    1    3    3    0    0 -0.10385692048E+02 -0.37927913084E+01 -0.13743503744E+02  0.17667251070E+02  0.10000000000E+01 0. -1.
    1000022    2    1    0    0    0 -0.47616906528E+02 -0.97500232274E+01 -0.37997595694E+02  0.62500000457E+02  0.10000001917E+02 0.  0.
    3000022    2    3    3    0    0 -0.37231214481E+02 -0.59572319190E+01 -0.24254091950E+02  0.44832749387E+02  0.24999482644E+00 0.  0.
    1000022    2    1    0    0    0  0.47616906528E+02  0.97500232274E+01  0.37997595694E+02  0.62499999543E+02  0.99999962053E+01 0.  0.
    3000022    2    5    5    0    0  0.23796457053E+02 -0.17345323932E+00  0.18332564149E+02  0.30040753341E+02  0.24999734490E+00 0.  0.
        -13    1    4    4    0    0 -0.16979723728E+02 -0.27841066325E+01 -0.11058179675E+02  0.20453768121E+02  0.10500000000E+00 0. -1.
         13    1    4    4    0    0 -0.20251490753E+02 -0.31731252865E+01 -0.13195912275E+02  0.24378981266E+02  0.10500000000E+00 0.  1.
    3000001    1    5    5    0    0  0.23820449475E+02  0.99234764667E+01  0.19665031544E+02  0.32459246202E+02  0.10000000000E+01 0.  1.
        -13    1    6    6    0    0  0.12925075187E+02 -0.88880582041E-01  0.98729854055E+01  0.16265064838E+02  0.10500000000E+00 0.  1.
         13    1    6    6    0    0  0.10871381866E+02 -0.84572657278E-01  0.84595787440E+01  0.13775688503E+02  0.10500000000E+00 0. -1.
</event>
<event>
11    0  0.3422856E-009  0.9118800E+02  0.7816531E-02  0.1126479E+00
         25   -1    0    0    0    0  0.00000000000E+00  0.00000000000E+00  0.99999998245E-14  0.12500000000E+03  0.12500000000E+03 0.  0.
    3000001    1    3    3    0    0 -0.27846163809E+02  0.12959504583E+02  0.31821261233E+02  0.44237430581E+02  0.10000000000E+01 0.  1.
    1000022    2    1    0    0    0 -0.35355277628E+02  0.23280729739E+02  0.44880530219E+02  0.62500000219E+02  0.10000000064E+02 0.  0.
    3000022    2    3    3    0    0 -0.75091138182E+01  0.10321225156E+02  0.13059268986E+02  0.18262569638E+02  0.24992853040E+00 0.  0.
    1000022    2    1    0    0    0  0.35355277628E+02 -0.23280729739E+02 -0.44880530219E+02  0.62499999781E+02  0.99999973321E+01 0.  0.
    3000022    2    5    5    0    0  0.12243698349E+02 -0.95553545961E+01 -0.23355715267E+02  0.28049329566E+02  0.25000551477E+00 0.  0.
        -13    1    4    4    0    0 -0.32790347114E+01  0.45788913118E+01  0.56896461142E+01  0.80063357529E+01  0.10500000000E+00 0.  1.
         13    1    4    4    0    0 -0.42300791068E+01  0.57423338441E+01  0.73696228715E+01  0.10256233885E+02  0.10500000000E+00 0. -1.
    3000001    1    5    5    0    0  0.23111579279E+02 -0.13725375143E+02 -0.21524814952E+02  0.34450670215E+02  0.10000000000E+01 0.  1.
        -13    1    6    6    0    0  0.43197418443E+01 -0.33928025901E+01 -0.83595100495E+01  0.10003185107E+02  0.10500000000E+00 0.  1.
         13    1    6    6    0    0  0.79239565046E+01 -0.61625520060E+01 -0.14996205218E+02  0.18046144459E+02  0.10500000000E+00 0. -1.
</event>
<event>
11    0  0.3422856E-009  0.9118800E+02  0.7816531E-02  0.1126479E+00
         25   -1    0    0    0    0  0.00000000000E+00  0.00000000000E+00  0.99999998245E-14  0.12500000000E+03  0.12500000000E+03 0.  0.
    3000001    1    3    3    0    0  0.95335687785E+01  0.25788921451E+02  0.43971802554E+02  0.51869806469E+02  0.10000000000E+01 0.  1.
    1000022    2    1    0    0    0  0.15616678542E+02  0.29924978822E+02  0.51641699313E+02  0.62499999681E+02  0.99999923038E+01 0.  0.
    3000022    2    3    3    0    0  0.60831097634E+01  0.41360573715E+01  0.76698967584E+01  0.10630193213E+02  0.24999295303E+00 0.  0.
    1000022    2    1    0    0    0 -0.15616678542E+02 -0.29924978822E+02 -0.51641699313E+02  0.62500000319E+02  0.99999962864E+01 0.  0.
    3000022    2    5    5    0    0 -0.12168713235E+02 -0.17128024001E+02 -0.38195442069E+02  0.43593589996E+02  0.25001170327E+00 0.  0.
        -13    1    4    4    0    0  0.28578695377E+01  0.19527914981E+01  0.35125878100E+01  0.49325562392E+01  0.10500000000E+00 0. -1.
         13    1    4    4    0    0  0.32252402257E+01  0.21832658734E+01  0.41573089484E+01  0.56976369733E+01  0.10500000000E+00 0.  1.
    3000001    1    5    5    0    0 -0.34479653069E+01 -0.12796954821E+02 -0.13446257243E+02  0.18906410323E+02  0.10000000000E+01 0. -1.
        -13    1    6    6    0    0 -0.55236574299E+01 -0.78350922683E+01 -0.17308865380E+02  0.19786543609E+02  0.10500000000E+00 0.  1.
         13    1    6    6    0    0 -0.66450558052E+01 -0.92929317331E+01 -0.20886576689E+02  0.23807046387E+02  0.10500000000E+00 0. -1.
</event>
<event>
11    0  0.3422856E-009  0.9118800E+02  0.7816531E-02  0.1126479E+00
         25   -1    0    0    0    0  0.00000000000E+00  0.00000000000E+00  0.99999998245E-14  0.12500000000E+03  0.12500000000E+03 0.  0.
    3000001    1    3    3    0    0  0.88827786891E+01 -0.19166348431E+00 -0.14491263872E+02  0.17027543004E+02  0.10000000000E+01 0.  1.
    1000022    2    1    0    0    0  0.44590847676E+02  0.66034471282E+00 -0.42631799045E+02  0.62499999874E+02  0.99999971349E+01 0.  0.
    3000022    2    3    3    0    0  0.35708068987E+02  0.85200819713E+00 -0.28140535173E+02  0.45472456870E+02  0.25001033900E+00 0.  0.
    1000022    2    1    0    0    0 -0.44590847676E+02 -0.66034471282E+00  0.42631799045E+02  0.62500000126E+02  0.99999987155E+01 0.  0.
    3000022    2    5    5    0    0 -0.23569636848E+02  0.25991175317E+01  0.27841951332E+02  0.36572119492E+02  0.24995411011E+00 0.  0.
        -13    1    4    4    0    0  0.10598137001E+02  0.29391110654E+00 -0.83297329693E+01  0.13483410843E+02  0.10500000000E+00 0.  1.
         13    1    4    4    0    0  0.25109931986E+02  0.55809709059E+00 -0.19810802204E+02  0.31989046027E+02  0.10500000000E+00 0. -1.
    3000001    1    5    5    0    0 -0.21021210828E+02 -0.32594622445E+01  0.14789847713E+02  0.25927880634E+02  0.10000000000E+01 0.  1.
        -13    1    6    6    0    0 -0.17830804740E+02  0.19554132223E+01  0.21031071043E+02  0.27641964705E+02  0.10500000000E+00 0. -1.
         13    1    6    6    0    0 -0.57388321086E+01  0.64370430934E+00  0.68108802892E+01  0.89301547872E+01  0.10500000000E+00 0.  1.
</event>
<event>
11    0  0.3422856E-009  0.9118800E+02  0.7816531E-02  0.1126479E+00
         25   -1    0    0    0    0  0.00000000000E+00  0.00000000000E+00  0.99999998245E-14  0.12500000000E+03  0.12500000000E+03 0.  0.
    3000001    1    3    3    0    0  0.48988203393E+01 -0.29333925377E+02 -0.42316600339E+01  0.30056356489E+02  0.10000000000E+01 0. -1.
    1000022    2    1    0    0    0  0.11624594873E+02 -0.57718723528E+02 -0.18430073368E+02  0.62500003817E+02  0.10000031056E+02 0.  0.
    3000022    2    3    3    0    0  0.67257745336E+01 -0.28384798151E+02 -0.14198413335E+02  0.32443647328E+02  0.25000318724E+00 0.  0.
    1000022    2    1    0    0    0 -0.11624594873E+02  0.57718723528E+02  0.18430073368E+02  0.62499996183E+02  0.99999833400E+01 0.  0.
    3000022    2    5    5    0    0 -0.40784783796E+01  0.41030213363E+02  0.14749376714E+02  0.43791768754E+02  0.25000529103E+00 0.  0.
        -13    1    4    4    0    0  0.46292285817E+01 -0.19462660825E+02 -0.96856508965E+01  0.22227185651E+02  0.10500000000E+00 0. -1.
         13    1    4    4    0    0  0.20965459519E+01 -0.89221373255E+01 -0.45127624381E+01  0.10216461677E+02  0.10500000000E+00 0.  1.
    3000001    1    5    5    0    0 -0.75461164934E+01  0.16688510165E+02  0.36806966542E+01  0.18708227429E+02  0.10000000000E+01 0.  1.
        -13    1    6    6    0    0 -0.18991528324E+01  0.19191852386E+02  0.68277728585E+01  0.20458824176E+02  0.10500000000E+00 0.  1.
         13    1    6    6    0    0 -0.21793255472E+01  0.21838360977E+02  0.79216038557E+01  0.23332944578E+02  0.10500000000E+00 0. -1.
</event>
<event>
11    0  0.3422856E-009  0.9118800E+02  0.7816531E-02  0.1126479E+00
         25   -1    0    0    0    0  0.00000000000E+00  0.00000000000E+00  0.99999998245E-14  0.12500000000E+03  0.12500000000E+03 0.  0.
    3000001    1    3    3    0    0  0.14673179468E+02 -0.21934166326E+02  0.53497146388E+02  0.59660326179E+02  0.10000000000E+01 0. -1.
    1000022    2    1    0    0    0  0.16493587968E+02 -0.21209223546E+02  0.55537197877E+02  0.62499999703E+02  0.10000000366E+02 0.  0.
    3000022    2    3    3    0    0  0.18204084999E+01  0.72494278038E+00  0.20400514885E+01  0.28396735232E+01  0.25001300208E+00 0.  0.
    1000022    2    1    0    0    0 -0.16493587968E+02  0.21209223546E+02 -0.55537197877E+02  0.62500000297E+02  0.10000004084E+02 0.  0.
    3000022    2    5    5    0    0 -0.16638958548E+02  0.15086693600E+02 -0.43755147577E+02  0.49183723985E+02  0.25000049479E+00 0.  0.
        -13    1    4    4    0    0  0.10364389040E+01  0.37188583551E+00  0.10659611669E+01  0.15361649930E+01  0.10500000000E+00 0. -1.
         13    1    4    4    0    0  0.78396959582E+00  0.35305694488E+00  0.97409032162E+00  0.13035085301E+01  0.10500000000E+00 0.  1.
    3000001    1    5    5    0    0  0.14537058021E+00  0.61225299465E+01 -0.11782050300E+02  0.13316276312E+02  0.10000000000E+01 0. -1.
        -13    1    6    6    0    0 -0.86951247003E+01  0.78101537219E+01 -0.22681536464E+02  0.25516010975E+02  0.10500000000E+00 0. -1.
         13    1    6    6    0    0 -0.79438338475E+01  0.72765398776E+01 -0.21073611113E+02  0.23667713010E+02  0.10500000000E+00 0.  1.
</event>
<event>
11    0  0.3422856E-009  0.9118800E+02  0.7816531E-02  0.1126479E+00
         25   -1    0    0    0    0  0.00000000000E+00  0.00000000000E+00  0.99999998245E-14  0.12500000000E+03  0.12500000000E+03 0.  0.
    3000001    1    3    3    0    0 -0.34160650234E+02  0.29779438506E+02  0.18448676797E+02  0.48939949506E+02  0.10000000000E+01 0.  1.
    1000022    2    1    0    0    0 -0.44458509096E+02  0.33695048101E+02  0.26350231876E+02  0.62499999952E+02  0.99999988246E+01 0.  0.
    3000022    2    3    3    0    0 -0.10297858862E+02  0.39156095953E+01  0.79015550785E+01  0.13560050445E+02  0.24999955095E+00 0.  0.
    1000022    2    1    0    0    0  0.44458509096E+02 -0.33695048101E+02 -0.26350231876E+02  0.62500000048E+02  0.99999994307E+01 0.  0.
    3000022    2    5    5    0    0  0.53109951271E+01 -0.63846991086E+00 -0.34412863296E+01  0.63654741522E+01  0.24999302568E+00 0.  0.
        -13    1    4    4    0    0 -0.65433378888E+01  0.25016764724E+01  0.49531260839E+01  0.85801013340E+01  0.10500000000E+00 0.  1.
         13    1    4    4    0    0 -0.37545209732E+01  0.14139331230E+01  0.29484289946E+01  0.49799491112E+01  0.10500000000E+00 0. -1.
    3000001    1    5    5    0    0  0.39147513969E+02 -0.33056578190E+02 -0.22908945546E+02  0.56134525896E+02  0.10000000000E+01 0. -1.
        -13    1    6    6    0    0  0.38789163175E+01 -0.49807497113E+00 -0.24943564692E+01  0.46397100848E+01  0.10500000000E+00 0. -1.
         13    1    6    6    0    0  0.14320788096E+01 -0.14039493973E+00 -0.94692986040E+00  0.17257640674E+01  0.10500000000E+00 0.  1.
</event>
<event>
11    0  0.3422856E-009  0.9118800E+02  0.7816531E-02  0.1126479E+00
         25   -1    0    0    0    0  0.00000000000E+00  0.00000000000E+00  0.99999998245E-14  0.12500000000E+03  0.12500000000E+03 0.  0.
    3000001    1    3    3    0    0 -0.14237985526E+02 -0.52115292279E+01 -0.29332771286E+02  0.33034705085E+02  0.10000000000E+01 0.  1.
    1000022    2    1    0    0    0 -0.31001440031E+02 -0.16740427296E+02 -0.50645025890E+02  0.62499999887E+02  0.10000007422E+02 0.  0.
    3000022    2    3    3    0    0 -0.16763454505E+02 -0.11528898068E+02 -0.21312254604E+02  0.29465294802E+02  0.25000773930E+00 0.  0.
    1000022    2    1    0    0    0  0.31001440031E+02  0.16740427296E+02  0.50645025890E+02  0.62500000113E+02  0.10000008837E+02 0.  0.
    3000022    2    5    5    0    0  0.38526825494E+01  0.64884794233E+01  0.93471245566E+01  0.12015605272E+02  0.25000904246E+00 0.  0.
        -13    1    4    4    0    0 -0.97482656148E+01 -0.66271371065E+01 -0.12366205981E+02  0.17084545768E+02  0.10500000000E+00 0. -1.
         13    1    4    4    0    0 -0.70151888906E+01 -0.49017609615E+01 -0.89460486227E+01  0.12380749034E+02  0.10500000000E+00 0.  1.
    3000001    1    5    5    0    0  0.27148757482E+02  0.10251947873E+02  0.41297901333E+02  0.50484394841E+02  0.10000000000E+01 0. -1.
        -13    1    6    6    0    0  0.95560011584E+00  0.15894030612E+01  0.23339401844E+01  0.29828971582E+01  0.10500000000E+00 0. -1.
         13    1    6    6    0    0  0.28970824335E+01  0.48990763621E+01  0.70131843721E+01  0.90327081136E+01  0.10500000000E+00 0.  1.
</event>
<event>
11    0  0.3422856E-009  0.9118800E+02  0.7816531E-02  0.1126479E+00
         25   -1    0    0    0    0  0.00000000000E+00  0.00000000000E+00  0.99999998245E-14  0.12500000000E+03  0.12500000000E+03 0.  0.
    3000001    1    3    3    0    0 -0.35908334286E+02  0.21834885040E+02 -0.57956885185E+01  0.42435370640E+02  0.10000000000E+01 0. -1.
    1000022    2    1    0    0    0 -0.51292030504E+02  0.34211039943E+02 -0.22320157734E+01  0.62500005691E+02  0.10000058487E+02 0.  0.
    3000022    2    3    3    0    0 -0.15383696218E+02  0.12376154903E+02  0.35636727452E+01  0.20064635052E+02  0.24999359838E+00 0.  0.
    1000022    2    1    0    0    0  0.51292030504E+02 -0.34211039943E+02  0.22320157734E+01  0.62499994309E+02  0.99999873450E+01 0.  0.
    3000022    2    5    5    0    0  0.46927147687E+02 -0.27880082736E+02  0.32354963398E+01  0.54680774756E+02  0.24997575296E+00 0.  0.
        -13    1    4    4    0    0 -0.36655067853E+01  0.29641175988E+01  0.83684776706E+00  0.47888696285E+01  0.10500000000E+00 0. -1.
         13    1    4    4    0    0 -0.11718189433E+02  0.94120373042E+01  0.27268249781E+01  0.15275765423E+02  0.10500000000E+00 0.  1.
    3000001    1    5    5    0    0  0.43648828169E+01 -0.63309572078E+01 -0.10034805665E+01  0.78192195531E+01  0.10000000000E+01 0.  1.
        -13    1    6    6    0    0  0.21878404603E+02 -0.13045990422E+02  0.14564757264E+01  0.25514599754E+02  0.10500000000E+00 0.  1.
         13    1    6    6    0    0  0.25048743085E+02 -0.14834092313E+02  0.17790206134E+01  0.29166175002E+02  0.10500000000E+00 0. -1.
</event>
<event>
11    0  0.3422856E-009  0.9118800E+02  0.7816531E-02  0.1126479E+00
         25   -1    0    0    0    0  0.00000000000E+00  0.00000000000E+00  0.99999998245E-14  0.12500000000E+03  0.12500000000E+03 0.  0.
    3000001    1    3    3    0    0  0.57163621069E+00  0.39228679418E+00  0.11093485264E+01  0.16466059150E+01  0.10000000000E+01 0. -1.
    1000022    2    1    0    0    0 -0.17981237193E+02  0.41649100187E+02  0.41812411458E+02  0.62500000225E+02  0.99999919352E+01 0.  0.
    3000022    2    3    3    0    0 -0.18552873404E+02  0.41256813393E+02  0.40703062932E+02  0.60853394310E+02  0.25000812760E+00 0.  0.
    1000022    2    1    0    0    0  0.17981237193E+02 -0.41649100187E+02 -0.41812411458E+02  0.62499999775E+02  0.99999891277E+01 0.  0.
    3000022    2    5    5    0    0  0.75412104310E+01 -0.10474160708E+02 -0.73251422377E+01  0.14842442676E+02  0.24999700809E+00 0.  0.
        -13    1    4    4    0    0 -0.61307036509E+01  0.13705404085E+02  0.13569150329E+02  0.20237502169E+02  0.10500000000E+00 0. -1.
         13    1    4    4    0    0 -0.12422169753E+02  0.27551409308E+02  0.27133912603E+02  0.40615892141E+02  0.10500000000E+00 0.  1.
    3000001    1    5    5    0    0  0.10440026762E+02 -0.31174939480E+02 -0.34487269221E+02  0.47657557099E+02  0.10000000000E+01 0.  1.
        -13    1    6    6    0    0  0.34505328585E+01 -0.47817061454E+01 -0.32701611263E+01  0.67435798698E+01  0.10500000000E+00 0. -1.
         13    1    6    6    0    0  0.40906775725E+01 -0.56924545622E+01 -0.40549811114E+01  0.80988628065E+01  0.10500000000E+00 0.  1.
</event>
<event>
11    0  0.3422856E-009  0.9118800E+02  0.7816531E-02  0.1126479E+00
         25   -1    0    0    0    0  0.00000000000E+00  0.00000000000E+00  0.99999998245E-14  0.12500000000E+03  0.12500000000E+03 0.  0.
    3000001    1    3    3    0    0  0.21460274937E+01  0.12516750308E+02  0.43542117046E+01  0.13462304106E+02  0.10000000000E+01 0. -1.
    1000022    2    1    0    0    0 -0.32586486493E+01  0.61156685416E+02  0.74492232833E+01  0.62499997834E+02  0.99999919771E+01 0.  0.
    3000022    2    3    3    0    0 -0.54046761430E+01  0.48639935108E+02  0.30950115786E+01  0.49037693727E+02  0.24999577495E+00 0.  0.
    1000022    2    1    0    0    0  0.32586486493E+01 -0.61156685416E+02 -0.74492232833E+01  0.62500002166E+02  0.10000019058E+02 0.  0.
    3000022    2    5    5    0    0  0.36733353359E+01 -0.39044255917E+02 -0.24440376981E+00  0.39218229733E+02  0.24999521987E+00 0.  0.
        -13    1    4    4    0    0 -0.16877896746E+01  0.14916133576E+02  0.91248553023E+00  0.15039392596E+02  0.10500000000E+00 0.  1.
         13    1    4    4    0    0 -0.37168864684E+01  0.33723801532E+02  0.21825260484E+01  0.33998301131E+02  0.10500000000E+00 0. -1.
    3000001    1    5    5    0    0 -0.41468668654E+00 -0.22112429499E+02 -0.72048195134E+01  0.23281772433E+02  0.10000000000E+01 0.  1.
        -13    1    6    6    0    0  0.26789665130E+01 -0.28045887898E+02 -0.17721647938E+00  0.28174298930E+02  0.10500000000E+00 0.  1.
         13    1    6    6    0    0  0.99436882289E+00 -0.10998368019E+02 -0.67187290428E-01  0.11043930803E+02  0.10500000000E+00 0. -1.
</event>
<event>
11    0  0.3422856E-009  0.9118800E+02  0.7816531E-02  0.1126479E+00
         25   -1    0    0    0    0  0.00000000000E+00  0.00000000000E+00  0.99999998245E-14  0.12500000000E+03  0.12500000000E+03 0.  0.
    3000001    1    3    3    0    0  0.28688111581E+02  0.36866387121E+02 -0.10268971017E+02  0.47839209977E+02  0.10000000000E+01 0.  1.
    1000022    2    1    0    0    0  0.35785917154E+02  0.49552060048E+02 -0.83792297023E+01  0.62499999971E+02  0.99999992163E+01 0.  0.
    3000022    2    3    3    0    0  0.70978055735E+01  0.12685672927E+02  0.18897413146E+01  0.14660789994E+02  0.24999888146E+00 0.  0.
    1000022    2    1    0    0    0 -0.35785917154E+02 -0.49552060048E+02  0.83792297023E+01  0.62500000029E+02  0.99999995819E+01 0.  0.
    3000022    2    5    5    0    0 -0.26084795104E+02 -0.41031269740E+02  0.38234629663E+01  0.48771538824E+02  0.24999617791E+00 0.  0.
        -13    1    4    4    0    0  0.45581789720E+01  0.80971681631E+01  0.12612890667E+01  0.93777930726E+01  0.10500000000E+00 0.  1.
         13    1    4    4    0    0  0.25396266015E+01  0.45885047641E+01  0.62845224783E+00  0.52829969216E+01  0.10500000000E+00 0. -1.
    3000001    1    5    5    0    0 -0.97011220507E+01 -0.85207903080E+01  0.45557667359E+01  0.13728461205E+02  0.10000000000E+01 0. -1.
        -13    1    6    6    0    0 -0.78326250872E+01 -0.12259485936E+02  0.11122999803E+01  0.14590861777E+02  0.10500000000E+00 0.  1.
         13    1    6    6    0    0 -0.18252170017E+02 -0.28771783805E+02  0.27111629860E+01  0.34180677046E+02  0.10500000000E+00 0. -1.
</event>
<event>
11    0  0.3422856E-009  0.9118800E+02  0.7816531E-02  0.1126479E+00
         25   -1    0    0    0    0  0.00000000000E+00  0.00000000000E+00  0.99999998245E-14  0.12500000000E+03  0.12500000000E+03 0.  0.
    3000001    1    3    3    0    0 -0.35763052862E+02 -0.25676000792E+01  0.39451215696E+02  0.53319667479E+02  0.10000000000E+01 0.  1.
    1000022    2    1    0    0    0 -0.39155028127E+02 -0.31860495833E+00  0.47676330531E+02  0.62499999333E+02  0.99999843465E+01 0.  0.
    3000022    2    3    3    0    0 -0.33919752657E+01  0.22489951208E+01  0.82251148350E+01  0.91803318541E+01  0.25000729139E+00 0.  0.
    1000022    2    1    0    0    0  0.39155028127E+02  0.31860495833E+00 -0.47676330531E+02  0.62500000667E+02  0.99999926888E+01 0.  0.
    3000022    2    5    5    0    0  0.28484755369E+02  0.37426685426E+01 -0.29931560372E+02  0.41489151085E+02  0.24999048900E+00 0.  0.
        -13    1    4    4    0    0 -0.14297400893E+01  0.98508388785E+00  0.33811726634E+01  0.38023546085E+01  0.10500000000E+00 0.  1.
         13    1    4    4    0    0 -0.19622351764E+01  0.12639112330E+01  0.48439421715E+01  0.53779772456E+01  0.10500000000E+00 0. -1.
    3000001    1    5    5    0    0  0.10670272758E+02 -0.34240635843E+01 -0.17744770159E+02  0.21010849582E+02  0.10000000000E+01 0.  1.
        -13    1    6    6    0    0  0.14664564429E+02  0.19940231205E+01 -0.15435772639E+02  0.21384566399E+02  0.10500000000E+00 0.  1.
         13    1    6    6    0    0  0.13820190940E+02  0.17486454221E+01 -0.14495787733E+02  0.20104584687E+02  0.10500000000E+00 0. -1.
</event>
<event>
11    0  0.3422856E-009  0.9118800E+02  0.7816531E-02  0.1126479E+00
         25   -1    0    0    0    0  0.00000000000E+00  0.00000000000E+00  0.99999998245E-14  0.12500000000E+03  0.12500000000E+03 0.  0.
    3000001    1    3    3    0    0  0.21124462002E+02  0.11031337825E+01 -0.20005570593E+01  0.21271154825E+02  0.10000000000E+01 0.  1.
    1000022    2    1    0    0    0  0.59462677899E+02 -0.65956612246E+01 -0.15064431741E+02  0.62499998781E+02  0.99999967011E+01 0.  0.
    3000022    2    3    3    0    0  0.38338215896E+02 -0.76987950071E+01 -0.13063874682E+02  0.41228843956E+02  0.25001911763E+00 0.  0.
    1000022    2    1    0    0    0 -0.59462677899E+02  0.65956612246E+01  0.15064431741E+02  0.62500001219E+02  0.10000011944E+02 0.  0.
    3000022    2    5    5    0    0 -0.49166284231E+02  0.57580189869E+01  0.16135320857E+02  0.52066201788E+02  0.25000344534E+00 0.  0.
        -13    1    4    4    0    0  0.29543199375E+02 -0.59347357677E+01 -0.10062104929E+02  0.31769146959E+02  0.10500000000E+00 0.  1.
         13    1    4    4    0    0  0.87950165218E+01 -0.17640592394E+01 -0.30017697528E+01  0.94596969967E+01  0.10500000000E+00 0. -1.
    3000001    1    5    5    0    0 -0.10296393668E+02  0.83764223771E+00 -0.10708891160E+01  0.10433799431E+02  0.10000000000E+01 0. -1.
        -13    1    6    6    0    0 -0.11699518352E+02  0.13525146083E+01  0.38387835426E+01  0.12387708001E+02  0.10500000000E+00 0.  1.
         13    1    6    6    0    0 -0.37466765879E+02  0.44055043786E+01  0.12296537315E+02  0.39678493787E+02  0.10500000000E+00 0. -1.
</event>
<event>
11    0  0.3422856E-009  0.9118800E+02  0.7816531E-02  0.1126479E+00
         25   -1    0    0    0    0  0.00000000000E+00  0.00000000000E+00  0.99999998245E-14  0.12500000000E+03  0.12500000000E+03 0.  0.
    3000001    1    3    3    0    0 -0.23221264499E+02 -0.13622358540E+02  0.35013165330E+02  0.44178247176E+02  0.10000000000E+01 0. -1.
    1000022    2    1    0    0    0 -0.34825559638E+02 -0.13207383866E+02  0.49183283558E+02  0.62499999951E+02  0.10000000978E+02 0.  0.
    3000022    2    3    3    0    0 -0.11604295139E+02  0.41497467390E+00  0.14170118228E+02  0.18321752774E+02  0.25000894516E+00 0.  0.
    1000022    2    1    0    0    0  0.34825559638E+02  0.13207383866E+02 -0.49183283558E+02  0.62500000049E+02  0.10000001593E+02 0.  0.
    3000022    2    5    5    0    0  0.89839477073E+01  0.38269908357E+01 -0.65477733951E+01  0.11759804864E+02  0.24999746126E+00 0.  0.
        -13    1    4    4    0    0 -0.39315461759E+01  0.18944048494E+00  0.48426057463E+01  0.62413779284E+01  0.10500000000E+00 0. -1.
         13    1    4    4    0    0 -0.76727489630E+01  0.22553418896E+00  0.93275124821E+01  0.12080374846E+02  0.10500000000E+00 0.  1.
    3000001    1    5    5    0    0  0.25841611931E+02  0.93803930302E+01 -0.42635510163E+02  0.50740195186E+02  0.10000000000E+01 0. -1.
        -13    1    6    6    0    0  0.49321969127E+01  0.21206772465E+01 -0.35224328676E+01  0.64220243441E+01  0.10500000000E+00 0.  1.
         13    1    6    6    0    0  0.40517507946E+01  0.17063135892E+01 -0.30253405276E+01  0.53377805195E+01  0.10500000000E+00 0. -1.
</event>
<event>
11    0  0.3422856E-009  0.9118800E+02  0.7816531E-02  0.1126479E+00
         25   -1    0    0    0    0  0.00000000000E+00  0.00000000000E+00  0.99999998245E-14  0.12500000000E+03  0.12500000000E+03 0.  0.
    3000001    1    3    3    0    0 -0.22870104113E+02  0.22629595768E+02  0.46326158900E+02  0.56411463952E+02  0.10000000000E+01 0.  1.
    1000022    2    1    0    0    0 -0.22121136361E+02  0.25439386630E+02  0.51669555954E+02  0.62499999700E+02  0.99999942001E+01 0.  0.
    3000022    2    3    3    0    0  0.74896775187E+00  0.28097908628E+01  0.53433970540E+01  0.60885357485E+01  0.24999619646E+00 0.  0.
    1000022    2    1    0    0    0  0.22121136361E+02 -0.25439386630E+02 -0.51669555954E+02  0.62500000300E+02  0.99999979494E+01 0.  0.
    3000022    2    5    5    0    0  0.18339357949E+02 -0.22081693053E+02 -0.36235633897E+02  0.46227879843E+02  0.24998554602E+00 0.  0.
        -13    1    4    4    0    0  0.29484065734E+00  0.13506385709E+01  0.25894866946E+01  0.29372813797E+01  0.10500000000E+00 0.  1.
         13    1    4    4    0    0  0.45412709453E+00  0.14591522918E+01  0.27539103595E+01  0.31512543688E+01  0.10500000000E+00 0. -1.
    3000001    1    5    5    0    0  0.37817784118E+01 -0.33576935778E+01 -0.15433922057E+02  0.16272120457E+02  0.10000000000E+01 0. -1.
        -13    1    6    6    0    0  0.70844727322E+01 -0.86269375809E+01 -0.14090172737E+02  0.17976590296E+02  0.10500000000E+00 0. -1.
         13    1    6    6    0    0  0.11254885217E+02 -0.13454755472E+02 -0.22145461160E+02  0.28251289547E+02  0.10500000000E+00 0.  1.
</event>
<event>
11    0  0.3422856E-009  0.9118800E+02  0.7816531E-02  0.1126479E+00
         25   -1    0    0    0    0  0.00000000000E+00  0.00000000000E+00  0.99999998245E-14  0.12500000000E+03  0.12500000000E+03 0.  0.
    3000001    1    3    3    0    0 -0.31633855266E+02  0.35160368858E+02  0.75218945638E+01  0.47901265485E+02  0.10000000000E+01 0.  1.
    1000022    2    1    0    0    0 -0.44412730303E+02  0.42208314650E+02  0.72261479475E+01  0.62500003665E+02  0.10000040268E+02 0.  0.
    3000022    2    3    3    0    0 -0.12778875037E+02  0.70479457916E+01 -0.29574661622E+00  0.14598738180E+02  0.25000655180E+00 0.  0.
    1000022    2    1    0    0    0  0.44412730303E+02 -0.42208314650E+02 -0.72261479475E+01  0.62499996335E+02  0.99999944579E+01 0.  0.
    3000022    2    5    5    0    0  0.35102187465E+02 -0.34720889393E+02 -0.19812157157E+01  0.49413474298E+02  0.25000278252E+00 0.  0.
        -13    1    4    4    0    0 -0.83708570586E+01  0.45744453550E+01 -0.15144976290E+00  0.95410041522E+01  0.10500000000E+00 0. -1.
         13    1    4    4    0    0 -0.44080179789E+01  0.24735004366E+01 -0.14429685333E+00  0.50577340276E+01  0.10500000000E+00 0.  1.
    3000001    1    5    5    0    0  0.93105428382E+01 -0.74874252573E+01 -0.52449322318E+01  0.13086522038E+02  0.10000000000E+01 0. -1.
        -13    1    6    6    0    0  0.20861962224E+02 -0.20653279423E+02 -0.12403091334E+01  0.29382457530E+02  0.10500000000E+00 0.  1.
         13    1    6    6    0    0  0.14240225241E+02 -0.14067609970E+02 -0.74090658229E+00  0.20031016768E+02  0.10500000000E+00 0. -1.
</event>
<event>
11    0  0.3422856E-009  0.9118800E+02  0.7816531E-02  0.1126479E+00
         25   -1    0    0    0    0  0.00000000000E+00  0.00000000000E+00  0.99999998245E-14  0.12500000000E+03  0.12500000000E+03 0.  0.
    3000001    1    3    3    0    0 -0.14469183491E+01  0.82684490101E+00  0.46505750404E+01  0.50403465561E+01  0.10000000000E+01 0.  1.
    1000022    2    1    0    0    0  0.52381771538E+01  0.31192980760E+02  0.52969891892E+02  0.62499998253E+02  0.99999893004E+01 0.  0.
    3000022    2    3    3    0    0  0.66850955029E+01  0.30366135859E+02  0.48319316851E+02  0.57459651697E+02  0.24996650218E+00 0.  0.
    1000022    2    1    0    0    0 -0.52381771538E+01 -0.31192980760E+02 -0.52969891892E+02  0.62500001747E+02  0.10000011137E+02 0.  0.
    3000022    2    5    5    0    0 -0.52932305543E+01 -0.29339885838E+02 -0.52447918897E+02  0.60329875604E+02  0.25000624784E+00 0.  0.
        -13    1    4    4    0    0  0.42223518910E+01  0.19120023776E+02  0.30320755584E+02  0.36093805685E+02  0.10500000000E+00 0. -1.
         13    1    4    4    0    0  0.24627436119E+01  0.11246112083E+02  0.17998561268E+02  0.21365846012E+02  0.10500000000E+00 0.  1.
    3000001    1    5    5    0    0  0.55053400439E-01 -0.18530949228E+01 -0.52197299507E+00  0.21701261432E+01  0.10000000000E+01 0.  1.
        -13    1    6    6    0    0 -0.28181189857E+01 -0.15978702746E+02 -0.28500919126E+02  0.32795947190E+02  0.10500000000E+00 0.  1.
         13    1    6    6    0    0 -0.24751115685E+01 -0.13361183091E+02 -0.23946999770E+02  0.27533928414E+02  0.10500000000E+00 0. -1.
</event>
<event>
11    0  0.3422856E-009  0.9118800E+02  0.7816531E-02  0.1126479E+00
         25   -1    0    0    0    0  0.00000000000E+00  0.00000000000E+00  0.99999998245E-14  0.12500000000E+03  0.12500000000E+03 0.  0.
    3000001    1    3    3    0    0 -0.42011968181E+01 -0.50284980565E+01 -0.16947140702E+02  0.18197291705E+02  0.10000000000E+01 0. -1.
    1000022    2    1    0    0    0  0.74758435509E+00 -0.19370743814E+02 -0.58570174597E+02  0.62499999244E+02  0.99999977428E+01 0.  0.
    3000022    2    3    3    0    0  0.49487811732E+01 -0.14342245757E+02 -0.41623033895E+02  0.44302707539E+02  0.24999239413E+00 0.  0.
    1000022    2    1    0    0    0 -0.74758435509E+00  0.19370743814E+02  0.58570174597E+02  0.62500000756E+02  0.10000007197E+02 0.  0.
    3000022    2    5    5    0    0  0.29354125606E+01  0.31877351807E+01  0.63114514370E+01  0.76599754006E+01  0.25000282354E+00 0.  0.
        -13    1    4    4    0    0  0.21236202418E+01 -0.63044655521E+01 -0.18121148953E+02  0.19303966256E+02  0.10500000000E+00 0. -1.
         13    1    4    4    0    0  0.28251609314E+01 -0.80377802049E+01 -0.23501884942E+02  0.24998741283E+02  0.10500000000E+00 0.  1.
    3000001    1    5    5    0    0 -0.36829969157E+01  0.16183008633E+02  0.52258723160E+02  0.54840025356E+02  0.10000000000E+01 0. -1.
        -13    1    6    6    0    0  0.20337470944E+01  0.21600667034E+01  0.43829389434E+01  0.52936938133E+01  0.10500000000E+00 0.  1.
         13    1    6    6    0    0  0.90166546626E+00  0.10276684773E+01  0.19285124936E+01  0.23662815872E+01  0.10500000000E+00 0. -1.
</event>
<event>
11    0  0.3422856E-009  0.9118800E+02  0.7816531E-02  0.1126479E+00
         25   -1    0    0    0    0  0.00000000000E+00  0.00000000000E+00  0.99999998245E-14  0.12500000000E+03  0.12500000000E+03 0.  0.
    3000001    1    3    3    0    0  0.66567119987E+01 -0.18241002006E+01 -0.30360943711E+01  0.76063805588E+01  0.10000000000E+01 0.  1.
    1000022    2    1    0    0    0  0.59860289096E+02  0.72371535373E+01 -0.13062098846E+02  0.62500006941E+02  0.10000091971E+02 0.  0.
    3000022    2    3    3    0    0  0.53203577097E+02  0.90612537378E+01 -0.10026004475E+02  0.54893626383E+02  0.25003290225E+00 0.  0.
    1000022    2    1    0    0    0 -0.59860289096E+02 -0.72371535373E+01  0.13062098846E+02  0.62499993059E+02  0.10000005205E+02 0.  0.
    3000022    2    5    5    0    0 -0.90023481374E+01 -0.45721229308E+01  0.96686263630E+00  0.10146127054E+02  0.24998150954E+00 0.  0.
        -13    1    4    4    0    0  0.34373164953E+02  0.58682269931E+01 -0.64214642654E+01  0.35456970898E+02  0.10500000000E+00 0.  1.
         13    1    4    4    0    0  0.18830412144E+02  0.31930267448E+01 -0.36045402094E+01  0.19436655485E+02  0.10500000000E+00 0. -1.
    3000001    1    5    5    0    0 -0.50857940959E+02 -0.26650306065E+01  0.12095236210E+02  0.52353866005E+02  0.10000000000E+01 0. -1.
        -13    1    6    6    0    0 -0.36944226537E+01 -0.18145210993E+01  0.36195268736E+00  0.41331925084E+01  0.10500000000E+00 0. -1.
         13    1    6    6    0    0 -0.53079254838E+01 -0.27576018315E+01  0.60490994894E+00  0.60129345455E+01  0.10500000000E+00 0.  1.
</event>
<event>
11    0  0.3422856E-009  0.9118800E+02  0.7816531E-02  0.1126479E+00
         25   -1    0    0    0    0  0.00000000000E+00  0.00000000000E+00  0.99999998245E-14  0.12500000000E+03  0.12500000000E+03 0.  0.
    3000001    1    3    3    0    0  0.34430993922E+02  0.36732328667E+02 -0.34641716919E+02  0.61121239048E+02  0.10000000000E+01 0. -1.
    1000022    2    1    0    0    0  0.34660984617E+02  0.37960572754E+02 -0.34115409223E+02  0.62499999669E+02  0.99999936896E+01 0.  0.
    3000022    2    3    3    0    0  0.22999069533E+00  0.12282440872E+01  0.52630769528E+00  0.13787606214E+01  0.25000360650E+00 0.  0.
    1000022    2    1    0    0    0 -0.34660984617E+02 -0.37960572754E+02  0.34115409223E+02  0.62500000331E+02  0.99999978212E+01 0.  0.
    3000022    2    5    5    0    0 -0.27216994810E+02 -0.23428603494E+02  0.25177631537E+02  0.43859319420E+02  0.25000412072E+00 0.  0.
        -13    1    4    4    0    0  0.20098890490E+00  0.90398161235E+00  0.37179200645E+00  0.10034109783E+01  0.10500000000E+00 0.  1.
         13    1    4    4    0    0  0.29001790425E-01  0.32426247483E+00  0.15451568883E+00  0.37534964304E+00  0.10500000000E+00 0. -1.
    3000001    1    5    5    0    0 -0.74439898072E+01 -0.14531969260E+02  0.89377776868E+01  0.18640680911E+02  0.10000000000E+01 0.  1.
        -13    1    6    6    0    0 -0.94209674615E+01 -0.80739824389E+01  0.86393777236E+01  0.15119315222E+02  0.10500000000E+00 0. -1.
         13    1    6    6    0    0 -0.17796027348E+02 -0.15354621055E+02  0.16538253813E+02  0.28740004198E+02  0.10500000000E+00 0.  1.
</event>
<event>
11    0  0.3422856E-009  0.9118800E+02  0.7816531E-02  0.1126479E+00
         25   -1    0    0    0    0  0.00000000000E+00  0.00000000000E+00  0.99999998245E-14  0.12500000000E+03  0.12500000000E+03 0.  0.
    3000001    1    3    3    0    0 -0.17632928631E+02  0.19849251152E+02  0.83018477626E+01  0.27835833375E+02  0.10000000000E+01 0. -1.
    1000022    2    1    0    0    0 -0.46829930775E+02  0.36430580387E+02  0.16912112804E+02  0.62500001900E+02  0.10000053712E+02 0.  0.
    3000022    2    3    3    0    0 -0.29197002144E+02  0.16581329235E+02  0.86102650413E+01  0.34664168525E+02  0.25000409482E+00 0.  0.
    1000022    2    1    0    0    0  0.46829930775E+02 -0.36430580387E+02 -0.16912112804E+02  0.62499998100E+02  0.10000029968E+02 0.  0.
    3000022    2    5    5    0    0  0.29309852445E+02 -0.22583942798E+02 -0.55225836007E+01  0.37412074857E+02  0.24998564588E+00 0.  0.
        -13    1    4    4    0    0 -0.19416650610E+02  0.11001602588E+02  0.56719383118E+01  0.23026582240E+02  0.10500000000E+00 0. -1.
         13    1    4    4    0    0 -0.97803515332E+01  0.55797266470E+01  0.29383267296E+01  0.11637586285E+02  0.10500000000E+00 0.  1.
    3000001    1    5    5    0    0  0.17520078330E+02 -0.13846637589E+02 -0.11389529203E+02  0.25087923243E+02  0.10000000000E+01 0.  1.
        -13    1    6    6    0    0  0.19261558097E+02 -0.14789010946E+02 -0.35873990121E+01  0.24547971846E+02  0.10500000000E+00 0.  1.
         13    1    6    6    0    0  0.10048294348E+02 -0.77949318522E+01 -0.19351845885E+01  0.12864103011E+02  0.10500000000E+00 0. -1.
</event>
<event>
11    0  0.3422856E-009  0.9118800E+02  0.7816531E-02  0.1126479E+00
         25   -1    0    0    0    0  0.00000000000E+00  0.00000000000E+00  0.99999998245E-14  0.12500000000E+03  0.12500000000E+03 0.  0.
    3000001    1    3    3    0    0 -0.35133191530E+02 -0.20394453986E+02  0.15011172458E+02  0.43319859176E+02  0.10000000000E+01 0.  1.
    1000022    2    1    0    0    0 -0.53564899369E+02 -0.24421371924E+02  0.18456656536E+02  0.62499999561E+02  0.99999961794E+01 0.  0.
    3000022    2    3    3    0    0 -0.18431707838E+02 -0.40269179384E+01  0.34454840787E+01  0.19180140385E+02  0.25000545225E+00 0.  0.
    1000022    2    1    0    0    0  0.53564899369E+02  0.24421371924E+02 -0.18456656536E+02  0.62500000439E+02  0.10000001667E+02 0.  0.
    3000022    2    5    5    0    0  0.42355664379E+02  0.22254445619E+02 -0.11931526202E+02  0.49312133116E+02  0.25000023219E+00 0.  0.
        -13    1    4    4    0    0 -0.11888535741E+02 -0.25768814287E+01  0.21668201406E+01  0.12356525988E+02  0.10500000000E+00 0.  1.
         13    1    4    4    0    0 -0.65431720973E+01 -0.14500365096E+01  0.12786639380E+01  0.68236143971E+01  0.10500000000E+00 0. -1.
    3000001    1    5    5    0    0  0.11209234990E+02  0.21669263059E+01 -0.65251303340E+01  0.13187867323E+02  0.10000000000E+01 0.  1.
        -13    1    6    6    0    0  0.26373489010E+02  0.13920190751E+02 -0.74604300153E+01  0.30740879528E+02  0.10500000000E+00 0.  1.
         13    1    6    6    0    0  0.15982175369E+02  0.83342548671E+01 -0.44710961870E+01  0.18571253588E+02  0.10500000000E+00 0. -1.
</event>
<event>
11    0  0.3422856E-009  0.9118800E+02  0.7816531E-02  0.1126479E+00
         25   -1    0    0    0    0  0.00000000000E+00  0.00000000000E+00  0.99999998245E-14  0.12500000000E+03  0.12500000000E+03 0.  0.
    3000001    1    3    3    0    0  0.19629733880E+02 -0.56979184514E+02 -0.23266972327E+01  0.60318881290E+02  0.10000000000E+01 0. -1.
    1000022    2    1    0    0    0  0.20602292565E+02 -0.58018184314E+02 -0.39605224876E+01  0.62499999585E+02  0.10000001993E+02 0.  0.
    3000022    2    3    3    0    0  0.97255868412E+00 -0.10389997998E+01 -0.16338252548E+01  0.21811182954E+01  0.25000215427E+00 0.  0.
    1000022    2    1    0    0    0 -0.20602292565E+02  0.58018184314E+02  0.39605224876E+01  0.62500000415E+02  0.10000007174E+02 0.  0.
    3000022    2    5    5    0    0 -0.13775158939E+02  0.41005941792E+02  0.72130830202E+01  0.43855824402E+02  0.25000263192E+00 0.  0.
        -13    1    4    4    0    0  0.42114971922E+00 -0.44468028690E+00 -0.60760895425E+00  0.86909221884E+00  0.10500000000E+00 0.  1.
         13    1    4    4    0    0  0.55140896490E+00 -0.59431951287E+00 -0.10262163006E+01  0.13120260766E+01  0.10500000000E+00 0. -1.
    3000001    1    5    5    0    0 -0.68271336252E+01  0.17012242522E+02 -0.32525605326E+01  0.18644176012E+02  0.10000000000E+01 0.  1.
        -13    1    6    6    0    0 -0.32523126794E+01  0.96996382789E+01  0.16906507345E+01  0.10369659850E+02  0.10500000000E+00 0. -1.
         13    1    6    6    0    0 -0.10522846260E+02  0.31306303513E+02  0.55224322857E+01  0.33486164552E+02  0.10500000000E+00 0.  1.
</event>
<event>
11    0  0.3422856E-009  0.9118800E+02  0.7816531E-02  0.1126479E+00
         25   -1    0    0    0    0  0.00000000000E+00  0.00000000000E+00  0.99999998245E-14  0.12500000000E+03  0.12500000000E+03 0.  0.
    3000001    1    3    3    0    0  0.20270499254E+01  0.25805259148E+02  0.32309160276E+02  0.41411377288E+02  0.10000000000E+01 0. -1.
    1000022    2    1    0    0    0 -0.11306039151E+01  0.42724547257E+02  0.44492520471E+02  0.62499996459E+02  0.99999987987E+01 0.  0.
    3000022    2    3    3    0    0 -0.31576538405E+01  0.16919288109E+02  0.12183360195E+02  0.21088619171E+02  0.25001005626E+00 0.  0.
    1000022    2    1    0    0    0  0.11306039151E+01 -0.42724547257E+02 -0.44492520471E+02  0.62500003541E+02  0.10000043061E+02 0.  0.
    3000022    2    5    5    0    0  0.35518147132E+01 -0.53446442416E+01 -0.65659950312E+01  0.91845203948E+01  0.25002861325E+00 0.  0.
        -13    1    4    4    0    0 -0.21519898285E+01  0.11745375548E+02  0.84194762200E+01  0.14611074971E+02  0.10500000000E+00 0. -1.
         13    1    4    4    0    0 -0.10056640120E+01  0.51739125609E+01  0.37638839746E+01  0.64775442003E+01  0.10500000000E+00 0.  1.
    3000001    1    5    5    0    0 -0.24212107981E+01 -0.37379903016E+02 -0.37926525440E+02  0.53315483146E+02  0.10000000000E+01 0.  1.
        -13    1    6    6    0    0  0.15648421980E+01 -0.22593538291E+01 -0.28675740581E+01  0.39733382449E+01  0.10500000000E+00 0.  1.
         13    1    6    6    0    0  0.19869725152E+01 -0.30852904126E+01 -0.36984209731E+01  0.52111821499E+01  0.10500000000E+00 0. -1.
</event>
<event>
11    0  0.3422856E-009  0.9118800E+02  0.7816531E-02  0.1126479E+00
         25   -1    0    0    0    0  0.00000000000E+00  0.00000000000E+00  0.99999998245E-14  0.12500000000E+03  0.12500000000E+03 0.  0.
    3000001    1    3    3    0    0 -0.10901036704E+02  0.12411014760E+02 -0.11472203108E+02  0.20136467733E+02  0.10000000000E+01 0.  1.
    1000022    2    1    0    0    0 -0.35116606125E+02  0.45184465313E+02 -0.23052951681E+02  0.62500002780E+02  0.99999917428E+01 0.  0.
    3000022    2    3    3    0    0 -0.24215569421E+02  0.32773450553E+02 -0.11580748573E+02  0.42363535047E+02  0.25000123665E+00 0.  0.
    1000022    2    1    0    0    0  0.35116606125E+02 -0.45184465313E+02  0.23052951681E+02  0.62499997220E+02  0.99999569968E+01 0.  0.
    3000022    2    5    5    0    0  0.15308871024E+02 -0.17278768092E+02  0.43629910818E+01  0.23495011200E+02  0.25000260908E+00 0.  0.
        -13    1    4    4    0    0 -0.62435006704E+01  0.84993336054E+01 -0.29866445519E+01  0.10961343122E+02  0.10500000000E+00 0.  1.
         13    1    4    4    0    0 -0.17972068751E+02  0.24274116947E+02 -0.85941040210E+01  0.31402191925E+02  0.10500000000E+00 0. -1.
    3000001    1    5    5    0    0  0.19807735101E+02 -0.27905697221E+02  0.18689960599E+02  0.39004986020E+02  0.10000000000E+01 0. -1.
        -13    1    6    6    0    0  0.78884358140E+01 -0.88423197880E+01  0.21843101696E+01  0.12049741688E+02  0.10500000000E+00 0.  1.
         13    1    6    6    0    0  0.74204352100E+01 -0.84364483044E+01  0.21786809123E+01  0.11445269513E+02  0.10500000000E+00 0. -1.
</event>
<event>
11    0  0.3422856E-009  0.9118800E+02  0.7816531E-02  0.1126479E+00
         25   -1    0    0    0    0  0.00000000000E+00  0.00000000000E+00  0.99999998245E-14  0.12500000000E+03  0.12500000000E+03 0.  0.
    3000001    1    3    3    0    0  0.21723191146E+02 -0.20619259898E+01 -0.87094645656E+01  0.23516023162E+02  0.10000000000E+01 0.  1.
    1000022    2    1    0    0    0  0.55921452914E+02 -0.17457692722E+02 -0.19346061166E+02  0.62499999717E+02  0.99999975388E+01 0.  0.
    3000022    2    3    3    0    0  0.34198261768E+02 -0.15395766732E+02 -0.10636596600E+02  0.38983976555E+02  0.24999906622E+00 0.  0.
    1000022    2    1    0    0    0 -0.55921452914E+02  0.17457692722E+02  0.19346061166E+02  0.62500000283E+02  0.10000001073E+02 0.  0.
    3000022    2    5    5    0    0 -0.37764626329E+02  0.99353920924E+01  0.17313540690E+02  0.42716509744E+02  0.24999133431E+00 0.  0.
        -13    1    4    4    0    0  0.16252221400E+02 -0.72804311260E+01 -0.49894393837E+01  0.18494456147E+02  0.10500000000E+00 0.  1.
         13    1    4    4    0    0  0.17946040368E+02 -0.81153356063E+01 -0.56471572167E+01  0.20489520408E+02  0.10500000000E+00 0. -1.
    3000001    1    5    5    0    0 -0.18156826585E+02  0.75223006297E+01  0.20325204757E+01  0.19783490539E+02  0.10000000000E+01 0.  1.
        -13    1    6    6    0    0 -0.15511066746E+02  0.40325416900E+01  0.71537780092E+01  0.17551129562E+02  0.10500000000E+00 0.  1.
         13    1    6    6    0    0 -0.22253559583E+02  0.59028504025E+01  0.10159762681E+02  0.25165380182E+02  0.10500000000E+00 0. -1.
</event>
<event>
11    0  0.3422856E-009  0.9118800E+02  0.7816531E-02  0.1126479E+00
         25   -1    0    0    0    0  0.00000000000E+00  0.00000000000E+00  0.99999998245E-14  0.12500000000E+03  0.12500000000E+03 0.  0.
    3000001    1    3    3    0    0 -0.52936632469E+01 -0.31465651966E+00 -0.29704501032E+01  0.61599880773E+01  0.10000000000E+01 0.  1.
    1000022    2    1    0    0    0 -0.61362760791E+02  0.51340733720E+01 -0.38082710199E+01  0.62499998746E+02  0.99999896907E+01 0.  0.
    3000022    2    3    3    0    0 -0.56069097544E+02  0.54487298917E+01 -0.83782091676E+00  0.56340010668E+02  0.25000285380E+00 0.  0.
    1000022    2    1    0    0    0  0.61362760791E+02 -0.51340733720E+01  0.38082710199E+01  0.62500001254E+02  0.10000005369E+02 0.  0.
    3000022    2    5    5    0    0  0.45054592589E+02 -0.79925998720E+01  0.18277092935E+01  0.45795207075E+02  0.25000727573E+00 0.  0.
        -13    1    4    4    0    0 -0.36243687446E+02  0.35094086498E+01 -0.59724823354E+00  0.36418244867E+02  0.10500000000E+00 0.  1.
         13    1    4    4    0    0 -0.19825410098E+02  0.19393212419E+01 -0.24057268322E+00  0.19921765801E+02  0.10500000000E+00 0. -1.
    3000001    1    5    5    0    0  0.16308168201E+02  0.28585265000E+01  0.19805617264E+01  0.16704794180E+02  0.10000000000E+01 0. -1.
        -13    1    6    6    0    0  0.18939157981E+02 -0.34242063759E+01  0.78224009835E+00  0.19262393904E+02  0.10500000000E+00 0. -1.
         13    1    6    6    0    0  0.26115434608E+02 -0.45683934961E+01  0.10454691952E+01  0.26532813171E+02  0.10500000000E+00 0.  1.
</event>
<event>
11    0  0.3422856E-009  0.9118800E+02  0.7816531E-02  0.1126479E+00
         25   -1    0    0    0    0  0.00000000000E+00  0.00000000000E+00  0.99999998245E-14  0.12500000000E+03  0.12500000000E+03 0.  0.
    3000001    1    3    3    0    0 -0.97840399465E+00 -0.13895340176E+01  0.42175863717E+00  0.20164224535E+01  0.10000000000E+01 0.  1.
    1000022    2    1    0    0    0 -0.58960800654E+02 -0.15654943185E+02 -0.92084693410E+01  0.62500007069E+02  0.10000085804E+02 0.  0.
    3000022    2    3    3    0    0 -0.57982396660E+02 -0.14265409168E+02 -0.96302279782E+01  0.60483584616E+02  0.24999184340E+00 0.  0.
    1000022    2    1    0    0    0  0.58960800654E+02  0.15654943185E+02  0.92084693410E+01  0.62499992931E+02  0.99999974422E+01 0.  0.
    3000022    2    5    5    0    0  0.64948844015E+01  0.39992314492E+01  0.36487380083E+01  0.84589104399E+01  0.25000240875E+00 0.  0.
        -13    1    4    4    0    0 -0.43195568024E+02 -0.10645393981E+02 -0.71985151163E+01  0.45066741115E+02  0.10500000000E+00 0. -1.
         13    1    4    4    0    0 -0.14786828636E+02 -0.36200151870E+01 -0.24317128619E+01  0.15416843500E+02  0.10500000000E+00 0.  1.
    3000001    1    5    5    0    0  0.52465916253E+02  0.11655711736E+02  0.55597313327E+01  0.54041082491E+02  0.10000000000E+01 0. -1.
        -13    1    6    6    0    0  0.36000545556E+01  0.22245853131E+01  0.19509597462E+01  0.46611631113E+01  0.10500000000E+00 0.  1.
         13    1    6    6    0    0  0.28948298460E+01  0.17746461360E+01  0.16977782620E+01  0.37977473286E+01  0.10500000000E+00 0. -1.
</event>
<event>
11    0  0.3422856E-009  0.9118800E+02  0.7816531E-02  0.1126479E+00
         25   -1    0    0    0    0  0.00000000000E+00  0.00000000000E+00  0.99999998245E-14  0.12500000000E+03  0.12500000000E+03 0.  0.
    3000001    1    3    3    0    0  0.35662624799E+02  0.31595596622E+02  0.31375409992E+02  0.57057172079E+02  0.10000000000E+01 0.  1.
    1000022    2    1    0    0    0  0.37699903288E+02  0.36528528441E+02  0.32413491936E+02  0.62500005161E+02  0.10000004383E+02 0.  0.
    3000022    2    3    3    0    0  0.20372784887E+01  0.49329318185E+01  0.10380819448E+01  0.54428330823E+01  0.24999574089E+00 0.  0.
    1000022    2    1    0    0    0 -0.37699903288E+02 -0.36528528441E+02 -0.32413491936E+02  0.62499994839E+02  0.99999398682E+01 0.  0.
    3000022    2    5    5    0    0 -0.36329708780E+02 -0.33315506501E+02 -0.32162634470E+02  0.58858034866E+02  0.24999757432E+00 0.  0.
        -13    1    4    4    0    0  0.13479576971E+01  0.32113169706E+01  0.73043395366E+00  0.35600709824E+01  0.10500000000E+00 0. -1.
         13    1    4    4    0    0  0.68932079155E+00  0.17216148480E+01  0.30764799115E+00  0.18827620999E+01  0.10500000000E+00 0.  1.
    3000001    1    5    5    0    0 -0.13701945076E+01 -0.32130219398E+01 -0.25085746684E+00  0.36419599728E+01  0.10000000000E+01 0. -1.
        -13    1    6    6    0    0 -0.19172364289E+02 -0.17496728667E+02 -0.16905665538E+02  0.30976242813E+02  0.10500000000E+00 0. -1.
         13    1    6    6    0    0 -0.17157344491E+02 -0.15818777834E+02 -0.15256968931E+02  0.27881792054E+02  0.10500000000E+00 0.  1.
</event>
<event>
11    0  0.3422856E-009  0.9118800E+02  0.7816531E-02  0.1126479E+00
         25   -1    0    0    0    0  0.00000000000E+00  0.00000000000E+00  0.99999998245E-14  0.12500000000E+03  0.12500000000E+03 0.  0.
    3000001    1    3    3    0    0 -0.38047751124E+02  0.91508817909E+01 -0.23531713208E+02  0.45673969935E+02  0.10000000000E+01 0.  1.
    1000022    2    1    0    0    0 -0.47905651016E+02  0.14576396071E+02 -0.36039242971E+02  0.62499996944E+02  0.99999931204E+01 0.  0.
    3000022    2    3    3    0    0 -0.98578998926E+01  0.54255142803E+01 -0.12507529762E+02  0.16826027009E+02  0.24997730953E+00 0.  0.
    1000022    2    1    0    0    0  0.47905651016E+02 -0.14576396071E+02  0.36039242971E+02  0.62500003056E+02  0.10000031319E+02 0.  0.
    3000022    2    5    5    0    0 -0.12439429360E+00  0.11771455667E+00 -0.35369136459E+00  0.46575598917E+00  0.25000080586E+00 0.  0.
        -13    1    4    4    0    0 -0.42860264312E+01  0.23724533952E+01 -0.53488599760E+01  0.72539565565E+01  0.10500000000E+00 0.  1.
         13    1    4    4    0    0 -0.55718734614E+01  0.30530608852E+01 -0.71586697863E+01  0.95720704525E+01  0.10500000000E+00 0. -1.
    3000001    1    5    5    0    0  0.48030045310E+02 -0.14694110628E+02  0.36392934335E+02  0.62034247067E+02  0.10000000000E+01 0. -1.
        -13    1    6    6    0    0 -0.26435604612E-01  0.10818528537E+00 -0.13576188705E+00  0.20459517867E+00  0.10500000000E+00 0. -1.
         13    1    6    6    0    0 -0.97958688987E-01  0.95292713056E-02 -0.21792947754E+00  0.26116081050E+00  0.10500000000E+00 0.  1.
</event>
<event>
11    0  0.3422856E-009  0.9118800E+02  0.7816531E-02  0.1126479E+00
         25   -1    0    0    0    0  0.00000000000E+00  0.00000000000E+00  0.99999998245E-14  0.12500000000E+03  0.12500000000E+03 0.  0.
    3000001    1    3    3    0    0  0.71795575532E+01  0.31924106443E+02 -0.10667958410E+02  0.34431089955E+02  0.10000000000E+01 0. -1.
    1000022    2    1    0    0    0  0.41480459463E+01  0.58658006760E+02 -0.18662332834E+02  0.62500005356E+02  0.99999980288E+01 0.  0.
    3000022    2    3    3    0    0 -0.30315116068E+01  0.26733900317E+02 -0.79943744233E+01  0.28068915402E+02  0.25000126563E+00 0.  0.
    1000022    2    1    0    0    0 -0.41480459463E+01 -0.58658006760E+02  0.18662332834E+02  0.62499994644E+02  0.99999310735E+01 0.  0.
    3000022    2    5    5    0    0  0.22384856482E+00 -0.48397287827E+02  0.14123639221E+02  0.50417132634E+02  0.25000201881E+00 0.  0.
        -13    1    4    4    0    0 -0.22883926835E+01  0.20043458763E+02 -0.60164591758E+01  0.21051978203E+02  0.10500000000E+00 0. -1.
         13    1    4    4    0    0 -0.74311892332E+00  0.66904415540E+01 -0.19779152476E+01  0.70169371985E+01  0.10500000000E+00 0.  1.
    3000001    1    5    5    0    0 -0.43718945111E+01 -0.10260718932E+02  0.45386936126E+01  0.12082862009E+02  0.10000000000E+01 0.  1.
        -13    1    6    6    0    0  0.13514405225E+00 -0.24884399002E+02  0.71945670573E+01  0.25904138622E+02  0.10500000000E+00 0. -1.
         13    1    6    6    0    0  0.88704512577E-01 -0.23512888825E+02  0.69290721638E+01  0.24512994012E+02  0.10500000000E+00 0.  1.
</event>
<event>
11    0  0.3422856E-009  0.9118800E+02  0.7816531E-02  0.1126479E+00
         25   -1    0    0    0    0  0.00000000000E+00  0.00000000000E+00  0.99999998245E-14  0.12500000000E+03  0.12500000000E+03 0.  0.
    3000001    1    3    3    0    0 -0.26806650113E+02  0.97330238065E+01 -0.35049782206E+00  0.28538589513E+02  0.10000000000E+01 0.  1.
    1000022    2    1    0    0    0 -0.59413822144E+02  0.14120458268E+02 -0.87670245701E+01  0.62500003934E+02  0.10000008423E+02 0.  0.
    3000022    2    3    3    0    0 -0.32607172032E+02  0.43874344610E+01 -0.84165267480E+01  0.33961414421E+02  0.24999581739E+00 0.  0.
    1000022    2    1    0    0    0  0.59413822144E+02 -0.14120458268E+02  0.87670245701E+01  0.62499996066E+02  0.99999592490E+01 0.  0.
    3000022    2    5    5    0    0  0.51527908825E+02 -0.13691227392E+02  0.45994303736E+01  0.53514412646E+02  0.25001129978E+00 0.  0.
        -13    1    4    4    0    0 -0.83542803466E+01  0.11522647958E+01 -0.21466619378E+01  0.87029246087E+01  0.10500000000E+00 0. -1.
         13    1    4    4    0    0 -0.24252891685E+02  0.32351696652E+01 -0.62698648103E+01  0.25258489812E+02  0.10500000000E+00 0.  1.
    3000001    1    5    5    0    0  0.78859133190E+01 -0.42923087562E+00  0.41675941965E+01  0.89855834204E+01  0.10000000000E+01 0.  1.
        -13    1    6    6    0    0  0.23552623062E+02 -0.61894580171E+01  0.21103203286E+01  0.24443811497E+02  0.10500000000E+00 0. -1.
         13    1    6    6    0    0  0.27975285764E+02 -0.75017693748E+01  0.24891100450E+01  0.29070601148E+02  0.10500000000E+00 0.  1.
</event>
<event>
11    0  0.3422856E-009  0.9118800E+02  0.7816531E-02  0.1126479E+00
         25   -1    0    0    0    0  0.00000000000E+00  0.00000000000E+00  0.99999998245E-14  0.12500000000E+03  0.12500000000E+03 0.  0.
    3000001    1    3    3    0    0  0.24118946467E+01  0.52090434637E+00 -0.19775824065E+02  0.19954242520E+02  0.10000000000E+01 0.  1.
    1000022    2    1    0    0    0 -0.54421719112E+01  0.76725932828E+01 -0.60973469668E+02  0.62500000483E+02  0.10000006707E+02 0.  0.
    3000022    2    3    3    0    0 -0.78540665579E+01  0.71516889365E+01 -0.41197645604E+02  0.42545757962E+02  0.25000231498E+00 0.  0.
    1000022    2    1    0    0    0  0.54421719112E+01 -0.76725932828E+01  0.60973469668E+02  0.62499999517E+02  0.10000000675E+02 0.  0.
    3000022    2    5    5    0    0  0.79561920505E+01 -0.63166755956E+01  0.53127039411E+02  0.54090167306E+02  0.25000026976E+00 0.  0.
        -13    1    4    4    0    0 -0.25046674993E+01  0.22416753818E+01 -0.12876978945E+02  0.13308872212E+02  0.10500000000E+00 0. -1.
         13    1    4    4    0    0 -0.53493990586E+01  0.49100135547E+01 -0.28320666659E+02  0.29236885751E+02  0.10500000000E+00 0.  1.
    3000001    1    5    5    0    0 -0.25140201392E+01 -0.13559176872E+01  0.78464302576E+01  0.84098322113E+01  0.10000000000E+01 0. -1.
        -13    1    6    6    0    0  0.49997470884E+01 -0.39738123648E+01  0.33078224258E+02  0.33689295046E+02  0.10500000000E+00 0.  1.
         13    1    6    6    0    0  0.29564449621E+01 -0.23428632308E+01  0.20048815153E+02  0.20400872260E+02  0.10500000000E+00 0. -1.
</event>
<event>
11    0  0.3422856E-009  0.9118800E+02  0.7816531E-02  0.1126479E+00
         25   -1    0    0    0    0  0.00000000000E+00  0.00000000000E+00  0.99999998245E-14  0.12500000000E+03  0.12500000000E+03 0.  0.
    3000001    1    3    3    0    0  0.48228217629E+02 -0.79987662480E+01  0.62818575916E+01  0.49299117355E+02  0.10000000000E+01 0. -1.
    1000022    2    1    0    0    0  0.60739640929E+02 -0.10430767659E+02  0.28539660618E+01  0.62499999680E+02  0.99999971804E+01 0.  0.
    3000022    2    3    3    0    0  0.12511423300E+02 -0.24320014115E+01 -0.34278915298E+01  0.13200882325E+02  0.25001994981E+00 0.  0.
    1000022    2    1    0    0    0 -0.60739640929E+02  0.10430767659E+02 -0.28539660618E+01  0.62500000320E+02  0.10000001175E+02 0.  0.
    3000022    2    5    5    0    0 -0.49755851073E+02  0.72998970673E+01  0.12993444342E+01  0.50305904275E+02  0.24999154551E+00 0.  0.
        -13    1    4    4    0    0  0.45800090034E+01 -0.84752451557E+00 -0.12956389699E+01  0.48357507810E+01  0.10500000000E+00 0.  1.
         13    1    4    4    0    0  0.79314142965E+01 -0.15844768959E+01 -0.21322525599E+01  0.83651315444E+01  0.10500000000E+00 0. -1.
    3000001    1    5    5    0    0 -0.10983789856E+02  0.31308705921E+01 -0.41533104960E+01  0.12194096045E+02  0.10000000000E+01 0. -1.
        -13    1    6    6    0    0 -0.19012580631E+02  0.27624535493E+01  0.55135572897E+00  0.19220415969E+02  0.10500000000E+00 0. -1.
         13    1    6    6    0    0 -0.30743270441E+02  0.45374435180E+01  0.74798870522E+00  0.31085488306E+02  0.10500000000E+00 0.  1.
</event>
<event>
11    0  0.3422856E-009  0.9118800E+02  0.7816531E-02  0.1126479E+00
         25   -1    0    0    0    0  0.00000000000E+00  0.00000000000E+00  0.99999998245E-14  0.12500000000E+03  0.12500000000E+03 0.  0.
    3000001    1    3    3    0    0 -0.85215489968E+01  0.69083731208E+01 -0.14715323452E+02  0.18381598428E+02  0.10000000000E+01 0.  1.
    1000022    2    1    0    0    0 -0.15373006477E+02  0.30139263008E+02 -0.51590168823E+02  0.62500000900E+02  0.10000004525E+02 0.  0.
    3000022    2    3    3    0    0 -0.68514574806E+01  0.23230889888E+02 -0.36874845371E+02  0.44118402472E+02  0.25000193632E+00 0.  0.
    1000022    2    1    0    0    0  0.15373006477E+02 -0.30139263008E+02  0.51590168823E+02  0.62499999100E+02  0.99999932715E+01 0.  0.
    3000022    2    5    5    0    0  0.12891998822E+02 -0.29725736176E+02  0.45738245864E+02  0.56052409958E+02  0.25000503119E+00 0.  0.
        -13    1    4    4    0    0 -0.26722245271E+01  0.92817436564E+01 -0.14717708673E+02  0.17604360903E+02  0.10500000000E+00 0. -1.
         13    1    4    4    0    0 -0.41792329535E+01  0.13949146231E+02 -0.22157136698E+02  0.26514041569E+02  0.10500000000E+00 0.  1.
    3000001    1    5    5    0    0  0.24810076550E+01 -0.41352683237E+00  0.58519229585E+01  0.64475891415E+01  0.10000000000E+01 0. -1.
        -13    1    6    6    0    0  0.94067879487E+01 -0.21719764471E+02  0.33353384861E+02  0.40898595757E+02  0.10500000000E+00 0. -1.
         13    1    6    6    0    0  0.34852108737E+01 -0.80059717050E+01  0.12384861003E+02  0.15153814201E+02  0.10500000000E+00 0.  1.
</event>
<event>
11    0  0.3422856E-009  0.9118800E+02  0.7816531E-02  0.1126479E+00
         25   -1    0    0    0    0  0.00000000000E+00  0.00000000000E+00  0.99999998245E-14  0.12500000000E+03  0.12500000000E+03 0.  0.
    3000001    1    3    3    0    0  0.18312886950E+02  0.14211463988E+01  0.30619203646E+02  0.35719982047E+02  0.10000000000E+01 0. -1.
    1000022    2    1    0    0    0  0.38550591837E+02  0.11428503121E+01  0.48153876872E+02  0.62500000935E+02  0.10000001062E+02 0.  0.
    3000022    2    3    3    0    0  0.20237704888E+02 -0.27829608664E+00  0.17534673226E+02  0.26780018888E+02  0.24999735119E+00 0.  0.
    1000022    2    1    0    0    0 -0.38550591837E+02 -0.11428503121E+01 -0.48153876872E+02  0.62499999065E+02  0.99999893739E+01 0.  0.
    3000022    2    5    5    0    0 -0.30252563957E+02 -0.42916315092E+01 -0.33533210196E+02  0.45367107196E+02  0.25000467024E+00 0.  0.
        -13    1    4    4    0    0  0.14625545102E+02 -0.23958872668E+00  0.12665948300E+02  0.19349450732E+02  0.10500000000E+00 0. -1.
         13    1    4    4    0    0  0.56121597860E+01 -0.38707359967E-01  0.48687249255E+01  0.74305681561E+01  0.10500000000E+00 0.  1.
    3000001    1    5    5    0    0 -0.82980278802E+01  0.31487811971E+01 -0.14620666676E+02  0.17132891869E+02  0.10000000000E+01 0. -1.
        -13    1    6    6    0    0 -0.14024011216E+02 -0.20465059527E+01 -0.15607770257E+02  0.21082566130E+02  0.10500000000E+00 0.  1.
         13    1    6    6    0    0 -0.16228552741E+02 -0.22451255565E+01 -0.17925439938E+02  0.24284541066E+02  0.10500000000E+00 0. -1.
</event>
<event>
11    0  0.3422856E-009  0.9118800E+02  0.7816531E-02  0.1126479E+00
         25   -1    0    0    0    0  0.00000000000E+00  0.00000000000E+00  0.99999998245E-14  0.12500000000E+03  0.12500000000E+03 0.  0.
    3000001    1    3    3    0    0 -0.31032479020E+02  0.25810100140E+02 -0.17624273333E+02  0.44054409926E+02  0.10000000000E+01 0.  1.
    1000022    2    1    0    0    0 -0.43991646397E+02  0.31834814318E+02 -0.29283608746E+02  0.62500000244E+02  0.99999966975E+01 0.  0.
    3000022    2    3    3    0    0 -0.12959167377E+02  0.60247141776E+01 -0.11659335413E+02  0.18445590318E+02  0.24999979213E+00 0.  0.
    1000022    2    1    0    0    0  0.43991646397E+02 -0.31834814318E+02  0.29283608746E+02  0.62499999756E+02  0.99999936488E+01 0.  0.
    3000022    2    5    5    0    0  0.12747707132E+02 -0.12710251686E+02  0.55481995643E+01  0.18838777995E+02  0.25000579757E+00 0.  0.
        -13    1    4    4    0    0 -0.86066760691E+01  0.39598161185E+01 -0.77790662672E+01  0.12258870814E+02  0.10500000000E+00 0. -1.
         13    1    4    4    0    0 -0.43524913075E+01  0.20648980591E+01 -0.38802691459E+01  0.61867195039E+01  0.10500000000E+00 0.  1.
    3000001    1    5    5    0    0  0.31243939265E+02 -0.19124562632E+02  0.23735409181E+02  0.43661221761E+02  0.10000000000E+01 0.  1.
        -13    1    6    6    0    0  0.59705713002E+01 -0.58741014044E+01  0.25422671030E+01  0.87536812818E+01  0.10500000000E+00 0. -1.
         13    1    6    6    0    0  0.67771358321E+01 -0.68361502818E+01  0.30059324613E+01  0.10085096714E+02  0.10500000000E+00 0.  1.
</event>
<event>
11    0  0.3422856E-009  0.9118800E+02  0.7816531E-02  0.1126479E+00
         25   -1    0    0    0    0  0.00000000000E+00  0.00000000000E+00  0.99999998245E-14  0.12500000000E+03  0.12500000000E+03 0.  0.
    3000001    1    3    3    0    0  0.12702414401E+02  0.21630488493E+02  0.23331986776E+02  0.34272597961E+02  0.10000000000E+01 0.  1.
    1000022    2    1    0    0    0  0.16593569154E+02  0.44612494522E+02  0.39250844406E+02  0.62500000667E+02  0.10000004603E+02 0.  0.
    3000022    2    3    3    0    0  0.38911547531E+01  0.22982006029E+02  0.15918857630E+02  0.28227402706E+02  0.25009773148E+00 0.  0.
    1000022    2    1    0    0    0 -0.16593569154E+02 -0.44612494522E+02 -0.39250844406E+02  0.62499999333E+02  0.99999962603E+01 0.  0.
    3000022    2    5    5    0    0 -0.32989238966E+01 -0.22162989977E+02 -0.20315498676E+02  0.30246702373E+02  0.24998876159E+00 0.  0.
        -13    1    4    4    0    0  0.18220848793E+01  0.11072281426E+02  0.76106320153E+01  0.13559061692E+02  0.10500000000E+00 0.  1.
         13    1    4    4    0    0  0.20690698738E+01  0.11909724603E+02  0.83082256146E+01  0.14668341014E+02  0.10500000000E+00 0. -1.
    3000001    1    5    5    0    0 -0.13294645258E+02 -0.22449504545E+02 -0.18935345730E+02  0.32253296960E+02  0.10000000000E+01 0. -1.
        -13    1    6    6    0    0 -0.23261995116E+01 -0.15341057465E+02 -0.14097610262E+02  0.20964562681E+02  0.10500000000E+00 0. -1.
         13    1    6    6    0    0 -0.97272438508E+00 -0.68219325116E+01 -0.62178884142E+01  0.92821396916E+01  0.10500000000E+00 0.  1.
</event>
<event>
11    0  0.3422856E-009  0.9118800E+02  0.7816531E-02  0.1126479E+00
         25   -1    0    0    0    0  0.00000000000E+00  0.00000000000E+00  0.99999998245E-14  0.12500000000E+03  0.12500000000E+03 0.  0.
    3000001    1    3    3    0    0  0.22379404429E+01 -0.50532261971E+02  0.10551631447E+02  0.51680313501E+02  0.10000000000E+01 0.  1.
    1000022    2    1    0    0    0  0.70386388433E+01 -0.59844139480E+02  0.13243343926E+02  0.62499998591E+02  0.10000009936E+02 0.  0.
    3000022    2    3    3    0    0  0.48006984004E+01 -0.93118775083E+01  0.26917124797E+01  0.10819685090E+02  0.25000303722E+00 0.  0.
    1000022    2    1    0    0    0 -0.70386388433E+01  0.59844139480E+02 -0.13243343926E+02  0.62500001409E+02  0.10000027545E+02 0.  0.
    3000022    2    5    5    0    0 -0.18793516990E+01  0.48878527327E+02 -0.10944692711E+02  0.50124756314E+02  0.25000126880E+00 0.  0.
        -13    1    4    4    0    0  0.26453929417E+01 -0.52620140394E+01  0.14843933103E+01  0.60746476495E+01  0.10500000000E+00 0.  1.
         13    1    4    4    0    0  0.21553054587E+01 -0.40498634690E+01  0.12073191694E+01  0.47450374408E+01  0.10500000000E+00 0. -1.
    3000001    1    5    5    0    0 -0.51592871444E+01  0.10965612153E+02 -0.22986512157E+01  0.12375245094E+02  0.10000000000E+01 0.  1.
        -13    1    6    6    0    0 -0.13326016966E+01  0.33949234945E+02 -0.75623928708E+01  0.34806999175E+02  0.10500000000E+00 0. -1.
         13    1    6    6    0    0 -0.54675000233E+00  0.14929292382E+02 -0.33822998399E+01  0.15317757140E+02  0.10500000000E+00 0.  1.
</event>
<event>
11    0  0.3422856E-009  0.9118800E+02  0.7816531E-02  0.1126479E+00
         25   -1    0    0    0    0  0.00000000000E+00  0.00000000000E+00  0.99999998245E-14  0.12500000000E+03  0.12500000000E+03 0.  0.
    3000001    1    3    3    0    0 -0.77470527916E+01 -0.10864734673E+02 -0.90787832654E+01  0.16170454293E+02  0.10000000000E+01 0. -1.
    1000022    2    1    0    0    0 -0.14247225883E+02 -0.45489518347E+02 -0.39165930947E+02  0.62500000519E+02  0.10000009658E+02 0.  0.
    3000022    2    3    3    0    0 -0.65001730909E+01 -0.34624783674E+02 -0.30087147681E+02  0.46329546225E+02  0.25000639963E+00 0.  0.
    1000022    2    1    0    0    0  0.14247225883E+02  0.45489518347E+02  0.39165930947E+02  0.62499999481E+02  0.10000003171E+02 0.  0.
    3000022    2    5    5    0    0  0.28971449417E+01  0.22694706642E+02  0.14852345044E+02  0.27278156294E+02  0.24999826282E+00 0.  0.
        -13    1    4    4    0    0 -0.32649780441E+01 -0.17286698090E+02 -0.15109835736E+02  0.23190691526E+02  0.10500000000E+00 0.  1.
         13    1    4    4    0    0 -0.32351950468E+01 -0.17338085584E+02 -0.14977311946E+02  0.23138854700E+02  0.10500000000E+00 0. -1.
    3000001    1    5    5    0    0  0.11350080941E+02  0.22794811705E+02  0.24313585903E+02  0.35221843187E+02  0.10000000000E+01 0. -1.
        -13    1    6    6    0    0  0.14589917680E+01  0.11019292298E+02  0.72677122485E+01  0.13280968566E+02  0.10500000000E+00 0.  1.
         13    1    6    6    0    0  0.14381531737E+01  0.11675414344E+02  0.75846327955E+01  0.13997187728E+02  0.10500000000E+00 0. -1.
</event>
<event>
11    0  0.3422856E-009  0.9118800E+02  0.7816531E-02  0.1126479E+00
         25   -1    0    0    0    0  0.00000000000E+00  0.00000000000E+00  0.99999998245E-14  0.12500000000E+03  0.12500000000E+03 0.  0.
    3000001    1    3    3    0    0 -0.48399818117E+02  0.16998981751E+02  0.15002133462E+02  0.53456260464E+02  0.10000000000E+01 0.  1.
    1000022    2    1    0    0    0 -0.56999985963E+02  0.15815655292E+02  0.17524744778E+02  0.62499999552E+02  0.99999956160E+01 0.  0.
    3000022    2    3    3    0    0 -0.86001678465E+01 -0.11833264595E+01  0.25226113158E+01  0.90437390884E+01  0.25000070022E+00 0.  0.
    1000022    2    1    0    0    0  0.56999985963E+02 -0.15815655292E+02 -0.17524744778E+02  0.62500000448E+02  0.10000001217E+02 0.  0.
    3000022    2    5    5    0    0  0.10908921669E+02 -0.65351479005E+01 -0.14484627398E+01  0.12801299565E+02  0.24999239743E+00 0.  0.
        -13    1    4    4    0    0 -0.26592422849E+01 -0.36683232805E+00  0.73022227809E+00  0.27839513397E+01  0.10500000000E+00 0.  1.
         13    1    4    4    0    0 -0.59409255616E+01 -0.81649413147E+00  0.17923890377E+01  0.62597877486E+01  0.10500000000E+00 0. -1.
    3000001    1    5    5    0    0  0.46091064295E+02 -0.92805073912E+01 -0.16076282038E+02  0.49698700883E+02  0.10000000000E+01 0.  1.
        -13    1    6    6    0    0  0.57689636763E+01 -0.33775679335E+01 -0.76717591522E+00  0.67296724236E+01  0.10500000000E+00 0.  1.
         13    1    6    6    0    0  0.51399579924E+01 -0.31575799670E+01 -0.68128682458E+00  0.60716271418E+01  0.10500000000E+00 0. -1.
</event>
<event>
11    0  0.3422856E-009  0.9118800E+02  0.7816531E-02  0.1126479E+00
         25   -1    0    0    0    0  0.00000000000E+00  0.00000000000E+00  0.99999998245E-14  0.12500000000E+03  0.12500000000E+03 0.  0.
    3000001    1    3    3    0    0  0.83606801236E+01 -0.10299086194E+01  0.77882512672E+01  0.11516012404E+02  0.10000000000E+01 0. -1.
    1000022    2    1    0    0    0  0.33439571034E+02 -0.21450399460E+02  0.47200904801E+02  0.62499999798E+02  0.10000000639E+02 0.  0.
    3000022    2    3    3    0    0  0.25078890911E+02 -0.20420490840E+02  0.39412653534E+02  0.50983987394E+02  0.24999304650E+00 0.  0.
    1000022    2    1    0    0    0 -0.33439571034E+02  0.21450399460E+02 -0.47200904801E+02  0.62500000202E+02  0.10000003167E+02 0.  0.
    3000022    2    5    5    0    0 -0.15000721940E+02  0.46513995428E+01 -0.14652894188E+02  0.21480851638E+02  0.25000512607E+00 0.  0.
        -13    1    4    4    0    0  0.16230118788E+02 -0.13192166835E+02  0.25573519651E+02  0.33037341812E+02  0.10500000000E+00 0. -1.
         13    1    4    4    0    0  0.88487721223E+01 -0.72283240049E+01  0.13839133883E+02  0.17946645581E+02  0.10500000000E+00 0.  1.
    3000001    1    5    5    0    0 -0.18438849094E+02  0.16798999917E+02 -0.32548010612E+02  0.41019148564E+02  0.10000000000E+01 0. -1.
        -13    1    6    6    0    0 -0.82683536281E+01  0.26011596761E+01 -0.80098566536E+01  0.11802564636E+02  0.10500000000E+00 0. -1.
         13    1    6    6    0    0 -0.67323683118E+01  0.20502398667E+01 -0.66430375347E+01  0.96782870015E+01  0.10500000000E+00 0.  1.
</event>
<event>
11    0  0.3422856E-009  0.9118800E+02  0.7816531E-02  0.1126479E+00
         25   -1    0    0    0    0  0.00000000000E+00  0.00000000000E+00  0.99999998245E-14  0.12500000000E+03  0.12500000000E+03 0.  0.
    3000001    1    3    3    0    0 -0.15987367325E+01 -0.16307864827E+01 -0.14663283219E+01  0.28923247466E+01  0.10000000000E+01 0. -1.
    1000022    2    1    0    0    0 -0.11366403485E+02 -0.59818043564E+02 -0.99426812356E+01  0.62500002605E+02  0.99999975769E+01 0.  0.
    3000022    2    3    3    0    0 -0.97676667524E+01 -0.58187257081E+02 -0.84763529136E+01  0.59607677859E+02  0.25000119154E+00 0.  0.
    1000022    2    1    0    0    0  0.11366403485E+02  0.59818043564E+02  0.99426812356E+01  0.62499997395E+02  0.99999650125E+01 0.  0.
    3000022    2    5    5    0    0 -0.70184317735E+00  0.12356968927E+02  0.46880728438E+01  0.13237363558E+02  0.25000415597E+00 0.  0.
        -13    1    4    4    0    0 -0.49806743322E+01 -0.29988614401E+02 -0.43242686599E+01  0.30705609177E+02  0.10500000000E+00 0. -1.
         13    1    4    4    0    0 -0.47869924203E+01 -0.28198642680E+02 -0.41520842537E+01  0.28902068681E+02  0.10500000000E+00 0.  1.
    3000001    1    5    5    0    0  0.12068246662E+02  0.47461074637E+02  0.52546083917E+01  0.49262633837E+02  0.10000000000E+01 0. -1.
        -13    1    6    6    0    0 -0.31940475932E+00  0.64257411339E+01  0.23832863864E+01  0.68617233637E+01  0.10500000000E+00 0.  1.
         13    1    6    6    0    0 -0.38243841803E+00  0.59312277927E+01  0.23047864574E+01  0.63756401942E+01  0.10500000000E+00 0. -1.
</event>
<event>
11    0  0.3422856E-009  0.9118800E+02  0.7816531E-02  0.1126479E+00
         25   -1    0    0    0    0  0.00000000000E+00  0.00000000000E+00  0.99999998245E-14  0.12500000000E+03  0.12500000000E+03 0.  0.
    3000001    1    3    3    0    0  0.18555475283E+02 -0.46082643841E+01 -0.44903208191E+02  0.48814340818E+02  0.10000000000E+01 0. -1.
    1000022    2    1    0    0    0  0.24104251722E+02 -0.10842833035E+02 -0.55746458059E+02  0.62500002526E+02  0.10000037512E+02 0.  0.
    3000022    2    3    3    0    0  0.55487764393E+01 -0.62345686506E+01 -0.10843249868E+02  0.13685661708E+02  0.25000489576E+00 0.  0.
    1000022    2    1    0    0    0 -0.24104251722E+02  0.10842833035E+02  0.55746458059E+02  0.62499997474E+02  0.10000005942E+02 0.  0.
    3000022    2    5    5    0    0 -0.11640352182E+02 -0.99436853260E-01  0.23002366997E+02  0.25781370572E+02  0.24998907550E+00 0.  0.
        -13    1    4    4    0    0  0.31804396269E+01 -0.36384773806E+01 -0.61980026068E+01  0.78600238666E+01  0.10500000000E+00 0. -1.
         13    1    4    4    0    0  0.23683368125E+01 -0.25960912700E+01 -0.46452472615E+01  0.58256378414E+01  0.10500000000E+00 0.  1.
    3000001    1    5    5    0    0 -0.12463899540E+02  0.10942269888E+02  0.32744091063E+02  0.36718626902E+02  0.10000000000E+01 0. -1.
        -13    1    6    6    0    0 -0.85387273611E+01 -0.42323776384E-01  0.16834942723E+02  0.18876916531E+02  0.10500000000E+00 0. -1.
         13    1    6    6    0    0 -0.31016248206E+01 -0.57113076877E-01  0.61674242736E+01  0.69044540408E+01  0.10500000000E+00 0.  1.
</event>
<event>
11    0  0.3422856E-009  0.9118800E+02  0.7816531E-02  0.1126479E+00
         25   -1    0    0    0    0  0.00000000000E+00  0.00000000000E+00  0.99999998245E-14  0.12500000000E+03  0.12500000000E+03 0.  0.
    3000001    1    3    3    0    0 -0.34474595031E+01 -0.65207788995E+01 -0.22188903483E+02  0.23404122975E+02  0.10000000000E+01 0.  1.
    1000022    2    1    0    0    0 -0.10014813571E-01 -0.87785860589E+01 -0.61067063593E+02  0.62499999386E+02  0.99999996997E+01 0.  0.
    3000022    2    3    3    0    0  0.34374446895E+01 -0.22578071594E+01 -0.38878160110E+02  0.39095876411E+02  0.24999931400E+00 0.  0.
    1000022    2    1    0    0    0  0.10014813571E-01  0.87785860589E+01  0.61067063593E+02  0.62500000614E+02  0.10000007369E+02 0.  0.
    3000022    2    5    5    0    0 -0.29929717686E+01  0.27945421013E+01  0.78806671803E+01  0.88845226820E+01  0.24996503271E+00 0.  0.
        -13    1    4    4    0    0  0.17696699327E+01 -0.12251388277E+01 -0.20741864683E+02  0.20853505037E+02  0.10500000000E+00 0. -1.
         13    1    4    4    0    0  0.16677747568E+01 -0.10326683317E+01 -0.18136295427E+02  0.18242371374E+02  0.10500000000E+00 0.  1.
    3000001    1    5    5    0    0  0.30029865821E+01  0.59840439577E+01  0.53186396412E+02  0.53615477932E+02  0.10000000000E+01 0. -1.
        -13    1    6    6    0    0 -0.18828660766E+01  0.16826541308E+01  0.47973861307E+01  0.54224024448E+01  0.10500000000E+00 0. -1.
         13    1    6    6    0    0 -0.11101056920E+01  0.11118879704E+01  0.30832810496E+01  0.34621202372E+01  0.10500000000E+00 0.  1.
</event>
<event>
11    0  0.3422856E-009  0.9118800E+02  0.7816531E-02  0.1126479E+00
         25   -1    0    0    0    0  0.00000000000E+00  0.00000000000E+00  0.99999998245E-14  0.12500000000E+03  0.12500000000E+03 0.  0.
    3000001    1    3    3    0    0  0.24596952445E+02  0.14953036795E+01 -0.71601480109E+01  0.25680999245E+02  0.10000000000E+01 0.  1.
    1000022    2    1    0    0    0  0.59873133694E+02  0.11884847582E+02 -0.89559020815E+01  0.62499999925E+02  0.10000003412E+02 0.  0.
    3000022    2    3    3    0    0  0.35276181248E+02  0.10389543902E+02 -0.17957540706E+01  0.36819000680E+02  0.24998489286E+00 0.  0.
    1000022    2    1    0    0    0 -0.59873133694E+02 -0.11884847582E+02  0.89559020815E+01  0.62500000075E+02  0.10000004345E+02 0.  0.
    3000022    2    5    5    0    0 -0.36690486217E+02 -0.65515681623E+01  0.62997384594E+00  0.37276992831E+02  0.25000662045E+00 0.  0.
        -13    1    4    4    0    0  0.23294368289E+02  0.68272815141E+01 -0.11408848321E+01  0.24301275894E+02  0.10500000000E+00 0.  1.
         13    1    4    4    0    0  0.11981812959E+02  0.35622623881E+01 -0.65486923853E+00  0.12517724786E+02  0.10500000000E+00 0. -1.
    3000001    1    5    5    0    0 -0.23182647477E+02 -0.53332794195E+01  0.83259282356E+01  0.25223007243E+02  0.10000000000E+01 0. -1.
        -13    1    6    6    0    0 -0.20395858440E+02 -0.36595335278E+01  0.28616449986E+00  0.20723806172E+02  0.10500000000E+00 0. -1.
         13    1    6    6    0    0 -0.16294627777E+02 -0.28920346345E+01  0.34380934608E+00  0.16553186659E+02  0.10500000000E+00 0.  1.
</event>
<event>
11    0  0.3422856E-009  0.9118800E+02  0.7816531E-02  0.1126479E+00
         25   -1    0    0    0    0  0.00000000000E+00  0.00000000000E+00  0.99999998245E-14  0.12500000000E+03  0.12500000000E+03 0.  0.
    3000001    1    3    3    0    0  0.16405877250E+02  0.14340443280E+02 -0.64273593464E+01  0.22740098284E+02  0.10000000000E+01 0. -1.
    1000022    2    1    0    0    0  0.48503278136E+02  0.29012205493E+02 -0.24738110052E+02  0.62500000758E+02  0.99999974148E+01 0.  0.
    3000022    2    3    3    0    0  0.32097400886E+02  0.14671762213E+02 -0.18310750706E+02  0.39759902474E+02  0.25000650264E+00 0.  0.
    1000022    2    1    0    0    0 -0.48503278136E+02 -0.29012205493E+02  0.24738110052E+02  0.62499999242E+02  0.99999879412E+01 0.  0.
    3000022    2    5    5    0    0 -0.13289706900E+02 -0.12118742148E+02  0.11009489982E+02  0.21089134581E+02  0.25001394130E+00 0.  0.
        -13    1    4    4    0    0  0.12004558179E+02  0.55502350571E+01 -0.68828757071E+01  0.14909712581E+02  0.10500000000E+00 0.  1.
         13    1    4    4    0    0  0.20092842707E+02  0.91215271562E+01 -0.11427874999E+02  0.24850189893E+02  0.10500000000E+00 0. -1.
    3000001    1    5    5    0    0 -0.35213571236E+02 -0.16893463345E+02  0.13728620070E+02  0.41410864661E+02  0.10000000000E+01 0.  1.
        -13    1    6    6    0    0 -0.77411145106E+01 -0.70182415398E+01  0.64630938168E+01  0.12286707242E+02  0.10500000000E+00 0. -1.
         13    1    6    6    0    0 -0.55485923897E+01 -0.51005006077E+01  0.45463961651E+01  0.88024273383E+01  0.10500000000E+00 0.  1.
</event>
<event>
11    0  0.3422856E-009  0.9118800E+02  0.7816531E-02  0.1126479E+00
         25   -1    0    0    0    0  0.00000000000E+00  0.00000000000E+00  0.99999998245E-14  0.12500000000E+03  0.12500000000E+03 0.  0.
    3000001    1    3    3    0    0 -0.71631898716E+01  0.61317960839E+02 -0.82893935213E+00  0.61748609305E+02  0.10000000000E+01 0. -1.
    1000022    2    1    0    0    0 -0.64942723044E+01  0.61349138107E+02 -0.59729911917E+00  0.62499991296E+02  0.99999913224E+01 0.  0.
    3000022    2    3    3    0    0  0.66891756717E+00  0.31177267897E-01  0.23164023297E+00  0.75138199077E+00  0.24998992945E+00 0.  0.
    1000022    2    1    0    0    0  0.64942723044E+01 -0.61349138107E+02  0.59729911917E+00  0.62500008704E+02  0.10000100126E+02 0.  0.
    3000022    2    5    5    0    0 -0.21754877395E+01 -0.17707186562E+02  0.21224677712E+01  0.17967876336E+02  0.25001543796E+00 0.  0.
        -13    1    4    4    0    0  0.45146561345E+00  0.38576505070E-01  0.20513020896E+00  0.50834314149E+00  0.10500000000E+00 0.  1.
         13    1    4    4    0    0  0.21745195372E+00 -0.73992371730E-02  0.26510024006E-01  0.24303884928E+00  0.10500000000E+00 0. -1.
    3000001    1    5    5    0    0  0.86697600439E+01 -0.43641951545E+02 -0.15251686520E+01  0.44532132369E+02  0.10000000000E+01 0. -1.
        -13    1    6    6    0    0 -0.16690528810E+01 -0.13450685584E+02  0.16014867842E+01  0.13648533442E+02  0.10500000000E+00 0.  1.
         13    1    6    6    0    0 -0.50643485845E+00 -0.42565009786E+01  0.52098098697E+00  0.43193428940E+01  0.10500000000E+00 0. -1.
</event>
<event>
11    0  0.3422856E-009  0.9118800E+02  0.7816531E-02  0.1126479E+00
         25   -1    0    0    0    0  0.00000000000E+00  0.00000000000E+00  0.99999998245E-14  0.12500000000E+03  0.12500000000E+03 0.  0.
    3000001    1    3    3    0    0  0.35140998280E+01 -0.83930807080E+00  0.30616269211E+01  0.48401337836E+01  0.10000000000E+01 0.  1.
    1000022    2    1    0    0    0  0.24517736033E+02  0.71985784070E+01  0.56154350523E+02  0.62499999841E+02  0.99999993127E+01 0.  0.
    3000022    2    3    3    0    0  0.21003636205E+02  0.80378864778E+01  0.53092723601E+02  0.57659866058E+02  0.25000296488E+00 0.  0.
    1000022    2    1    0    0    0 -0.24517736033E+02 -0.71985784070E+01 -0.56154350523E+02  0.62500000159E+02  0.10000001299E+02 0.  0.
    3000022    2    5    5    0    0 -0.22434536740E+02 -0.74732197952E+01 -0.42387146128E+02  0.48537512414E+02  0.25000320862E+00 0.  0.
        -13    1    4    4    0    0  0.68082647624E+01  0.26237956133E+01  0.17101376146E+02  0.18593140229E+02  0.10500000000E+00 0.  1.
         13    1    4    4    0    0  0.14195371443E+02  0.54140908645E+01  0.35991347456E+02  0.39066725829E+02  0.10500000000E+00 0. -1.
    3000001    1    5    5    0    0 -0.20831992928E+01  0.27464138819E+00 -0.13767204394E+02  0.13962487744E+02  0.10000000000E+01 0.  1.
        -13    1    6    6    0    0 -0.12678465134E+02 -0.42306570882E+01 -0.23823763443E+02  0.27317113082E+02  0.10500000000E+00 0.  1.
         13    1    6    6    0    0 -0.97560716068E+01 -0.32425627070E+01 -0.18563382686E+02  0.21220399333E+02  0.10500000000E+00 0. -1.
</event>
<event>
11    0  0.3422856E-009  0.9118800E+02  0.7816531E-02  0.1126479E+00
         25   -1    0    0    0    0  0.00000000000E+00  0.00000000000E+00  0.99999998245E-14  0.12500000000E+03  0.12500000000E+03 0.  0.
    3000001    1    3    3    0    0 -0.11112327660E+02 -0.12792220565E+02 -0.24205655282E+02  0.29564141805E+02  0.10000000000E+01 0.  1.
    1000022    2    1    0    0    0 -0.29601120612E+02 -0.18588517364E+02 -0.50837886075E+02  0.62499999774E+02  0.99999995954E+01 0.  0.
    3000022    2    3    3    0    0 -0.18488792952E+02 -0.57962967984E+01 -0.26632230793E+02  0.32935857969E+02  0.25000354275E+00 0.  0.
    1000022    2    1    0    0    0  0.29601120612E+02  0.18588517364E+02  0.50837886075E+02  0.62500000226E+02  0.10000002420E+02 0.  0.
    3000022    2    5    5    0    0  0.25251284761E+02  0.19324715104E+02  0.43576548233E+02  0.53944879753E+02  0.24999955739E+00 0.  0.
        -13    1    4    4    0    0 -0.76492609536E+01 -0.23838609150E+01 -0.11119751421E+02  0.13705979814E+02  0.10500000000E+00 0. -1.
         13    1    4    4    0    0 -0.10839531998E+02 -0.34124358834E+01 -0.15512479372E+02  0.19229878155E+02  0.10500000000E+00 0.  1.
    3000001    1    5    5    0    0  0.43498358508E+01 -0.73619774021E+00  0.72613378426E+01  0.85551204729E+01  0.10000000000E+01 0.  1.
        -13    1    6    6    0    0  0.13085962998E+02  0.99654189318E+01  0.22447872153E+02  0.27829300949E+02  0.10500000000E+00 0.  1.
         13    1    6    6    0    0  0.12165321763E+02  0.93592961720E+01  0.21128676079E+02  0.26115578804E+02  0.10500000000E+00 0. -1.
</event>
<event>
11    0  0.3422856E-009  0.9118800E+02  0.7816531E-02  0.1126479E+00
         25   -1    0    0    0    0  0.00000000000E+00  0.00000000000E+00  0.99999998245E-14  0.12500000000E+03  0.12500000000E+03 0.  0.
    3000001    1    3    3    0    0  0.16182758051E+02 -0.29775375044E+02  0.19522714577E+01  0.33959770038E+02  0.10000000000E+01 0. -1.
    1000022    2    1    0    0    0  0.21384882958E+02 -0.57598771588E+02  0.55962656923E+01  0.62499999407E+02  0.10000001435E+02 0.  0.
    3000022    2    3    3    0    0  0.52021249067E+01 -0.27823396543E+02  0.36439942346E+01  0.28540229370E+02  0.24999947270E+00 0.  0.
    1000022    2    1    0    0    0 -0.21384882958E+02  0.57598771588E+02 -0.55962656923E+01  0.62500000593E+02  0.10000008843E+02 0.  0.
    3000022    2    5    5    0    0 -0.27562770143E+01  0.12054157564E+02 -0.48280637381E+01  0.13276764614E+02  0.25000320508E+00 0.  0.
        -13    1    4    4    0    0  0.30766464607E+01 -0.16104845305E+02  0.21184360175E+01  0.16532712781E+02  0.10500000000E+00 0. -1.
         13    1    4    4    0    0  0.21254784460E+01 -0.11718551238E+02  0.15255582171E+01  0.12007516588E+02  0.10500000000E+00 0.  1.
    3000001    1    5    5    0    0 -0.18628605944E+02  0.45544614024E+02 -0.76820195421E+00  0.49223235979E+02  0.10000000000E+01 0. -1.
        -13    1    6    6    0    0 -0.13125616013E+01  0.59529047167E+01 -0.24321582588E+01  0.65640164015E+01  0.10500000000E+00 0.  1.
         13    1    6    6    0    0 -0.14437154130E+01  0.61012528473E+01 -0.23959054793E+01  0.67127482126E+01  0.10500000000E+00 0. -1.
</event>
<event>
11    0  0.3422856E-009  0.9118800E+02  0.7816531E-02  0.1126479E+00
         25   -1    0    0    0    0  0.00000000000E+00  0.00000000000E+00  0.99999998245E-14  0.12500000000E+03  0.12500000000E+03 0.  0.
    3000001    1    3    3    0    0  0.40513449433E+01  0.47466291007E+02  0.20512340746E+02  0.51876953463E+02  0.10000000000E+01 0. -1.
    1000022    2    1    0    0    0  0.80194628495E+01  0.57267215556E+02  0.21503585487E+02  0.62500001388E+02  0.10000011136E+02 0.  0.
    3000022    2    3    3    0    0  0.39681179062E+01  0.98009245496E+01  0.99124474069E+00  0.10623047924E+02  0.24999863876E+00 0.  0.
    1000022    2    1    0    0    0 -0.80194628495E+01 -0.57267215556E+02 -0.21503585487E+02  0.62499998612E+02  0.99999937896E+01 0.  0.
    3000022    2    5    5    0    0  0.67811349599E+00 -0.20264727599E+02 -0.10917292501E+02  0.23029737041E+02  0.24998011043E+00 0.  0.
        -13    1    4    4    0    0  0.23416926425E+01  0.59266386180E+01  0.56449684000E+00  0.63983006668E+01  0.10500000000E+00 0.  1.
         13    1    4    4    0    0  0.16264252638E+01  0.38742859316E+01  0.42674790069E+00  0.42247472574E+01  0.10500000000E+00 0. -1.
    3000001    1    5    5    0    0 -0.86975763455E+01 -0.37002487957E+02 -0.10586292985E+02  0.39470261571E+02  0.10000000000E+01 0. -1.
        -13    1    6    6    0    0  0.37756084991E+00 -0.92828391211E+01 -0.50064213531E+01  0.10554095608E+02  0.10500000000E+00 0.  1.
         13    1    6    6    0    0  0.30055264608E+00 -0.10981888478E+02 -0.59108711482E+01  0.12475641433E+02  0.10500000000E+00 0. -1.
</event>
<event>
11    0  0.3422856E-009  0.9118800E+02  0.7816531E-02  0.1126479E+00
         25   -1    0    0    0    0  0.00000000000E+00  0.00000000000E+00  0.99999998245E-14  0.12500000000E+03  0.12500000000E+03 0.  0.
    3000001    1    3    3    0    0 -0.11896753114E+02 -0.25437760412E+02  0.18688182952E+02  0.33747008334E+02  0.10000000000E+01 0. -1.
    1000022    2    1    0    0    0 -0.14472880662E+02 -0.51105044948E+02  0.31385667287E+02  0.62500000163E+02  0.10000000778E+02 0.  0.
    3000022    2    3    3    0    0 -0.25761275476E+01 -0.25667284537E+02  0.12697484335E+02  0.28752991830E+02  0.25000420155E+00 0.  0.
    1000022    2    1    0    0    0  0.14472880662E+02  0.51105044948E+02 -0.31385667287E+02  0.62499999837E+02  0.99999987350E+01 0.  0.
    3000022    2    5    5    0    0  0.29214045321E+01  0.68019085009E+01 -0.85977708797E+01  0.11348335909E+02  0.25000023392E+00 0.  0.
        -13    1    4    4    0    0 -0.12936791182E+01 -0.12708921675E+02  0.62150784956E+01  0.14206636530E+02  0.10500000000E+00 0. -1.
         13    1    4    4    0    0 -0.12824484294E+01 -0.12958362862E+02  0.64824058395E+01  0.14546355299E+02  0.10500000000E+00 0.  1.
    3000001    1    5    5    0    0  0.11551476129E+02  0.44303136447E+02 -0.22787896408E+02  0.51151663927E+02  0.10000000000E+01 0. -1.
        -13    1    6    6    0    0  0.15826491559E+01  0.36633096443E+01 -0.47363743429E+01  0.61942620882E+01  0.10500000000E+00 0.  1.
         13    1    6    6    0    0  0.13387553762E+01  0.31385988566E+01 -0.38613965368E+01  0.51540738212E+01  0.10500000000E+00 0. -1.
</event>
<event>
11    0  0.3422856E-009  0.9118800E+02  0.7816531E-02  0.1126479E+00
         25   -1    0    0    0    0  0.00000000000E+00  0.00000000000E+00  0.99999998245E-14  0.12500000000E+03  0.12500000000E+03 0.  0.
    3000001    1    3    3    0    0 -0.52883414651E+02 -0.20526594867E+02 -0.19301185254E+02  0.59929395076E+02  0.10000000000E+01 0.  1.
    1000022    2    1    0    0    0 -0.53777594015E+02 -0.21138825272E+02 -0.21618758211E+02  0.62500002572E+02  0.10000003149E+02 0.  0.
    3000022    2    3    3    0    0 -0.89417936373E+00 -0.61223040492E+00 -0.23175729571E+01  0.25706074955E+01  0.24999136266E+00 0.  0.
    1000022    2    1    0    0    0  0.53777594015E+02  0.21138825272E+02  0.21618758211E+02  0.62499997428E+02  0.99999710020E+01 0.  0.
    3000022    2    5    5    0    0  0.49940961609E+01  0.15885522937E+01 -0.88509520831E+00  0.53207507114E+01  0.24999950180E+00 0.  0.
        -13    1    4    4    0    0 -0.61257335880E+00 -0.42807391192E+00 -0.16895455847E+01  0.18504277010E+01  0.10500000000E+00 0. -1.
         13    1    4    4    0    0 -0.28160600493E+00 -0.18415649300E+00 -0.62802737240E+00  0.72017979451E+00  0.10500000000E+00 0.  1.
    3000001    1    5    5    0    0  0.48783497854E+02  0.19550272978E+02  0.22503853419E+02  0.57179246717E+02  0.10000000000E+01 0.  1.
        -13    1    6    6    0    0  0.19913322250E+01  0.69545539819E+00 -0.33339795203E+00  0.21380461725E+01  0.10500000000E+00 0.  1.
         13    1    6    6    0    0  0.30027639359E+01  0.89309689555E+00 -0.55169725628E+00  0.31827045389E+01  0.10500000000E+00 0. -1.
</event>
<event>
11    0  0.3422856E-009  0.9118800E+02  0.7816531E-02  0.1126479E+00
         25   -1    0    0    0    0  0.00000000000E+00  0.00000000000E+00  0.99999998245E-14  0.12500000000E+03  0.12500000000E+03 0.  0.
    3000001    1    3    3    0    0 -0.18533037401E+01 -0.29005974857E+02  0.51270317162E+01  0.29530793527E+02  0.10000000000E+01 0. -1.
    1000022    2    1    0    0    0 -0.11380220507E+02 -0.60530046759E+02  0.35852932996E+01  0.62500002017E+02  0.99999972349E+01 0.  0.
    3000022    2    3    3    0    0 -0.95269167672E+01 -0.31524071902E+02 -0.15417384166E+01  0.32969208490E+02  0.24999744922E+00 0.  0.
    1000022    2    1    0    0    0  0.11380220507E+02  0.60530046759E+02 -0.35852932996E+01  0.62499997983E+02  0.99999720223E+01 0.  0.
    3000022    2    5    5    0    0  0.10028418999E+02  0.49279930786E+02  0.83164593075E+00  0.50297464276E+02  0.25002342804E+00 0.  0.
        -13    1    4    4    0    0 -0.53173178204E+01 -0.17557883553E+02 -0.92435687529E+00  0.18368957627E+02  0.10500000000E+00 0.  1.
         13    1    4    4    0    0 -0.42095989468E+01 -0.13966188349E+02 -0.61738154128E+00  0.14600250863E+02  0.10500000000E+00 0. -1.
    3000001    1    5    5    0    0  0.13518015079E+01  0.11250115972E+02 -0.44169392303E+01  0.12202533707E+02  0.10000000000E+01 0. -1.
        -13    1    6    6    0    0  0.74657157877E+01  0.36592884181E+02  0.59366079614E+00  0.37351566808E+02  0.10500000000E+00 0.  1.
         13    1    6    6    0    0  0.25627032116E+01  0.12687046606E+02  0.23798513461E+00  0.12945897468E+02  0.10500000000E+00 0. -1.
</event>
<event>
11    0  0.3422856E-009  0.9118800E+02  0.7816531E-02  0.1126479E+00
         25   -1    0    0    0    0  0.00000000000E+00  0.00000000000E+00  0.99999998245E-14  0.12500000000E+03  0.12500000000E+03 0.  0.
    3000001    1    3    3    0    0  0.10552028143E+01 -0.18614352786E+02  0.53228923157E+02  0.56408561789E+02  0.10000000000E+01 0. -1.
    1000022    2    1    0    0    0  0.42295399741E+01 -0.19739247611E+02  0.58298568404E+02  0.62500000148E+02  0.10000001801E+02 0.  0.
    3000022    2    3    3    0    0  0.31743371598E+01 -0.11248948256E+01  0.50696452464E+01  0.60914383598E+01  0.25002718690E+00 0.  0.
    1000022    2    1    0    0    0 -0.42295399741E+01  0.19739247611E+02 -0.58298568404E+02  0.62499999852E+02  0.99999999446E+01 0.  0.
    3000022    2    5    5    0    0 -0.70630887394E+01  0.16406701736E+02 -0.43176240330E+02  0.46725981119E+02  0.24999619209E+00 0.  0.
        -13    1    4    4    0    0  0.77388718136E+00 -0.29681119278E+00  0.12329433648E+01  0.14893530792E+01  0.10500000000E+00 0. -1.
         13    1    4    4    0    0  0.24004499784E+01 -0.82808363283E+00  0.38367018816E+01  0.46020852807E+01  0.10500000000E+00 0.  1.
    3000001    1    5    5    0    0  0.28335487653E+01  0.33325458756E+01 -0.15122328073E+02  0.15774018733E+02  0.10000000000E+01 0.  1.
        -13    1    6    6    0    0 -0.23468839453E+01  0.55141221325E+01 -0.14361392986E+02  0.15561942059E+02  0.10500000000E+00 0.  1.
         13    1    6    6    0    0 -0.47162047941E+01  0.10892579603E+02 -0.28814847344E+02  0.31164039060E+02  0.10500000000E+00 0. -1.
</event>
<event>
11    0  0.3422856E-009  0.9118800E+02  0.7816531E-02  0.1126479E+00
         25   -1    0    0    0    0  0.00000000000E+00  0.00000000000E+00  0.99999998245E-14  0.12500000000E+03  0.12500000000E+03 0.  0.
    3000001    1    3    3    0    0 -0.26295702235E+02  0.24382786910E+02 -0.48548280348E+02  0.60364888621E+02  0.10000000000E+01 0.  1.
    1000022    2    1    0    0    0 -0.26741355989E+02  0.26422564798E+02 -0.48918278653E+02  0.62499999971E+02  0.99999979662E+01 0.  0.
    3000022    2    3    3    0    0 -0.44565375379E+00  0.20397778883E+01 -0.36999830560E+00  0.21351113497E+01  0.25000125541E+00 0.  0.
    1000022    2    1    0    0    0  0.26741355989E+02 -0.26422564798E+02  0.48918278653E+02  0.62500000029E+02  0.99999983316E+01 0.  0.
    3000022    2    5    5    0    0  0.21496072769E+02 -0.21520587921E+02  0.32294228150E+02  0.44364360297E+02  0.24988759534E+00 0.  0.
        -13    1    4    4    0    0 -0.15133072226E+00  0.81835424826E+00 -0.90103512575E-01  0.84365176828E+00  0.10500000000E+00 0. -1.
         13    1    4    4    0    0 -0.29432303153E+00  0.12214236401E+01 -0.27989479303E+00  0.12914595815E+01  0.10500000000E+00 0.  1.
    3000001    1    5    5    0    0  0.52452832197E+01 -0.49019768770E+01  0.16624050503E+02  0.18135639732E+02  0.10000000000E+01 0. -1.
        -13    1    6    6    0    0  0.78392943802E+01 -0.78311919420E+01  0.11681045847E+02  0.16100930429E+02  0.10500000000E+00 0.  1.
         13    1    6    6    0    0  0.13656778389E+02 -0.13689395979E+02  0.20613182303E+02  0.28263429868E+02  0.10500000000E+00 0. -1.
</event>
<event>
11    0  0.3422856E-009  0.9118800E+02  0.7816531E-02  0.1126479E+00
         25   -1    0    0    0    0  0.00000000000E+00  0.00000000000E+00  0.99999998245E-14  0.12500000000E+03  0.12500000000E+03 0.  0.
    3000001    1    3    3    0    0  0.29107297655E+01  0.88959936973E+01 -0.25064223662E+02  0.26773613118E+02  0.10000000000E+01 0. -1.
    1000022    2    1    0    0    0  0.57449723915E+01  0.96127650101E+01 -0.60669928871E+02  0.62500009887E+02  0.10000050386E+02 0.  0.
    3000022    2    3    3    0    0  0.28342426260E+01  0.71677131276E+00 -0.35605705209E+02  0.35726396769E+02  0.24998050839E+00 0.  0.
    1000022    2    1    0    0    0 -0.57449723915E+01 -0.96127650101E+01  0.60669928871E+02  0.62499990113E+02  0.99999268014E+01 0.  0.
    3000022    2    5    5    0    0 -0.11379002164E+01 -0.78052318343E+01  0.50843585747E+02  0.51452397190E+02  0.25000819906E+00 0.  0.
        -13    1    4    4    0    0  0.68329796359E+00  0.15262370142E+00 -0.86063425200E+01  0.86354123626E+01  0.10500000000E+00 0. -1.
         13    1    4    4    0    0  0.21509446625E+01  0.56414761134E+00 -0.26999362689E+02  0.27090984406E+02  0.10500000000E+00 0.  1.
    3000001    1    5    5    0    0 -0.46070721752E+01 -0.18075331757E+01  0.98263431244E+01  0.11047592924E+02  0.10000000000E+01 0.  1.
        -13    1    6    6    0    0 -0.63545516457E+00 -0.39640220832E+01  0.25635069012E+02  0.25947737138E+02  0.10500000000E+00 0.  1.
         13    1    6    6    0    0 -0.50244505179E+00 -0.38412097512E+01  0.25208516735E+02  0.25504660052E+02  0.10500000000E+00 0. -1.
</event>
<event>
11    0  0.3422856E-009  0.9118800E+02  0.7816531E-02  0.1126479E+00
         25   -1    0    0    0    0  0.00000000000E+00  0.00000000000E+00  0.99999998245E-14  0.12500000000E+03  0.12500000000E+03 0.  0.
    3000001    1    3    3    0    0 -0.18681539695E+02  0.26728912560E+02 -0.26403828310E+01  0.32732343538E+02  0.10000000000E+01 0.  1.
    1000022    2    1    0    0    0 -0.42418582333E+02  0.44455469521E+02 -0.55339933775E+01  0.62500002344E+02  0.10000015644E+02 0.  0.
    3000022    2    3    3    0    0 -0.23737042638E+02  0.17726556961E+02 -0.28936105465E+01  0.29767658806E+02  0.25002782213E+00 0.  0.
    1000022    2    1    0    0    0  0.42418582333E+02 -0.44455469521E+02  0.55339933775E+01  0.62499997656E+02  0.99999863413E+01 0.  0.
    3000022    2    5    5    0    0  0.40208412198E+02 -0.39962833182E+02  0.71618110752E+01  0.57141040317E+02  0.25000648945E+00 0.  0.
        -13    1    4    4    0    0 -0.14265333058E+02  0.10598357290E+02 -0.17812485871E+01  0.17860816780E+02  0.10500000000E+00 0. -1.
         13    1    4    4    0    0 -0.94717095798E+01  0.71281996706E+01 -0.11123619594E+01  0.11906842026E+02  0.10500000000E+00 0.  1.
    3000001    1    5    5    0    0  0.22101701346E+01 -0.44926363390E+01 -0.16278176977E+01  0.53589573384E+01  0.10000000000E+01 0. -1.
        -13    1    6    6    0    0  0.23624426595E+02 -0.23481364724E+02  0.41433108273E+01  0.33565846792E+02  0.10500000000E+00 0.  1.
         13    1    6    6    0    0  0.16583985603E+02 -0.16481468458E+02  0.30185002479E+01  0.23575193526E+02  0.10500000000E+00 0. -1.
</event>
<event>
11    0  0.3422856E-009  0.9118800E+02  0.7816531E-02  0.1126479E+00
         25   -1    0    0    0    0  0.00000000000E+00  0.00000000000E+00  0.99999998245E-14  0.12500000000E+03  0.12500000000E+03 0.  0.
    3000001    1    3    3    0    0  0.30868284276E+01  0.26410673562E+01 -0.27639191392E+01  0.50142791635E+01  0.10000000000E+01 0. -1.
    1000022    2    1    0    0    0  0.57323486643E+02  0.12786234542E+02 -0.18888622997E+02  0.62499999870E+02  0.99999995182E+01 0.  0.
    3000022    2    3    3    0    0  0.54236658216E+02  0.10145167186E+02 -0.16124703858E+02  0.57485720707E+02  0.24999810790E+00 0.  0.
    1000022    2    1    0    0    0 -0.57323486643E+02 -0.12786234542E+02  0.18888622997E+02  0.62500000130E+02  0.10000001139E+02 0.  0.
    3000022    2    5    5    0    0 -0.43256141282E+02 -0.76475589578E+01  0.17972769456E+02  0.47462215054E+02  0.24999857145E+00 0.  0.
        -13    1    4    4    0    0  0.22835991956E+02  0.42453423326E+01 -0.68498522332E+01  0.24216460533E+02  0.10500000000E+00 0. -1.
         13    1    4    4    0    0  0.31400666259E+02  0.58998248535E+01 -0.92748516248E+01  0.33269260174E+02  0.10500000000E+00 0.  1.
    3000001    1    5    5    0    0 -0.14067345361E+02 -0.51386755845E+01  0.91585354084E+00  0.15037785076E+02  0.10000000000E+01 0. -1.
        -13    1    6    6    0    0 -0.13908111229E+02 -0.24105388197E+01  0.57556306616E+01  0.15244164938E+02  0.10500000000E+00 0. -1.
         13    1    6    6    0    0 -0.29348030053E+02 -0.52370201381E+01  0.12217138795E+02  0.32218050116E+02  0.10500000000E+00 0.  1.
</event>
<event>
11    0  0.3422856E-009  0.9118800E+02  0.7816531E-02  0.1126479E+00
         25   -1    0    0    0    0  0.00000000000E+00  0.00000000000E+00  0.99999998245E-14  0.12500000000E+03  0.12500000000E+03 0.  0.
    3000001    1    3    3    0    0  0.31439206453E+02 -0.85760429067E+01  0.18468054245E+02  0.37470538319E+02  0.10000000000E+01 0.  1.
    1000022    2    1    0    0    0  0.55636149335E+02 -0.12367351303E+02  0.23620281351E+02  0.62500001110E+02  0.99999978269E+01 0.  0.
    3000022    2    3    3    0    0  0.24196942882E+02 -0.37913083962E+01  0.51522271060E+01  0.25029462791E+02  0.24999848790E+00 0.  0.
    1000022    2    1    0    0    0 -0.55636149335E+02  0.12367351303E+02 -0.23620281351E+02  0.62499998890E+02  0.99999839525E+01 0.  0.
    3000022    2    5    5    0    0 -0.35700360794E+01 -0.98565029668E+00 -0.34879187928E+01  0.50935983456E+01  0.25000497141E+00 0.  0.
        -13    1    4    4    0    0  0.12302061705E+02 -0.18601726001E+01  0.26041634065E+01  0.12711949353E+02  0.10500000000E+00 0. -1.
         13    1    4    4    0    0  0.11894881177E+02 -0.19311357961E+01  0.25480636995E+01  0.12317513438E+02  0.10500000000E+00 0.  1.
    3000001    1    5    5    0    0 -0.52066113256E+02  0.13353001600E+02 -0.20132362558E+02  0.57406400544E+02  0.10000000000E+01 0.  1.
        -13    1    6    6    0    0 -0.25111003920E+01 -0.71728972782E+00 -0.24038973598E+01  0.35510388972E+01  0.10500000000E+00 0. -1.
         13    1    6    6    0    0 -0.10589356873E+01 -0.26836056886E+00 -0.10840214330E+01  0.15425594485E+01  0.10500000000E+00 0.  1.
</event>
<event>
11    0  0.3422856E-009  0.9118800E+02  0.7816531E-02  0.1126479E+00
         25   -1    0    0    0    0  0.00000000000E+00  0.00000000000E+00  0.99999998245E-14  0.12500000000E+03  0.12500000000E+03 0.  0.
    3000001    1    3    3    0    0 -0.75786151772E+00 -0.24506942949E+01  0.17859581930E+01  0.32817530794E+01  0.10000000000E+01 0. -1.
    1000022    2    1    0    0    0 -0.47720104855E+02 -0.32525797706E+02  0.21705155516E+02  0.62500002461E+02  0.10000030390E+02 0.  0.
    3000022    2    3    3    0    0 -0.46962243337E+02 -0.30075103411E+02  0.19919197323E+02  0.59218249381E+02  0.24998660963E+00 0.  0.
    1000022    2    1    0    0    0  0.47720104855E+02  0.32525797706E+02 -0.21705155516E+02  0.62499997539E+02  0.99999996314E+01 0.  0.
    3000022    2    5    5    0    0  0.30140692972E+02  0.23598627687E+02 -0.10063460158E+02  0.39581464482E+02  0.24999721407E+00 0.  0.
        -13    1    4    4    0    0 -0.33645637155E+02 -0.21548661488E+02  0.14227770099E+02  0.42412429529E+02  0.10500000000E+00 0. -1.
         13    1    4    4    0    0 -0.13316606182E+02 -0.85264419230E+01  0.56914272237E+01  0.16805819853E+02  0.10500000000E+00 0.  1.
    3000001    1    5    5    0    0  0.17579411883E+02  0.89271700187E+01 -0.11641695358E+02  0.22918533058E+02  0.10000000000E+01 0.  1.
        -13    1    6    6    0    0  0.17610252881E+02  0.13737915231E+02 -0.59244780657E+01  0.23107613178E+02  0.10500000000E+00 0. -1.
         13    1    6    6    0    0  0.12530440091E+02  0.98607124562E+01 -0.41389820924E+01  0.16473851303E+02  0.10500000000E+00 0.  1.
</event>
<event>
11    0  0.3422856E-009  0.9118800E+02  0.7816531E-02  0.1126479E+00
         25   -1    0    0    0    0  0.00000000000E+00  0.00000000000E+00  0.99999998245E-14  0.12500000000E+03  0.12500000000E+03 0.  0.
    3000001    1    3    3    0    0 -0.23053971275E+01  0.48246190149E+01 -0.14988950465E+01  0.56425606700E+01  0.10000000000E+01 0.  1.
    1000022    2    1    0    0    0 -0.53954996145E+01  0.48218100087E+02 -0.38107131041E+02  0.62499999665E+02  0.99999964955E+01 0.  0.
    3000022    2    3    3    0    0 -0.30901024870E+01  0.43393481072E+02 -0.36608235995E+02  0.56857438995E+02  0.24998709940E+00 0.  0.
    1000022    2    1    0    0    0  0.53954996145E+01 -0.48218100087E+02  0.38107131041E+02  0.62500000335E+02  0.10000000680E+02 0.  0.
    3000022    2    5    5    0    0  0.25866207923E+00 -0.17290387455E+02  0.19350676156E+02  0.25952563922E+02  0.25000402556E+00 0.  0.
        -13    1    4    4    0    0 -0.10572568236E+01  0.15547326696E+02 -0.13151905828E+02  0.20391684857E+02  0.10500000000E+00 0.  1.
         13    1    4    4    0    0 -0.20328456634E+01  0.27846154375E+02 -0.23456330167E+02  0.36465754138E+02  0.10500000000E+00 0. -1.
    3000001    1    5    5    0    0  0.51368375353E+01 -0.30927712631E+02  0.18756454885E+02  0.36547436412E+02  0.10000000000E+01 0. -1.
        -13    1    6    6    0    0  0.97655026878E-01 -0.10324609410E+02  0.11595599904E+02  0.15526624169E+02  0.10500000000E+00 0. -1.
         13    1    6    6    0    0  0.16100705236E+00 -0.69657780456E+01  0.77550762527E+01  0.10425939753E+02  0.10500000000E+00 0.  1.
</event>
<event>
11    0  0.3422856E-009  0.9118800E+02  0.7816531E-02  0.1126479E+00
         25   -1    0    0    0    0  0.00000000000E+00  0.00000000000E+00  0.99999998245E-14  0.12500000000E+03  0.12500000000E+03 0.  0.
    3000001    1    3    3    0    0  0.45943795283E+02  0.29269743237E+01  0.19699561379E+02  0.50084650565E+02  0.10000000000E+01 0.  1.
    1000022    2    1    0    0    0  0.58239181975E+02  0.46258023211E+01  0.19825479857E+02  0.62499999997E+02  0.99999991929E+01 0.  0.
    3000022    2    3    3    0    0  0.12295386692E+02  0.16988279974E+01  0.12591847768E+00  0.12415349432E+02  0.24999117003E+00 0.  0.
    1000022    2    1    0    0    0 -0.58239181975E+02 -0.46258023211E+01 -0.19825479857E+02  0.62500000003E+02  0.99999992273E+01 0.  0.
    3000022    2    5    5    0    0 -0.10432998078E+02 -0.44900859199E+01 -0.52162848988E+01  0.12501217867E+02  0.24999909233E+00 0.  0.
        -13    1    4    4    0    0  0.66948525638E+01  0.87259947578E+00  0.11071043971E+00  0.67532038691E+01  0.10500000000E+00 0.  1.
         13    1    4    4    0    0  0.56005341284E+01  0.82622852161E+00  0.15208037971E-01  0.56621455631E+01  0.10500000000E+00 0. -1.
    3000001    1    5    5    0    0 -0.47806183897E+02 -0.13571640118E+00 -0.14609194958E+02  0.49998782136E+02  0.10000000000E+01 0.  1.
        -13    1    6    6    0    0 -0.36334262425E+01 -0.15527832273E+01 -0.17542331793E+01  0.43244977811E+01  0.10500000000E+00 0.  1.
         13    1    6    6    0    0 -0.67995718354E+01 -0.29373026926E+01 -0.34620517195E+01  0.81767200858E+01  0.10500000000E+00 0. -1.
</event>
<event>
11    0  0.3422856E-009  0.9118800E+02  0.7816531E-02  0.1126479E+00
         25   -1    0    0    0    0  0.00000000000E+00  0.00000000000E+00  0.99999998245E-14  0.12500000000E+03  0.12500000000E+03 0.  0.
    3000001    1    3    3    0    0 -0.20086468614E+00  0.10330351626E+01  0.91039575831E+00  0.17135719144E+01  0.10000000000E+01 0.  1.
    1000022    2    1    0    0    0 -0.46850151866E+02  0.11932225445E+02  0.38326694232E+02  0.62500003260E+02  0.10000009146E+02 0.  0.
    3000022    2    3    3    0    0 -0.46649287180E+02  0.10899190283E+02  0.37416298473E+02  0.60786431346E+02  0.25000230931E+00 0.  0.
    1000022    2    1    0    0    0  0.46850151866E+02 -0.11932225445E+02 -0.38326694232E+02  0.62499996740E+02  0.99999683911E+01 0.  0.
    3000022    2    5    5    0    0  0.29811781568E+02 -0.10129980985E+02 -0.19554544114E+02  0.37064828812E+02  0.25000862101E+00 0.  0.
        -13    1    4    4    0    0 -0.18968610649E+02  0.44972071461E+01  0.15229598274E+02  0.24738325542E+02  0.10500000000E+00 0. -1.
         13    1    4    4    0    0 -0.27680676531E+02  0.64019831368E+01  0.22186700199E+02  0.36048105804E+02  0.10500000000E+00 0.  1.
    3000001    1    5    5    0    0  0.17038370297E+02 -0.18022444609E+01 -0.18772150118E+02  0.25435167928E+02  0.10000000000E+01 0.  1.
        -13    1    6    6    0    0  0.15676293156E+02 -0.53767671593E+01 -0.10235901376E+02  0.19479232382E+02  0.10500000000E+00 0.  1.
         13    1    6    6    0    0  0.14135488412E+02 -0.47532138253E+01 -0.93186427379E+01  0.17585596430E+02  0.10500000000E+00 0. -1.
</event>
<event>
11    0  0.3422856E-009  0.9118800E+02  0.7816531E-02  0.1126479E+00
         25   -1    0    0    0    0  0.00000000000E+00  0.00000000000E+00  0.99999998245E-14  0.12500000000E+03  0.12500000000E+03 0.  0.
    3000001    1    3    3    0    0 -0.10724773869E+02  0.21718493096E+02 -0.64723342576E+01  0.25091927540E+02  0.10000000000E+01 0. -1.
    1000022    2    1    0    0    0 -0.35920020042E+02  0.49123060955E+02 -0.10145293683E+02  0.62500000196E+02  0.10000004159E+02 0.  0.
    3000022    2    3    3    0    0 -0.25195246172E+02  0.27404567858E+02 -0.36729594255E+01  0.37408072656E+02  0.24999937246E+00 0.  0.
    1000022    2    1    0    0    0  0.35920020042E+02 -0.49123060955E+02  0.10145293683E+02  0.62499999804E+02  0.10000001713E+02 0.  0.
    3000022    2    5    5    0    0  0.74183772116E+01 -0.17412915014E+02  0.47155217168E+01  0.19507449017E+02  0.24998470031E+00 0.  0.
        -13    1    4    4    0    0 -0.12439736377E+02  0.13495242519E+02 -0.17471424604E+01  0.18437248806E+02  0.10500000000E+00 0. -1.
         13    1    4    4    0    0 -0.12755509796E+02  0.13909325339E+02 -0.19258169651E+01  0.18970823849E+02  0.10500000000E+00 0.  1.
    3000001    1    5    5    0    0  0.28501642830E+02 -0.31710145941E+02  0.54297719663E+01  0.42992550788E+02  0.10000000000E+01 0. -1.
        -13    1    6    6    0    0  0.45761355540E+01 -0.10860892709E+02  0.29755674635E+01  0.12155864172E+02  0.10500000000E+00 0.  1.
         13    1    6    6    0    0  0.28422416576E+01 -0.65520223050E+01  0.17399542533E+01  0.73515848447E+01  0.10500000000E+00 0. -1.
</event>
<event>
11    0  0.3422856E-009  0.9118800E+02  0.7816531E-02  0.1126479E+00
         25   -1    0    0    0    0  0.00000000000E+00  0.00000000000E+00  0.99999998245E-14  0.12500000000E+03  0.12500000000E+03 0.  0.
    3000001    1    3    3    0    0 -0.39716090374E+00 -0.85878322318E+01 -0.10323866129E+02  0.13471852548E+02  0.10000000000E+01 0.  1.
    1000022    2    1    0    0    0  0.13271348467E+02 -0.29899068294E+02 -0.52308384105E+02  0.62499999453E+02  0.99999954476E+01 0.  0.
    3000022    2    3    3    0    0  0.13668509371E+02 -0.21311236062E+02 -0.41984517976E+02  0.49028146905E+02  0.25001665833E+00 0.  0.
    1000022    2    1    0    0    0 -0.13271348467E+02  0.29899068294E+02  0.52308384105E+02  0.62500000547E+02  0.10000002291E+02 0.  0.
    3000022    2    5    5    0    0  0.68020253221E+00  0.40327240009E+01  0.11441685724E+02  0.12153197482E+02  0.24999696204E+00 0.  0.
        -13    1    4    4    0    0  0.84110166123E+01 -0.13195076405E+02 -0.25865607890E+02  0.30230711840E+02  0.10500000000E+00 0.  1.
         13    1    4    4    0    0  0.52574927586E+01 -0.81161596565E+01 -0.16118910086E+02  0.18797435065E+02  0.10500000000E+00 0. -1.
    3000001    1    5    5    0    0 -0.13951550999E+02  0.25866344293E+02  0.40866698381E+02  0.50346803065E+02  0.10000000000E+01 0.  1.
        -13    1    6    6    0    0  0.37154580452E+00  0.18023071076E+01  0.51403426648E+01  0.54608154068E+01  0.10500000000E+00 0. -1.
         13    1    6    6    0    0  0.30865672769E+00  0.22304168933E+01  0.63013430593E+01  0.66923820755E+01  0.10500000000E+00 0.  1.
</event>
<event>
11    0  0.3422856E-009  0.9118800E+02  0.7816531E-02  0.1126479E+00
         25   -1    0    0    0    0  0.00000000000E+00  0.00000000000E+00  0.99999998245E-14  0.12500000000E+03  0.12500000000E+03 0.  0.
    3000001    1    3    3    0    0  0.46150995936E+01 -0.50805502113E+02 -0.32433337866E+02  0.60460066113E+02  0.10000000000E+01 0.  1.
    1000022    2    1    0    0    0  0.32930186847E+01 -0.52337344863E+02 -0.32499371927E+02  0.62499993791E+02  0.99999204444E+01 0.  0.
    3000022    2    3    3    0    0 -0.13220809089E+01 -0.15318427497E+01 -0.66034060327E-01  0.20399276781E+01  0.25000858984E+00 0.  0.
    1000022    2    1    0    0    0 -0.32930186847E+01  0.52337344863E+02  0.32499371927E+02  0.62500006209E+02  0.99999980610E+01 0.  0.
    3000022    2    5    5    0    0 -0.53651806279E+01  0.42099569745E+02  0.29142212981E+02  0.51482909919E+02  0.25000086714E+00 0.  0.
        -13    1    4    4    0    0 -0.44742505368E+00 -0.50269484919E+00  0.30525618547E-01  0.68179769980E+00  0.10500000000E+00 0. -1.
         13    1    4    4    0    0 -0.87465585525E+00 -0.10291479005E+01 -0.96559678874E-01  0.13581299783E+01  0.10500000000E+00 0.  1.
    3000001    1    5    5    0    0  0.20721619432E+01  0.10237775118E+02  0.33571589452E+01  0.11017096290E+02  0.10000000000E+01 0. -1.
        -13    1    6    6    0    0 -0.27661821484E+01  0.21693940512E+02  0.14934996120E+02  0.26482899251E+02  0.10500000000E+00 0.  1.
         13    1    6    6    0    0 -0.25989984795E+01  0.20405629233E+02  0.14207216861E+02  0.25000010668E+02  0.10500000000E+00 0. -1.
</event>
<event>
11    0  0.3422856E-009  0.9118800E+02  0.7816531E-02  0.1126479E+00
         25   -1    0    0    0    0  0.00000000000E+00  0.00000000000E+00  0.99999998245E-14  0.12500000000E+03  0.12500000000E+03 0.  0.
    3000001    1    3    3    0    0  0.33452892979E+02  0.31566661192E+02  0.23833455299E+02  0.51812968830E+02  0.10000000000E+01 0. -1.
    1000022    2    1    0    0    0  0.38978954325E+02  0.40596309624E+02  0.25275091546E+02  0.62500003997E+02  0.10000050581E+02 0.  0.
    3000022    2    3    3    0    0  0.55260613460E+01  0.90296484313E+01  0.14416362479E+01  0.10687035167E+02  0.25000160351E+00 0.  0.
    1000022    2    1    0    0    0 -0.38978954325E+02 -0.40596309624E+02 -0.25275091546E+02  0.62499996003E+02  0.10000000618E+02 0.  0.
    3000022    2    5    5    0    0 -0.82814146720E+01 -0.12186786675E+02 -0.27753499392E+01  0.14995487719E+02  0.24997242669E+00 0.  0.
        -13    1    4    4    0    0  0.20488984608E+01  0.34634299281E+01  0.55625863328E+00  0.40637151028E+01  0.10500000000E+00 0. -1.
         13    1    4    4    0    0  0.34771628853E+01  0.55662185032E+01  0.88537761466E+00  0.66233200645E+01  0.10500000000E+00 0.  1.
    3000001    1    5    5    0    0 -0.30697539653E+02 -0.28409522949E+02 -0.22499741607E+02  0.47504508284E+02  0.10000000000E+01 0.  1.
        -13    1    6    6    0    0 -0.37679466143E+01 -0.56390420737E+01 -0.13193524744E+01  0.69099879269E+01  0.10500000000E+00 0.  1.
         13    1    6    6    0    0 -0.45134680577E+01 -0.65477446011E+01 -0.14559974648E+01  0.80854997921E+01  0.10500000000E+00 0. -1.
</event>
<event>
11    0  0.3422856E-009  0.9118800E+02  0.7816531E-02  0.1126479E+00
         25   -1    0    0    0    0  0.00000000000E+00  0.00000000000E+00  0.99999998245E-14  0.12500000000E+03  0.12500000000E+03 0.  0.
    3000001    1    3    3    0    0 -0.12795833088E+02 -0.11360257181E+02  0.25902607425E+02  0.31060165148E+02  0.10000000000E+01 0. -1.
    1000022    2    1    0    0    0 -0.18845954387E+02 -0.16986542528E+02  0.56236442437E+02  0.62499998250E+02  0.99999849759E+01 0.  0.
    3000022    2    3    3    0    0 -0.60501212986E+01 -0.56262853473E+01  0.30333835012E+02  0.31439833102E+02  0.25000880619E+00 0.  0.
    1000022    2    1    0    0    0  0.18845954387E+02  0.16986542528E+02 -0.56236442437E+02  0.62500001750E+02  0.10000006849E+02 0.  0.
    3000022    2    5    5    0    0  0.46288897013E+01  0.17632339418E+01 -0.44150809578E+01  0.66401095362E+01  0.25000197807E+00 0.  0.
        -13    1    4    4    0    0 -0.24179767997E+01 -0.22265740444E+01  0.12301981928E+02  0.12733971421E+02  0.10500000000E+00 0. -1.
         13    1    4    4    0    0 -0.36321444989E+01 -0.33997113029E+01  0.18031853084E+02  0.18705861681E+02  0.10500000000E+00 0.  1.
    3000001    1    5    5    0    0  0.14217064685E+02  0.15223308586E+02 -0.51821361479E+02  0.55859892214E+02  0.10000000000E+01 0. -1.
        -13    1    6    6    0    0  0.31723520209E+01  0.11800831551E+01 -0.30716542632E+01  0.45719250333E+01  0.10500000000E+00 0. -1.
         13    1    6    6    0    0  0.14565376804E+01  0.58315078663E+00 -0.13434266946E+01  0.20681845029E+01  0.10500000000E+00 0.  1.
</event>
<event>
11    0  0.3422856E-009  0.9118800E+02  0.7816531E-02  0.1126479E+00
         25   -1    0    0    0    0  0.00000000000E+00  0.00000000000E+00  0.99999998245E-14  0.12500000000E+03  0.12500000000E+03 0.  0.
    3000001    1    3    3    0    0  0.14446080635E+02  0.18817266608E+01  0.18848598917E+02  0.23843234304E+02  0.10000000000E+01 0. -1.
    1000022    2    1    0    0    0  0.40203520344E+02 -0.70011341295E+01  0.46269981482E+02  0.62500001642E+02  0.10000004591E+02 0.  0.
    3000022    2    3    3    0    0  0.25757439709E+02 -0.88828607903E+01  0.27421382565E+02  0.38656767338E+02  0.25004620569E+00 0.  0.
    1000022    2    1    0    0    0 -0.40203520344E+02  0.70011341295E+01 -0.46269981482E+02  0.62499998358E+02  0.99999840614E+01 0.  0.
    3000022    2    5    5    0    0 -0.33634999032E+02  0.51182438318E+01 -0.32285727785E+02  0.46903521205E+02  0.25000616704E+00 0.  0.
        -13    1    4    4    0    0  0.88149785101E+01 -0.30258879406E+01  0.93041815434E+01  0.13169611352E+02  0.10500000000E+00 0. -1.
         13    1    4    4    0    0  0.16942461199E+02 -0.58569728497E+01  0.18117201021E+02  0.25487155987E+02  0.10500000000E+00 0.  1.
    3000001    1    5    5    0    0 -0.65685213125E+01  0.18828902977E+01 -0.13984253697E+02  0.15596477152E+02  0.10000000000E+01 0.  1.
        -13    1    6    6    0    0 -0.13726704075E+02  0.21530157505E+01 -0.13176104659E+02  0.19148854811E+02  0.10500000000E+00 0.  1.
         13    1    6    6    0    0 -0.19908294957E+02  0.29652280813E+01 -0.19109623126E+02  0.27754666395E+02  0.10500000000E+00 0. -1.
</event>
<event>
11    0  0.3422856E-009  0.9118800E+02  0.7816531E-02  0.1126479E+00
         25   -1    0    0    0    0  0.00000000000E+00  0.00000000000E+00  0.99999998245E-14  0.12500000000E+03  0.12500000000E+03 0.  0.
    3000001    1    3    3    0    0 -0.90265557257E+01  0.18788789983E+02 -0.85845866145E+01  0.22565293365E+02  0.10000000000E+01 0.  1.
    1000022    2    1    0    0    0 -0.29820950875E+02  0.52747453683E+02 -0.11604612050E+02  0.62499999637E+02  0.99999976337E+01 0.  0.
    3000022    2    3    3    0    0 -0.20794395149E+02  0.33958663700E+02 -0.30200254350E+01  0.39934706273E+02  0.25000301425E+00 0.  0.
    1000022    2    1    0    0    0  0.29820950875E+02 -0.52747453683E+02  0.11604612050E+02  0.62500000363E+02  0.10000002167E+02 0.  0.
    3000022    2    5    5    0    0  0.19117867142E+01 -0.10413453469E+02  0.62192660137E+00  0.10608687044E+02  0.25001300492E+00 0.  0.
        -13    1    4    4    0    0 -0.11223804006E+02  0.18367863641E+02 -0.16966977451E+01  0.21592637619E+02  0.10500000000E+00 0.  1.
         13    1    4    4    0    0 -0.95705911431E+01  0.15590800059E+02 -0.13233276899E+01  0.18342068653E+02  0.10500000000E+00 0. -1.
    3000001    1    5    5    0    0  0.27909164161E+02 -0.42334000214E+02  0.10982685448E+02  0.51891313319E+02  0.10000000000E+01 0. -1.
        -13    1    6    6    0    0  0.12961101620E+01 -0.69057820072E+01  0.36618381573E+00  0.70366783548E+01  0.10500000000E+00 0. -1.
         13    1    6    6    0    0  0.61567655221E+00 -0.35076714620E+01  0.25574278564E+00  0.35720086891E+01  0.10500000000E+00 0.  1.
</event>
<event>
11    0  0.3422856E-009  0.9118800E+02  0.7816531E-02  0.1126479E+00
         25   -1    0    0    0    0  0.00000000000E+00  0.00000000000E+00  0.99999998245E-14  0.12500000000E+03  0.12500000000E+03 0.  0.
    3000001    1    3    3    0    0 -0.12949542701E+02 -0.31536497483E+02 -0.73690686169E+01  0.34893330336E+02  0.10000000000E+01 0.  1.
    1000022    2    1    0    0    0 -0.14785397657E+02 -0.57877785891E+02 -0.15420892257E+02  0.62499999934E+02  0.99999995140E+01 0.  0.
    3000022    2    3    3    0    0 -0.18358549563E+01 -0.26341288407E+02 -0.80518236404E+01  0.27606669598E+02  0.25000795210E+00 0.  0.
    1000022    2    1    0    0    0  0.14785397657E+02  0.57877785891E+02  0.15420892257E+02  0.62500000066E+02  0.10000000337E+02 0.  0.
    3000022    2    5    5    0    0  0.15046035497E+02  0.47430477313E+02  0.15083718392E+02  0.51996292396E+02  0.25000018790E+00 0.  0.
        -13    1    4    4    0    0 -0.67813188183E+00 -0.92069423376E+01 -0.27700454755E+01  0.96390781195E+01  0.10500000000E+00 0. -1.
         13    1    4    4    0    0 -0.11577230744E+01 -0.17134346070E+02 -0.52817781649E+01  0.17967591478E+02  0.10500000000E+00 0.  1.
    3000001    1    5    5    0    0 -0.26063783975E+00  0.10447308577E+02  0.33717386529E+00  0.10503707670E+02  0.10000000000E+01 0. -1.
        -13    1    6    6    0    0  0.99613279010E+01  0.31220764278E+02  0.99402273009E+01  0.34245924129E+02  0.10500000000E+00 0. -1.
         13    1    6    6    0    0  0.50847075956E+01  0.16209713035E+02  0.51434910912E+01  0.17750368267E+02  0.10500000000E+00 0.  1.
</event>
<event>
11    0  0.3422856E-009  0.9118800E+02  0.7816531E-02  0.1126479E+00
         25   -1    0    0    0    0  0.00000000000E+00  0.00000000000E+00  0.99999998245E-14  0.12500000000E+03  0.12500000000E+03 0.  0.
    3000001    1    3    3    0    0 -0.78714071489E+01  0.23752362861E+02  0.59676106860E+01  0.25743856923E+02  0.10000000000E+01 0. -1.
    1000022    2    1    0    0    0 -0.25026245965E+02  0.56220174330E+02  0.43851111837E+01  0.62500000439E+02  0.99999932971E+01 0.  0.
    3000022    2    3    3    0    0 -0.17154838816E+02  0.32467811469E+02 -0.15824995023E+01  0.36756143515E+02  0.25001010977E+00 0.  0.
    1000022    2    1    0    0    0  0.25026245965E+02 -0.56220174330E+02 -0.43851111837E+01  0.62499999561E+02  0.99999878141E+01 0.  0.
    3000022    2    5    5    0    0  0.84248403508E+01 -0.92311128183E+01 -0.80503966649E+00  0.12526051527E+02  0.24999836232E+00 0.  0.
        -13    1    4    4    0    0 -0.94251639890E+01  0.17710663319E+02 -0.89473457102E+00  0.20082651378E+02  0.10500000000E+00 0. -1.
         13    1    4    4    0    0 -0.77296748275E+01  0.14757148149E+02 -0.68776493133E+00  0.16673492137E+02  0.10500000000E+00 0.  1.
    3000001    1    5    5    0    0  0.16601405614E+02 -0.46989061512E+02 -0.35800715172E+01  0.49973948035E+02  0.10000000000E+01 0. -1.
        -13    1    6    6    0    0  0.46240199577E+01 -0.50389372797E+01 -0.37624776608E+00  0.68501851697E+01  0.10500000000E+00 0.  1.
         13    1    6    6    0    0  0.38008203931E+01 -0.41921755386E+01 -0.42879190042E+00  0.56758663569E+01  0.10500000000E+00 0. -1.
</event>
<event>
11    0  0.3422856E-009  0.9118800E+02  0.7816531E-02  0.1126479E+00
         25   -1    0    0    0    0  0.00000000000E+00  0.00000000000E+00  0.99999998245E-14  0.12500000000E+03  0.12500000000E+03 0.  0.
    3000001    1    3    3    0    0 -0.20999501553E+02  0.13329740220E+02 -0.11053702345E+02  0.27236838571E+02  0.10000000000E+01 0. -1.
    1000022    2    1    0    0    0 -0.52033073539E+02  0.29638364086E+02 -0.14845074067E+02  0.62500003218E+02  0.10000040526E+02 0.  0.
    3000022    2    3    3    0    0 -0.31033571986E+02  0.16308623866E+02 -0.37913717223E+01  0.35263164646E+02  0.24995749914E+00 0.  0.
    1000022    2    1    0    0    0  0.52033073539E+02 -0.29638364086E+02  0.14845074067E+02  0.62499996782E+02  0.10000000305E+02 0.  0.
    3000022    2    5    5    0    0  0.44485544102E+02 -0.22082685009E+02  0.97016874346E+01  0.50604286927E+02  0.25001000078E+00 0.  0.
        -13    1    4    4    0    0 -0.22288076237E+02  0.11753063594E+02 -0.27432207932E+01  0.25346185739E+02  0.10500000000E+00 0.  1.
         13    1    4    4    0    0 -0.87454957486E+01  0.45555602716E+01 -0.10481509290E+01  0.99169789072E+01  0.10500000000E+00 0. -1.
    3000001    1    5    5    0    0  0.75475294367E+01 -0.75556790770E+01  0.51433866327E+01  0.11895709855E+02  0.10000000000E+01 0.  1.
        -13    1    6    6    0    0  0.12788578858E+02 -0.63886133943E+01  0.27702037530E+01  0.14561839999E+02  0.10500000000E+00 0. -1.
         13    1    6    6    0    0  0.31696965244E+02 -0.15694071615E+02  0.69314836816E+01  0.36042446928E+02  0.10500000000E+00 0.  1.
</event>
<event>
11    0  0.3422856E-009  0.9118800E+02  0.7816531E-02  0.1126479E+00
         25   -1    0    0    0    0  0.00000000000E+00  0.00000000000E+00  0.99999998245E-14  0.12500000000E+03  0.12500000000E+03 0.  0.
    3000001    1    3    3    0    0 -0.15440436255E+02 -0.51351201282E-01  0.54739198034E+02  0.56884000475E+02  0.10000000000E+01 0.  1.
    1000022    2    1    0    0    0 -0.17272176849E+02 -0.29921150507E+01  0.59152084862E+02  0.62500000127E+02  0.10000001343E+02 0.  0.
    3000022    2    3    3    0    0 -0.18317405941E+01 -0.29407638494E+01  0.44128868277E+01  0.56159996519E+01  0.25003262657E+00 0.  0.
    1000022    2    1    0    0    0  0.17272176849E+02  0.29921150507E+01 -0.59152084862E+02  0.62499999873E+02  0.99999997505E+01 0.  0.
    3000022    2    5    5    0    0  0.32124630070E+01  0.38856605287E+01 -0.25659605290E+02  0.26151407538E+02  0.24999252889E+00 0.  0.
        -13    1    4    4    0    0 -0.64888274974E+00 -0.94370967296E+00  0.14791909131E+01  0.18736775409E+01  0.10500000000E+00 0.  1.
         13    1    4    4    0    0 -0.11828578444E+01 -0.19970541764E+01  0.29336959146E+01  0.37423221111E+01  0.10500000000E+00 0. -1.
    3000001    1    5    5    0    0  0.14059713842E+02 -0.89354547803E+00 -0.33492479571E+02  0.36348592334E+02  0.10000000000E+01 0.  1.
        -13    1    6    6    0    0  0.16047966701E+01  0.18368247279E+01 -0.12343187807E+02  0.12582313288E+02  0.10500000000E+00 0.  1.
         13    1    6    6    0    0  0.16076663369E+01  0.20488358008E+01 -0.13316417483E+02  0.13569094251E+02  0.10500000000E+00 0. -1.
</event>
<event>
11    0  0.3422856E-009  0.9118800E+02  0.7816531E-02  0.1126479E+00
         25   -1    0    0    0    0  0.00000000000E+00  0.00000000000E+00  0.99999998245E-14  0.12500000000E+03  0.12500000000E+03 0.  0.
    3000001    1    3    3    0    0 -0.13966936564E+02 -0.59236974076E+01  0.12805003699E+02  0.19877968400E+02  0.10000000000E+01 0.  1.
    1000022    2    1    0    0    0 -0.52305616292E+02 -0.14679186817E+02  0.29238568866E+02  0.62499999346E+02  0.99999993828E+01 0.  0.
    3000022    2    3    3    0    0 -0.38338679727E+02 -0.87554894094E+01  0.16433565167E+02  0.42622030946E+02  0.24999969584E+00 0.  0.
    1000022    2    1    0    0    0  0.52305616292E+02  0.14679186817E+02 -0.29238568866E+02  0.62500000654E+02  0.10000007559E+02 0.  0.
    3000022    2    5    5    0    0  0.25158676738E+02  0.11916525286E+02 -0.16585834966E+02  0.32405477880E+02  0.24997001724E+00 0.  0.
        -13    1    4    4    0    0 -0.20070106515E+02 -0.46515786568E+01  0.86226388890E+01  0.22333993954E+02  0.10500000000E+00 0. -1.
         13    1    4    4    0    0 -0.18268573213E+02 -0.41039107526E+01  0.78109262777E+01  0.20288036992E+02  0.10500000000E+00 0.  1.
    3000001    1    5    5    0    0  0.27146939554E+02  0.27626615312E+01 -0.12652733900E+02  0.30094522774E+02  0.10000000000E+01 0. -1.
        -13    1    6    6    0    0  0.74696521405E+01  0.35878180916E+01 -0.49417225288E+01  0.96488231568E+01  0.10500000000E+00 0. -1.
         13    1    6    6    0    0  0.17689024598E+02  0.83287071941E+01 -0.11644112437E+02  0.22756654723E+02  0.10500000000E+00 0.  1.
</event>
<event>
11    0  0.3422856E-009  0.9118800E+02  0.7816531E-02  0.1126479E+00
         25   -1    0    0    0    0  0.00000000000E+00  0.00000000000E+00  0.99999998245E-14  0.12500000000E+03  0.12500000000E+03 0.  0.
    3000001    1    3    3    0    0 -0.15960726652E+02 -0.23918724633E+01 -0.43811841776E+02  0.46700570970E+02  0.10000000000E+01 0.  1.
    1000022    2    1    0    0    0 -0.23917638933E+02 -0.78313193749E+01 -0.56328207738E+02  0.62499999836E+02  0.99999988601E+01 0.  0.
    3000022    2    3    3    0    0 -0.79569122806E+01 -0.54394469117E+01 -0.12516365963E+02  0.15799428866E+02  0.24999966147E+00 0.  0.
    1000022    2    1    0    0    0  0.23917638933E+02  0.78313193749E+01  0.56328207738E+02  0.62500000164E+02  0.10000000914E+02 0.  0.
    3000022    2    5    5    0    0  0.16360212190E+02  0.34233441746E+00  0.32652448535E+02  0.36524219743E+02  0.24999345567E+00 0.  0.
        -13    1    4    4    0    0 -0.32831773790E+01 -0.22656036858E+01 -0.52821661574E+01  0.66200089182E+01  0.10500000000E+00 0.  1.
         13    1    4    4    0    0 -0.46737349017E+01 -0.31738432258E+01 -0.72341998051E+01  0.91794199475E+01  0.10500000000E+00 0. -1.
    3000001    1    5    5    0    0  0.75574267428E+01  0.74889849575E+01  0.23675759203E+02  0.25975780422E+02  0.10000000000E+01 0.  1.
        -13    1    6    6    0    0  0.92018960148E+01  0.24163333673E+00  0.18465598164E+02  0.20633046733E+02  0.10500000000E+00 0. -1.
         13    1    6    6    0    0  0.71583161751E+01  0.10070108073E+00  0.14186850371E+02  0.15891173010E+02  0.10500000000E+00 0.  1.
</event>
<event>
11    0  0.3422856E-009  0.9118800E+02  0.7816531E-02  0.1126479E+00
         25   -1    0    0    0    0  0.00000000000E+00  0.00000000000E+00  0.99999998245E-14  0.12500000000E+03  0.12500000000E+03 0.  0.
    3000001    1    3    3    0    0  0.22058849218E+02 -0.12555529578E+02 -0.22704529474E+02  0.34069485033E+02  0.10000000000E+01 0.  1.
    1000022    2    1    0    0    0  0.40877621120E+02 -0.29620187158E+02 -0.35467091639E+02  0.62500000514E+02  0.10000003958E+02 0.  0.
    3000022    2    3    3    0    0  0.18818771903E+02 -0.17064657581E+02 -0.12762562165E+02  0.28430515481E+02  0.25000643863E+00 0.  0.
    1000022    2    1    0    0    0 -0.40877621120E+02  0.29620187158E+02  0.35467091639E+02  0.62499999486E+02  0.99999975341E+01 0.  0.
    3000022    2    5    5    0    0 -0.23483867131E+02  0.14689667671E+02  0.13826362472E+02  0.30959798965E+02  0.25000213178E+00 0.  0.
        -13    1    4    4    0    0  0.87706934992E+01 -0.80238143184E+01 -0.59245615396E+01  0.13282248120E+02  0.10500000000E+00 0. -1.
         13    1    4    4    0    0  0.10048078403E+02 -0.90408432622E+01 -0.68380006249E+01  0.15148267361E+02  0.10500000000E+00 0.  1.
    3000001    1    5    5    0    0 -0.17393753990E+02  0.14930519487E+02  0.21640729167E+02  0.31540200521E+02  0.10000000000E+01 0. -1.
        -13    1    6    6    0    0 -0.68098358208E+01  0.42345554578E+01  0.40444073544E+01  0.89818472309E+01  0.10500000000E+00 0. -1.
         13    1    6    6    0    0 -0.16674031310E+02  0.10455112214E+02  0.97819551174E+01  0.21977951734E+02  0.10500000000E+00 0.  1.
</event>
<event>
11    0  0.3422856E-009  0.9118800E+02  0.7816531E-02  0.1126479E+00
         25   -1    0    0    0    0  0.00000000000E+00  0.00000000000E+00  0.99999998245E-14  0.12500000000E+03  0.12500000000E+03 0.  0.
    3000001    1    3    3    0    0 -0.74906452313E+00 -0.31919194352E+01 -0.88991717711E+01  0.95364933572E+01  0.10000000000E+01 0.  1.
    1000022    2    1    0    0    0 -0.20314939379E+02 -0.33727106467E+02 -0.47497741554E+02  0.62500001439E+02  0.10000012721E+02 0.  0.
    3000022    2    3    3    0    0 -0.19565874856E+02 -0.30535187032E+02 -0.38598569783E+02  0.52963508081E+02  0.24998600931E+00 0.  0.
    1000022    2    1    0    0    0  0.20314939379E+02  0.33727106467E+02  0.47497741554E+02  0.62499998561E+02  0.99999947390E+01 0.  0.
    3000022    2    5    5    0    0  0.17384662727E+02  0.33029690157E+02  0.42340063894E+02  0.56444046975E+02  0.24999680058E+00 0.  0.
        -13    1    4    4    0    0 -0.12417579385E+02 -0.19275458491E+02 -0.24375518265E+02  0.33465153421E+02  0.10500000000E+00 0. -1.
         13    1    4    4    0    0 -0.71482954716E+01 -0.11259728541E+02 -0.14223051518E+02  0.19498354661E+02  0.10500000000E+00 0.  1.
    3000001    1    5    5    0    0  0.29302766522E+01  0.69741631076E+00  0.51576776605E+01  0.60559515865E+01  0.10000000000E+01 0. -1.
        -13    1    6    6    0    0  0.58992350358E+01  0.11324378854E+02  0.14468551994E+02  0.19297475282E+02  0.10500000000E+00 0. -1.
         13    1    6    6    0    0  0.11485427691E+02  0.21705311302E+02  0.27871511899E+02  0.37146571693E+02  0.10500000000E+00 0.  1.
</event>
<event>
11    0  0.3422856E-009  0.9118800E+02  0.7816531E-02  0.1126479E+00
         25   -1    0    0    0    0  0.00000000000E+00  0.00000000000E+00  0.99999998245E-14  0.12500000000E+03  0.12500000000E+03 0.  0.
    3000001    1    3    3    0    0 -0.95000927473E+00 -0.15512637700E+01  0.30397606970E+01  0.36809077686E+01  0.10000000000E+01 0. -1.
    1000022    2    1    0    0    0  0.19846991871E+02 -0.21461882735E+02  0.54329867625E+02  0.62499999665E+02  0.99999972591E+01 0.  0.
    3000022    2    3    3    0    0  0.20797001146E+02 -0.19910618965E+02  0.51290106928E+02  0.58819091896E+02  0.24999732651E+00 0.  0.
    1000022    2    1    0    0    0 -0.19846991871E+02  0.21461882735E+02 -0.54329867625E+02  0.62500000335E+02  0.10000001445E+02 0.  0.
    3000022    2    5    5    0    0 -0.15329653780E+02  0.18978888275E+02 -0.50216885331E+02  0.55830050690E+02  0.25000505563E+00 0.  0.
        -13    1    4    4    0    0  0.11105655983E+02 -0.10715641538E+02  0.27430383635E+02  0.31473759543E+02  0.10500000000E+00 0. -1.
         13    1    4    4    0    0  0.96913451631E+01 -0.91949774265E+01  0.23859723293E+02  0.27345332354E+02  0.10500000000E+00 0.  1.
    3000001    1    5    5    0    0 -0.45173380915E+01  0.24829944593E+01 -0.41129822937E+01  0.66699496449E+01  0.10000000000E+01 0. -1.
        -13    1    6    6    0    0 -0.11768637938E+02  0.14584477120E+02 -0.38561594963E+02  0.42874414782E+02  0.10500000000E+00 0. -1.
         13    1    6    6    0    0 -0.35610158413E+01  0.43944111551E+01 -0.11655290368E+02  0.12955635908E+02  0.10500000000E+00 0.  1.
</event>
<event>
11    0  0.3422856E-009  0.9118800E+02  0.7816531E-02  0.1126479E+00
         25   -1    0    0    0    0  0.00000000000E+00  0.00000000000E+00  0.99999998245E-14  0.12500000000E+03  0.12500000000E+03 0.  0.
    3000001    1    3    3    0    0 -0.96672055224E+00 -0.42003335139E+02 -0.26884279608E+02  0.49889670288E+02  0.10000000000E+01 0.  1.
    1000022    2    1    0    0    0 -0.60016700349E+01 -0.52182593985E+02 -0.32360576445E+02  0.62499997643E+02  0.99999819683E+01 0.  0.
    3000022    2    3    3    0    0 -0.50349494826E+01 -0.10179258846E+02 -0.54762968372E+01  0.12610327355E+02  0.25000402682E+00 0.  0.
    1000022    2    1    0    0    0  0.60016700349E+01  0.52182593985E+02  0.32360576445E+02  0.62500002357E+02  0.10000011431E+02 0.  0.
    3000022    2    5    5    0    0 -0.22515660340E+01  0.14088069213E+02  0.11181073780E+02  0.18127938439E+02  0.24999485961E+00 0.  0.
        -13    1    4    4    0    0 -0.23906287758E+01 -0.49134052254E+01 -0.25710079627E+01  0.60396824252E+01  0.10500000000E+00 0. -1.
         13    1    4    4    0    0 -0.26443207068E+01 -0.52658536206E+01 -0.29052888745E+01  0.65706449302E+01  0.10500000000E+00 0.  1.
    3000001    1    5    5    0    0  0.82532360689E+01  0.38094524772E+02  0.21179502665E+02  0.44372063918E+02  0.10000000000E+01 0.  1.
        -13    1    6    6    0    0 -0.75860157044E+00  0.44504781674E+01  0.35610069023E+01  0.57510022970E+01  0.10500000000E+00 0. -1.
         13    1    6    6    0    0 -0.14929644636E+01  0.96375910454E+01  0.76200668778E+01  0.12376936142E+02  0.10500000000E+00 0.  1.
</event>
<event>
11    0  0.3422856E-009  0.9118800E+02  0.7816531E-02  0.1126479E+00
         25   -1    0    0    0    0  0.00000000000E+00  0.00000000000E+00  0.99999998245E-14  0.12500000000E+03  0.12500000000E+03 0.  0.
    3000001    1    3    3    0    0 -0.22808989132E+01 -0.26007942529E+01 -0.52118769526E+00  0.36384429654E+01  0.10000000000E+01 0. -1.
    1000022    2    1    0    0    0 -0.51927060304E+02 -0.16715932869E+02 -0.28816809408E+02  0.62500002406E+02  0.99999896411E+01 0.  0.
    3000022    2    3    3    0    0 -0.49646161390E+02 -0.14115138616E+02 -0.28295621713E+02  0.58861559441E+02  0.24998541663E+00 0.  0.
    1000022    2    1    0    0    0  0.51927060304E+02  0.16715932869E+02  0.28816809408E+02  0.62499997594E+02  0.99999595671E+01 0.  0.
    3000022    2    5    5    0    0  0.39132684056E+02  0.14460484235E+02  0.26033406828E+02  0.49175942580E+02  0.24998355654E+00 0.  0.
        -13    1    4    4    0    0 -0.14550333040E+02 -0.41635104947E+01 -0.82563935984E+01  0.17240245690E+02  0.10500000000E+00 0. -1.
         13    1    4    4    0    0 -0.35095828350E+02 -0.99516281215E+01 -0.20039228114E+02  0.41621313750E+02  0.10500000000E+00 0.  1.
    3000001    1    5    5    0    0  0.12794376247E+02  0.22554486345E+01  0.27834025795E+01  0.13324055014E+02  0.10000000000E+01 0.  1.
        -13    1    6    6    0    0  0.10717490177E+02  0.39242059553E+01  0.71406872810E+01  0.13463447847E+02  0.10500000000E+00 0. -1.
         13    1    6    6    0    0  0.28415193879E+02  0.10536278279E+02  0.18892719547E+02  0.35712494733E+02  0.10500000000E+00 0.  1.
</event>
<event>
11    0  0.3422856E-009  0.9118800E+02  0.7816531E-02  0.1126479E+00
         25   -1    0    0    0    0  0.00000000000E+00  0.00000000000E+00  0.99999998245E-14  0.12500000000E+03  0.12500000000E+03 0.  0.
    3000001    1    3    3    0    0 -0.37459762519E+01 -0.29351406441E+01 -0.11132430491E+02  0.12148184939E+02  0.10000000000E+01 0. -1.
    1000022    2    1    0    0    0 -0.76261392284E+01  0.44376907995E+00 -0.61220054509E+02  0.62499999965E+02  0.99999995548E+01 0.  0.
    3000022    2    3    3    0    0 -0.38801629764E+01  0.33789097240E+01 -0.50087624017E+02  0.50351815026E+02  0.25000208906E+00 0.  0.
    1000022    2    1    0    0    0  0.76261392284E+01 -0.44376907995E+00  0.61220054509E+02  0.62500000035E+02  0.99999999873E+01 0.  0.
    3000022    2    5    5    0    0  0.97875690981E+01  0.19723726118E+00  0.53707165025E+02  0.54592650504E+02  0.25000519036E+00 0.  0.
        -13    1    4    4    0    0 -0.18469191360E+01  0.16843810427E+01 -0.23976963402E+02  0.24107136885E+02  0.10500000000E+00 0. -1.
         13    1    4    4    0    0 -0.20332438405E+01  0.16945286813E+01 -0.26110660615E+02  0.26244678141E+02  0.10500000000E+00 0.  1.
    3000001    1    5    5    0    0 -0.21614298697E+01 -0.64100634112E+00  0.75128894833E+01  0.79073495306E+01  0.10000000000E+01 0. -1.
        -13    1    6    6    0    0  0.58724748658E+01  0.58113845820E-01  0.32109214292E+02  0.32642028211E+02  0.10500000000E+00 0.  1.
         13    1    6    6    0    0  0.39150942322E+01  0.13912341536E+00  0.21597950733E+02  0.21950622293E+02  0.10500000000E+00 0. -1.
</event>
<event>
11    0  0.3422856E-009  0.9118800E+02  0.7816531E-02  0.1126479E+00
         25   -1    0    0    0    0  0.00000000000E+00  0.00000000000E+00  0.99999998245E-14  0.12500000000E+03  0.12500000000E+03 0.  0.
    3000001    1    3    3    0    0  0.69016882036E+00 -0.14374591519E+01 -0.81031829417E+00  0.20492041265E+01  0.10000000000E+01 0.  1.
    1000022    2    1    0    0    0 -0.14735501428E+02 -0.59871911206E+02 -0.21140331288E+01  0.62499999498E+02  0.10000002371E+02 0.  0.
    3000022    2    3    3    0    0 -0.15425670249E+02 -0.58434452054E+02 -0.13037148346E+01  0.60450795372E+02  0.24999846903E+00 0.  0.
    1000022    2    1    0    0    0  0.14735501428E+02  0.59871911206E+02  0.21140331288E+01  0.62500000502E+02  0.10000008643E+02 0.  0.
    3000022    2    5    5    0    0 -0.14152128184E+01  0.51216940648E+01 -0.54049682347E+00  0.53468870525E+01  0.24997384167E+00 0.  0.
        -13    1    4    4    0    0 -0.58872586616E+01 -0.22256595968E+02 -0.55648598897E+00  0.23029037763E+02  0.10500000000E+00 0. -1.
         13    1    4    4    0    0 -0.95384115872E+01 -0.36177856086E+02 -0.74722884567E+00  0.37421757609E+02  0.10500000000E+00 0.  1.
    3000001    1    5    5    0    0  0.16150714247E+02  0.54750217141E+02  0.26545299523E+01  0.57153113449E+02  0.10000000000E+01 0. -1.
        -13    1    6    6    0    0 -0.10322535219E+01  0.38212245881E+01 -0.38381772580E+00  0.39781460170E+01  0.10500000000E+00 0.  1.
         13    1    6    6    0    0 -0.38295929652E+00  0.13004694767E+01 -0.15667909767E+00  0.13687410355E+01  0.10500000000E+00 0. -1.
</event>
<event>
11    0  0.3422856E-009  0.9118800E+02  0.7816531E-02  0.1126479E+00
         25   -1    0    0    0    0  0.00000000000E+00  0.00000000000E+00  0.99999998245E-14  0.12500000000E+03  0.12500000000E+03 0.  0.
    3000001    1    3    3    0    0 -0.21823868822E+02 -0.23619526496E+02 -0.90450423337E+01  0.33421191976E+02  0.10000000000E+01 0.  1.
    1000022    2    1    0    0    0 -0.46733246155E+02 -0.37289745040E+02 -0.15222638057E+02  0.62500001225E+02  0.10000003120E+02 0.  0.
    3000022    2    3    3    0    0 -0.24909377334E+02 -0.13670218543E+02 -0.61775957235E+01  0.29078809250E+02  0.25000856228E+00 0.  0.
    1000022    2    1    0    0    0  0.46733246155E+02  0.37289745040E+02  0.15222638057E+02  0.62499998775E+02  0.99999878051E+01 0.  0.
    3000022    2    5    5    0    0  0.13102809405E+02  0.16469887969E+02  0.49389335471E+01  0.21619351729E+02  0.24996112779E+00 0.  0.
        -13    1    4    4    0    0 -0.96358540671E+01 -0.53432066825E+01 -0.23561203436E+01  0.11267735768E+02  0.10500000000E+00 0. -1.
         13    1    4    4    0    0 -0.15273523266E+02 -0.83270118608E+01 -0.38214753799E+01  0.17811073482E+02  0.10500000000E+00 0.  1.
    3000001    1    5    5    0    0  0.33630436751E+02  0.20819857070E+02  0.10283704510E+02  0.40880647046E+02  0.10000000000E+01 0.  1.
        -13    1    6    6    0    0  0.89565909166E+01  0.11268977389E+02  0.34286171317E+01  0.14797865139E+02  0.10500000000E+00 0. -1.
         13    1    6    6    0    0  0.41462184881E+01  0.52009105801E+01  0.15103164155E+01  0.68214865893E+01  0.10500000000E+00 0.  1.
</event>
<event>
11    0  0.3422856E-009  0.9118800E+02  0.7816531E-02  0.1126479E+00
         25   -1    0    0    0    0  0.00000000000E+00  0.00000000000E+00  0.99999998245E-14  0.12500000000E+03  0.12500000000E+03 0.  0.
    3000001    1    3    3    0    0 -0.30277918896E+02 -0.95842675667E+00  0.13060620741E+02  0.33003799306E+02  0.10000000000E+01 0. -1.
    1000022    2    1    0    0    0 -0.55897843194E+02 -0.11000583930E+02  0.23678435410E+02  0.62500001234E+02  0.10000006513E+02 0.  0.
    3000022    2    3    3    0    0 -0.25619924299E+02 -0.10042157174E+02  0.10617814669E+02  0.29496201929E+02  0.24999616803E+00 0.  0.
    1000022    2    1    0    0    0  0.55897843194E+02  0.11000583930E+02 -0.23678435410E+02  0.62499998766E+02  0.99999910824E+01 0.  0.
    3000022    2    5    5    0    0  0.47201117988E+02  0.12784885150E+02 -0.20298510456E+02  0.52948001443E+02  0.25000491306E+00 0.  0.
        -13    1    4    4    0    0 -0.10538832031E+02 -0.41162673937E+01  0.44328118906E+01  0.12152015639E+02  0.10500000000E+00 0. -1.
         13    1    4    4    0    0 -0.15081092268E+02 -0.59258897799E+01  0.61850027789E+01  0.17344186290E+02  0.10500000000E+00 0.  1.
    3000001    1    5    5    0    0  0.86967252059E+01 -0.17843012197E+01 -0.33799249542E+01  0.95519973223E+01  0.10000000000E+01 0.  1.
        -13    1    6    6    0    0  0.28308280806E+02  0.76702547258E+01 -0.12105778381E+02  0.31729362820E+02  0.10500000000E+00 0. -1.
         13    1    6    6    0    0  0.18892837183E+02  0.51146304242E+01 -0.81927320748E+01  0.21218638624E+02  0.10500000000E+00 0.  1.
</event>
<event>
11    0  0.3422856E-009  0.9118800E+02  0.7816531E-02  0.1126479E+00
         25   -1    0    0    0    0  0.00000000000E+00  0.00000000000E+00  0.99999998245E-14  0.12500000000E+03  0.12500000000E+03 0.  0.
    3000001    1    3    3    0    0 -0.69808881117E+00 -0.40168154392E+00 -0.35757831676E+01  0.37993290608E+01  0.10000000000E+01 0. -1.
    1000022    2    1    0    0    0  0.20555652706E+02 -0.22047537917E+02 -0.53829555212E+02  0.62499999687E+02  0.10000008008E+02 0.  0.
    3000022    2    3    3    0    0  0.21253741517E+02 -0.21645856373E+02 -0.50253772045E+02  0.58700670626E+02  0.25000127526E+00 0.  0.
    1000022    2    1    0    0    0 -0.20555652706E+02  0.22047537917E+02  0.53829555212E+02  0.62500000313E+02  0.10000011922E+02 0.  0.
    3000022    2    5    5    0    0 -0.94714500619E+01  0.14021639729E+02  0.21366958281E+02  0.27256635129E+02  0.25001084978E+00 0.  0.
        -13    1    4    4    0    0  0.14719993313E+02 -0.14977555962E+02 -0.34878354157E+02  0.40712602464E+02  0.10500000000E+00 0. -1.
         13    1    4    4    0    0  0.65337482037E+01 -0.66683004112E+01 -0.15375417888E+02  0.17988068162E+02  0.10500000000E+00 0.  1.
    3000001    1    5    5    0    0 -0.11084202644E+02  0.80258981882E+01  0.32462596931E+02  0.35243365184E+02  0.10000000000E+01 0.  1.
        -13    1    6    6    0    0 -0.43751339100E+01  0.63632065657E+01  0.97843624393E+01  0.12465029798E+02  0.10500000000E+00 0.  1.
         13    1    6    6    0    0 -0.50963161519E+01  0.76584331631E+01  0.11582595842E+02  0.14791605331E+02  0.10500000000E+00 0. -1.
</event>
<event>
11    0  0.3422856E-009  0.9118800E+02  0.7816531E-02  0.1126479E+00
         25   -1    0    0    0    0  0.00000000000E+00  0.00000000000E+00  0.99999998245E-14  0.12500000000E+03  0.12500000000E+03 0.  0.
    3000001    1    3    3    0    0  0.15125902926E+02  0.21808547915E+02 -0.67221243202E+01  0.27396946123E+02  0.10000000000E+01 0.  1.
    1000022    2    1    0    0    0  0.38672752245E+02  0.47793452917E+02 -0.51433526192E+01  0.62500000615E+02  0.10000004637E+02 0.  0.
    3000022    2    3    3    0    0  0.23546849320E+02  0.25984905002E+02  0.15787717011E+01  0.35103054492E+02  0.25002750111E+00 0.  0.
    1000022    2    1    0    0    0 -0.38672752245E+02 -0.47793452917E+02  0.51433526192E+01  0.62499999385E+02  0.99999969499E+01 0.  0.
    3000022    2    5    5    0    0 -0.26594428852E+02 -0.37410184764E+02  0.59124791096E+00  0.45904222488E+02  0.24999625428E+00 0.  0.
        -13    1    4    4    0    0  0.15382034250E+02  0.16988265996E+02  0.97652268938E+00  0.22938456373E+02  0.10500000000E+00 0. -1.
         13    1    4    4    0    0  0.81648150693E+01  0.89966390056E+01  0.60224901167E+00  0.12164598119E+02  0.10500000000E+00 0.  1.
    3000001    1    5    5    0    0 -0.12078323393E+02 -0.10383268153E+02  0.45521047082E+01  0.16595776897E+02  0.10000000000E+01 0.  1.
        -13    1    6    6    0    0 -0.12758012698E+02 -0.17885161531E+02  0.34047482774E+00  0.21972092279E+02  0.10500000000E+00 0.  1.
         13    1    6    6    0    0 -0.13836416154E+02 -0.19525023232E+02  0.25077308322E+00  0.23932130209E+02  0.10500000000E+00 0. -1.
</event>
<event>
11    0  0.3422856E-009  0.9118800E+02  0.7816531E-02  0.1126479E+00
         25   -1    0    0    0    0  0.00000000000E+00  0.00000000000E+00  0.99999998245E-14  0.12500000000E+03  0.12500000000E+03 0.  0.
    3000001    1    3    3    0    0 -0.74515893266E+01 -0.42353318032E+01  0.16384469795E+02  0.18517966126E+02  0.10000000000E+01 0. -1.
    1000022    2    1    0    0    0 -0.17871027966E+02 -0.27249151106E+02  0.52386640901E+02  0.62500001107E+02  0.10000005843E+02 0.  0.
    3000022    2    3    3    0    0 -0.10419438640E+02 -0.23013819303E+02  0.36002171106E+02  0.43982034981E+02  0.24999246461E+00 0.  0.
    1000022    2    1    0    0    0  0.17871027966E+02  0.27249151106E+02 -0.52386640901E+02  0.62499998893E+02  0.99999920080E+01 0.  0.
    3000022    2    5    5    0    0  0.12450928071E+02  0.24977178338E+02 -0.40268905011E+02  0.48995226913E+02  0.25000379663E+00 0.  0.
        -13    1    4    4    0    0 -0.71338410083E+01 -0.15834129004E+02  0.24814030752E+02  0.30287926242E+02  0.10500000000E+00 0.  1.
         13    1    4    4    0    0 -0.32855976315E+01 -0.71796902992E+01  0.11188140353E+02  0.13694108739E+02  0.10500000000E+00 0. -1.
    3000001    1    5    5    0    0  0.54200998952E+01  0.22719727677E+01 -0.12117735890E+02  0.13504771980E+02  0.10000000000E+01 0.  1.
        -13    1    6    6    0    0  0.55334059388E+01  0.11191899739E+02 -0.18106837837E+02  0.21994222026E+02  0.10500000000E+00 0.  1.
         13    1    6    6    0    0  0.69175221325E+01  0.13785278599E+02 -0.22162067174E+02  0.27001004887E+02  0.10500000000E+00 0. -1.
</event>
<event>
11    0  0.3422856E-009  0.9118800E+02  0.7816531E-02  0.1126479E+00
         25   -1    0    0    0    0  0.00000000000E+00  0.00000000000E+00  0.99999998245E-14  0.12500000000E+03  0.12500000000E+03 0.  0.
    3000001    1    3    3    0    0 -0.14583459496E+02  0.20374410476E+02  0.95585248214E+01  0.26835783757E+02  0.10000000000E+01 0.  1.
    1000022    2    1    0    0    0 -0.42367687450E+02  0.41109563467E+02  0.17922969122E+02  0.62499999965E+02  0.10000001260E+02 0.  0.
    3000022    2    3    3    0    0 -0.27784227953E+02  0.20735152991E+02  0.83644443002E+01  0.35664216208E+02  0.24999342260E+00 0.  0.
    1000022    2    1    0    0    0  0.42367687450E+02 -0.41109563467E+02 -0.17922969122E+02  0.62500000035E+02  0.10000001699E+02 0.  0.
    3000022    2    5    5    0    0  0.10677475806E+02 -0.71574893961E+01 -0.75212184454E+01  0.14895281100E+02  0.25005621824E+00 0.  0.
        -13    1    4    4    0    0 -0.16517987853E+02  0.12398474552E+02  0.49544755307E+01  0.21239678592E+02  0.10500000000E+00 0.  1.
         13    1    4    4    0    0 -0.11266240101E+02  0.83366784398E+01  0.34099687695E+01  0.14424537616E+02  0.10500000000E+00 0. -1.
    3000001    1    5    5    0    0  0.31690211644E+02 -0.33952074071E+02 -0.10401750676E+02  0.47604718935E+02  0.10000000000E+01 0.  1.
        -13    1    6    6    0    0  0.42647838057E+01 -0.28112497189E+01 -0.30454974476E+01  0.59479059840E+01  0.10500000000E+00 0. -1.
         13    1    6    6    0    0  0.64126920001E+01 -0.43462396772E+01 -0.44757209978E+01  0.89473751162E+01  0.10500000000E+00 0.  1.
</event>
<event>
11    0  0.3422856E-009  0.9118800E+02  0.7816531E-02  0.1126479E+00
         25   -1    0    0    0    0  0.00000000000E+00  0.00000000000E+00  0.99999998245E-14  0.12500000000E+03  0.12500000000E+03 0.  0.
    3000001    1    3    3    0    0  0.21653428560E+02  0.39575259656E+02 -0.12546506170E+02  0.46834676921E+02  0.10000000000E+01 0. -1.
    1000022    2    1    0    0    0  0.23927059439E+02  0.53399617001E+02 -0.19550619757E+02  0.62500000325E+02  0.10000001922E+02 0.  0.
    3000022    2    3    3    0    0  0.22736308791E+01  0.13824357345E+02 -0.70041135871E+01  0.15665323404E+02  0.24999363257E+00 0.  0.
    1000022    2    1    0    0    0 -0.23927059439E+02 -0.53399617001E+02  0.19550619757E+02  0.62499999675E+02  0.99999978632E+01 0.  0.
    3000022    2    5    5    0    0 -0.11317330810E+02 -0.15673093562E+02  0.37895337451E+01  0.19701545741E+02  0.25000022493E+00 0.  0.
        -13    1    4    4    0    0  0.12541310688E+01  0.74040674971E+01 -0.38176543943E+01  0.84248780593E+01  0.10500000000E+00 0.  1.
         13    1    4    4    0    0  0.10194998103E+01  0.64202898483E+01 -0.31864591927E+01  0.72404453444E+01  0.10500000000E+00 0. -1.
    3000001    1    5    5    0    0 -0.12609728629E+02 -0.37726523439E+02  0.15761086012E+02  0.42798453934E+02  0.10000000000E+01 0. -1.
        -13    1    6    6    0    0 -0.80385230943E+01 -0.11061882766E+02  0.26951509530E+01  0.13937645695E+02  0.10500000000E+00 0. -1.
         13    1    6    6    0    0 -0.32788077155E+01 -0.46112107966E+01  0.10943827922E+01  0.57639000461E+01  0.10500000000E+00 0.  1.
</event>
<event>
11    0  0.3422856E-009  0.9118800E+02  0.7816531E-02  0.1126479E+00
         25   -1    0    0    0    0  0.00000000000E+00  0.00000000000E+00  0.99999998245E-14  0.12500000000E+03  0.12500000000E+03 0.  0.
    3000001    1    3    3    0    0 -0.83856809666E+00 -0.16237781144E+01 -0.96638006048E+00  0.22964629844E+01  0.10000000000E+01 0. -1.
    1000022    2    1    0    0    0 -0.31588815650E+02 -0.50520699833E+02  0.16001731356E+02  0.62500001013E+02  0.10000016720E+02 0.  0.
    3000022    2    3    3    0    0 -0.30750247553E+02 -0.48896921718E+02  0.16968111417E+02  0.60203538028E+02  0.25001582817E+00 0.  0.
    1000022    2    1    0    0    0  0.31588815650E+02  0.50520699833E+02 -0.16001731356E+02  0.62499998987E+02  0.10000004063E+02 0.  0.
    3000022    2    5    5    0    0  0.32598020638E+01  0.82062304814E+01  0.79692063508E+00  0.88693917189E+01  0.24999751309E+00 0.  0.
        -13    1    4    4    0    0 -0.15631294113E+02 -0.24899137777E+02  0.87026339309E+01  0.30660255707E+02  0.10500000000E+00 0. -1.
         13    1    4    4    0    0 -0.15118953441E+02 -0.23997783941E+02  0.82654774857E+01  0.29543282321E+02  0.10500000000E+00 0.  1.
    3000001    1    5    5    0    0  0.28329013586E+02  0.42314469351E+02 -0.16798651991E+02  0.53630607269E+02  0.10000000000E+01 0.  1.
        -13    1    6    6    0    0  0.11513407174E+01  0.27560167313E+01  0.28391771217E+00  0.30021405593E+01  0.10500000000E+00 0.  1.
         13    1    6    6    0    0  0.21084613464E+01  0.54502137501E+01  0.51300292292E+00  0.58672511596E+01  0.10500000000E+00 0. -1.
</event>
<event>
11    0  0.3422856E-009  0.9118800E+02  0.7816531E-02  0.1126479E+00
         25   -1    0    0    0    0  0.00000000000E+00  0.00000000000E+00  0.99999998245E-14  0.12500000000E+03  0.12500000000E+03 0.  0.
    3000001    1    3    3    0    0  0.18429883176E+02  0.45115988557E+02  0.19766386233E+01  0.48785449855E+02  0.10000000000E+01 0.  1.
    1000022    2    1    0    0    0  0.26440477497E+02  0.55724564140E+02 -0.13871234230E+01  0.62499999870E+02  0.99999986756E+01 0.  0.
    3000022    2    3    3    0    0  0.80105943213E+01  0.10608575583E+02 -0.33637620464E+01  0.13714550015E+02  0.24997944496E+00 0.  0.
    1000022    2    1    0    0    0 -0.26440477497E+02 -0.55724564140E+02  0.13871234230E+01  0.62500000130E+02  0.10000000296E+02 0.  0.
    3000022    2    5    5    0    0 -0.84248202591E+00 -0.98180512945E+01  0.11915818863E+01  0.99290620526E+01  0.24999733410E+00 0.  0.
        -13    1    4    4    0    0  0.32581949674E+01  0.42553319250E+01 -0.14100840886E+01  0.55428373938E+01  0.10500000000E+00 0. -1.
         13    1    4    4    0    0  0.47523993540E+01  0.63532436584E+01 -0.19536779578E+01  0.81717126213E+01  0.10500000000E+00 0.  1.
    3000001    1    5    5    0    0 -0.25597995471E+02 -0.45906512846E+02  0.19554153672E+00  0.52570938077E+02  0.10000000000E+01 0.  1.
        -13    1    6    6    0    0 -0.25871756213E+00 -0.27077504741E+01  0.30101051659E+00  0.27387003739E+01  0.10500000000E+00 0.  1.
         13    1    6    6    0    0 -0.58376446378E+00 -0.71103008204E+01  0.89057136972E+00  0.71903616787E+01  0.10500000000E+00 0. -1.
</event>
<event>
11    0  0.3422856E-009  0.9118800E+02  0.7816531E-02  0.1126479E+00
         25   -1    0    0    0    0  0.00000000000E+00  0.00000000000E+00  0.99999998245E-14  0.12500000000E+03  0.12500000000E+03 0.  0.
    3000001    1    3    3    0    0 -0.48786026713E+01  0.30983418927E+02  0.23801965127E+02  0.39386629157E+02  0.10000000000E+01 0.  1.
    1000022    2    1    0    0    0 -0.16933683300E+00  0.49210139858E+02  0.37209986348E+02  0.62500003307E+02  0.10000039476E+02 0.  0.
    3000022    2    3    3    0    0  0.47092658383E+01  0.18226720931E+02  0.13408021221E+02  0.23113374150E+02  0.24998179773E+00 0.  0.
    1000022    2    1    0    0    0  0.16933683300E+00 -0.49210139858E+02 -0.37209986348E+02  0.62499996693E+02  0.99999981432E+01 0.  0.
    3000022    2    5    5    0    0  0.13596203796E+01 -0.48306136191E+02 -0.36522888568E+02  0.60574873084E+02  0.24999708470E+00 0.  0.
        -13    1    4    4    0    0  0.25524010388E+01  0.97580287807E+01  0.72574306852E+01  0.12426391347E+02  0.10500000000E+00 0.  1.
         13    1    4    4    0    0  0.21568647995E+01  0.84686921504E+01  0.61505905357E+01  0.10686982803E+02  0.10500000000E+00 0. -1.
    3000001    1    5    5    0    0 -0.11902835466E+01 -0.90400366616E+00 -0.68709778070E+00  0.19251236090E+01  0.10000000000E+01 0.  1.
        -13    1    6    6    0    0  0.55109956743E+00 -0.17916899878E+02 -0.13501201269E+02  0.22441311741E+02  0.10500000000E+00 0. -1.
         13    1    6    6    0    0  0.80852081217E+00 -0.30389236313E+02 -0.23021687299E+02  0.38133561343E+02  0.10500000000E+00 0.  1.
</event>
<event>
11    0  0.3422856E-009  0.9118800E+02  0.7816531E-02  0.1126479E+00
         25   -1    0    0    0    0  0.00000000000E+00  0.00000000000E+00  0.99999998245E-14  0.12500000000E+03  0.12500000000E+03 0.  0.
    3000001    1    3    3    0    0  0.31822764444E+02  0.15026646406E+02  0.19086339432E+02  0.40047182073E+02  0.10000000000E+01 0. -1.
    1000022    2    1    0    0    0  0.44261825581E+02  0.26983289573E+02  0.33452097119E+02  0.62500000706E+02  0.10000008327E+02 0.  0.
    3000022    2    3    3    0    0  0.12439061138E+02  0.11956643167E+02  0.14365757687E+02  0.22452818633E+02  0.25002564367E+00 0.  0.
    1000022    2    1    0    0    0 -0.44261825581E+02 -0.26983289573E+02 -0.33452097119E+02  0.62499999294E+02  0.99999995087E+01 0.  0.
    3000022    2    5    5    0    0 -0.15505396627E+02 -0.14983455780E+02 -0.15083053587E+02  0.26315057985E+02  0.24999918929E+00 0.  0.
        -13    1    4    4    0    0  0.65709040084E+01  0.63818271976E+01  0.76888744989E+01  0.11959695394E+02  0.10500000000E+00 0.  1.
         13    1    4    4    0    0  0.58681571292E+01  0.55748159693E+01  0.66768831885E+01  0.10493123238E+02  0.10500000000E+00 0. -1.
    3000001    1    5    5    0    0 -0.28756428954E+02 -0.11999833793E+02 -0.18369043532E+02  0.36184941309E+02  0.10000000000E+01 0.  1.
        -13    1    6    6    0    0 -0.74822580562E+01 -0.73230942195E+01 -0.73089597134E+01  0.12768861017E+02  0.10500000000E+00 0. -1.
         13    1    6    6    0    0 -0.80231385708E+01 -0.76603615601E+01 -0.77740938734E+01  0.13546196969E+02  0.10500000000E+00 0.  1.
</event>
<event>
11    0  0.3422856E-009  0.9118800E+02  0.7816531E-02  0.1126479E+00
         25   -1    0    0    0    0  0.00000000000E+00  0.00000000000E+00  0.99999998245E-14  0.12500000000E+03  0.12500000000E+03 0.  0.
    3000001    1    3    3    0    0  0.32611737102E+01  0.18245914079E+01  0.30873262882E+02  0.31114670957E+02  0.10000000000E+01 0. -1.
    1000022    2    1    0    0    0 -0.33667697769E+01  0.39339091827E+01  0.61477143991E+02  0.62500000139E+02  0.10000000191E+02 0.  0.
    3000022    2    3    3    0    0 -0.66279434870E+01  0.21093177748E+01  0.30603881109E+02  0.31385329182E+02  0.24998511948E+00 0.  0.
    1000022    2    1    0    0    0  0.33667697769E+01 -0.39339091827E+01 -0.61477143991E+02  0.62499999861E+02  0.99999984575E+01 0.  0.
    3000022    2    5    5    0    0 -0.28944581281E+01 -0.93459915405E+00 -0.79571018339E+01  0.85222845701E+01  0.25000253126E+00 0.  0.
        -13    1    4    4    0    0 -0.35171081617E+01  0.11739052587E+01  0.16503996581E+02  0.16915703695E+02  0.10500000000E+00 0. -1.
         13    1    4    4    0    0 -0.31108353254E+01  0.93541251601E+00  0.14099884528E+02  0.14469625486E+02  0.10500000000E+00 0.  1.
    3000001    1    5    5    0    0  0.62612279049E+01 -0.29993100286E+01 -0.53520042157E+02  0.53977715291E+02  0.10000000000E+01 0. -1.
        -13    1    6    6    0    0 -0.82627010008E+00 -0.26448076341E+00 -0.23973035872E+01  0.25516194547E+01  0.10500000000E+00 0.  1.
         13    1    6    6    0    0 -0.20681880280E+01 -0.67011839063E+00 -0.55597982467E+01  0.59706651154E+01  0.10500000000E+00 0. -1.
</event>
<event>
11    0  0.3422856E-009  0.9118800E+02  0.7816531E-02  0.1126479E+00
         25   -1    0    0    0    0  0.00000000000E+00  0.00000000000E+00  0.99999998245E-14  0.12500000000E+03  0.12500000000E+03 0.  0.
    3000001    1    3    3    0    0  0.18807196895E+01 -0.18054181916E+01  0.19980455473E+02  0.20174618764E+02  0.10000000000E+01 0.  1.
    1000022    2    1    0    0    0  0.20289096935E+01  0.81211977439E+01  0.61124298245E+02  0.62500000800E+02  0.99999968376E+01 0.  0.
    3000022    2    3    3    0    0  0.14819000401E+00  0.99266159355E+01  0.41143842772E+02  0.42325382036E+02  0.25000438467E+00 0.  0.
    1000022    2    1    0    0    0 -0.20289096935E+01 -0.81211977439E+01 -0.61124298245E+02  0.62499999200E+02  0.99999868353E+01 0.  0.
    3000022    2    5    5    0    0 -0.51045438927E+01 -0.10894764626E+01 -0.28005015787E+02  0.28488361480E+02  0.25000646053E+00 0.  0.
        -13    1    4    4    0    0  0.86868126693E-01  0.49405139127E+01  0.20761932118E+02  0.21342096290E+02  0.10500000000E+00 0.  1.
         13    1    4    4    0    0  0.61321877319E-01  0.49861020228E+01  0.20381910654E+02  0.20983285746E+02  0.10500000000E+00 0. -1.
    3000001    1    5    5    0    0  0.30756341992E+01 -0.70317212813E+01 -0.33119282458E+02  0.34011637720E+02  0.10000000000E+01 0.  1.
        -13    1    6    6    0    0 -0.14111285632E+01 -0.28883404651E+00 -0.75439731869E+01  0.76809677368E+01  0.10500000000E+00 0.  1.
         13    1    6    6    0    0 -0.36934153295E+01 -0.80064241611E+00 -0.20461042600E+02  0.20807393743E+02  0.10500000000E+00 0. -1.
</event>
<event>
11    0  0.3422856E-009  0.9118800E+02  0.7816531E-02  0.1126479E+00
         25   -1    0    0    0    0  0.00000000000E+00  0.00000000000E+00  0.99999998245E-14  0.12500000000E+03  0.12500000000E+03 0.  0.
    3000001    1    3    3    0    0 -0.66531904658E+01 -0.56224278307E+01 -0.25653926977E+02  0.27110894626E+02  0.10000000000E+01 0. -1.
    1000022    2    1    0    0    0 -0.20927172840E+02 -0.32294388524E+01 -0.57947166156E+02  0.62499999759E+02  0.10000003302E+02 0.  0.
    3000022    2    3    3    0    0 -0.14273982374E+02  0.23929889783E+01 -0.32293239179E+02  0.35389105133E+02  0.24999278131E+00 0.  0.
    1000022    2    1    0    0    0  0.20927172840E+02  0.32294388524E+01  0.57947166156E+02  0.62500000241E+02  0.10000006313E+02 0.  0.
    3000022    2    5    5    0    0 -0.18681348299E+00  0.22016734629E+01  0.65194589230E+01  0.68882587528E+01  0.24999736234E+00 0.  0.
        -13    1    4    4    0    0 -0.46845311633E+01  0.80170014779E+00 -0.10728104142E+02  0.11734172268E+02  0.10500000000E+00 0.  1.
         13    1    4    4    0    0 -0.95894512109E+01  0.15912888306E+01 -0.21565135037E+02  0.23654932865E+02  0.10500000000E+00 0. -1.
    3000001    1    5    5    0    0  0.21113986323E+02  0.10277653894E+01  0.51427707233E+02  0.55611741488E+02  0.10000000000E+01 0. -1.
        -13    1    6    6    0    0 -0.16841312252E+00  0.13793303487E+01  0.39906021507E+01  0.42269191755E+01  0.10500000000E+00 0.  1.
         13    1    6    6    0    0 -0.18400360471E-01  0.82234311426E+00  0.25288567723E+01  0.26613395773E+01  0.10500000000E+00 0. -1.
</event>
<event>
11    0  0.3422856E-009  0.9118800E+02  0.7816531E-02  0.1126479E+00
         25   -1    0    0    0    0  0.00000000000E+00  0.00000000000E+00  0.99999998245E-14  0.12500000000E+03  0.12500000000E+03 0.  0.
    3000001    1    3    3    0    0  0.10552060487E+02 -0.66619232272E+01  0.62171855489E+01  0.13977860986E+02  0.10000000000E+01 0.  1.
    1000022    2    1    0    0    0  0.42658085142E+02 -0.17898450006E+02  0.40818901469E+02  0.62499995882E+02  0.10000001377E+02 0.  0.
    3000022    2    3    3    0    0  0.32106024655E+02 -0.11236526778E+02  0.34601715920E+02  0.48522134895E+02  0.24995405585E+00 0.  0.
    1000022    2    1    0    0    0 -0.42658085142E+02  0.17898450006E+02 -0.40818901469E+02  0.62500004118E+02  0.10000052853E+02 0.  0.
    3000022    2    5    5    0    0 -0.11644012805E+02  0.35016840857E+01 -0.55535204712E+01  0.13369701363E+02  0.24999855753E+00 0.  0.
        -13    1    4    4    0    0  0.20380190319E+02 -0.70710284648E+01  0.21956298864E+02  0.30780540700E+02  0.10500000000E+00 0. -1.
         13    1    4    4    0    0  0.11725834336E+02 -0.41654983136E+01  0.12645417056E+02  0.17741594195E+02  0.10500000000E+00 0.  1.
    3000001    1    5    5    0    0 -0.31014072337E+02  0.14396765920E+02 -0.35265380998E+02  0.49130302755E+02  0.10000000000E+01 0.  1.
        -13    1    6    6    0    0 -0.64286659999E+01  0.19963700383E+01 -0.31047860909E+01  0.74137683764E+01  0.10500000000E+00 0. -1.
         13    1    6    6    0    0 -0.52153468050E+01  0.15053140474E+01 -0.24487343803E+01  0.59559329868E+01  0.10500000000E+00 0.  1.
</event>
<event>
11    0  0.3422856E-009  0.9118800E+02  0.7816531E-02  0.1126479E+00
         25   -1    0    0    0    0  0.00000000000E+00  0.00000000000E+00  0.99999998245E-14  0.12500000000E+03  0.12500000000E+03 0.  0.
    3000001    1    3    3    0    0  0.15484946070E+01 -0.24739739271E+01 -0.16949565190E+01  0.35201221771E+01  0.10000000000E+01 0. -1.
    1000022    2    1    0    0    0  0.22546346078E+02 -0.16792101740E+02 -0.54917554581E+02  0.62500000045E+02  0.99999901093E+01 0.  0.
    3000022    2    3    3    0    0  0.20997851471E+02 -0.14318127812E+02 -0.53222598062E+02  0.58979877868E+02  0.24999683360E+00 0.  0.
    1000022    2    1    0    0    0 -0.22546346078E+02  0.16792101740E+02  0.54917554581E+02  0.62499999955E+02  0.99999895457E+01 0.  0.
    3000022    2    5    5    0    0 -0.73922244728E+01  0.36082969906E+01  0.26039774801E+02  0.27309287057E+02  0.24999602614E+00 0.  0.
        -13    1    4    4    0    0  0.76143541369E+01 -0.52440823752E+01 -0.19454600067E+02  0.21539992517E+02  0.10500000000E+00 0. -1.
         13    1    4    4    0    0  0.13383497334E+02 -0.90740454372E+01 -0.33767997995E+02  0.37439885351E+02  0.10500000000E+00 0.  1.
    3000001    1    5    5    0    0 -0.15154121605E+02  0.13183804749E+02  0.28877779780E+02  0.35190712898E+02  0.10000000000E+01 0.  1.
        -13    1    6    6    0    0 -0.54934475270E+01  0.26840166409E+01  0.19249371011E+02  0.20197307256E+02  0.10500000000E+00 0.  1.
         13    1    6    6    0    0 -0.18987769458E+01  0.92428034963E+00  0.67904037904E+01  0.71119798011E+01  0.10500000000E+00 0. -1.
</event>
<event>
11    0  0.3422856E-009  0.9118800E+02  0.7816531E-02  0.1126479E+00
         25   -1    0    0    0    0  0.00000000000E+00  0.00000000000E+00  0.99999998245E-14  0.12500000000E+03  0.12500000000E+03 0.  0.
    3000001    1    3    3    0    0 -0.19114551831E+02 -0.10823019615E+02 -0.36791010944E+01  0.22294385620E+02  0.10000000000E+01 0.  1.
    1000022    2    1    0    0    0 -0.52346263700E+02 -0.24169388030E+02 -0.21953579725E+02  0.62499998314E+02  0.99999742738E+01 0.  0.
    3000022    2    3    3    0    0 -0.33231711868E+02 -0.13346368415E+02 -0.18274478630E+02  0.40205612695E+02  0.24999870461E+00 0.  0.
    1000022    2    1    0    0    0  0.52346263700E+02  0.24169388030E+02  0.21953579725E+02  0.62500001686E+02  0.99999953470E+01 0.  0.
    3000022    2    5    5    0    0  0.44700418683E+02  0.17162802545E+02  0.20038921828E+02  0.51906744347E+02  0.24999819387E+00 0.  0.
        -13    1    4    4    0    0 -0.23119096475E+02 -0.93304173614E+01 -0.12744848152E+02  0.27999848025E+02  0.10500000000E+00 0. -1.
         13    1    4    4    0    0 -0.10112615393E+02 -0.40159510539E+01 -0.55296304785E+01  0.12205764670E+02  0.10500000000E+00 0.  1.
    3000001    1    5    5    0    0  0.76458450169E+01  0.70065854849E+01  0.19146578971E+01  0.10593257339E+02  0.10000000000E+01 0. -1.
        -13    1    6    6    0    0  0.18690458253E+02  0.72389077565E+01  0.83583341743E+01  0.21716532651E+02  0.10500000000E+00 0.  1.
         13    1    6    6    0    0  0.26009960429E+02  0.99238947888E+01  0.11680587653E+02  0.30190211696E+02  0.10500000000E+00 0. -1.
</event>
<event>
11    0  0.3422856E-009  0.9118800E+02  0.7816531E-02  0.1126479E+00
         25   -1    0    0    0    0  0.00000000000E+00  0.00000000000E+00  0.99999998245E-14  0.12500000000E+03  0.12500000000E+03 0.  0.
    3000001    1    3    3    0    0 -0.30571405342E+02 -0.15496652359E+02 -0.13436619953E+02  0.36827975979E+02  0.10000000000E+01 0.  1.
    1000022    2    1    0    0    0 -0.47170972559E+02 -0.26554950242E+02 -0.29597025635E+02  0.62499999380E+02  0.99999980764E+01 0.  0.
    3000022    2    3    3    0    0 -0.16599567217E+02 -0.11058297883E+02 -0.16160405681E+02  0.25672023401E+02  0.24997971064E+00 0.  0.
    1000022    2    1    0    0    0  0.47170972559E+02  0.26554950242E+02  0.29597025635E+02  0.62500000620E+02  0.10000005827E+02 0.  0.
    3000022    2    5    5    0    0  0.43112192910E+02  0.26659748499E+02  0.28598897304E+02  0.58201054809E+02  0.24997277730E+00 0.  0.
        -13    1    4    4    0    0 -0.12743864877E+02 -0.84825923691E+01 -0.12390576503E+02  0.19695123162E+02  0.10500000000E+00 0. -1.
         13    1    4    4    0    0 -0.38557023399E+01 -0.25757055142E+01 -0.37698291780E+01  0.59769002385E+01  0.10500000000E+00 0.  1.
    3000001    1    5    5    0    0  0.40587796495E+01 -0.10479825712E+00  0.99812833052E+00  0.42989458105E+01  0.10000000000E+01 0.  1.
        -13    1    6    6    0    0  0.26357190136E+02  0.16368407777E+02  0.17524917953E+02  0.35633692193E+02  0.10500000000E+00 0.  1.
         13    1    6    6    0    0  0.16755002774E+02  0.10291340722E+02  0.11073979351E+02  0.22567362617E+02  0.10500000000E+00 0. -1.
</event>
<event>
11    0  0.3422856E-009  0.9118800E+02  0.7816531E-02  0.1126479E+00
         25   -1    0    0    0    0  0.00000000000E+00  0.00000000000E+00  0.99999998245E-14  0.12500000000E+03  0.12500000000E+03 0.  0.
    3000001    1    3    3    0    0  0.85186392776E+01  0.64697859368E+01 -0.30294298911E+02  0.32142960220E+02  0.10000000000E+01 0.  1.
    1000022    2    1    0    0    0  0.20402056782E+02  0.20265919051E+02 -0.54582950731E+02  0.62500002375E+02  0.10000019523E+02 0.  0.
    3000022    2    3    3    0    0  0.11883417504E+02  0.13796133114E+02 -0.24288651820E+02  0.30357042155E+02  0.25000135798E+00 0.  0.
    1000022    2    1    0    0    0 -0.20402056782E+02 -0.20265919051E+02  0.54582950731E+02  0.62499997625E+02  0.99999898380E+01 0.  0.
    3000022    2    5    5    0    0 -0.17421650799E+02 -0.18127194935E+02  0.38567358747E+02  0.46039251978E+02  0.24989837573E+00 0.  0.
        -13    1    4    4    0    0  0.70056130811E+01  0.82190639679E+01 -0.14354648370E+02  0.17963813125E+02  0.10500000000E+00 0.  1.
         13    1    4    4    0    0  0.48778044228E+01  0.55770691459E+01 -0.99340034498E+01  0.12393229030E+02  0.10500000000E+00 0. -1.
    3000001    1    5    5    0    0 -0.29804059823E+01 -0.21387241157E+01  0.16015591984E+02  0.16460745647E+02  0.10000000000E+01 0. -1.
        -13    1    6    6    0    0 -0.13345900890E+02 -0.13867227808E+02  0.29528026160E+02  0.35246679724E+02  0.10500000000E+00 0.  1.
         13    1    6    6    0    0 -0.40757499097E+01 -0.42599671268E+01  0.90393325871E+01  0.10792572254E+02  0.10500000000E+00 0. -1.
</event>
<event>
11    0  0.3422856E-009  0.9118800E+02  0.7816531E-02  0.1126479E+00
         25   -1    0    0    0    0  0.00000000000E+00  0.00000000000E+00  0.99999998245E-14  0.12500000000E+03  0.12500000000E+03 0.  0.
    3000001    1    3    3    0    0  0.44554954493E+00 -0.97717786217E+01  0.62737127740E+01  0.11663860587E+02  0.10000000000E+01 0.  1.
    1000022    2    1    0    0    0  0.10784173220E+02 -0.39097391370E+02  0.46490274386E+02  0.62499999646E+02  0.99999969638E+01 0.  0.
    3000022    2    3    3    0    0  0.10338623675E+02 -0.29325612748E+02  0.40216561612E+02  0.50836139058E+02  0.25000787679E+00 0.  0.
    1000022    2    1    0    0    0 -0.10784173220E+02  0.39097391370E+02 -0.46490274386E+02  0.62500000354E+02  0.10000001392E+02 0.  0.
    3000022    2    5    5    0    0 -0.11446392650E+01  0.65169046079E+01 -0.29138941923E+01  0.72341913645E+01  0.25000123756E+00 0.  0.
        -13    1    4    4    0    0  0.66946127358E+01 -0.18991908609E+02  0.25951318541E+02  0.32848019595E+02  0.10500000000E+00 0. -1.
         13    1    4    4    0    0  0.36440109389E+01 -0.10333704139E+02  0.14265243071E+02  0.17988119464E+02  0.10500000000E+00 0.  1.
    3000001    1    5    5    0    0 -0.96395339546E+01  0.32580486762E+02 -0.43576380194E+02  0.55265808990E+02  0.10000000000E+01 0. -1.
        -13    1    6    6    0    0 -0.43948594366E+00  0.25755688847E+01 -0.10841670302E+01  0.28307500991E+01  0.10500000000E+00 0.  1.
         13    1    6    6    0    0 -0.70515332137E+00  0.39413357232E+01 -0.18297271621E+01  0.44034412653E+01  0.10500000000E+00 0. -1.
</event>
<event>
11    0  0.3422856E-009  0.9118800E+02  0.7816531E-02  0.1126479E+00
         25   -1    0    0    0    0  0.00000000000E+00  0.00000000000E+00  0.99999998245E-14  0.12500000000E+03  0.12500000000E+03 0.  0.
    3000001    1    3    3    0    0 -0.66660230491E+00  0.14583882589E+02  0.64092541004E+01  0.15975372551E+02  0.10000000000E+01 0. -1.
    1000022    2    1    0    0    0 -0.14805706962E+02  0.49523969159E+02  0.33681116539E+02  0.62499999490E+02  0.99999922528E+01 0.  0.
    3000022    2    3    3    0    0 -0.14139104657E+02  0.34940086570E+02  0.27271862439E+02  0.46524626940E+02  0.25000195607E+00 0.  0.
    1000022    2    1    0    0    0  0.14805706962E+02 -0.49523969159E+02 -0.33681116539E+02  0.62500000510E+02  0.99999986218E+01 0.  0.
    3000022    2    5    5    0    0  0.11285712782E+01 -0.19966215469E+02 -0.14320815511E+02  0.24598205042E+02  0.25000225274E+00 0.  0.
        -13    1    4    4    0    0 -0.57830611480E+01  0.14257072122E+02  0.11054728022E+02  0.18945340810E+02  0.10500000000E+00 0.  1.
         13    1    4    4    0    0 -0.83560435094E+01  0.20683014447E+02  0.16217134417E+02  0.27579286130E+02  0.10500000000E+00 0. -1.
    3000001    1    5    5    0    0  0.13677135684E+02 -0.29557753690E+02 -0.19360301029E+02  0.37901795467E+02  0.10000000000E+01 0. -1.
        -13    1    6    6    0    0  0.79863114248E+00 -0.14498348728E+02 -0.10359285562E+02  0.17837201291E+02  0.10500000000E+00 0. -1.
         13    1    6    6    0    0  0.32994013574E+00 -0.54678667406E+01 -0.39615299489E+01  0.67610037511E+01  0.10500000000E+00 0.  1.
</event>
<event>
11    0  0.3422856E-009  0.9118800E+02  0.7816531E-02  0.1126479E+00
         25   -1    0    0    0    0  0.00000000000E+00  0.00000000000E+00  0.99999998245E-14  0.12500000000E+03  0.12500000000E+03 0.  0.
    3000001    1    3    3    0    0 -0.23529901363E+01  0.16203078114E+01 -0.36606148301E+01  0.47499537808E+01  0.10000000000E+01 0.  1.
    1000022    2    1    0    0    0 -0.30524143337E+02  0.46170179663E+02 -0.27255114263E+02  0.62500000182E+02  0.99999976364E+01 0.  0.
    3000022    2    3    3    0    0 -0.28171153201E+02  0.44549871851E+02 -0.23594499433E+02  0.57750046401E+02  0.25000248317E+00 0.  0.
    1000022    2    1    0    0    0  0.30524143337E+02 -0.46170179663E+02  0.27255114263E+02  0.62499999818E+02  0.99999953588E+01 0.  0.
    3000022    2    5    5    0    0  0.19297513040E+02 -0.33651982990E+02  0.23101593738E+02  0.45150815154E+02  0.25001419885E+00 0.  0.
        -13    1    4    4    0    0 -0.79922391097E+01  0.12601391817E+02 -0.67185937972E+01  0.16365252498E+02  0.10500000000E+00 0.  1.
         13    1    4    4    0    0 -0.20178914091E+02  0.31948480035E+02 -0.16875905636E+02  0.41384793904E+02  0.10500000000E+00 0. -1.
    3000001    1    5    5    0    0  0.11226630296E+02 -0.12518196673E+02  0.41535205247E+01  0.17349184664E+02  0.10000000000E+01 0. -1.
        -13    1    6    6    0    0  0.12910992230E+02 -0.22453308503E+02  0.15373328246E+02  0.30119678442E+02  0.10500000000E+00 0. -1.
         13    1    6    6    0    0  0.63865208106E+01 -0.11198674487E+02  0.77282654929E+01  0.15031136712E+02  0.10500000000E+00 0.  1.
</event>
<event>
11    0  0.3422856E-009  0.9118800E+02  0.7816531E-02  0.1126479E+00
         25   -1    0    0    0    0  0.00000000000E+00  0.00000000000E+00  0.99999998245E-14  0.12500000000E+03  0.12500000000E+03 0.  0.
    3000001    1    3    3    0    0  0.45467578374E+01 -0.77246847817E+01 -0.13140845268E+02  0.15938179826E+02  0.10000000000E+01 0.  1.
    1000022    2    1    0    0    0  0.20474996780E+02 -0.42209440925E+02 -0.40067289611E+02  0.62500000121E+02  0.99999960975E+01 0.  0.
    3000022    2    3    3    0    0  0.15928238943E+02 -0.34484756144E+02 -0.26926444342E+02  0.46561820294E+02  0.25000418018E+00 0.  0.
    1000022    2    1    0    0    0 -0.20474996780E+02  0.42209440925E+02  0.40067289611E+02  0.62499999879E+02  0.99999945897E+01 0.  0.
    3000022    2    5    5    0    0 -0.18950046553E+02  0.39972742573E+02  0.39957577999E+02  0.59612037041E+02  0.25001503250E+00 0.  0.
        -13    1    4    4    0    0  0.78730488836E+01 -0.16927209854E+02 -0.13176537330E+02  0.22850546890E+02  0.10500000000E+00 0. -1.
         13    1    4    4    0    0  0.80551900594E+01 -0.17557546290E+02 -0.13749907012E+02  0.23711273404E+02  0.10500000000E+00 0.  1.
    3000001    1    5    5    0    0 -0.15249502275E+01  0.22366983523E+01  0.10971161159E+00  0.28879628379E+01  0.10000000000E+01 0.  1.
        -13    1    6    6    0    0 -0.14327929211E+02  0.30192440461E+02  0.30211527238E+02  0.45051308744E+02  0.10500000000E+00 0. -1.
         13    1    6    6    0    0 -0.46221173414E+01  0.97803021124E+01  0.97460507609E+01  0.14560728298E+02  0.10500000000E+00 0.  1.
</event>
<event>
11    0  0.3422856E-009  0.9118800E+02  0.7816531E-02  0.1126479E+00
         25   -1    0    0    0    0  0.00000000000E+00  0.00000000000E+00  0.99999998245E-14  0.12500000000E+03  0.12500000000E+03 0.  0.
    3000001    1    3    3    0    0 -0.16725970522E+02  0.15451062712E+01 -0.94755850481E+01  0.19311451404E+02  0.10000000000E+01 0. -1.
    1000022    2    1    0    0    0 -0.59164822041E+02  0.46544230942E+01 -0.16855573530E+02  0.62499999672E+02  0.99999889195E+01 0.  0.
    3000022    2    3    3    0    0 -0.42438851519E+02  0.31093168230E+01 -0.73799884819E+01  0.43188548268E+02  0.25000430736E+00 0.  0.
    1000022    2    1    0    0    0  0.59164822041E+02 -0.46544230942E+01  0.16855573530E+02  0.62500000328E+02  0.99999930240E+01 0.  0.
    3000022    2    5    5    0    0  0.56772992757E+02 -0.47215555154E+01  0.17883268110E+02  0.59710464482E+02  0.24999464286E+00 0.  0.
        -13    1    4    4    0    0 -0.30212775925E+02  0.22015505082E+01 -0.52949416428E+01  0.30752334638E+02  0.10500000000E+00 0.  1.
         13    1    4    4    0    0 -0.12226075595E+02  0.90776631482E+00 -0.20850468391E+01  0.12436213630E+02  0.10500000000E+00 0. -1.
    3000001    1    5    5    0    0  0.23918292849E+01  0.67132421173E-01 -0.10276945798E+01  0.27895358466E+01  0.10000000000E+01 0. -1.
        -13    1    6    6    0    0  0.23550370024E+02 -0.20194643451E+01  0.74424929195E+01  0.24781038928E+02  0.10500000000E+00 0.  1.
         13    1    6    6    0    0  0.33222622733E+02 -0.27020911703E+01  0.10440775190E+02  0.34929425554E+02  0.10500000000E+00 0. -1.
</event>
<event>
11    0  0.3422856E-009  0.9118800E+02  0.7816531E-02  0.1126479E+00
         25   -1    0    0    0    0  0.00000000000E+00  0.00000000000E+00  0.99999998245E-14  0.12500000000E+03  0.12500000000E+03 0.  0.
    3000001    1    3    3    0    0  0.18696147879E+01  0.45003799582E+00 -0.36039861461E+01  0.42055570136E+01  0.10000000000E+01 0.  1.
    1000022    2    1    0    0    0  0.32349127770E+02  0.36728199293E+02 -0.37560925846E+02  0.62499998807E+02  0.10000000482E+02 0.  0.
    3000022    2    3    3    0    0  0.30479512982E+02  0.36278161297E+02 -0.33956939700E+02  0.58294441793E+02  0.24998291519E+00 0.  0.
    1000022    2    1    0    0    0 -0.32349127770E+02 -0.36728199293E+02  0.37560925846E+02  0.62500001193E+02  0.10000015396E+02 0.  0.
    3000022    2    5    5    0    0 -0.24136384154E+02 -0.29148163688E+02  0.33576673159E+02  0.50592845070E+02  0.25001076089E+00 0.  0.
        -13    1    4    4    0    0  0.21809441798E+02  0.25899737206E+02 -0.24285944601E+02  0.41668528520E+02  0.10500000000E+00 0. -1.
         13    1    4    4    0    0  0.86700711836E+01  0.10378424092E+02 -0.96709950997E+01  0.16625913273E+02  0.10500000000E+00 0.  1.
    3000001    1    5    5    0    0 -0.82127436156E+01 -0.75800356049E+01  0.39842526870E+01  0.11907156123E+02  0.10000000000E+01 0.  1.
        -13    1    6    6    0    0 -0.69236120025E+01 -0.84191143027E+01  0.96992113630E+01  0.14591217045E+02  0.10500000000E+00 0.  1.
         13    1    6    6    0    0 -0.17212772152E+02 -0.20729049386E+02  0.23877461796E+02  0.36001628024E+02  0.10500000000E+00 0. -1.
</event>
<event>
11    0  0.3422856E-009  0.9118800E+02  0.7816531E-02  0.1126479E+00
         25   -1    0    0    0    0  0.00000000000E+00  0.00000000000E+00  0.99999998245E-14  0.12500000000E+03  0.12500000000E+03 0.  0.
    3000001    1    3    3    0    0 -0.27117849794E+02 -0.17863955251E+02 -0.18934487465E+02  0.37603370729E+02  0.10000000000E+01 0.  1.
    1000022    2    1    0    0    0 -0.39700008685E+02 -0.35679715365E+02 -0.30937307659E+02  0.62500001465E+02  0.10000019995E+02 0.  0.
    3000022    2    3    3    0    0 -0.12582158891E+02 -0.17815760114E+02 -0.12002820194E+02  0.24896630736E+02  0.24999720398E+00 0.  0.
    1000022    2    1    0    0    0  0.39700008685E+02  0.35679715365E+02  0.30937307659E+02  0.62499998535E+02  0.10000001678E+02 0.  0.
    3000022    2    5    5    0    0 -0.70236408714E-01  0.24269752728E+01  0.10925064742E+01  0.26741740424E+01  0.24998857006E+00 0.  0.
        -13    1    4    4    0    0 -0.76000931479E+01 -0.10842777369E+02 -0.73333305898E+01  0.15136578195E+02  0.10500000000E+00 0.  1.
         13    1    4    4    0    0 -0.49820657431E+01 -0.69729827452E+01 -0.46694896043E+01  0.97600525408E+01  0.10500000000E+00 0. -1.
    3000001    1    5    5    0    0  0.39770245093E+02  0.33252740092E+02  0.29844801185E+02  0.59825824492E+02  0.10000000000E+01 0. -1.
        -13    1    6    6    0    0 -0.57374394895E-02  0.17110195603E+01  0.77814862666E+00  0.18825942577E+01  0.10500000000E+00 0. -1.
         13    1    6    6    0    0 -0.64498969224E-01  0.71595571250E+00  0.31435784758E+00  0.79157978475E+00  0.10500000000E+00 0.  1.
</event>
<event>
11    0  0.3422856E-009  0.9118800E+02  0.7816531E-02  0.1126479E+00
         25   -1    0    0    0    0  0.00000000000E+00  0.00000000000E+00  0.99999998245E-14  0.12500000000E+03  0.12500000000E+03 0.  0.
    3000001    1    3    3    0    0  0.28552606935E+02  0.69471139208E+01 -0.16748659554E+02  0.33838311888E+02  0.10000000000E+01 0.  1.
    1000022    2    1    0    0    0  0.55543293857E+02  0.55172884668E+01 -0.26282178870E+02  0.62499994905E+02  0.99999236222E+01 0.  0.
    3000022    2    3    3    0    0  0.26990686923E+02 -0.14298254539E+01 -0.95335193156E+01  0.28661683017E+02  0.25000284830E+00 0.  0.
    1000022    2    1    0    0    0 -0.55543293857E+02 -0.55172884668E+01  0.26282178870E+02  0.62500005095E+02  0.99999873072E+01 0.  0.
    3000022    2    5    5    0    0 -0.32050985264E+02 -0.80694992113E+01  0.15094223216E+02  0.36335664965E+02  0.25000002908E+00 0.  0.
        -13    1    4    4    0    0  0.19644492073E+02 -0.10578977433E+01 -0.69043547446E+01  0.20849612847E+02  0.10500000000E+00 0.  1.
         13    1    4    4    0    0  0.73461948498E+01 -0.37192771069E+00 -0.26291645711E+01  0.78120701697E+01  0.10500000000E+00 0. -1.
    3000001    1    5    5    0    0 -0.23492308594E+02  0.25522107445E+01  0.11187955653E+02  0.26164340130E+02  0.10000000000E+01 0.  1.
        -13    1    6    6    0    0 -0.19191856390E+02 -0.48878686002E+01  0.90799652200E+01  0.21787046714E+02  0.10500000000E+00 0. -1.
         13    1    6    6    0    0 -0.12859128874E+02 -0.31816306111E+01  0.60142579965E+01  0.14548618250E+02  0.10500000000E+00 0.  1.
</event>
<event>
11    0  0.3422856E-009  0.9118800E+02  0.7816531E-02  0.1126479E+00
         25   -1    0    0    0    0  0.00000000000E+00  0.00000000000E+00  0.99999998245E-14  0.12500000000E+03  0.12500000000E+03 0.  0.
    3000001    1    3    3    0    0  0.16127874779E+02 -0.75236153122E+01  0.39903108945E+01  0.18265697723E+02  0.10000000000E+01 0. -1.
    1000022    2    1    0    0    0  0.47541097812E+02 -0.29082019140E+02  0.26463761066E+02  0.62500003573E+02  0.99999989191E+01 0.  0.
    3000022    2    3    3    0    0  0.31413223033E+02 -0.21558403828E+02  0.22473450172E+02  0.44234305850E+02  0.24998900093E+00 0.  0.
    1000022    2    1    0    0    0 -0.47541097812E+02  0.29082019140E+02 -0.26463761066E+02  0.62499996427E+02  0.99999542606E+01 0.  0.
    3000022    2    5    5    0    0 -0.86965800049E+01  0.17445320040E+01 -0.21520812751E+01  0.91305993833E+01  0.24999117724E+00 0.  0.
        -13    1    4    4    0    0  0.12671861274E+02 -0.87730068554E+01  0.90830509555E+01  0.17890068672E+02  0.10500000000E+00 0.  1.
         13    1    4    4    0    0  0.18741361759E+02 -0.12785396973E+02  0.13390399216E+02  0.26344237178E+02  0.10500000000E+00 0. -1.
    3000001    1    5    5    0    0 -0.38844517807E+02  0.27337487136E+02 -0.24311679791E+02  0.53369397044E+02  0.10000000000E+01 0. -1.
        -13    1    6    6    0    0 -0.55347076441E+01  0.11205455143E+01 -0.13105032468E+01  0.57980216208E+01  0.10500000000E+00 0. -1.
         13    1    6    6    0    0 -0.31618723608E+01  0.62398648978E+00 -0.84157802832E+00  0.33325777625E+01  0.10500000000E+00 0.  1.
</event>
<event>
11    0  0.3422856E-009  0.9118800E+02  0.7816531E-02  0.1126479E+00
         25   -1    0    0    0    0  0.00000000000E+00  0.00000000000E+00  0.99999998245E-14  0.12500000000E+03  0.12500000000E+03 0.  0.
    3000001    1    3    3    0    0  0.46365307900E+01  0.12388057269E+02 -0.99520128827E+01  0.16583242779E+02  0.10000000000E+01 0. -1.
    1000022    2    1    0    0    0  0.30374488045E+02  0.36823967426E+02 -0.39084983710E+02  0.62500000476E+02  0.10000000348E+02 0.  0.
    3000022    2    3    3    0    0  0.25737957255E+02  0.24435910157E+02 -0.29132970827E+02  0.45916757697E+02  0.24999861496E+00 0.  0.
    1000022    2    1    0    0    0 -0.30374488045E+02 -0.36823967426E+02  0.39084983710E+02  0.62499999524E+02  0.99999943913E+01 0.  0.
    3000022    2    5    5    0    0 -0.10103584144E+01 -0.57409358992E+01  0.64687982770E+01  0.87113156758E+01  0.25000106017E+00 0.  0.
        -13    1    4    4    0    0  0.17453050575E+02  0.16515543062E+02 -0.19681724157E+02  0.31060480160E+02  0.10500000000E+00 0.  1.
         13    1    4    4    0    0  0.82849066803E+01  0.79203670955E+01 -0.94512466700E+01  0.14856277537E+02  0.10500000000E+00 0. -1.
    3000001    1    5    5    0    0 -0.29364129631E+02 -0.31083031527E+02  0.32616185433E+02  0.53788683848E+02  0.10000000000E+01 0. -1.
        -13    1    6    6    0    0 -0.23042586380E+00 -0.14236437185E+01  0.16257223054E+01  0.21757425239E+01  0.10500000000E+00 0.  1.
         13    1    6    6    0    0 -0.77993255064E+00 -0.43172921807E+01  0.48430759716E+01  0.65355731519E+01  0.10500000000E+00 0. -1.
</event>
<event>
11    0  0.3422856E-009  0.9118800E+02  0.7816531E-02  0.1126479E+00
         25   -1    0    0    0    0  0.00000000000E+00  0.00000000000E+00  0.99999998245E-14  0.12500000000E+03  0.12500000000E+03 0.  0.
    3000001    1    3    3    0    0 -0.14947403178E+02 -0.24261592692E+02  0.29569397120E+02  0.41077962313E+02  0.10000000000E+01 0. -1.
    1000022    2    1    0    0    0 -0.15830590428E+02 -0.38751854111E+02  0.45320375708E+02  0.62499995868E+02  0.99999619409E+01 0.  0.
    3000022    2    3    3    0    0 -0.88318725000E+00 -0.14490261419E+02  0.15750978588E+02  0.21422033555E+02  0.24999889245E+00 0.  0.
    1000022    2    1    0    0    0  0.15830590428E+02  0.38751854111E+02 -0.45320375708E+02  0.62500004132E+02  0.10000013596E+02 0.  0.
    3000022    2    5    5    0    0  0.15418266412E+02  0.26053296359E+02 -0.31032620167E+02  0.43354160237E+02  0.25001021279E+00 0.  0.
        -13    1    4    4    0    0 -0.67030694721E+00 -0.10482510738E+02  0.11362721314E+02  0.15474327237E+02  0.10500000000E+00 0.  1.
         13    1    4    4    0    0 -0.21288030278E+00 -0.40077506812E+01  0.43882572732E+01  0.59477063177E+01  0.10500000000E+00 0. -1.
    3000001    1    5    5    0    0  0.41232401591E+00  0.12698557752E+02 -0.14287755541E+02  0.19145843895E+02  0.10000000000E+01 0. -1.
        -13    1    6    6    0    0  0.46777039691E+01  0.79948602245E+01 -0.95108001797E+01  0.13276484832E+02  0.10500000000E+00 0.  1.
         13    1    6    6    0    0  0.10740562443E+02  0.18058436135E+02 -0.21521819987E+02  0.30077675405E+02  0.10500000000E+00 0. -1.
</event>
<event>
11    0  0.3422856E-009  0.9118800E+02  0.7816531E-02  0.1126479E+00
         25   -1    0    0    0    0  0.00000000000E+00  0.00000000000E+00  0.99999998245E-14  0.12500000000E+03  0.12500000000E+03 0.  0.
    3000001    1    3    3    0    0 -0.25766626049E+02  0.52047791715E+01 -0.18755507774E+02  0.32307550450E+02  0.10000000000E+01 0. -1.
    1000022    2    1    0    0    0 -0.45438879821E+02  0.34403627806E+01 -0.41589927362E+02  0.62499999092E+02  0.99999966488E+01 0.  0.
    3000022    2    3    3    0    0 -0.19672253772E+02 -0.17644163909E+01 -0.22834419588E+02  0.30192448642E+02  0.25000680939E+00 0.  0.
    1000022    2    1    0    0    0  0.45438879821E+02 -0.34403627806E+01  0.41589927362E+02  0.62500000908E+02  0.10000008004E+02 0.  0.
    3000022    2    5    5    0    0  0.38016653818E+01 -0.12934669544E+00  0.40590581735E+00  0.38336214018E+01  0.25000655399E+00 0.  0.
        -13    1    4    4    0    0 -0.10237196844E+02 -0.98372393503E+00 -0.11862424079E+02  0.15700192421E+02  0.10500000000E+00 0.  1.
         13    1    4    4    0    0 -0.94350569280E+01 -0.78069245592E+00 -0.10971995509E+02  0.14492256221E+02  0.10500000000E+00 0. -1.
    3000001    1    5    5    0    0  0.41637214439E+02 -0.33110160851E+01  0.41184021545E+02  0.58666379507E+02  0.10000000000E+01 0. -1.
        -13    1    6    6    0    0  0.15220665053E+01 -0.11401152753E+00  0.15178319239E+00  0.15374486048E+01  0.10500000000E+00 0.  1.
         13    1    6    6    0    0  0.22795988765E+01 -0.15335167909E-01  0.25412262496E+00  0.22961727970E+01  0.10500000000E+00 0. -1.
</event>
<event>
11    0  0.3422856E-009  0.9118800E+02  0.7816531E-02  0.1126479E+00
         25   -1    0    0    0    0  0.00000000000E+00  0.00000000000E+00  0.99999998245E-14  0.12500000000E+03  0.12500000000E+03 0.  0.
    3000001    1    3    3    0    0  0.80738571678E+01  0.16621508470E+02  0.26916460773E+01  0.18700445770E+02  0.10000000000E+01 0. -1.
    1000022    2    1    0    0    0  0.39253479478E+02  0.46898855963E+02  0.81185956389E+01  0.62499999386E+02  0.99999993168E+01 0.  0.
    3000022    2    3    3    0    0  0.31179622310E+02  0.30277347493E+02  0.54269495616E+01  0.43799553616E+02  0.24999361421E+00 0.  0.
    1000022    2    1    0    0    0 -0.39253479478E+02 -0.46898855963E+02 -0.81185956389E+01  0.62500000614E+02  0.10000006989E+02 0.  0.
    3000022    2    5    5    0    0 -0.22650994890E+02 -0.31834550832E+02 -0.14848915380E+01  0.39099534514E+02  0.25000031708E+00 0.  0.
        -13    1    4    4    0    0  0.15691562005E+02  0.15249415653E+02  0.26644310829E+01  0.22042686177E+02  0.10500000000E+00 0. -1.
         13    1    4    4    0    0  0.15488060305E+02  0.15027931840E+02  0.27625184787E+01  0.21756867439E+02  0.10500000000E+00 0.  1.
    3000001    1    5    5    0    0 -0.16602484588E+02 -0.15064305131E+02 -0.66337041009E+01  0.23400466100E+02  0.10000000000E+01 0. -1.
        -13    1    6    6    0    0 -0.99600654095E+01 -0.13901125706E+02 -0.68441028560E+00  0.17115012161E+02  0.10500000000E+00 0. -1.
         13    1    6    6    0    0 -0.12690929480E+02 -0.17933425126E+02 -0.80048125244E+00  0.21984522352E+02  0.10500000000E+00 0.  1.
</event>
<event>
11    0  0.3422856E-009  0.9118800E+02  0.7816531E-02  0.1126479E+00
         25   -1    0    0    0    0  0.00000000000E+00  0.00000000000E+00  0.99999998245E-14  0.12500000000E+03  0.12500000000E+03 0.  0.
    3000001    1    3    3    0    0  0.51092523164E+02 -0.18931331989E+02  0.12513519377E+02  0.55914483109E+02  0.10000000000E+01 0.  1.
    1000022    2    1    0    0    0  0.57551066643E+02 -0.17878183484E+02  0.13209662989E+02  0.62499999160E+02  0.99999991105E+01 0.  0.
    3000022    2    3    3    0    0  0.64585434791E+01  0.10531485051E+01  0.69614361259E+00  0.65855160507E+01  0.25000015872E+00 0.  0.
    1000022    2    1    0    0    0 -0.57551066643E+02  0.17878183484E+02 -0.13209662989E+02  0.62500000840E+02  0.10000009612E+02 0.  0.
    3000022    2    5    5    0    0 -0.53608174343E+02  0.14402835995E+02 -0.13547755047E+02  0.57139147727E+02  0.24999017148E+00 0.  0.
        -13    1    4    4    0    0  0.24694417714E+01  0.36020743820E+00  0.22099786476E+00  0.25075400529E+01  0.10500000000E+00 0. -1.
         13    1    4    4    0    0  0.39891017078E+01  0.69294106686E+00  0.47514574782E+00  0.40779759978E+01  0.10500000000E+00 0.  1.
    3000001    1    5    5    0    0 -0.39428923005E+01  0.34753474883E+01  0.33809205772E+00  0.53608531128E+01  0.10000000000E+01 0. -1.
        -13    1    6    6    0    0 -0.20174780639E+02  0.54233163592E+01 -0.50366942971E+01  0.21489845244E+02  0.10500000000E+00 0. -1.
         13    1    6    6    0    0 -0.33433393704E+02  0.89795196363E+01 -0.85110607501E+01  0.35649302483E+02  0.10500000000E+00 0.  1.
</event>
<event>
11    0  0.3422856E-009  0.9118800E+02  0.7816531E-02  0.1126479E+00
         25   -1    0    0    0    0  0.00000000000E+00  0.00000000000E+00  0.99999998245E-14  0.12500000000E+03  0.12500000000E+03 0.  0.
    3000001    1    3    3    0    0 -0.73914172690E+01  0.18721250142E+02  0.34738028281E+01  0.20449585869E+02  0.10000000000E+01 0.  1.
    1000022    2    1    0    0    0 -0.89040968622E+01  0.59634137267E+02  0.13066623229E+02  0.62499998890E+02  0.99999975033E+01 0.  0.
    3000022    2    3    3    0    0 -0.15126795933E+01  0.40912887125E+02  0.95928204010E+01  0.42050413021E+02  0.24999899294E+00 0.  0.
    1000022    2    1    0    0    0  0.89040968622E+01 -0.59634137267E+02 -0.13066623229E+02  0.62500001110E+02  0.10000011383E+02 0.  0.
    3000022    2    5    5    0    0  0.51524080063E+01 -0.22183192187E+02 -0.95095842475E+01  0.24680680876E+02  0.24998415212E+00 0.  0.
        -13    1    4    4    0    0 -0.59133188419E+00  0.14464707061E+02  0.34006407956E+01  0.14871207301E+02  0.10500000000E+00 0. -1.
         13    1    4    4    0    0 -0.92134770906E+00  0.26448180064E+02  0.61921796054E+01  0.27179205720E+02  0.10500000000E+00 0.  1.
    3000001    1    5    5    0    0  0.37516888559E+01 -0.37450945081E+02 -0.35570389816E+01  0.37819320235E+02  0.10000000000E+01 0.  1.
        -13    1    6    6    0    0  0.19382359003E+01 -0.85640606537E+01 -0.37059825669E+01  0.95312761513E+01  0.10500000000E+00 0.  1.
         13    1    6    6    0    0  0.32141721060E+01 -0.13619131533E+02 -0.58036016806E+01  0.15149404724E+02  0.10500000000E+00 0. -1.
</event>
<event>
11    0  0.3422856E-009  0.9118800E+02  0.7816531E-02  0.1126479E+00
         25   -1    0    0    0    0  0.00000000000E+00  0.00000000000E+00  0.99999998245E-14  0.12500000000E+03  0.12500000000E+03 0.  0.
    3000001    1    3    3    0    0  0.79684384035E+01 -0.75915178000E+01  0.27960648635E+02  0.30065345918E+02  0.10000000000E+01 0. -1.
    1000022    2    1    0    0    0  0.63902835232E+01 -0.16892849090E+02  0.58991910050E+02  0.62500003574E+02  0.10000046074E+02 0.  0.
    3000022    2    3    3    0    0 -0.15781548803E+01 -0.93013312904E+01  0.31031261416E+02  0.32434657656E+02  0.24999124824E+00 0.  0.
    1000022    2    1    0    0    0 -0.63902835232E+01  0.16892849090E+02 -0.58991910050E+02  0.62499996426E+02  0.10000001398E+02 0.  0.
    3000022    2    5    5    0    0 -0.59836798638E+01  0.17980049014E+02 -0.56281936860E+02  0.59386913564E+02  0.24999751276E+00 0.  0.
        -13    1    4    4    0    0 -0.11457960438E+01 -0.64758413967E+01  0.21610021019E+02  0.22588789340E+02  0.10500000000E+00 0.  1.
         13    1    4    4    0    0 -0.43235883650E+00 -0.28254898937E+01  0.94212403961E+01  0.98458683164E+01  0.10500000000E+00 0. -1.
    3000001    1    5    5    0    0 -0.40660365939E+00 -0.10871999236E+01 -0.27099731905E+01  0.31130828616E+01  0.10000000000E+01 0.  1.
        -13    1    6    6    0    0 -0.42141106027E+01  0.12773012071E+02 -0.39867051008E+02  0.42074949158E+02  0.10500000000E+00 0.  1.
         13    1    6    6    0    0 -0.17695692611E+01  0.52070369429E+01 -0.16414885851E+02  0.17311964406E+02  0.10500000000E+00 0. -1.
</event>
<event>
11    0  0.3422856E-009  0.9118800E+02  0.7816531E-02  0.1126479E+00
         25   -1    0    0    0    0  0.00000000000E+00  0.00000000000E+00  0.99999998245E-14  0.12500000000E+03  0.12500000000E+03 0.  0.
    3000001    1    3    3    0    0  0.29379761356E+02 -0.14554350465E+02  0.18969068638E+02  0.37892282324E+02  0.10000000000E+01 0. -1.
    1000022    2    1    0    0    0  0.45049590266E+02 -0.30783204378E+02  0.28795462270E+02  0.62499999822E+02  0.10000003777E+02 0.  0.
    3000022    2    3    3    0    0  0.15669828910E+02 -0.16228853913E+02  0.98263936327E+01  0.24607717498E+02  0.25002244091E+00 0.  0.
    1000022    2    1    0    0    0 -0.45049590266E+02  0.30783204378E+02 -0.28795462270E+02  0.62500000178E+02  0.10000006000E+02 0.  0.
    3000022    2    5    5    0    0 -0.40636427569E+02  0.30716189543E+02 -0.26191881823E+02  0.57278972777E+02  0.25000675089E+00 0.  0.
        -13    1    4    4    0    0  0.11786374957E+02 -0.12196394454E+02  0.73611338316E+01  0.18489672485E+02  0.10500000000E+00 0. -1.
         13    1    4    4    0    0  0.38834539527E+01 -0.40324594592E+01  0.24652598012E+01  0.61180450129E+01  0.10500000000E+00 0.  1.
    3000001    1    5    5    0    0 -0.44131626964E+01  0.67014835351E-01 -0.26035804468E+01  0.52210274004E+01  0.10000000000E+01 0.  1.
        -13    1    6    6    0    0 -0.24770978912E+02  0.18785244294E+02 -0.16027588690E+02  0.34976869838E+02  0.10500000000E+00 0.  1.
         13    1    6    6    0    0 -0.15865448657E+02  0.11930945248E+02 -0.10164293134E+02  0.22302102939E+02  0.10500000000E+00 0. -1.
</event>
<event>
11    0  0.3422856E-009  0.9118800E+02  0.7816531E-02  0.1126479E+00
         25   -1    0    0    0    0  0.00000000000E+00  0.00000000000E+00  0.99999998245E-14  0.12500000000E+03  0.12500000000E+03 0.  0.
    3000001    1    3    3    0    0 -0.26359180525E+02  0.27263372703E+02  0.63533924991E+01  0.38463794475E+02  0.10000000000E+01 0.  1.
    1000022    2    1    0    0    0 -0.47395252906E+02  0.38871412922E+02  0.69966525466E+01  0.62500000874E+02  0.10000011094E+02 0.  0.
    3000022    2    3    3    0    0 -0.21036072380E+02  0.11608040219E+02  0.64326004752E+00  0.24036206400E+02  0.24999139634E+00 0.  0.
    1000022    2    1    0    0    0  0.47395252906E+02 -0.38871412922E+02 -0.69966525466E+01  0.62499999126E+02  0.10000000165E+02 0.  0.
    3000022    2    5    5    0    0  0.59759992355E+01 -0.49201914028E+01  0.24181487985E+01  0.81136175433E+01  0.24999144927E+00 0.  0.
        -13    1    4    4    0    0 -0.13698534423E+02  0.76188463048E+01  0.43986776996E+00  0.15681236335E+02  0.10500000000E+00 0.  1.
         13    1    4    4    0    0 -0.73375379573E+01  0.39891939140E+01  0.20339227756E+00  0.83549700644E+01  0.10500000000E+00 0. -1.
    3000001    1    5    5    0    0  0.41419253670E+02 -0.33951221519E+02 -0.94148013452E+01  0.54386381582E+02  0.10000000000E+01 0.  1.
        -13    1    6    6    0    0  0.41514850062E+01 -0.33668382388E+01  0.16401180576E+01  0.55920872423E+01  0.10500000000E+00 0. -1.
         13    1    6    6    0    0  0.18245142293E+01 -0.15533531641E+01  0.77803074092E+00  0.25215303010E+01  0.10500000000E+00 0.  1.
</event>
<event>
11    0  0.3422856E-009  0.9118800E+02  0.7816531E-02  0.1126479E+00
         25   -1    0    0    0    0  0.00000000000E+00  0.00000000000E+00  0.99999998245E-14  0.12500000000E+03  0.12500000000E+03 0.  0.
    3000001    1    3    3    0    0  0.37824310665E+02  0.51650036823E+01 -0.62021880305E+01  0.38688795234E+02  0.10000000000E+01 0.  1.
    1000022    2    1    0    0    0  0.59633281885E+02  0.30480217768E+01 -0.15518738460E+02  0.62499999644E+02  0.99999983532E+01 0.  0.
    3000022    2    3    3    0    0  0.21808971220E+02 -0.21169819056E+01 -0.93165504293E+01  0.23811204410E+02  0.25001100217E+00 0.  0.
    1000022    2    1    0    0    0 -0.59633281885E+02 -0.30480217768E+01  0.15518738460E+02  0.62500000356E+02  0.10000002800E+02 0.  0.
    3000022    2    5    5    0    0 -0.13901992614E+02 -0.45305092117E+01  0.56804666103E+01  0.15688247768E+02  0.25000952429E+00 0.  0.
        -13    1    4    4    0    0  0.75178487971E+01 -0.78539785835E+00 -0.32079099171E+01  0.82119797472E+01  0.10500000000E+00 0. -1.
         13    1    4    4    0    0  0.14291122423E+02 -0.13315840472E+01 -0.61086405123E+01  0.15599224663E+02  0.10500000000E+00 0.  1.
    3000001    1    5    5    0    0 -0.45731289271E+02  0.14824874349E+01  0.98382718496E+01  0.46811752588E+02  0.10000000000E+01 0.  1.
        -13    1    6    6    0    0 -0.65300111132E+01 -0.21405954353E+01  0.27409582235E+01  0.73991263633E+01  0.10500000000E+00 0.  1.
         13    1    6    6    0    0 -0.73719815008E+01 -0.23899137764E+01  0.29395083867E+01  0.82891214047E+01  0.10500000000E+00 0. -1.
</event>
<event>
11    0  0.3422856E-009  0.9118800E+02  0.7816531E-02  0.1126479E+00
         25   -1    0    0    0    0  0.00000000000E+00  0.00000000000E+00  0.99999998245E-14  0.12500000000E+03  0.12500000000E+03 0.  0.
    3000001    1    3    3    0    0  0.19094450069E+01 -0.30644925227E+01 -0.13739160276E+02  0.14240843365E+02  0.10000000000E+01 0.  1.
    1000022    2    1    0    0    0  0.20292545926E+02 -0.24650254437E+02 -0.52790410478E+02  0.62499999434E+02  0.10000001341E+02 0.  0.
    3000022    2    3    3    0    0  0.18383100919E+02 -0.21585761914E+02 -0.39051250202E+02  0.48259156069E+02  0.24997063691E+00 0.  0.
    1000022    2    1    0    0    0 -0.20292545926E+02  0.24650254437E+02  0.52790410478E+02  0.62500000566E+02  0.10000008422E+02 0.  0.
    3000022    2    5    5    0    0 -0.14419000621E+02  0.14965353420E+02  0.25240772641E+02  0.32696001051E+02  0.24999867614E+00 0.  0.
        -13    1    4    4    0    0  0.50415840810E+01 -0.58694571401E+01 -0.10687270766E+02  0.13194577621E+02  0.10500000000E+00 0.  1.
         13    1    4    4    0    0  0.13341516838E+02 -0.15716304774E+02 -0.28363979436E+02  0.35064578448E+02  0.10500000000E+00 0. -1.
    3000001    1    5    5    0    0 -0.58735453041E+01  0.96849010177E+01  0.27549637837E+02  0.29803999515E+02  0.10000000000E+01 0. -1.
        -13    1    6    6    0    0 -0.93401025003E+01  0.96772042456E+01  0.16247078373E+02  0.21091808300E+02  0.10500000000E+00 0.  1.
         13    1    6    6    0    0 -0.50788981211E+01  0.52881491740E+01  0.89936942683E+01  0.11604192751E+02  0.10500000000E+00 0. -1.
</event>
<event>
11    0  0.3422856E-009  0.9118800E+02  0.7816531E-02  0.1126479E+00
         25   -1    0    0    0    0  0.00000000000E+00  0.00000000000E+00  0.99999998245E-14  0.12500000000E+03  0.12500000000E+03 0.  0.
    3000001    1    3    3    0    0 -0.15644187241E+02  0.88868380718E+01 -0.50124966308E+00  0.18026861529E+02  0.10000000000E+01 0. -1.
    1000022    2    1    0    0    0 -0.44486555099E+02  0.42570179285E+02 -0.38698986396E+01  0.62499998931E+02  0.10000000102E+02 0.  0.
    3000022    2    3    3    0    0 -0.28842367858E+02  0.33683341213E+02 -0.33686489765E+01  0.44473137403E+02  0.24999118981E+00 0.  0.
    1000022    2    1    0    0    0  0.44486555099E+02 -0.42570179285E+02  0.38698986396E+01  0.62500001069E+02  0.10000013461E+02 0.  0.
    3000022    2    5    5    0    0  0.12013759058E+02 -0.17879874634E+02  0.22887195509E+01  0.21663819149E+02  0.24999865173E+00 0.  0.
        -13    1    4    4    0    0 -0.20561064776E+02  0.24071501429E+02 -0.23891009337E+01  0.31747651788E+02  0.10500000000E+00 0. -1.
         13    1    4    4    0    0 -0.82813030820E+01  0.96118397839E+01 -0.97954804281E+00  0.12725485615E+02  0.10500000000E+00 0. -1.
    3000001    1    5    5    0    0  0.32472796040E+02 -0.24690304651E+02  0.15811790887E+01  0.40836181919E+02  0.10000000000E+01 0. -1.
        -13    1    6    6    0    0  0.83655411638E+01 -0.12367502823E+02  0.15981029057E+01  0.15016736095E+02  0.10500000000E+00 0. -1.
         13    1    6    6    0    0  0.36482178944E+01 -0.55123718109E+01  0.69061664524E+00  0.66470830548E+01  0.10500000000E+00 0.  1.
</event>
<event>
11    0  0.3422856E-009  0.9118800E+02  0.7816531E-02  0.1126479E+00
         25   -1    0    0    0    0  0.00000000000E+00  0.00000000000E+00  0.99999998245E-14  0.12500000000E+03  0.12500000000E+03 0.  0.
    3000001    1    3    3    0    0  0.23161331092E+01  0.17511989133E+02  0.15228531609E+02  0.23344001605E+02  0.10000000000E+01 0. -1.
    1000022    2    1    0    0    0  0.15832993957E+02  0.39473766896E+02  0.44692145841E+02  0.62500000664E+02  0.10000010622E+02 0.  0.
    3000022    2    3    3    0    0  0.13516860848E+02  0.21961777763E+02  0.29463614232E+02  0.39155999058E+02  0.24997788209E+00 0.  0.
    1000022    2    1    0    0    0 -0.15832993957E+02 -0.39473766896E+02 -0.44692145841E+02  0.62499999336E+02  0.10000002326E+02 0.  0.
    3000022    2    5    5    0    0 -0.10477532090E+02 -0.13411688397E+02 -0.18808169898E+02  0.25366549212E+02  0.24999930217E+00 0.  0.
        -13    1    4    4    0    0  0.10227453868E+02  0.16601113282E+02  0.22308443646E+02  0.29628963157E+02  0.10500000000E+00 0.  1.
         13    1    4    4    0    0  0.32894069799E+01  0.53606644808E+01  0.71551705860E+01  0.95270359016E+01  0.10500000000E+00 0. -1.
    3000001    1    5    5    0    0 -0.53554618669E+01 -0.26062078500E+02 -0.25883975943E+02  0.37133450125E+02  0.10000000000E+01 0.  1.
        -13    1    6    6    0    0 -0.75019635397E+01 -0.96614088337E+01 -0.13543119915E+02  0.18249641082E+02  0.10500000000E+00 0. -1.
         13    1    6    6    0    0 -0.29755685502E+01 -0.37502795629E+01 -0.52650499835E+01  0.71169081296E+01  0.10500000000E+00 0.  1.
</event>
<event>
11    0  0.3422856E-009  0.9118800E+02  0.7816531E-02  0.1126479E+00
         25   -1    0    0    0    0  0.00000000000E+00  0.00000000000E+00  0.99999998245E-14  0.12500000000E+03  0.12500000000E+03 0.  0.
    3000001    1    3    3    0    0  0.67013392986E+00 -0.92658273351E+01  0.34581585756E+00  0.93500922078E+01  0.10000000000E+01 0. -1.
    1000022    2    1    0    0    0 -0.10369214564E+02 -0.58932279760E+02 -0.15023846417E+02  0.62500000301E+02  0.99999934050E+01 0.  0.
    3000022    2    3    3    0    0 -0.11039348494E+02 -0.49666452425E+02 -0.15369662275E+02  0.53149908093E+02  0.25000050072E+00 0.  0.
    1000022    2    1    0    0    0  0.10369214564E+02  0.58932279760E+02  0.15023846417E+02  0.62499999699E+02  0.99999896400E+01 0.  0.
    3000022    2    5    5    0    0  0.91835209404E+01  0.57674106872E+02  0.15547430969E+02  0.60435294110E+02  0.25000822509E+00 0.  0.
        -13    1    4    4    0    0 -0.35535422340E+01 -0.15978648420E+02 -0.48915409252E+01  0.17084585607E+02  0.10500000000E+00 0.  1.
         13    1    4    4    0    0 -0.74858062595E+01 -0.33687804005E+02 -0.10478121350E+02  0.36065322486E+02  0.10500000000E+00 0. -1.
    3000001    1    5    5    0    0  0.11856936233E+01  0.12581728880E+01 -0.52358455172E+00  0.20647055885E+01  0.10000000000E+01 0.  1.
        -13    1    6    6    0    0  0.61716335352E+01  0.39084980356E+02  0.10532602256E+02  0.40947179209E+02  0.10500000000E+00 0. -1.
         13    1    6    6    0    0  0.30118874052E+01  0.18589126516E+02  0.50148287130E+01  0.19488114901E+02  0.10500000000E+00 0.  1.
</event>
<event>
11    0  0.3422856E-009  0.9118800E+02  0.7816531E-02  0.1126479E+00
         25   -1    0    0    0    0  0.00000000000E+00  0.00000000000E+00  0.99999998245E-14  0.12500000000E+03  0.12500000000E+03 0.  0.
    3000001    1    3    3    0    0  0.12080117167E+02  0.24919409196E+02  0.41130083050E+02  0.49594252864E+02  0.10000000000E+01 0.  1.
    1000022    2    1    0    0    0  0.10327257614E+02  0.30429898941E+02  0.52665155311E+02  0.62500003694E+02  0.10000043921E+02 0.  0.
    3000022    2    3    3    0    0 -0.17528595533E+01  0.55104897452E+01  0.11535072261E+02  0.12905750830E+02  0.24999713830E+00 0.  0.
    1000022    2    1    0    0    0 -0.10327257614E+02 -0.30429898941E+02 -0.52665155311E+02  0.62499996306E+02  0.99999977440E+01 0.  0.
    3000022    2    5    5    0    0 -0.16851150653E+01 -0.19970341950E+02 -0.31993268150E+02  0.37752958522E+02  0.24999967773E+00 0.  0.
        -13    1    4    4    0    0 -0.89933476152E+00  0.29069462862E+01  0.59286494995E+01  0.66647617821E+01  0.10500000000E+00 0. -1.
         13    1    4    4    0    0 -0.85352479179E+00  0.26035434591E+01  0.56064227617E+01  0.62409890479E+01  0.10500000000E+00 0.  1.
    3000001    1    5    5    0    0 -0.86421425487E+01 -0.10459556991E+02 -0.20671887161E+02  0.24747037784E+02  0.10000000000E+01 0. -1.
        -13    1    6    6    0    0 -0.76773951433E+00 -0.83404749181E+01 -0.13391095195E+02  0.15795106880E+02  0.10500000000E+00 0.  1.
         13    1    6    6    0    0 -0.91737555093E+00 -0.11629867032E+02 -0.18602172955E+02  0.21957851642E+02  0.10500000000E+00 0. -1.
</event>
<event>
11    0  0.3422856E-009  0.9118800E+02  0.7816531E-02  0.1126479E+00
         25   -1    0    0    0    0  0.00000000000E+00  0.00000000000E+00  0.99999998245E-14  0.12500000000E+03  0.12500000000E+03 0.  0.
    3000001    1    3    3    0    0  0.22064090888E+02 -0.10320719316E+02 -0.26989136157E+02  0.36369696513E+02  0.10000000000E+01 0. -1.
    1000022    2    1    0    0    0  0.43575956584E+02 -0.17026812698E+02 -0.40217828065E+02  0.62500001591E+02  0.10000008089E+02 0.  0.
    3000022    2    3    3    0    0  0.21511865696E+02 -0.67060933823E+01 -0.13228691908E+02  0.26130305079E+02  0.24999949203E+00 0.  0.
    1000022    2    1    0    0    0 -0.43575956584E+02  0.17026812698E+02  0.40217828065E+02  0.62499998409E+02  0.99999881968E+01 0.  0.
    3000022    2    5    5    0    0 -0.13152928705E+02  0.87756748959E+01  0.93562068060E+01  0.18374251196E+02  0.24999561946E+00 0.  0.
        -13    1    4    4    0    0  0.67843500327E+01 -0.21484840369E+01 -0.41339538998E+01  0.82306736583E+01  0.10500000000E+00 0.  1.
         13    1    4    4    0    0  0.14727515663E+02 -0.45576093454E+01 -0.90947380086E+01  0.17899631420E+02  0.10500000000E+00 0. -1.
    3000001    1    5    5    0    0 -0.30423027879E+02  0.82511378024E+01  0.30861621259E+02  0.44125747213E+02  0.10000000000E+01 0. -1.
        -13    1    6    6    0    0 -0.95299472662E+01  0.63713995046E+01  0.67405693080E+01  0.13298906953E+02  0.10500000000E+00 0.  1.
         13    1    6    6    0    0 -0.36229814388E+01  0.24042753913E+01  0.26156374980E+01  0.50753442430E+01  0.10500000000E+00 0. -1.
</event>
<event>
11    0  0.3422856E-009  0.9118800E+02  0.7816531E-02  0.1126479E+00
         25   -1    0    0    0    0  0.00000000000E+00  0.00000000000E+00  0.99999998245E-14  0.12500000000E+03  0.12500000000E+03 0.  0.
    3000001    1    3    3    0    0 -0.34699861094E+01 -0.16613239443E+02  0.12585152105E+02  0.21152460422E+02  0.10000000000E+01 0.  1.
    1000022    2    1    0    0    0 -0.58405052940E+01 -0.40037543937E+02  0.46573958871E+02  0.62499998343E+02  0.99999860706E+01 0.  0.
    3000022    2    3    3    0    0 -0.23705191846E+01 -0.23424304494E+02  0.33988806765E+02  0.41347537921E+02  0.25000914525E+00 0.  0.
    1000022    2    1    0    0    0  0.58405052940E+01  0.40037543937E+02 -0.46573958871E+02  0.62500001657E+02  0.10000006784E+02 0.  0.
    3000022    2    5    5    0    0  0.75717260213E+01  0.37110771407E+02 -0.40381254326E+02  0.55364687212E+02  0.24999961184E+00 0.  0.
        -13    1    4    4    0    0 -0.16764821191E+01 -0.16323932499E+02  0.23619103417E+02  0.28760292693E+02  0.10500000000E+00 0.  1.
         13    1    4    4    0    0 -0.69403706555E+00 -0.71003719948E+01  0.10369703348E+02  0.12587245228E+02  0.10500000000E+00 0. -1.
    3000001    1    5    5    0    0 -0.17312207273E+01  0.29267725294E+01 -0.61927045448E+01  0.71353144447E+01  0.10000000000E+01 0.  1.
        -13    1    6    6    0    0  0.32490791078E+01  0.15980309352E+02 -0.17291873176E+02  0.23768607552E+02  0.10500000000E+00 0.  1.
         13    1    6    6    0    0  0.43226469135E+01  0.21130462056E+02 -0.23089381150E+02  0.31596079660E+02  0.10500000000E+00 0. -1.
</event>
<event>
11    0  0.3422856E-009  0.9118800E+02  0.7816531E-02  0.1126479E+00
         25   -1    0    0    0    0  0.00000000000E+00  0.00000000000E+00  0.99999998245E-14  0.12500000000E+03  0.12500000000E+03 0.  0.
    3000001    1    3    3    0    0 -0.73885815405E+01  0.96018632281E+01  0.49444014094E+00  0.12166814936E+02  0.10000000000E+01 0. -1.
    1000022    2    1    0    0    0 -0.47244001663E+02  0.36824895847E+02  0.14770966381E+02  0.62500001983E+02  0.10000007635E+02 0.  0.
    3000022    2    3    3    0    0 -0.39855420122E+02  0.27223032619E+02  0.14276526240E+02  0.50333187047E+02  0.24999732880E+00 0.  0.
    1000022    2    1    0    0    0  0.47244001663E+02 -0.36824895847E+02 -0.14770966381E+02  0.62499998017E+02  0.99999828532E+01 0.  0.
    3000022    2    5    5    0    0  0.30642531400E+02 -0.17774626740E+02 -0.93078156578E+01  0.36627858876E+02  0.25005428887E+00 0.  0.
        -13    1    4    4    0    0 -0.18059261597E+02  0.12283400417E+02  0.64069207903E+01  0.22761338147E+02  0.10500000000E+00 0. -1.
         13    1    4    4    0    0 -0.21796158525E+02  0.14939632202E+02  0.78696054496E+01  0.27571848899E+02  0.10500000000E+00 0.  1.
    3000001    1    5    5    0    0  0.16601470263E+02 -0.19050269107E+02 -0.54631507232E+01  0.25872139142E+02  0.10000000000E+01 0. -1.
        -13    1    6    6    0    0  0.90085263592E+01 -0.51748036551E+01 -0.27265224505E+01  0.10741372804E+02  0.10500000000E+00 0.  1.
         13    1    6    6    0    0  0.21634005041E+02 -0.12599823085E+02 -0.65812932072E+01  0.25886486072E+02  0.10500000000E+00 0. -1.
</event>
<event>
11    0  0.3422856E-009  0.9118800E+02  0.7816531E-02  0.1126479E+00
         25   -1    0    0    0    0  0.00000000000E+00  0.00000000000E+00  0.99999998245E-14  0.12500000000E+03  0.12500000000E+03 0.  0.
    3000001    1    3    3    0    0 -0.73748467470E+01 -0.51734493634E+01 -0.30037230866E+01  0.95485755607E+01  0.10000000000E+01 0.  1.
    1000022    2    1    0    0    0 -0.37251084406E+02 -0.29770348525E+02 -0.39145026355E+02  0.62499999776E+02  0.99999971442E+01 0.  0.
    3000022    2    3    3    0    0 -0.29876237659E+02 -0.24596899162E+02 -0.36141303269E+02  0.52951424215E+02  0.24999883392E+00 0.  0.
    1000022    2    1    0    0    0  0.37251084406E+02  0.29770348525E+02  0.39145026355E+02  0.62500000224E+02  0.99999999453E+01 0.  0.
    3000022    2    5    5    0    0  0.27344189496E+01  0.26361793076E+01  0.73661495128E+01  0.82915106054E+01  0.25000228195E+00 0.  0.
        -13    1    4    4    0    0 -0.93160733719E+01 -0.76992648130E+01 -0.11228028274E+02  0.16496895031E+02  0.10500000000E+00 0.  1.
         13    1    4    4    0    0 -0.20560164287E+02 -0.16897634349E+02 -0.24913274995E+02  0.36454529185E+02  0.10500000000E+00 0. -1.
    3000001    1    5    5    0    0  0.34516665457E+02  0.27134169218E+02  0.31778876843E+02  0.54208489619E+02  0.10000000000E+01 0.  1.
        -13    1    6    6    0    0  0.15932657414E+01  0.15041673980E+01  0.43793378906E+01  0.48980241572E+01  0.10500000000E+00 0.  1.
         13    1    6    6    0    0  0.11411532082E+01  0.11320119096E+01  0.29868116221E+01  0.33934864482E+01  0.10500000000E+00 0. -1.
</event>
<event>
11    0  0.3422856E-009  0.9118800E+02  0.7816531E-02  0.1126479E+00
         25   -1    0    0    0    0  0.00000000000E+00  0.00000000000E+00  0.99999998245E-14  0.12500000000E+03  0.12500000000E+03 0.  0.
    3000001    1    3    3    0    0  0.31924355985E+01 -0.13655848503E+01 -0.72163817009E+00  0.36847291193E+01  0.10000000000E+01 0. -1.
    1000022    2    1    0    0    0  0.51044900422E+02  0.57077565139E+01 -0.34177326629E+02  0.62500000390E+02  0.10000002487E+02 0.  0.
    3000022    2    3    3    0    0  0.47852464823E+02  0.70733413642E+01 -0.33455688459E+02  0.58815271271E+02  0.24999331536E+00 0.  0.
    1000022    2    1    0    0    0 -0.51044900422E+02 -0.57077565139E+01  0.34177326629E+02  0.62499999610E+02  0.99999976143E+01 0.  0.
    3000022    2    5    5    0    0 -0.40392876903E+02 -0.15509902187E+01  0.23149212645E+02  0.46582600039E+02  0.25001026350E+00 0.  0.
        -13    1    4    4    0    0  0.13643720911E+02  0.20234993547E+01 -0.94900968918E+01  0.16742718834E+02  0.10500000000E+00 0. -1.
         13    1    4    4    0    0  0.34208743913E+02  0.50498420095E+01 -0.23965591567E+02  0.42072552437E+02  0.10500000000E+00 0.  1.
    3000001    1    5    5    0    0 -0.10652023519E+02 -0.41567662952E+01  0.11028113983E+02  0.15917399571E+02  0.10000000000E+01 0. -1.
        -13    1    6    6    0    0 -0.23350289371E+02 -0.83188891718E+00  0.13387886002E+02  0.26929065515E+02  0.10500000000E+00 0.  1.
         13    1    6    6    0    0 -0.17042587532E+02 -0.71910130155E+00  0.97613266439E+01  0.19653534524E+02  0.10500000000E+00 0. -1.
</event>
<event>
11    0  0.3422856E-009  0.9118800E+02  0.7816531E-02  0.1126479E+00
         25   -1    0    0    0    0  0.00000000000E+00  0.00000000000E+00  0.99999998245E-14  0.12500000000E+03  0.12500000000E+03 0.  0.
    3000001    1    3    3    0    0 -0.44484779076E+02 -0.70095632101E+01  0.56945030300E+01  0.45403269823E+02  0.10000000000E+01 0. -1.
    1000022    2    1    0    0    0 -0.60607950533E+02 -0.43098217157E+01  0.10693544140E+02  0.62499999633E+02  0.99999918430E+01 0.  0.
    3000022    2    3    3    0    0 -0.16123171457E+02  0.26997414944E+01  0.49990411105E+01  0.17096729810E+02  0.24999245350E+00 0.  0.
    1000022    2    1    0    0    0  0.60607950533E+02  0.43098217157E+01 -0.10693544140E+02  0.62500000367E+02  0.99999964294E+01 0.  0.
    3000022    2    5    5    0    0  0.48605041577E+02  0.34445067796E+01 -0.12461350395E+02  0.50295749784E+02  0.24999803198E+00 0.  0.
        -13    1    4    4    0    0 -0.39263676758E+01  0.63520501843E+00  0.12158567760E+01  0.41604304154E+01  0.10500000000E+00 0. -1.
         13    1    4    4    0    0 -0.12196803781E+02  0.20645364759E+01  0.37831843345E+01  0.12936299395E+02  0.10500000000E+00 0.  1.
    3000001    1    5    5    0    0  0.12002908956E+02  0.86531493607E+00  0.17678062544E+01  0.12204250583E+02  0.10000000000E+01 0.  1.
        -13    1    6    6    0    0  0.19158464743E+02  0.13977406638E+01 -0.48630363173E+01  0.19815665457E+02  0.10500000000E+00 0. -1.
         13    1    6    6    0    0  0.29446576834E+02  0.20467661158E+01 -0.75983140775E+01  0.30480084327E+02  0.10500000000E+00 0.  1.
</event>
<event>
11    0  0.3422856E-009  0.9118800E+02  0.7816531E-02  0.1126479E+00
         25   -1    0    0    0    0  0.00000000000E+00  0.00000000000E+00  0.99999998245E-14  0.12500000000E+03  0.12500000000E+03 0.  0.
    3000001    1    3    3    0    0 -0.44925925410E+01 -0.93823745464E+01 -0.64889360528E+00  0.10470597059E+02  0.10000000000E+01 0. -1.
    1000022    2    1    0    0    0 -0.18240759019E+02 -0.56738547784E+02  0.15945594643E+02  0.62499999917E+02  0.99999953400E+01 0.  0.
    3000022    2    3    3    0    0 -0.13748166478E+02 -0.47356173238E+02  0.16594488248E+02  0.52029402857E+02  0.24999243501E+00 0.  0.
    1000022    2    1    0    0    0  0.18240759019E+02  0.56738547784E+02 -0.15945594643E+02  0.62500000083E+02  0.99999963825E+01 0.  0.
    3000022    2    5    5    0    0  0.58429109808E+01  0.20924976875E+02 -0.10726552783E+02  0.24230470491E+02  0.24999936262E+00 0.  0.
        -13    1    4    4    0    0 -0.67125831205E+01 -0.22880854150E+02  0.80156342009E+01  0.25156583143E+02  0.10500000000E+00 0.  1.
         13    1    4    4    0    0 -0.70355833575E+01 -0.24475319088E+02  0.85788540475E+01  0.26872819715E+02  0.10500000000E+00 0. -1.
    3000001    1    5    5    0    0  0.12397848038E+02  0.35813570909E+02 -0.52190418600E+01  0.38269529592E+02  0.10000000000E+01 0.  1.
        -13    1    6    6    0    0  0.24343280008E+01  0.85787123589E+01 -0.43449956193E+01  0.99201950829E+01  0.10500000000E+00 0.  1.
         13    1    6    6    0    0  0.34085829800E+01  0.12346264516E+02 -0.63815571638E+01  0.14310275408E+02  0.10500000000E+00 0. -1.
</event>
<event>
11    0  0.3422856E-009  0.9118800E+02  0.7816531E-02  0.1126479E+00
         25   -1    0    0    0    0  0.00000000000E+00  0.00000000000E+00  0.99999998245E-14  0.12500000000E+03  0.12500000000E+03 0.  0.
    3000001    1    3    3    0    0  0.15050327471E+02  0.17450050978E+02  0.17152701341E+02  0.28744248110E+02  0.10000000000E+01 0. -1.
    1000022    2    1    0    0    0  0.31823397664E+02  0.29514217102E+02  0.43845552173E+02  0.62499999897E+02  0.99999945865E+01 0.  0.
    3000022    2    3    3    0    0  0.16773070194E+02  0.12064166124E+02  0.26692850832E+02  0.33755751787E+02  0.25001038105E+00 0.  0.
    1000022    2    1    0    0    0 -0.31823397664E+02 -0.29514217102E+02 -0.43845552173E+02  0.62500000103E+02  0.99999958752E+01 0.  0.
    3000022    2    5    5    0    0 -0.25464106435E+02 -0.28145455607E+02 -0.37114478393E+02  0.53086103609E+02  0.25000431807E+00 0.  0.
        -13    1    4    4    0    0  0.66951609551E+01  0.47532582803E+01  0.10547339160E+02  0.13366975456E+02  0.10500000000E+00 0. -1.
         13    1    4    4    0    0  0.10077909238E+02  0.73109078435E+01  0.16145511671E+02  0.20388776330E+02  0.10500000000E+00 0.  1.
    3000001    1    5    5    0    0 -0.63592912292E+01 -0.13687614949E+01 -0.67310737797E+01  0.94138964938E+01  0.10000000000E+01 0.  1.
        -13    1    6    6    0    0 -0.70440476440E+01 -0.77304068258E+01 -0.10238900824E+02  0.14636389991E+02  0.10500000000E+00 0.  1.
         13    1    6    6    0    0 -0.18420058791E+02 -0.20415048781E+02 -0.26875577569E+02  0.38449713618E+02  0.10500000000E+00 0. -1.
</event>
<event>
11    0  0.3422856E-009  0.9118800E+02  0.7816531E-02  0.1126479E+00
         25   -1    0    0    0    0  0.00000000000E+00  0.00000000000E+00  0.99999998245E-14  0.12500000000E+03  0.12500000000E+03 0.  0.
    3000001    1    3    3    0    0  0.48694701161E+01  0.36899428700E+02  0.32514291133E+02  0.49431353466E+02  0.10000000000E+01 0. -1.
    1000022    2    1    0    0    0  0.10839355064E+02  0.46480856273E+02  0.39093331797E+02  0.62500001307E+02  0.99999977116E+01 0.  0.
    3000022    2    3    3    0    0  0.59698849483E+01  0.95814275738E+01  0.65790406633E+01  0.13068647841E+02  0.24999936893E+00 0.  0.
    1000022    2    1    0    0    0 -0.10839355064E+02 -0.46480856273E+02 -0.39093331797E+02  0.62499998693E+02  0.99999813803E+01 0.  0.
    3000022    2    5    5    0    0 -0.10982585553E+02 -0.26570597108E+02 -0.21354122895E+02  0.35814450780E+02  0.25000786680E+00 0.  0.
        -13    1    4    4    0    0  0.28972519296E+01  0.46058752407E+01  0.30976031800E+01  0.62621342957E+01  0.10500000000E+00 0. -1.
         13    1    4    4    0    0  0.30726330187E+01  0.49755523330E+01  0.34814374833E+01  0.68065135449E+01  0.10500000000E+00 0.  1.
    3000001    1    5    5    0    0  0.14323048847E+00 -0.19910259166E+02 -0.17739208901E+02  0.26685547914E+02  0.10000000000E+01 0.  1.
        -13    1    6    6    0    0 -0.63188485379E+01 -0.15448993410E+02 -0.12421397087E+02  0.20806282100E+02  0.10500000000E+00 0.  1.
         13    1    6    6    0    0 -0.46637370151E+01 -0.11121603698E+02 -0.89327258088E+01  0.15008168680E+02  0.10500000000E+00 0. -1.
</event>
<event>
11    0  0.3422856E-009  0.9118800E+02  0.7816531E-02  0.1126479E+00
         25   -1    0    0    0    0  0.00000000000E+00  0.00000000000E+00  0.99999998245E-14  0.12500000000E+03  0.12500000000E+03 0.  0.
    3000001    1    3    3    0    0 -0.18055115871E+01 -0.86932483133E+00 -0.28886894850E+01  0.36551504339E+01  0.10000000000E+01 0. -1.
    1000022    2    1    0    0    0  0.70489194996E+00 -0.33003077286E+02 -0.52120530370E+02  0.62500004325E+02  0.10000043580E+02 0.  0.
    3000022    2    3    3    0    0  0.25104035371E+01 -0.32133752455E+02 -0.49231840885E+02  0.58844853891E+02  0.24999965284E+00 0.  0.
    1000022    2    1    0    0    0 -0.70489194996E+00  0.33003077286E+02  0.52120530370E+02  0.62499995675E+02  0.99999895143E+01 0.  0.
    3000022    2    5    5    0    0  0.32323933558E+01  0.80788138917E+01  0.18556172990E+02  0.20496576675E+02  0.24999731928E+00 0.  0.
        -13    1    4    4    0    0  0.12262109929E+01 -0.15708946022E+02 -0.24191150456E+02  0.28870354413E+02  0.10500000000E+00 0. -1.
         13    1    4    4    0    0  0.12841925441E+01 -0.16424806433E+02 -0.25040690429E+02  0.29974499479E+02  0.10500000000E+00 0. -1.
    3000001    1    5    5    0    0 -0.39372853057E+01  0.24924263394E+02  0.33564357380E+02  0.42003419000E+02  0.10000000000E+01 0. -1.
        -13    1    6    6    0    0  0.17467486762E+01  0.42983143355E+01  0.97464973157E+01  0.10794992913E+02  0.10500000000E+00 0. -1.
         13    1    6    6    0    0  0.14856446796E+01  0.37804995562E+01  0.88096756744E+01  0.97015837623E+01  0.10500000000E+00 0.  1.
</event>
<event>
11    0  0.3422856E-009  0.9118800E+02  0.7816531E-02  0.1126479E+00
         25   -1    0    0    0    0  0.00000000000E+00  0.00000000000E+00  0.99999998245E-14  0.12500000000E+03  0.12500000000E+03 0.  0.
    3000001    1    3    3    0    0 -0.73453580615E+01  0.13019553315E+02  0.20065529750E+02  0.25041735917E+02  0.10000000000E+01 0.  1.
    1000022    2    1    0    0    0 -0.26365411465E+02  0.23499318973E+02  0.50585541839E+02  0.62500000142E+02  0.10000003033E+02 0.  0.
    3000022    2    3    3    0    0 -0.19020053404E+02  0.10479765658E+02  0.30520012090E+02  0.37458264225E+02  0.25000223506E+00 0.  0.
    1000022    2    1    0    0    0  0.26365411465E+02 -0.23499318973E+02 -0.50585541839E+02  0.62499999858E+02  0.10000001256E+02 0.  0.
    3000022    2    5    5    0    0 -0.26058039635E+00 -0.31004453001E+01 -0.50207897592E+01  0.59119788475E+01  0.25000177111E+00 0.  0.
        -13    1    4    4    0    0 -0.13901275352E+02  0.76875279569E+01  0.22280676745E+02  0.27363901837E+02  0.10500000000E+00 0. -1.
         13    1    4    4    0    0 -0.51187780519E+01  0.27922377006E+01  0.82393353441E+01  0.10094362389E+02  0.10500000000E+00 0.  1.
    3000001    1    5    5    0    0  0.26625991862E+02 -0.20398873673E+02 -0.45564752080E+02  0.56588021010E+02  0.10000000000E+01 0.  1.
        -13    1    6    6    0    0 -0.12178156973E+00 -0.95237148415E+00 -0.15999966018E+01  0.18689184895E+01  0.10500000000E+00 0. -1.
         13    1    6    6    0    0 -0.13879882662E+00 -0.21480738159E+01 -0.34207931574E+01  0.40430603580E+01  0.10500000000E+00 0.  1.
</event>
<event>
11    0  0.3422856E-009  0.9118800E+02  0.7816531E-02  0.1126479E+00
         25   -1    0    0    0    0  0.00000000000E+00  0.00000000000E+00  0.99999998245E-14  0.12500000000E+03  0.12500000000E+03 0.  0.
    3000001    1    3    3    0    0  0.37080669669E+00 -0.26642348944E+00  0.30559021805E+00  0.11409927534E+01  0.10000000000E+01 0.  1.
    1000022    2    1    0    0    0 -0.58781998560E+01 -0.19691175840E+02  0.58171766127E+02  0.62500001051E+02  0.10000005876E+02 0.  0.
    3000022    2    3    3    0    0 -0.62490065527E+01 -0.19424752351E+02  0.57866175909E+02  0.61359008298E+02  0.24999629621E+00 0.  0.
    1000022    2    1    0    0    0  0.58781998560E+01  0.19691175840E+02 -0.58171766127E+02  0.62499998949E+02  0.99999927357E+01 0.  0.
    3000022    2    5    5    0    0 -0.22955752871E+01  0.83568808562E+01 -0.26082416687E+02  0.27485670591E+02  0.25000807325E+00 0.  0.
        -13    1    4    4    0    0 -0.25982000667E+01 -0.82296194576E+01  0.24338479432E+02  0.25823436760E+02  0.10500000000E+00 0.  1.
         13    1    4    4    0    0 -0.36508064860E+01 -0.11195132893E+02  0.33527696477E+02  0.35535571538E+02  0.10500000000E+00 0. -1.
    3000001    1    5    5    0    0  0.81737751431E+01  0.11334294984E+02 -0.32089349440E+02  0.35014328358E+02  0.10000000000E+01 0.  1.
        -13    1    6    6    0    0 -0.12373219149E+01  0.44757876768E+01 -0.14186533745E+02  0.14927571991E+02  0.10500000000E+00 0. -1.
         13    1    6    6    0    0 -0.10582533722E+01  0.38810931794E+01 -0.11895882942E+02  0.12558098600E+02  0.10500000000E+00 0.  1.
</event>
<event>
11    0  0.3422856E-009  0.9118800E+02  0.7816531E-02  0.1126479E+00
         25   -1    0    0    0    0  0.00000000000E+00  0.00000000000E+00  0.99999998245E-14  0.12500000000E+03  0.12500000000E+03 0.  0.
    3000001    1    3    3    0    0  0.25526206705E+02 -0.37898573029E+02  0.13807665418E+02  0.47744535715E+02  0.10000000000E+01 0.  1.
    1000022    2    1    0    0    0  0.34775813728E+02 -0.49342323156E+02  0.12736869042E+02  0.62500000952E+02  0.10000010555E+02 0.  0.
    3000022    2    3    3    0    0  0.92496070237E+01 -0.11443750128E+02 -0.10707963764E+01  0.14755465237E+02  0.25000481992E+00 0.  0.
    1000022    2    1    0    0    0 -0.34775813728E+02  0.49342323156E+02 -0.12736869042E+02  0.62499999048E+02  0.99999986539E+01 0.  0.
    3000022    2    5    5    0    0 -0.24131490829E+02  0.36583690827E+02 -0.48933800318E+01  0.44098786350E+02  0.25001051233E+00 0.  0.
        -13    1    4    4    0    0  0.53936924855E+01 -0.67127591121E+01 -0.68617101628E+00  0.86391497955E+01  0.10500000000E+00 0.  1.
         13    1    4    4    0    0  0.38559145382E+01 -0.47309910155E+01 -0.38462536013E+00  0.61163154417E+01  0.10500000000E+00 0. -1.
    3000001    1    5    5    0    0 -0.10644322899E+02  0.12758632329E+02 -0.78434890102E+01  0.18401212697E+02  0.10000000000E+01 0. -1.
        -13    1    6    6    0    0 -0.15353446289E+02  0.23377999330E+02 -0.31067352262E+01  0.28141108621E+02  0.10500000000E+00 0.  1.
         13    1    6    6    0    0 -0.87780445403E+01  0.13205691497E+02 -0.17866448056E+01  0.15957677730E+02  0.10500000000E+00 0. -1.
</event>
<event>
11    0  0.3422856E-009  0.9118800E+02  0.7816531E-02  0.1126479E+00
         25   -1    0    0    0    0  0.00000000000E+00  0.00000000000E+00  0.99999998245E-14  0.12500000000E+03  0.12500000000E+03 0.  0.
    3000001    1    3    3    0    0  0.16911430714E+02 -0.48241668845E+01 -0.19284197077E+01  0.17719703087E+02  0.10000000000E+01 0. -1.
    1000022    2    1    0    0    0  0.54973498350E+02 -0.27785835481E+02  0.34802105337E+01  0.62499999964E+02  0.99999977959E+01 0.  0.
    3000022    2    3    3    0    0  0.38062067636E+02 -0.22961668596E+02  0.54086302415E+01  0.44780296877E+02  0.24997965710E+00 0.  0.
    1000022    2    1    0    0    0 -0.54973498350E+02  0.27785835481E+02 -0.34802105337E+01  0.62500000036E+02  0.99999982466E+01 0.  0.
    3000022    2    5    5    0    0 -0.36203441364E+02  0.15876997615E+02 -0.64352420331E+01  0.40053003138E+02  0.25000099274E+00 0.  0.
        -13    1    4    4    0    0  0.19472569341E+02 -0.11765395719E+02  0.28346092594E+01  0.22927091569E+02  0.10500000000E+00 0.  1.
         13    1    4    4    0    0  0.18589498295E+02 -0.11196272878E+02  0.25740209821E+01  0.21853205308E+02  0.10500000000E+00 0. -1.
    3000001    1    5    5    0    0 -0.18770056986E+02  0.11908837866E+02  0.29550314993E+01  0.22446996898E+02  0.10000000000E+01 0. -1.
        -13    1    6    6    0    0 -0.19051907249E+02  0.82826642570E+01 -0.33695110620E+01  0.21046195067E+02  0.10500000000E+00 0.  1.
         13    1    6    6    0    0 -0.17151534115E+02  0.75943333583E+01 -0.30657309710E+01  0.19006808071E+02  0.10500000000E+00 0. -1.
</event>
<event>
11    0  0.3422856E-009  0.9118800E+02  0.7816531E-02  0.1126479E+00
         25   -1    0    0    0    0  0.00000000000E+00  0.00000000000E+00  0.99999998245E-14  0.12500000000E+03  0.12500000000E+03 0.  0.
    3000001    1    3    3    0    0  0.10172928464E+02 -0.34468168324E+01  0.33374713169E+01  0.11291932279E+02  0.10000000000E+01 0. -1.
    1000022    2    1    0    0    0  0.57993979946E+02 -0.20944976449E+02 -0.20630258642E+01  0.62500002199E+02  0.10000022537E+02 0.  0.
    3000022    2    3    3    0    0  0.47821051483E+02 -0.17498159616E+02 -0.54004971811E+01  0.51208069920E+02  0.25000058902E+00 0.  0.
    1000022    2    1    0    0    0 -0.57993979946E+02  0.20944976449E+02  0.20630258642E+01  0.62499997801E+02  0.99999950492E+01 0.  0.
    3000022    2    5    5    0    0 -0.17266657925E+02  0.77563684733E+01 -0.37126399896E+01  0.19291058270E+02  0.25001138029E+00 0.  0.
        -13    1    4    4    0    0  0.25425995505E+02 -0.92379456059E+01 -0.28962970078E+01  0.27206992627E+02  0.10500000000E+00 0. -1.
         13    1    4    4    0    0  0.22395055977E+02 -0.82602140103E+01 -0.25042001733E+01  0.24001077293E+02  0.10500000000E+00 0.  1.
    3000001    1    5    5    0    0 -0.40727322022E+02  0.13188607975E+02  0.57756658539E+01  0.43208939531E+02  0.10000000000E+01 0.  1.
        -13    1    6    6    0    0 -0.77333896835E+01  0.35123931274E+01 -0.17236379001E+01  0.86674202672E+01  0.10500000000E+00 0.  1.
         13    1    6    6    0    0 -0.95332682410E+01  0.42439753460E+01 -0.19890020895E+01  0.10623638002E+02  0.10500000000E+00 0. -1.
</event>
<event>
11    0  0.3422856E-009  0.9118800E+02  0.7816531E-02  0.1126479E+00
         25   -1    0    0    0    0  0.00000000000E+00  0.00000000000E+00  0.99999998245E-14  0.12500000000E+03  0.12500000000E+03 0.  0.
    3000001    1    3    3    0    0 -0.17979441683E+02  0.22068779575E+02  0.14642978568E+02  0.32026679136E+02  0.10000000000E+01 0. -1.
    1000022    2    1    0    0    0 -0.26389131416E+02  0.46995142406E+02  0.30022002044E+02  0.62500000396E+02  0.99999888023E+01 0.  0.
    3000022    2    3    3    0    0 -0.84096897332E+01  0.24926362831E+02  0.15379023477E+02  0.30473321260E+02  0.25000018040E+00 0.  0.
    1000022    2    1    0    0    0  0.26389131416E+02 -0.46995142406E+02 -0.30022002044E+02  0.62499999604E+02  0.99999838574E+01 0.  0.
    3000022    2    5    5    0    0  0.72891215072E+01 -0.55452299723E+01 -0.46941606034E+01  0.10294586367E+02  0.24999379104E+00 0.  0.
        -13    1    4    4    0    0 -0.48401293746E+01  0.14481170525E+02  0.88699892820E+01  0.17658394236E+02  0.10500000000E+00 0.  1.
         13    1    4    4    0    0 -0.35695603586E+01  0.10445192306E+02  0.65090341946E+01  0.12814927023E+02  0.10500000000E+00 0. -1.
    3000001    1    5    5    0    0  0.19100009909E+02 -0.41449912434E+02 -0.25327841441E+02  0.52205413238E+02  0.10000000000E+01 0. -1.
        -13    1    6    6    0    0  0.45480808659E+01 -0.34426896655E+01 -0.29893210467E+01  0.64408242498E+01  0.10500000000E+00 0. -1.
         13    1    6    6    0    0  0.27410406412E+01 -0.21025403068E+01 -0.17048395567E+01  0.38537621167E+01  0.10500000000E+00 0.  1.
</event>
<event>
11    0  0.3422856E-009  0.9118800E+02  0.7816531E-02  0.1126479E+00
         25   -1    0    0    0    0  0.00000000000E+00  0.00000000000E+00  0.99999998245E-14  0.12500000000E+03  0.12500000000E+03 0.  0.
    3000001    1    3    3    0    0  0.12436129731E+02 -0.34508248044E+02  0.46345591000E+01  0.36985884385E+02  0.10000000000E+01 0. -1.
    1000022    2    1    0    0    0  0.27148245269E+02 -0.54201595911E+02  0.11463418261E+02  0.62500000354E+02  0.99999932752E+01 0.  0.
    3000022    2    3    3    0    0  0.14712115538E+02 -0.19693347868E+02  0.68288591612E+01  0.25514115968E+02  0.25000475225E+00 0.  0.
    1000022    2    1    0    0    0 -0.27148245269E+02  0.54201595911E+02 -0.11463418261E+02  0.62499999646E+02  0.99999888512E+01 0.  0.
    3000022    2    5    5    0    0 -0.24184302778E+02  0.44284962254E+02 -0.61785657428E+01  0.50835770382E+02  0.24998601736E+00 0.  0.
        -13    1    4    4    0    0  0.78185075855E+01 -0.10578024810E+02  0.36518855851E+01  0.13651775089E+02  0.10500000000E+00 0. -1.
         13    1    4    4    0    0  0.68936079520E+01 -0.91153230576E+01  0.31769735760E+01  0.11862340880E+02  0.10500000000E+00 0.  1.
    3000001    1    5    5    0    0 -0.29639424907E+01  0.99166336577E+01 -0.52848525183E+01  0.11664229264E+02  0.10000000000E+01 0.  1.
        -13    1    6    6    0    0 -0.15597625338E+02  0.28658221811E+02 -0.40287331452E+01  0.32875846898E+02  0.10500000000E+00 0. -1.
         13    1    6    6    0    0 -0.85866774405E+01  0.15626740443E+02 -0.21498325976E+01  0.17959923483E+02  0.10500000000E+00 0.  1.
</event>
<event>
11    0  0.3422856E-009  0.9118800E+02  0.7816531E-02  0.1126479E+00
         25   -1    0    0    0    0  0.00000000000E+00  0.00000000000E+00  0.99999998245E-14  0.12500000000E+03  0.12500000000E+03 0.  0.
    3000001    1    3    3    0    0 -0.36325249998E+02 -0.10832485231E+02 -0.36893408494E+01  0.38098264522E+02  0.10000000000E+01 0. -1.
    1000022    2    1    0    0    0 -0.58341958624E+02 -0.20008888718E+02  0.14526869402E+01  0.62500001960E+02  0.10000009089E+02 0.  0.
    3000022    2    3    3    0    0 -0.22016708626E+02 -0.91764034868E+01  0.51420277896E+01  0.24401737438E+02  0.25000099740E+00 0.  0.
    1000022    2    1    0    0    0  0.58341958624E+02  0.20008888718E+02 -0.14526869402E+01  0.62499998040E+02  0.99999845920E+01 0.  0.
    3000022    2    5    5    0    0  0.31508166660E+02  0.73687549295E+01 -0.44771980528E+01  0.32667582100E+02  0.25000471765E+00 0.  0.
        -13    1    4    4    0    0 -0.74089764728E+01 -0.30300675240E+01  0.17183899034E+01  0.81876816276E+01  0.10500000000E+00 0. -1.
         13    1    4    4    0    0 -0.14607732153E+02 -0.61463359628E+01  0.34236378862E+01  0.16214055810E+02  0.10500000000E+00 0.  1.
    3000001    1    5    5    0    0  0.26833791964E+02  0.12640133788E+02  0.30245111126E+01  0.29832415940E+02  0.10000000000E+01 0. -1.
        -13    1    6    6    0    0  0.12996988355E+02  0.30177088801E+01 -0.19072907030E+01  0.13478763149E+02  0.10500000000E+00 0. -1.
         13    1    6    6    0    0  0.18511178305E+02  0.43510460494E+01 -0.25699073498E+01  0.19188818951E+02  0.10500000000E+00 0.  1.
</event>
<event>
11    0  0.3422856E-009  0.9118800E+02  0.7816531E-02  0.1126479E+00
         25   -1    0    0    0    0  0.00000000000E+00  0.00000000000E+00  0.99999998245E-14  0.12500000000E+03  0.12500000000E+03 0.  0.
    3000001    1    3    3    0    0  0.48330456274E+01 -0.21251680574E+01 -0.31747615301E+01  0.62412963462E+01  0.10000000000E+01 0.  1.
    1000022    2    1    0    0    0  0.53135120058E+02 -0.30880760162E+02 -0.54118289717E+01  0.62499997394E+02  0.99999724874E+01 0.  0.
    3000022    2    3    3    0    0  0.48302074430E+02 -0.28755592104E+02 -0.22370674416E+01  0.56258701048E+02  0.25000265704E+00 0.  0.
    1000022    2    1    0    0    0 -0.53135120058E+02  0.30880760162E+02  0.54118289717E+01  0.62500002606E+02  0.10000005058E+02 0.  0.
    3000022    2    5    5    0    0 -0.13085465349E+02  0.80175368310E+01  0.56984777619E+01  0.16372093582E+02  0.24999843817E+00 0.  0.
        -13    1    4    4    0    0  0.34931921094E+02 -0.20780322288E+02 -0.15812877571E+01  0.40676435460E+02  0.10500000000E+00 0.  1.
         13    1    4    4    0    0  0.13370153336E+02 -0.79752698161E+01 -0.65577968447E+00  0.15582265588E+02  0.10500000000E+00 0. -1.
    3000001    1    5    5    0    0 -0.40049654709E+02  0.22863223331E+02 -0.28664879024E+00  0.46127909024E+02  0.10000000000E+01 0. -1.
        -13    1    6    6    0    0 -0.32571575210E+01  0.20016719481E+01  0.14469788374E+01  0.40890755019E+01  0.10500000000E+00 0.  1.
         13    1    6    6    0    0 -0.98283078279E+01  0.60158648829E+01  0.42514989245E+01  0.12283018080E+02  0.10500000000E+00 0. -1.
</event>
<event>
11    0  0.3422856E-009  0.9118800E+02  0.7816531E-02  0.1126479E+00
         25   -1    0    0    0    0  0.00000000000E+00  0.00000000000E+00  0.99999998245E-14  0.12500000000E+03  0.12500000000E+03 0.  0.
    3000001    1    3    3    0    0 -0.63910989425E+01  0.35782032205E+00 -0.43190309078E+01  0.77864118218E+01  0.10000000000E+01 0.  1.
    1000022    2    1    0    0    0 -0.33048162493E+02 -0.10938037424E+00 -0.52096609908E+02  0.62500001285E+02  0.10000019423E+02 0.  0.
    3000022    2    3    3    0    0 -0.26657063551E+02 -0.46720069629E+00 -0.47777579000E+02  0.54713589463E+02  0.25000636708E+00 0.  0.
    1000022    2    1    0    0    0  0.33048162493E+02  0.10938037424E+00  0.52096609908E+02  0.62499998715E+02  0.10000003364E+02 0.  0.
    3000022    2    5    5    0    0  0.25293691050E+02  0.39059124720E+01  0.41929637344E+02  0.49124169229E+02  0.25011092786E+00 0.  0.
        -13    1    4    4    0    0 -0.15415755063E+02 -0.33366591166E+00 -0.27659547803E+02  0.31667308802E+02  0.10500000000E+00 0.  1.
         13    1    4    4    0    0 -0.11241308488E+02 -0.13353478463E+00 -0.20118031197E+02  0.23046280661E+02  0.10500000000E+00 0. -1.
    3000001    1    5    5    0    0  0.77544714436E+01 -0.37965320977E+01  0.10166972564E+02  0.13375829487E+02  0.10000000000E+01 0. -1.
        -13    1    6    6    0    0  0.95282297678E+01  0.15212587388E+01  0.15740519172E+02  0.18462837254E+02  0.10500000000E+00 0. -1.
         13    1    6    6    0    0  0.15765461282E+02  0.23846537331E+01  0.26189118171E+02  0.30661331975E+02  0.10500000000E+00 0.  1.
</event>
<event>
11    0  0.3422856E-009  0.9118800E+02  0.7816531E-02  0.1126479E+00
         25   -1    0    0    0    0  0.00000000000E+00  0.00000000000E+00  0.99999998245E-14  0.12500000000E+03  0.12500000000E+03 0.  0.
    3000001    1    3    3    0    0 -0.35504454973E+02 -0.47188024111E+02  0.15808337003E+02  0.61140653098E+02  0.10000000000E+01 0.  1.
    1000022    2    1    0    0    0 -0.35057540998E+02 -0.48376561421E+02  0.15392438335E+02  0.62500000332E+02  0.10000000397E+02 0.  0.
    3000022    2    3    3    0    0  0.44691397546E+00 -0.11885373099E+01 -0.41589866743E+00  0.13593472346E+01  0.25000032838E+00 0.  0.
    1000022    2    1    0    0    0  0.35057540998E+02  0.48376561421E+02 -0.15392438335E+02  0.62499999668E+02  0.99999962426E+01 0.  0.
    3000022    2    5    5    0    0  0.30666150730E+02  0.45341489864E+02 -0.16015092527E+02  0.57033404194E+02  0.25000312148E+00 0.  0.
        -13    1    4    4    0    0  0.13889864019E+00 -0.32509409093E+00 -0.79884897395E-01  0.37734016091E+00  0.10500000000E+00 0. -1.
         13    1    4    4    0    0  0.30801533527E+00 -0.86344321894E+00 -0.33601377003E+00  0.98200707368E+00  0.10500000000E+00 0. -1.
    3000001    1    5    5    0    0  0.43913902675E+01  0.30350715565E+01  0.62265419141E+00  0.54665954740E+01  0.10000000000E+01 0. -1.
        -13    1    6    6    0    0  0.16369678654E+02  0.24220886918E+02 -0.84837600877E+01  0.30440153622E+02  0.10500000000E+00 0.  1.
         13    1    6    6    0    0  0.14296472077E+02  0.21120602946E+02 -0.75313324389E+01  0.26593250571E+02  0.10500000000E+00 0. -1.
</event>
<event>
11    0  0.3422856E-009  0.9118800E+02  0.7816531E-02  0.1126479E+00
         25   -1    0    0    0    0  0.00000000000E+00  0.00000000000E+00  0.99999998245E-14  0.12500000000E+03  0.12500000000E+03 0.  0.
    3000001    1    3    3    0    0  0.87369328059E+01 -0.85345754141E+01 -0.33138027851E+02  0.35331315602E+02  0.10000000000E+01 0.  1.
    1000022    2    1    0    0    0  0.22634156619E+02 -0.10755081795E+02 -0.56376174874E+02  0.62500000795E+02  0.10000008785E+02 0.  0.
    3000022    2    3    3    0    0  0.13897223813E+02 -0.22205063806E+01 -0.23238147023E+02  0.27168685193E+02  0.24999946232E+00 0.  0.
    1000022    2    1    0    0    0 -0.22634156619E+02  0.10755081795E+02  0.56376174874E+02  0.62499999205E+02  0.99999988432E+01 0.  0.
    3000022    2    5    5    0    0 -0.12176195834E+02  0.59214713458E+01  0.41525271414E+02  0.43677617120E+02  0.25000677801E+00 0.  0.
        -13    1    4    4    0    0  0.74672249354E+01 -0.11716702277E+01 -0.12603480234E+02  0.14696632212E+02  0.10500000000E+00 0.  1.
         13    1    4    4    0    0  0.64299988777E+01 -0.10488361530E+01 -0.10634666789E+02  0.12472052981E+02  0.10500000000E+00 0. -1.
    3000001    1    5    5    0    0 -0.10457960785E+02  0.48336104490E+01  0.14850903460E+02  0.18822382085E+02  0.10000000000E+01 0.  1.
        -13    1    6    6    0    0 -0.86274880256E+01  0.42434014193E+01  0.29487374445E+02  0.31015420066E+02  0.10500000000E+00 0. -1.
         13    1    6    6    0    0 -0.35487078083E+01  0.16780699264E+01  0.12037896969E+02  0.12662197054E+02  0.10500000000E+00 0.  1.
</event>
<event>
11    0  0.3422856E-009  0.9118800E+02  0.7816531E-02  0.1126479E+00
         25   -1    0    0    0    0  0.00000000000E+00  0.00000000000E+00  0.99999998245E-14  0.12500000000E+03  0.12500000000E+03 0.  0.
    3000001    1    3    3    0    0 -0.13970404013E+02  0.14380767247E+02  0.74036631374E+01  0.21396095035E+02  0.10000000000E+01 0. -1.
    1000022    2    1    0    0    0 -0.38050345540E+02  0.47625978483E+02  0.94967026360E+01  0.62499999351E+02  0.99999967843E+01 0.  0.
    3000022    2    3    3    0    0 -0.24079941528E+02  0.33245211236E+02  0.20930394985E+01  0.41103904316E+02  0.24996312384E+00 0.  0.
    1000022    2    1    0    0    0  0.38050345540E+02 -0.47625978483E+02 -0.94967026360E+01  0.62500000649E+02  0.10000004896E+02 0.  0.
    3000022    2    5    5    0    0  0.32695052951E+02 -0.39225490341E+02 -0.11365218007E+02  0.52314780502E+02  0.24999739112E+00 0.  0.
        -13    1    4    4    0    0 -0.73898410695E+01  0.10276597862E+02  0.62503213946E+00  0.12673590842E+02  0.10500000000E+00 0. -1.
         13    1    4    4    0    0 -0.16690100458E+02  0.22968613375E+02  0.14680073591E+01  0.28430313475E+02  0.10500000000E+00 0.  1.
    3000001    1    5    5    0    0  0.53552925896E+01 -0.84004881427E+01  0.18685153705E+01  0.10185220147E+02  0.10000000000E+01 0. -1.
        -13    1    6    6    0    0  0.18646469328E+02 -0.22307339730E+02 -0.64181894309E+01  0.29774358176E+02  0.10500000000E+00 0. -1.
         13    1    6    6    0    0  0.14048583623E+02 -0.16918150610E+02 -0.49470285756E+01  0.22540422326E+02  0.10500000000E+00 0.  1.
</event>
<event>
11    0  0.3422856E-009  0.9118800E+02  0.7816531E-02  0.1126479E+00
         25   -1    0    0    0    0  0.00000000000E+00  0.00000000000E+00  0.99999998245E-14  0.12500000000E+03  0.12500000000E+03 0.  0.
    3000001    1    3    3    0    0 -0.47452701442E+01  0.12622269626E+02  0.41553469861E+01  0.14145889432E+02  0.10000000000E+01 0. -1.
    1000022    2    1    0    0    0 -0.30319981737E+02  0.44963923035E+02  0.29414185800E+02  0.62499998437E+02  0.99999905556E+01 0.  0.
    3000022    2    3    3    0    0 -0.25574711593E+02  0.32341653409E+02  0.25258838814E+02  0.48354109005E+02  0.25000226966E+00 0.  0.
    1000022    2    1    0    0    0  0.30319981737E+02 -0.44963923035E+02 -0.29414185800E+02  0.62500001563E+02  0.10000010097E+02 0.  0.
    3000022    2    5    5    0    0  0.16099536449E+02 -0.31160756762E+02 -0.16025753691E+02  0.38562612865E+02  0.24998758263E+00 0.  0.
        -13    1    4    4    0    0 -0.16765651941E+02  0.21217554004E+02  0.16630108292E+02  0.31746546422E+02  0.10500000000E+00 0.  1.
         13    1    4    4    0    0 -0.88090596521E+01  0.11124099405E+02  0.86287305216E+01  0.16607562583E+02  0.10500000000E+00 0. -1.
    3000001    1    5    5    0    0  0.14220445288E+02 -0.13803166273E+02 -0.13388432109E+02  0.23937388698E+02  0.10000000000E+01 0. -1.
        -13    1    6    6    0    0  0.83672632671E+01 -0.16309876568E+02 -0.84219693439E+01  0.20173342828E+02  0.10500000000E+00 0. -1.
         13    1    6    6    0    0  0.77322731818E+01 -0.14850880194E+02 -0.76037843468E+01  0.18389270037E+02  0.10500000000E+00 0.  1.
</event>
<event>
11    0  0.3422856E-009  0.9118800E+02  0.7816531E-02  0.1126479E+00
         25   -1    0    0    0    0  0.00000000000E+00  0.00000000000E+00  0.99999998245E-14  0.12500000000E+03  0.12500000000E+03 0.  0.
    3000001    1    3    3    0    0  0.22808801000E+02  0.23071520937E+02  0.45022270181E+02  0.55502624205E+02  0.10000000000E+01 0.  1.
    1000022    2    1    0    0    0  0.22213760628E+02  0.26205376285E+02  0.51245265660E+02  0.62500002191E+02  0.10000005696E+02 0.  0.
    3000022    2    3    3    0    0 -0.59504037122E+00  0.31338553476E+01  0.62229954784E+01  0.69973779862E+01  0.25000715013E+00 0.  0.
    1000022    2    1    0    0    0 -0.22213760628E+02 -0.26205376285E+02 -0.51245265660E+02  0.62499997809E+02  0.99999783041E+01 0.  0.
    3000022    2    5    5    0    0 -0.29218286388E+01  0.12782859884E+00 -0.62139758234E+01  0.68723663326E+01  0.25000146024E+00 0.  0.
        -13    1    4    4    0    0 -0.36372926254E+00  0.21420417572E+01  0.41698504823E+01  0.47031181051E+01  0.10500000000E+00 0. -1.
         13    1    4    4    0    0 -0.23131110868E+00  0.99181359038E+00  0.20531449961E+01  0.22942598811E+01  0.10500000000E+00 0.  1.
    3000001    1    5    5    0    0 -0.19291931990E+02 -0.26333204883E+02 -0.45031289836E+02  0.55627631476E+02  0.10000000000E+01 0.  1.
        -13    1    6    6    0    0 -0.15352646890E+01  0.13068849641E+00 -0.32159362625E+01  0.35675465229E+01  0.10500000000E+00 0. -1.
         13    1    6    6    0    0 -0.13865639498E+01 -0.28598975674E-02 -0.29980395608E+01  0.33048198097E+01  0.10500000000E+00 0.  1.
</event>
<event>
11    0  0.3422856E-009  0.9118800E+02  0.7816531E-02  0.1126479E+00
         25   -1    0    0    0    0  0.00000000000E+00  0.00000000000E+00  0.99999998245E-14  0.12500000000E+03  0.12500000000E+03 0.  0.
    3000001    1    3    3    0    0  0.31660557876E+02 -0.16218340688E+02  0.34388874924E+02  0.49487576403E+02  0.10000000000E+01 0.  1.
    1000022    2    1    0    0    0  0.38116136236E+02 -0.24867833256E+02  0.41653341202E+02  0.62500000529E+02  0.10000013022E+02 0.  0.
    3000022    2    3    3    0    0  0.64555783604E+01 -0.86494925679E+01  0.72644662780E+01  0.13012424127E+02  0.24999538909E+00 0.  0.
    1000022    2    1    0    0    0 -0.38116136236E+02  0.24867833256E+02 -0.41653341202E+02  0.62499999471E+02  0.10000006405E+02 0.  0.
    3000022    2    5    5    0    0 -0.16051036745E+02  0.16261728836E+02 -0.19133046405E+02  0.29802945680E+02  0.25000228652E+00 0.  0.
        -13    1    4    4    0    0  0.32807115799E+01 -0.43486116968E+01  0.35920311499E+01  0.65258872916E+01  0.10500000000E+00 0. -1.
         13    1    4    4    0    0  0.31748667805E+01 -0.43008808711E+01  0.36724351281E+01  0.64865368350E+01  0.10500000000E+00 0.  1.
    3000001    1    5    5    0    0 -0.22065099491E+02  0.86061044200E+01 -0.22520294797E+02  0.32697053791E+02  0.10000000000E+01 0. -1.
        -13    1    6    6    0    0 -0.48986883061E+01  0.50276801231E+01 -0.58592856824E+01  0.91442314192E+01  0.10500000000E+00 0. -1.
         13    1    6    6    0    0 -0.11152348439E+02  0.11234048713E+02 -0.13273760722E+02  0.20658714261E+02  0.10500000000E+00 0.  1.
</event>
<event>
11    0  0.3422856E-009  0.9118800E+02  0.7816531E-02  0.1126479E+00
         25   -1    0    0    0    0  0.00000000000E+00  0.00000000000E+00  0.99999998245E-14  0.12500000000E+03  0.12500000000E+03 0.  0.
    3000001    1    3    3    0    0 -0.97142591657E+01  0.12631468640E+02  0.92499716984E+01  0.18452176228E+02  0.10000000000E+01 0. -1.
    1000022    2    1    0    0    0 -0.42041464284E+02  0.40783850585E+02  0.19376346368E+02  0.62499999822E+02  0.99999995717E+01 0.  0.
    3000022    2    3    3    0    0 -0.32327205119E+02  0.28152381945E+02  0.10126374670E+02  0.44047823593E+02  0.24999880988E+00 0.  0.
    1000022    2    1    0    0    0  0.42041464284E+02 -0.40783850585E+02 -0.19376346368E+02  0.62500000178E+02  0.10000001803E+02 0.  0.
    3000022    2    5    5    0    0  0.90933154803E+00  0.17717046463E+00 -0.14487356013E+01  0.17377025208E+01  0.25000394093E+00 0.  0.
        -13    1    4    4    0    0 -0.10703942979E+02  0.93645220292E+01  0.34030816044E+01  0.14623975435E+02  0.10500000000E+00 0. -1.
         13    1    4    4    0    0 -0.21623262140E+02  0.18787859916E+02  0.67232930654E+01  0.29423848158E+02  0.10500000000E+00 0.  1.
    3000001    1    5    5    0    0  0.41132132736E+02 -0.40961021049E+02 -0.17927610767E+02  0.60762297658E+02  0.10000000000E+01 0.  1.
        -13    1    6    6    0    0  0.39710623816E+00  0.36217706820E-01 -0.53386880053E+00  0.67457096206E+00  0.10500000000E+00 0.  1.
         13    1    6    6    0    0  0.51222530987E+00  0.14095275781E+00 -0.91486680076E+00  0.10631315587E+01  0.10500000000E+00 0. -1.
</event>
<event>
11    0  0.3422856E-009  0.9118800E+02  0.7816531E-02  0.1126479E+00
         25   -1    0    0    0    0  0.00000000000E+00  0.00000000000E+00  0.99999998245E-14  0.12500000000E+03  0.12500000000E+03 0.  0.
    3000001    1    3    3    0    0 -0.39513014434E+01  0.16320328749E+02 -0.13876581029E+02  0.21806545225E+02  0.10000000000E+01 0.  1.
    1000022    2    1    0    0    0 -0.39417066038E+01  0.53386777845E+02 -0.30668632298E+02  0.62499999591E+02  0.99999921141E+01 0.  0.
    3000022    2    3    3    0    0  0.95948395749E-02  0.37066449096E+02 -0.16792051269E+02  0.40693454366E+02  0.25000369453E+00 0.  0.
    1000022    2    1    0    0    0  0.39417066038E+01 -0.53386777845E+02  0.30668632298E+02  0.62500000409E+02  0.99999972254E+01 0.  0.
    3000022    2    5    5    0    0  0.31684543198E+01 -0.22328574073E+02  0.18306174469E+02  0.29047940619E+02  0.25001522288E+00 0.  0.
        -13    1    4    4    0    0  0.37945654392E-02  0.23553937353E+02 -0.10605964944E+02  0.25831869785E+02  0.10500000000E+00 0.  1.
         13    1    4    4    0    0  0.58002741357E-02  0.13512511743E+02 -0.61860863246E+01  0.14861584581E+02  0.10500000000E+00 0. -1.
    3000001    1    5    5    0    0  0.77325228406E+00 -0.31058203771E+02  0.12362457829E+02  0.33452059790E+02  0.10000000000E+01 0.  1.
        -13    1    6    6    0    0  0.11263393752E+01 -0.76678144984E+01  0.63433409959E+01  0.10015638749E+02  0.10500000000E+00 0.  1.
         13    1    6    6    0    0  0.20421149446E+01 -0.14660759575E+02  0.11962833473E+02  0.19032301870E+02  0.10500000000E+00 0. -1.
</event>
<event>
11    0  0.3422856E-009  0.9118800E+02  0.7816531E-02  0.1126479E+00
         25   -1    0    0    0    0  0.00000000000E+00  0.00000000000E+00  0.99999998245E-14  0.12500000000E+03  0.12500000000E+03 0.  0.
    3000001    1    3    3    0    0  0.35043108973E+02 -0.12812718159E+02 -0.48443679607E+02  0.61155337681E+02  0.10000000000E+01 0.  1.
    1000022    2    1    0    0    0  0.34799645374E+02 -0.12053232218E+02 -0.49497014587E+02  0.62500001668E+02  0.10000001522E+02 0.  0.
    3000022    2    3    3    0    0 -0.24346359873E+00  0.75948594070E+00 -0.10533349805E+01  0.13446639870E+01  0.25002647607E+00 0.  0.
    1000022    2    1    0    0    0 -0.34799645374E+02  0.12053232218E+02  0.49497014587E+02  0.62499998332E+02  0.99999806667E+01 0.  0.
    3000022    2    5    5    0    0  0.20141613894E+00 -0.60508312733E+00  0.22109380277E+01  0.23146156310E+01  0.25000900950E+00 0.  0.
        -13    1    4    4    0    0 -0.20395930522E+00  0.53908293528E+00 -0.69037995897E+00  0.90546082027E+00  0.10500000000E+00 0.  1.
         13    1    4    4    0    0 -0.39504293508E-01  0.22040300542E+00 -0.36295502154E+00  0.43920316673E+00  0.10500000000E+00 0. -1.
    3000001    1    5    5    0    0 -0.35001061513E+02  0.12658315345E+02  0.47286076559E+02  0.60185382701E+02  0.10000000000E+01 0.  1.
        -13    1    6    6    0    0  0.18724266505E+00 -0.40864162224E+00  0.14645960627E+01  0.15356153223E+01  0.10500000000E+00 0.  1.
         13    1    6    6    0    0  0.14173473894E-01 -0.19644150510E+00  0.74634196494E+00  0.77900030868E+00  0.10500000000E+00 0. -1.
</event>
<event>
11    0  0.3422856E-009  0.9118800E+02  0.7816531E-02  0.1126479E+00
         25   -1    0    0    0    0  0.00000000000E+00  0.00000000000E+00  0.99999998245E-14  0.12500000000E+03  0.12500000000E+03 0.  0.
    3000001    1    3    3    0    0 -0.22418574043E+02  0.39327128295E+02 -0.35192112626E+02  0.57347190630E+02  0.10000000000E+01 0.  1.
    1000022    2    1    0    0    0 -0.26653744407E+02  0.41062404059E+02 -0.37546067270E+02  0.62500000822E+02  0.99999908624E+01 0.  0.
    3000022    2    3    3    0    0 -0.42351703631E+01  0.17352757646E+01 -0.23539546441E+01  0.51528101919E+01  0.25000084750E+00 0.  0.
    1000022    2    1    0    0    0  0.26653744407E+02 -0.41062404059E+02  0.37546067270E+02  0.62499999178E+02  0.99999805876E+01 0.  0.
    3000022    2    5    5    0    0  0.12343446274E+02 -0.14955403505E+02  0.95354768393E+01  0.21610473784E+02  0.24999746684E+00 0.  0.
        -13    1    4    4    0    0 -0.25444402314E+01  0.99050550278E+00 -0.14497889770E+01  0.30932491526E+01  0.10500000000E+00 0. -1.
         13    1    4    4    0    0 -0.16907301317E+01  0.74477026183E+00 -0.90416566713E+00  0.20595610394E+01  0.10500000000E+00 0.  1.
    3000001    1    5    5    0    0  0.14310298133E+02 -0.26107000555E+02  0.28010590431E+02  0.40889525394E+02  0.10000000000E+01 0.  1.
        -13    1    6    6    0    0  0.50988832872E+01 -0.60809824650E+01  0.38836027756E+01  0.88357429815E+01  0.10500000000E+00 0.  1.
         13    1    6    6    0    0  0.72445629866E+01 -0.88744210396E+01  0.56518740636E+01  0.12774730803E+02  0.10500000000E+00 0. -1.
</event>
<event>
11    0  0.3422856E-009  0.9118800E+02  0.7816531E-02  0.1126479E+00
         25   -1    0    0    0    0  0.00000000000E+00  0.00000000000E+00  0.99999998245E-14  0.12500000000E+03  0.12500000000E+03 0.  0.
    3000001    1    3    3    0    0 -0.66664939350E+01  0.11289778112E+01  0.12061025355E+01  0.69405630615E+01  0.10000000000E+01 0.  1.
    1000022    2    1    0    0    0 -0.47958015660E+02  0.22734201668E+02  0.31455287381E+02  0.62500001028E+02  0.99999916405E+01 0.  0.
    3000022    2    3    3    0    0 -0.41291521725E+02  0.21605223857E+02  0.30249184846E+02  0.55559437967E+02  0.24999825107E+00 0.  0.
    1000022    2    1    0    0    0  0.47958015660E+02 -0.22734201668E+02 -0.31455287381E+02  0.62499998972E+02  0.99999787868E+01 0.  0.
    3000022    2    5    5    0    0  0.42782865032E+02 -0.22650260019E+02 -0.30278594288E+02  0.57098717933E+02  0.24999661659E+00 0.  0.
        -13    1    4    4    0    0 -0.29143293277E+02  0.15278366298E+02  0.21316064605E+02  0.39206449151E+02  0.10500000000E+00 0.  1.
         13    1    4    4    0    0 -0.12148228448E+02  0.63268575585E+01  0.89331202407E+01  0.16352988816E+02  0.10500000000E+00 0. -1.
    3000001    1    5    5    0    0  0.51751506275E+01 -0.83941648781E-01 -0.11766930935E+01  0.54012810382E+01  0.10000000000E+01 0. -1.
        -13    1    6    6    0    0  0.24038783014E+02 -0.12678991800E+02 -0.17058868401E+02  0.32087940694E+02  0.10500000000E+00 0. -1.
         13    1    6    6    0    0  0.18744082018E+02 -0.99712682193E+01 -0.13219725887E+02  0.25010777240E+02  0.10500000000E+00 0.  1.
</event>
<event>
11    0  0.3422856E-009  0.9118800E+02  0.7816531E-02  0.1126479E+00
         25   -1    0    0    0    0  0.00000000000E+00  0.00000000000E+00  0.99999998245E-14  0.12500000000E+03  0.12500000000E+03 0.  0.
    3000001    1    3    3    0    0 -0.15580510069E+02  0.15229729016E+02  0.10393286317E+02  0.24160242970E+02  0.10000000000E+01 0.  1.
    1000022    2    1    0    0    0 -0.29659395147E+02  0.44468843172E+02  0.30807340964E+02  0.62499999953E+02  0.10000000163E+02 0.  0.
    3000022    2    3    3    0    0 -0.14078885078E+02  0.29239114156E+02  0.20414054648E+02  0.38339756983E+02  0.25007333494E+00 0.  0.
    1000022    2    1    0    0    0  0.29659395147E+02 -0.44468843172E+02 -0.30807340964E+02  0.62500000047E+02  0.10000000752E+02 0.  0.
    3000022    2    5    5    0    0  0.30064408906E+02 -0.42222254525E+02 -0.29954631673E+02  0.59865932882E+02  0.25000229792E+00 0.  0.
        -13    1    4    4    0    0 -0.10127291208E+02  0.21075557336E+02  0.14749746919E+02  0.27646106478E+02  0.10500000000E+00 0.  1.
         13    1    4    4    0    0 -0.39515938704E+01  0.81635568202E+01  0.56643077284E+01  0.10693650505E+02  0.10500000000E+00 0. -1.
    3000001    1    5    5    0    0 -0.40501375888E+00 -0.22465886476E+01 -0.85270929181E+00  0.26340671656E+01  0.10000000000E+01 0.  1.
        -13    1    6    6    0    0  0.12840138565E+02 -0.17966783564E+02 -0.12701193243E+02  0.25475592334E+02  0.10500000000E+00 0. -1.
         13    1    6    6    0    0  0.17224270341E+02 -0.24255470961E+02 -0.17253438430E+02  0.34390340547E+02  0.10500000000E+00 0.  1.
</event>
<event>
11    0  0.3422856E-009  0.9118800E+02  0.7816531E-02  0.1126479E+00
         25   -1    0    0    0    0  0.00000000000E+00  0.00000000000E+00  0.99999998245E-14  0.12500000000E+03  0.12500000000E+03 0.  0.
    3000001    1    3    3    0    0 -0.77248830021E+01 -0.28941206882E+01 -0.23392854813E+02  0.24824894930E+02  0.10000000000E+01 0.  1.
    1000022    2    1    0    0    0 -0.30201645606E+02 -0.54908293611E+01 -0.53515991599E+02  0.62500000199E+02  0.10000003179E+02 0.  0.
    3000022    2    3    3    0    0 -0.22476762604E+02 -0.25967086729E+01 -0.30123136786E+02  0.37675105269E+02  0.24986818118E+00 0.  0.
    1000022    2    1    0    0    0  0.30201645606E+02  0.54908293611E+01  0.53515991599E+02  0.62499999801E+02  0.10000000697E+02 0.  0.
    3000022    2    5    5    0    0  0.17891026001E+01  0.10451683415E+01  0.10773065950E+02  0.10973364019E+02  0.25000592255E+00 0.  0.
        -13    1    4    4    0    0 -0.85896820486E+01 -0.10361571772E+01 -0.11590089418E+02  0.14463659879E+02  0.10500000000E+00 0. -1.
         13    1    4    4    0    0 -0.13887080555E+02 -0.15605514957E+01 -0.18533047368E+02  0.23211445389E+02  0.10500000000E+00 0.  1.
    3000001    1    5    5    0    0  0.28412543006E+02  0.44456610196E+01  0.42742925650E+02  0.51526635782E+02  0.10000000000E+01 0.  1.
        -13    1    6    6    0    0  0.12426106616E+01  0.70813822830E+00  0.71633358554E+01  0.73054737413E+01  0.10500000000E+00 0. -1.
         13    1    6    6    0    0  0.54649193856E+00  0.33703011317E+00  0.36097300944E+01  0.36678902779E+01  0.10500000000E+00 0.  1.
</event>
<event>
11    0  0.3422856E-009  0.9118800E+02  0.7816531E-02  0.1126479E+00
         25   -1    0    0    0    0  0.00000000000E+00  0.00000000000E+00  0.99999998245E-14  0.12500000000E+03  0.12500000000E+03 0.  0.
    3000001    1    3    3    0    0  0.29204034695E+01  0.22534800096E+01 -0.64899394442E+01  0.75316825854E+01  0.10000000000E+01 0.  1.
    1000022    2    1    0    0    0  0.65258318825E+01  0.36910140535E+02 -0.49003114348E+02  0.62499998422E+02  0.99999815444E+01 0.  0.
    3000022    2    3    3    0    0  0.36054284130E+01  0.34656660526E+02 -0.42513174903E+02  0.54968315836E+02  0.24994540508E+00 0.  0.
    1000022    2    1    0    0    0 -0.65258318825E+01 -0.36910140535E+02  0.49003114348E+02  0.62500001578E+02  0.10000001271E+02 0.  0.
    3000022    2    5    5    0    0  0.12455335273E+01 -0.20986091911E+02  0.27612373231E+02  0.34705519204E+02  0.25000063515E+00 0.  0.
        -13    1    4    4    0    0  0.10649758816E+01  0.99006611424E+01 -0.12185811352E+02  0.15737289728E+02  0.10500000000E+00 0. -1.
         13    1    4    4    0    0  0.25404525315E+01  0.24755999383E+02 -0.30327363552E+02  0.39231026108E+02  0.10500000000E+00 0.  1.
    3000001    1    5    5    0    0 -0.77713654098E+01 -0.15924048624E+02  0.21390741116E+02  0.27794482374E+02  0.10000000000E+01 0. -1.
        -13    1    6    6    0    0  0.65942984065E+00 -0.10586729430E+02  0.13832332396E+02  0.17431526962E+02  0.10500000000E+00 0.  1.
         13    1    6    6    0    0  0.58610368662E+00 -0.10399362481E+02  0.13780040836E+02  0.17273992242E+02  0.10500000000E+00 0. -1.
</event>
<event>
11    0  0.3422856E-009  0.9118800E+02  0.7816531E-02  0.1126479E+00
         25   -1    0    0    0    0  0.00000000000E+00  0.00000000000E+00  0.99999998245E-14  0.12500000000E+03  0.12500000000E+03 0.  0.
    3000001    1    3    3    0    0  0.25765270470E+02 -0.72842467004E+01 -0.12650076887E+02  0.29629948661E+02  0.10000000000E+01 0. -1.
    1000022    2    1    0    0    0  0.57270420845E+02 -0.15736946632E+02 -0.16694231119E+02  0.62500000643E+02  0.10000006735E+02 0.  0.
    3000022    2    3    3    0    0  0.31505150374E+02 -0.84526999316E+01 -0.40441542323E+01  0.32870051982E+02  0.24999521694E+00 0.  0.
    1000022    2    1    0    0    0 -0.57270420845E+02  0.15736946632E+02  0.16694231119E+02  0.62499999357E+02  0.99999986950E+01 0.  0.
    3000022    2    5    5    0    0 -0.25374938222E+02  0.38926944045E+01  0.11247133438E+02  0.28028576472E+02  0.25005792285E+00 0.  0.
        -13    1    4    4    0    0  0.20790399319E+02 -0.55294024145E+01 -0.26385134608E+01  0.21674588190E+02  0.10500000000E+00 0.  1.
         13    1    4    4    0    0  0.10714751055E+02 -0.29232975171E+01 -0.14056407715E+01  0.11195463793E+02  0.10500000000E+00 0. -1.
    3000001    1    5    5    0    0 -0.31895482623E+02  0.11844252227E+02  0.54470976812E+01  0.34471422885E+02  0.10000000000E+01 0. -1.
        -13    1    6    6    0    0 -0.17844234609E+02  0.26946171938E+01  0.79231136157E+01  0.19709500881E+02  0.10500000000E+00 0.  1.
         13    1    6    6    0    0 -0.75307036131E+01  0.11980772107E+01  0.33240198224E+01  0.83190755912E+01  0.10500000000E+00 0. -1.
</event>
<event>
11    0  0.3422856E-009  0.9118800E+02  0.7816531E-02  0.1126479E+00
         25   -1    0    0    0    0  0.00000000000E+00  0.00000000000E+00  0.99999998245E-14  0.12500000000E+03  0.12500000000E+03 0.  0.
    3000001    1    3    3    0    0 -0.49942194810E+02  0.13143382743E+02  0.74328901840E+01  0.52184472680E+02  0.10000000000E+01 0.  1.
    1000022    2    1    0    0    0 -0.58516395780E+02  0.18650578151E+02  0.58512870446E+01  0.62499999363E+02  0.99999859943E+01 0.  0.
    3000022    2    3    3    0    0 -0.85742009697E+01  0.55071954088E+01 -0.15816031394E+01  0.10315526684E+02  0.24999745704E+00 0.  0.
    1000022    2    1    0    0    0  0.58516395780E+02 -0.18650578151E+02 -0.58512870446E+01  0.62500000637E+02  0.99999939517E+01 0.  0.
    3000022    2    5    5    0    0  0.68423233330E+01 -0.15097750761E+01 -0.38778015136E+01  0.80122814839E+01  0.25000124821E+00 0.  0.
        -13    1    4    4    0    0 -0.54136574012E+01  0.35445947191E+01 -0.98829807445E+00  0.65467240865E+01  0.10500000000E+00 0.  1.
         13    1    4    4    0    0 -0.31605435684E+01  0.19626006897E+01 -0.59330506497E+00  0.37688025970E+01  0.10500000000E+00 0. -1.
    3000001    1    5    5    0    0  0.51674072447E+02 -0.17140803075E+02 -0.19734855309E+01  0.54487719153E+02  0.10000000000E+01 0.  1.
        -13    1    6    6    0    0  0.19393098991E+01 -0.46939190386E+00 -0.10957896142E+01  0.22788223982E+01  0.10500000000E+00 0.  1.
         13    1    6    6    0    0  0.49030134339E+01 -0.10403831722E+01 -0.27820118995E+01  0.57334590857E+01  0.10500000000E+00 0. -1.
</event>
<event>
11    0  0.3422856E-009  0.9118800E+02  0.7816531E-02  0.1126479E+00
         25   -1    0    0    0    0  0.00000000000E+00  0.00000000000E+00  0.99999998245E-14  0.12500000000E+03  0.12500000000E+03 0.  0.
    3000001    1    3    3    0    0  0.38702839916E+00  0.10770977426E+01  0.12247792476E+01  0.19519259039E+01  0.10000000000E+01 0. -1.
    1000022    2    1    0    0    0  0.16518431761E+02  0.59435351775E+02  0.91106041325E+00  0.62499996929E+02  0.99999978291E+01 0.  0.
    3000022    2    3    3    0    0  0.16131403361E+02  0.58358254032E+02 -0.31371883432E+00  0.60548071025E+02  0.24999444716E+00 0.  0.
    1000022    2    1    0    0    0 -0.16518431761E+02 -0.59435351775E+02 -0.91106041325E+00  0.62500003071E+02  0.10000036222E+02 0.  0.
    3000022    2    5    5    0    0 -0.15581348424E+02 -0.43172418007E+02 -0.32451756168E+01  0.46013365036E+02  0.25000382796E+00 0.  0.
        -13    1    4    4    0    0  0.44417269359E+01  0.16080060413E+02 -0.48476170406E-01  0.16682645354E+02  0.10500000000E+00 0. -1.
         13    1    4    4    0    0  0.11689676426E+02  0.42278193619E+02 -0.26524266391E+00  0.43865425671E+02  0.10500000000E+00 0.  1.
    3000001    1    5    5    0    0 -0.93708333629E+00 -0.16262933768E+02  0.23341152035E+01  0.16486638035E+02  0.10000000000E+01 0. -1.
        -13    1    6    6    0    0 -0.85158508528E+01 -0.23791700496E+02 -0.17844508629E+01  0.25332982812E+02  0.10500000000E+00 0.  1.
         13    1    6    6    0    0 -0.70654975715E+01 -0.19380717511E+02 -0.14607247538E+01  0.20680382225E+02  0.10500000000E+00 0. -1.
</event>
<event>
11    0  0.3422856E-009  0.9118800E+02  0.7816531E-02  0.1126479E+00
         25   -1    0    0    0    0  0.00000000000E+00  0.00000000000E+00  0.99999998245E-14  0.12500000000E+03  0.12500000000E+03 0.  0.
    3000001    1    3    3    0    0 -0.44507291814E+02  0.25716598431E+00  0.10423815976E+02  0.45723310231E+02  0.10000000000E+01 0.  1.
    1000022    2    1    0    0    0 -0.61049701280E+02  0.23449791168E+01  0.85840472950E+01  0.62500006063E+02  0.99999968207E+01 0.  0.
    3000022    2    3    3    0    0 -0.16542409466E+02  0.20878131325E+01 -0.18397686811E+01  0.16776695831E+02  0.24999922404E+00 0.  0.
    1000022    2    1    0    0    0  0.61049701280E+02 -0.23449791168E+01 -0.85840472950E+01  0.62499993937E+02  0.99999210381E+01 0.  0.
    3000022    2    5    5    0    0  0.31320560453E+02 -0.37351960860E+00  0.52492165583E+00  0.31328183238E+02  0.24999657302E+00 0.  0.
        -13    1    4    4    0    0 -0.12445177589E+02  0.15477442061E+01 -0.13731995162E+01  0.12616444002E+02  0.10500000000E+00 0.  1.
         13    1    4    4    0    0 -0.40972318772E+01  0.54006892642E+00 -0.46656916486E+00  0.41602518297E+01  0.10500000000E+00 0. -1.
    3000001    1    5    5    0    0  0.29729140828E+02 -0.19714595082E+01 -0.91089689508E+01  0.31171810699E+02  0.10000000000E+01 0. -1.
        -13    1    6    6    0    0  0.21814175173E+02 -0.21363945570E+00  0.36062473573E+00  0.21818454471E+02  0.10500000000E+00 0.  1.
         13    1    6    6    0    0  0.95063852798E+01 -0.15988015290E+00  0.16429692010E+00  0.95097287674E+01  0.10500000000E+00 0. -1.
</event>
<event>
11    0  0.3422856E-009  0.9118800E+02  0.7816531E-02  0.1126479E+00
         25   -1    0    0    0    0  0.00000000000E+00  0.00000000000E+00  0.99999998245E-14  0.12500000000E+03  0.12500000000E+03 0.  0.
    3000001    1    3    3    0    0 -0.58900514499E+02  0.61110599081E+01  0.90535000791E+01  0.59913116470E+02  0.10000000000E+01 0. -1.
    1000022    2    1    0    0    0 -0.60330371409E+02  0.79351386506E+01  0.10174954767E+02  0.62500001030E+02  0.10000014223E+02 0.  0.
    3000022    2    3    3    0    0 -0.14298569102E+01  0.18240787425E+01  0.11214546878E+01  0.25868845601E+01  0.25011411045E+00 0.  0.
    1000022    2    1    0    0    0  0.60330371409E+02 -0.79351386506E+01 -0.10174954767E+02  0.62499998970E+02  0.10000001347E+02 0.  0.
    3000022    2    5    5    0    0  0.28829796082E+02 -0.58733506721E+01 -0.94658672853E+01  0.30908227562E+02  0.24999464972E+00 0.  0.
        -13    1    4    4    0    0 -0.11079099973E+01  0.14050429269E+01  0.85833957880E+00  0.19873052158E+01  0.10500000000E+00 0.  1.
         13    1    4    4    0    0 -0.32194691290E+00  0.41903581565E+00  0.26311510898E+00  0.59957934429E+00  0.10500000000E+00 0. -1.
    3000001    1    5    5    0    0  0.31500575328E+02 -0.20617879785E+01 -0.70908748154E+00  0.31591771408E+02  0.10000000000E+01 0. -1.
        -13    1    6    6    0    0  0.18047801965E+02 -0.36397517137E+01 -0.58729710578E+01  0.19325469266E+02  0.10500000000E+00 0.  1.
         13    1    6    6    0    0  0.10781994117E+02 -0.22335989583E+01 -0.35928962275E+01  0.11582758296E+02  0.10500000000E+00 0. -1.
</event>
<event>
11    0  0.3422856E-009  0.9118800E+02  0.7816531E-02  0.1126479E+00
         25   -1    0    0    0    0  0.00000000000E+00  0.00000000000E+00  0.99999998245E-14  0.12500000000E+03  0.12500000000E+03 0.  0.
    3000001    1    3    3    0    0  0.42111304261E+01 -0.22130424544E+01 -0.20655580767E+02  0.21219900876E+02  0.10000000000E+01 0.  1.
    1000022    2    1    0    0    0  0.13422345863E+02 -0.19642880344E+02 -0.56923174041E+02  0.62499999835E+02  0.10000005992E+02 0.  0.
    3000022    2    3    3    0    0  0.92112154366E+01 -0.17429837889E+02 -0.36267593274E+02  0.41280098959E+02  0.25001902250E+00 0.  0.
    1000022    2    1    0    0    0 -0.13422345863E+02  0.19642880344E+02  0.56923174041E+02  0.62500000165E+02  0.10000008053E+02 0.  0.
    3000022    2    5    5    0    0 -0.21317908119E+01  0.85359564787E+01  0.12191333203E+02  0.15036561858E+02  0.25000437692E+00 0.  0.
        -13    1    4    4    0    0  0.67801558231E+01 -0.12755113038E+02 -0.26569407750E+02  0.30242484600E+02  0.10500000000E+00 0.  1.
         13    1    4    4    0    0  0.24310596135E+01 -0.46747248515E+01 -0.96981855233E+01  0.11037614358E+02  0.10500000000E+00 0. -1.
    3000001    1    5    5    0    0 -0.11290555051E+02  0.11106923865E+02  0.44731840838E+02  0.47463438307E+02  0.10000000000E+01 0. -1.
        -13    1    6    6    0    0 -0.11464586745E+01  0.47717161546E+01  0.68841911230E+01  0.84549840314E+01  0.10500000000E+00 0. -1.
         13    1    6    6    0    0 -0.98533213748E+00  0.37642403241E+01  0.53071420795E+01  0.65815778268E+01  0.10500000000E+00 0.  1.
</event>
<event>
11    0  0.3422856E-009  0.9118800E+02  0.7816531E-02  0.1126479E+00
         25   -1    0    0    0    0  0.00000000000E+00  0.00000000000E+00  0.99999998245E-14  0.12500000000E+03  0.12500000000E+03 0.  0.
    3000001    1    3    3    0    0 -0.24250271471E+02 -0.23410996974E+02 -0.15774072574E+02  0.37228642351E+02  0.10000000000E+01 0.  1.
    1000022    2    1    0    0    0 -0.44097594865E+02 -0.38699683614E+02 -0.19078430223E+02  0.62499999616E+02  0.10000003378E+02 0.  0.
    3000022    2    3    3    0    0 -0.19847323394E+02 -0.15288686640E+02 -0.33043576490E+01  0.25271357265E+02  0.25006693274E+00 0.  0.
    1000022    2    1    0    0    0  0.44097594865E+02  0.38699683614E+02  0.19078430223E+02  0.62500000384E+02  0.10000008175E+02 0.  0.
    3000022    2    5    5    0    0  0.18619348363E+02  0.20735184612E+02  0.51518795957E+01  0.28341354604E+02  0.25000600039E+00 0.  0.
        -13    1    4    4    0    0 -0.11604748362E+02 -0.88795652116E+01 -0.19715939796E+01  0.14745001550E+02  0.10500000000E+00 0.  1.
         13    1    4    4    0    0 -0.82425750320E+01 -0.64091214289E+01 -0.13327636694E+01  0.10526355715E+02  0.10500000000E+00 0. -1.
    3000001    1    5    5    0    0  0.25478246501E+02  0.17964499002E+02  0.13926550627E+02  0.34158645780E+02  0.10000000000E+01 0.  1.
        -13    1    6    6    0    0  0.80669391794E+01  0.90654412037E+01  0.22059529641E+01  0.12334301173E+02  0.10500000000E+00 0.  1.
         13    1    6    6    0    0  0.10552409184E+02  0.11669743409E+02  0.29459266316E+01  0.16007053431E+02  0.10500000000E+00 0. -1.
</event>
<event>
11    0  0.3422856E-009  0.9118800E+02  0.7816531E-02  0.1126479E+00
         25   -1    0    0    0    0  0.00000000000E+00  0.00000000000E+00  0.99999998245E-14  0.12500000000E+03  0.12500000000E+03 0.  0.
    3000001    1    3    3    0    0  0.18881192045E+02  0.27993026845E+02  0.87313791911E+01  0.34890485058E+02  0.10000000000E+01 0.  1.
    1000022    2    1    0    0    0  0.30822711612E+02  0.52868512286E+02  0.78186170569E+01  0.62499999799E+02  0.10000002983E+02 0.  0.
    3000022    2    3    3    0    0  0.11941519568E+02  0.24875485441E+02 -0.91276213416E+00  0.27609514741E+02  0.25000801778E+00 0.  0.
    1000022    2    1    0    0    0 -0.30822711612E+02 -0.52868512286E+02 -0.78186170569E+01  0.62500000201E+02  0.10000005500E+02 0.  0.
    3000022    2    5    5    0    0 -0.28130914951E+02 -0.51738786315E+02 -0.69960987775E+01  0.59306477639E+02  0.25001303143E+00 0.  0.
        -13    1    4    4    0    0  0.49164722299E+01  0.10094513539E+02 -0.36818807904E+00  0.11234655769E+02  0.10500000000E+00 0.  1.
         13    1    4    4    0    0  0.70250473379E+01  0.14780971902E+02 -0.54457405512E+00  0.16374858972E+02  0.10500000000E+00 0. -1.
    3000001    1    5    5    0    0 -0.26917966610E+01 -0.11297259708E+01 -0.82251827942E+00  0.31935225619E+01  0.10000000000E+01 0. -1.
        -13    1    6    6    0    0 -0.19779609024E+02 -0.36471994027E+02 -0.49322718695E+01  0.41782503662E+02  0.10500000000E+00 0.  1.
         13    1    6    6    0    0 -0.83513059272E+01 -0.15266792288E+02 -0.20638269079E+01  0.17523973978E+02  0.10500000000E+00 0. -1.
</event>
<event>
11    0  0.3422856E-009  0.9118800E+02  0.7816531E-02  0.1126479E+00
         25   -1    0    0    0    0  0.00000000000E+00  0.00000000000E+00  0.99999998245E-14  0.12500000000E+03  0.12500000000E+03 0.  0.
    3000001    1    3    3    0    0 -0.52457383312E+01 -0.84198204694E+00  0.16196278943E+02  0.17074722721E+02  0.10000000000E+01 0.  1.
    1000022    2    1    0    0    0 -0.15001369900E+02 -0.18347399933E+02  0.56961231169E+02  0.62500000434E+02  0.10000000734E+02 0.  0.
    3000022    2    3    3    0    0 -0.97556315684E+01 -0.17505417886E+02  0.40764952226E+02  0.45425277712E+02  0.25004509550E+00 0.  0.
    1000022    2    1    0    0    0  0.15001369900E+02  0.18347399933E+02 -0.56961231169E+02  0.62499999566E+02  0.99999953150E+01 0.  0.
    3000022    2    5    5    0    0 -0.92605532205E+00 -0.45293759200E+00 -0.22082418572E+01  0.24498088601E+01  0.25000085841E+00 0.  0.
        -13    1    4    4    0    0 -0.36901151018E+01 -0.65805206403E+01  0.15476776258E+02  0.17218066956E+02  0.10500000000E+00 0. -1.
         13    1    4    4    0    0 -0.60655164666E+01 -0.10924897246E+02  0.25288175969E+02  0.28207210756E+02  0.10500000000E+00 0.  1.
    3000001    1    5    5    0    0  0.15927425222E+02  0.18800337525E+02 -0.54752989312E+02  0.60050190706E+02  0.10000000000E+01 0. -1.
        -13    1    6    6    0    0 -0.26286893988E+00 -0.10837507451E+00 -0.55246207062E+00  0.63014647171E+00  0.10500000000E+00 0.  1.
         13    1    6    6    0    0 -0.66318638216E+00 -0.34456251749E+00 -0.16557797866E+01  0.18196623883E+01  0.10500000000E+00 0. -1.
</event>
<event>
11    0  0.3422856E-009  0.9118800E+02  0.7816531E-02  0.1126479E+00
         25   -1    0    0    0    0  0.00000000000E+00  0.00000000000E+00  0.99999998245E-14  0.12500000000E+03  0.12500000000E+03 0.  0.
    3000001    1    3    3    0    0  0.24324320686E+02 -0.19080063714E+02 -0.15475379476E+01  0.30969602546E+02  0.10000000000E+01 0. -1.
    1000022    2    1    0    0    0  0.53942453809E+02 -0.29783723473E+02 -0.30644896104E+01  0.62499997135E+02  0.10000001917E+02 0.  0.
    3000022    2    3    3    0    0  0.29618133124E+02 -0.10703659759E+02 -0.15169516629E+01  0.31530394589E+02  0.24999718631E+00 0.  0.
    1000022    2    1    0    0    0 -0.53942453809E+02  0.29783723473E+02  0.30644896104E+01  0.62500002865E+02  0.10000037733E+02 0.  0.
    3000022    2    5    5    0    0 -0.21860133587E+02  0.17653753178E+02  0.19863874472E+01  0.28169640873E+02  0.24998024467E+00 0.  0.
        -13    1    4    4    0    0  0.14182813355E+02 -0.51321025475E+01 -0.79391989350E+00  0.15104039361E+02  0.10500000000E+00 0. -1.
         13    1    4    4    0    0  0.15435319769E+02 -0.55715572115E+01 -0.72303176938E+00  0.16426355228E+02  0.10500000000E+00 0.  1.
    3000001    1    5    5    0    0 -0.32082320223E+02  0.12129970295E+02  0.10781021633E+01  0.34330361992E+02  0.10000000000E+01 0. -1.
        -13    1    6    6    0    0 -0.92172504644E+01  0.73965905784E+01  0.78183122966E+00  0.11844388687E+02  0.10500000000E+00 0. -1.
         13    1    6    6    0    0 -0.12642883122E+02  0.10257162600E+02  0.12045562175E+01  0.16325252185E+02  0.10500000000E+00 0.  1.
</event>
<event>
11    0  0.3422856E-009  0.9118800E+02  0.7816531E-02  0.1126479E+00
         25   -1    0    0    0    0  0.00000000000E+00  0.00000000000E+00  0.99999998245E-14  0.12500000000E+03  0.12500000000E+03 0.  0.
    3000001    1    3    3    0    0 -0.46388866619E+01 -0.77049423548E+01 -0.22218474822E+01  0.93178330306E+01  0.10000000000E+01 0.  1.
    1000022    2    1    0    0    0 -0.38477201410E+02 -0.47771716898E+02  0.66043791190E+01  0.62499998700E+02  0.10000002512E+02 0.  0.
    3000022    2    3    3    0    0 -0.33838314748E+02 -0.40066774544E+02  0.88262266012E+01  0.53182165670E+02  0.25000398144E+00 0.  0.
    1000022    2    1    0    0    0  0.38477201410E+02  0.47771716898E+02 -0.66043791190E+01  0.62500001300E+02  0.10000018757E+02 0.  0.
    3000022    2    5    5    0    0  0.10848323268E+01  0.29581691202E+01  0.16174242525E+01  0.35505197005E+01  0.25000641979E+00 0.  0.
        -13    1    4    4    0    0 -0.17351030051E+02 -0.20645924272E+02  0.45204421969E+01  0.27345161465E+02  0.10500000000E+00 0. -1.
         13    1    4    4    0    0 -0.16487284697E+02 -0.19420850271E+02  0.43057844043E+01  0.25837004205E+02  0.10500000000E+00 0.  1.
    3000001    1    5    5    0    0  0.37392369083E+02  0.44813547778E+02 -0.82218033715E+01  0.58949481599E+02  0.10000000000E+01 0. -1.
        -13    1    6    6    0    0  0.26251380232E+00  0.82657368838E+00  0.44869549144E+00  0.98208462098E+00  0.10500000000E+00 0.  1.
         13    1    6    6    0    0  0.82231852449E+00  0.21315954318E+01  0.11687287610E+01  0.25684350795E+01  0.10500000000E+00 0. -1.
</event>
<event>
11    0  0.3422856E-009  0.9118800E+02  0.7816531E-02  0.1126479E+00
         25   -1    0    0    0    0  0.00000000000E+00  0.00000000000E+00  0.99999998245E-14  0.12500000000E+03  0.12500000000E+03 0.  0.
    3000001    1    3    3    0    0  0.13383514035E+02  0.20050362813E+02 -0.10100909190E+02  0.26156526209E+02  0.10000000000E+01 0. -1.
    1000022    2    1    0    0    0  0.31236992075E+02  0.41222417940E+02 -0.33633503272E+02  0.62499999958E+02  0.10000001884E+02 0.  0.
    3000022    2    3    3    0    0  0.17853478040E+02  0.21172055127E+02 -0.23532594081E+02  0.36343473749E+02  0.25000700398E+00 0.  0.
    1000022    2    1    0    0    0 -0.31236992075E+02 -0.41222417940E+02  0.33633503272E+02  0.62500000042E+02  0.10000002411E+02 0.  0.
    3000022    2    5    5    0    0 -0.15054902805E+02 -0.22374054231E+02  0.11898698500E+02  0.29476938917E+02  0.25000137593E+00 0.  0.
        -13    1    4    4    0    0  0.49948978680E+01  0.58629802179E+01 -0.65490087550E+01  0.10110592585E+02  0.10500000000E+00 0. -1.
         13    1    4    4    0    0  0.12858580172E+02  0.15309074909E+02 -0.16983585326E+02  0.26232881164E+02  0.10500000000E+00 0.  1.
    3000001    1    5    5    0    0 -0.16182089269E+02 -0.18848363709E+02  0.21734804771E+02  0.33023061125E+02  0.10000000000E+01 0. -1.
        -13    1    6    6    0    0 -0.79250402665E+01 -0.11740705473E+02  0.63201729342E+01  0.15511480882E+02  0.10500000000E+00 0. -1.
         13    1    6    6    0    0 -0.71298625390E+01 -0.10633348758E+02  0.55785255662E+01  0.13965458035E+02  0.10500000000E+00 0.  1.
</event>
<event>
11    0  0.3422856E-009  0.9118800E+02  0.7816531E-02  0.1126479E+00
         25   -1    0    0    0    0  0.00000000000E+00  0.00000000000E+00  0.99999998245E-14  0.12500000000E+03  0.12500000000E+03 0.  0.
    3000001    1    3    3    0    0 -0.20632394704E+02  0.26604603420E+02 -0.34771814026E+02  0.48410532790E+02  0.10000000000E+01 0.  1.
    1000022    2    1    0    0    0 -0.22441316265E+02  0.37417021979E+02 -0.43618846561E+02  0.62499999700E+02  0.99999988902E+01 0.  0.
    3000022    2    3    3    0    0 -0.18089215614E+01  0.10812418559E+02 -0.88470325351E+01  0.14089466911E+02  0.25000170110E+00 0.  0.
    1000022    2    1    0    0    0  0.22441316265E+02 -0.37417021979E+02  0.43618846561E+02  0.62500000300E+02  0.10000002635E+02 0.  0.
    3000022    2    5    5    0    0  0.67564672928E+00 -0.23502672837E+01  0.23173596745E-01  0.24583118126E+01  0.25001028942E+00 0.  0.
        -13    1    4    4    0    0 -0.87426308346E+00  0.52209820572E+01 -0.43591099018E+01  0.68582690029E+01  0.10500000000E+00 0.  1.
         13    1    4    4    0    0 -0.93465847793E+00  0.55914365013E+01 -0.44879226334E+01  0.72311979078E+01  0.10500000000E+00 0. -1.
    3000001    1    5    5    0    0  0.21765669536E+02 -0.35066754695E+02  0.43595672964E+02  0.60041688487E+02  0.10000000000E+01 0.  1.
        -13    1    6    6    0    0  0.42845645953E+00 -0.16291202079E+01  0.46423746753E-01  0.16884275981E+01  0.10500000000E+00 0.  1.
         13    1    6    6    0    0  0.24719026975E+00 -0.72114707576E+00 -0.23250150008E-01  0.76988421454E+00  0.10500000000E+00 0. -1.
</event>
<event>
11    0  0.3422856E-009  0.9118800E+02  0.7816531E-02  0.1126479E+00
         25   -1    0    0    0    0  0.00000000000E+00  0.00000000000E+00  0.99999998245E-14  0.12500000000E+03  0.12500000000E+03 0.  0.
    3000001    1    3    3    0    0 -0.10472115862E+02 -0.37098629855E+02  0.13052779615E+02  0.40710546587E+02  0.10000000000E+01 0. -1.
    1000022    2    1    0    0    0 -0.22640958733E+02 -0.53882211166E+02  0.19757135434E+02  0.62499998795E+02  0.99999878136E+01 0.  0.
    3000022    2    3    3    0    0 -0.12168842871E+02 -0.16783581312E+02  0.67043558187E+01  0.21789452208E+02  0.25000422722E+00 0.  0.
    1000022    2    1    0    0    0  0.22640958733E+02  0.53882211166E+02 -0.19757135434E+02  0.62500001205E+02  0.10000002879E+02 0.  0.
    3000022    2    5    5    0    0  0.13156161065E+02  0.42147064985E+02 -0.15415475708E+02  0.46767072302E+02  0.24999917931E+00 0.  0.
        -13    1    4    4    0    0 -0.48984811807E+01 -0.66506539230E+01  0.26595837463E+01  0.86781752797E+01  0.10500000000E+00 0. -1.
         13    1    4    4    0    0 -0.72703616902E+01 -0.10132927389E+02  0.40447720723E+01  0.13111276928E+02  0.10500000000E+00 0.  1.
    3000001    1    5    5    0    0  0.94847976676E+01  0.11735146181E+02 -0.43416597251E+01  0.15732928903E+02  0.10000000000E+01 0. -1.
        -13    1    6    6    0    0  0.87669743893E+01  0.28139004977E+02 -0.10344116441E+02  0.31235800150E+02  0.10500000000E+00 0.  1.
         13    1    6    6    0    0  0.43891866761E+01  0.14008060008E+02 -0.50713592672E+01  0.15531272153E+02  0.10500000000E+00 0. -1.
</event>
<event>
11    0  0.3422856E-009  0.9118800E+02  0.7816531E-02  0.1126479E+00
         25   -1    0    0    0    0  0.00000000000E+00  0.00000000000E+00  0.99999998245E-14  0.12500000000E+03  0.12500000000E+03 0.  0.
    3000001    1    3    3    0    0  0.59289062075E+01  0.10206882167E+02  0.93539784676E+01  0.15094014892E+02  0.10000000000E+01 0. -1.
    1000022    2    1    0    0    0  0.82104946396E+01  0.41896700078E+02  0.44536559080E+02  0.62499992200E+02  0.99999115277E+01 0.  0.
    3000022    2    3    3    0    0  0.22815884320E+01  0.31689817911E+02  0.35182580613E+02  0.47405977308E+02  0.25000178592E+00 0.  0.
    1000022    2    1    0    0    0 -0.82104946396E+01 -0.41896700078E+02 -0.44536559080E+02  0.62500007800E+02  0.10000009030E+02 0.  0.
    3000022    2    5    5    0    0 -0.23773570126E+01 -0.21736403715E+02 -0.29231149863E+02  0.36505419991E+02  0.24998719009E+00 0.  0.
        -13    1    4    4    0    0  0.12856480399E+01  0.17991580144E+02  0.19876718144E+02  0.26841102736E+02  0.10500000000E+00 0.  1.
         13    1    4    4    0    0  0.99594039210E+00  0.13698237768E+02  0.15305862469E+02  0.20564874571E+02  0.10500000000E+00 0. -1.
    3000001    1    5    5    0    0 -0.58331376270E+01 -0.20160296364E+02 -0.15305409217E+02  0.25994587809E+02  0.10000000000E+01 0.  1.
        -13    1    6    6    0    0 -0.95902246331E+00 -0.82115749600E+01 -0.11048891601E+02  0.13799953552E+02  0.10500000000E+00 0. -1.
         13    1    6    6    0    0 -0.14183345492E+01 -0.13524828755E+02 -0.18182258262E+02  0.22705466440E+02  0.10500000000E+00 0.  1.
</event>
<event>
11    0  0.3422856E-009  0.9118800E+02  0.7816531E-02  0.1126479E+00
         25   -1    0    0    0    0  0.00000000000E+00  0.00000000000E+00  0.99999998245E-14  0.12500000000E+03  0.12500000000E+03 0.  0.
    3000001    1    3    3    0    0  0.83591498265E+01  0.80122854050E+01 -0.15336534453E+02  0.19242697115E+02  0.10000000000E+01 0. -1.
    1000022    2    1    0    0    0  0.17717813123E+02  0.36778859155E+02 -0.46256292439E+02  0.62500000220E+02  0.10000002734E+02 0.  0.
    3000022    2    3    3    0    0  0.93586632966E+01  0.28766573750E+02 -0.30919757986E+02  0.43257303105E+02  0.24998796210E+00 0.  0.
    1000022    2    1    0    0    0 -0.17717813123E+02 -0.36778859155E+02  0.46256292439E+02  0.62499999780E+02  0.99999999857E+01 0.  0.
    3000022    2    5    5    0    0 -0.15927935823E+01 -0.44332323996E+00  0.46742046192E+01  0.49642938848E+01  0.24999612402E+00 0.  0.
        -13    1    4    4    0    0  0.42535757181E+01  0.13025820922E+02 -0.13912896616E+02  0.19528047376E+02  0.10500000000E+00 0.  1.
         13    1    4    4    0    0  0.51050875785E+01  0.15740752829E+02 -0.17006861370E+02  0.23729255729E+02  0.10500000000E+00 0. -1.
    3000001    1    5    5    0    0 -0.16125019541E+02 -0.36335535915E+02  0.41582087820E+02  0.57535705895E+02  0.10000000000E+01 0. -1.
        -13    1    6    6    0    0 -0.70923394994E+00 -0.24779301861E+00  0.22607633727E+01  0.23846362832E+01  0.10500000000E+00 0. -1.
         13    1    6    6    0    0 -0.88355963233E+00 -0.19553022134E+00  0.24134412465E+01  0.25796576016E+01  0.10500000000E+00 0.  1.
</event>
<event>
11    0  0.3422856E-009  0.9118800E+02  0.7816531E-02  0.1126479E+00
         25   -1    0    0    0    0  0.00000000000E+00  0.00000000000E+00  0.99999998245E-14  0.12500000000E+03  0.12500000000E+03 0.  0.
    3000001    1    3    3    0    0 -0.15227690915E+01 -0.18698271309E+02  0.46002697602E+02  0.49690968619E+02  0.10000000000E+01 0.  1.
    1000022    2    1    0    0    0 -0.40069941508E+01 -0.27252094471E+02  0.55204313604E+02  0.62500008762E+02  0.10000109983E+02 0.  0.
    3000022    2    3    3    0    0 -0.24842250593E+01 -0.85538231626E+01  0.92016160015E+01  0.12809040143E+02  0.25001502521E+00 0.  0.
    1000022    2    1    0    0    0  0.40069941508E+01  0.27252094471E+02 -0.55204313604E+02  0.62499991238E+02  0.10000000453E+02 0.  0.
    3000022    2    5    5    0    0 -0.65281863438E+00  0.19870786929E+02 -0.43815771780E+02  0.48116096039E+02  0.24999198213E+00 0.  0.
        -13    1    4    4    0    0 -0.16543256116E+01 -0.55053433111E+01  0.59068018821E+01  0.82429928835E+01  0.10500000000E+00 0. -1.
         13    1    4    4    0    0 -0.82989944765E+00 -0.30484798515E+01  0.32948141194E+01  0.45660472599E+01  0.10500000000E+00 0.  1.
    3000001    1    5    5    0    0  0.46598127851E+01  0.73813075417E+01 -0.11388541824E+02  0.14383895199E+02  0.10000000000E+01 0.  1.
        -13    1    6    6    0    0 -0.26803847912E+00  0.66195124560E+01 -0.14558699946E+02  0.15995516838E+02  0.10500000000E+00 0. -1.
         13    1    6    6    0    0 -0.38478015526E+00  0.13251274473E+02 -0.29257071833E+02  0.32120579201E+02  0.10500000000E+00 0.  1.
</event>
<event>
11    0  0.3422856E-009  0.9118800E+02  0.7816531E-02  0.1126479E+00
         25   -1    0    0    0    0  0.00000000000E+00  0.00000000000E+00  0.99999998245E-14  0.12500000000E+03  0.12500000000E+03 0.  0.
    3000001    1    3    3    0    0  0.44940338182E+02  0.49943008671E+01  0.32074427649E+02  0.55446784813E+02  0.10000000000E+01 0. -1.
    1000022    2    1    0    0    0  0.47932282957E+02  0.58788520646E+01  0.38395121853E+02  0.62499999995E+02  0.99999983146E+01 0.  0.
    3000022    2    3    3    0    0  0.29919447742E+01  0.88455119745E+00  0.63206942041E+01  0.70532151823E+01  0.25000966825E+00 0.  0.
    1000022    2    1    0    0    0 -0.47932282957E+02 -0.58788520646E+01 -0.38395121853E+02  0.62500000005E+02  0.99999983722E+01 0.  0.
    3000022    2    5    5    0    0 -0.45023520382E+02 -0.38345546457E+01 -0.37447047982E+02  0.58687009614E+02  0.24999596357E+00 0.  0.
        -13    1    4    4    0    0  0.14641114474E+01  0.50357468919E+00  0.31316067400E+01  0.34950244022E+01  0.10500000000E+00 0.  1.
         13    1    4    4    0    0  0.15278333268E+01  0.38097650826E+00  0.31890874641E+01  0.35581907801E+01  0.10500000000E+00 0. -1.
    3000001    1    5    5    0    0 -0.29087625743E+01 -0.20442974189E+01 -0.94807387103E+00  0.38129903901E+01  0.10000000000E+01 0.  1.
        -13    1    6    6    0    0 -0.26400498383E+02 -0.23071524579E+01 -0.21927207306E+02  0.34396550882E+02  0.10500000000E+00 0.  1.
         13    1    6    6    0    0 -0.18623021999E+02 -0.15274021878E+01 -0.15519840676E+02  0.24290458732E+02  0.10500000000E+00 0. -1.
</event>
<event>
11    0  0.3422856E-009  0.9118800E+02  0.7816531E-02  0.1126479E+00
         25   -1    0    0    0    0  0.00000000000E+00  0.00000000000E+00  0.99999998245E-14  0.12500000000E+03  0.12500000000E+03 0.  0.
    3000001    1    3    3    0    0  0.16732472731E+02  0.42246357754E+02  0.19227584925E+02  0.49350080134E+02  0.10000000000E+01 0. -1.
    1000022    2    1    0    0    0  0.16906343077E+02  0.55089139153E+02  0.22036615182E+02  0.62500001299E+02  0.10000003243E+02 0.  0.
    3000022    2    3    3    0    0  0.17387034594E+00  0.12842781399E+02  0.28090302576E+01  0.13149921165E+02  0.25002142422E+00 0.  0.
    1000022    2    1    0    0    0 -0.16906343077E+02 -0.55089139153E+02 -0.22036615182E+02  0.62499998701E+02  0.99999870040E+01 0.  0.
    3000022    2    5    5    0    0 -0.81375545612E+01 -0.16725467636E+02 -0.32588637571E+01  0.18885013972E+02  0.24999573669E+00 0.  0.
        -13    1    4    4    0    0  0.14344096758E+00  0.59934110438E+01  0.12849679806E+01  0.61321871271E+01  0.10500000000E+00 0. -1.
         13    1    4    4    0    0  0.30429378367E-01  0.68493703550E+01  0.15240622770E+01  0.70177340382E+01  0.10500000000E+00 0.  1.
    3000001    1    5    5    0    0 -0.87687885157E+01 -0.38363671517E+02 -0.18777751425E+02  0.43614984728E+02  0.10000000000E+01 0. -1.
        -13    1    6    6    0    0 -0.32914067165E+01 -0.66411281875E+01 -0.12662428183E+01  0.75201288321E+01  0.10500000000E+00 0.  1.
         13    1    6    6    0    0 -0.48461478447E+01 -0.10084339449E+02 -0.19926209388E+01  0.11364885140E+02  0.10500000000E+00 0. -1.
</event>
<event>
11    0  0.3422856E-009  0.9118800E+02  0.7816531E-02  0.1126479E+00
         25   -1    0    0    0    0  0.00000000000E+00  0.00000000000E+00  0.99999998245E-14  0.12500000000E+03  0.12500000000E+03 0.  0.
    3000001    1    3    3    0    0 -0.82119787873E+01 -0.15105236471E+02 -0.41578570861E+02  0.45004247792E+02  0.10000000000E+01 0.  1.
    1000022    2    1    0    0    0 -0.82574941963E+01 -0.25777817980E+02 -0.55439767068E+02  0.62499999468E+02  0.10000002536E+02 0.  0.
    3000022    2    3    3    0    0 -0.45515408971E-01 -0.10672581509E+02 -0.13861196206E+02  0.17495751676E+02  0.24999741107E+00 0.  0.
    1000022    2    1    0    0    0  0.82574941963E+01  0.25777817980E+02  0.55439767068E+02  0.62500000532E+02  0.10000009191E+02 0.  0.
    3000022    2    5    5    0    0 -0.18150127409E+01  0.11754124378E+01  0.31090410439E+01  0.37953274592E+01  0.25001732155E+00 0.  0.
        -13    1    4    4    0    0 -0.16899473785E-01 -0.59381544849E+01 -0.78196454255E+01  0.98193606645E+01  0.10500000000E+00 0.  1.
         13    1    4    4    0    0 -0.28615935187E-01 -0.47344270242E+01 -0.60415507807E+01  0.76763910111E+01  0.10500000000E+00 0. -1.
    3000001    1    5    5    0    0  0.10072506937E+02  0.24602405543E+02  0.52330726024E+02  0.58704673073E+02  0.10000000000E+01 0. -1.
        -13    1    6    6    0    0 -0.10412437894E+01  0.60985015204E+00  0.16640063490E+01  0.20581661659E+01  0.10500000000E+00 0.  1.
         13    1    6    6    0    0 -0.77376895149E+00  0.56556228572E+00  0.14450346950E+01  0.17371612933E+01  0.10500000000E+00 0. -1.
</event>
<event>
11    0  0.3422856E-009  0.9118800E+02  0.7816531E-02  0.1126479E+00
         25   -1    0    0    0    0  0.00000000000E+00  0.00000000000E+00  0.99999998245E-14  0.12500000000E+03  0.12500000000E+03 0.  0.
    3000001    1    3    3    0    0  0.52013569893E+01  0.17732747246E+01  0.89186618495E+00  0.56563277019E+01  0.10000000000E+01 0.  1.
    1000022    2    1    0    0    0  0.59608214835E+02  0.38241858616E+01 -0.15443007540E+02  0.62499999464E+02  0.99999888919E+01 0.  0.
    3000022    2    3    3    0    0  0.54406857846E+02  0.20509111371E+01 -0.16334873725E+02  0.56843671762E+02  0.25000538881E+00 0.  0.
    1000022    2    1    0    0    0 -0.59608214835E+02 -0.38241858616E+01  0.15443007540E+02  0.62500000536E+02  0.99999955893E+01 0.  0.
    3000022    2    5    5    0    0 -0.54665590069E+02 -0.56054361373E+01  0.12355614428E+02  0.56324695819E+02  0.24999859729E+00 0.  0.
        -13    1    4    4    0    0  0.14303639837E+02  0.57211446708E+00 -0.42972814210E+01  0.14946540742E+02  0.10500000000E+00 0.  1.
         13    1    4    4    0    0  0.40103218009E+02  0.14787966700E+01 -0.12037592304E+02  0.41897131020E+02  0.10500000000E+00 0. -1.
    3000001    1    5    5    0    0 -0.49426247659E+01  0.17812502756E+01  0.30873931118E+01  0.61753047170E+01  0.10000000000E+01 0.  1.
        -13    1    6    6    0    0 -0.38213117574E+02 -0.38853279496E+01  0.86693006093E+01  0.39376464113E+02  0.10500000000E+00 0. -1.
         13    1    6    6    0    0 -0.16452472495E+02 -0.17201081876E+01  0.36863138185E+01  0.16948231706E+02  0.10500000000E+00 0.  1.
</event>
<event>
11    0  0.3422856E-009  0.9118800E+02  0.7816531E-02  0.1126479E+00
         25   -1    0    0    0    0  0.00000000000E+00  0.00000000000E+00  0.99999998245E-14  0.12500000000E+03  0.12500000000E+03 0.  0.
    3000001    1    3    3    0    0 -0.42140170729E+01 -0.11289098635E+02  0.22434795209E+02  0.25485716077E+02  0.10000000000E+01 0. -1.
    1000022    2    1    0    0    0 -0.16087394228E+02 -0.17452260005E+02  0.56946148080E+02  0.62500005468E+02  0.10000063498E+02 0.  0.
    3000022    2    3    3    0    0 -0.11873377155E+02 -0.61631613694E+01  0.34511352871E+02  0.37014289391E+02  0.24999793378E+00 0.  0.
    1000022    2    1    0    0    0  0.16087394228E+02  0.17452260005E+02 -0.56946148080E+02  0.62499994532E+02  0.99999951544E+01 0.  0.
    3000022    2    5    5    0    0  0.13944823360E+02  0.18153246948E+02 -0.47372804083E+02  0.52614100141E+02  0.24998745127E+00 0.  0.
        -13    1    4    4    0    0 -0.34286955411E+01 -0.17831129924E+01  0.10090020626E+02  0.10805322128E+02  0.10500000000E+00 0. -1.
         13    1    4    4    0    0 -0.84446816141E+01 -0.43800483770E+01  0.24421332245E+02  0.26208967263E+02  0.10500000000E+00 0.  1.
    3000001    1    5    5    0    0  0.21425708686E+01 -0.70098694375E+00 -0.95733439973E+01  0.98858943912E+01  0.10000000000E+01 0. -1.
        -13    1    6    6    0    0  0.49723027338E+01  0.65618271152E+01 -0.16990632929E+02  0.18880519111E+02  0.10500000000E+00 0. -1.
         13    1    6    6    0    0  0.89725206257E+01  0.11591419833E+02 -0.30382171153E+02  0.33733581030E+02  0.10500000000E+00 0.  1.
</event>
<event>
11    0  0.3422856E-009  0.9118800E+02  0.7816531E-02  0.1126479E+00
         25   -1    0    0    0    0  0.00000000000E+00  0.00000000000E+00  0.99999998245E-14  0.12500000000E+03  0.12500000000E+03 0.  0.
    3000001    1    3    3    0    0 -0.62164544704E+01  0.21066523689E+02 -0.62198179718E+01  0.22850139215E+02  0.10000000000E+01 0. -1.
    1000022    2    1    0    0    0 -0.28127629540E+02  0.51366321850E+02 -0.19405861672E+02  0.62500001887E+02  0.10000010234E+02 0.  0.
    3000022    2    3    3    0    0 -0.21911175069E+02  0.30299798161E+02 -0.13186043701E+02  0.39649862672E+02  0.24999987184E+00 0.  0.
    1000022    2    1    0    0    0  0.28127629540E+02 -0.51366321850E+02  0.19405861672E+02  0.62499998113E+02  0.99999866487E+01 0.  0.
    3000022    2    5    5    0    0  0.20954774389E+02 -0.29112767538E+02  0.13813931356E+02  0.38438821600E+02  0.25000615424E+00 0.  0.
        -13    1    4    4    0    0 -0.12497473824E+02  0.17197200839E+02 -0.75420082657E+01  0.22557116003E+02  0.10500000000E+00 0.  1.
         13    1    4    4    0    0 -0.94137012451E+01  0.13102597322E+02 -0.56440354348E+01  0.17092746669E+02  0.10500000000E+00 0. -1.
    3000001    1    5    5    0    0  0.71728551510E+01 -0.22253554312E+02  0.55919303160E+01  0.24061176513E+02  0.10000000000E+01 0.  1.
        -13    1    6    6    0    0  0.10989833611E+02 -0.15382040255E+02  0.72931051317E+01  0.20262872764E+02  0.10500000000E+00 0. -1.
         13    1    6    6    0    0  0.99649407779E+01 -0.13730727283E+02  0.65208262246E+01  0.18175948836E+02  0.10500000000E+00 0.  1.
</event>
<event>
11    0  0.3422856E-009  0.9118800E+02  0.7816531E-02  0.1126479E+00
         25   -1    0    0    0    0  0.00000000000E+00  0.00000000000E+00  0.99999998245E-14  0.12500000000E+03  0.12500000000E+03 0.  0.
    3000001    1    3    3    0    0 -0.11746347835E+02 -0.88627515469E+01 -0.13864631502E+02  0.20242358043E+02  0.10000000000E+01 0.  1.
    1000022    2    1    0    0    0 -0.24648191578E+02 -0.25102203677E+02 -0.50681316945E+02  0.62499998733E+02  0.99999988413E+01 0.  0.
    3000022    2    3    3    0    0 -0.12901843743E+02 -0.16239452130E+02 -0.36816685443E+02  0.42257640690E+02  0.24998446687E+00 0.  0.
    1000022    2    1    0    0    0  0.24648191578E+02  0.25102203677E+02  0.50681316945E+02  0.62500001267E+02  0.10000014678E+02 0.  0.
    3000022    2    5    5    0    0  0.47157287950E+01  0.11229022003E+02  0.18988230968E+02  0.22559796696E+02  0.24995696686E+00 0.  0.
        -13    1    4    4    0    0 -0.84741226942E+01 -0.10721092896E+02 -0.24169178275E+02  0.27765316346E+02  0.10500000000E+00 0. -1.
         13    1    4    4    0    0 -0.44277210487E+01 -0.55183592332E+01 -0.12647507168E+02  0.14492324344E+02  0.10500000000E+00 0.  1.
    3000001    1    5    5    0    0  0.19932462783E+02  0.13873181674E+02  0.31693085978E+02  0.39940204571E+02  0.10000000000E+01 0. -1.
        -13    1    6    6    0    0  0.26704955743E+01  0.62877945145E+01  0.10539007226E+02  0.12559840953E+02  0.10500000000E+00 0. -1.
         13    1    6    6    0    0  0.20452332207E+01  0.49412274885E+01  0.84492237419E+01  0.99999557430E+01  0.10500000000E+00 0.  1.
</event>
<event>
11    0  0.3422856E-009  0.9118800E+02  0.7816531E-02  0.1126479E+00
         25   -1    0    0    0    0  0.00000000000E+00  0.00000000000E+00  0.99999998245E-14  0.12500000000E+03  0.12500000000E+03 0.  0.
    3000001    1    3    3    0    0  0.16963291916E+02 -0.26388227700E+01  0.47883771964E+01  0.17850636247E+02  0.10000000000E+01 0.  1.
    1000022    2    1    0    0    0  0.52199782230E+02 -0.16717838234E+02  0.28318658681E+02  0.62499998337E+02  0.99999991302E+01 0.  0.
    3000022    2    3    3    0    0  0.35236490314E+02 -0.14079015464E+02  0.23530281485E+02  0.44649362090E+02  0.24992451382E+00 0.  0.
    1000022    2    1    0    0    0 -0.52199782230E+02  0.16717838234E+02 -0.28318658681E+02  0.62500001663E+02  0.10000019912E+02 0.  0.
    3000022    2    5    5    0    0 -0.10663747146E+02  0.59756949961E+01 -0.27019167106E+01  0.12521473063E+02  0.24999972159E+00 0.  0.
        -13    1    4    4    0    0  0.20658901855E+02 -0.82638120432E+01  0.13872575146E+02  0.26220987425E+02  0.10500000000E+00 0.  1.
         13    1    4    4    0    0  0.14577588458E+02 -0.58152034209E+01  0.96577063394E+01  0.18428374666E+02  0.10500000000E+00 0. -1.
    3000001    1    5    5    0    0 -0.41536035084E+02  0.10742143238E+02 -0.25616741971E+02  0.49978528600E+02  0.10000000000E+01 0.  1.
        -13    1    6    6    0    0 -0.60655326510E+01  0.34739458103E+01 -0.15445466071E+01  0.71593040901E+01  0.10500000000E+00 0.  1.
         13    1    6    6    0    0 -0.45982144953E+01  0.25017491858E+01 -0.11573701035E+01  0.53621689726E+01  0.10500000000E+00 0. -1.
</event>
<event>
11    0  0.3422856E-009  0.9118800E+02  0.7816531E-02  0.1126479E+00
         25   -1    0    0    0    0  0.00000000000E+00  0.00000000000E+00  0.99999998245E-14  0.12500000000E+03  0.12500000000E+03 0.  0.
    3000001    1    3    3    0    0  0.47792753073E+01 -0.15510894255E+02  0.76280711758E+00  0.16279164222E+02  0.10000000000E+01 0.  1.
    1000022    2    1    0    0    0  0.32952086427E+02 -0.51973051248E+02  0.43831498772E+01  0.62499998913E+02  0.99999902683E+01 0.  0.
    3000022    2    3    3    0    0  0.28172811120E+02 -0.36462156992E+02  0.36203427596E+01  0.46220834691E+02  0.24999781444E+00 0.  0.
    1000022    2    1    0    0    0 -0.32952086427E+02  0.51973051248E+02 -0.43831498772E+01  0.62500001087E+02  0.10000003855E+02 0.  0.
    3000022    2    5    5    0    0 -0.59728027876E+01  0.81754933142E+01  0.29049184168E+01  0.10536323714E+02  0.25000465562E+00 0.  0.
        -13    1    4    4    0    0  0.13882939016E+02 -0.18052719059E+02  0.17456032747E+01  0.22840639591E+02  0.10500000000E+00 0.  1.
         13    1    4    4    0    0  0.14289872104E+02 -0.18409437933E+02  0.18747394849E+01  0.23380195100E+02  0.10500000000E+00 0. -1.
    3000001    1    5    5    0    0 -0.26979283640E+02  0.43797557934E+02 -0.72880682940E+01  0.51963677373E+02  0.10000000000E+01 0.  1.
        -13    1    6    6    0    0 -0.13949257518E+01  0.19127571411E+01  0.66609715942E+00  0.24615377632E+01  0.10500000000E+00 0.  1.
         13    1    6    6    0    0 -0.45778770358E+01  0.62627361731E+01  0.22388212574E+01  0.80747859508E+01  0.10500000000E+00 0. -1.
</event>
<event>
11    0  0.3422856E-009  0.9118800E+02  0.7816531E-02  0.1126479E+00
         25   -1    0    0    0    0  0.00000000000E+00  0.00000000000E+00  0.99999998245E-14  0.12500000000E+03  0.12500000000E+03 0.  0.
    3000001    1    3    3    0    0 -0.13555670216E+02  0.48032305733E+01 -0.51944511543E+01  0.15323496394E+02  0.10000000000E+01 0.  1.
    1000022    2    1    0    0    0 -0.46465814645E+02  0.18913902485E+02 -0.35908804322E+02  0.62500001785E+02  0.10000017870E+02 0.  0.
    3000022    2    3    3    0    0 -0.32910144429E+02  0.14110671912E+02 -0.30714353168E+02  0.47176505391E+02  0.25000441513E+00 0.  0.
    1000022    2    1    0    0    0  0.46465814645E+02 -0.18913902485E+02  0.35908804322E+02  0.62499998215E+02  0.99999955573E+01 0.  0.
    3000022    2    5    5    0    0  0.14514012617E+02 -0.61461712882E+01  0.17163541490E+02  0.23304112060E+02  0.24999742123E+00 0.  0.
        -13    1    4    4    0    0 -0.16046901412E+02  0.68082955906E+01 -0.14970859378E+02  0.22978111091E+02  0.10500000000E+00 0. -1.
         13    1    4    4    0    0 -0.16863243017E+02  0.73023763212E+01 -0.15743493790E+02  0.24198394300E+02  0.10500000000E+00 0.  1.
    3000001    1    5    5    0    0  0.31951802028E+02 -0.12767731197E+02  0.18745262833E+02  0.39195886155E+02  0.10000000000E+01 0. -1.
        -13    1    6    6    0    0  0.80764888904E+01 -0.33649151210E+01  0.95903649738E+01  0.12982236013E+02  0.10500000000E+00 0. -1.
         13    1    6    6    0    0  0.64375237266E+01 -0.27812561673E+01  0.75731765158E+01  0.10321876047E+02  0.10500000000E+00 0.  1.
</event>
<event>
11    0  0.3422856E-009  0.9118800E+02  0.7816531E-02  0.1126479E+00
         25   -1    0    0    0    0  0.00000000000E+00  0.00000000000E+00  0.99999998245E-14  0.12500000000E+03  0.12500000000E+03 0.  0.
    3000001    1    3    3    0    0  0.75699800599E+01  0.51118790466E+02 -0.29286733795E+02  0.59406633579E+02  0.10000000000E+01 0.  1.
    1000022    2    1    0    0    0  0.97891161996E+01  0.52462932387E+02 -0.30952608871E+02  0.62500000632E+02  0.10000000623E+02 0.  0.
    3000022    2    3    3    0    0  0.22191361397E+01  0.13441419206E+01 -0.16658750764E+01  0.30933670528E+01  0.24999448777E+00 0.  0.
    1000022    2    1    0    0    0 -0.97891161996E+01 -0.52462932387E+02  0.30952608871E+02  0.62499999368E+02  0.99999927235E+01 0.  0.
    3000022    2    5    5    0    0 -0.36475681170E+01 -0.38069526792E+02  0.25183702404E+02  0.45791647585E+02  0.24999693378E+00 0.  0.
        -13    1    4    4    0    0  0.98907198261E+00  0.52681507385E+00 -0.74564861336E+00  0.13501164259E+01  0.10500000000E+00 0.  1.
         13    1    4    4    0    0  0.12300641571E+01  0.81732684671E+00 -0.92022646304E+00  0.17432506269E+01  0.10500000000E+00 0. -1.
    3000001    1    5    5    0    0 -0.61415480826E+01 -0.14393405595E+02  0.57689064675E+01  0.16708351783E+02  0.10000000000E+01 0. -1.
        -13    1    6    6    0    0 -0.24023655353E+01 -0.25058338001E+02  0.16510539504E+02  0.30104826909E+02  0.10500000000E+00 0. -1.
         13    1    6    6    0    0 -0.12452025817E+01 -0.13011188791E+02  0.86731628997E+01  0.15686820676E+02  0.10500000000E+00 0.  1.
</event>
<event>
11    0  0.3422856E-009  0.9118800E+02  0.7816531E-02  0.1126479E+00
         25   -1    0    0    0    0  0.00000000000E+00  0.00000000000E+00  0.99999998245E-14  0.12500000000E+03  0.12500000000E+03 0.  0.
    3000001    1    3    3    0    0 -0.25507352793E+02  0.12669791393E+02 -0.53653508423E+01  0.28998890498E+02  0.10000000000E+01 0. -1.
    1000022    2    1    0    0    0 -0.50185169387E+02  0.35298898257E+02 -0.64565262511E+01  0.62499998917E+02  0.99999844401E+01 0.  0.
    3000022    2    3    3    0    0 -0.24677816594E+02  0.22629106864E+02 -0.10911754088E+01  0.33501108419E+02  0.24998442013E+00 0.  0.
    1000022    2    1    0    0    0  0.50185169387E+02 -0.35298898257E+02  0.64565262511E+01  0.62500001083E+02  0.99999979833E+01 0.  0.
    3000022    2    5    5    0    0  0.11759687105E+02 -0.95035075981E+01  0.58223180749E+01  0.16203974388E+02  0.25000141652E+00 0.  0.
        -13    1    4    4    0    0 -0.14528441098E+02  0.13240507836E+02 -0.61847455361E+00  0.19666727848E+02  0.10500000000E+00 0.  1.
         13    1    4    4    0    0 -0.10149375496E+02  0.93885990284E+01 -0.47270085519E+00  0.13834380571E+02  0.10500000000E+00 0. -1.
    3000001    1    5    5    0    0  0.38425482282E+02 -0.25795390659E+02  0.63420817614E+00  0.46296026696E+02  0.10000000000E+01 0. -1.
        -13    1    6    6    0    0  0.27566496585E+01 -0.22181697216E+01  0.13748684186E+01  0.37974573628E+01  0.10500000000E+00 0. -1.
         13    1    6    6    0    0  0.90030374468E+01 -0.72853378765E+01  0.44474496563E+01  0.12406517025E+02  0.10500000000E+00 0.  1.
</event>
<event>
11    0  0.3422856E-009  0.9118800E+02  0.7816531E-02  0.1126479E+00
         25   -1    0    0    0    0  0.00000000000E+00  0.00000000000E+00  0.99999998245E-14  0.12500000000E+03  0.12500000000E+03 0.  0.
    3000001    1    3    3    0    0  0.64884156628E+01 -0.67291456345E+01  0.18707786268E+02  0.20937101180E+02  0.10000000000E+01 0.  1.
    1000022    2    1    0    0    0  0.20750822281E+02 -0.64169040325E+01  0.57744926994E+02  0.62500000458E+02  0.10000009049E+02 0.  0.
    3000022    2    3    3    0    0  0.14262406618E+02  0.31224160194E+00  0.39037140726E+02  0.41562899278E+02  0.25000585765E+00 0.  0.
    1000022    2    1    0    0    0 -0.20750822281E+02  0.64169040325E+01 -0.57744926994E+02  0.62499999542E+02  0.10000003329E+02 0.  0.
    3000022    2    5    5    0    0 -0.19680932518E+02  0.71599917068E+01 -0.56942572621E+02  0.60672264349E+02  0.24999710261E+00 0.  0.
        -13    1    4    4    0    0  0.51179566784E+01  0.15611777107E+00  0.13902917434E+02  0.14816207055E+02  0.10500000000E+00 0. -1.
         13    1    4    4    0    0  0.91444499399E+01  0.15612383087E+00  0.25134223292E+02  0.26746692222E+02  0.10500000000E+00 0.  1.
    3000001    1    5    5    0    0 -0.10698897630E+01 -0.74308767428E+00 -0.80235437271E+00  0.18277351931E+01  0.10000000000E+01 0.  1.
        -13    1    6    6    0    0 -0.59675864382E+01  0.22045747902E+01 -0.17399037303E+02  0.18525921353E+02  0.10500000000E+00 0.  1.
         13    1    6    6    0    0 -0.13713346080E+02  0.49554169166E+01 -0.39543535318E+02  0.42146342996E+02  0.10500000000E+00 0. -1.
</event>
<event>
11    0  0.3422856E-009  0.9118800E+02  0.7816531E-02  0.1126479E+00
         25   -1    0    0    0    0  0.00000000000E+00  0.00000000000E+00  0.99999998245E-14  0.12500000000E+03  0.12500000000E+03 0.  0.
    3000001    1    3    3    0    0 -0.21466340787E+02  0.36377967608E+02 -0.30115691932E+02  0.51885597372E+02  0.10000000000E+01 0.  1.
    1000022    2    1    0    0    0 -0.24252793191E+02  0.46243044201E+02 -0.32857767718E+02  0.62500000662E+02  0.10000003443E+02 0.  0.
    3000022    2    3    3    0    0 -0.27864524033E+01  0.98650765926E+01 -0.27420757859E+01  0.10614403290E+02  0.25004883109E+00 0.  0.
    1000022    2    1    0    0    0  0.24252793191E+02 -0.46243044201E+02  0.32857767718E+02  0.62499999338E+02  0.99999951649E+01 0.  0.
    3000022    2    5    5    0    0  0.84213799690E+01 -0.18271832250E+02  0.72287487436E+01  0.21379822342E+02  0.25000122315E+00 0.  0.
        -13    1    4    4    0    0 -0.17110353305E+01  0.60574797926E+01 -0.16197870596E+01  0.65004183295E+01  0.10500000000E+00 0.  1.
         13    1    4    4    0    0 -0.10754170728E+01  0.38075968000E+01 -0.11222887263E+01  0.41139849607E+01  0.10500000000E+00 0. -1.
    3000001    1    5    5    0    0  0.15831413222E+02 -0.27971211951E+02  0.25629018974E+02  0.41120176996E+02  0.10000000000E+01 0. -1.
        -13    1    6    6    0    0  0.39488239478E+01 -0.84561079077E+01  0.34045506105E+01  0.99348357499E+01  0.10500000000E+00 0.  1.
         13    1    6    6    0    0  0.44725560212E+01 -0.98157243422E+01  0.38241981331E+01  0.11444986592E+02  0.10500000000E+00 0. -1.
</event>
<event>
11    0  0.3422856E-009  0.9118800E+02  0.7816531E-02  0.1126479E+00
         25   -1    0    0    0    0  0.00000000000E+00  0.00000000000E+00  0.99999998245E-14  0.12500000000E+03  0.12500000000E+03 0.  0.
    3000001    1    3    3    0    0  0.38979758828E+02  0.28202563280E+02  0.12334017522E+02  0.49678306755E+02  0.10000000000E+01 0.  1.
    1000022    2    1    0    0    0  0.47533239498E+02  0.33841879256E+02  0.20039171253E+02  0.62499999772E+02  0.99999969103E+01 0.  0.
    3000022    2    3    3    0    0  0.85534806706E+01  0.56393159765E+01  0.77051537309E+01  0.12821693017E+02  0.25000308182E+00 0.  0.
    1000022    2    1    0    0    0 -0.47533239498E+02 -0.33841879256E+02 -0.20039171253E+02  0.62500000228E+02  0.99999997550E+01 0.  0.
    3000022    2    5    5    0    0 -0.97221938334E+01 -0.37431916374E+01 -0.65737284218E+01  0.12321077149E+02  0.25000036080E+00 0.  0.
        -13    1    4    4    0    0  0.38396911748E+01  0.25290300500E+01  0.33747895706E+01  0.57043361539E+01  0.10500000000E+00 0.  1.
         13    1    4    4    0    0  0.47137894958E+01  0.31102859265E+01  0.43303641604E+01  0.71173568631E+01  0.10500000000E+00 0. -1.
    3000001    1    5    5    0    0 -0.37811045665E+02 -0.30098687619E+02 -0.13465442832E+02  0.50178923079E+02  0.10000000000E+01 0. -1.
        -13    1    6    6    0    0 -0.52953310836E+01 -0.20367242086E+01 -0.35007711244E+01  0.66674733035E+01  0.10500000000E+00 0.  1.
         13    1    6    6    0    0 -0.44268627497E+01 -0.17064674289E+01 -0.30729572974E+01  0.56536038455E+01  0.10500000000E+00 0. -1.
</event>
<event>
11    0  0.3422856E-009  0.9118800E+02  0.7816531E-02  0.1126479E+00
         25   -1    0    0    0    0  0.00000000000E+00  0.00000000000E+00  0.99999998245E-14  0.12500000000E+03  0.12500000000E+03 0.  0.
    3000001    1    3    3    0    0  0.98230996019E+01  0.24065848425E+02 -0.42478700134E+02  0.49810624482E+02  0.10000000000E+01 0.  1.
    1000022    2    1    0    0    0  0.16783203655E+02  0.28164751166E+02 -0.52262038623E+02  0.62500000762E+02  0.10000014051E+02 0.  0.
    3000022    2    3    3    0    0  0.69601040529E+01  0.40989027416E+01 -0.97833384890E+01  0.12689376280E+02  0.25001254633E+00 0.  0.
    1000022    2    1    0    0    0 -0.16783203655E+02 -0.28164751166E+02  0.52262038623E+02  0.62499999238E+02  0.10000004529E+02 0.  0.
    3000022    2    5    5    0    0  0.11808955855E+01 -0.34520505951E+01  0.67104955259E+01  0.76422786372E+01  0.25000973994E+00 0.  0.
        -13    1    4    4    0    0  0.34378298104E+01  0.19835974814E+01 -0.47163322848E+01  0.61650748572E+01  0.10500000000E+00 0. -1.
         13    1    4    4    0    0  0.35222742425E+01  0.21153052602E+01 -0.50670062042E+01  0.65243014229E+01  0.10500000000E+00 0.  1.
    3000001    1    5    5    0    0 -0.17964099240E+02 -0.24712700571E+02  0.45551543097E+02  0.54857720601E+02  0.10000000000E+01 0.  1.
        -13    1    6    6    0    0  0.42387995581E+00 -0.11533038068E+01  0.21671535626E+01  0.24934641469E+01  0.10500000000E+00 0. -1.
         13    1    6    6    0    0  0.75701562965E+00 -0.22987467883E+01  0.45433419633E+01  0.51488144903E+01  0.10500000000E+00 0.  1.
</event>
<event>
11    0  0.3422856E-009  0.9118800E+02  0.7816531E-02  0.1126479E+00
         25   -1    0    0    0    0  0.00000000000E+00  0.00000000000E+00  0.99999998245E-14  0.12500000000E+03  0.12500000000E+03 0.  0.
    3000001    1    3    3    0    0  0.36089563280E+02 -0.21955762250E+02  0.78753043351E+01  0.42982932567E+02  0.10000000000E+01 0.  1.
    1000022    2    1    0    0    0  0.52918987682E+02 -0.31348200244E+02  0.48084021788E+01  0.62499997040E+02  0.99999991357E+01 0.  0.
    3000022    2    3    3    0    0  0.16829424402E+02 -0.93924379944E+01 -0.30669021563E+01  0.19517064473E+02  0.24999927266E+00 0.  0.
    1000022    2    1    0    0    0 -0.52918987682E+02  0.31348200244E+02 -0.48084021788E+01  0.62500002960E+02  0.10000036134E+02 0.  0.
    3000022    2    5    5    0    0 -0.50701507208E+02  0.31042128644E+02 -0.60402811454E+01  0.59756205361E+02  0.24999786633E+00 0.  0.
        -13    1    4    4    0    0  0.12454387899E+02 -0.69144638134E+01 -0.22618138182E+01  0.14423883476E+02  0.10500000000E+00 0. -1.
         13    1    4    4    0    0  0.43750365025E+01 -0.24779741810E+01 -0.80508833811E+00  0.50931809973E+01  0.10500000000E+00 0.  1.
    3000001    1    5    5    0    0 -0.22174804739E+01  0.30607160055E+00  0.12318789666E+01  0.27437975992E+01  0.10000000000E+01 0. -1.
        -13    1    6    6    0    0 -0.31137663280E+02  0.19010813994E+02 -0.37484764556E+01  0.36674612800E+02  0.10500000000E+00 0. -1.
         13    1    6    6    0    0 -0.19563843928E+02  0.12031314649E+02 -0.22918046898E+01  0.23081592561E+02  0.10500000000E+00 0.  1.
</event>
<event>
11    0  0.3422856E-009  0.9118800E+02  0.7816531E-02  0.1126479E+00
         25   -1    0    0    0    0  0.00000000000E+00  0.00000000000E+00  0.99999998245E-14  0.12500000000E+03  0.12500000000E+03 0.  0.
    3000001    1    3    3    0    0  0.54722294034E+01 -0.74077181145E+01  0.28177881619E+02  0.29661635067E+02  0.10000000000E+01 0. -1.
    1000022    2    1    0    0    0  0.25455282437E+01 -0.10542795453E+02  0.60734009165E+02  0.62500000335E+02  0.99999961283E+01 0.  0.
    3000022    2    3    3    0    0 -0.29267011597E+01 -0.31350773385E+01  0.32556127546E+02  0.32838365267E+02  0.25000613317E+00 0.  0.
    1000022    2    1    0    0    0 -0.25455282437E+01  0.10542795453E+02 -0.60734009165E+02  0.62499999665E+02  0.99999919443E+01 0.  0.
    3000022    2    5    5    0    0  0.28071821391E+01  0.56534954999E+01 -0.40363047151E+02  0.40854379881E+02  0.24999440184E+00 0.  0.
        -13    1    4    4    0    0 -0.19000253293E+01 -0.19675056387E+01  0.21017659989E+02  0.21195146404E+02  0.10500000000E+00 0.  1.
         13    1    4    4    0    0 -0.10266758305E+01 -0.11675716999E+01  0.11538467557E+02  0.11643218863E+02  0.10500000000E+00 0. -1.
    3000001    1    5    5    0    0 -0.53527103828E+01  0.48892999531E+01 -0.20370962014E+02  0.21645619785E+02  0.10000000000E+01 0.  1.
        -13    1    6    6    0    0  0.15976575961E+01  0.32913426132E+01 -0.23027600474E+02  0.23316664740E+02  0.10500000000E+00 0. -1.
         13    1    6    6    0    0  0.12095245431E+01  0.23621528867E+01 -0.17335446676E+02  0.17537715140E+02  0.10500000000E+00 0.  1.
</event>
<event>
11    0  0.3422856E-009  0.9118800E+02  0.7816531E-02  0.1126479E+00
         25   -1    0    0    0    0  0.00000000000E+00  0.00000000000E+00  0.99999998245E-14  0.12500000000E+03  0.12500000000E+03 0.  0.
    3000001    1    3    3    0    0 -0.13292362111E+02  0.14474679718E+02 -0.25771664040E+02  0.32425019827E+02  0.10000000000E+01 0. -1.
    1000022    2    1    0    0    0 -0.30632846428E+02  0.32191548839E+02 -0.42796997802E+02  0.62499998414E+02  0.99999841997E+01 0.  0.
    3000022    2    3    3    0    0 -0.17340484317E+02  0.17716869121E+02 -0.17025333762E+02  0.30074978587E+02  0.24999896065E+00 0.  0.
    1000022    2    1    0    0    0  0.30632846428E+02 -0.32191548839E+02  0.42796997802E+02  0.62500001586E+02  0.10000004022E+02 0.  0.
    3000022    2    5    5    0    0  0.27900385989E+02 -0.28759765892E+02  0.41775577647E+02  0.57886242448E+02  0.25000908690E+00 0.  0.
        -13    1    4    4    0    0 -0.98967583029E+01  0.10056857607E+02 -0.96253128060E+01  0.17080511744E+02  0.10500000000E+00 0. -1.
         13    1    4    4    0    0 -0.74437260145E+01  0.76600115148E+01 -0.74000209559E+01  0.12994466843E+02  0.10500000000E+00 0.  1.
    3000001    1    5    5    0    0  0.27324604393E+01 -0.34317829473E+01  0.10214201550E+01  0.46137591379E+01  0.10000000000E+01 0. -1.
        -13    1    6    6    0    0  0.66990689075E+01 -0.69197068994E+01  0.10066260221E+02  0.13931995106E+02  0.10500000000E+00 0.  1.
         13    1    6    6    0    0  0.21201317081E+02 -0.21840058992E+02  0.31709317426E+02  0.43954247342E+02  0.10500000000E+00 0. -1.
</event>
<event>
11    0  0.3422856E-009  0.9118800E+02  0.7816531E-02  0.1126479E+00
         25   -1    0    0    0    0  0.00000000000E+00  0.00000000000E+00  0.99999998245E-14  0.12500000000E+03  0.12500000000E+03 0.  0.
    3000001    1    3    3    0    0 -0.16382872026E+02  0.35502617682E+02 -0.13651288677E+02  0.41426948242E+02  0.10000000000E+01 0. -1.
    1000022    2    1    0    0    0 -0.30022242281E+02  0.51309915750E+02 -0.16498712191E+02  0.62499997027E+02  0.99999819314E+01 0.  0.
    3000022    2    3    3    0    0 -0.13639370255E+02  0.15807298068E+02 -0.28474235141E+01  0.21073048785E+02  0.24994257033E+00 0.  0.
    1000022    2    1    0    0    0  0.30022242281E+02 -0.51309915750E+02  0.16498712191E+02  0.62500002973E+02  0.10000019093E+02 0.  0.
    3000022    2    5    5    0    0  0.29927057049E+02 -0.47517837229E+02  0.16652116776E+02  0.58574133298E+02  0.25000002153E+00 0.  0.
        -13    1    4    4    0    0 -0.68465193625E+01  0.78908859105E+01 -0.14867673972E+01  0.10552838960E+02  0.10500000000E+00 0.  1.
         13    1    4    4    0    0 -0.67928508926E+01  0.79164121573E+01 -0.13606561169E+01  0.10520209825E+02  0.10500000000E+00 0. -1.
    3000001    1    5    5    0    0  0.95185231925E-01 -0.37920785210E+01 -0.15340458488E+00  0.39258696749E+01  0.10000000000E+01 0. -1.
        -13    1    6    6    0    0  0.15126208217E+02 -0.24132658458E+02  0.84752638259E+01  0.29715795484E+02  0.10500000000E+00 0.  1.
         13    1    6    6    0    0  0.14800848832E+02 -0.23385178770E+02  0.81768529499E+01  0.28858337814E+02  0.10500000000E+00 0. -1.
</event>
<event>
11    0  0.3422856E-009  0.9118800E+02  0.7816531E-02  0.1126479E+00
         25   -1    0    0    0    0  0.00000000000E+00  0.00000000000E+00  0.99999998245E-14  0.12500000000E+03  0.12500000000E+03 0.  0.
    3000001    1    3    3    0    0 -0.16382410327E+02  0.41066763416E+02  0.84291421673E+01  0.45021249020E+02  0.10000000000E+01 0. -1.
    1000022    2    1    0    0    0 -0.18578736534E+02  0.58371042567E+02  0.73418011711E+01  0.62499999965E+02  0.99999944828E+01 0.  0.
    3000022    2    3    3    0    0 -0.21963262070E+01  0.17304279151E+02 -0.10873409962E+01  0.17478750946E+02  0.24999688439E+00 0.  0.
    1000022    2    1    0    0    0  0.18578736534E+02 -0.58371042567E+02 -0.73418011711E+01  0.62500000035E+02  0.99999949158E+01 0.  0.
    3000022    2    5    5    0    0  0.19323128427E+02 -0.52706653422E+02 -0.54607036160E+01  0.56402627511E+02  0.24999798309E+00 0.  0.
        -13    1    4    4    0    0 -0.64986330171E+00  0.52570235818E+01 -0.37384444457E+00  0.53112525753E+01  0.10500000000E+00 0.  1.
         13    1    4    4    0    0 -0.15464629053E+01  0.12047255569E+02 -0.71349655164E+00  0.12167498370E+02  0.10500000000E+00 0. -1.
    3000001    1    5    5    0    0 -0.74439189367E+00 -0.56643891447E+01 -0.18810975552E+01  0.60973725232E+01  0.10000000000E+01 0. -1.
        -13    1    6    6    0    0  0.12849510227E+02 -0.34894104871E+02 -0.36064717145E+01  0.37359418237E+02  0.10500000000E+00 0.  1.
         13    1    6    6    0    0  0.64736182008E+01 -0.17812548552E+02 -0.18542319014E+01  0.19043209274E+02  0.10500000000E+00 0. -1.
</event>
<event>
11    0  0.3422856E-009  0.9118800E+02  0.7816531E-02  0.1126479E+00
         25   -1    0    0    0    0  0.00000000000E+00  0.00000000000E+00  0.99999998245E-14  0.12500000000E+03  0.12500000000E+03 0.  0.
    3000001    1    3    3    0    0  0.48923281877E+02 -0.23830585954E+02 -0.19463970748E+02  0.57803377875E+02  0.10000000000E+01 0. -1.
    1000022    2    1    0    0    0  0.51186018325E+02 -0.27863686657E+02 -0.20244913758E+02  0.62500000221E+02  0.99999994208E+01 0.  0.
    3000022    2    3    3    0    0  0.22627364484E+01 -0.40331007034E+01 -0.78094301004E+00  0.46966223457E+01  0.25002390804E+00 0.  0.
    1000022    2    1    0    0    0 -0.51186018325E+02  0.27863686657E+02  0.20244913758E+02  0.62499999779E+02  0.99999966624E+01 0.  0.
    3000022    2    5    5    0    0 -0.38379044281E+02  0.24829396511E+02  0.17915315268E+02  0.49096547613E+02  0.24999061411E+00 0.  0.
        -13    1    4    4    0    0  0.91982039674E+00 -0.17649204348E+01 -0.31269501193E+00  0.20173787136E+01  0.10500000000E+00 0.  1.
         13    1    4    4    0    0  0.13429160516E+01 -0.22681802685E+01 -0.46824799812E+00  0.26792436321E+01  0.10500000000E+00 0. -1.
    3000001    1    5    5    0    0 -0.12806974044E+02  0.30342901459E+01  0.23295984898E+01  0.13403452167E+02  0.10000000000E+01 0.  1.
        -13    1    6    6    0    0 -0.15248986478E+02  0.99401603533E+01  0.71313034102E+01  0.19550061120E+02  0.10500000000E+00 0.  1.
         13    1    6    6    0    0 -0.23130057803E+02  0.14889236158E+02  0.10784011858E+02  0.29546486493E+02  0.10500000000E+00 0. -1.
</event>
<event>
11    0  0.3422856E-009  0.9118800E+02  0.7816531E-02  0.1126479E+00
         25   -1    0    0    0    0  0.00000000000E+00  0.00000000000E+00  0.99999998245E-14  0.12500000000E+03  0.12500000000E+03 0.  0.
    3000001    1    3    3    0    0 -0.20576336756E+02  0.14722013042E+02  0.45879396764E+02  0.52402694108E+02  0.10000000000E+01 0. -1.
    1000022    2    1    0    0    0 -0.20276957777E+02  0.18163892598E+02  0.55363960320E+02  0.62500001167E+02  0.10000001625E+02 0.  0.
    3000022    2    3    3    0    0  0.29937897806E+00  0.34418795565E+01  0.94845635559E+01  0.10097307059E+02  0.25000270283E+00 0.  0.
    1000022    2    1    0    0    0  0.20276957777E+02 -0.18163892598E+02 -0.55363960320E+02  0.62499998833E+02  0.99999870357E+01 0.  0.
    3000022    2    5    5    0    0 -0.38641892623E+00 -0.29788792987E+01 -0.92192063775E+01  0.96994488153E+01  0.24999925201E+00 0.  0.
        -13    1    4    4    0    0  0.19578313272E+00  0.15115138287E+01  0.41348465667E+01  0.44080592350E+01  0.10500000000E+00 0. -1.
         13    1    4    4    0    0  0.10359584534E+00  0.19303657278E+01  0.53497169892E+01  0.56892478244E+01  0.10500000000E+00 0.  1.
    3000001    1    5    5    0    0  0.20663376704E+02 -0.15185013300E+02 -0.46144753943E+02  0.52800550018E+02  0.10000000000E+01 0. -1.
        -13    1    6    6    0    0 -0.15658136170E+00 -0.16234062364E+01 -0.48707228024E+01  0.51375997459E+01  0.10500000000E+00 0.  1.
         13    1    6    6    0    0 -0.22983756453E+00 -0.13554730624E+01 -0.43484835751E+01  0.45618490694E+01  0.10500000000E+00 0. -1.
</event>
<event>
11    0  0.3422856E-009  0.9118800E+02  0.7816531E-02  0.1126479E+00
         25   -1    0    0    0    0  0.00000000000E+00  0.00000000000E+00  0.99999998245E-14  0.12500000000E+03  0.12500000000E+03 0.  0.
    3000001    1    3    3    0    0  0.51967378851E+01 -0.15652292681E+01 -0.19427672805E+00  0.55221165105E+01  0.10000000000E+01 0. -1.
    1000022    2    1    0    0    0  0.44694546757E+02 -0.37337744811E+02 -0.20360258308E+02  0.62499999004E+02  0.10000002988E+02 0.  0.
    3000022    2    3    3    0    0  0.39497808872E+02 -0.35772515543E+02 -0.20165981580E+02  0.56977882494E+02  0.25001284371E+00 0.  0.
    1000022    2    1    0    0    0 -0.44694546757E+02  0.37337744811E+02  0.20360258308E+02  0.62500000996E+02  0.10000015434E+02 0.  0.
    3000022    2    5    5    0    0 -0.18828130254E+02  0.22174678981E+02  0.10043129739E+02  0.30775669481E+02  0.25000067391E+00 0.  0.
        -13    1    4    4    0    0  0.16742185618E+02 -0.15110854749E+02 -0.84787495455E+01  0.24094375472E+02  0.10500000000E+00 0. -1.
         13    1    4    4    0    0  0.22755623254E+02 -0.20661660794E+02 -0.11687232034E+02  0.32883507022E+02  0.10500000000E+00 0.  1.
    3000001    1    5    5    0    0 -0.25866416504E+02  0.15163065831E+02  0.10317128569E+02  0.31724331514E+02  0.10000000000E+01 0. -1.
        -13    1    6    6    0    0 -0.55813420903E+01  0.65050432394E+01  0.29623525010E+01  0.90693728788E+01  0.10500000000E+00 0. -1.
         13    1    6    6    0    0 -0.13246788163E+02  0.15669635741E+02  0.70807772375E+01  0.21706296602E+02  0.10500000000E+00 0.  1.
</event>
<event>
11    0  0.3422856E-009  0.9118800E+02  0.7816531E-02  0.1126479E+00
         25   -1    0    0    0    0  0.00000000000E+00  0.00000000000E+00  0.99999998245E-14  0.12500000000E+03  0.12500000000E+03 0.  0.
    3000001    1    3    3    0    0 -0.16483011531E+01  0.10830576830E+02 -0.31743002694E+02  0.33595185833E+02  0.10000000000E+01 0. -1.
    1000022    2    1    0    0    0  0.55234480844E+01  0.16903386255E+02 -0.59076366336E+02  0.62500000349E+02  0.10000001926E+02 0.  0.
    3000022    2    3    3    0    0  0.71717492375E+01  0.60728094251E+01 -0.27333363643E+02  0.28904814516E+02  0.25006547571E+00 0.  0.
    1000022    2    1    0    0    0 -0.55234480844E+01 -0.16903386255E+02  0.59076366336E+02  0.62499999651E+02  0.99999975611E+01 0.  0.
    3000022    2    5    5    0    0  0.25422315174E+01 -0.65900845374E+01  0.25046860677E+02  0.26024985803E+02  0.25000198756E+00 0.  0.
        -13    1    4    4    0    0  0.16474046080E+01  0.13881699990E+01 -0.62699034781E+01  0.66305107279E+01  0.10500000000E+00 0.  1.
         13    1    4    4    0    0  0.55243446295E+01  0.46846394261E+01 -0.21063460165E+02  0.22274303788E+02  0.10500000000E+00 0. -1.
    3000001    1    5    5    0    0 -0.80656796018E+01 -0.10313301717E+02  0.34029505660E+02  0.36475013848E+02  0.10000000000E+01 0. -1.
        -13    1    6    6    0    0  0.88999569094E+00 -0.23035977204E+01  0.85538137658E+01  0.89037862580E+01  0.10500000000E+00 0. -1.
         13    1    6    6    0    0  0.16522358264E+01 -0.42864868171E+01  0.16493046911E+02  0.17121199545E+02  0.10500000000E+00 0.  1.
</event>
<event>
11    0  0.3422856E-009  0.9118800E+02  0.7816531E-02  0.1126479E+00
         25   -1    0    0    0    0  0.00000000000E+00  0.00000000000E+00  0.99999998245E-14  0.12500000000E+03  0.12500000000E+03 0.  0.
    3000001    1    3    3    0    0  0.53899108818E+02  0.24383898399E+02 -0.12691196569E+02  0.60512435936E+02  0.10000000000E+01 0. -1.
    1000022    2    1    0    0    0  0.54384055325E+02  0.26289804059E+02 -0.12548764664E+02  0.62500006110E+02  0.99999999064E+01 0.  0.
    3000022    2    3    3    0    0  0.48494650673E+00  0.19059056600E+01  0.14243190491E+00  0.19875701744E+01  0.24999770232E+00 0.  0.
    1000022    2    1    0    0    0 -0.54384055325E+02 -0.26289804059E+02  0.12548764664E+02  0.62499993890E+02  0.99999235316E+01 0.  0.
    3000022    2    5    5    0    0 -0.11566628386E+02 -0.97914454999E+01  0.10984993686E+01  0.15196331662E+02  0.24999587321E+00 0.  0.
        -13    1    4    4    0    0  0.36978933985E+00  0.12467636822E+01  0.73296782164E-01  0.13067368723E+01  0.10500000000E+00 0. -1.
         13    1    4    4    0    0  0.11515716688E+00  0.65914197783E+00  0.69135122746E-01  0.68083330208E+00  0.10500000000E+00 0.  1.
    3000001    1    5    5    0    0 -0.42817426939E+02 -0.16498358559E+02  0.11450265295E+02  0.47303662228E+02  0.10000000000E+01 0. -1.
        -13    1    6    6    0    0 -0.74097063519E+01 -0.62002334715E+01  0.71969908799E+00  0.96889439620E+01  0.10500000000E+00 0. -1.
         13    1    6    6    0    0 -0.41569220341E+01 -0.35912120284E+01  0.37880028064E+00  0.55073877005E+01  0.10500000000E+00 0.  1.
</event>
<event>
11    0  0.3422856E-009  0.9118800E+02  0.7816531E-02  0.1126479E+00
         25   -1    0    0    0    0  0.00000000000E+00  0.00000000000E+00  0.99999998245E-14  0.12500000000E+03  0.12500000000E+03 0.  0.
    3000001    1    3    3    0    0  0.11728774153E+02 -0.15828732184E+01 -0.65005453107E+01  0.13539819795E+02  0.10000000000E+01 0. -1.
    1000022    2    1    0    0    0  0.42199513703E+02 -0.87388524003E+01 -0.44148425052E+02  0.62500001071E+02  0.10000010066E+02 0.  0.
    3000022    2    3    3    0    0  0.30470739551E+02 -0.71559791818E+01 -0.37647879741E+02  0.48960181276E+02  0.24998961297E+00 0.  0.
    1000022    2    1    0    0    0 -0.42199513703E+02  0.87388524003E+01  0.44148425052E+02  0.62499998929E+02  0.99999966730E+01 0.  0.
    3000022    2    5    5    0    0 -0.19438779826E+02  0.89516737491E+01  0.22926141355E+02  0.31363499047E+02  0.24998203895E+00 0.  0.
        -13    1    4    4    0    0  0.20521931847E+02 -0.48727747262E+01 -0.25362600143E+02  0.32987363206E+02  0.10500000000E+00 0. -1.
         13    1    4    4    0    0  0.99488077039E+01 -0.22832044556E+01 -0.12285279598E+02  0.15972818070E+02  0.10500000000E+00 0.  1.
    3000001    1    5    5    0    0 -0.22760733877E+02 -0.21282134886E+00  0.21222283697E+02  0.31136499881E+02  0.10000000000E+01 0.  1.
        -13    1    6    6    0    0 -0.89749633781E+01  0.42065643209E+01  0.10628617762E+02  0.14533536787E+02  0.10500000000E+00 0. -1.
         13    1    6    6    0    0 -0.10463816448E+02  0.47451094282E+01  0.12297523593E+02  0.16829962260E+02  0.10500000000E+00 0.  1.
</event>
<event>
11    0  0.3422856E-009  0.9118800E+02  0.7816531E-02  0.1126479E+00
         25   -1    0    0    0    0  0.00000000000E+00  0.00000000000E+00  0.99999998245E-14  0.12500000000E+03  0.12500000000E+03 0.  0.
    3000001    1    3    3    0    0  0.11719309108E+01 -0.38419097406E+01  0.10020240210E+02  0.10841536163E+02  0.10000000000E+01 0. -1.
    1000022    2    1    0    0    0  0.26945690027E+02 -0.19239626257E+02  0.52057819291E+02  0.62500000107E+02  0.10000001723E+02 0.  0.
    3000022    2    3    3    0    0  0.25773759116E+02 -0.15397716516E+02  0.42037579081E+02  0.51658463944E+02  0.25001817939E+00 0.  0.
    1000022    2    1    0    0    0 -0.26945690027E+02  0.19239626257E+02 -0.52057819291E+02  0.62499999893E+02  0.10000000388E+02 0.  0.
    3000022    2    5    5    0    0 -0.22862591935E+02  0.11083948971E+02 -0.37924937721E+02  0.45649922638E+02  0.25000189493E+00 0.  0.
        -13    1    4    4    0    0  0.13701786088E+02 -0.81071847459E+01  0.22293891256E+02  0.27395145534E+02  0.10500000000E+00 0. -1.
         13    1    4    4    0    0  0.12071973029E+02 -0.72905317705E+01  0.19743687825E+02  0.24263318410E+02  0.10500000000E+00 0.  1.
    3000001    1    5    5    0    0 -0.40830980921E+01  0.81556772863E+01 -0.14132881570E+02  0.16850077255E+02  0.10000000000E+01 0.  1.
        -13    1    6    6    0    0 -0.71469989660E+01  0.34486429091E+01 -0.11761706899E+02  0.14188781002E+02  0.10500000000E+00 0.  1.
         13    1    6    6    0    0 -0.15715592969E+02  0.76353060616E+01 -0.26163230822E+02  0.31461141636E+02  0.10500000000E+00 0. -1.
</event>
<event>
11    0  0.3422856E-009  0.9118800E+02  0.7816531E-02  0.1126479E+00
         25   -1    0    0    0    0  0.00000000000E+00  0.00000000000E+00  0.99999998245E-14  0.12500000000E+03  0.12500000000E+03 0.  0.
    3000001    1    3    3    0    0  0.49619967758E+02 -0.27233190345E+02 -0.44306906197E+01  0.56783966716E+02  0.10000000000E+01 0. -1.
    1000022    2    1    0    0    0  0.55052226628E+02 -0.27151225409E+02 -0.61897750444E+01  0.62499999713E+02  0.99999975606E+01 0.  0.
    3000022    2    3    3    0    0  0.54322588698E+01  0.81964936014E-01 -0.17590844246E+01  0.57160329973E+01  0.25000106740E+00 0.  0.
    1000022    2    1    0    0    0 -0.55052226628E+02  0.27151225409E+02  0.61897750444E+01  0.62500000287E+02  0.10000001144E+02 0.  0.
    3000022    2    5    5    0    0 -0.34430675357E+02  0.19809161000E+02  0.79717088071E+01  0.40515242510E+02  0.24993845918E+00 0.  0.
        -13    1    4    4    0    0  0.20579450362E+01 -0.56124643123E-02 -0.61584846571E+00  0.21506890999E+01  0.10500000000E+00 0. -1.
         13    1    4    4    0    0  0.33743138336E+01  0.87577400327E-01 -0.11432359589E+01  0.35653438974E+01  0.10500000000E+00 0.  1.
    3000001    1    5    5    0    0 -0.20621551270E+02  0.73420644085E+01 -0.17819337627E+01  0.21984757777E+02  0.10000000000E+01 0. -1.
        -13    1    6    6    0    0 -0.11755737041E+02  0.67102995877E+01  0.27468384369E+01  0.13812372003E+02  0.10500000000E+00 0. -1.
         13    1    6    6    0    0 -0.22674938316E+02  0.13098861413E+02  0.52248703702E+01  0.26702870507E+02  0.10500000000E+00 0.  1.
</event>
<event>
11    0  0.3422856E-009  0.9118800E+02  0.7816531E-02  0.1126479E+00
         25   -1    0    0    0    0  0.00000000000E+00  0.00000000000E+00  0.99999998245E-14  0.12500000000E+03  0.12500000000E+03 0.  0.
    3000001    1    3    3    0    0  0.17423459926E+00  0.57541920460E+00  0.20140401214E+00  0.11840728579E+01  0.10000000000E+01 0. -1.
    1000022    2    1    0    0    0  0.16801072685E+02  0.15784826263E+02  0.57225983477E+02  0.62500000388E+02  0.10000004000E+02 0.  0.
    3000022    2    3    3    0    0  0.16626838086E+02  0.15209407058E+02  0.57024579465E+02  0.61315927530E+02  0.24999575249E+00 0.  0.
    1000022    2    1    0    0    0 -0.16801072685E+02 -0.15784826263E+02 -0.57225983477E+02  0.62499999612E+02  0.99999991510E+01 0.  0.
    3000022    2    5    5    0    0 -0.88965978485E+01 -0.13979957155E+02 -0.43179579931E+02  0.46250700319E+02  0.25000320635E+00 0.  0.
        -13    1    4    4    0    0  0.11380952354E+02  0.10420951826E+02  0.38915548235E+02  0.41863507173E+02  0.10500000000E+00 0.  1.
         13    1    4    4    0    0  0.52458857319E+01  0.47884552325E+01  0.18109031230E+02  0.19452420357E+02  0.10500000000E+00 0. -1.
    3000001    1    5    5    0    0 -0.79044748370E+01 -0.18048691084E+01 -0.14046403546E+02  0.16249299293E+02  0.10000000000E+01 0.  1.
        -13    1    6    6    0    0 -0.39181554305E+01 -0.62615916404E+01 -0.19148382430E+02  0.20523914016E+02  0.10500000000E+00 0. -1.
         13    1    6    6    0    0 -0.49784424180E+01 -0.77183655142E+01 -0.24031197501E+02  0.25726786303E+02  0.10500000000E+00 0.  1.
</event>
<event>
11    0  0.3422856E-009  0.9118800E+02  0.7816531E-02  0.1126479E+00
         25   -1    0    0    0    0  0.00000000000E+00  0.00000000000E+00  0.99999998245E-14  0.12500000000E+03  0.12500000000E+03 0.  0.
    3000001    1    3    3    0    0 -0.20777653222E+02 -0.65510724104E+01  0.12051795960E+01  0.21842158341E+02  0.10000000000E+01 0.  1.
    1000022    2    1    0    0    0 -0.53576737308E+02 -0.28917886901E+02  0.99769153922E+01  0.62500000864E+02  0.10000015193E+02 0.  0.
    3000022    2    3    3    0    0 -0.32799084086E+02 -0.22366814490E+02  0.87717357962E+01  0.40657842522E+02  0.25000479818E+00 0.  0.
    1000022    2    1    0    0    0  0.53576737308E+02  0.28917886901E+02 -0.99769153922E+01  0.62499999136E+02  0.10000004397E+02 0.  0.
    3000022    2    5    5    0    0  0.60608193042E+01  0.14551141369E+01  0.15150794159E+01  0.64194116191E+01  0.24998421746E+00 0.  0.
        -13    1    4    4    0    0 -0.21752014383E+02 -0.14898523659E+02  0.58305940030E+01  0.27002277467E+02  0.10500000000E+00 0.  1.
         13    1    4    4    0    0 -0.11047069702E+02 -0.74682908314E+01  0.29411417932E+01  0.13655565056E+02  0.10500000000E+00 0. -1.
    3000001    1    5    5    0    0  0.47515918004E+02  0.27462772764E+02 -0.11491994808E+02  0.56080587517E+02  0.10000000000E+01 0. -1.
        -13    1    6    6    0    0  0.29697322201E+01  0.72225180248E+00  0.81203791740E+00  0.31640777020E+01  0.10500000000E+00 0.  1.
         13    1    6    6    0    0  0.30910870842E+01  0.73286233439E+00  0.70304149849E+00  0.32553339171E+01  0.10500000000E+00 0. -1.
</event>
<event>
11    0  0.3422856E-009  0.9118800E+02  0.7816531E-02  0.1126479E+00
         25   -1    0    0    0    0  0.00000000000E+00  0.00000000000E+00  0.99999998245E-14  0.12500000000E+03  0.12500000000E+03 0.  0.
    3000001    1    3    3    0    0  0.65922989145E+01  0.66486390785E+01 -0.36458832572E+01  0.10097290295E+02  0.10000000000E+01 0.  1.
    1000022    2    1    0    0    0  0.25550733627E+02  0.40884187258E+02 -0.38495366320E+02  0.62499999979E+02  0.10000000630E+02 0.  0.
    3000022    2    3    3    0    0  0.18958434713E+02  0.34235548180E+02 -0.34849483062E+02  0.52402709684E+02  0.25001312769E+00 0.  0.
    1000022    2    1    0    0    0 -0.25550733627E+02 -0.40884187258E+02  0.38495366320E+02  0.62500000021E+02  0.10000000895E+02 0.  0.
    3000022    2    5    5    0    0 -0.14856315318E+01 -0.80770072918E+01  0.39509623707E+01  0.91168937008E+01  0.24999851380E+00 0.  0.
        -13    1    4    4    0    0  0.71561220254E+01  0.12877059934E+02 -0.13194314072E+02  0.19776999363E+02  0.10500000000E+00 0.  1.
         13    1    4    4    0    0  0.11802312688E+02  0.21358488246E+02 -0.21655168990E+02  0.32625710320E+02  0.10500000000E+00 0. -1.
    3000001    1    5    5    0    0 -0.24065102096E+02 -0.32807179967E+02  0.34544403949E+02  0.53383106320E+02  0.10000000000E+01 0. -1.
        -13    1    6    6    0    0 -0.84745430842E+00 -0.48089312575E+01  0.22909851535E+01  0.53947786440E+01  0.10500000000E+00 0.  1.
         13    1    6    6    0    0 -0.63817722336E+00 -0.32680760343E+01  0.16599772172E+01  0.37221150568E+01  0.10500000000E+00 0. -1.
</event>
<event>
11    0  0.3422856E-009  0.9118800E+02  0.7816531E-02  0.1126479E+00
         25   -1    0    0    0    0  0.00000000000E+00  0.00000000000E+00  0.99999998245E-14  0.12500000000E+03  0.12500000000E+03 0.  0.
    3000001    1    3    3    0    0  0.43102467504E+01  0.24286767115E+01 -0.14166888551E+01  0.52424903366E+01  0.10000000000E+01 0.  1.
    1000022    2    1    0    0    0  0.58188222182E+02 -0.10808372191E+01 -0.20474682702E+02  0.62500001236E+02  0.10000005651E+02 0.  0.
    3000022    2    3    3    0    0  0.53877975432E+02 -0.35095139306E+01 -0.19057993846E+02  0.57257510900E+02  0.25000066711E+00 0.  0.
    1000022    2    1    0    0    0 -0.58188222182E+02  0.10808372191E+01  0.20474682702E+02  0.62499998764E+02  0.99999901964E+01 0.  0.
    3000022    2    5    5    0    0 -0.11708458652E+02 -0.33560865078E+01  0.61745346158E+01  0.13657917059E+02  0.25000003209E+00 0.  0.
        -13    1    4    4    0    0  0.23794181849E+02 -0.15128260614E+01 -0.84740256379E+01  0.25303593975E+02  0.10500000000E+00 0.  1.
         13    1    4    4    0    0  0.30083793583E+02 -0.19966878691E+01 -0.10583968209E+02  0.31953916925E+02  0.10500000000E+00 0. -1.
    3000001    1    5    5    0    0 -0.46479763530E+02  0.44369237269E+01  0.14300148086E+02  0.48842081705E+02  0.10000000000E+01 0.  1.
        -13    1    6    6    0    0 -0.32644598583E+01 -0.93737257985E+00  0.17663656948E+01  0.38296786142E+01  0.10500000000E+00 0.  1.
         13    1    6    6    0    0 -0.84439987936E+01 -0.24187139279E+01  0.44081689211E+01  0.98282384448E+01  0.10500000000E+00 0. -1.
</event>
<event>
11    0  0.3422856E-009  0.9118800E+02  0.7816531E-02  0.1126479E+00
         25   -1    0    0    0    0  0.00000000000E+00  0.00000000000E+00  0.99999998245E-14  0.12500000000E+03  0.12500000000E+03 0.  0.
    3000001    1    3    3    0    0 -0.64541235355E+01  0.28639487390E+02  0.16946208341E+02  0.33912386022E+02  0.10000000000E+01 0. -1.
    1000022    2    1    0    0    0 -0.18380069042E+02  0.53375332176E+02  0.24889698662E+02  0.62499999845E+02  0.99999929102E+01 0.  0.
    3000022    2    3    3    0    0 -0.11925945507E+02  0.24735844786E+02  0.79434903210E+01  0.28587613823E+02  0.24986412519E+00 0.  0.
    1000022    2    1    0    0    0  0.18380069042E+02 -0.53375332176E+02 -0.24889698662E+02  0.62500000155E+02  0.99999948478E+01 0.  0.
    3000022    2    5    5    0    0  0.77075743903E+01 -0.33932015135E+02 -0.11893949849E+02  0.36773861562E+02  0.24999420783E+00 0.  0.
        -13    1    4    4    0    0 -0.64984479144E+01  0.13325087244E+02  0.42950737060E+01  0.15435234320E+02  0.10500000000E+00 0.  1.
         13    1    4    4    0    0 -0.54274975925E+01  0.11410757542E+02  0.36484166150E+01  0.13152379503E+02  0.10500000000E+00 0. -1.
    3000001    1    5    5    0    0  0.10672494652E+02 -0.19443317042E+02 -0.12995748814E+02  0.25726138593E+02  0.10000000000E+01 0. -1.
        -13    1    6    6    0    0  0.32418637086E+01 -0.14007437802E+02 -0.48867206846E+01  0.15185817664E+02  0.10500000000E+00 0. -1.
         13    1    6    6    0    0  0.44657106817E+01 -0.19924577333E+02 -0.70072291641E+01  0.21588043898E+02  0.10500000000E+00 0.  1.
</event>
<event>
11    0  0.3422856E-009  0.9118800E+02  0.7816531E-02  0.1126479E+00
         25   -1    0    0    0    0  0.00000000000E+00  0.00000000000E+00  0.99999998245E-14  0.12500000000E+03  0.12500000000E+03 0.  0.
    3000001    1    3    3    0    0  0.66812536518E+01  0.10735010612E+01  0.59470894705E+00  0.68662386806E+01  0.10000000000E+01 0. -1.
    1000022    2    1    0    0    0  0.52676357532E+02  0.76119639496E+01  0.31201104393E+02  0.62499996636E+02  0.10000001311E+02 0.  0.
    3000022    2    3    3    0    0  0.45995103880E+02  0.65384628884E+01  0.30606395446E+02  0.55633757956E+02  0.25000840787E+00 0.  0.
    1000022    2    1    0    0    0 -0.52676357532E+02 -0.76119639496E+01 -0.31201104393E+02  0.62500003364E+02  0.10000043355E+02 0.  0.
    3000022    2    5    5    0    0 -0.11657981374E+02  0.24337122659E+01 -0.67591947792E+01  0.13696010301E+02  0.24999799674E+00 0.  0.
        -13    1    4    4    0    0  0.25887243513E+02  0.37397256838E+01  0.17266643718E+02  0.31341393319E+02  0.10500000000E+00 0.  1.
         13    1    4    4    0    0  0.20107860367E+02  0.27987372046E+01  0.13339751728E+02  0.24292364637E+02  0.10500000000E+00 0. -1.
    3000001    1    5    5    0    0 -0.41018376158E+02 -0.10045676215E+02 -0.24441909614E+02  0.48803993063E+02  0.10000000000E+01 0. -1.
        -13    1    6    6    0    0 -0.64627320048E+01  0.13469045425E+01 -0.38229708562E+01  0.76293635370E+01  0.10500000000E+00 0. -1.
         13    1    6    6    0    0 -0.51952493689E+01  0.10868077234E+01 -0.29362239230E+01  0.60666467639E+01  0.10500000000E+00 0.  1.
</event>
<event>
11    0  0.3422856E-009  0.9118800E+02  0.7816531E-02  0.1126479E+00
         25   -1    0    0    0    0  0.00000000000E+00  0.00000000000E+00  0.99999998245E-14  0.12500000000E+03  0.12500000000E+03 0.  0.
    3000001    1    3    3    0    0 -0.37662831130E+01 -0.35633396447E+01 -0.59688355522E+01  0.79692707170E+01  0.10000000000E+01 0.  1.
    1000022    2    1    0    0    0 -0.40926128244E+02 -0.55978638254E+01 -0.45825385560E+02  0.62500000179E+02  0.10000000412E+02 0.  0.
    3000022    2    3    3    0    0 -0.37159845131E+02 -0.20345241807E+01 -0.39856550008E+02  0.54530729462E+02  0.24999672709E+00 0.  0.
    1000022    2    1    0    0    0  0.40926128244E+02  0.55978638254E+01  0.45825385560E+02  0.62499999821E+02  0.99999981698E+01 0.  0.
    3000022    2    5    5    0    0  0.36664354188E+02  0.78731847243E+01  0.41560569681E+02  0.55978615169E+02  0.24999651762E+00 0.  0.
        -13    1    4    4    0    0 -0.11619369408E+02 -0.67607831435E+00 -0.12423304463E+02  0.17023993248E+02  0.10500000000E+00 0.  1.
         13    1    4    4    0    0 -0.25540475723E+02 -0.13584458663E+01 -0.27433245545E+02  0.37506736215E+02  0.10500000000E+00 0. -1.
    3000001    1    5    5    0    0  0.42617740558E+01 -0.22753208988E+01  0.42648158789E+01  0.65213846518E+01  0.10000000000E+01 0.  1.
        -13    1    6    6    0    0  0.88093263887E+01  0.18899027086E+01  0.10014910883E+02  0.13471652782E+02  0.10500000000E+00 0.  1.
         13    1    6    6    0    0  0.27855027800E+02  0.59832820157E+01  0.31545658798E+02  0.42506962387E+02  0.10500000000E+00 0. -1.
</event>
<event>
11    0  0.3422856E-009  0.9118800E+02  0.7816531E-02  0.1126479E+00
         25   -1    0    0    0    0  0.00000000000E+00  0.00000000000E+00  0.99999998245E-14  0.12500000000E+03  0.12500000000E+03 0.  0.
    3000001    1    3    3    0    0  0.94516865765E+01 -0.77129744330E+01  0.88747329527E+01  0.15119035641E+02  0.10000000000E+01 0. -1.
    1000022    2    1    0    0    0  0.38331836058E+02 -0.42508283260E+02  0.23020992974E+02  0.62499999300E+02  0.99999996870E+01 0.  0.
    3000022    2    3    3    0    0  0.28880149482E+02 -0.34795308827E+02  0.14146260021E+02  0.47380963659E+02  0.24998841970E+00 0.  0.
    1000022    2    1    0    0    0 -0.38331836058E+02  0.42508283260E+02 -0.23020992974E+02  0.62500000700E+02  0.10000008431E+02 0.  0.
    3000022    2    5    5    0    0 -0.36162487232E+02  0.36821369817E+02 -0.22526355482E+02  0.56311969907E+02  0.25001103273E+00 0.  0.
        -13    1    4    4    0    0  0.21537161498E+02 -0.25920685543E+02  0.10518652369E+02  0.35304168834E+02  0.10500000000E+00 0. -1.
         13    1    4    4    0    0  0.73429879839E+01 -0.88746232843E+01  0.36276076521E+01  0.12076794825E+02  0.10500000000E+00 0.  1.
    3000001    1    5    5    0    0 -0.21693488261E+01  0.56869134429E+01 -0.49463749178E+00  0.61880307921E+01  0.10000000000E+01 0. -1.
        -13    1    6    6    0    0 -0.19027664127E+02  0.19423088754E+02 -0.11804358048E+02  0.29642237986E+02  0.10500000000E+00 0.  1.
         13    1    6    6    0    0 -0.17134823105E+02  0.17398281063E+02 -0.10721997434E+02  0.26669731922E+02  0.10500000000E+00 0. -1.
</event>
<event>
11    0  0.3422856E-009  0.9118800E+02  0.7816531E-02  0.1126479E+00
         25   -1    0    0    0    0  0.00000000000E+00  0.00000000000E+00  0.99999998245E-14  0.12500000000E+03  0.12500000000E+03 0.  0.
    3000001    1    3    3    0    0 -0.32277518216E+02  0.14885963171E+02  0.65296244456E+01  0.36153368822E+02  0.10000000000E+01 0. -1.
    1000022    2    1    0    0    0 -0.57855356750E+02  0.20913389505E+02  0.46516579428E+01  0.62499999422E+02  0.99999920483E+01 0.  0.
    3000022    2    3    3    0    0 -0.25577838533E+02  0.60274263343E+01 -0.18779665028E+01  0.26346630601E+02  0.24998718932E+00 0.  0.
    1000022    2    1    0    0    0  0.57855356750E+02 -0.20913389505E+02 -0.46516579428E+01  0.62500000578E+02  0.99999992671E+01 0.  0.
    3000022    2    5    5    0    0  0.65703466541E+01 -0.10719296893E+01  0.23355143134E+01  0.70594345246E+01  0.25000057050E+00 0.  0.
        -13    1    4    4    0    0 -0.11841572484E+02  0.28286512972E+01 -0.92617677557E+00  0.12210361807E+02  0.10500000000E+00 0. -1.
         13    1    4    4    0    0 -0.13736266050E+02  0.31987750371E+01 -0.95178972725E+00  0.14136268794E+02  0.10500000000E+00 0.  1.
    3000001    1    5    5    0    0  0.51285010096E+02 -0.19841459816E+02 -0.69871722562E+01  0.55440566053E+02  0.10000000000E+01 0.  1.
        -13    1    6    6    0    0  0.44006273500E+01 -0.67817726388E+00  0.15235327573E+01  0.47071883898E+01  0.10500000000E+00 0.  1.
         13    1    6    6    0    0  0.21697193041E+01 -0.39375242543E+00  0.81198155607E+00  0.23522461348E+01  0.10500000000E+00 0. -1.
</event>
<event>
11    0  0.3422856E-009  0.9118800E+02  0.7816531E-02  0.1126479E+00
         25   -1    0    0    0    0  0.00000000000E+00  0.00000000000E+00  0.99999998245E-14  0.12500000000E+03  0.12500000000E+03 0.  0.
    3000001    1    3    3    0    0  0.26546803173E+00 -0.23295207957E+01 -0.72581313263E+01  0.76926985358E+01  0.10000000000E+01 0.  1.
    1000022    2    1    0    0    0  0.26547220966E+02 -0.12911778575E+02 -0.54173618509E+02  0.62499998683E+02  0.99999963042E+01 0.  0.
    3000022    2    3    3    0    0  0.26281752934E+02 -0.10582257779E+02 -0.46915487182E+02  0.54807300147E+02  0.24998974221E+00 0.  0.
    1000022    2    1    0    0    0 -0.26547220966E+02  0.12911778575E+02  0.54173618509E+02  0.62500001317E+02  0.10000012766E+02 0.  0.
    3000022    2    5    5    0    0 -0.17697003360E+02  0.64800460352E+01  0.24872384072E+02  0.31206936996E+02  0.25000534688E+00 0.  0.
        -13    1    4    4    0    0  0.15578519544E+02 -0.63339761704E+01 -0.27901964606E+02  0.32578216329E+02  0.10500000000E+00 0.  1.
         13    1    4    4    0    0  0.10703233390E+02 -0.42482816085E+01 -0.19013522577E+02  0.22229083818E+02  0.10500000000E+00 0. -1.
    3000001    1    5    5    0    0 -0.88502176066E+01  0.64317325395E+01  0.29301234436E+02  0.31293064321E+02  0.10000000000E+01 0. -1.
        -13    1    6    6    0    0 -0.81164410202E+01  0.29152179171E+01  0.11448973113E+02  0.14334054579E+02  0.10500000000E+00 0. -1.
         13    1    6    6    0    0 -0.95805623394E+01  0.35648281181E+01  0.13423410959E+02  0.16872882416E+02  0.10500000000E+00 0.  1.
</event>
<event>
11    0  0.3422856E-009  0.9118800E+02  0.7816531E-02  0.1126479E+00
         25   -1    0    0    0    0  0.00000000000E+00  0.00000000000E+00  0.99999998245E-14  0.12500000000E+03  0.12500000000E+03 0.  0.
    3000001    1    3    3    0    0 -0.67546409022E+01  0.18976672392E+02 -0.10704674345E+02  0.22832637203E+02  0.10000000000E+01 0.  1.
    1000022    2    1    0    0    0 -0.20352690463E+02  0.55703133649E+02 -0.17005274257E+02  0.62500003757E+02  0.10000000484E+02 0.  0.
    3000022    2    3    3    0    0 -0.13598049561E+02  0.36726461256E+02 -0.63005999120E+01  0.39667366554E+02  0.25000362379E+00 0.  0.
    1000022    2    1    0    0    0  0.20352690463E+02 -0.55703133649E+02  0.17005274257E+02  0.62499996243E+02  0.99999535263E+01 0.  0.
    3000022    2    5    5    0    0  0.19525354481E+02 -0.43003640191E+02  0.15152895295E+02  0.49600658015E+02  0.25000487590E+00 0.  0.
        -13    1    4    4    0    0 -0.54152461420E+01  0.14678857486E+02 -0.24561302765E+01  0.15837845460E+02  0.10500000000E+00 0.  1.
         13    1    4    4    0    0 -0.81828034185E+01  0.22047603771E+02 -0.38444696355E+01  0.23829521094E+02  0.10500000000E+00 0. -1.
    3000001    1    5    5    0    0  0.82733598156E+00 -0.12699493458E+02  0.18523789622E+01  0.12899338228E+02  0.10000000000E+01 0.  1.
        -13    1    6    6    0    0  0.84760857631E+01 -0.18717530182E+02  0.65266635741E+01  0.21559181997E+02  0.10500000000E+00 0. -1.
         13    1    6    6    0    0  0.11049268718E+02 -0.24286110009E+02  0.86262317205E+01  0.28041476018E+02  0.10500000000E+00 0.  1.
</event>
<event>
11    0  0.3422856E-009  0.9118800E+02  0.7816531E-02  0.1126479E+00
         25   -1    0    0    0    0  0.00000000000E+00  0.00000000000E+00  0.99999998245E-14  0.12500000000E+03  0.12500000000E+03 0.  0.
    3000001    1    3    3    0    0 -0.57950154730E+02 -0.15468310677E+02 -0.22492106826E+01  0.60029559528E+02  0.10000000000E+01 0. -1.
    1000022    2    1    0    0    0 -0.59118090480E+02 -0.17319459577E+02 -0.33671335573E+01  0.62500000656E+02  0.10000009582E+02 0.  0.
    3000022    2    3    3    0    0 -0.11679357499E+01 -0.18511488999E+01 -0.11179228747E+01  0.24704411285E+01  0.25000330055E+00 0.  0.
    1000022    2    1    0    0    0  0.59118090480E+02  0.17319459577E+02  0.33671335573E+01  0.62499999344E+02  0.10000001379E+02 0.  0.
    3000022    2    5    5    0    0  0.42348087507E+02  0.13807141897E+02 -0.17905141212E+01  0.44578763204E+02  0.25001031135E+00 0.  0.
        -13    1    4    4    0    0 -0.48439017733E+00 -0.85833628029E+00 -0.45201681510E+00  0.10893664283E+01  0.10500000000E+00 0. -1.
         13    1    4    4    0    0 -0.68354557258E+00 -0.99281261956E+00 -0.66590605960E+00  0.13810747002E+01  0.10500000000E+00 0.  1.
    3000001    1    5    5    0    0  0.16770002973E+02  0.35123176802E+01  0.51576476784E+01  0.17921236139E+02  0.10000000000E+01 0. -1.
        -13    1    6    6    0    0  0.17192669779E+02  0.55396913169E+01 -0.71467823263E+00  0.18077551383E+02  0.10500000000E+00 0.  1.
         13    1    6    6    0    0  0.25155417728E+02  0.82674505802E+01 -0.10758358885E+01  0.26501211822E+02  0.10500000000E+00 0. -1.
</event>
<event>
11    0  0.3422856E-009  0.9118800E+02  0.7816531E-02  0.1126479E+00
         25   -1    0    0    0    0  0.00000000000E+00  0.00000000000E+00  0.99999998245E-14  0.12500000000E+03  0.12500000000E+03 0.  0.
    3000001    1    3    3    0    0  0.29654931403E+02 -0.71855186718E+01  0.48258928753E+02  0.57104910818E+02  0.10000000000E+01 0. -1.
    1000022    2    1    0    0    0  0.33376891067E+02 -0.10047681600E+02  0.50904588252E+02  0.62499998853E+02  0.99999994356E+01 0.  0.
    3000022    2    3    3    0    0  0.37219596640E+01 -0.28621629286E+01  0.26456594986E+01  0.53950880353E+01  0.25000071222E+00 0.  0.
    1000022    2    1    0    0    0 -0.33376891067E+02  0.10047681600E+02 -0.50904588252E+02  0.62500001147E+02  0.10000013770E+02 0.  0.
    3000022    2    5    5    0    0 -0.20477779558E+02  0.54332017744E+01 -0.38722503153E+02  0.44140161846E+02  0.25000041143E+00 0.  0.
        -13    1    4    4    0    0  0.19763632828E+01 -0.15626405065E+01  0.14858373050E+01  0.29268745575E+01  0.10500000000E+00 0. -1.
         13    1    4    4    0    0  0.17455963811E+01 -0.12995224222E+01  0.11598221936E+01  0.24682134779E+01  0.10500000000E+00 0.  1.
    3000001    1    5    5    0    0 -0.12899111509E+02  0.46144798260E+01 -0.12182085098E+02  0.18359839301E+02  0.10000000000E+01 0.  1.
        -13    1    6    6    0    0 -0.46936760046E+01  0.12472771826E+01 -0.88698365674E+01  0.10112928386E+02  0.10500000000E+00 0. -1.
         13    1    6    6    0    0 -0.15784103553E+02  0.41859245917E+01 -0.29852666586E+02  0.34027233460E+02  0.10500000000E+00 0.  1.
</event>
<event>
11    0  0.3422856E-009  0.9118800E+02  0.7816531E-02  0.1126479E+00
         25   -1    0    0    0    0  0.00000000000E+00  0.00000000000E+00  0.99999998245E-14  0.12500000000E+03  0.12500000000E+03 0.  0.
    3000001    1    3    3    0    0  0.20082144113E+02  0.21126643785E+02  0.12347613639E+01  0.29191646500E+02  0.10000000000E+01 0. -1.
    1000022    2    1    0    0    0  0.48427214840E+02  0.37506510873E+02  0.73699757658E+01  0.62500000435E+02  0.10000000828E+02 0.  0.
    3000022    2    3    3    0    0  0.28345070727E+02  0.16379867089E+02  0.61352144019E+01  0.33308353935E+02  0.25001145293E+00 0.  0.
    1000022    2    1    0    0    0 -0.48427214840E+02 -0.37506510873E+02 -0.73699757658E+01  0.62499999565E+02  0.99999953855E+01 0.  0.
    3000022    2    5    5    0    0  0.12843219852E+00  0.37572559704E+00 -0.94795582946E-01  0.47868914596E+00  0.24998508359E+00 0.  0.
        -13    1    4    4    0    0  0.21708588440E+02  0.12548826842E+02  0.46858066300E+01  0.25508894055E+02  0.10500000000E+00 0. -1.
         13    1    4    4    0    0  0.66364822879E+01  0.38310402469E+01  0.14494077719E+01  0.77994598800E+01  0.10500000000E+00 0.  1.
    3000001    1    5    5    0    0 -0.48555647039E+02 -0.37882236470E+02 -0.72751801829E+01  0.62021310419E+02  0.10000000000E+01 0. -1.
        -13    1    6    6    0    0  0.32031940068E-02  0.21360014519E+00 -0.32768259480E-01  0.24027909045E+00  0.10500000000E+00 0.  1.
         13    1    6    6    0    0  0.12522900451E+00  0.16212545185E+00 -0.62027323466E-01  0.23841005550E+00  0.10500000000E+00 0. -1.
</event>
<event>
11    0  0.3422856E-009  0.9118800E+02  0.7816531E-02  0.1126479E+00
         25   -1    0    0    0    0  0.00000000000E+00  0.00000000000E+00  0.99999998245E-14  0.12500000000E+03  0.12500000000E+03 0.  0.
    3000001    1    3    3    0    0  0.12742898419E+02  0.15760248801E+02  0.70255114586E+01  0.21473814604E+02  0.10000000000E+01 0. -1.
    1000022    2    1    0    0    0  0.39216084676E+02  0.36734993319E+02  0.30313185345E+02  0.62499998377E+02  0.99999779950E+01 0.  0.
    3000022    2    3    3    0    0  0.26473186257E+02  0.20974744517E+02  0.23287673886E+02  0.41026183773E+02  0.25000349147E+00 0.  0.
    1000022    2    1    0    0    0 -0.39216084676E+02 -0.36734993319E+02 -0.30313185345E+02  0.62500001623E+02  0.99999982861E+01 0.  0.
    3000022    2    5    5    0    0 -0.14296770437E+02 -0.17999623313E+02 -0.88322819226E+01  0.24626323122E+02  0.25000441059E+00 0.  0.
        -13    1    4    4    0    0  0.85598826291E+01  0.68300866614E+01  0.75077519110E+01  0.13277764804E+02  0.10500000000E+00 0. -1.
         13    1    4    4    0    0  0.17913303628E+02  0.14144657856E+02  0.15779921975E+02  0.27748418969E+02  0.10500000000E+00 0.  1.
    3000001    1    5    5    0    0 -0.24919314239E+02 -0.18735370006E+02 -0.21480903422E+02  0.37873678501E+02  0.10000000000E+01 0. -1.
        -13    1    6    6    0    0 -0.99088096942E+01 -0.12462211919E+02 -0.61678090817E+01  0.17074663374E+02  0.10500000000E+00 0.  1.
         13    1    6    6    0    0 -0.43879607432E+01 -0.55374113945E+01 -0.26644728409E+01  0.75516597484E+01  0.10500000000E+00 0. -1.
</event>
<event>
11    0  0.3422856E-009  0.9118800E+02  0.7816531E-02  0.1126479E+00
         25   -1    0    0    0    0  0.00000000000E+00  0.00000000000E+00  0.99999998245E-14  0.12500000000E+03  0.12500000000E+03 0.  0.
    3000001    1    3    3    0    0  0.75735908074E+01  0.30974049822E+02  0.66022397249E+01  0.32578222933E+02  0.10000000000E+01 0.  1.
    1000022    2    1    0    0    0  0.18866827785E+02  0.58583587100E+02  0.42727523514E+01  0.62500000248E+02  0.99999875121E+01 0.  0.
    3000022    2    3    3    0    0  0.11293236977E+02  0.27609537278E+02 -0.23294873734E+01  0.29921777316E+02  0.24999231483E+00 0.  0.
    1000022    2    1    0    0    0 -0.18866827785E+02 -0.58583587100E+02 -0.42727523514E+01  0.62499999752E+02  0.99999844102E+01 0.  0.
    3000022    2    5    5    0    0  0.10106802246E+01 -0.66276104426E+01 -0.75700812388E+00  0.67514635153E+01  0.25000720518E+00 0.  0.
        -13    1    4    4    0    0  0.29892592735E+01  0.73032924993E+01 -0.65003077003E+00  0.79187951947E+01  0.10500000000E+00 0.  1.
         13    1    4    4    0    0  0.83039777040E+01  0.20306244779E+02 -0.16794566034E+01  0.22002982121E+02  0.10500000000E+00 0. -1.
    3000001    1    5    5    0    0 -0.19877508010E+02 -0.51955976657E+02 -0.35157442276E+01  0.55748536237E+02  0.10000000000E+01 0.  1.
        -13    1    6    6    0    0  0.64633928932E+00 -0.38073932304E+01 -0.44027041186E+00  0.38882979211E+01  0.10500000000E+00 0. -1.
         13    1    6    6    0    0  0.36434093532E+00 -0.28202172123E+01 -0.31673771203E+00  0.28631655942E+01  0.10500000000E+00 0.  1.
</event>
<event>
11    0  0.3422856E-009  0.9118800E+02  0.7816531E-02  0.1126479E+00
         25   -1    0    0    0    0  0.00000000000E+00  0.00000000000E+00  0.99999998245E-14  0.12500000000E+03  0.12500000000E+03 0.  0.
    3000001    1    3    3    0    0 -0.17158083150E+02  0.26348866276E+02 -0.21372612067E+02  0.38032237877E+02  0.10000000000E+01 0.  1.
    1000022    2    1    0    0    0 -0.22405726554E+02  0.47755806769E+02 -0.31994000274E+02  0.62499997175E+02  0.99999965382E+01 0.  0.
    3000022    2    3    3    0    0 -0.52476434040E+01  0.21406940493E+02 -0.10621388208E+02  0.24467759297E+02  0.24999005503E+00 0.  0.
    1000022    2    1    0    0    0  0.22405726554E+02 -0.47755806769E+02  0.31994000274E+02  0.62500002825E+02  0.10000031853E+02 0.  0.
    3000022    2    5    5    0    0 -0.38955926794E+00 -0.47690874632E+00 -0.43525753952E+00  0.79444378664E+00  0.24998685739E+00 0.  0.
        -13    1    4    4    0    0 -0.20101992432E+01  0.79980407424E+01 -0.40140875951E+01  0.91724304814E+01  0.10500000000E+00 0.  1.
         13    1    4    4    0    0 -0.32374441608E+01  0.13408899750E+02 -0.66073006127E+01  0.15295328816E+02  0.10500000000E+00 0. -1.
    3000001    1    5    5    0    0  0.22795285822E+02 -0.47278898022E+02  0.32429257814E+02  0.61705559039E+02  0.10000000000E+01 0.  1.
        -13    1    6    6    0    0 -0.22577125456E+00 -0.25179159990E+00 -0.15805504145E+00  0.38778610766E+00  0.10500000000E+00 0. -1.
         13    1    6    6    0    0 -0.16378801339E+00 -0.22511714642E+00 -0.27720249807E+00  0.40665767898E+00  0.10500000000E+00 0.  1.
</event>
<event>
11    0  0.3422856E-009  0.9118800E+02  0.7816531E-02  0.1126479E+00
         25   -1    0    0    0    0  0.00000000000E+00  0.00000000000E+00  0.99999998245E-14  0.12500000000E+03  0.12500000000E+03 0.  0.
    3000001    1    3    3    0    0 -0.18214362450E+02 -0.18196127477E+01 -0.26344654834E+02  0.32095401981E+02  0.10000000000E+01 0. -1.
    1000022    2    1    0    0    0 -0.28583727381E+02  0.23142605655E+01 -0.54624762330E+02  0.62500000795E+02  0.10000008336E+02 0.  0.
    3000022    2    3    3    0    0 -0.10369364931E+02  0.41338733132E+01 -0.28280107497E+02  0.30404598814E+02  0.25002272388E+00 0.  0.
    1000022    2    1    0    0    0  0.28583727381E+02 -0.23142605655E+01  0.54624762330E+02  0.62499999205E+02  0.99999984048E+01 0.  0.
    3000022    2    5    5    0    0  0.18753715136E+02  0.78969884278E+00  0.26071776278E+02  0.32126709670E+02  0.25000046529E+00 0.  0.
        -13    1    4    4    0    0 -0.47457444959E+01  0.18316649185E+01 -0.12787183984E+02  0.13762274029E+02  0.10500000000E+00 0. -1.
         13    1    4    4    0    0 -0.56236204355E+01  0.23022083946E+01 -0.15492923512E+02  0.16642324785E+02  0.10500000000E+00 0.  1.
    3000001    1    5    5    0    0  0.98300122452E+01 -0.31039594082E+01  0.28552986052E+02  0.30373289536E+02  0.10000000000E+01 0. -1.
        -13    1    6    6    0    0  0.11194091964E+02  0.40918088819E+00  0.15536908459E+02  0.19154155511E+02  0.10500000000E+00 0.  1.
         13    1    6    6    0    0  0.75596231723E+01  0.38051795459E+00  0.10534867819E+02  0.12972554158E+02  0.10500000000E+00 0. -1.
</event>
<event>
11    0  0.3422856E-009  0.9118800E+02  0.7816531E-02  0.1126479E+00
         25   -1    0    0    0    0  0.00000000000E+00  0.00000000000E+00  0.99999998245E-14  0.12500000000E+03  0.12500000000E+03 0.  0.
    3000001    1    3    3    0    0 -0.26163075715E+02 -0.34181750290E+02  0.20507822249E+02  0.47691397098E+02  0.10000000000E+01 0. -1.
    1000022    2    1    0    0    0 -0.38190283411E+02 -0.42035313292E+02  0.24099479030E+02  0.62499998260E+02  0.99999791176E+01 0.  0.
    3000022    2    3    3    0    0 -0.12027207696E+02 -0.78535630019E+01  0.35916567804E+01  0.14808601161E+02  0.24998627444E+00 0.  0.
    1000022    2    1    0    0    0  0.38190283411E+02  0.42035313292E+02 -0.24099479030E+02  0.62500001740E+02  0.10000000872E+02 0.  0.
    3000022    2    5    5    0    0  0.25263278990E+02  0.20693411810E+02 -0.14773929179E+02  0.35843856441E+02  0.25000707918E+00 0.  0.
        -13    1    4    4    0    0 -0.40150739520E+01 -0.26417392985E+01  0.12545776164E+01  0.49683594231E+01  0.10500000000E+00 0. -1.
         13    1    4    4    0    0 -0.80121337439E+01 -0.52118237034E+01  0.23370791640E+01  0.98402417381E+01  0.10500000000E+00 0.  1.
    3000001    1    5    5    0    0  0.12927004421E+02  0.21341901482E+02 -0.93255498509E+01  0.26656145299E+02  0.10000000000E+01 0.  1.
        -13    1    6    6    0    0  0.80766712673E+01  0.65607452750E+01 -0.46778027624E+01  0.11409156893E+02  0.10500000000E+00 0.  1.
         13    1    6    6    0    0  0.17186607723E+02  0.14132666535E+02 -0.10096126417E+02  0.24434699548E+02  0.10500000000E+00 0. -1.
</event>
<event>
11    0  0.3422856E-009  0.9118800E+02  0.7816531E-02  0.1126479E+00
         25   -1    0    0    0    0  0.00000000000E+00  0.00000000000E+00  0.99999998245E-14  0.12500000000E+03  0.12500000000E+03 0.  0.
    3000001    1    3    3    0    0 -0.28355897440E+02  0.22509680388E+02  0.52240787876E+01  0.36592808446E+02  0.10000000000E+01 0. -1.
    1000022    2    1    0    0    0 -0.49812675622E+02  0.36387049394E+02  0.96433410145E+00  0.62500000513E+02  0.10000005381E+02 0.  0.
    3000022    2    3    3    0    0 -0.21456778182E+02  0.13877369006E+02 -0.42597446861E+01  0.25907192067E+02  0.24995101597E+00 0.  0.
    1000022    2    1    0    0    0  0.49812675622E+02 -0.36387049394E+02 -0.96433410145E+00  0.62499999487E+02  0.99999989729E+01 0.  0.
    3000022    2    5    5    0    0  0.38742516148E+02 -0.23863938581E+02 -0.31575127554E+01  0.45612525792E+02  0.25000047490E+00 0.  0.
        -13    1    4    4    0    0 -0.51787768296E+01  0.33716143712E+01 -0.10210083947E+01  0.62642634093E+01  0.10500000000E+00 0. -1.
         13    1    4    4    0    0 -0.16278001353E+02  0.10505754635E+02 -0.32387362914E+01  0.19642928658E+02  0.10500000000E+00 0.  1.
    3000001    1    5    5    0    0  0.11070159474E+02 -0.12523110813E+02  0.21931786540E+01  0.16887473696E+02  0.10000000000E+01 0. -1.
        -13    1    6    6    0    0  0.22922869274E+02 -0.14121398475E+02 -0.18042998650E+01  0.26984038868E+02  0.10500000000E+00 0.  1.
         13    1    6    6    0    0  0.15819646874E+02 -0.97425401058E+01 -0.13532128905E+01  0.18628486923E+02  0.10500000000E+00 0. -1.
</event>
<event>
11    0  0.3422856E-009  0.9118800E+02  0.7816531E-02  0.1126479E+00
         25   -1    0    0    0    0  0.00000000000E+00  0.00000000000E+00  0.99999998245E-14  0.12500000000E+03  0.12500000000E+03 0.  0.
    3000001    1    3    3    0    0  0.61296061702E+01 -0.18431710411E+01  0.47708184508E+00  0.64959185937E+01  0.10000000000E+01 0. -1.
    1000022    2    1    0    0    0  0.44841436388E+02 -0.40848589135E+02  0.11264450563E+02  0.62500010091E+02  0.10000088161E+02 0.  0.
    3000022    2    3    3    0    0  0.38711830218E+02 -0.39005418094E+02  0.10787368718E+02  0.56004091497E+02  0.25000219612E+00 0.  0.
    1000022    2    1    0    0    0 -0.44841436388E+02  0.40848589135E+02 -0.11264450563E+02  0.62499989909E+02  0.99999620225E+01 0.  0.
    3000022    2    5    5    0    0 -0.21022004893E+02  0.13635746835E+02 -0.73269935002E+01  0.26107577638E+02  0.24998976299E+00 0.  0.
        -13    1    4    4    0    0  0.17650503354E+02 -0.17831157874E+02  0.49843714079E+01  0.25580176761E+02  0.10500000000E+00 0.  1.
         13    1    4    4    0    0  0.21061326864E+02 -0.21174260220E+02  0.58029973098E+01  0.30423914737E+02  0.10500000000E+00 0. -1.
    3000001    1    5    5    0    0 -0.23819431495E+02  0.27212842300E+02 -0.39374570626E+01  0.36392412271E+02  0.10000000000E+01 0. -1.
        -13    1    6    6    0    0 -0.80381196430E+01  0.51950963425E+01 -0.27372367394E+01  0.99550933381E+01  0.10500000000E+00 0.  1.
         13    1    6    6    0    0 -0.12983885250E+02  0.84406504927E+01 -0.45897567608E+01  0.16152484300E+02  0.10500000000E+00 0. -1.
</event>
<event>
11    0  0.3422856E-009  0.9118800E+02  0.7816531E-02  0.1126479E+00
         25   -1    0    0    0    0  0.00000000000E+00  0.00000000000E+00  0.99999998245E-14  0.12500000000E+03  0.12500000000E+03 0.  0.
    3000001    1    3    3    0    0 -0.46083228954E+01  0.14052623844E+02  0.15340688537E+02  0.21331891655E+02  0.10000000000E+01 0.  1.
    1000022    2    1    0    0    0 -0.12947259417E+02  0.49664545441E+02  0.34235246249E+02  0.62500005897E+02  0.10000002555E+02 0.  0.
    3000022    2    3    3    0    0 -0.83389365216E+01  0.35611921597E+02  0.18894557712E+02  0.41168114242E+02  0.24999384502E+00 0.  0.
    1000022    2    1    0    0    0  0.12947259417E+02 -0.49664545441E+02 -0.34235246249E+02  0.62499994103E+02  0.99999288445E+01 0.  0.
    3000022    2    5    5    0    0  0.93117950316E+01 -0.17219954098E+02 -0.11534126841E+02  0.22723004133E+02  0.24997799154E+00 0.  0.
        -13    1    4    4    0    0 -0.29845918254E+01  0.12668020214E+02  0.67850228449E+01  0.14677672994E+02  0.10500000000E+00 0.  1.
         13    1    4    4    0    0 -0.53543446962E+01  0.22943901383E+02  0.12109534867E+02  0.26490441248E+02  0.10500000000E+00 0. -1.
    3000001    1    5    5    0    0  0.36354643854E+01 -0.32444591343E+02 -0.22701119408E+02  0.39776989970E+02  0.10000000000E+01 0.  1.
        -13    1    6    6    0    0  0.61361871635E+01 -0.11424160773E+02 -0.76867683999E+01  0.15075200686E+02  0.10500000000E+00 0. -1.
         13    1    6    6    0    0  0.31756078681E+01 -0.57957933248E+01 -0.38473584411E+01  0.76478034474E+01  0.10500000000E+00 0.  1.
</event>
<event>
11    0  0.3422856E-009  0.9118800E+02  0.7816531E-02  0.1126479E+00
         25   -1    0    0    0    0  0.00000000000E+00  0.00000000000E+00  0.99999998245E-14  0.12500000000E+03  0.12500000000E+03 0.  0.
    3000001    1    3    3    0    0  0.10827792375E+02  0.45414639066E+01  0.38603154615E+01  0.12400323286E+02  0.10000000000E+01 0. -1.
    1000022    2    1    0    0    0  0.47543324742E+02  0.38169076402E+02  0.94342030924E+01  0.62499997557E+02  0.99999692878E+01 0.  0.
    3000022    2    3    3    0    0  0.36715532367E+02  0.33627612495E+02  0.55738876308E+01  0.50099674271E+02  0.24999928546E+00 0.  0.
    1000022    2    1    0    0    0 -0.47543324742E+02 -0.38169076402E+02 -0.94342030924E+01  0.62500002443E+02  0.99999998261E+01 0.  0.
    3000022    2    5    5    0    0 -0.15630816134E+02 -0.10572556609E+02  0.14176721286E+01  0.18925476558E+02  0.25000481760E+00 0.  0.
        -13    1    4    4    0    0  0.14901153359E+02  0.13696394211E+02  0.23188746252E+01  0.20372132690E+02  0.10500000000E+00 0. -1.
         13    1    4    4    0    0  0.21814379008E+02  0.19931218285E+02  0.32550130057E+01  0.29727541581E+02  0.10500000000E+00 0.  1.
    3000001    1    5    5    0    0 -0.31912508608E+02 -0.27596519793E+02 -0.10851875221E+02  0.43574525886E+02  0.10000000000E+01 0.  1.
        -13    1    6    6    0    0 -0.72890553940E+01 -0.48533605317E+01  0.67944215002E+00  0.87839685577E+01  0.10500000000E+00 0.  1.
         13    1    6    6    0    0 -0.83417607397E+01 -0.57191960774E+01  0.73822997858E+00  0.10141508000E+02  0.10500000000E+00 0. -1.
</event>
