<event>
11    0  0.3515428E-009  0.9118800E+02  0.7816531E-02  0.1126479E+00
         25   -1    0    0    0    0  0.00000000000E+00  0.00000000000E+00  0.99999998245E-14  0.12500000000E+03  0.12500000000E+03 0.  0.
    3000001    1    3    3    0    0  0.46609843554E+01  0.55256849157E+01  0.96416966986E+01  0.12092157962E+02  0.10000000000E+01 0.  1.
    1000022    2    1    0    0    0  0.72736651826E+01  0.21222017194E+02  0.57471470269E+02  0.62500001446E+02  0.10000003343E+02 0.  0.
    3000022    2    3    3    0    0  0.26126808272E+01  0.15696332278E+02  0.47829773570E+02  0.50407843484E+02  0.24999356812E+00 0.  0.
    1000022    2    1    0    0    0 -0.72736651826E+01 -0.21222017194E+02 -0.57471470269E+02  0.62499998554E+02  0.99999852735E+01 0.  0.
    3000022    2    5    5    0    0 -0.27146109767E+01 -0.19272644149E+02 -0.46990998007E+02  0.50862759649E+02  0.25000024286E+00 0.  0.
        -13    1    4    4    0    0  0.14302138513E+01  0.82045247282E+01  0.24960846643E+02  0.26313772588E+02  0.10500000000E+00 0.  1.
         13    1    4    4    0    0  0.11824669760E+01  0.74918075497E+01  0.22868926927E+02  0.24094070895E+02  0.10500000000E+00 0. -1.
    3000001    1    5    5    0    0 -0.45590542059E+01 -0.19493730447E+01 -0.10480472262E+02  0.11637238906E+02  0.10000000000E+01 0.  1.
        -13    1    6    6    0    0 -0.17242731858E+01 -0.12617210040E+02 -0.30694394900E+02  0.33231370879E+02  0.10500000000E+00 0. -1.
         13    1    6    6    0    0 -0.99033779099E+00 -0.66554341089E+01 -0.16296603107E+02  0.17631388770E+02  0.10500000000E+00 0.  1.
</event>
<event>
11    0  0.3515428E-009  0.9118800E+02  0.7816531E-02  0.1126479E+00
         25   -1    0    0    0    0  0.00000000000E+00  0.00000000000E+00  0.99999998245E-14  0.12500000000E+03  0.12500000000E+03 0.  0.
    3000001    1    3    3    0    0 -0.37584064014E+00  0.66525794026E+00  0.13450088475E+00  0.12656677296E+01  0.10000000000E+01 0.  1.
    1000022    2    1    0    0    0 -0.52506324188E+02  0.69852346806E+01  0.31631351105E+02  0.62500000380E+02  0.10000004578E+02 0.  0.
    3000022    2    3    3    0    0 -0.52130483548E+02  0.63199767403E+01  0.31496850220E+02  0.61234332650E+02  0.25000092859E+00 0.  0.
    1000022    2    1    0    0    0  0.52506324188E+02 -0.69852346806E+01 -0.31631351105E+02  0.62499999620E+02  0.99999998259E+01 0.  0.
    3000022    2    5    5    0    0  0.46886127126E+02 -0.40728938605E+01 -0.25053021538E+02  0.53316167960E+02  0.24999299672E+00 0.  0.
        -13    1    4    4    0    0 -0.28125362092E+02  0.34522868615E+01  0.17056974833E+02  0.33074245159E+02  0.10500000000E+00 0. -1.
         13    1    4    4    0    0 -0.24005121456E+02  0.28676898788E+01  0.14439875387E+02  0.28160087492E+02  0.10500000000E+00 0.  1.
    3000001    1    5    5    0    0  0.56201970619E+01 -0.29123408201E+01 -0.65783295669E+01  0.91838316599E+01  0.10000000000E+01 0. -1.
        -13    1    6    6    0    0  0.19735251859E+02 -0.17653935262E+01 -0.10593348272E+02  0.22468351805E+02  0.10500000000E+00 0. -1.
         13    1    6    6    0    0  0.27150875267E+02 -0.23075003343E+01 -0.14459673266E+02  0.30847816154E+02  0.10500000000E+00 0.  1.
</event>
<event>
11    0  0.3515428E-009  0.9118800E+02  0.7816531E-02  0.1126479E+00
         25   -1    0    0    0    0  0.00000000000E+00  0.00000000000E+00  0.99999998245E-14  0.12500000000E+03  0.12500000000E+03 0.  0.
    3000001    1    3    3    0    0 -0.17758746033E+01  0.78039907126E+00  0.40873101453E+00  0.22203185266E+01  0.10000000000E+01 0.  1.
    1000022    2    1    0    0    0 -0.49462330416E+02  0.17571398376E+02 -0.32418725385E+02  0.62500000984E+02  0.10000009813E+02 0.  0.
    3000022    2    3    3    0    0 -0.47686455813E+02  0.16790999305E+02 -0.32827456399E+02  0.60279682457E+02  0.24999561925E+00 0.  0.
    1000022    2    1    0    0    0  0.49462330416E+02 -0.17571398376E+02  0.32418725385E+02  0.62499999016E+02  0.99999975184E+01 0.  0.
    3000022    2    5    5    0    0  0.40604817435E+02 -0.17834810306E+02  0.28774237504E+02  0.52866348931E+02  0.24989550990E+00 0.  0.
        -13    1    4    4    0    0 -0.34321695283E+02  0.12044526989E+02 -0.23604890189E+02  0.43361864158E+02  0.10500000000E+00 0. -1.
         13    1    4    4    0    0 -0.13364760530E+02  0.47464723161E+01 -0.92225662103E+01  0.16917818299E+02  0.10500000000E+00 0.  1.
    3000001    1    5    5    0    0  0.88575129813E+01  0.26341192957E+00  0.36444878809E+01  0.96336500857E+01  0.10000000000E+01 0.  1.
        -13    1    6    6    0    0  0.24004940356E+02 -0.10512143496E+02  0.17070408987E+02  0.31275425023E+02  0.10500000000E+00 0.  1.
         13    1    6    6    0    0  0.16599877079E+02 -0.73226668098E+01  0.11703828517E+02  0.21590923908E+02  0.10500000000E+00 0. -1.
</event>
<event>
11    0  0.3515428E-009  0.9118800E+02  0.7816531E-02  0.1126479E+00
         25   -1    0    0    0    0  0.00000000000E+00  0.00000000000E+00  0.99999998245E-14  0.12500000000E+03  0.12500000000E+03 0.  0.
    3000001    1    3    3    0    0 -0.25875478264E+02 -0.50810741218E+02  0.14453963068E+02  0.58831869314E+02  0.10000000000E+01 0. -1.
    1000022    2    1    0    0    0 -0.28668719057E+02 -0.52097628625E+02  0.16437502546E+02  0.62500002619E+02  0.10000023838E+02 0.  0.
    3000022    2    3    3    0    0 -0.27932407923E+01 -0.12868874070E+01  0.19835394778E+01  0.36681333058E+01  0.24999953497E+00 0.  0.
    1000022    2    1    0    0    0  0.28668719057E+02  0.52097628625E+02 -0.16437502546E+02  0.62499997381E+02  0.99999910961E+01 0.  0.
    3000022    2    5    5    0    0  0.18545033699E+02  0.23488038864E+02 -0.86552611511E+01  0.31154169705E+02  0.24999971352E+00 0.  0.
        -13    1    4    4    0    0 -0.11551837128E+01 -0.54763782512E+00  0.90041035109E+00  0.15672014542E+01  0.10500000000E+00 0. -1.
         13    1    4    4    0    0 -0.16380570795E+01 -0.73924958185E+00  0.10831291267E+01  0.21009318516E+01  0.10500000000E+00 0.  1.
    3000001    1    5    5    0    0  0.10123685357E+02  0.28609589761E+02 -0.77822413950E+01  0.31345827676E+02  0.10000000000E+01 0. -1.
        -13    1    6    6    0    0  0.12187219759E+02  0.15370510168E+02 -0.57129033375E+01  0.20431084108E+02  0.10500000000E+00 0. -1.
         13    1    6    6    0    0  0.63578139402E+01  0.81175286958E+01 -0.29423578137E+01  0.10723085597E+02  0.10500000000E+00 0.  1.
</event>
<event>
11    0  0.3515428E-009  0.9118800E+02  0.7816531E-02  0.1126479E+00
         25   -1    0    0    0    0  0.00000000000E+00  0.00000000000E+00  0.99999998245E-14  0.12500000000E+03  0.12500000000E+03 0.  0.
    3000001    1    3    3    0    0 -0.11650281920E+02 -0.15799388024E+02  0.34984941753E+02  0.40128492125E+02  0.10000000000E+01 0. -1.
    1000022    2    1    0    0    0 -0.23904452548E+02 -0.20143662000E+02  0.53188909350E+02  0.62499999674E+02  0.99999955443E+01 0.  0.
    3000022    2    3    3    0    0 -0.12254170628E+02 -0.43442739759E+01  0.18203967597E+02  0.22371507549E+02  0.24999909425E+00 0.  0.
    1000022    2    1    0    0    0  0.23904452548E+02  0.20143662000E+02 -0.53188909350E+02  0.62500000326E+02  0.99999996254E+01 0.  0.
    3000022    2    5    5    0    0  0.11985118751E+02  0.16303706109E+02 -0.31706848177E+02  0.37614367289E+02  0.25000173857E+00 0.  0.
        -13    1    4    4    0    0 -0.61678042546E+01 -0.22584412623E+01  0.92014373001E+01  0.11305743657E+02  0.10500000000E+00 0. -1.
         13    1    4    4    0    0 -0.60863663733E+01 -0.20858327136E+01  0.90025302974E+01  0.11065763891E+02  0.10500000000E+00 0.  1.
    3000001    1    5    5    0    0  0.11919333797E+02  0.38399558911E+01 -0.21482061174E+02  0.24885633038E+02  0.10000000000E+01 0.  1.
        -13    1    6    6    0    0  0.67889369173E+01  0.91397460128E+01 -0.17902741520E+02  0.21216592577E+02  0.10500000000E+00 0. -1.
         13    1    6    6    0    0  0.51961818342E+01  0.71639600965E+01 -0.13804106657E+02  0.16397774712E+02  0.10500000000E+00 0.  1.
</event>
<event>
11    0  0.3515428E-009  0.9118800E+02  0.7816531E-02  0.1126479E+00
         25   -1    0    0    0    0  0.00000000000E+00  0.00000000000E+00  0.99999998245E-14  0.12500000000E+03  0.12500000000E+03 0.  0.
    3000001    1    3    3    0    0  0.48179897301E+01  0.99690715331E+00  0.96625106591E+01  0.10889029394E+02  0.10000000000E+01 0.  1.
    1000022    2    1    0    0    0  0.13268631588E+02 -0.92043188883E+01  0.59543883720E+02  0.62499999398E+02  0.99999882923E+01 0.  0.
    3000022    2    3    3    0    0  0.84506418580E+01 -0.10201226042E+02  0.49881373061E+02  0.51610970004E+02  0.24997140144E+00 0.  0.
    1000022    2    1    0    0    0 -0.13268631588E+02  0.92043188883E+01 -0.59543883720E+02  0.62500000602E+02  0.99999958180E+01 0.  0.
    3000022    2    5    5    0    0 -0.10036723562E+02  0.30407294063E+01 -0.22909569076E+02  0.25197077470E+02  0.25000515737E+00 0.  0.
        -13    1    4    4    0    0  0.31691736850E+01 -0.38355623508E+01  0.18504059763E+02  0.19161587959E+02  0.10500000000E+00 0.  1.
         13    1    4    4    0    0  0.52814681730E+01 -0.63656636908E+01  0.31377313298E+02  0.32449382045E+02  0.10500000000E+00 0. -1.
    3000001    1    5    5    0    0 -0.32319080266E+01  0.61635894820E+01 -0.36634314644E+02  0.37302923132E+02  0.10000000000E+01 0. -1.
        -13    1    6    6    0    0 -0.56346666251E+01  0.17360168731E+01 -0.12735106975E+02  0.14034143979E+02  0.10500000000E+00 0. -1.
         13    1    6    6    0    0 -0.44020569365E+01  0.13047125332E+01 -0.10174462101E+02  0.11162933491E+02  0.10500000000E+00 0.  1.
</event>
<event>
11    0  0.3515428E-009  0.9118800E+02  0.7816531E-02  0.1126479E+00
         25   -1    0    0    0    0  0.00000000000E+00  0.00000000000E+00  0.99999998245E-14  0.12500000000E+03  0.12500000000E+03 0.  0.
    3000001    1    3    3    0    0 -0.29047931239E+02 -0.65689161011E+01 -0.34424407907E+02  0.45529911353E+02  0.10000000000E+01 0. -1.
    1000022    2    1    0    0    0 -0.36332528935E+02 -0.47218260171E+01 -0.49637703256E+02  0.62500001617E+02  0.10000015890E+02 0.  0.
    3000022    2    3    3    0    0 -0.72845976963E+01  0.18470900840E+01 -0.15213295348E+02  0.16970090264E+02  0.25000566442E+00 0.  0.
    1000022    2    1    0    0    0  0.36332528935E+02  0.47218260171E+01  0.49637703256E+02  0.62499998383E+02  0.99999956789E+01 0.  0.
    3000022    2    5    5    0    0  0.16619603267E+01 -0.17163244973E+01  0.54620670533E+01  0.59669554471E+01  0.24999780938E+00 0.  0.
        -13    1    4    4    0    0 -0.20111247654E+01  0.47935469970E+00 -0.42421903185E+01  0.47203397599E+01  0.10500000000E+00 0.  1.
         13    1    4    4    0    0 -0.52734729309E+01  0.13677353843E+01 -0.10971105030E+02  0.12249750504E+02  0.10500000000E+00 0. -1.
    3000001    1    5    5    0    0  0.34670568609E+02  0.64381505144E+01  0.44175636203E+02  0.56533042936E+02  0.10000000000E+01 0.  1.
        -13    1    6    6    0    0  0.75510917624E+00 -0.84915243835E+00  0.24796102584E+01  0.27296046903E+01  0.10500000000E+00 0.  1.
         13    1    6    6    0    0  0.90685115050E+00 -0.86717205896E+00  0.29824567949E+01  0.32373507568E+01  0.10500000000E+00 0. -1.
</event>
<event>
11    0  0.3515428E-009  0.9118800E+02  0.7816531E-02  0.1126479E+00
         25   -1    0    0    0    0  0.00000000000E+00  0.00000000000E+00  0.99999998245E-14  0.12500000000E+03  0.12500000000E+03 0.  0.
    3000001    1    3    3    0    0 -0.15261784412E+02  0.78013178915E+01  0.98368133511E+00  0.17197390885E+02  0.10000000000E+01 0.  1.
    1000022    2    1    0    0    0 -0.53242129488E+02  0.28686241236E+02 -0.12191187623E+02  0.62499999076E+02  0.10000002012E+02 0.  0.
    3000022    2    3    3    0    0 -0.37980345076E+02  0.20884923344E+02 -0.13174868958E+02  0.45302608191E+02  0.25000338164E+00 0.  0.
    1000022    2    1    0    0    0  0.53242129488E+02 -0.28686241236E+02  0.12191187623E+02  0.62500000924E+02  0.10000013562E+02 0.  0.
    3000022    2    5    5    0    0  0.48901461395E+02 -0.24460896508E+02  0.84976025512E+01  0.55334981159E+02  0.25001230999E+00 0.  0.
        -13    1    4    4    0    0 -0.23084852565E+02  0.12752217687E+02 -0.79790504368E+01  0.27553688405E+02  0.10500000000E+00 0.  1.
         13    1    4    4    0    0 -0.14895492511E+02  0.81327056576E+01 -0.51958185209E+01  0.17748919786E+02  0.10500000000E+00 0. -1.
    3000001    1    5    5    0    0  0.43406680923E+01 -0.42253447283E+01  0.36935850713E+01  0.71650197654E+01  0.10000000000E+01 0.  1.
        -13    1    6    6    0    0  0.29356248205E+02 -0.14697322243E+02  0.51647881532E+01  0.33233817889E+02  0.10500000000E+00 0. -1.
         13    1    6    6    0    0  0.19545213190E+02 -0.97635742644E+01  0.33328143981E+01  0.22101163269E+02  0.10500000000E+00 0.  1.
</event>
<event>
11    0  0.3515428E-009  0.9118800E+02  0.7816531E-02  0.1126479E+00
         25   -1    0    0    0    0  0.00000000000E+00  0.00000000000E+00  0.99999998245E-14  0.12500000000E+03  0.12500000000E+03 0.  0.
    3000001    1    3    3    0    0 -0.29823094283E+02 -0.29182210654E+02  0.12809438790E+02  0.43658906232E+02  0.10000000000E+01 0.  1.
    1000022    2    1    0    0    0 -0.45318607701E+02 -0.36338320805E+02  0.20784617680E+02  0.62500000281E+02  0.99999970096E+01 0.  0.
    3000022    2    3    3    0    0 -0.15495513419E+02 -0.71561101501E+01  0.79751788899E+01  0.18841094049E+02  0.24999611259E+00 0.  0.
    1000022    2    1    0    0    0  0.45318607701E+02  0.36338320805E+02 -0.20784617680E+02  0.62499999719E+02  0.99999934909E+01 0.  0.
    3000022    2    5    5    0    0  0.90395976217E+01  0.44135839016E+01 -0.69288325071E+01  0.12217416437E+02  0.24999293513E+00 0.  0.
        -13    1    4    4    0    0 -0.10452579197E+02 -0.48314338027E+01  0.54373551949E+01  0.12734795679E+02  0.10500000000E+00 0. -1.
         13    1    4    4    0    0 -0.50429342215E+01 -0.23246763474E+01  0.25378236950E+01  0.61062983704E+01  0.10500000000E+00 0.  1.
    3000001    1    5    5    0    0  0.36279010080E+02  0.31924736903E+02 -0.13855785173E+02  0.50282583281E+02  0.10000000000E+01 0.  1.
        -13    1    6    6    0    0  0.59508200391E+01  0.29516733460E+01 -0.46178535232E+01  0.80907497082E+01  0.10500000000E+00 0.  1.
         13    1    6    6    0    0  0.30887775826E+01  0.14619105555E+01 -0.23109789840E+01  0.41266667289E+01  0.10500000000E+00 0. -1.
</event>
<event>
11    0  0.3515428E-009  0.9118800E+02  0.7816531E-02  0.1126479E+00
         25   -1    0    0    0    0  0.00000000000E+00  0.00000000000E+00  0.99999998245E-14  0.12500000000E+03  0.12500000000E+03 0.  0.
    3000001    1    3    3    0    0 -0.28848820533E+02  0.31706816641E+02  0.31694859380E+02  0.53321110067E+02  0.10000000000E+01 0.  1.
    1000022    2    1    0    0    0 -0.35152472945E+02  0.38155903952E+02  0.33386833696E+02  0.62500000807E+02  0.10000003801E+02 0.  0.
    3000022    2    3    3    0    0 -0.63036524120E+01  0.64490873110E+01  0.16919743159E+01  0.91788907394E+01  0.24999448771E+00 0.  0.
    1000022    2    1    0    0    0  0.35152472945E+02 -0.38155903952E+02 -0.33386833696E+02  0.62499999193E+02  0.99999937151E+01 0.  0.
    3000022    2    5    5    0    0  0.23838141572E+02 -0.29828710306E+02 -0.20164298478E+02  0.43181829351E+02  0.25000176490E+00 0.  0.
        -13    1    4    4    0    0 -0.33504299772E+01  0.33385591304E+01  0.91377202521E+00  0.48184398319E+01  0.10500000000E+00 0. -1.
         13    1    4    4    0    0 -0.29532224348E+01  0.31105281806E+01  0.77820229074E+00  0.43604509076E+01  0.10500000000E+00 0.  1.
    3000001    1    5    5    0    0  0.11314331373E+02 -0.83271936467E+01 -0.13222535218E+02  0.19318169842E+02  0.10000000000E+01 0. -1.
        -13    1    6    6    0    0  0.86895355752E+01 -0.10874362727E+02 -0.74173736258E+01  0.15773022847E+02  0.10500000000E+00 0.  1.
         13    1    6    6    0    0  0.15148605997E+02 -0.18954347579E+02 -0.12746924852E+02  0.27408806504E+02  0.10500000000E+00 0. -1.
</event>
<event>
11    0  0.3515428E-009  0.9118800E+02  0.7816531E-02  0.1126479E+00
         25   -1    0    0    0    0  0.00000000000E+00  0.00000000000E+00  0.99999998245E-14  0.12500000000E+03  0.12500000000E+03 0.  0.
    3000001    1    3    3    0    0  0.35906479672E+01  0.20832042038E+02  0.21662945970E+02  0.30284483756E+02  0.10000000000E+01 0.  1.
    1000022    2    1    0    0    0  0.12115380935E+02  0.47819257560E+02  0.37051129098E+02  0.62499999962E+02  0.99999989507E+01 0.  0.
    3000022    2    3    3    0    0  0.85247329676E+01  0.26987215522E+02  0.15388183128E+02  0.32215516206E+02  0.24986116894E+00 0.  0.
    1000022    2    1    0    0    0 -0.12115380935E+02 -0.47819257560E+02 -0.37051129098E+02  0.62500000038E+02  0.99999994269E+01 0.  0.
    3000022    2    5    5    0    0 -0.77689438098E+01 -0.19590025096E+02 -0.20857213569E+02  0.29651499595E+02  0.24999839385E+00 0.  0.
        -13    1    4    4    0    0  0.31901242852E+01  0.10300150093E+02  0.58563696632E+01  0.12271025854E+02  0.10500000000E+00 0.  1.
         13    1    4    4    0    0  0.53346086824E+01  0.16687065430E+02  0.95318134651E+01  0.19944490352E+02  0.10500000000E+00 0. -1.
    3000001    1    5    5    0    0 -0.43464371250E+01 -0.28229232464E+02 -0.16193915529E+02  0.32848500443E+02  0.10000000000E+01 0. -1.
        -13    1    6    6    0    0 -0.19764316688E+01 -0.49876768176E+01 -0.52698339345E+01  0.75209957369E+01  0.10500000000E+00 0. -1.
         13    1    6    6    0    0 -0.57925121410E+01 -0.14602348278E+02 -0.15587379634E+02  0.22130503858E+02  0.10500000000E+00 0.  1.
</event>
<event>
11    0  0.3515428E-009  0.9118800E+02  0.7816531E-02  0.1126479E+00
         25   -1    0    0    0    0  0.00000000000E+00  0.00000000000E+00  0.99999998245E-14  0.12500000000E+03  0.12500000000E+03 0.  0.
    3000001    1    3    3    0    0 -0.31381459379E+02  0.10255834501E+02 -0.24562027538E+02  0.41161527315E+02  0.10000000000E+01 0. -1.
    1000022    2    1    0    0    0 -0.44560524753E+02  0.21967979294E+02 -0.36578923847E+02  0.62499999639E+02  0.99999902276E+01 0.  0.
    3000022    2    3    3    0    0 -0.13179065374E+02  0.11712144793E+02 -0.12016896309E+02  0.21338472324E+02  0.25000893447E+00 0.  0.
    1000022    2    1    0    0    0  0.44560524753E+02 -0.21967979294E+02  0.36578923847E+02  0.62500000361E+02  0.99999947399E+01 0.  0.
    3000022    2    5    5    0    0  0.31449190991E+02 -0.12501681821E+02  0.29187169495E+02  0.44691129166E+02  0.25000119845E+00 0.  0.
        -13    1    4    4    0    0 -0.47950027214E+01  0.43286459396E+01 -0.44402860808E+01  0.78394127489E+01  0.10500000000E+00 0. -1.
         13    1    4    4    0    0 -0.83840626523E+01  0.73834988531E+01 -0.75766102281E+01  0.13499059575E+02  0.10500000000E+00 0.  1.
    3000001    1    5    5    0    0  0.13111333762E+02 -0.94662974726E+01  0.73917543519E+01  0.17808871195E+02  0.10000000000E+01 0. -1.
        -13    1    6    6    0    0  0.13461552495E+02 -0.53562140038E+01  0.12408870623E+02  0.19075993269E+02  0.10500000000E+00 0. -1.
         13    1    6    6    0    0  0.17987638496E+02 -0.71454678171E+01  0.16778298872E+02  0.25615135897E+02  0.10500000000E+00 0.  1.
</event>
<event>
11    0  0.3515428E-009  0.9118800E+02  0.7816531E-02  0.1126479E+00
         25   -1    0    0    0    0  0.00000000000E+00  0.00000000000E+00  0.99999998245E-14  0.12500000000E+03  0.12500000000E+03 0.  0.
    3000001    1    3    3    0    0 -0.43937631832E+01  0.12540791747E+01 -0.27951767964E+01  0.54489340985E+01  0.10000000000E+01 0. -1.
    1000022    2    1    0    0    0 -0.40397505114E+02  0.41228194105E+02 -0.21783654947E+02  0.62499999831E+02  0.99999973685E+01 0.  0.
    3000022    2    3    3    0    0 -0.36003741930E+02  0.39974114931E+02 -0.18988478151E+02  0.57051065732E+02  0.25000240724E+00 0.  0.
    1000022    2    1    0    0    0  0.40397505114E+02 -0.41228194105E+02  0.21783654947E+02  0.62500000169E+02  0.99999994859E+01 0.  0.
    3000022    2    5    5    0    0  0.17251812262E+02 -0.11982739103E+02  0.50246156818E+01  0.21599081683E+02  0.25000817416E+00 0.  0.
        -13    1    4    4    0    0 -0.98471681736E+01  0.10981905149E+02 -0.52260321305E+01  0.15649006313E+02  0.10500000000E+00 0. -1.
         13    1    4    4    0    0 -0.26156573757E+02  0.28992209781E+02 -0.13762446021E+02  0.41402059419E+02  0.10500000000E+00 0.  1.
    3000001    1    5    5    0    0  0.23145692851E+02 -0.29245455003E+02  0.16759039266E+02  0.40900918486E+02  0.10000000000E+01 0. -1.
        -13    1    6    6    0    0  0.13161003276E+02 -0.91603460826E+01  0.38307453666E+01  0.16486648617E+02  0.10500000000E+00 0. -1.
         13    1    6    6    0    0  0.40908089866E+01 -0.28223930199E+01  0.11938703152E+01  0.51124330659E+01  0.10500000000E+00 0.  1.
</event>
<event>
11    0  0.3515428E-009  0.9118800E+02  0.7816531E-02  0.1126479E+00
         25   -1    0    0    0    0  0.00000000000E+00  0.00000000000E+00  0.99999998245E-14  0.12500000000E+03  0.12500000000E+03 0.  0.
    3000001    1    3    3    0    0  0.10714798938E+02 -0.19326817030E+02  0.12666681247E+02  0.25490735310E+02  0.10000000000E+01 0.  1.
    1000022    2    1    0    0    0  0.15341375022E+02 -0.47906025329E+02  0.35719810841E+02  0.62499999495E+02  0.99999999947E+01 0.  0.
    3000022    2    3    3    0    0  0.46265760841E+01 -0.28579208299E+02  0.23053129594E+02  0.37009264185E+02  0.24999637442E+00 0.  0.
    1000022    2    1    0    0    0 -0.15341375022E+02  0.47906025329E+02 -0.35719810841E+02  0.62500000505E+02  0.10000006311E+02 0.  0.
    3000022    2    5    5    0    0 -0.18936806697E+01  0.29082225428E+01  0.12317435619E-01  0.34794301066E+01  0.24999462000E+00 0.  0.
        -13    1    4    4    0    0  0.15232308389E+01 -0.91401841259E+01  0.74131534665E+01  0.11867142342E+02  0.10500000000E+00 0.  1.
         13    1    4    4    0    0  0.31033452452E+01 -0.19439024173E+02  0.15639976127E+02  0.25142121843E+02  0.10500000000E+00 0. -1.
    3000001    1    5    5    0    0 -0.13447694353E+02  0.44997802787E+02 -0.35732128277E+02  0.59020570399E+02  0.10000000000E+01 0. -1.
        -13    1    6    6    0    0 -0.11483794588E+01  0.16497267950E+01 -0.11566104804E-01  0.20128419348E+01  0.10500000000E+00 0.  1.
         13    1    6    6    0    0 -0.74530121092E+00  0.12584957477E+01  0.23883540423E-01  0.14665881718E+01  0.10500000000E+00 0. -1.
</event>
<event>
11    0  0.3515428E-009  0.9118800E+02  0.7816531E-02  0.1126479E+00
         25   -1    0    0    0    0  0.00000000000E+00  0.00000000000E+00  0.99999998245E-14  0.12500000000E+03  0.12500000000E+03 0.  0.
    3000001    1    3    3    0    0 -0.13057941609E+02 -0.29463118175E+02  0.17375397785E+02  0.36626351440E+02  0.10000000000E+01 0. -1.
    1000022    2    1    0    0    0 -0.14186569928E+02 -0.51198535677E+02  0.31364005625E+02  0.62500002616E+02  0.10000032816E+02 0.  0.
    3000022    2    3    3    0    0 -0.11286283190E+01 -0.21735417502E+02  0.13988607840E+02  0.25873651175E+02  0.24999992110E+00 0.  0.
    1000022    2    1    0    0    0  0.14186569928E+02  0.51198535677E+02 -0.31364005625E+02  0.62499997384E+02  0.10000000121E+02 0.  0.
    3000022    2    5    5    0    0  0.15326622295E+02  0.48891766256E+02 -0.29068375280E+02  0.58909618122E+02  0.25001475986E+00 0.  0.
        -13    1    4    4    0    0 -0.73437598545E+00 -0.12991071527E+02  0.83378936887E+01  0.15454408552E+02  0.10500000000E+00 0.  1.
         13    1    4    4    0    0 -0.39425233359E+00 -0.87443459748E+01  0.56507141515E+01  0.10419242624E+02  0.10500000000E+00 0. -1.
    3000001    1    5    5    0    0 -0.11400523666E+01  0.23067694210E+01 -0.22956303458E+01  0.35903792620E+01  0.10000000000E+01 0. -1.
        -13    1    6    6    0    0  0.50914934494E+01  0.16065904179E+02 -0.95591595596E+01  0.19375890666E+02  0.10500000000E+00 0. -1.
         13    1    6    6    0    0  0.10235128845E+02  0.32825862077E+02 -0.19509215720E+02  0.39533727456E+02  0.10500000000E+00 0.  1.
</event>
<event>
11    0  0.3515428E-009  0.9118800E+02  0.7816531E-02  0.1126479E+00
         25   -1    0    0    0    0  0.00000000000E+00  0.00000000000E+00  0.99999998245E-14  0.12500000000E+03  0.12500000000E+03 0.  0.
    3000001    1    3    3    0    0  0.13336865087E+00  0.95542981981E+00  0.17512168624E+00  0.14004645453E+01  0.10000000000E+01 0. -1.
    1000022    2    1    0    0    0  0.29798372322E+02  0.25945178571E+02  0.47383068422E+02  0.62499995845E+02  0.99999511707E+01 0.  0.
    3000022    2    3    3    0    0  0.29665003671E+02  0.24989748751E+02  0.47207946736E+02  0.61099531299E+02  0.25000915947E+00 0.  0.
    1000022    2    1    0    0    0 -0.29798372322E+02 -0.25945178571E+02 -0.47383068422E+02  0.62500004155E+02  0.10000003111E+02 0.  0.
    3000022    2    5    5    0    0 -0.49292938317E+01 -0.99114294386E+01 -0.11221896276E+02  0.15764765339E+02  0.24999797743E+00 0.  0.
        -13    1    4    4    0    0  0.17355574483E+02  0.14571407761E+02  0.27497864452E+02  0.35632646045E+02  0.10500000000E+00 0.  1.
         13    1    4    4    0    0  0.12309429188E+02  0.10418340990E+02  0.19710082284E+02  0.25466885254E+02  0.10500000000E+00 0. -1.
    3000001    1    5    5    0    0 -0.24869078490E+02 -0.16033749133E+02 -0.36161172146E+02  0.46735238816E+02  0.10000000000E+01 0. -1.
        -13    1    6    6    0    0 -0.29193592828E+01 -0.57432481499E+01 -0.64857262317E+01  0.91423863234E+01  0.10500000000E+00 0.  1.
         13    1    6    6    0    0 -0.20099345489E+01 -0.41681812886E+01 -0.47361700438E+01  0.66223790159E+01  0.10500000000E+00 0. -1.
</event>
<event>
11    0  0.3515428E-009  0.9118800E+02  0.7816531E-02  0.1126479E+00
         25   -1    0    0    0    0  0.00000000000E+00  0.00000000000E+00  0.99999998245E-14  0.12500000000E+03  0.12500000000E+03 0.  0.
    3000001    1    3    3    0    0  0.70632755789E+00 -0.34068491912E+01  0.15266649319E+01  0.39288962629E+01  0.10000000000E+01 0.  1.
    1000022    2    1    0    0    0  0.28925036406E+02 -0.54120478459E+02 -0.63691494769E+01  0.62499999275E+02  0.99999962269E+01 0.  0.
    3000022    2    3    3    0    0  0.28218708848E+02 -0.50713629268E+02 -0.78958144087E+01  0.58571103012E+02  0.25000050715E+00 0.  0.
    1000022    2    1    0    0    0 -0.28925036406E+02  0.54120478459E+02  0.63691494769E+01  0.62500000725E+02  0.10000005290E+02 0.  0.
    3000022    2    5    5    0    0 -0.13240665329E+02  0.27386104171E+02 -0.16615933774E+01  0.30465346123E+02  0.25000365269E+00 0.  0.
        -13    1    4    4    0    0  0.15610736597E+02 -0.27979379340E+02 -0.44149854714E+01  0.32342601736E+02  0.10500000000E+00 0.  1.
         13    1    4    4    0    0  0.12607972252E+02 -0.22734249928E+02 -0.34808289373E+01  0.26228501276E+02  0.10500000000E+00 0. -1.
    3000001    1    5    5    0    0 -0.15684371077E+02  0.26734374288E+02  0.80307428543E+01  0.32034654602E+02  0.10000000000E+01 0.  1.
        -13    1    6    6    0    0 -0.90441247712E+01  0.18812205592E+02 -0.11225980577E+01  0.20903744246E+02  0.10500000000E+00 0.  1.
         13    1    6    6    0    0 -0.41965405582E+01  0.85738985796E+01 -0.53899531978E+00  0.95616018775E+01  0.10500000000E+00 0. -1.
</event>
<event>
11    0  0.3515428E-009  0.9118800E+02  0.7816531E-02  0.1126479E+00
         25   -1    0    0    0    0  0.00000000000E+00  0.00000000000E+00  0.99999998245E-14  0.12500000000E+03  0.12500000000E+03 0.  0.
    3000001    1    3    3    0    0  0.38685467828E+02  0.20885436136E+02  0.48492144766E+01  0.44241177027E+02  0.10000000000E+01 0.  1.
    1000022    2    1    0    0    0  0.56716856184E+02  0.23556426484E+02  0.58773436477E+01  0.62500002455E+02  0.10000006718E+02 0.  0.
    3000022    2    3    3    0    0  0.18031388356E+02  0.26709903476E+01  0.10281291712E+01  0.18258825428E+02  0.25000185221E+00 0.  0.
    1000022    2    1    0    0    0 -0.56716856184E+02 -0.23556426484E+02 -0.58773436477E+01  0.62499997545E+02  0.99999760363E+01 0.  0.
    3000022    2    5    5    0    0 -0.19886667900E+02 -0.47787000945E+01 -0.53554330722E+01  0.21143762610E+02  0.24999830883E+00 0.  0.
        -13    1    4    4    0    0  0.96589479073E+01  0.14347011637E+01  0.48353782720E+00  0.97774473118E+01  0.10500000000E+00 0. -1.
         13    1    4    4    0    0  0.83724404488E+01  0.12362891840E+01  0.54459134398E+00  0.84813781160E+01  0.10500000000E+00 0.  1.
    3000001    1    5    5    0    0 -0.36830188284E+02 -0.18777726389E+02 -0.52191057555E+00  0.41356234935E+02  0.10000000000E+01 0. -1.
        -13    1    6    6    0    0 -0.11055439849E+02 -0.26090726165E+01 -0.29249600445E+01  0.11730150316E+02  0.10500000000E+00 0.  1.
         13    1    6    6    0    0 -0.88312280510E+01 -0.21696274780E+01 -0.24304730277E+01  0.94136122940E+01  0.10500000000E+00 0. -1.
</event>
<event>
11    0  0.3515428E-009  0.9118800E+02  0.7816531E-02  0.1126479E+00
         25   -1    0    0    0    0  0.00000000000E+00  0.00000000000E+00  0.99999998245E-14  0.12500000000E+03  0.12500000000E+03 0.  0.
    3000001    1    3    3    0    0 -0.74222648595E+00  0.14964897327E+01 -0.82460883346E+00  0.21143229187E+01  0.10000000000E+01 0.  1.
    1000022    2    1    0    0    0 -0.82194027565E+01  0.18365169472E+02 -0.58321625714E+02  0.62500000257E+02  0.99999987436E+01 0.  0.
    3000022    2    3    3    0    0 -0.74771762705E+01  0.16868679739E+02 -0.57497016880E+02  0.60385677339E+02  0.25011274846E+00 0.  0.
    1000022    2    1    0    0    0  0.82194027565E+01 -0.18365169472E+02  0.58321625714E+02  0.62499999743E+02  0.99999955275E+01 0.  0.
    3000022    2    5    5    0    0  0.97582744923E+01 -0.17688375014E+02  0.55532363967E+02  0.59093218557E+02  0.24999986853E+00 0.  0.
        -13    1    4    4    0    0 -0.19324914510E+01  0.43525396468E+01 -0.14942876176E+02  0.15683739924E+02  0.10500000000E+00 0.  1.
         13    1    4    4    0    0 -0.55446848196E+01  0.12516140092E+02 -0.42554140704E+02  0.44701937415E+02  0.10500000000E+00 0. -1.
    3000001    1    5    5    0    0 -0.15388717358E+01 -0.67679445719E+00  0.27892617471E+01  0.34067811861E+01  0.10000000000E+01 0.  1.
        -13    1    6    6    0    0  0.63887628165E+01 -0.11464249039E+02  0.36094454711E+02  0.38406587746E+02  0.10500000000E+00 0. -1.
         13    1    6    6    0    0  0.33695116758E+01 -0.62241259752E+01  0.19437909255E+02  0.20686630811E+02  0.10500000000E+00 0.  1.
</event>
<event>
11    0  0.3515428E-009  0.9118800E+02  0.7816531E-02  0.1126479E+00
         25   -1    0    0    0    0  0.00000000000E+00  0.00000000000E+00  0.99999998245E-14  0.12500000000E+03  0.12500000000E+03 0.  0.
    3000001    1    3    3    0    0  0.29055461021E+02  0.33961843713E+02  0.15295283131E+02  0.47250104017E+02  0.10000000000E+01 0. -1.
    1000022    2    1    0    0    0  0.41035166463E+02  0.40344934093E+02  0.22240759690E+02  0.62499999563E+02  0.99999980121E+01 0.  0.
    3000022    2    3    3    0    0  0.11979705443E+02  0.63830903790E+01  0.69454765591E+01  0.15249895547E+02  0.24996854262E+00 0.  0.
    1000022    2    1    0    0    0 -0.41035166463E+02 -0.40344934093E+02 -0.22240759690E+02  0.62500000437E+02  0.10000003469E+02 0.  0.
    3000022    2    5    5    0    0 -0.24686920738E+02 -0.30139312605E+02 -0.12741878551E+02  0.40990732873E+02  0.24998520003E+00 0.  0.
        -13    1    4    4    0    0  0.50743779564E+01  0.27659938222E+01  0.29176535438E+01  0.64748560347E+01  0.10500000000E+00 0.  1.
         13    1    4    4    0    0  0.69053274861E+01  0.36170965569E+01  0.40278230154E+01  0.87750395119E+01  0.10500000000E+00 0. -1.
    3000001    1    5    5    0    0 -0.16348245725E+02 -0.10205621487E+02 -0.94988811388E+01  0.21509267564E+02  0.10000000000E+01 0. -1.
        -13    1    6    6    0    0 -0.10728005816E+02 -0.13078471500E+02 -0.54643322870E+01  0.17776571039E+02  0.10500000000E+00 0.  1.
         13    1    6    6    0    0 -0.13958914922E+02 -0.17060841105E+02 -0.72775462641E+01  0.23214161834E+02  0.10500000000E+00 0. -1.
</event>
<event>
11    0  0.3515428E-009  0.9118800E+02  0.7816531E-02  0.1126479E+00
         25   -1    0    0    0    0  0.00000000000E+00  0.00000000000E+00  0.99999998245E-14  0.12500000000E+03  0.12500000000E+03 0.  0.
    3000001    1    3    3    0    0  0.74220465282E+00 -0.84676123489E+01 -0.47027597281E+01  0.97656170157E+01  0.10000000000E+01 0.  1.
    1000022    2    1    0    0    0 -0.11427438969E+02 -0.43897701460E+02 -0.41816926897E+02  0.62500001876E+02  0.10000015227E+02 0.  0.
    3000022    2    3    3    0    0 -0.12169643622E+02 -0.35430089111E+02 -0.37114167169E+02  0.52734384861E+02  0.25000328813E+00 0.  0.
    1000022    2    1    0    0    0  0.11427438969E+02  0.43897701460E+02  0.41816926897E+02  0.62499998124E+02  0.99999917737E+01 0.  0.
    3000022    2    5    5    0    0  0.61737095514E+01  0.10395676282E+02  0.14918219702E+02  0.19204180629E+02  0.24999908050E+00 0.  0.
        -13    1    4    4    0    0 -0.90754992787E+01 -0.26441077064E+02 -0.27734488600E+02  0.39379031557E+02  0.10500000000E+00 0.  1.
         13    1    4    4    0    0 -0.30941443435E+01 -0.89890120470E+01 -0.93796785689E+01  0.13355353303E+02  0.10500000000E+00 0. -1.
    3000001    1    5    5    0    0  0.52537294179E+01  0.33502025178E+02  0.26898707195E+02  0.43295817495E+02  0.10000000000E+01 0. -1.
        -13    1    6    6    0    0  0.23731845573E+01  0.40604938520E+01  0.57203299230E+01  0.74062686079E+01  0.10500000000E+00 0. -1.
         13    1    6    6    0    0  0.38005249942E+01  0.63351824300E+01  0.91978897794E+01  0.11797912021E+02  0.10500000000E+00 0.  1.
</event>
<event>
11    0  0.3515428E-009  0.9118800E+02  0.7816531E-02  0.1126479E+00
         25   -1    0    0    0    0  0.00000000000E+00  0.00000000000E+00  0.99999998245E-14  0.12500000000E+03  0.12500000000E+03 0.  0.
    3000001    1    3    3    0    0  0.13232414354E+02 -0.37535135455E+02 -0.32349008967E+01  0.39943056556E+02  0.10000000000E+01 0. -1.
    1000022    2    1    0    0    0  0.17970932571E+02 -0.57801488747E+02 -0.11928265659E+02  0.62500000315E+02  0.99999999425E+01 0.  0.
    3000022    2    3    3    0    0  0.47385182172E+01 -0.20266353292E+02 -0.86933647621E+01  0.22556943758E+02  0.24998033919E+00 0.  0.
    1000022    2    1    0    0    0 -0.17970932571E+02  0.57801488747E+02  0.11928265659E+02  0.62499999685E+02  0.99999960110E+01 0.  0.
    3000022    2    5    5    0    0 -0.18665067569E+02  0.48660797273E+02  0.97018757206E+01  0.53013647585E+02  0.24999835239E+00 0.  0.
        -13    1    4    4    0    0  0.11338256065E+01 -0.48039364143E+01 -0.20763180642E+01  0.53558834269E+01  0.10500000000E+00 0. -1.
         13    1    4    4    0    0  0.36046926107E+01 -0.15462416878E+02 -0.66170466979E+01  0.17201060332E+02  0.10500000000E+00 0.  1.
    3000001    1    5    5    0    0  0.69413499778E+00  0.91406914735E+01  0.22263899382E+01  0.94863521000E+01  0.10000000000E+01 0. -1.
        -13    1    6    6    0    0 -0.10010681417E+02  0.25928094422E+02  0.52028160793E+01  0.28276494530E+02  0.10500000000E+00 0. -1.
         13    1    6    6    0    0 -0.86543861519E+01  0.22732702852E+02  0.44990596413E+01  0.24737153055E+02  0.10500000000E+00 0.  1.
</event>
<event>
11    0  0.3515428E-009  0.9118800E+02  0.7816531E-02  0.1126479E+00
         25   -1    0    0    0    0  0.00000000000E+00  0.00000000000E+00  0.99999998245E-14  0.12500000000E+03  0.12500000000E+03 0.  0.
    3000001    1    3    3    0    0  0.61465754013E+01 -0.51953690362E+01  0.14199903183E+02  0.16352660303E+02  0.10000000000E+01 0. -1.
    1000022    2    1    0    0    0  0.23410962975E+02 -0.34004687578E+02  0.45846036968E+02  0.62499991747E+02  0.99998948967E+01 0.  0.
    3000022    2    3    3    0    0  0.17264387574E+02 -0.28809318542E+02  0.31646133785E+02  0.46147331444E+02  0.25000532166E+00 0.  0.
    1000022    2    1    0    0    0 -0.23410962975E+02  0.34004687578E+02 -0.45846036968E+02  0.62500008253E+02  0.99999980611E+01 0.  0.
    3000022    2    5    5    0    0 -0.11307209162E+02  0.95009459430E+01 -0.12322138273E+02  0.19235866123E+02  0.25000210157E+00 0.  0.
        -13    1    4    4    0    0  0.11823281566E+02 -0.19632511956E+02  0.21586299106E+02  0.31483405895E+02  0.10500000000E+00 0. -1.
         13    1    4    4    0    0  0.54411060074E+01 -0.91768065866E+01  0.10059834680E+02  0.14663925549E+02  0.10500000000E+00 0.  1.
    3000001    1    5    5    0    0 -0.12103753813E+02  0.24503741635E+02 -0.33523898695E+02  0.43264142130E+02  0.10000000000E+01 0. -1.
        -13    1    6    6    0    0 -0.79211361466E+01  0.67145232638E+01 -0.86624082375E+01  0.13523223062E+02  0.10500000000E+00 0.  1.
         13    1    6    6    0    0 -0.33860730154E+01  0.27864226792E+01 -0.36597300358E+01  0.57126430614E+01  0.10500000000E+00 0. -1.
</event>
<event>
11    0  0.3515428E-009  0.9118800E+02  0.7816531E-02  0.1126479E+00
         25   -1    0    0    0    0  0.00000000000E+00  0.00000000000E+00  0.99999998245E-14  0.12500000000E+03  0.12500000000E+03 0.  0.
    3000001    1    3    3    0    0  0.73227785430E+01  0.10730464907E+01 -0.23961091637E+02  0.25097976548E+02  0.10000000000E+01 0.  1.
    1000022    2    1    0    0    0  0.78391409452E+01 -0.32439771706E+01 -0.61108718322E+02  0.62500008463E+02  0.10000004211E+02 0.  0.
    3000022    2    3    3    0    0  0.51636240219E+00 -0.43170236614E+01 -0.37147626685E+02  0.37402031915E+02  0.24999918209E+00 0.  0.
    1000022    2    1    0    0    0 -0.78391409452E+01  0.32439771706E+01  0.61108718322E+02  0.62499991537E+02  0.99998984265E+01 0.  0.
    3000022    2    5    5    0    0 -0.27325937001E+01  0.64332851646E+01  0.31056344790E+02  0.31834152805E+02  0.25001349594E+00 0.  0.
        -13    1    4    4    0    0  0.22745994450E+00 -0.15304374590E+01 -0.12915351048E+02  0.13008124174E+02  0.10500000000E+00 0. -1.
         13    1    4    4    0    0  0.28890245768E+00 -0.27865862024E+01 -0.24232275637E+02  0.24393907741E+02  0.10500000000E+00 0.  1.
    3000001    1    5    5    0    0 -0.51065472451E+01 -0.31893079940E+01  0.30052373532E+02  0.30665838732E+02  0.10000000000E+01 0. -1.
        -13    1    6    6    0    0 -0.15252532209E+01  0.34344727705E+01  0.16820350648E+02  0.17235348024E+02  0.10500000000E+00 0.  1.
         13    1    6    6    0    0 -0.12073404792E+01  0.29988123941E+01  0.14235994143E+02  0.14598804781E+02  0.10500000000E+00 0. -1.
</event>
<event>
11    0  0.3515428E-009  0.9118800E+02  0.7816531E-02  0.1126479E+00
         25   -1    0    0    0    0  0.00000000000E+00  0.00000000000E+00  0.99999998245E-14  0.12500000000E+03  0.12500000000E+03 0.  0.
    3000001    1    3    3    0    0  0.11253496070E+02 -0.32897822587E+02 -0.11108385959E+02  0.36514437465E+02  0.10000000000E+01 0.  1.
    1000022    2    1    0    0    0  0.24372950858E+02 -0.51534799478E+02 -0.23587571764E+02  0.62500002052E+02  0.10000021195E+02 0.  0.
    3000022    2    3    3    0    0  0.13119454788E+02 -0.18636976892E+02 -0.12479185805E+02  0.25985564587E+02  0.24997388214E+00 0.  0.
    1000022    2    1    0    0    0 -0.24372950858E+02  0.51534799478E+02  0.23587571764E+02  0.62499997948E+02  0.99999955498E+01 0.  0.
    3000022    2    5    5    0    0 -0.42012702543E+01  0.19882462601E+02  0.87874238464E+01  0.22141460976E+02  0.24997089685E+00 0.  0.
        -13    1    4    4    0    0  0.54985634871E+01 -0.77392346599E+01 -0.51417270756E+01  0.10797144801E+02  0.10500000000E+00 0. -1.
         13    1    4    4    0    0  0.76208913012E+01 -0.10897742232E+02 -0.73374587297E+01  0.15188419786E+02  0.10500000000E+00 0.  1.
    3000001    1    5    5    0    0 -0.20171680604E+02  0.31652336877E+02  0.14800147918E+02  0.40358536972E+02  0.10000000000E+01 0.  1.
        -13    1    6    6    0    0 -0.17475987151E+01  0.82674495604E+01  0.37243346191E+01  0.92350699433E+01  0.10500000000E+00 0.  1.
         13    1    6    6    0    0 -0.24536715392E+01  0.11615013041E+02  0.50630892273E+01  0.12906391033E+02  0.10500000000E+00 0. -1.
</event>
<event>
11    0  0.3515428E-009  0.9118800E+02  0.7816531E-02  0.1126479E+00
         25   -1    0    0    0    0  0.00000000000E+00  0.00000000000E+00  0.99999998245E-14  0.12500000000E+03  0.12500000000E+03 0.  0.
    3000001    1    3    3    0    0 -0.11614015250E+02 -0.55739393884E+01  0.60656138626E+01  0.14273956076E+02  0.10000000000E+01 0. -1.
    1000022    2    1    0    0    0 -0.48854250923E+02 -0.95402303767E+01  0.36448540954E+02  0.62500000606E+02  0.10000005454E+02 0.  0.
    3000022    2    3    3    0    0 -0.37240235674E+02 -0.39662909883E+01  0.30382927092E+02  0.48226044530E+02  0.24999018084E+00 0.  0.
    1000022    2    1    0    0    0  0.48854250923E+02  0.95402303767E+01 -0.36448540954E+02  0.62499999394E+02  0.99999978827E+01 0.  0.
    3000022    2    5    5    0    0  0.29288927047E+02  0.77857974358E+01 -0.16596056874E+02  0.34553603249E+02  0.25000891778E+00 0.  0.
        -13    1    4    4    0    0 -0.24755589197E+02 -0.26570652249E+01  0.20134479036E+02  0.32020422594E+02  0.10500000000E+00 0. -1.
         13    1    4    4    0    0 -0.12484646477E+02 -0.13092257634E+01  0.10248448056E+02  0.16205621935E+02  0.10500000000E+00 0.  1.
    3000001    1    5    5    0    0  0.19565323876E+02  0.17544329409E+01 -0.19852484081E+02  0.27946396145E+02  0.10000000000E+01 0. -1.
        -13    1    6    6    0    0  0.17206009386E+02  0.46398182212E+01 -0.97666959251E+01  0.20321762877E+02  0.10500000000E+00 0. -1.
         13    1    6    6    0    0  0.12082917661E+02  0.31459792146E+01 -0.68293609485E+01  0.14231840372E+02  0.10500000000E+00 0.  1.
</event>
<event>
11    0  0.3515428E-009  0.9118800E+02  0.7816531E-02  0.1126479E+00
         25   -1    0    0    0    0  0.00000000000E+00  0.00000000000E+00  0.99999998245E-14  0.12500000000E+03  0.12500000000E+03 0.  0.
    3000001    1    3    3    0    0 -0.22733052051E+02 -0.33450513410E+02 -0.35868601010E+02  0.54067412009E+02  0.10000000000E+01 0. -1.
    1000022    2    1    0    0    0 -0.25191417109E+02 -0.41053155701E+02 -0.38552314859E+02  0.62500000365E+02  0.99999987824E+01 0.  0.
    3000022    2    3    3    0    0 -0.24583650582E+01 -0.76026422905E+01 -0.26837138497E+01  0.84325883560E+01  0.24999559500E+00 0.  0.
    1000022    2    1    0    0    0  0.25191417109E+02  0.41053155701E+02  0.38552314859E+02  0.62499999635E+02  0.99999942198E+01 0.  0.
    3000022    2    5    5    0    0  0.22729693967E+02  0.40543078477E+02  0.36667610463E+02  0.59202671889E+02  0.25000306629E+00 0.  0.
        -13    1    4    4    0    0 -0.13550989335E+01 -0.44013072885E+01 -0.15529368673E+01  0.48611147776E+01  0.10500000000E+00 0. -1.
         13    1    4    4    0    0 -0.11032661247E+01 -0.32013350020E+01 -0.11307769824E+01  0.35714735783E+01  0.10500000000E+00 0.  1.
    3000001    1    5    5    0    0  0.24617231419E+01  0.51007722412E+00  0.18847043965E+01  0.32973277460E+01  0.10000000000E+01 0. -1.
        -13    1    6    6    0    0  0.71411740300E+01  0.12680750454E+02  0.11429550817E+02  0.18505227788E+02  0.10500000000E+00 0. -1.
         13    1    6    6    0    0  0.15588519937E+02  0.27862328022E+02  0.25238059646E+02  0.40697444101E+02  0.10500000000E+00 0.  1.
</event>
<event>
11    0  0.3515428E-009  0.9118800E+02  0.7816531E-02  0.1126479E+00
         25   -1    0    0    0    0  0.00000000000E+00  0.00000000000E+00  0.99999998245E-14  0.12500000000E+03  0.12500000000E+03 0.  0.
    3000001    1    3    3    0    0 -0.13758652703E+02 -0.10148886077E+01  0.78173493807E+01  0.15888406919E+02  0.10000000000E+01 0.  1.
    1000022    2    1    0    0    0 -0.46431236667E+02 -0.17732522178E+02  0.36550623782E+02  0.62499999565E+02  0.99999882823E+01 0.  0.
    3000022    2    3    3    0    0 -0.32672583964E+02 -0.16717633570E+02  0.28733274401E+02  0.46611592647E+02  0.24999232863E+00 0.  0.
    1000022    2    1    0    0    0  0.46431236667E+02  0.17732522178E+02 -0.36550623782E+02  0.62500000435E+02  0.99999937149E+01 0.  0.
    3000022    2    5    5    0    0  0.34618098634E+02  0.95324159800E+01 -0.29404789210E+02  0.46411031432E+02  0.25000528659E+00 0.  0.
        -13    1    4    4    0    0 -0.18498731491E+02 -0.94769286768E+01  0.16354886865E+02  0.26448224766E+02  0.10500000000E+00 0.  1.
         13    1    4    4    0    0 -0.14173852473E+02 -0.72407048937E+01  0.12378387536E+02  0.20163367880E+02  0.10500000000E+00 0. -1.
    3000001    1    5    5    0    0  0.11813138033E+02  0.82001061981E+01 -0.71458345712E+01  0.16088969002E+02  0.10000000000E+01 0.  1.
        -13    1    6    6    0    0  0.14844971000E+02  0.41354450992E+01 -0.12680061074E+02  0.19956704237E+02  0.10500000000E+00 0.  1.
         13    1    6    6    0    0  0.19773127634E+02  0.53969708808E+01 -0.16724728137E+02  0.26454327195E+02  0.10500000000E+00 0. -1.
</event>
<event>
11    0  0.3515428E-009  0.9118800E+02  0.7816531E-02  0.1126479E+00
         25   -1    0    0    0    0  0.00000000000E+00  0.00000000000E+00  0.99999998245E-14  0.12500000000E+03  0.12500000000E+03 0.  0.
    3000001    1    3    3    0    0  0.43954326387E+02  0.39826288130E+02  0.17099300635E+02  0.61737364023E+02  0.10000000000E+01 0. -1.
    1000022    2    1    0    0    0  0.43592897138E+02  0.40325504922E+02  0.16726115138E+02  0.62500000793E+02  0.10000007168E+02 0.  0.
    3000022    2    3    3    0    0 -0.36142924888E+00  0.49921679238E+00 -0.37318549718E+00  0.76263676948E+00  0.24999783823E+00 0.  0.
    1000022    2    1    0    0    0 -0.43592897138E+02 -0.40325504922E+02 -0.16726115138E+02  0.62499999207E+02  0.99999972610E+01 0.  0.
    3000022    2    5    5    0    0 -0.20842944467E+01 -0.63858554520E+00  0.96946559369E+00  0.23988407790E+01  0.24999741318E+00 0.  0.
        -13    1    4    4    0    0 -0.21344333793E+00  0.30937526886E+00 -0.29317912976E+00  0.48810871496E+00  0.10500000000E+00 0.  1.
         13    1    4    4    0    0 -0.14798591095E+00  0.18984152352E+00 -0.80006367414E-01  0.27452805452E+00  0.10500000000E+00 0. -1.
    3000001    1    5    5    0    0 -0.41508602691E+02 -0.39686919377E+02 -0.17695580732E+02  0.60101158428E+02  0.10000000000E+01 0. -1.
        -13    1    6    6    0    0 -0.12492683706E+01 -0.31741441638E+00  0.55631273079E+00  0.14078111478E+01  0.10500000000E+00 0. -1.
         13    1    6    6    0    0 -0.83502607609E+00 -0.32117112882E+00  0.41315286290E+00  0.99102963117E+00  0.10500000000E+00 0.  1.
</event>
<event>
11    0  0.3515428E-009  0.9118800E+02  0.7816531E-02  0.1126479E+00
         25   -1    0    0    0    0  0.00000000000E+00  0.00000000000E+00  0.99999998245E-14  0.12500000000E+03  0.12500000000E+03 0.  0.
    3000001    1    3    3    0    0  0.32877005032E+02  0.29133437991E+02  0.34581611310E+02  0.55915494363E+02  0.10000000000E+01 0.  1.
    1000022    2    1    0    0    0  0.36543030460E+02  0.34452419655E+02  0.35831380964E+02  0.62500001099E+02  0.99999990166E+01 0.  0.
    3000022    2    3    3    0    0  0.36660254279E+01  0.53189816641E+01  0.12497696536E+01  0.65845067361E+01  0.24999277955E+00 0.  0.
    1000022    2    1    0    0    0 -0.36543030460E+02 -0.34452419655E+02 -0.35831380964E+02  0.62499998901E+02  0.99999852744E+01 0.  0.
    3000022    2    5    5    0    0 -0.29922497817E+02 -0.26368430564E+02 -0.23445615632E+02  0.46264558809E+02  0.25000682582E+00 0.  0.
        -13    1    4    4    0    0  0.15675806033E+01  0.21612603273E+01  0.51370830902E+00  0.27208962452E+01  0.10500000000E+00 0. -1.
         13    1    4    4    0    0  0.20984448246E+01  0.31577213368E+01  0.73606134456E+00  0.38636104909E+01  0.10500000000E+00 0.  1.
    3000001    1    5    5    0    0 -0.66205326429E+01 -0.80839890912E+01 -0.12385765332E+02  0.16235440092E+02  0.10000000000E+01 0. -1.
        -13    1    6    6    0    0 -0.14459231144E+02 -0.12730066813E+02 -0.11402757747E+02  0.22386555689E+02  0.10500000000E+00 0.  1.
         13    1    6    6    0    0 -0.15463266673E+02 -0.13638363751E+02 -0.12042857884E+02  0.23878003120E+02  0.10500000000E+00 0. -1.
</event>
<event>
11    0  0.3515428E-009  0.9118800E+02  0.7816531E-02  0.1126479E+00
         25   -1    0    0    0    0  0.00000000000E+00  0.00000000000E+00  0.99999998245E-14  0.12500000000E+03  0.12500000000E+03 0.  0.
    3000001    1    3    3    0    0 -0.49798894341E+01  0.47709270878E+02 -0.69140943945E+01  0.48474514209E+02  0.10000000000E+01 0. -1.
    1000022    2    1    0    0    0 -0.30132052038E+01  0.60270880894E+02 -0.12829320972E+02  0.62500000534E+02  0.10000005043E+02 0.  0.
    3000022    2    3    3    0    0  0.19666842303E+01  0.12561610015E+02 -0.59152265778E+01  0.14025486325E+02  0.24993628892E+00 0.  0.
    1000022    2    1    0    0    0  0.30132052038E+01 -0.60270880894E+02  0.12829320972E+02  0.62499999466E+02  0.99999983664E+01 0.  0.
    3000022    2    5    5    0    0 -0.55979850610E+00 -0.41105154148E+02  0.12527399158E+02  0.42976101444E+02  0.24998749040E+00 0.  0.
        -13    1    4    4    0    0  0.14030739280E+01  0.86843676133E+01 -0.40686621614E+01  0.96928785237E+01  0.10500000000E+00 0. -1.
         13    1    4    4    0    0  0.56361030228E+00  0.38772424020E+01 -0.18465644164E+01  0.43326078014E+01  0.10500000000E+00 0.  1.
    3000001    1    5    5    0    0  0.35730037099E+01 -0.19165726745E+02  0.30192181476E+00  0.19523898022E+02  0.10000000000E+01 0.  1.
        -13    1    6    6    0    0 -0.35146554641E+00 -0.28616398959E+02  0.87492786795E+01  0.29926288106E+02  0.10500000000E+00 0. -1.
         13    1    6    6    0    0 -0.20833295969E+00 -0.12488755189E+02  0.37781204781E+01  0.13049813338E+02  0.10500000000E+00 0.  1.
</event>
<event>
11    0  0.3515428E-009  0.9118800E+02  0.7816531E-02  0.1126479E+00
         25   -1    0    0    0    0  0.00000000000E+00  0.00000000000E+00  0.99999998245E-14  0.12500000000E+03  0.12500000000E+03 0.  0.
    3000001    1    3    3    0    0 -0.74087813351E+01 -0.14234459984E+02  0.19414125948E+02  0.25207502420E+02  0.10000000000E+01 0.  1.
    1000022    2    1    0    0    0 -0.28504601347E+02 -0.35420427096E+02  0.41702898079E+02  0.62500004200E+02  0.99999931607E+01 0.  0.
    3000022    2    3    3    0    0 -0.21095820012E+02 -0.21185967111E+02  0.22288772131E+02  0.37292501781E+02  0.25000299798E+00 0.  0.
    1000022    2    1    0    0    0  0.28504601347E+02  0.35420427096E+02 -0.41702898079E+02  0.62499995800E+02  0.99999406582E+01 0.  0.
    3000022    2    5    5    0    0  0.13669784441E+02  0.20381018879E+02 -0.28312833329E+02  0.37469026459E+02  0.24995081439E+00 0.  0.
        -13    1    4    4    0    0 -0.10620410606E+02 -0.10657523178E+02  0.11132333360E+02  0.18716724948E+02  0.10500000000E+00 0.  1.
         13    1    4    4    0    0 -0.10475409406E+02 -0.10528443934E+02  0.11156438771E+02  0.18575776833E+02  0.10500000000E+00 0. -1.
    3000001    1    5    5    0    0  0.14834816906E+02  0.15039408217E+02 -0.13390064749E+02  0.25030969341E+02  0.10000000000E+01 0.  1.
        -13    1    6    6    0    0  0.80626500842E+01  0.11940705085E+02 -0.16551862757E+02  0.21944519818E+02  0.10500000000E+00 0. -1.
         13    1    6    6    0    0  0.56071343568E+01  0.84403137941E+01 -0.11760970572E+02  0.15524506641E+02  0.10500000000E+00 0.  1.
</event>
<event>
11    0  0.3515428E-009  0.9118800E+02  0.7816531E-02  0.1126479E+00
         25   -1    0    0    0    0  0.00000000000E+00  0.00000000000E+00  0.99999998245E-14  0.12500000000E+03  0.12500000000E+03 0.  0.
    3000001    1    3    3    0    0  0.42072145434E+01  0.36505602064E+01 -0.12910779988E+01  0.58046641964E+01  0.10000000000E+01 0. -1.
    1000022    2    1    0    0    0  0.59123431694E+02  0.17616687644E+02  0.56769708192E+00  0.62500000529E+02  0.99999963638E+01 0.  0.
    3000022    2    3    3    0    0  0.54916217151E+02  0.13966127437E+02  0.18587750807E+01  0.56695336332E+02  0.24999055559E+00 0.  0.
    1000022    2    1    0    0    0 -0.59123431694E+02 -0.17616687644E+02 -0.56769708192E+00  0.62499999471E+02  0.99999897556E+01 0.  0.
    3000022    2    5    5    0    0 -0.25425823969E+02 -0.61392231644E+01  0.44567616343E+01  0.26534653058E+02  0.25000611055E+00 0.  0.
        -13    1    4    4    0    0  0.20785484804E+02  0.53465292029E+01  0.71986634546E+00  0.21474426316E+02  0.10500000000E+00 0. -1.
         13    1    4    4    0    0  0.34130732347E+02  0.86195982346E+01  0.11389087352E+01  0.35220910016E+02  0.10500000000E+00 0.  1.
    3000001    1    5    5    0    0 -0.33697607725E+02 -0.11477464479E+02 -0.50244587162E+01  0.35965346414E+02  0.10000000000E+01 0.  1.
        -13    1    6    6    0    0 -0.14204342624E+02 -0.33951544580E+01  0.25463063588E+01  0.14825151744E+02  0.10500000000E+00 0. -1.
         13    1    6    6    0    0 -0.11221481346E+02 -0.27440687064E+01  0.19104552754E+01  0.11709501314E+02  0.10500000000E+00 0.  1.
</event>
<event>
11    0  0.3515428E-009  0.9118800E+02  0.7816531E-02  0.1126479E+00
         25   -1    0    0    0    0  0.00000000000E+00  0.00000000000E+00  0.99999998245E-14  0.12500000000E+03  0.12500000000E+03 0.  0.
    3000001    1    3    3    0    0 -0.20124666438E+02 -0.17919549372E+02 -0.52691870815E+01  0.27475021045E+02  0.10000000000E+01 0. -1.
    1000022    2    1    0    0    0 -0.46852715339E+02 -0.40128058646E+02 -0.90110076328E+00  0.62500000093E+02  0.10000000189E+02 0.  0.
    3000022    2    3    3    0    0 -0.26728048901E+02 -0.22208509273E+02  0.43680863182E+01  0.35024979048E+02  0.24999406097E+00 0.  0.
    1000022    2    1    0    0    0  0.46852715339E+02  0.40128058646E+02  0.90110076328E+00  0.62499999907E+02  0.99999990223E+01 0.  0.
    3000022    2    5    5    0    0  0.15899161657E+02  0.13519212670E+02  0.50061475933E+01  0.21463375055E+02  0.25000487228E+00 0.  0.
        -13    1    4    4    0    0 -0.10275999220E+02 -0.85542583723E+01  0.16200335090E+01  0.13468742697E+02  0.10500000000E+00 0.  1.
         13    1    4    4    0    0 -0.16452049681E+02 -0.13654250901E+02  0.27480528093E+01  0.21556236351E+02  0.10500000000E+00 0. -1.
    3000001    1    5    5    0    0  0.30953553682E+02  0.26608845975E+02 -0.41050468300E+01  0.41036624851E+02  0.10000000000E+01 0. -1.
        -13    1    6    6    0    0  0.89101161087E+01  0.75310053135E+01  0.27403515241E+01  0.11984438309E+02  0.10500000000E+00 0. -1.
         13    1    6    6    0    0  0.69890455479E+01  0.59882073569E+01  0.22657960692E+01  0.94789367466E+01  0.10500000000E+00 0.  1.
</event>
<event>
11    0  0.3515428E-009  0.9118800E+02  0.7816531E-02  0.1126479E+00
         25   -1    0    0    0    0  0.00000000000E+00  0.00000000000E+00  0.99999998245E-14  0.12500000000E+03  0.12500000000E+03 0.  0.
    3000001    1    3    3    0    0  0.28503670621E+02 -0.32621292055E+02 -0.36689814534E+02  0.56778080495E+02  0.10000000000E+01 0. -1.
    1000022    2    1    0    0    0  0.28502682148E+02 -0.35529884403E+02 -0.41610988644E+02  0.62500000715E+02  0.10000006907E+02 0.  0.
    3000022    2    3    3    0    0 -0.98847278329E-03 -0.29085923480E+01 -0.49211741101E+01  0.57219202198E+01  0.25001191226E+00 0.  0.
    1000022    2    1    0    0    0 -0.28502682148E+02  0.35529884403E+02  0.41610988644E+02  0.62499999285E+02  0.99999979716E+01 0.  0.
    3000022    2    5    5    0    0 -0.15451672257E+02  0.25938065912E+02  0.24152387209E+02  0.38664424923E+02  0.25001581920E+00 0.  0.
        -13    1    4    4    0    0  0.35221068863E-02 -0.13503655582E+01 -0.24176055645E+01  0.27711624296E+01  0.10500000000E+00 0. -1.
         13    1    4    4    0    0 -0.45105796696E-02 -0.15582267898E+01 -0.25035685456E+01  0.29507577902E+01  0.10500000000E+00 0.  1.
    3000001    1    5    5    0    0 -0.13051009891E+02  0.95918184906E+01  0.17458601435E+02  0.23835574363E+02  0.10000000000E+01 0.  1.
        -13    1    6    6    0    0 -0.91271369469E+01  0.15207787087E+02  0.14153378306E+02  0.22691640739E+02  0.10500000000E+00 0.  1.
         13    1    6    6    0    0 -0.63245353101E+01  0.10730278825E+02  0.99990089031E+01  0.15972784184E+02  0.10500000000E+00 0. -1.
</event>
<event>
11    0  0.3515428E-009  0.9118800E+02  0.7816531E-02  0.1126479E+00
         25   -1    0    0    0    0  0.00000000000E+00  0.00000000000E+00  0.99999998245E-14  0.12500000000E+03  0.12500000000E+03 0.  0.
    3000001    1    3    3    0    0  0.32735620953E+02 -0.36891029221E+02  0.89258611090E+00  0.49339290896E+02  0.10000000000E+01 0.  1.
    1000022    2    1    0    0    0  0.39764481732E+02 -0.46791845240E+02  0.59631584734E+01  0.62500000019E+02  0.99999977520E+01 0.  0.
    3000022    2    3    3    0    0  0.70288607793E+01 -0.99008160191E+01  0.50705723625E+01  0.13160709123E+02  0.25003769216E+00 0.  0.
    1000022    2    1    0    0    0 -0.39764481732E+02  0.46791845240E+02 -0.59631584734E+01  0.62499999981E+02  0.99999975086E+01 0.  0.
    3000022    2    5    5    0    0 -0.17977840400E+02  0.24954474820E+02 -0.72875588670E+01  0.31608536373E+02  0.24999683735E+00 0.  0.
        -13    1    4    4    0    0  0.44557400269E+01 -0.63686532895E+01  0.32207281042E+01  0.84141237470E+01  0.10500000000E+00 0. -1.
         13    1    4    4    0    0  0.25731207525E+01 -0.35321627296E+01  0.18498442583E+01  0.47465853763E+01  0.10500000000E+00 0.  1.
    3000001    1    5    5    0    0 -0.21786641332E+02  0.21837370420E+02  0.13244003936E+01  0.30891463607E+02  0.10000000000E+01 0. -1.
        -13    1    6    6    0    0 -0.78947751710E+01  0.10893418883E+02 -0.32431938344E+01  0.13839197275E+02  0.10500000000E+00 0.  1.
         13    1    6    6    0    0 -0.10083065229E+02  0.14061055937E+02 -0.40443650326E+01  0.17769339098E+02  0.10500000000E+00 0. -1.
</event>
<event>
11    0  0.3515428E-009  0.9118800E+02  0.7816531E-02  0.1126479E+00
         25   -1    0    0    0    0  0.00000000000E+00  0.00000000000E+00  0.99999998245E-14  0.12500000000E+03  0.12500000000E+03 0.  0.
    3000001    1    3    3    0    0  0.38333852986E+01 -0.72650502407E+01  0.10378557305E+02  0.13273667526E+02  0.10000000000E+01 0.  1.
    1000022    2    1    0    0    0  0.21896301342E+02 -0.46020429197E+02  0.34769564193E+02  0.62500002461E+02  0.99999898730E+01 0.  0.
    3000022    2    3    3    0    0  0.18062916043E+02 -0.38755378957E+02  0.24391006888E+02  0.49226334935E+02  0.25000014987E+00 0.  0.
    1000022    2    1    0    0    0 -0.21896301342E+02  0.46020429197E+02 -0.34769564193E+02  0.62499997539E+02  0.99999591159E+01 0.  0.
    3000022    2    5    5    0    0 -0.13740325477E+01  0.73928036501E+01 -0.89702322248E+01  0.11707650657E+02  0.25001295850E+00 0.  0.
        -13    1    4    4    0    0  0.12629424413E+02 -0.27031243139E+02  0.17062267520E+02  0.34370371900E+02  0.10500000000E+00 0. -1.
         13    1    4    4    0    0  0.54334916298E+01 -0.11724135818E+02  0.73287393680E+01  0.14855963035E+02  0.10500000000E+00 0.  1.
    3000001    1    5    5    0    0 -0.20522268794E+02  0.38627625547E+02 -0.25799331968E+02  0.50792346883E+02  0.10000000000E+01 0. -1.
        -13    1    6    6    0    0 -0.71909053728E+00  0.39106818775E+01 -0.48474355441E+01  0.62705008016E+01  0.10500000000E+00 0. -1.
         13    1    6    6    0    0 -0.65494201046E+00  0.34821217726E+01 -0.41227966807E+01  0.54371498551E+01  0.10500000000E+00 0.  1.
</event>
<event>
11    0  0.3515428E-009  0.9118800E+02  0.7816531E-02  0.1126479E+00
         25   -1    0    0    0    0  0.00000000000E+00  0.00000000000E+00  0.99999998245E-14  0.12500000000E+03  0.12500000000E+03 0.  0.
    3000001    1    3    3    0    0  0.78989004389E+01 -0.12778479183E+02  0.15062736136E+02  0.21297140143E+02  0.10000000000E+01 0. -1.
    1000022    2    1    0    0    0  0.34896478237E+02 -0.32732553681E+02  0.38949525214E+02  0.62499997875E+02  0.99999978079E+01 0.  0.
    3000022    2    3    3    0    0  0.26997577798E+02 -0.19954074497E+02  0.23886789078E+02  0.41202857731E+02  0.24999354848E+00 0.  0.
    1000022    2    1    0    0    0 -0.34896478237E+02  0.32732553681E+02 -0.38949525214E+02  0.62500002125E+02  0.10000024373E+02 0.  0.
    3000022    2    5    5    0    0 -0.19877025692E+02  0.12370934902E+02 -0.16320689074E+02  0.28540560153E+02  0.25000254191E+00 0.  0.
        -13    1    4    4    0    0  0.15748176863E+02 -0.11580367822E+02  0.13854822776E+02  0.23959906773E+02  0.10500000000E+00 0.  1.
         13    1    4    4    0    0  0.11249400935E+02 -0.83737066759E+01  0.10031966301E+02  0.17242950958E+02  0.10500000000E+00 0. -1.
    3000001    1    5    5    0    0 -0.15019452545E+02  0.20361618779E+02 -0.22628836140E+02  0.33959441972E+02  0.10000000000E+01 0.  1.
        -13    1    6    6    0    0 -0.87100461574E+01  0.54385298790E+01 -0.70798399170E+01  0.12473077790E+02  0.10500000000E+00 0.  1.
         13    1    6    6    0    0 -0.11166979535E+02  0.69324050235E+01 -0.92408491572E+01  0.16067482363E+02  0.10500000000E+00 0. -1.
</event>
<event>
11    0  0.3515428E-009  0.9118800E+02  0.7816531E-02  0.1126479E+00
         25   -1    0    0    0    0  0.00000000000E+00  0.00000000000E+00  0.99999998245E-14  0.12500000000E+03  0.12500000000E+03 0.  0.
    3000001    1    3    3    0    0  0.23303585979E+02  0.11974625001E+02 -0.97333838402E+01  0.27967615636E+02  0.10000000000E+01 0.  1.
    1000022    2    1    0    0    0  0.50584885209E+02  0.19243584318E+02 -0.29615940266E+02  0.62500000515E+02  0.99999998749E+01 0.  0.
    3000022    2    3    3    0    0  0.27281299230E+02  0.72689593169E+01 -0.19882556426E+02  0.34532384879E+02  0.24999629473E+00 0.  0.
    1000022    2    1    0    0    0 -0.50584885209E+02 -0.19243584318E+02  0.29615940266E+02  0.62499999485E+02  0.99999934400E+01 0.  0.
    3000022    2    5    5    0    0 -0.11944791993E+02 -0.79866824960E+01  0.11245115517E+02  0.18247747064E+02  0.24999376401E+00 0.  0.
        -13    1    4    4    0    0  0.13158429629E+02  0.35401155170E+01 -0.95237589055E+01  0.16624972086E+02  0.10500000000E+00 0. -1.
         13    1    4    4    0    0  0.14122869602E+02  0.37288438000E+01 -0.10358797520E+02  0.17907412793E+02  0.10500000000E+00 0.  1.
    3000001    1    5    5    0    0 -0.38640093216E+02 -0.11256901822E+02  0.18370824749E+02  0.44252252421E+02  0.10000000000E+01 0. -1.
        -13    1    6    6    0    0 -0.58911806886E+01 -0.39741903953E+01  0.56390976654E+01  0.90725215174E+01  0.10500000000E+00 0.  1.
         13    1    6    6    0    0 -0.60536113045E+01 -0.40124921007E+01  0.56060178516E+01  0.91752255469E+01  0.10500000000E+00 0. -1.
</event>
<event>
11    0  0.3515428E-009  0.9118800E+02  0.7816531E-02  0.1126479E+00
         25   -1    0    0    0    0  0.00000000000E+00  0.00000000000E+00  0.99999998245E-14  0.12500000000E+03  0.12500000000E+03 0.  0.
    3000001    1    3    3    0    0 -0.10761730272E+02 -0.18791275129E+02  0.12148835479E+02  0.24849971085E+02  0.10000000000E+01 0.  1.
    1000022    2    1    0    0    0 -0.15696165570E+02 -0.51510466689E+02  0.30109003475E+02  0.62499994689E+02  0.99999726854E+01 0.  0.
    3000022    2    3    3    0    0 -0.49344352980E+01 -0.32719191560E+02  0.17960167996E+02  0.37650023604E+02  0.24998975541E+00 0.  0.
    1000022    2    1    0    0    0  0.15696165570E+02  0.51510466689E+02 -0.30109003475E+02  0.62500005311E+02  0.10000039079E+02 0.  0.
    3000022    2    5    5    0    0  0.15922480441E+02  0.37759220951E+02 -0.22611331026E+02  0.46804048192E+02  0.24997225704E+00 0.  0.
        -13    1    4    4    0    0 -0.28011049324E+01 -0.18477782385E+02  0.10070755817E+02  0.21229832275E+02  0.10500000000E+00 0.  1.
         13    1    4    4    0    0 -0.21333303656E+01 -0.14241409175E+02  0.78894121785E+01  0.16420191328E+02  0.10500000000E+00 0. -1.
    3000001    1    5    5    0    0 -0.22631487077E+00  0.13751245737E+02 -0.74976724488E+01  0.15695957120E+02  0.10000000000E+01 0.  1.
        -13    1    6    6    0    0  0.11871642370E+02  0.28077811934E+02 -0.16814323343E+02  0.34814248664E+02  0.10500000000E+00 0. -1.
         13    1    6    6    0    0  0.40508380708E+01  0.96814090169E+01 -0.57970076832E+01  0.11989799527E+02  0.10500000000E+00 0.  1.
</event>
<event>
11    0  0.3515428E-009  0.9118800E+02  0.7816531E-02  0.1126479E+00
         25   -1    0    0    0    0  0.00000000000E+00  0.00000000000E+00  0.99999998245E-14  0.12500000000E+03  0.12500000000E+03 0.  0.
    3000001    1    3    3    0    0  0.38625952631E+02 -0.53084305764E+01 -0.21923054219E+02  0.44741076855E+02  0.10000000000E+01 0. -1.
    1000022    2    1    0    0    0  0.55396369394E+02 -0.25023944291E+01 -0.27041269060E+02  0.62499999610E+02  0.99999999473E+01 0.  0.
    3000022    2    3    3    0    0  0.16770416763E+02  0.28060361473E+01 -0.51182148404E+01  0.17758922755E+02  0.24999398955E+00 0.  0.
    1000022    2    1    0    0    0 -0.55396369394E+02  0.25023944291E+01  0.27041269060E+02  0.62500000390E+02  0.10000004827E+02 0.  0.
    3000022    2    5    5    0    0 -0.30094602071E+02  0.49571701604E+01  0.10997159101E+02  0.32423118605E+02  0.25000396606E+00 0.  0.
        -13    1    4    4    0    0  0.69379973743E+01  0.11362709616E+01 -0.20541441031E+01  0.73251247266E+01  0.10500000000E+00 0. -1.
         13    1    4    4    0    0  0.98324193888E+01  0.16697651857E+01 -0.30640707373E+01  0.10433798028E+02  0.10500000000E+00 0.  1.
    3000001    1    5    5    0    0 -0.25301767322E+02 -0.24547757313E+01  0.16044109959E+02  0.30076881785E+02  0.10000000000E+01 0. -1.
        -13    1    6    6    0    0 -0.11067843264E+02  0.17642120135E+01  0.40290557052E+01  0.11910244054E+02  0.10500000000E+00 0. -1.
         13    1    6    6    0    0 -0.19026758807E+02  0.31929581469E+01  0.69681033954E+01  0.20512874552E+02  0.10500000000E+00 0.  1.
</event>
<event>
11    0  0.3515428E-009  0.9118800E+02  0.7816531E-02  0.1126479E+00
         25   -1    0    0    0    0  0.00000000000E+00  0.00000000000E+00  0.99999998245E-14  0.12500000000E+03  0.12500000000E+03 0.  0.
    3000001    1    3    3    0    0 -0.14334429473E+01 -0.17598161669E+02  0.76690391049E+01  0.19276000975E+02  0.10000000000E+01 0.  1.
    1000022    2    1    0    0    0 -0.18453342882E+02 -0.52365633604E+02  0.26899156613E+02  0.62499999191E+02  0.99999913077E+01 0.  0.
    3000022    2    3    3    0    0 -0.17019899934E+02 -0.34767471935E+02  0.19230117508E+02  0.43223998216E+02  0.25000772206E+00 0.  0.
    1000022    2    1    0    0    0  0.18453342882E+02  0.52365633604E+02 -0.26899156613E+02  0.62500000809E+02  0.10000001418E+02 0.  0.
    3000022    2    5    5    0    0  0.15235662377E+02  0.44348112726E+02 -0.18502246258E+02  0.50411071478E+02  0.25000107532E+00 0.  0.
        -13    1    4    4    0    0 -0.39553979822E+01 -0.80920606982E+01  0.44861871635E+01  0.10062977681E+02  0.10500000000E+00 0. -1.
         13    1    4    4    0    0 -0.13064501952E+02 -0.26675411237E+02  0.14743930344E+02  0.33161020535E+02  0.10500000000E+00 0.  1.
    3000001    1    5    5    0    0  0.32176805047E+01  0.80175208782E+01 -0.83969103550E+01  0.12088929331E+02  0.10000000000E+01 0. -1.
        -13    1    6    6    0    0  0.87921787092E+01  0.25661054174E+02 -0.10768391519E+02  0.29184951408E+02  0.10500000000E+00 0.  1.
         13    1    6    6    0    0  0.64434836677E+01  0.18687058552E+02 -0.77338547383E+01  0.21226120070E+02  0.10500000000E+00 0. -1.
</event>
<event>
11    0  0.3515428E-009  0.9118800E+02  0.7816531E-02  0.1126479E+00
         25   -1    0    0    0    0  0.00000000000E+00  0.00000000000E+00  0.99999998245E-14  0.12500000000E+03  0.12500000000E+03 0.  0.
    3000001    1    3    3    0    0 -0.42134195008E+01  0.23978868299E+02 -0.92632987195E+01  0.26068136335E+02  0.10000000000E+01 0. -1.
    1000022    2    1    0    0    0 -0.15861889936E+02  0.58381034051E+02 -0.12095678836E+02  0.62500000885E+02  0.99999987459E+01 0.  0.
    3000022    2    3    3    0    0 -0.11648470435E+02  0.34402165752E+02 -0.28323801163E+01  0.36431864550E+02  0.25001117856E+00 0.  0.
    1000022    2    1    0    0    0  0.15861889936E+02 -0.58381034051E+02  0.12095678836E+02  0.62499999115E+02  0.99999876847E+01 0.  0.
    3000022    2    5    5    0    0  0.87465155712E+01 -0.45801514901E+02  0.11363609194E+02  0.47994524964E+02  0.25002144314E+00 0.  0.
        -13    1    4    4    0    0 -0.59448932133E+01  0.17625334625E+02 -0.15149085505E+01  0.18662801206E+02  0.10500000000E+00 0.  1.
         13    1    4    4    0    0 -0.57035772220E+01  0.16776831127E+02 -0.13174715658E+01  0.17769063344E+02  0.10500000000E+00 0. -1.
    3000001    1    5    5    0    0  0.71153743649E+01 -0.12579519150E+02  0.73206964173E+00  0.14505474152E+02  0.10000000000E+01 0. -1.
        -13    1    6    6    0    0  0.40766338162E+01 -0.21329529279E+02  0.52229599800E+01  0.22335131486E+02  0.10500000000E+00 0.  1.
         13    1    6    6    0    0  0.46698817551E+01 -0.24471985621E+02  0.61406492140E+01  0.25659393477E+02  0.10500000000E+00 0. -1.
</event>
<event>
11    0  0.3515428E-009  0.9118800E+02  0.7816531E-02  0.1126479E+00
         25   -1    0    0    0    0  0.00000000000E+00  0.00000000000E+00  0.99999998245E-14  0.12500000000E+03  0.12500000000E+03 0.  0.
    3000001    1    3    3    0    0 -0.18303258242E+02  0.92343470676E+01 -0.85672026450E+01  0.22241389102E+02  0.10000000000E+01 0. -1.
    1000022    2    1    0    0    0 -0.44648738745E+02  0.23850812518E+02 -0.35268664044E+02  0.62500002460E+02  0.10000025738E+02 0.  0.
    3000022    2    3    3    0    0 -0.26345480503E+02  0.14616465450E+02 -0.26701461399E+02  0.40258613358E+02  0.25000688967E+00 0.  0.
    1000022    2    1    0    0    0  0.44648738745E+02 -0.23850812518E+02  0.35268664044E+02  0.62499997540E+02  0.99999949855E+01 0.  0.
    3000022    2    5    5    0    0  0.41101592474E+02 -0.23607125515E+02  0.34744080058E+02  0.58769472324E+02  0.24999856046E+00 0.  0.
        -13    1    4    4    0    0 -0.11659106313E+02  0.64663882157E+01 -0.11727313652E+02  0.17756402988E+02  0.10500000000E+00 0.  1.
         13    1    4    4    0    0 -0.14686374190E+02  0.81500772347E+01 -0.14974147747E+02  0.22502210370E+02  0.10500000000E+00 0. -1.
    3000001    1    5    5    0    0  0.35471462712E+01 -0.24368700338E+00  0.52458398693E+00  0.37305252156E+01  0.10000000000E+01 0.  1.
        -13    1    6    6    0    0  0.17095122170E+02 -0.98918307266E+01  0.14462390888E+02  0.24479854827E+02  0.10500000000E+00 0.  1.
         13    1    6    6    0    0  0.24006470304E+02 -0.13715294788E+02  0.20281689169E+02  0.34289617498E+02  0.10500000000E+00 0. -1.
</event>
<event>
11    0  0.3515428E-009  0.9118800E+02  0.7816531E-02  0.1126479E+00
         25   -1    0    0    0    0  0.00000000000E+00  0.00000000000E+00  0.99999998245E-14  0.12500000000E+03  0.12500000000E+03 0.  0.
    3000001    1    3    3    0    0  0.20133093091E+02 -0.10010197888E+02  0.44428591622E+02  0.49804068636E+02  0.10000000000E+01 0.  1.
    1000022    2    1    0    0    0  0.29353387360E+02 -0.12127115041E+02  0.52891982516E+02  0.62499999062E+02  0.99999899790E+01 0.  0.
    3000022    2    3    3    0    0  0.92202942689E+01 -0.21169171531E+01  0.84633908934E+01  0.12695930426E+02  0.24999865159E+00 0.  0.
    1000022    2    1    0    0    0 -0.29353387360E+02  0.12127115041E+02 -0.52891982516E+02  0.62500000938E+02  0.10000001704E+02 0.  0.
    3000022    2    5    5    0    0 -0.20671509249E+02  0.12271632316E+02 -0.33544862332E+02  0.41270141019E+02  0.24999306379E+00 0.  0.
        -13    1    4    4    0    0  0.45438420428E+01 -0.10631288057E+01  0.42620171605E+01  0.63208036391E+01  0.10500000000E+00 0. -1.
         13    1    4    4    0    0  0.46764522261E+01 -0.10537883473E+01  0.42013737329E+01  0.63751267867E+01  0.10500000000E+00 0.  1.
    3000001    1    5    5    0    0 -0.86818781115E+01 -0.14451727502E+00 -0.19347120183E+02  0.21229859919E+02  0.10000000000E+01 0.  1.
        -13    1    6    6    0    0 -0.10413236249E+02  0.61809018440E+01 -0.17013902358E+02  0.20883556576E+02  0.10500000000E+00 0.  1.
         13    1    6    6    0    0 -0.10258273000E+02  0.60907304724E+01 -0.16530959974E+02  0.20386584444E+02  0.10500000000E+00 0. -1.
</event>
<event>
11    0  0.3515428E-009  0.9118800E+02  0.7816531E-02  0.1126479E+00
         25   -1    0    0    0    0  0.00000000000E+00  0.00000000000E+00  0.99999998245E-14  0.12500000000E+03  0.12500000000E+03 0.  0.
    3000001    1    3    3    0    0 -0.63114523805E+01 -0.77713045133E+00  0.40880604473E+01  0.76256541432E+01  0.10000000000E+01 0. -1.
    1000022    2    1    0    0    0 -0.59973137535E+02 -0.10842987476E+02  0.95865547901E+01  0.62500000370E+02  0.10000020511E+02 0.  0.
    3000022    2    3    3    0    0 -0.53661685155E+02 -0.10065857025E+02  0.54984943427E+01  0.54874346227E+02  0.25000490535E+00 0.  0.
    1000022    2    1    0    0    0  0.59973137535E+02  0.10842987476E+02 -0.95865547901E+01  0.62499999630E+02  0.10000015889E+02 0.  0.
    3000022    2    5    5    0    0  0.33818012696E+02  0.11894972608E+01 -0.44076739609E+01  0.34125693729E+02  0.24999265790E+00 0.  0.
        -13    1    4    4    0    0 -0.15803753025E+02 -0.29377201551E+01  0.15830850448E+01  0.16152584705E+02  0.10500000000E+00 0.  1.
         13    1    4    4    0    0 -0.37857932129E+02 -0.71281368701E+01  0.39154092979E+01  0.38721761521E+02  0.10500000000E+00 0. -1.
    3000001    1    5    5    0    0  0.26155124839E+02  0.96534902157E+01 -0.51788808291E+01  0.28374305901E+02  0.10000000000E+01 0.  1.
        -13    1    6    6    0    0  0.81442898700E+01  0.27841894448E+00 -0.10800110454E+01  0.82209746049E+01  0.10500000000E+00 0.  1.
         13    1    6    6    0    0  0.25673722826E+02  0.91107831634E+00 -0.33276629156E+01  0.25904719125E+02  0.10500000000E+00 0. -1.
</event>
<event>
11    0  0.3515428E-009  0.9118800E+02  0.7816531E-02  0.1126479E+00
         25   -1    0    0    0    0  0.00000000000E+00  0.00000000000E+00  0.99999998245E-14  0.12500000000E+03  0.12500000000E+03 0.  0.
    3000001    1    3    3    0    0 -0.49378481182E+02  0.86278714813E+01  0.22721612029E+01  0.50188019354E+02  0.10000000000E+01 0. -1.
    1000022    2    1    0    0    0 -0.61203132780E+02  0.77060161011E+01 -0.10217930914E+01  0.62499998914E+02  0.99999828433E+01 0.  0.
    3000022    2    3    3    0    0 -0.11824651598E+02 -0.92185538019E+00 -0.32939542943E+01  0.12311979560E+02  0.25000606747E+00 0.  0.
    1000022    2    1    0    0    0  0.61203132780E+02 -0.77060161011E+01  0.10217930914E+01  0.62500001086E+02  0.99999964220E+01 0.  0.
    3000022    2    5    5    0    0  0.18446463294E+02 -0.38886536176E+01 -0.39868714959E+01  0.19270476883E+02  0.24999995041E+00 0.  0.
        -13    1    4    4    0    0 -0.70185173000E+01 -0.49979930616E+00 -0.19095999086E+01  0.72915691897E+01  0.10500000000E+00 0.  1.
         13    1    4    4    0    0 -0.48061342978E+01 -0.42205607403E+00 -0.13843543857E+01  0.50204103700E+01  0.10500000000E+00 0. -1.
    3000001    1    5    5    0    0  0.42756669486E+02 -0.38173624835E+01  0.50086645873E+01  0.43229524203E+02  0.10000000000E+01 0. -1.
        -13    1    6    6    0    0  0.11891869537E+02 -0.24947569010E+01 -0.26269805628E+01  0.12431911557E+02  0.10500000000E+00 0.  1.
         13    1    6    6    0    0  0.65545937564E+01 -0.13938967166E+01 -0.13598909331E+01  0.68385653260E+01  0.10500000000E+00 0. -1.
</event>
<event>
11    0  0.3515428E-009  0.9118800E+02  0.7816531E-02  0.1126479E+00
         25   -1    0    0    0    0  0.00000000000E+00  0.00000000000E+00  0.99999998245E-14  0.12500000000E+03  0.12500000000E+03 0.  0.
    3000001    1    3    3    0    0  0.10349338986E+02 -0.89179723664E+01 -0.73995884701E+01  0.15568974215E+02  0.10000000000E+01 0. -1.
    1000022    2    1    0    0    0  0.31951511230E+02 -0.47786669012E+02 -0.22400566820E+02  0.62500000946E+02  0.99999959590E+01 0.  0.
    3000022    2    3    3    0    0  0.21602172244E+02 -0.38868696646E+02 -0.15000978350E+02  0.46931026731E+02  0.24998790248E+00 0.  0.
    1000022    2    1    0    0    0 -0.31951511230E+02  0.47786669012E+02  0.22400566820E+02  0.62499999054E+02  0.99999841369E+01 0.  0.
    3000022    2    5    5    0    0 -0.11528056607E+02  0.95607709668E+01  0.64260685610E+01  0.16299118384E+02  0.24994461472E+00 0.  0.
        -13    1    4    4    0    0  0.65320736972E+01 -0.11664199049E+02 -0.45264970126E+01  0.14114592677E+02  0.10500000000E+00 0.  1.
         13    1    4    4    0    0  0.15070098547E+02 -0.27204497598E+02 -0.10474481337E+02  0.32816434054E+02  0.10500000000E+00 0. -1.
    3000001    1    5    5    0    0 -0.20423454623E+02  0.38225898046E+02  0.15974498259E+02  0.46200880671E+02  0.10000000000E+01 0.  1.
        -13    1    6    6    0    0 -0.61418228591E+01  0.51008502856E+01  0.34984749997E+01  0.87172824889E+01  0.10500000000E+00 0. -1.
         13    1    6    6    0    0 -0.53862337481E+01  0.44599206813E+01  0.29275935613E+01  0.75818358946E+01  0.10500000000E+00 0.  1.
</event>
<event>
11    0  0.3515428E-009  0.9118800E+02  0.7816531E-02  0.1126479E+00
         25   -1    0    0    0    0  0.00000000000E+00  0.00000000000E+00  0.99999998245E-14  0.12500000000E+03  0.12500000000E+03 0.  0.
    3000001    1    3    3    0    0  0.40484889884E+02  0.19689852848E+02 -0.29046764394E+02  0.53585736310E+02  0.10000000000E+01 0. -1.
    1000022    2    1    0    0    0  0.44674886802E+02  0.21550294113E+02 -0.36687727564E+02  0.62500000533E+02  0.10000001282E+02 0.  0.
    3000022    2    3    3    0    0  0.41899969181E+01  0.18604412653E+01 -0.76409631698E+01  0.89142642230E+01  0.24994519404E+00 0.  0.
    1000022    2    1    0    0    0 -0.44674886802E+02 -0.21550294113E+02  0.36687727564E+02  0.62499999467E+02  0.99999946228E+01 0.  0.
    3000022    2    5    5    0    0 -0.10743573485E+02 -0.75679453065E+00  0.71465860639E+01  0.12928004456E+02  0.24999529111E+00 0.  0.
        -13    1    4    4    0    0  0.32266457421E+01  0.14353785437E+01 -0.58682887893E+01  0.68497731804E+01  0.10500000000E+00 0. -1.
         13    1    4    4    0    0  0.96335117593E+00  0.42506272158E+00 -0.17726743805E+01  0.20644910426E+01  0.10500000000E+00 0.  1.
    3000001    1    5    5    0    0 -0.33931313317E+02 -0.20793499582E+02  0.29541141500E+02  0.49571995012E+02  0.10000000000E+01 0.  1.
        -13    1    6    6    0    0 -0.64250502124E+01 -0.44264728083E+00  0.43480351480E+01  0.77713346020E+01  0.10500000000E+00 0. -1.
         13    1    6    6    0    0 -0.43185232726E+01 -0.31414724982E+00  0.27985509159E+01  0.51566698536E+01  0.10500000000E+00 0.  1.
</event>
<event>
11    0  0.3515428E-009  0.9118800E+02  0.7816531E-02  0.1126479E+00
         25   -1    0    0    0    0  0.00000000000E+00  0.00000000000E+00  0.99999998245E-14  0.12500000000E+03  0.12500000000E+03 0.  0.
    3000001    1    3    3    0    0  0.26589201500E+02  0.30902557568E+01 -0.11301821418E+02  0.29073467017E+02  0.10000000000E+01 0.  1.
    1000022    2    1    0    0    0  0.56376608088E+02 -0.39183947521E+01 -0.24750237179E+02  0.62500000749E+02  0.10000004814E+02 0.  0.
    3000022    2    3    3    0    0  0.29787406589E+02 -0.70086505089E+01 -0.13448415761E+02  0.33426533732E+02  0.24999527819E+00 0.  0.
    1000022    2    1    0    0    0 -0.56376608088E+02  0.39183947521E+01  0.24750237179E+02  0.62499999251E+02  0.99999954474E+01 0.  0.
    3000022    2    5    5    0    0 -0.15396467943E+02  0.60708900117E+00  0.21103884564E+01  0.15554292500E+02  0.24998715164E+00 0.  0.
        -13    1    4    4    0    0  0.12098264730E+02 -0.28866945021E+01 -0.55211696651E+01  0.13608649973E+02  0.10500000000E+00 0.  1.
         13    1    4    4    0    0  0.17689141859E+02 -0.41219560068E+01 -0.79272460963E+01  0.19817883759E+02  0.10500000000E+00 0. -1.
    3000001    1    5    5    0    0 -0.40980140145E+02  0.33113057509E+01  0.22639848723E+02  0.46945706750E+02  0.10000000000E+01 0.  1.
        -13    1    6    6    0    0 -0.74984655139E+01  0.30316429915E+00  0.95991277829E+00  0.75664622643E+01  0.10500000000E+00 0. -1.
         13    1    6    6    0    0 -0.78980024289E+01  0.30392470202E+00  0.11504756781E+01  0.79878302359E+01  0.10500000000E+00 0.  1.
</event>
<event>
11    0  0.3515428E-009  0.9118800E+02  0.7816531E-02  0.1126479E+00
         25   -1    0    0    0    0  0.00000000000E+00  0.00000000000E+00  0.99999998245E-14  0.12500000000E+03  0.12500000000E+03 0.  0.
    3000001    1    3    3    0    0  0.21030411926E+02  0.22838338556E+02 -0.26937926780E+01  0.31178910384E+02  0.10000000000E+01 0.  1.
    1000022    2    1    0    0    0  0.47606016700E+02  0.38237140417E+02 -0.88225982233E+01  0.62499999536E+02  0.99999984672E+01 0.  0.
    3000022    2    3    3    0    0  0.26575604774E+02  0.15398801861E+02 -0.61288055453E+01  0.31321089152E+02  0.25000078841E+00 0.  0.
    1000022    2    1    0    0    0 -0.47606016700E+02 -0.38237140417E+02  0.88225982233E+01  0.62500000464E+02  0.10000004263E+02 0.  0.
    3000022    2    5    5    0    0 -0.41826474856E+02 -0.35973207133E+02  0.56487901595E+01  0.55457163290E+02  0.24999902348E+00 0.  0.
        -13    1    4    4    0    0  0.15011944619E+02  0.86268536427E+01 -0.34317767256E+01  0.17651322939E+02  0.10500000000E+00 0. -1.
         13    1    4    4    0    0  0.11563660156E+02  0.67719482184E+01 -0.26970288196E+01  0.13669766213E+02  0.10500000000E+00 0.  1.
    3000001    1    5    5    0    0 -0.57795418437E+01 -0.22639332836E+01  0.31738080638E+01  0.70428371741E+01  0.10000000000E+01 0. -1.
        -13    1    6    6    0    0 -0.27540702909E+02 -0.23641609094E+02  0.37599844138E+01  0.36490608450E+02  0.10500000000E+00 0. -1.
         13    1    6    6    0    0 -0.14285771948E+02 -0.12331598039E+02  0.18888057457E+01  0.18966554839E+02  0.10500000000E+00 0.  1.
</event>
<event>
11    0  0.3515428E-009  0.9118800E+02  0.7816531E-02  0.1126479E+00
         25   -1    0    0    0    0  0.00000000000E+00  0.00000000000E+00  0.99999998245E-14  0.12500000000E+03  0.12500000000E+03 0.  0.
    3000001    1    3    3    0    0  0.31477421546E+00 -0.24873220928E+01  0.19802683697E+02  0.19985798347E+02  0.10000000000E+01 0. -1.
    1000022    2    1    0    0    0 -0.12947164202E+02 -0.10164083406E+02  0.59458492698E+02  0.62500000267E+02  0.10000001359E+02 0.  0.
    3000022    2    3    3    0    0 -0.13261938417E+02 -0.76767613136E+01  0.39655809001E+02  0.42514201920E+02  0.25000500537E+00 0.  0.
    1000022    2    1    0    0    0  0.12947164202E+02  0.10164083406E+02 -0.59458492698E+02  0.62499999733E+02  0.99999980178E+01 0.  0.
    3000022    2    5    5    0    0  0.23631845408E+01  0.80463186324E+01 -0.27678046077E+02  0.28921698100E+02  0.25000332794E+00 0.  0.
        -13    1    4    4    0    0 -0.57039881763E+01 -0.32295268731E+01  0.16910281188E+02  0.18136536598E+02  0.10500000000E+00 0. -1.
         13    1    4    4    0    0 -0.75579502410E+01 -0.44472344406E+01  0.22745527813E+02  0.24377665321E+02  0.10500000000E+00 0.  1.
    3000001    1    5    5    0    0  0.10583979661E+02  0.21177647740E+01 -0.31780446621E+02  0.33578301633E+02  0.10000000000E+01 0.  1.
        -13    1    6    6    0    0  0.13312043048E+01  0.47459502766E+01 -0.16342273378E+02  0.17069770739E+02  0.10500000000E+00 0. -1.
         13    1    6    6    0    0  0.10319802360E+01  0.33003683558E+01 -0.11335772699E+02  0.11851927361E+02  0.10500000000E+00 0.  1.
</event>
<event>
11    0  0.3515428E-009  0.9118800E+02  0.7816531E-02  0.1126479E+00
         25   -1    0    0    0    0  0.00000000000E+00  0.00000000000E+00  0.99999998245E-14  0.12500000000E+03  0.12500000000E+03 0.  0.
    3000001    1    3    3    0    0  0.31734194021E+02 -0.12671137031E+02  0.29704143521E+02  0.45287447777E+02  0.10000000000E+01 0.  1.
    1000022    2    1    0    0    0  0.46799862845E+02 -0.13071421616E+02  0.38015266330E+02  0.62499997676E+02  0.10000000498E+02 0.  0.
    3000022    2    3    3    0    0  0.15065668824E+02 -0.40028458496E+00  0.83111228085E+01  0.17212549899E+02  0.25001362934E+00 0.  0.
    1000022    2    1    0    0    0 -0.46799862845E+02  0.13071421616E+02 -0.38015266330E+02  0.62500002324E+02  0.10000029553E+02 0.  0.
    3000022    2    5    5    0    0 -0.25637250471E+02  0.24777133049E+01 -0.22337173388E+02  0.34094273738E+02  0.25002356165E+00 0.  0.
        -13    1    4    4    0    0  0.38725696157E+01 -0.12232825826E+00  0.21636352544E+01  0.44389302929E+01  0.10500000000E+00 0.  1.
         13    1    4    4    0    0  0.11193099208E+02 -0.27795632670E+00  0.61474875541E+01  0.12773619606E+02  0.10500000000E+00 0. -1.
    3000001    1    5    5    0    0 -0.21162612374E+02  0.10593708311E+02 -0.15678092941E+02  0.28405728587E+02  0.10000000000E+01 0.  1.
        -13    1    6    6    0    0 -0.84854768576E+01  0.80943651034E+00 -0.74615105559E+01  0.11328886518E+02  0.10500000000E+00 0.  1.
         13    1    6    6    0    0 -0.17151773614E+02  0.16682767946E+01 -0.14875662832E+02  0.22765387220E+02  0.10500000000E+00 0. -1.
</event>
<event>
11    0  0.3515428E-009  0.9118800E+02  0.7816531E-02  0.1126479E+00
         25   -1    0    0    0    0  0.00000000000E+00  0.00000000000E+00  0.99999998245E-14  0.12500000000E+03  0.12500000000E+03 0.  0.
    3000001    1    3    3    0    0  0.33182129050E+02 -0.14754479598E+02 -0.26190694485E+02  0.44785051458E+02  0.10000000000E+01 0. -1.
    1000022    2    1    0    0    0  0.41381728632E+02 -0.22091537655E+02 -0.40072016793E+02  0.62500001785E+02  0.10000009635E+02 0.  0.
    3000022    2    3    3    0    0  0.81995995818E+01 -0.73370580572E+01 -0.13881322308E+02  0.17714950327E+02  0.25000363079E+00 0.  0.
    1000022    2    1    0    0    0 -0.41381728632E+02  0.22091537655E+02  0.40072016793E+02  0.62499998215E+02  0.99999873249E+01 0.  0.
    3000022    2    5    5    0    0 -0.10396859034E+02  0.10637936041E+02  0.13590545856E+02  0.20150081605E+02  0.24998203411E+00 0.  0.
        -13    1    4    4    0    0  0.28738986309E+01 -0.25319737538E+01 -0.47560807645E+01  0.61074965140E+01  0.10500000000E+00 0. -1.
         13    1    4    4    0    0  0.53257009509E+01 -0.48050843035E+01 -0.91252415435E+01  0.11607453812E+02  0.10500000000E+00 0.  1.
    3000001    1    5    5    0    0 -0.30984869598E+02  0.11453601614E+02  0.26481470937E+02  0.42349916611E+02  0.10000000000E+01 0. -1.
        -13    1    6    6    0    0 -0.61234393456E+01  0.63050781328E+01  0.81079545793E+01  0.11958280484E+02  0.10500000000E+00 0.  1.
         13    1    6    6    0    0 -0.42734196884E+01  0.43328579085E+01  0.54825912765E+01  0.81918011203E+01  0.10500000000E+00 0. -1.
</event>
<event>
11    0  0.3515428E-009  0.9118800E+02  0.7816531E-02  0.1126479E+00
         25   -1    0    0    0    0  0.00000000000E+00  0.00000000000E+00  0.99999998245E-14  0.12500000000E+03  0.12500000000E+03 0.  0.
    3000001    1    3    3    0    0  0.23117349457E+02 -0.15518457976E+02  0.37674227743E+02  0.46857035970E+02  0.10000000000E+01 0.  1.
    1000022    2    1    0    0    0  0.35159861395E+02 -0.18500649647E+02  0.47199153168E+02  0.62499998351E+02  0.99999921673E+01 0.  0.
    3000022    2    3    3    0    0  0.12042511939E+02 -0.29821916715E+01  0.95249254255E+01  0.15642962381E+02  0.25001348031E+00 0.  0.
    1000022    2    1    0    0    0 -0.35159861395E+02  0.18500649647E+02 -0.47199153168E+02  0.62500001649E+02  0.10000012780E+02 0.  0.
    3000022    2    5    5    0    0 -0.29721721012E+02  0.13728323109E+02 -0.43097751636E+02  0.54123250134E+02  0.24990731837E+00 0.  0.
        -13    1    4    4    0    0  0.47565649839E+01 -0.11298879477E+01  0.38061091562E+01  0.61966966304E+01  0.10500000000E+00 0.  1.
         13    1    4    4    0    0  0.72859469547E+01 -0.18523037238E+01  0.57188162693E+01  0.94462657508E+01  0.10500000000E+00 0. -1.
    3000001    1    5    5    0    0 -0.54381403829E+01  0.47723265388E+01 -0.41014015326E+01  0.83767515153E+01  0.10000000000E+01 0.  1.
        -13    1    6    6    0    0 -0.85395642307E+01  0.39630005533E+01 -0.12457227002E+02  0.15614834620E+02  0.10500000000E+00 0. -1.
         13    1    6    6    0    0 -0.21182156782E+02  0.97653225553E+01 -0.30640524634E+02  0.38508415514E+02  0.10500000000E+00 0.  1.
</event>
<event>
11    0  0.3515428E-009  0.9118800E+02  0.7816531E-02  0.1126479E+00
         25   -1    0    0    0    0  0.00000000000E+00  0.00000000000E+00  0.99999998245E-14  0.12500000000E+03  0.12500000000E+03 0.  0.
    3000001    1    3    3    0    0  0.25538987820E+01  0.16654891734E+02 -0.70481219218E+01  0.18291633067E+02  0.10000000000E+01 0. -1.
    1000022    2    1    0    0    0  0.28859335295E+01  0.60726435705E+02 -0.10498634788E+02  0.62500000752E+02  0.10000007793E+02 0.  0.
    3000022    2    3    3    0    0  0.33203474749E+00  0.44071543971E+02 -0.34505128660E+01  0.44208367685E+02  0.24999845946E+00 0.  0.
    1000022    2    1    0    0    0 -0.28859335295E+01 -0.60726435705E+02  0.10498634788E+02  0.62499999248E+02  0.99999983904E+01 0.  0.
    3000022    2    5    5    0    0  0.25174447648E+01 -0.34142001904E+02  0.31719347658E+01  0.34382226386E+02  0.24999786222E+00 0.  0.
        -13    1    4    4    0    0  0.20765452900E+00  0.25150744710E+02 -0.19060402899E+01  0.25223938916E+02  0.10500000000E+00 0. -1.
         13    1    4    4    0    0  0.12438021848E+00  0.18920799261E+02 -0.15444725761E+01  0.18984428768E+02  0.10500000000E+00 0.  1.
    3000001    1    5    5    0    0 -0.54033782942E+01 -0.26584433801E+02  0.73267000220E+01  0.28117772862E+02  0.10000000000E+01 0.  1.
        -13    1    6    6    0    0  0.89560086799E+00 -0.11593042912E+02  0.10406176784E+01  0.11674530184E+02  0.10500000000E+00 0.  1.
         13    1    6    6    0    0  0.16218438968E+01 -0.22548958992E+02  0.21313170874E+01  0.22707696201E+02  0.10500000000E+00 0. -1.
</event>
<event>
11    0  0.3515428E-009  0.9118800E+02  0.7816531E-02  0.1126479E+00
         25   -1    0    0    0    0  0.00000000000E+00  0.00000000000E+00  0.99999998245E-14  0.12500000000E+03  0.12500000000E+03 0.  0.
    3000001    1    3    3    0    0 -0.27314190724E+02 -0.32410985910E+02 -0.28546808643E+01  0.42493366840E+02  0.10000000000E+01 0.  1.
    1000022    2    1    0    0    0 -0.34538698624E+02 -0.50704781590E+02 -0.65079535245E+01  0.62500000157E+02  0.99999990918E+01 0.  0.
    3000022    2    3    3    0    0 -0.72245079001E+01 -0.18293795680E+02 -0.36532726601E+01  0.20006633317E+02  0.25000155661E+00 0.  0.
    1000022    2    1    0    0    0  0.34538698624E+02  0.50704781590E+02  0.65079535245E+01  0.62499999843E+02  0.99999971246E+01 0.  0.
    3000022    2    5    5    0    0  0.13135797122E+02  0.22827981194E+02 -0.17050533517E+01  0.26393855283E+02  0.24999664450E+00 0.  0.
        -13    1    4    4    0    0 -0.22514600932E+01 -0.57130774851E+01 -0.10911013988E+01  0.62377763798E+01  0.10500000000E+00 0. -1.
         13    1    4    4    0    0 -0.49730478069E+01 -0.12580718195E+02 -0.25621712613E+01  0.13768856937E+02  0.10500000000E+00 0.  1.
    3000001    1    5    5    0    0  0.21402901502E+02  0.27876800396E+02  0.82130068762E+01  0.36106144560E+02  0.10000000000E+01 0. -1.
        -13    1    6    6    0    0  0.75806441485E+01  0.13141486239E+02 -0.91896335347E+00  0.15199353438E+02  0.10500000000E+00 0. -1.
         13    1    6    6    0    0  0.55551529736E+01  0.96864949553E+01 -0.78608999827E+00  0.11194501845E+02  0.10500000000E+00 0.  1.
</event>
<event>
11    0  0.3515428E-009  0.9118800E+02  0.7816531E-02  0.1126479E+00
         25   -1    0    0    0    0  0.00000000000E+00  0.00000000000E+00  0.99999998245E-14  0.12500000000E+03  0.12500000000E+03 0.  0.
    3000001    1    3    3    0    0 -0.18264278932E+02  0.12108053963E+02  0.37539325592E+02  0.43478613382E+02  0.10000000000E+01 0. -1.
    1000022    2    1    0    0    0 -0.30427338878E+02  0.20181903185E+02  0.49730452115E+02  0.62499999620E+02  0.99999958789E+01 0.  0.
    3000022    2    3    3    0    0 -0.12163059946E+02  0.80738492219E+01  0.12191126523E+02  0.19021386239E+02  0.25000004872E+00 0.  0.
    1000022    2    1    0    0    0  0.30427338878E+02 -0.20181903185E+02 -0.49730452115E+02  0.62500000380E+02  0.10000000624E+02 0.  0.
    3000022    2    5    5    0    0  0.30767642753E+02 -0.20182661227E+02 -0.48209455125E+02  0.60648179885E+02  0.25001025845E+00 0.  0.
        -13    1    4    4    0    0 -0.51855144459E+01  0.33666270922E+01  0.51412701728E+01  0.80416056877E+01  0.10500000000E+00 0.  1.
         13    1    4    4    0    0 -0.69775455005E+01  0.47072221297E+01  0.70498563502E+01  0.10979780551E+02  0.10500000000E+00 0. -1.
    3000001    1    5    5    0    0 -0.34030387411E+00  0.75804199912E-03 -0.15209969902E+01  0.18518204950E+01  0.10000000000E+01 0.  1.
        -13    1    6    6    0    0  0.22000231444E+02 -0.14472867557E+02 -0.34464375569E+02  0.43373705022E+02  0.10500000000E+00 0. -1.
         13    1    6    6    0    0  0.87674113088E+01 -0.57097936694E+01 -0.13745079556E+02  0.17274474863E+02  0.10500000000E+00 0.  1.
</event>
<event>
11    0  0.3515428E-009  0.9118800E+02  0.7816531E-02  0.1126479E+00
         25   -1    0    0    0    0  0.00000000000E+00  0.00000000000E+00  0.99999998245E-14  0.12500000000E+03  0.12500000000E+03 0.  0.
    3000001    1    3    3    0    0 -0.42076539305E+01  0.25843512311E+01 -0.18479424768E+01  0.53663874517E+01  0.10000000000E+01 0.  1.
    1000022    2    1    0    0    0 -0.25408800527E+02  0.48244621718E+02 -0.28863459695E+02  0.62499999177E+02  0.99999961293E+01 0.  0.
    3000022    2    3    3    0    0 -0.21201146596E+02  0.45660270487E+02 -0.27015517219E+02  0.57133611725E+02  0.25000044775E+00 0.  0.
    1000022    2    1    0    0    0  0.25408800527E+02 -0.48244621718E+02  0.28863459695E+02  0.62500000823E+02  0.10000006422E+02 0.  0.
    3000022    2    5    5    0    0  0.12232945511E+01  0.16806567287E+00  0.28487154803E+00  0.12916460001E+01  0.25000392292E+00 0.  0.
        -13    1    4    4    0    0 -0.62073981342E+01  0.13309555896E+02 -0.79215464604E+01  0.16686461370E+02  0.10500000000E+00 0.  1.
         13    1    4    4    0    0 -0.14993748462E+02  0.32350714591E+02 -0.19093970758E+02  0.40447150354E+02  0.10500000000E+00 0. -1.
    3000001    1    5    5    0    0  0.24185505975E+02 -0.48412687391E+02  0.28578588147E+02  0.61208354823E+02  0.10000000000E+01 0. -1.
        -13    1    6    6    0    0  0.67889218163E+00  0.44804119814E-01  0.20352267706E+00  0.71787776363E+00  0.10500000000E+00 0. -1.
         13    1    6    6    0    0  0.54440236951E+00  0.12326155306E+00  0.81348870969E-01  0.57376823649E+00  0.10500000000E+00 0.  1.
</event>
<event>
11    0  0.3515428E-009  0.9118800E+02  0.7816531E-02  0.1126479E+00
         25   -1    0    0    0    0  0.00000000000E+00  0.00000000000E+00  0.99999998245E-14  0.12500000000E+03  0.12500000000E+03 0.  0.
    3000001    1    3    3    0    0  0.78856106663E+00  0.20820844017E+01  0.64527533872E+00  0.25245364474E+01  0.10000000000E+01 0.  1.
    1000022    2    1    0    0    0  0.13584840289E+02  0.30278452530E+02  0.52008819057E+02  0.62499998609E+02  0.99999996578E+01 0.  0.
    3000022    2    3    3    0    0  0.12796279222E+02  0.28196368128E+02  0.51363543718E+02  0.59975462162E+02  0.25000130807E+00 0.  0.
    1000022    2    1    0    0    0 -0.13584840289E+02 -0.30278452530E+02 -0.52008819057E+02  0.62500001391E+02  0.10000017041E+02 0.  0.
    3000022    2    5    5    0    0 -0.11429011866E+02 -0.21450198285E+02 -0.29619236031E+02  0.38315727631E+02  0.25004424243E+00 0.  0.
        -13    1    4    4    0    0  0.60222741002E+01  0.13248235166E+02  0.24010939924E+02  0.28077032987E+02  0.10500000000E+00 0.  1.
         13    1    4    4    0    0  0.67740051223E+01  0.14948132963E+02  0.27352603795E+02  0.31898429175E+02  0.10500000000E+00 0. -1.
    3000001    1    5    5    0    0 -0.21558284235E+01 -0.88282542447E+01 -0.22389583026E+02  0.24184273760E+02  0.10000000000E+01 0.  1.
        -13    1    6    6    0    0 -0.76925302167E+01 -0.14504419529E+02 -0.19942463488E+02  0.25831493994E+02  0.10500000000E+00 0. -1.
         13    1    6    6    0    0 -0.37364816489E+01 -0.69457787558E+01 -0.96767725432E+01  0.12484233636E+02  0.10500000000E+00 0.  1.
</event>
<event>
11    0  0.3515428E-009  0.9118800E+02  0.7816531E-02  0.1126479E+00
         25   -1    0    0    0    0  0.00000000000E+00  0.00000000000E+00  0.99999998245E-14  0.12500000000E+03  0.12500000000E+03 0.  0.
    3000001    1    3    3    0    0 -0.18648142385E+02  0.28314485845E+02 -0.17996130134E+01  0.33966188042E+02  0.10000000000E+01 0. -1.
    1000022    2    1    0    0    0 -0.26104309529E+02  0.55849916107E+02 -0.23669769438E+01  0.62500005634E+02  0.10000000965E+02 0.  0.
    3000022    2    3    3    0    0 -0.74561671439E+01  0.27535430262E+02 -0.56736393044E+00  0.28533817593E+02  0.24999279423E+00 0.  0.
    1000022    2    1    0    0    0  0.26104309529E+02 -0.55849916107E+02  0.23669769438E+01  0.62499994366E+02  0.99999305366E+01 0.  0.
    3000022    2    5    5    0    0  0.21531697984E+02 -0.52361255725E+02  0.20266871537E+01  0.56652317499E+02  0.24999601494E+00 0.  0.
        -13    1    4    4    0    0 -0.54396637015E+01  0.19952831606E+02 -0.42466991209E+00  0.20685666530E+02  0.10500000000E+00 0.  1.
         13    1    4    4    0    0 -0.20165034423E+01  0.75825986563E+01 -0.14269401834E+00  0.78481510624E+01  0.10500000000E+00 0. -1.
    3000001    1    5    5    0    0  0.45726115444E+01 -0.34886603821E+01  0.34028979012E+00  0.58476768668E+01  0.10000000000E+01 0.  1.
        -13    1    6    6    0    0  0.15679876117E+02 -0.38185855838E+02  0.14480481407E+01  0.41305277745E+02  0.10500000000E+00 0.  1.
         13    1    6    6    0    0  0.58518218670E+01 -0.14175399887E+02  0.57863901300E+00  0.15347039754E+02  0.10500000000E+00 0. -1.
</event>
<event>
11    0  0.3515428E-009  0.9118800E+02  0.7816531E-02  0.1126479E+00
         25   -1    0    0    0    0  0.00000000000E+00  0.00000000000E+00  0.99999998245E-14  0.12500000000E+03  0.12500000000E+03 0.  0.
    3000001    1    3    3    0    0  0.37489383184E+02 -0.15442322917E+02 -0.18368806368E+02  0.44523389763E+02  0.10000000000E+01 0.  1.
    1000022    2    1    0    0    0  0.50190497906E+02 -0.27050486245E+02 -0.23567669799E+02  0.62499998217E+02  0.99999915649E+01 0.  0.
    3000022    2    3    3    0    0  0.12701114722E+02 -0.11608163327E+02 -0.51988634312E+01  0.17976608455E+02  0.24999907765E+00 0.  0.
    1000022    2    1    0    0    0 -0.50190497906E+02  0.27050486245E+02  0.23567669799E+02  0.62500001783E+02  0.10000013850E+02 0.  0.
    3000022    2    5    5    0    0 -0.29834934933E+02  0.12045510574E+02  0.95198671752E+01  0.33554553136E+02  0.24999534850E+00 0.  0.
        -13    1    4    4    0    0  0.70544044508E+01 -0.63725904211E+01 -0.29110624595E+01  0.99428285952E+01  0.10500000000E+00 0. -1.
         13    1    4    4    0    0  0.56467102715E+01 -0.52355729060E+01 -0.22878009717E+01  0.80337798595E+01  0.10500000000E+00 0.  1.
    3000001    1    5    5    0    0 -0.20355562973E+02  0.15004975670E+02  0.14047802624E+02  0.28945448647E+02  0.10000000000E+01 0.  1.
        -13    1    6    6    0    0 -0.14858161362E+02  0.59372062396E+01  0.46960738172E+01  0.16675716215E+02  0.10500000000E+00 0.  1.
         13    1    6    6    0    0 -0.14976773571E+02  0.61083043346E+01  0.48237933580E+01  0.16878836921E+02  0.10500000000E+00 0. -1.
</event>
<event>
11    0  0.3515428E-009  0.9118800E+02  0.7816531E-02  0.1126479E+00
         25   -1    0    0    0    0  0.00000000000E+00  0.00000000000E+00  0.99999998245E-14  0.12500000000E+03  0.12500000000E+03 0.  0.
    3000001    1    3    3    0    0  0.23315154788E+02  0.88865240196E+01  0.35338043664E+01  0.25220121436E+02  0.10000000000E+01 0.  1.
    1000022    2    1    0    0    0  0.59964722078E+02  0.10312330543E+02  0.10204839699E+02  0.62499994323E+02  0.99999240987E+01 0.  0.
    3000022    2    3    3    0    0  0.36649567290E+02  0.14258065239E+01  0.66710353330E+01  0.37279872887E+02  0.25000658637E+00 0.  0.
    1000022    2    1    0    0    0 -0.59964722078E+02 -0.10312330543E+02 -0.10204839699E+02  0.62500005677E+02  0.99999950614E+01 0.  0.
    3000022    2    5    5    0    0 -0.77048215634E+00  0.62087128688E+00 -0.12819455624E+01  0.16385976919E+01  0.24998812575E+00 0.  0.
        -13    1    4    4    0    0  0.20811909318E+02  0.77870694057E+00  0.37291040185E+01  0.21157958213E+02  0.10500000000E+00 0. -1.
         13    1    4    4    0    0  0.15837657972E+02  0.64709958331E+00  0.29419313145E+01  0.16121914675E+02  0.10500000000E+00 0.  1.
    3000001    1    5    5    0    0 -0.59194239921E+02 -0.10933201830E+02 -0.89228941371E+01  0.60861407985E+02  0.10000000000E+01 0.  1.
        -13    1    6    6    0    0 -0.44963683030E+00  0.39733319976E+00 -0.67763861314E+00  0.91118935508E+00  0.10500000000E+00 0.  1.
         13    1    6    6    0    0 -0.32084532604E+00  0.22353808712E+00 -0.60430694923E+00  0.72740833685E+00  0.10500000000E+00 0. -1.
</event>
<event>
11    0  0.3515428E-009  0.9118800E+02  0.7816531E-02  0.1126479E+00
         25   -1    0    0    0    0  0.00000000000E+00  0.00000000000E+00  0.99999998245E-14  0.12500000000E+03  0.12500000000E+03 0.  0.
    3000001    1    3    3    0    0  0.87886287368E+01  0.18120820434E+02  0.47172432335E+02  0.51301486339E+02  0.10000000000E+01 0. -1.
    1000022    2    1    0    0    0  0.14006399677E+02  0.24194839686E+02  0.54997096734E+02  0.62500000395E+02  0.99999950395E+01 0.  0.
    3000022    2    3    3    0    0  0.52177709406E+01  0.60740192525E+01  0.78246643996E+01  0.11198514055E+02  0.25000122901E+00 0.  0.
    1000022    2    1    0    0    0 -0.14006399677E+02 -0.24194839686E+02 -0.54997096734E+02  0.62499999605E+02  0.99999901034E+01 0.  0.
    3000022    2    5    5    0    0 -0.15260282027E+02 -0.19715123118E+02 -0.46028438427E+02  0.52347319500E+02  0.24985539957E+00 0.  0.
        -13    1    4    4    0    0  0.23401099655E+01  0.28268292847E+01  0.35906705627E+01  0.51352720030E+01  0.10500000000E+00 0.  1.
         13    1    4    4    0    0  0.28776609751E+01  0.32471899678E+01  0.42339938369E+01  0.60632420524E+01  0.10500000000E+00 0. -1.
    3000001    1    5    5    0    0  0.12538823498E+01 -0.44797165682E+01 -0.89686583073E+01  0.10152680105E+02  0.10000000000E+01 0.  1.
        -13    1    6    6    0    0 -0.76489899497E+01 -0.99665892598E+01 -0.23103289555E+02  0.26298535358E+02  0.10500000000E+00 0. -1.
         13    1    6    6    0    0 -0.76112920774E+01 -0.97485338584E+01 -0.22925148872E+02  0.26048784142E+02  0.10500000000E+00 0.  1.
</event>
<event>
11    0  0.3515428E-009  0.9118800E+02  0.7816531E-02  0.1126479E+00
         25   -1    0    0    0    0  0.00000000000E+00  0.00000000000E+00  0.99999998245E-14  0.12500000000E+03  0.12500000000E+03 0.  0.
    3000001    1    3    3    0    0 -0.19268825616E+01  0.24036439640E+01 -0.28787348846E+01  0.43333007336E+01  0.10000000000E+01 0. -1.
    1000022    2    1    0    0    0 -0.50445879992E+02  0.10663689929E+02 -0.33878438807E+02  0.62500006133E+02  0.10000052979E+02 0.  0.
    3000022    2    3    3    0    0 -0.48518997430E+02  0.82600459646E+01 -0.30999703922E+02  0.58166705399E+02  0.25000552597E+00 0.  0.
    1000022    2    1    0    0    0  0.50445879992E+02 -0.10663689929E+02  0.33878438807E+02  0.62499993867E+02  0.99999763213E+01 0.  0.
    3000022    2    5    5    0    0  0.91007704756E+01  0.66632733080E+00  0.28251205305E+01  0.95557217698E+01  0.24999433513E+00 0.  0.
        -13    1    4    4    0    0 -0.36152665884E+02  0.61252130589E+01 -0.23095535597E+02  0.43335300565E+02  0.10500000000E+00 0. -1.
         13    1    4    4    0    0 -0.12366331546E+02  0.21348329057E+01 -0.79041683245E+01  0.14831404834E+02  0.10500000000E+00 0.  1.
    3000001    1    5    5    0    0  0.41345109516E+02 -0.11330017259E+02  0.31053318276E+02  0.52944272098E+02  0.10000000000E+01 0.  1.
        -13    1    6    6    0    0  0.35952358689E+01  0.25573963562E+00  0.10511173970E+01  0.37559281804E+01  0.10500000000E+00 0. -1.
         13    1    6    6    0    0  0.55055346067E+01  0.41058769518E+00  0.17740031336E+01  0.57997935894E+01  0.10500000000E+00 0.  1.
</event>
<event>
11    0  0.3515428E-009  0.9118800E+02  0.7816531E-02  0.1126479E+00
         25   -1    0    0    0    0  0.00000000000E+00  0.00000000000E+00  0.99999998245E-14  0.12500000000E+03  0.12500000000E+03 0.  0.
    3000001    1    3    3    0    0  0.24196690303E+02 -0.44293193336E+01 -0.18253252201E+02  0.30647673767E+02  0.10000000000E+01 0. -1.
    1000022    2    1    0    0    0  0.47385741588E+02 -0.18632400271E+02 -0.34837841820E+02  0.62500000503E+02  0.99999997261E+01 0.  0.
    3000022    2    3    3    0    0  0.23189051285E+02 -0.14203080938E+02 -0.16584589619E+02  0.31852326737E+02  0.24999619979E+00 0.  0.
    1000022    2    1    0    0    0 -0.47385741588E+02  0.18632400271E+02  0.34837841820E+02  0.62499999497E+02  0.99999934350E+01 0.  0.
    3000022    2    5    5    0    0 -0.23016282571E+02  0.14122382753E+02  0.19910058033E+02  0.33550914544E+02  0.24999570220E+00 0.  0.
        -13    1    4    4    0    0  0.11567598330E+02 -0.70543584741E+01 -0.81899806473E+01  0.15832249133E+02  0.10500000000E+00 0.  1.
         13    1    4    4    0    0  0.11621452954E+02 -0.71487224636E+01 -0.83946089714E+01  0.16020077603E+02  0.10500000000E+00 0. -1.
    3000001    1    5    5    0    0 -0.24369459017E+02  0.45100175178E+01  0.14927783786E+02  0.28949084952E+02  0.10000000000E+01 0.  1.
        -13    1    6    6    0    0 -0.13648356939E+02  0.84327153867E+01  0.11878034459E+02  0.19962140756E+02  0.10500000000E+00 0.  1.
         13    1    6    6    0    0 -0.93679256314E+01  0.56896673668E+01  0.80320235743E+01  0.13588773789E+02  0.10500000000E+00 0. -1.
</event>
<event>
11    0  0.3515428E-009  0.9118800E+02  0.7816531E-02  0.1126479E+00
         25   -1    0    0    0    0  0.00000000000E+00  0.00000000000E+00  0.99999998245E-14  0.12500000000E+03  0.12500000000E+03 0.  0.
    3000001    1    3    3    0    0 -0.25270639221E+02 -0.43199524999E+02 -0.65780826271E+01  0.50488368342E+02  0.10000000000E+01 0. -1.
    1000022    2    1    0    0    0 -0.27762046438E+02 -0.53895439841E+02 -0.11436797002E+02  0.62500000420E+02  0.10000003436E+02 0.  0.
    3000022    2    3    3    0    0 -0.24914072172E+01 -0.10695914842E+02 -0.48587143744E+01  0.12011632078E+02  0.24999114662E+00 0.  0.
    1000022    2    1    0    0    0  0.27762046438E+02  0.53895439841E+02  0.11436797002E+02  0.62499999580E+02  0.99999981883E+01 0.  0.
    3000022    2    5    5    0    0  0.16830964096E+02  0.32334928145E+02  0.11760154307E+02  0.38303950611E+02  0.24994507302E+00 0.  0.
        -13    1    4    4    0    0 -0.18488944884E+01 -0.78623799858E+01 -0.35409224468E+01  0.88195570549E+01  0.10500000000E+00 0. -1.
         13    1    4    4    0    0 -0.64251272876E+00 -0.28335348564E+01 -0.13177919276E+01  0.31920750232E+01  0.10500000000E+00 0.  1.
    3000001    1    5    5    0    0  0.10931082342E+02  0.21560511696E+02 -0.32335730570E+00  0.24196048969E+02  0.10000000000E+01 0.  1.
        -13    1    6    6    0    0  0.93491092342E+01  0.17829350103E+02  0.64664630627E+01  0.21145158740E+02  0.10500000000E+00 0.  1.
         13    1    6    6    0    0  0.74818548620E+01  0.14505578042E+02  0.52936912445E+01  0.17158791872E+02  0.10500000000E+00 0. -1.
</event>
<event>
11    0  0.3515428E-009  0.9118800E+02  0.7816531E-02  0.1126479E+00
         25   -1    0    0    0    0  0.00000000000E+00  0.00000000000E+00  0.99999998245E-14  0.12500000000E+03  0.12500000000E+03 0.  0.
    3000001    1    3    3    0    0  0.33998102303E+02 -0.16189524076E+01 -0.26623386364E+02  0.43223797480E+02  0.10000000000E+01 0. -1.
    1000022    2    1    0    0    0  0.47224938174E+02  0.39117952186E+01 -0.39506366458E+02  0.62500001348E+02  0.10000012525E+02 0.  0.
    3000022    2    3    3    0    0  0.13226835871E+02  0.55307476263E+01 -0.12882980093E+02  0.19276203868E+02  0.25000604189E+00 0.  0.
    1000022    2    1    0    0    0 -0.47224938174E+02 -0.39117952186E+01  0.39506366458E+02  0.62499998652E+02  0.99999956691E+01 0.  0.
    3000022    2    5    5    0    0 -0.45058468770E+02 -0.35197087183E+01  0.34229490600E+02  0.56695453853E+02  0.25000689576E+00 0.  0.
        -13    1    4    4    0    0  0.59296813732E+01  0.25446191936E+01 -0.57595217781E+01  0.86498164224E+01  0.10500000000E+00 0. -1.
         13    1    4    4    0    0  0.72971544977E+01  0.29861284327E+01 -0.71234583153E+01  0.10626387446E+02  0.10500000000E+00 0.  1.
    3000001    1    5    5    0    0 -0.21664694034E+01 -0.39208650031E+00  0.52768758580E+01  0.58045447987E+01  0.10000000000E+01 0.  1.
        -13    1    6    6    0    0 -0.17207838755E+02 -0.13073970172E+01  0.13008960710E+02  0.21611642356E+02  0.10500000000E+00 0.  1.
         13    1    6    6    0    0 -0.27850630016E+02 -0.22123117012E+01  0.21220529890E+02  0.35083811497E+02  0.10500000000E+00 0. -1.
</event>
<event>
11    0  0.3515428E-009  0.9118800E+02  0.7816531E-02  0.1126479E+00
         25   -1    0    0    0    0  0.00000000000E+00  0.00000000000E+00  0.99999998245E-14  0.12500000000E+03  0.12500000000E+03 0.  0.
    3000001    1    3    3    0    0  0.66661642537E+01 -0.86658746361E+00 -0.30675591566E+02  0.31419430892E+02  0.10000000000E+01 0.  1.
    1000022    2    1    0    0    0  0.19972573161E+02  0.48824536051E+01 -0.58167917353E+02  0.62500011121E+02  0.10000137447E+02 0.  0.
    3000022    2    3    3    0    0  0.13306408908E+02  0.57490410687E+01 -0.27492325788E+02  0.31080580228E+02  0.24999777985E+00 0.  0.
    1000022    2    1    0    0    0 -0.19972573161E+02 -0.48824536051E+01  0.58167917353E+02  0.62499988879E+02  0.99999984406E+01 0.  0.
    3000022    2    5    5    0    0 -0.11947297463E+02  0.27882667218E+00  0.21517218675E+02  0.24614403523E+02  0.25000066414E+00 0.  0.
        -13    1    4    4    0    0  0.59301003946E+01  0.26269980767E+01 -0.12364937871E+02  0.13963163078E+02  0.10500000000E+00 0.  1.
         13    1    4    4    0    0  0.73763085131E+01  0.31220429920E+01 -0.15127387916E+02  0.17117417150E+02  0.10500000000E+00 0. -1.
    3000001    1    5    5    0    0 -0.80252756981E+01 -0.51612802773E+01  0.36650698679E+02  0.37885585356E+02  0.10000000000E+01 0. -1.
        -13    1    6    6    0    0 -0.30422461222E+01  0.86185378963E-01  0.55329063669E+01  0.63155971414E+01  0.10500000000E+00 0. -1.
         13    1    6    6    0    0 -0.89050513411E+01  0.19264129322E+00  0.15984312308E+02  0.18298806382E+02  0.10500000000E+00 0.  1.
</event>
<event>
11    0  0.3515428E-009  0.9118800E+02  0.7816531E-02  0.1126479E+00
         25   -1    0    0    0    0  0.00000000000E+00  0.00000000000E+00  0.99999998245E-14  0.12500000000E+03  0.12500000000E+03 0.  0.
    3000001    1    3    3    0    0 -0.18666443424E+01 -0.80530880910E+01 -0.69363621670E+01  0.10837421696E+02  0.10000000000E+01 0.  1.
    1000022    2    1    0    0    0 -0.21676657588E+02 -0.52961724183E+02 -0.23052730205E+02  0.62500000334E+02  0.99999979551E+01 0.  0.
    3000022    2    3    3    0    0 -0.19810013246E+02 -0.44908636092E+02 -0.16116368038E+02  0.51662578638E+02  0.24998453170E+00 0.  0.
    1000022    2    1    0    0    0  0.21676657588E+02  0.52961724183E+02  0.23052730205E+02  0.62499999666E+02  0.99999937860E+01 0.  0.
    3000022    2    5    5    0    0  0.39597030275E+01  0.15332189910E+02  0.22862164805E+01  0.16001393012E+02  0.24999404357E+00 0.  0.
        -13    1    4    4    0    0 -0.79973055112E+01 -0.18283774911E+02 -0.65383317735E+01  0.21000336374E+02  0.10500000000E+00 0.  1.
         13    1    4    4    0    0 -0.11812707735E+02 -0.26624861181E+02 -0.95780362644E+01  0.30662242263E+02  0.10500000000E+00 0. -1.
    3000001    1    5    5    0    0  0.17716954561E+02  0.37629534273E+02  0.20766513724E+02  0.46498606654E+02  0.10000000000E+01 0. -1.
        -13    1    6    6    0    0  0.21003341085E+01  0.78653459951E+01  0.11863923662E+01  0.82276134350E+01  0.10500000000E+00 0. -1.
         13    1    6    6    0    0  0.18593689191E+01  0.74668439152E+01  0.10998241143E+01  0.77737795771E+01  0.10500000000E+00 0.  1.
</event>
<event>
11    0  0.3515428E-009  0.9118800E+02  0.7816531E-02  0.1126479E+00
         25   -1    0    0    0    0  0.00000000000E+00  0.00000000000E+00  0.99999998245E-14  0.12500000000E+03  0.12500000000E+03 0.  0.
    3000001    1    3    3    0    0  0.21760603169E+02  0.19108204545E+01 -0.94162079120E+01  0.23808403065E+02  0.10000000000E+01 0. -1.
    1000022    2    1    0    0    0  0.51624903854E+02  0.14816055159E+02 -0.30357929939E+02  0.62500001147E+02  0.10000002243E+02 0.  0.
    3000022    2    3    3    0    0  0.29864300685E+02  0.12905234705E+02 -0.20941722027E+02  0.38691598082E+02  0.25000500376E+00 0.  0.
    1000022    2    1    0    0    0 -0.51624903854E+02 -0.14816055159E+02  0.30357929939E+02  0.62499998853E+02  0.99999878994E+01 0.  0.
    3000022    2    5    5    0    0 -0.11138981778E+02  0.85556906827E+00  0.70947176165E+01  0.13236556628E+02  0.24999964927E+00 0.  0.
        -13    1    4    4    0    0  0.11440279375E+02  0.49013075055E+01 -0.80676926407E+01  0.14832447437E+02  0.10500000000E+00 0.  1.
         13    1    4    4    0    0  0.18424021310E+02  0.80039271991E+01 -0.12874029386E+02  0.23859150645E+02  0.10500000000E+00 0. -1.
    3000001    1    5    5    0    0 -0.40485922075E+02 -0.15671624227E+02  0.23263212323E+02  0.49263442224E+02  0.10000000000E+01 0.  1.
        -13    1    6    6    0    0 -0.50701025136E+01  0.44946015023E+00  0.32677769312E+01  0.60495739517E+01  0.10500000000E+00 0. -1.
         13    1    6    6    0    0 -0.60688792648E+01  0.40610891804E+00  0.38269406854E+01  0.71869826766E+01  0.10500000000E+00 0.  1.
</event>
<event>
11    0  0.3515428E-009  0.9118800E+02  0.7816531E-02  0.1126479E+00
         25   -1    0    0    0    0  0.00000000000E+00  0.00000000000E+00  0.99999998245E-14  0.12500000000E+03  0.12500000000E+03 0.  0.
    3000001    1    3    3    0    0 -0.29114794317E+02  0.91592334727E+00 -0.29982822189E+01  0.29300168258E+02  0.10000000000E+01 0. -1.
    1000022    2    1    0    0    0 -0.61576215284E+02 -0.11255459505E+01  0.36541612301E+01  0.62500001809E+02  0.10000009473E+02 0.  0.
    3000022    2    3    3    0    0 -0.32461420967E+02 -0.20414692977E+01  0.66524434490E+01  0.33199833551E+02  0.24999175192E+00 0.  0.
    1000022    2    1    0    0    0  0.61576215284E+02  0.11255459505E+01 -0.36541612301E+01  0.62499998191E+02  0.99999868594E+01 0.  0.
    3000022    2    5    5    0    0  0.32378704741E+02  0.46417919025E+01  0.90618247069E+00  0.32723239768E+02  0.25000296226E+00 0.  0.
        -13    1    4    4    0    0 -0.21021355714E+02 -0.13378855767E+01  0.43639122047E+01  0.21511440877E+02  0.10500000000E+00 0.  1.
         13    1    4    4    0    0 -0.11440065253E+02 -0.70358372102E+00  0.22885312443E+01  0.11688392674E+02  0.10500000000E+00 0. -1.
    3000001    1    5    5    0    0  0.29197510543E+02 -0.35162459520E+01 -0.45603437008E+01  0.29776758423E+02  0.10000000000E+01 0. -1.
        -13    1    6    6    0    0  0.19093279039E+02  0.26740387538E+01  0.54795687861E+00  0.19287692175E+02  0.10500000000E+00 0.  1.
         13    1    6    6    0    0  0.13285425702E+02  0.19677531487E+01  0.35822559207E+00  0.13435547593E+02  0.10500000000E+00 0. -1.
</event>
<event>
11    0  0.3515428E-009  0.9118800E+02  0.7816531E-02  0.1126479E+00
         25   -1    0    0    0    0  0.00000000000E+00  0.00000000000E+00  0.99999998245E-14  0.12500000000E+03  0.12500000000E+03 0.  0.
    3000001    1    3    3    0    0 -0.37793192764E+01  0.45501082378E+01  0.51528896538E+01  0.79081610349E+01  0.10000000000E+01 0. -1.
    1000022    2    1    0    0    0 -0.62832034919E+01  0.44757026806E+02  0.41994995649E+02  0.62500001203E+02  0.10000019808E+02 0.  0.
    3000022    2    3    3    0    0 -0.25038842154E+01  0.40206918568E+02  0.36842105995E+02  0.54591840168E+02  0.25000368923E+00 0.  0.
    1000022    2    1    0    0    0  0.62832034919E+01 -0.44757026806E+02 -0.41994995649E+02  0.62499998797E+02  0.10000004776E+02 0.  0.
    3000022    2    5    5    0    0  0.48704109383E-01 -0.16829825940E+02 -0.21420099094E+02  0.27242036590E+02  0.24999827440E+00 0.  0.
        -13    1    4    4    0    0 -0.84976698221E+00  0.14273619340E+02  0.13020216341E+02  0.19338959940E+02  0.10500000000E+00 0.  1.
         13    1    4    4    0    0 -0.16541172332E+01  0.25933299227E+02  0.23821889654E+02  0.35252880228E+02  0.10500000000E+00 0. -1.
    3000001    1    5    5    0    0  0.62344993825E+01 -0.27927200866E+02 -0.20574896555E+02  0.35257962207E+02  0.10000000000E+01 0.  1.
        -13    1    6    6    0    0  0.65959021487E-01 -0.10303872999E+02 -0.13194847432E+02  0.16741839000E+02  0.10500000000E+00 0.  1.
         13    1    6    6    0    0 -0.17254912104E-01 -0.65259529409E+01 -0.82252516623E+01  0.10500197590E+02  0.10500000000E+00 0. -1.
</event>
<event>
11    0  0.3515428E-009  0.9118800E+02  0.7816531E-02  0.1126479E+00
         25   -1    0    0    0    0  0.00000000000E+00  0.00000000000E+00  0.99999998245E-14  0.12500000000E+03  0.12500000000E+03 0.  0.
    3000001    1    3    3    0    0  0.35908956514E+02 -0.21622519421E+00  0.33066706908E+02  0.48825270270E+02  0.10000000000E+01 0. -1.
    1000022    2    1    0    0    0  0.42636092389E+02 -0.37472553304E+01  0.44433903890E+02  0.62499998706E+02  0.99999863335E+01 0.  0.
    3000022    2    3    3    0    0  0.67271358747E+01 -0.35310301362E+01  0.11367196983E+02  0.13674728436E+02  0.24999931284E+00 0.  0.
    1000022    2    1    0    0    0 -0.42636092389E+02  0.37472553304E+01 -0.44433903890E+02  0.62500001294E+02  0.10000002505E+02 0.  0.
    3000022    2    5    5    0    0 -0.29402197511E+02 -0.10302213078E+01 -0.33954258807E+02  0.44927772701E+02  0.24998855447E+00 0.  0.
        -13    1    4    4    0    0  0.42468290352E+01 -0.22736881701E+01  0.71265571819E+01  0.86025610731E+01  0.10500000000E+00 0.  1.
         13    1    4    4    0    0  0.24803068395E+01 -0.12573419661E+01  0.42406398007E+01  0.50721673629E+01  0.10500000000E+00 0. -1.
    3000001    1    5    5    0    0 -0.13233894877E+02  0.47774766382E+01 -0.10479645083E+02  0.17572228593E+02  0.10000000000E+01 0.  1.
        -13    1    6    6    0    0 -0.16702461008E+02 -0.63846094502E+00 -0.19231598598E+02  0.25480291320E+02  0.10500000000E+00 0. -1.
         13    1    6    6    0    0 -0.12699736503E+02 -0.39176036280E+00 -0.14722660209E+02  0.19447481381E+02  0.10500000000E+00 0.  1.
</event>
<event>
11    0  0.3515428E-009  0.9118800E+02  0.7816531E-02  0.1126479E+00
         25   -1    0    0    0    0  0.00000000000E+00  0.00000000000E+00  0.99999998245E-14  0.12500000000E+03  0.12500000000E+03 0.  0.
    3000001    1    3    3    0    0  0.32323357086E+01  0.43162727603E+01  0.13874830082E+02  0.14919420715E+02  0.10000000000E+01 0.  1.
    1000022    2    1    0    0    0  0.14038595005E+02  0.72495702443E+00  0.60071974919E+02  0.62499999483E+02  0.10000002615E+02 0.  0.
    3000022    2    3    3    0    0  0.10806259296E+02 -0.35913157359E+01  0.46197144837E+02  0.47580578768E+02  0.24999216061E+00 0.  0.
    1000022    2    1    0    0    0 -0.14038595005E+02 -0.72495702443E+00 -0.60071974919E+02  0.62500000517E+02  0.10000009075E+02 0.  0.
    3000022    2    5    5    0    0 -0.16777003086E+01  0.36807822839E+01 -0.15970817178E+02  0.16477023965E+02  0.24996173487E+00 0.  0.
        -13    1    4    4    0    0  0.50564079850E+01 -0.17220727489E+01  0.21442346959E+02  0.22097919911E+02  0.10500000000E+00 0.  1.
         13    1    4    4    0    0  0.57498513111E+01 -0.18692429870E+01  0.24754797878E+02  0.25482658857E+02  0.10500000000E+00 0. -1.
    3000001    1    5    5    0    0 -0.12360894696E+02 -0.44057393083E+01 -0.44101157741E+02  0.46022976551E+02  0.10000000000E+01 0.  1.
        -13    1    6    6    0    0 -0.97959650405E+00  0.20471912337E+01 -0.91614214567E+01  0.94389231041E+01  0.10500000000E+00 0. -1.
         13    1    6    6    0    0 -0.69810380451E+00  0.16335910502E+01 -0.68093957215E+01  0.70381008613E+01  0.10500000000E+00 0.  1.
</event>
<event>
11    0  0.3515428E-009  0.9118800E+02  0.7816531E-02  0.1126479E+00
         25   -1    0    0    0    0  0.00000000000E+00  0.00000000000E+00  0.99999998245E-14  0.12500000000E+03  0.12500000000E+03 0.  0.
    3000001    1    3    3    0    0  0.39555837508E+02 -0.40675403021E+02  0.19120778057E+02  0.59881189412E+02  0.10000000000E+01 0. -1.
    1000022    2    1    0    0    0  0.40615957755E+02 -0.42794514479E+02  0.18033955104E+02  0.62500000605E+02  0.10000002254E+02 0.  0.
    3000022    2    3    3    0    0  0.10601202472E+01 -0.21191114585E+01 -0.10868229534E+01  0.26188111934E+01  0.24999924492E+00 0.  0.
    1000022    2    1    0    0    0 -0.40615957755E+02  0.42794514479E+02 -0.18033955104E+02  0.62499999395E+02  0.99999946899E+01 0.  0.
    3000022    2    5    5    0    0 -0.55517743896E+01  0.11703778850E+02 -0.33935646074E+01  0.13393260235E+02  0.25000145530E+00 0.  0.
        -13    1    4    4    0    0  0.31498489849E+00 -0.64819344922E+00 -0.38395187667E+00  0.82329476951E+00  0.10500000000E+00 0.  1.
         13    1    4    4    0    0  0.74513534867E+00 -0.14709180092E+01 -0.70287107677E+00  0.17955164238E+01  0.10500000000E+00 0. -1.
    3000001    1    5    5    0    0 -0.35064183365E+02  0.31090735629E+02 -0.14640390496E+02  0.49106739160E+02  0.10000000000E+01 0. -1.
        -13    1    6    6    0    0 -0.21219239263E+01  0.43383733213E+01 -0.12490203134E+01  0.49895010740E+01  0.10500000000E+00 0.  1.
         13    1    6    6    0    0 -0.34298504633E+01  0.73654055289E+01 -0.21445442940E+01  0.84037591609E+01  0.10500000000E+00 0. -1.
</event>
<event>
11    0  0.3515428E-009  0.9118800E+02  0.7816531E-02  0.1126479E+00
         25   -1    0    0    0    0  0.00000000000E+00  0.00000000000E+00  0.99999998245E-14  0.12500000000E+03  0.12500000000E+03 0.  0.
    3000001    1    3    3    0    0 -0.41109084947E+02 -0.41662545312E+02 -0.19670665351E+02  0.61754834810E+02  0.10000000000E+01 0. -1.
    1000022    2    1    0    0    0 -0.40583772104E+02 -0.41912578783E+02 -0.20063479411E+02  0.62499999832E+02  0.99999977249E+01 0.  0.
    3000022    2    3    3    0    0  0.52531284288E+00 -0.25003347134E+00 -0.39281406033E+00  0.74516502249E+00  0.24999541011E+00 0.  0.
    1000022    2    1    0    0    0  0.40583772104E+02  0.41912578783E+02  0.20063479411E+02  0.62500000168E+02  0.99999998243E+01 0.  0.
    3000022    2    5    5    0    0  0.32343100633E+00  0.38268395206E+00 -0.82257976932E+00  0.99508412008E+00  0.25000061225E+00 0.  0.
        -13    1    4    4    0    0  0.26428719537E+00 -0.19202175416E+00 -0.24857845989E+00  0.42371727181E+00  0.10500000000E+00 0. -1.
         13    1    4    4    0    0  0.26102564751E+00 -0.58011717179E-01 -0.14423560044E+00  0.32144775069E+00  0.10500000000E+00 0.  1.
    3000001    1    5    5    0    0  0.40260341098E+02  0.41529894831E+02  0.20886059180E+02  0.61504916048E+02  0.10000000000E+01 0. -1.
        -13    1    6    6    0    0  0.22536393562E+00  0.23109023726E+00 -0.40696509367E+00  0.52994074074E+00  0.10500000000E+00 0.  1.
         13    1    6    6    0    0  0.98067070710E-01  0.15159371480E+00 -0.41561467565E+00  0.46514337934E+00  0.10500000000E+00 0. -1.
</event>
<event>
11    0  0.3515428E-009  0.9118800E+02  0.7816531E-02  0.1126479E+00
         25   -1    0    0    0    0  0.00000000000E+00  0.00000000000E+00  0.99999998245E-14  0.12500000000E+03  0.12500000000E+03 0.  0.
    3000001    1    3    3    0    0 -0.15173249132E+02  0.98580374313E+01  0.63252609906E+01  0.19194200109E+02  0.10000000000E+01 0. -1.
    1000022    2    1    0    0    0 -0.52908543674E+02  0.18675121532E+02  0.25654939363E+02  0.62500001015E+02  0.10000002766E+02 0.  0.
    3000022    2    3    3    0    0 -0.37735294542E+02  0.88170841010E+01  0.19329678372E+02  0.43305800907E+02  0.25000001706E+00 0.  0.
    1000022    2    1    0    0    0  0.52908543674E+02 -0.18675121532E+02 -0.25654939363E+02  0.62499998985E+02  0.99999900735E+01 0.  0.
    3000022    2    5    5    0    0  0.22457242644E+02 -0.58130030261E+01 -0.57508014425E+01  0.23900898824E+02  0.24999202181E+00 0.  0.
        -13    1    4    4    0    0 -0.20382786227E+02  0.46937427897E+01  0.10429556724E+02  0.23372545309E+02  0.10500000000E+00 0.  1.
         13    1    4    4    0    0 -0.17352508315E+02  0.41233413113E+01  0.89001216481E+01  0.19933255598E+02  0.10500000000E+00 0. -1.
    3000001    1    5    5    0    0  0.30451301029E+02 -0.12862118506E+02 -0.19904137920E+02  0.38599100160E+02  0.10000000000E+01 0. -1.
        -13    1    6    6    0    0  0.71163137757E+01 -0.17916977682E+01 -0.18082330303E+01  0.75586264849E+01  0.10500000000E+00 0. -1.
         13    1    6    6    0    0  0.15340928869E+02 -0.40213052578E+01 -0.39425684122E+01  0.16342272339E+02  0.10500000000E+00 0.  1.
</event>
<event>
11    0  0.3515428E-009  0.9118800E+02  0.7816531E-02  0.1126479E+00
         25   -1    0    0    0    0  0.00000000000E+00  0.00000000000E+00  0.99999998245E-14  0.12500000000E+03  0.12500000000E+03 0.  0.
    3000001    1    3    3    0    0  0.20695550198E+02  0.33484999702E+02  0.24939234998E+00  0.39377826242E+02  0.10000000000E+01 0.  1.
    1000022    2    1    0    0    0  0.38440666041E+02  0.48219568535E+02  0.18543112618E+01  0.62500000014E+02  0.99999968085E+01 0.  0.
    3000022    2    3    3    0    0  0.17745115843E+02  0.14734568833E+02  0.16049189118E+01  0.23122173772E+02  0.25000050482E+00 0.  0.
    1000022    2    1    0    0    0 -0.38440666041E+02 -0.48219568535E+02 -0.18543112618E+01  0.62499999986E+02  0.99999966300E+01 0.  0.
    3000022    2    5    5    0    0 -0.12919101512E+02 -0.10407320038E+02  0.19787152660E+01  0.16709078563E+02  0.24999613240E+00 0.  0.
        -13    1    4    4    0    0  0.75531344664E+01  0.62726560721E+01  0.74856573492E+00  0.98472041781E+01  0.10500000000E+00 0.  1.
         13    1    4    4    0    0  0.10191981376E+02  0.84619127609E+01  0.85635317686E+00  0.13274969594E+02  0.10500000000E+00 0. -1.
    3000001    1    5    5    0    0 -0.25521564529E+02 -0.37812248497E+02 -0.38330265277E+01  0.45790921423E+02  0.10000000000E+01 0.  1.
        -13    1    6    6    0    0 -0.47834964894E+01 -0.38882657677E+01  0.78893167801E+00  0.62156164245E+01  0.10500000000E+00 0.  1.
         13    1    6    6    0    0 -0.81356050223E+01 -0.65190542703E+01  0.11897835880E+01  0.10493462138E+02  0.10500000000E+00 0. -1.
</event>
<event>
11    0  0.3515428E-009  0.9118800E+02  0.7816531E-02  0.1126479E+00
         25   -1    0    0    0    0  0.00000000000E+00  0.00000000000E+00  0.99999998245E-14  0.12500000000E+03  0.12500000000E+03 0.  0.
    3000001    1    3    3    0    0  0.42990183216E+02  0.29614823224E+02  0.22736993153E+02  0.56948788092E+02  0.10000000000E+01 0.  1.
    1000022    2    1    0    0    0  0.44632945811E+02  0.34203573516E+02  0.25382393778E+02  0.62499999099E+02  0.99999840203E+01 0.  0.
    3000022    2    3    3    0    0  0.16427625951E+01  0.45887502922E+01  0.26454006252E+01  0.55512110067E+01  0.25000197110E+00 0.  0.
    1000022    2    1    0    0    0 -0.44632945811E+02 -0.34203573516E+02 -0.25382393778E+02  0.62500000901E+02  0.99999952857E+01 0.  0.
    3000022    2    5    5    0    0 -0.26593848971E+02 -0.24641162517E+02 -0.12559216501E+02  0.38369468491E+02  0.24999975886E+00 0.  0.
        -13    1    4    4    0    0  0.56737108676E+00  0.16889106275E+01  0.10216277768E+01  0.20564720694E+01  0.10500000000E+00 0.  1.
         13    1    4    4    0    0  0.10753915083E+01  0.28998396647E+01  0.16237728483E+01  0.34947389373E+01  0.10500000000E+00 0. -1.
    3000001    1    5    5    0    0 -0.18039096840E+02 -0.95624109990E+01 -0.12823177278E+02  0.24130532410E+02  0.10000000000E+01 0. -1.
        -13    1    6    6    0    0 -0.91280117922E+01 -0.83838417447E+01 -0.42831314565E+01  0.13113567087E+02  0.10500000000E+00 0. -1.
         13    1    6    6    0    0 -0.17465837179E+02 -0.16257320773E+02 -0.82760850441E+01  0.25255901404E+02  0.10500000000E+00 0.  1.
</event>
<event>
11    0  0.3515428E-009  0.9118800E+02  0.7816531E-02  0.1126479E+00
         25   -1    0    0    0    0  0.00000000000E+00  0.00000000000E+00  0.99999998245E-14  0.12500000000E+03  0.12500000000E+03 0.  0.
    3000001    1    3    3    0    0 -0.36744768842E+02  0.27664973516E+02 -0.15862832915E+02  0.48663726378E+02  0.10000000000E+01 0.  1.
    1000022    2    1    0    0    0 -0.49511447953E+02  0.30779679556E+02 -0.20186079068E+02  0.62499999647E+02  0.10000000788E+02 0.  0.
    3000022    2    3    3    0    0 -0.12766679111E+02  0.31147060399E+01 -0.43232461528E+01  0.13836273269E+02  0.25002287214E+00 0.  0.
    1000022    2    1    0    0    0  0.49511447953E+02 -0.30779679556E+02  0.20186079068E+02  0.62500000353E+02  0.10000005202E+02 0.  0.
    3000022    2    5    5    0    0  0.19741626556E+02 -0.17581531834E+02  0.11137930760E+02  0.28687245998E+02  0.25000124062E+00 0.  0.
        -13    1    4    4    0    0 -0.35417087897E+01  0.83329713697E+00 -0.11715658143E+01  0.38238301122E+01  0.10500000000E+00 0.  1.
         13    1    4    4    0    0 -0.92249703211E+01  0.22814089029E+01 -0.31516803384E+01  0.10012443157E+02  0.10500000000E+00 0. -1.
    3000001    1    5    5    0    0  0.29769821397E+02 -0.13198147722E+02  0.90481483081E+01  0.33812754356E+02  0.10000000000E+01 0.  1.
        -13    1    6    6    0    0  0.54994259690E+01 -0.49504772672E+01  0.31130362902E+01  0.80282582859E+01  0.10500000000E+00 0. -1.
         13    1    6    6    0    0  0.14242200587E+02 -0.12631054567E+02  0.80248944697E+01  0.20658987712E+02  0.10500000000E+00 0.  1.
</event>
<event>
11    0  0.3515428E-009  0.9118800E+02  0.7816531E-02  0.1126479E+00
         25   -1    0    0    0    0  0.00000000000E+00  0.00000000000E+00  0.99999998245E-14  0.12500000000E+03  0.12500000000E+03 0.  0.
    3000001    1    3    3    0    0  0.28408257939E+02 -0.64671004470E+01 -0.25883381628E+01  0.29266909672E+02  0.10000000000E+01 0. -1.
    1000022    2    1    0    0    0  0.61314414361E+02 -0.65246525804E+01  0.20546450514E+01  0.62499999164E+02  0.99999914767E+01 0.  0.
    3000022    2    3    3    0    0  0.32906156422E+02 -0.57552133390E-01  0.46429832142E+01  0.33233089492E+02  0.25000269136E+00 0.  0.
    1000022    2    1    0    0    0 -0.61314414361E+02  0.65246525804E+01 -0.20546450514E+01  0.62500000836E+02  0.10000001923E+02 0.  0.
    3000022    2    5    5    0    0 -0.91191870829E+01  0.42086771107E+01 -0.20002003657E+01  0.10243819793E+02  0.25001273459E+00 0.  0.
        -13    1    4    4    0    0  0.12622514701E+02  0.25030524856E-01  0.17414689685E+01  0.12742536760E+02  0.10500000000E+00 0. -1.
         13    1    4    4    0    0  0.20283641721E+02 -0.82582658246E-01  0.29015142456E+01  0.20490552733E+02  0.10500000000E+00 0.  1.
    3000001    1    5    5    0    0 -0.52195227278E+02  0.23159754697E+01 -0.54444685705E-01  0.52256181043E+02  0.10000000000E+01 0.  1.
        -13    1    6    6    0    0 -0.52333101908E+01  0.23723323189E+01 -0.10906630425E+01  0.58494501500E+01  0.10500000000E+00 0. -1.
         13    1    6    6    0    0 -0.38858768920E+01  0.18363447918E+01 -0.90953732317E+00  0.43943696427E+01  0.10500000000E+00 0.  1.
</event>
<event>
11    0  0.3515428E-009  0.9118800E+02  0.7816531E-02  0.1126479E+00
         25   -1    0    0    0    0  0.00000000000E+00  0.00000000000E+00  0.99999998245E-14  0.12500000000E+03  0.12500000000E+03 0.  0.
    3000001    1    3    3    0    0  0.30689574675E+02 -0.54318974482E+01 -0.45455401416E+02  0.55123035307E+02  0.10000000000E+01 0.  1.
    1000022    2    1    0    0    0  0.36075961739E+02 -0.86984577514E+01 -0.49286013663E+02  0.62500004242E+02  0.10000060241E+02 0.  0.
    3000022    2    3    3    0    0  0.53863870644E+01 -0.32665603032E+01 -0.38306122470E+01  0.73769689348E+01  0.24999731296E+00 0.  0.
    1000022    2    1    0    0    0 -0.36075961739E+02  0.86984577514E+01  0.49286013663E+02  0.62499995758E+02  0.10000007214E+02 0.  0.
    3000022    2    5    5    0    0 -0.34445850786E+02  0.60127748304E+01  0.43202110943E+02  0.55580167236E+02  0.25000490798E+00 0.  0.
        -13    1    4    4    0    0  0.35455572685E+01 -0.21711405029E+01 -0.24665200155E+01  0.48352428496E+01  0.10500000000E+00 0.  1.
         13    1    4    4    0    0  0.18408297959E+01 -0.10954198003E+01 -0.13640922315E+01  0.25417260852E+01  0.10500000000E+00 0. -1.
    3000001    1    5    5    0    0 -0.16301109530E+01  0.26856829209E+01  0.60839027197E+01  0.69198285220E+01  0.10000000000E+01 0. -1.
        -13    1    6    6    0    0 -0.20861385003E+02  0.37020518052E+01  0.26206451987E+02  0.33700025557E+02  0.10500000000E+00 0. -1.
         13    1    6    6    0    0 -0.13584465784E+02  0.23107230253E+01  0.16995658956E+02  0.21880141678E+02  0.10500000000E+00 0.  1.
</event>
<event>
11    0  0.3515428E-009  0.9118800E+02  0.7816531E-02  0.1126479E+00
         25   -1    0    0    0    0  0.00000000000E+00  0.00000000000E+00  0.99999998245E-14  0.12500000000E+03  0.12500000000E+03 0.  0.
    3000001    1    3    3    0    0  0.21476955247E+01 -0.23727707459E+00 -0.28350271220E+01  0.37021987061E+01  0.10000000000E+01 0. -1.
    1000022    2    1    0    0    0  0.52750301500E+02  0.19357587878E+02 -0.25474270595E+02  0.62499990345E+02  0.99999906997E+01 0.  0.
    3000022    2    3    3    0    0  0.50602605975E+02  0.19594864953E+02 -0.22639243473E+02  0.58797791639E+02  0.24998518377E+00 0.  0.
    1000022    2    1    0    0    0 -0.52750301500E+02 -0.19357587878E+02  0.25474270595E+02  0.62500009655E+02  0.10000111386E+02 0.  0.
    3000022    2    5    5    0    0 -0.48313096981E+02 -0.15680427737E+02  0.20334595000E+02  0.54713703992E+02  0.24999365643E+00 0.  0.
        -13    1    4    4    0    0  0.18814229876E+02  0.72214250247E+01 -0.84068999890E+01  0.21836007365E+02  0.10500000000E+00 0.  1.
         13    1    4    4    0    0  0.31788376099E+02  0.12373439928E+02 -0.14232343485E+02  0.36961784274E+02  0.10500000000E+00 0. -1.
    3000001    1    5    5    0    0 -0.44372045188E+01 -0.36771601412E+01  0.51396755958E+01  0.77863056629E+01  0.10000000000E+01 0. -1.
        -13    1    6    6    0    0 -0.28548115656E+02 -0.93282546547E+01  0.12047932026E+02  0.32360082409E+02  0.10500000000E+00 0.  1.
         13    1    6    6    0    0 -0.19764981325E+02 -0.63521730826E+01  0.82866629731E+01  0.22353621583E+02  0.10500000000E+00 0. -1.
</event>
<event>
11    0  0.3515428E-009  0.9118800E+02  0.7816531E-02  0.1126479E+00
         25   -1    0    0    0    0  0.00000000000E+00  0.00000000000E+00  0.99999998245E-14  0.12500000000E+03  0.12500000000E+03 0.  0.
    3000001    1    3    3    0    0  0.16854334883E+02 -0.41054086787E+02 -0.42509599802E+02  0.61461961583E+02  0.10000000000E+01 0.  1.
    1000022    2    1    0    0    0  0.17715805112E+02 -0.40676117268E+02 -0.42870195952E+02  0.62500000117E+02  0.10000002347E+02 0.  0.
    3000022    2    3    3    0    0  0.86147022950E+00  0.37796951957E+00 -0.36059614988E+00  0.10380385343E+01  0.25000500272E+00 0.  0.
    1000022    2    1    0    0    0 -0.17715805112E+02  0.40676117268E+02  0.42870195952E+02  0.62499999883E+02  0.10000000883E+02 0.  0.
    3000022    2    5    5    0    0 -0.39773119837E+00 -0.29688508308E+00 -0.18441576612E+00  0.58552503322E+00  0.24999906204E+00 0.  0.
        -13    1    4    4    0    0  0.19805646205E+00  0.93375517955E-01 -0.11141079041E+00  0.26717543624E+00  0.10500000000E+00 0.  1.
         13    1    4    4    0    0  0.66341376745E+00  0.28459400161E+00 -0.24918535947E+00  0.77086309808E+00  0.10500000000E+00 0. -1.
    3000001    1    5    5    0    0 -0.17318073914E+02  0.40973002351E+02  0.43054611718E+02  0.61914474850E+02  0.10000000000E+01 0.  1.
        -13    1    6    6    0    0 -0.22575429408E+00 -0.24082418828E+00 -0.12227845525E+00  0.36733950451E+00  0.10500000000E+00 0.  1.
         13    1    6    6    0    0 -0.17197690429E+00 -0.56060894798E-01 -0.62137310873E-01  0.21818552871E+00  0.10500000000E+00 0. -1.
</event>
<event>
11    0  0.3515428E-009  0.9118800E+02  0.7816531E-02  0.1126479E+00
         25   -1    0    0    0    0  0.00000000000E+00  0.00000000000E+00  0.99999998245E-14  0.12500000000E+03  0.12500000000E+03 0.  0.
    3000001    1    3    3    0    0 -0.25861434801E+02  0.27190986510E+02  0.26013317312E+02  0.45671175099E+02  0.10000000000E+01 0. -1.
    1000022    2    1    0    0    0 -0.31906463155E+02  0.34687524330E+02  0.39812101391E+02  0.62500001249E+02  0.10000000184E+02 0.  0.
    3000022    2    3    3    0    0 -0.60450283539E+01  0.74965378207E+01  0.13798784079E+02  0.16828826150E+02  0.25000083696E+00 0.  0.
    1000022    2    1    0    0    0  0.31906463155E+02 -0.34687524330E+02 -0.39812101391E+02  0.62499998751E+02  0.99999845747E+01 0.  0.
    3000022    2    5    5    0    0  0.21306511031E+02 -0.22667311089E+02 -0.19943115295E+02  0.36953548511E+02  0.24999112225E+00 0.  0.
        -13    1    4    4    0    0 -0.32846781772E+01  0.39994661858E+01  0.74998945558E+01  0.91128636469E+01  0.10500000000E+00 0. -1.
         13    1    4    4    0    0 -0.27603501767E+01  0.34970716349E+01  0.62988895233E+01  0.77159625028E+01  0.10500000000E+00 0.  1.
    3000001    1    5    5    0    0  0.10599952124E+02 -0.12020213241E+02 -0.19868986096E+02  0.25546450240E+02  0.10000000000E+01 0. -1.
        -13    1    6    6    0    0  0.14995815244E+02 -0.15978714676E+02 -0.13998873426E+02  0.26003332088E+02  0.10500000000E+00 0.  1.
         13    1    6    6    0    0  0.63106957873E+01 -0.66885964135E+01 -0.59442418695E+01  0.10950216423E+02  0.10500000000E+00 0. -1.
</event>
<event>
11    0  0.3515428E-009  0.9118800E+02  0.7816531E-02  0.1126479E+00
         25   -1    0    0    0    0  0.00000000000E+00  0.00000000000E+00  0.99999998245E-14  0.12500000000E+03  0.12500000000E+03 0.  0.
    3000001    1    3    3    0    0  0.16582201904E+02 -0.24781747951E+02 -0.39028566987E+02  0.49125690759E+02  0.10000000000E+01 0. -1.
    1000022    2    1    0    0    0  0.18874988266E+02 -0.35326062403E+02 -0.46926049413E+02  0.62500000655E+02  0.10000005071E+02 0.  0.
    3000022    2    3    3    0    0  0.22927863612E+01 -0.10544314453E+02 -0.78974824257E+01  0.13374309896E+02  0.24999990581E+00 0.  0.
    1000022    2    1    0    0    0 -0.18874988266E+02  0.35326062403E+02  0.46926049413E+02  0.62499999345E+02  0.99999968807E+01 0.  0.
    3000022    2    5    5    0    0 -0.37350075749E+01  0.11939801073E+01  0.44223382491E+01  0.59156948080E+01  0.24999878300E+00 0.  0.
        -13    1    4    4    0    0  0.77495527124E+00 -0.35779033129E+01 -0.26123775659E+01  0.44986097114E+01  0.10500000000E+00 0. -1.
         13    1    4    4    0    0  0.15178310900E+01 -0.69664111398E+01 -0.52851048599E+01  0.88757001845E+01  0.10500000000E+00 0.  1.
    3000001    1    5    5    0    0 -0.15139980691E+02  0.34132082296E+02  0.42503711164E+02  0.56584304537E+02  0.10000000000E+01 0. -1.
        -13    1    6    6    0    0 -0.21106754813E+01  0.64103608989E+00  0.25732450894E+01  0.33909428697E+01  0.10500000000E+00 0.  1.
         13    1    6    6    0    0 -0.16243320936E+01  0.55294401737E+00  0.18490931597E+01  0.25247519383E+01  0.10500000000E+00 0. -1.
</event>
<event>
11    0  0.3515428E-009  0.9118800E+02  0.7816531E-02  0.1126479E+00
         25   -1    0    0    0    0  0.00000000000E+00  0.00000000000E+00  0.99999998245E-14  0.12500000000E+03  0.12500000000E+03 0.  0.
    3000001    1    3    3    0    0 -0.17225472617E+02 -0.13269797545E+02  0.11415652940E+02  0.24578884552E+02  0.10000000000E+01 0.  1.
    1000022    2    1    0    0    0 -0.34873995575E+02 -0.42126066598E+02  0.28556065999E+02  0.62499998542E+02  0.99999928986E+01 0.  0.
    3000022    2    3    3    0    0 -0.17648522958E+02 -0.28856269053E+02  0.17140413059E+02  0.37921113989E+02  0.25000023943E+00 0.  0.
    1000022    2    1    0    0    0  0.34873995575E+02  0.42126066598E+02 -0.28556065999E+02  0.62500001458E+02  0.10000011128E+02 0.  0.
    3000022    2    5    5    0    0 -0.45825423778E+00  0.21101021768E+01 -0.15293130409E+01  0.26577867529E+01  0.25000780670E+00 0.  0.
        -13    1    4    4    0    0 -0.12592856391E+02 -0.20546784090E+02  0.12251397190E+02  0.27034387854E+02  0.10500000000E+00 0.  1.
         13    1    4    4    0    0 -0.50556665669E+01 -0.83094849632E+01  0.48890158683E+01  0.10886726135E+02  0.10500000000E+00 0. -1.
    3000001    1    5    5    0    0  0.35332249813E+02  0.40015964421E+02 -0.27026752958E+02  0.59842214705E+02  0.10000000000E+01 0. -1.
        -13    1    6    6    0    0 -0.14745077611E+00  0.99239627874E+00 -0.72164156116E+00  0.12403159469E+01  0.10500000000E+00 0. -1.
         13    1    6    6    0    0 -0.31080346167E+00  0.11177058981E+01 -0.80767147979E+00  0.14174708059E+01  0.10500000000E+00 0.  1.
</event>
<event>
11    0  0.3515428E-009  0.9118800E+02  0.7816531E-02  0.1126479E+00
         25   -1    0    0    0    0  0.00000000000E+00  0.00000000000E+00  0.99999998245E-14  0.12500000000E+03  0.12500000000E+03 0.  0.
    3000001    1    3    3    0    0  0.23564270807E+02 -0.90352110297E+01  0.44497058282E+02  0.51165399371E+02  0.10000000000E+01 0.  1.
    1000022    2    1    0    0    0  0.24880188065E+02 -0.88893072092E+01  0.55751291294E+02  0.62500000611E+02  0.10000002734E+02 0.  0.
    3000022    2    3    3    0    0  0.13159172572E+01  0.14590382051E+00  0.11254233012E+02  0.11334601240E+02  0.24999687933E+00 0.  0.
    1000022    2    1    0    0    0 -0.24880188065E+02  0.88893072092E+01 -0.55751291294E+02  0.62499999389E+02  0.99999950924E+01 0.  0.
    3000022    2    5    5    0    0 -0.21412689334E+01  0.42773021392E+01 -0.12894958234E+02  0.13755827251E+02  0.24997854542E+00 0.  0.
        -13    1    4    4    0    0  0.84736618895E+00  0.12949618943E+00  0.68425508181E+01  0.68968344492E+01  0.10500000000E+00 0. -1.
         13    1    4    4    0    0  0.46855106829E+00  0.16407631081E-01  0.44116821935E+01  0.44377667909E+01  0.10500000000E+00 0.  1.
    3000001    1    5    5    0    0 -0.22738919131E+02  0.46120050700E+01 -0.42856333060E+02  0.48744172137E+02  0.10000000000E+01 0.  1.
        -13    1    6    6    0    0 -0.50193564272E+00  0.10458227485E+01 -0.31084487009E+01  0.33195124547E+01  0.10500000000E+00 0. -1.
         13    1    6    6    0    0 -0.16393332907E+01  0.32314793907E+01 -0.97865095332E+01  0.10436314797E+02  0.10500000000E+00 0.  1.
</event>
<event>
11    0  0.3515428E-009  0.9118800E+02  0.7816531E-02  0.1126479E+00
         25   -1    0    0    0    0  0.00000000000E+00  0.00000000000E+00  0.99999998245E-14  0.12500000000E+03  0.12500000000E+03 0.  0.
    3000001    1    3    3    0    0 -0.38407013276E+01 -0.16424064581E+02  0.75420052629E+00  0.16913595197E+02  0.10000000000E+01 0.  1.
    1000022    2    1    0    0    0 -0.28785974713E+02 -0.54320207753E+02  0.51896857376E+01  0.62500000655E+02  0.99999966653E+01 0.  0.
    3000022    2    3    3    0    0 -0.24945273386E+02 -0.37896143172E+02  0.44354852113E+01  0.45586405458E+02  0.25000387700E+00 0.  0.
    1000022    2    1    0    0    0  0.28785974713E+02  0.54320207753E+02 -0.51896857376E+01  0.62499999345E+02  0.99999884758E+01 0.  0.
    3000022    2    5    5    0    0  0.24766387534E+02  0.49483854566E+02 -0.72459732279E+01  0.55808533774E+02  0.24999958411E+00 0.  0.
        -13    1    4    4    0    0 -0.17169972646E+02 -0.26121217578E+02  0.31003688719E+01  0.31412565647E+02  0.10500000000E+00 0. -1.
         13    1    4    4    0    0 -0.77753007403E+01 -0.11774925594E+02  0.13351163394E+01  0.14173839811E+02  0.10500000000E+00 0.  1.
    3000001    1    5    5    0    0  0.40195871792E+01  0.48363531868E+01  0.20562874903E+01  0.66914655705E+01  0.10000000000E+01 0. -1.
        -13    1    6    6    0    0  0.10345099235E+02  0.20618228843E+02 -0.30814876928E+01  0.23273139672E+02  0.10500000000E+00 0.  1.
         13    1    6    6    0    0  0.14421288300E+02  0.28865625723E+02 -0.41644855351E+01  0.32535394102E+02  0.10500000000E+00 0. -1.
</event>
<event>
11    0  0.3515428E-009  0.9118800E+02  0.7816531E-02  0.1126479E+00
         25   -1    0    0    0    0  0.00000000000E+00  0.00000000000E+00  0.99999998245E-14  0.12500000000E+03  0.12500000000E+03 0.  0.
    3000001    1    3    3    0    0  0.18279876324E+02 -0.44741742343E+02  0.13873514664E+02  0.50293655618E+02  0.10000000000E+01 0. -1.
    1000022    2    1    0    0    0  0.18651289510E+02 -0.56900086405E+02  0.14857982039E+02  0.62500003750E+02  0.10000020258E+02 0.  0.
    3000022    2    3    3    0    0  0.37141318590E+00 -0.12158344062E+02  0.98446737517E+00  0.12206348132E+02  0.24996121815E+00 0.  0.
    1000022    2    1    0    0    0 -0.18651289510E+02  0.56900086405E+02 -0.14857982039E+02  0.62499996250E+02  0.99999733843E+01 0.  0.
    3000022    2    5    5    0    0 -0.16191487751E+02  0.54515770397E+02 -0.12514565394E+02  0.58230665027E+02  0.25000979870E+00 0.  0.
        -13    1    4    4    0    0  0.74516920687E-01 -0.29781214078E+01  0.25739340554E+00  0.29919953636E+01  0.10500000000E+00 0.  1.
         13    1    4    4    0    0  0.29689626521E+00 -0.91802226546E+01  0.72707396964E+00  0.92143527682E+01  0.10500000000E+00 0. -1.
    3000001    1    5    5    0    0 -0.24598017584E+01  0.23843160081E+01 -0.23434166459E+01  0.42693312232E+01  0.10000000000E+01 0.  1.
        -13    1    6    6    0    0 -0.94623835691E+01  0.32071504963E+02 -0.73804330732E+01  0.34243246790E+02  0.10500000000E+00 0.  1.
         13    1    6    6    0    0 -0.67291041824E+01  0.22444265434E+02 -0.51341323204E+01  0.23987418237E+02  0.10500000000E+00 0. -1.
</event>
<event>
11    0  0.3515428E-009  0.9118800E+02  0.7816531E-02  0.1126479E+00
         25   -1    0    0    0    0  0.00000000000E+00  0.00000000000E+00  0.99999998245E-14  0.12500000000E+03  0.12500000000E+03 0.  0.
    3000001    1    3    3    0    0  0.16825462298E+00  0.12206961242E+01  0.23218350684E+01  0.28123525260E+01  0.10000000000E+01 0.  1.
    1000022    2    1    0    0    0 -0.36026878731E+02  0.22719306880E+02  0.44633474774E+02  0.62500000343E+02  0.10000003814E+02 0.  0.
    3000022    2    3    3    0    0 -0.36195133354E+02  0.21498610756E+02  0.42311639706E+02  0.59687647817E+02  0.25000884807E+00 0.  0.
    1000022    2    1    0    0    0  0.36026878731E+02 -0.22719306880E+02 -0.44633474774E+02  0.62499999657E+02  0.99999995225E+01 0.  0.
    3000022    2    5    5    0    0  0.79781238887E+01 -0.70157663086E+00 -0.69060926790E+01  0.10578246477E+02  0.25002375006E+00 0.  0.
        -13    1    4    4    0    0 -0.26552148285E+02  0.15809146254E+02  0.31072727103E+02  0.43823179694E+02  0.10500000000E+00 0.  1.
         13    1    4    4    0    0 -0.96429850685E+01  0.56894645017E+01  0.11238912603E+02  0.15864468124E+02  0.10500000000E+00 0. -1.
    3000001    1    5    5    0    0  0.28048754842E+02 -0.22017730250E+02 -0.37727382095E+02  0.51921753180E+02  0.10000000000E+01 0. -1.
        -13    1    6    6    0    0  0.57923469005E+01 -0.51336028650E+00 -0.50621169249E+01  0.77104392976E+01  0.10500000000E+00 0.  1.
         13    1    6    6    0    0  0.21857769882E+01 -0.18821634437E+00 -0.18439757541E+01  0.28678071791E+01  0.10500000000E+00 0. -1.
</event>
<event>
11    0  0.3515428E-009  0.9118800E+02  0.7816531E-02  0.1126479E+00
         25   -1    0    0    0    0  0.00000000000E+00  0.00000000000E+00  0.99999998245E-14  0.12500000000E+03  0.12500000000E+03 0.  0.
    3000001    1    3    3    0    0 -0.19202828129E+02  0.12938561052E+02  0.20530250694E+02  0.30962011623E+02  0.10000000000E+01 0. -1.
    1000022    2    1    0    0    0 -0.45322587472E+02  0.24175862618E+02  0.34170752245E+02  0.62499997446E+02  0.10000005161E+02 0.  0.
    3000022    2    3    3    0    0 -0.26119759343E+02  0.11237301567E+02  0.13640501552E+02  0.31537985822E+02  0.24998498666E+00 0.  0.
    1000022    2    1    0    0    0  0.45322587472E+02 -0.24175862618E+02 -0.34170752245E+02  0.62500002554E+02  0.10000037089E+02 0.  0.
    3000022    2    5    5    0    0  0.26751058484E+02 -0.10676511672E+02 -0.14489782810E+02  0.32243189720E+02  0.24989197135E+00 0.  0.
        -13    1    4    4    0    0 -0.15139959383E+02  0.64974658941E+01  0.78333751569E+01  0.18243032219E+02  0.10500000000E+00 0.  1.
         13    1    4    4    0    0 -0.10979799960E+02  0.47398356725E+01  0.58071263948E+01  0.13294953604E+02  0.10500000000E+00 0. -1.
    3000001    1    5    5    0    0  0.18571528988E+02 -0.13499350947E+02 -0.19680969436E+02  0.30256812834E+02  0.10000000000E+01 0.  1.
        -13    1    6    6    0    0  0.15929441640E+02 -0.62933902901E+01 -0.85916951257E+01  0.19161996828E+02  0.10500000000E+00 0. -1.
         13    1    6    6    0    0  0.10821616844E+02 -0.43831213815E+01 -0.58980876842E+01  0.13081192893E+02  0.10500000000E+00 0.  1.
</event>
<event>
11    0  0.3515428E-009  0.9118800E+02  0.7816531E-02  0.1126479E+00
         25   -1    0    0    0    0  0.00000000000E+00  0.00000000000E+00  0.99999998245E-14  0.12500000000E+03  0.12500000000E+03 0.  0.
    3000001    1    3    3    0    0 -0.46050425991E+02  0.46180541011E+01 -0.66549511266E+00  0.46296987390E+02  0.10000000000E+01 0. -1.
    1000022    2    1    0    0    0 -0.60895059402E+02  0.74771262761E+01 -0.64910999797E+01  0.62499999964E+02  0.99999969845E+01 0.  0.
    3000022    2    3    3    0    0 -0.14844633411E+02  0.28590721750E+01 -0.58256048670E+01  0.16203012574E+02  0.25001923184E+00 0.  0.
    1000022    2    1    0    0    0  0.60895059402E+02 -0.74771262761E+01  0.64910999797E+01  0.62500000036E+02  0.99999974336E+01 0.  0.
    3000022    2    5    5    0    0  0.29394249351E+02 -0.22138937300E+00  0.67357284589E+01  0.30157974821E+02  0.24999864840E+00 0.  0.
        -13    1    4    4    0    0 -0.95700078444E+01  0.17846936945E+01 -0.37543867514E+01  0.10434396322E+02  0.10500000000E+00 0.  1.
         13    1    4    4    0    0 -0.52746255663E+01  0.10743784806E+01 -0.20712181156E+01  0.57686162524E+01  0.10500000000E+00 0. -1.
    3000001    1    5    5    0    0  0.31500810051E+02 -0.72557369031E+01 -0.24462847922E+00  0.32342025214E+02  0.10000000000E+01 0.  1.
        -13    1    6    6    0    0  0.90029050056E+01 -0.80369741722E-01  0.20161645726E+01  0.92268468298E+01  0.10500000000E+00 0.  1.
         13    1    6    6    0    0  0.20391344345E+02 -0.14101963127E+00  0.47195638863E+01  0.20931127992E+02  0.10500000000E+00 0. -1.
</event>
<event>
11    0  0.3515428E-009  0.9118800E+02  0.7816531E-02  0.1126479E+00
         25   -1    0    0    0    0  0.00000000000E+00  0.00000000000E+00  0.99999998245E-14  0.12500000000E+03  0.12500000000E+03 0.  0.
    3000001    1    3    3    0    0 -0.89086144184E+01  0.13679620456E+01 -0.69196071280E+01  0.11406826632E+02  0.10000000000E+01 0. -1.
    1000022    2    1    0    0    0 -0.33238483492E+02  0.11999659911E+02 -0.50571354138E+02  0.62500006598E+02  0.10000017126E+02 0.  0.
    3000022    2    3    3    0    0 -0.24329869073E+02  0.10631697865E+02 -0.43651747010E+02  0.51093179965E+02  0.24998660666E+00 0.  0.
    1000022    2    1    0    0    0  0.33238483492E+02 -0.11999659911E+02  0.50571354138E+02  0.62499993402E+02  0.99999346562E+01 0.  0.
    3000022    2    5    5    0    0  0.31038559880E+02 -0.13512623497E+02  0.46045647782E+02  0.57151092513E+02  0.25000493794E+00 0.  0.
        -13    1    4    4    0    0 -0.13808103437E+02  0.60523406670E+01 -0.24663797625E+02  0.28906893406E+02  0.10500000000E+00 0.  1.
         13    1    4    4    0    0 -0.10521765636E+02  0.45793571985E+01 -0.18987949385E+02  0.22186286559E+02  0.10500000000E+00 0. -1.
    3000001    1    5    5    0    0  0.21999236118E+01  0.15129635864E+01  0.45257063557E+01  0.53489008898E+01  0.10000000000E+01 0.  1.
        -13    1    6    6    0    0  0.23193276073E+02 -0.10127168151E+02  0.34416669199E+02  0.42720085832E+02  0.10500000000E+00 0. -1.
         13    1    6    6    0    0  0.78452838075E+01 -0.33854553469E+01  0.11628978583E+02  0.14431006680E+02  0.10500000000E+00 0.  1.
</event>
<event>
11    0  0.3515428E-009  0.9118800E+02  0.7816531E-02  0.1126479E+00
         25   -1    0    0    0    0  0.00000000000E+00  0.00000000000E+00  0.99999998245E-14  0.12500000000E+03  0.12500000000E+03 0.  0.
    3000001    1    3    3    0    0 -0.32712575028E+01  0.12204753805E+01  0.94938438924E+01  0.10164829446E+02  0.10000000000E+01 0. -1.
    1000022    2    1    0    0    0 -0.19441759819E+02 -0.14398792006E+02  0.56753351746E+02  0.62500001500E+02  0.10000000850E+02 0.  0.
    3000022    2    3    3    0    0 -0.16170502316E+02 -0.15619267386E+02  0.47259507854E+02  0.52335172054E+02  0.24998509587E+00 0.  0.
    1000022    2    1    0    0    0  0.19441759819E+02  0.14398792006E+02 -0.56753351746E+02  0.62499998500E+02  0.99999821031E+01 0.  0.
    3000022    2    5    5    0    0  0.18293374830E+02  0.15714901198E+02 -0.51282217879E+02  0.56670398405E+02  0.25000473480E+00 0.  0.
        -13    1    4    4    0    0 -0.55093850008E+01 -0.53938872403E+01  0.16164461141E+02  0.17909443644E+02  0.10500000000E+00 0. -1.
         13    1    4    4    0    0 -0.10661117315E+02 -0.10225380146E+02  0.31095046713E+02  0.34425728411E+02  0.10500000000E+00 0. -1.
    3000001    1    5    5    0    0  0.11483849887E+01 -0.13161091926E+01 -0.54711338667E+01  0.58296000957E+01  0.10000000000E+01 0.  1.
        -13    1    6    6    0    0  0.62682226501E+01  0.53899203151E+01 -0.17450369129E+02  0.19309797097E+02  0.10500000000E+00 0. -1.
         13    1    6    6    0    0  0.12025152180E+02  0.10324980883E+02 -0.33831848750E+02  0.37360601307E+02  0.10500000000E+00 0.  1.
</event>
<event>
11    0  0.3515428E-009  0.9118800E+02  0.7816531E-02  0.1126479E+00
         25   -1    0    0    0    0  0.00000000000E+00  0.00000000000E+00  0.99999998245E-14  0.12500000000E+03  0.12500000000E+03 0.  0.
    3000001    1    3    3    0    0 -0.86042708363E+01 -0.24943535138E+02  0.47879801896E+01  0.26835390367E+02  0.10000000000E+01 0. -1.
    1000022    2    1    0    0    0 -0.14823360280E+02 -0.56059891435E+02  0.21066715527E+02  0.62500000649E+02  0.10000007019E+02 0.  0.
    3000022    2    3    3    0    0 -0.62190894433E+01 -0.31116356296E+02  0.16278735338E+02  0.35664610283E+02  0.24999949475E+00 0.  0.
    1000022    2    1    0    0    0  0.14823360280E+02  0.56059891435E+02 -0.21066715527E+02  0.62499999351E+02  0.99999989020E+01 0.  0.
    3000022    2    5    5    0    0  0.70931894583E+01  0.41221959530E+02 -0.12380724086E+02  0.43622334997E+02  0.24999495391E+00 0.  0.
        -13    1    4    4    0    0 -0.24840817449E+01 -0.12227607245E+02  0.63468207058E+01  0.13999221376E+02  0.10500000000E+00 0.  1.
         13    1    4    4    0    0 -0.37350076985E+01 -0.18888749052E+02  0.99319146320E+01  0.21665388907E+02  0.10500000000E+00 0. -1.
    3000001    1    5    5    0    0  0.77301708214E+01  0.14837931905E+02 -0.86859914414E+01  0.18877664354E+02  0.10000000000E+01 0.  1.
        -13    1    6    6    0    0  0.24842934293E+01  0.14751047254E+02 -0.44511425281E+01  0.15607331730E+02  0.10500000000E+00 0. -1.
         13    1    6    6    0    0  0.46088960289E+01  0.26470912276E+02 -0.79295815580E+01  0.28015003267E+02  0.10500000000E+00 0.  1.
</event>
<event>
11    0  0.3515428E-009  0.9118800E+02  0.7816531E-02  0.1126479E+00
         25   -1    0    0    0    0  0.00000000000E+00  0.00000000000E+00  0.99999998245E-14  0.12500000000E+03  0.12500000000E+03 0.  0.
    3000001    1    3    3    0    0  0.14241746589E+01  0.23515128854E+01  0.67674004213E+00  0.30026427350E+01  0.10000000000E+01 0.  1.
    1000022    2    1    0    0    0  0.12887973293E+01  0.60706643487E+02 -0.10922166298E+02  0.62500010106E+02  0.99999992292E+01 0.  0.
    3000022    2    3    3    0    0 -0.13537732964E+00  0.58355130601E+02 -0.11598906340E+02  0.59497367371E+02  0.25000246561E+00 0.  0.
    1000022    2    1    0    0    0 -0.12887973293E+01 -0.60706643487E+02  0.10922166298E+02  0.62499989894E+02  0.99998729091E+01 0.  0.
    3000022    2    5    5    0    0 -0.31350461293E+01 -0.10665861856E+02 -0.49297535701E+00  0.11130797572E+02  0.25001305356E+00 0.  0.
        -13    1    4    4    0    0 -0.12726335615E+00  0.41410218865E+02 -0.82610921939E+01  0.42226521188E+02  0.10500000000E+00 0.  1.
         13    1    4    4    0    0 -0.81139734830E-02  0.16944911736E+02 -0.33378141464E+01  0.17270846182E+02  0.10500000000E+00 0. -1.
    3000001    1    5    5    0    0  0.18462488000E+01 -0.50040781631E+02  0.11415141655E+02  0.51369192323E+02  0.10000000000E+01 0.  1.
        -13    1    6    6    0    0 -0.75443287541E+00 -0.25114360997E+01 -0.11559466746E+00  0.26269502039E+01  0.10500000000E+00 0.  1.
         13    1    6    6    0    0 -0.23806132539E+01 -0.81544257560E+01 -0.37738068955E+00  0.85038473681E+01  0.10500000000E+00 0. -1.
</event>
<event>
11    0  0.3515428E-009  0.9118800E+02  0.7816531E-02  0.1126479E+00
         25   -1    0    0    0    0  0.00000000000E+00  0.00000000000E+00  0.99999998245E-14  0.12500000000E+03  0.12500000000E+03 0.  0.
    3000001    1    3    3    0    0 -0.18090943201E+02  0.75184760946E+01  0.79258582277E+01  0.21157243141E+02  0.10000000000E+01 0.  1.
    1000022    2    1    0    0    0 -0.55386473459E+02  0.87805988096E+01  0.25719439555E+02  0.62500000273E+02  0.10000005270E+02 0.  0.
    3000022    2    3    3    0    0 -0.37295530258E+02  0.12621227150E+01  0.17793581327E+02  0.41342757132E+02  0.24999966147E+00 0.  0.
    1000022    2    1    0    0    0  0.55386473459E+02 -0.87805988096E+01 -0.25719439555E+02  0.62499999727E+02  0.10000001859E+02 0.  0.
    3000022    2    5    5    0    0  0.11989424772E+02  0.19827518885E+00 -0.94931445790E+01  0.15296009835E+02  0.25000695287E+00 0.  0.
        -13    1    4    4    0    0 -0.11994225271E+02  0.41606978639E+00  0.57781926592E+01  0.13320401245E+02  0.10500000000E+00 0. -1.
         13    1    4    4    0    0 -0.25301304987E+02  0.84605292859E+00  0.12015388668E+02  0.28022355886E+02  0.10500000000E+00 0.  1.
    3000001    1    5    5    0    0  0.43397048688E+02 -0.89788739984E+01 -0.16226294976E+02  0.47203989892E+02  0.10000000000E+01 0. -1.
        -13    1    6    6    0    0  0.81566741803E+01  0.15326332983E+00 -0.63976518668E+01  0.10368018024E+02  0.10500000000E+00 0.  1.
         13    1    6    6    0    0  0.38327505914E+01  0.45011859021E-01 -0.30954927123E+01  0.49279918116E+01  0.10500000000E+00 0. -1.
</event>
<event>
11    0  0.3515428E-009  0.9118800E+02  0.7816531E-02  0.1126479E+00
         25   -1    0    0    0    0  0.00000000000E+00  0.00000000000E+00  0.99999998245E-14  0.12500000000E+03  0.12500000000E+03 0.  0.
    3000001    1    3    3    0    0 -0.16414132356E+01 -0.42418273337E+01  0.25219802447E+01  0.52960099031E+01  0.10000000000E+01 0. -1.
    1000022    2    1    0    0    0 -0.15889414890E+02 -0.29028919665E+02  0.52068207294E+02  0.62500001132E+02  0.10000012412E+02 0.  0.
    3000022    2    3    3    0    0 -0.14248001654E+02 -0.24787092331E+02  0.49546227050E+02  0.57203991229E+02  0.25000063640E+00 0.  0.
    1000022    2    1    0    0    0  0.15889414890E+02  0.29028919665E+02 -0.52068207294E+02  0.62499998868E+02  0.99999982610E+01 0.  0.
    3000022    2    5    5    0    0 -0.10394287686E+01  0.17732304105E+01 -0.13336369035E+01  0.24628855375E+01  0.24991903967E+00 0.  0.
        -13    1    4    4    0    0 -0.96146001096E+01 -0.16743888142E+02  0.33357474529E+02  0.38542579796E+02  0.10500000000E+00 0. -1.
         13    1    4    4    0    0 -0.46334015445E+01 -0.80432041891E+01  0.16188752521E+02  0.18661411433E+02  0.10500000000E+00 0.  1.
    3000001    1    5    5    0    0  0.16928843658E+02  0.27255689254E+02 -0.50734570391E+02  0.60037113330E+02  0.10000000000E+01 0. -1.
        -13    1    6    6    0    0 -0.65124872450E+00  0.11008854385E+01 -0.89933562073E+00  0.15671321605E+01  0.10500000000E+00 0.  1.
         13    1    6    6    0    0 -0.38818004410E+00  0.67234497199E+00 -0.43430128282E+00  0.89575337691E+00  0.10500000000E+00 0. -1.
</event>
<event>
11    0  0.3515428E-009  0.9118800E+02  0.7816531E-02  0.1126479E+00
         25   -1    0    0    0    0  0.00000000000E+00  0.00000000000E+00  0.99999998245E-14  0.12500000000E+03  0.12500000000E+03 0.  0.
    3000001    1    3    3    0    0  0.40268081039E+02 -0.10218841013E+02  0.31861307131E+01  0.41678465556E+02  0.10000000000E+01 0. -1.
    1000022    2    1    0    0    0  0.58737640097E+02 -0.18842143321E+02 -0.10550814185E+01  0.62500000920E+02  0.10000009458E+02 0.  0.
    3000022    2    3    3    0    0  0.18469559058E+02 -0.86233023076E+01 -0.42412121317E+01  0.20821535364E+02  0.25000016588E+00 0.  0.
    1000022    2    1    0    0    0 -0.58737640097E+02  0.18842143321E+02  0.10550814185E+01  0.62499999080E+02  0.99999979565E+01 0.  0.
    3000022    2    5    5    0    0 -0.32518032886E+02  0.74331787854E+01  0.45849206477E+01  0.33671332114E+02  0.24999868495E+00 0.  0.
        -13    1    4    4    0    0  0.13653913308E+02 -0.63508855067E+01 -0.31088699448E+01  0.15376579355E+02  0.10500000000E+00 0. -1.
         13    1    4    4    0    0  0.48156457500E+01 -0.22724168008E+01 -0.11323421869E+01  0.54449560085E+01  0.10500000000E+00 0.  1.
    3000001    1    5    5    0    0 -0.26219607210E+02  0.11408964535E+02 -0.35298392292E+01  0.28828666966E+02  0.10000000000E+01 0. -1.
        -13    1    6    6    0    0 -0.22288648652E+02  0.50574236008E+01  0.31752546332E+01  0.23074979073E+02  0.10500000000E+00 0. -1.
         13    1    6    6    0    0 -0.10229384234E+02  0.23757551846E+01  0.14096660146E+01  0.10596353041E+02  0.10500000000E+00 0.  1.
</event>
<event>
11    0  0.3515428E-009  0.9118800E+02  0.7816531E-02  0.1126479E+00
         25   -1    0    0    0    0  0.00000000000E+00  0.00000000000E+00  0.99999998245E-14  0.12500000000E+03  0.12500000000E+03 0.  0.
    3000001    1    3    3    0    0  0.13281024740E+01 -0.59755992047E+01  0.26613732951E+01  0.67494110745E+01  0.10000000000E+01 0.  1.
    1000022    2    1    0    0    0  0.37028990571E+02 -0.43760691883E+02  0.22805829519E+02  0.62500000814E+02  0.99999972443E+01 0.  0.
    3000022    2    3    3    0    0  0.35700888097E+02 -0.37785092678E+02  0.20144456224E+02  0.55750589739E+02  0.25000019622E+00 0.  0.
    1000022    2    1    0    0    0 -0.37028990571E+02  0.43760691883E+02 -0.22805829519E+02  0.62499999186E+02  0.99999870710E+01 0.  0.
    3000022    2    5    5    0    0 -0.17424843753E-01 -0.45539988032E+00 -0.20466891588E+00  0.55864604445E+00  0.25000672326E+00 0.  0.
        -13    1    4    4    0    0  0.17343099076E+02 -0.18442084699E+02  0.98452471862E+01  0.27163090597E+02  0.10500000000E+00 0. -1.
         13    1    4    4    0    0  0.18357789021E+02 -0.19343007980E+02  0.10299209038E+02  0.28587499143E+02  0.10500000000E+00 0.  1.
    3000001    1    5    5    0    0 -0.37011565727E+02  0.44216091763E+02 -0.22601160603E+02  0.61941353142E+02  0.10000000000E+01 0.  1.
        -13    1    6    6    0    0 -0.33429718016E-01 -0.21409538614E+00 -0.30612314086E-01  0.24272720117E+00  0.10500000000E+00 0.  1.
         13    1    6    6    0    0  0.16004874264E-01 -0.24130449417E+00 -0.17405660179E+00  0.31591884327E+00  0.10500000000E+00 0. -1.
</event>
<event>
11    0  0.3515428E-009  0.9118800E+02  0.7816531E-02  0.1126479E+00
         25   -1    0    0    0    0  0.00000000000E+00  0.00000000000E+00  0.99999998245E-14  0.12500000000E+03  0.12500000000E+03 0.  0.
    3000001    1    3    3    0    0 -0.28339087410E+01  0.35694262673E+02  0.20753956862E+02  0.41398528379E+02  0.10000000000E+01 0.  1.
    1000022    2    1    0    0    0 -0.72245069306E+01  0.49529145441E+02  0.36068272193E+02  0.62499999636E+02  0.99999973486E+01 0.  0.
    3000022    2    3    3    0    0 -0.43905981896E+01  0.13834882768E+02  0.15314315331E+02  0.21101471257E+02  0.25000295153E+00 0.  0.
    1000022    2    1    0    0    0  0.72245069306E+01 -0.49529145441E+02 -0.36068272193E+02  0.62500000364E+02  0.10000001900E+02 0.  0.
    3000022    2    5    5    0    0  0.41898181764E+01 -0.15414441358E+02 -0.65202416757E+01  0.17255017460E+02  0.24999462938E+00 0.  0.
        -13    1    4    4    0    0 -0.12352321095E+01  0.39446337145E+01  0.44175692012E+01  0.60507748391E+01  0.10500000000E+00 0. -1.
         13    1    4    4    0    0 -0.31553660802E+01  0.98902490538E+01  0.10896746130E+02  0.15050696418E+02  0.10500000000E+00 0.  1.
    3000001    1    5    5    0    0  0.30346887542E+01 -0.34114704084E+02 -0.29548030517E+02  0.45244982904E+02  0.10000000000E+01 0. -1.
        -13    1    6    6    0    0  0.32057100759E+01 -0.11834335696E+02 -0.50082617805E+01  0.13244689106E+02  0.10500000000E+00 0. -1.
         13    1    6    6    0    0  0.98410810047E+00 -0.35801056612E+01 -0.15119798952E+01  0.40103283534E+01  0.10500000000E+00 0.  1.
</event>
<event>
11    0  0.3515428E-009  0.9118800E+02  0.7816531E-02  0.1126479E+00
         25   -1    0    0    0    0  0.00000000000E+00  0.00000000000E+00  0.99999998245E-14  0.12500000000E+03  0.12500000000E+03 0.  0.
    3000001    1    3    3    0    0  0.63619864597E+01  0.16401911493E+02 -0.57701447181E+01  0.18541632679E+02  0.10000000000E+01 0. -1.
    1000022    2    1    0    0    0  0.70754684660E+01  0.59015211157E+02 -0.16534586339E+02  0.62500000078E+02  0.10000003120E+02 0.  0.
    3000022    2    3    3    0    0  0.71348200623E+00  0.42613299664E+02 -0.10764441621E+02  0.43958367399E+02  0.24999222777E+00 0.  0.
    1000022    2    1    0    0    0 -0.70754684660E+01 -0.59015211157E+02  0.16534586339E+02  0.62499999922E+02  0.10000002147E+02 0.  0.
    3000022    2    5    5    0    0 -0.32808161888E+01 -0.45875879968E+01  0.75772096738E+00  0.56961705642E+01  0.24999907667E+00 0.  0.
        -13    1    4    4    0    0  0.34758338941E+00  0.23699639583E+02 -0.60323711444E+01  0.24458010082E+02  0.10500000000E+00 0.  1.
         13    1    4    4    0    0  0.36589861682E+00  0.18913660082E+02 -0.47320704768E+01  0.19500357317E+02  0.10500000000E+00 0. -1.
    3000001    1    5    5    0    0 -0.37946522771E+01 -0.54427623160E+02  0.15776865372E+02  0.56803829358E+02  0.10000000000E+01 0. -1.
        -13    1    6    6    0    0 -0.15406433585E+01 -0.22286251628E+01  0.41645751388E+00  0.27431394305E+01  0.10500000000E+00 0. -1.
         13    1    6    6    0    0 -0.17401728303E+01 -0.23589628340E+01  0.34126345351E+00  0.29530311337E+01  0.10500000000E+00 0.  1.
</event>
<event>
11    0  0.3515428E-009  0.9118800E+02  0.7816531E-02  0.1126479E+00
         25   -1    0    0    0    0  0.00000000000E+00  0.00000000000E+00  0.99999998245E-14  0.12500000000E+03  0.12500000000E+03 0.  0.
    3000001    1    3    3    0    0 -0.65750016477E+01 -0.33811904875E+01 -0.15581466975E+02  0.17275566818E+02  0.10000000000E+01 0.  1.
    1000022    2    1    0    0    0 -0.30687403915E+02 -0.23785974548E+02 -0.47945392738E+02  0.62499999175E+02  0.99999933937E+01 0.  0.
    3000022    2    3    3    0    0 -0.24112402268E+02 -0.20404784060E+02 -0.32363925763E+02  0.45224432358E+02  0.24987121003E+00 0.  0.
    1000022    2    1    0    0    0  0.30687403915E+02  0.23785974548E+02  0.47945392738E+02  0.62500000825E+02  0.10000003704E+02 0.  0.
    3000022    2    5    5    0    0 -0.18210154283E+00 -0.26201202398E+00 -0.19829020118E+00  0.45126004543E+00  0.25001070399E+00 0.  0.
        -13    1    4    4    0    0 -0.16293970987E+02 -0.13724708161E+02 -0.21802157203E+02  0.30482883531E+02  0.10500000000E+00 0. -1.
         13    1    4    4    0    0 -0.78184312810E+01 -0.66800758992E+01 -0.10561768559E+02  0.14741548827E+02  0.10500000000E+00 0.  1.
    3000001    1    5    5    0    0  0.30869505458E+02  0.24047986572E+02  0.48143682939E+02  0.62048740779E+02  0.10000000000E+01 0.  1.
        -13    1    6    6    0    0 -0.15110873971E+00 -0.10013989111E+00 -0.91959888950E-01  0.22878695370E+00  0.10500000000E+00 0. -1.
         13    1    6    6    0    0 -0.30992803117E-01 -0.16187213287E+00 -0.10633031223E+00  0.22247309173E+00  0.10500000000E+00 0.  1.
</event>
<event>
11    0  0.3515428E-009  0.9118800E+02  0.7816531E-02  0.1126479E+00
         25   -1    0    0    0    0  0.00000000000E+00  0.00000000000E+00  0.99999998245E-14  0.12500000000E+03  0.12500000000E+03 0.  0.
    3000001    1    3    3    0    0  0.58491986513E+01 -0.21643887433E+02  0.30706529624E+02  0.38033694925E+02  0.10000000000E+01 0. -1.
    1000022    2    1    0    0    0  0.10263121258E+02 -0.41132101361E+02  0.44822634877E+02  0.62500000769E+02  0.10000003923E+02 0.  0.
    3000022    2    3    3    0    0  0.44139226069E+01 -0.19488213929E+02  0.14116105253E+02  0.24466305844E+02  0.24999850146E+00 0.  0.
    1000022    2    1    0    0    0 -0.10263121258E+02  0.41132101361E+02 -0.44822634877E+02  0.62499999231E+02  0.99999943122E+01 0.  0.
    3000022    2    5    5    0    0 -0.67930819838E+01  0.94393653276E+01 -0.11024860924E+02  0.16026778835E+02  0.25000158695E+00 0.  0.
        -13    1    4    4    0    0  0.23220339745E+01 -0.10513501106E+02  0.75640972271E+01  0.13158728630E+02  0.10500000000E+00 0. -1.
         13    1    4    4    0    0  0.20918886324E+01 -0.89747128225E+01  0.65520080254E+01  0.11307577215E+02  0.10500000000E+00 0.  1.
    3000001    1    5    5    0    0 -0.34700392745E+01  0.31692736034E+02 -0.33797773953E+02  0.46473220396E+02  0.10000000000E+01 0.  1.
        -13    1    6    6    0    0 -0.25494461956E+01  0.36396774577E+01 -0.42442265456E+01  0.61458450901E+01  0.10500000000E+00 0. -1.
         13    1    6    6    0    0 -0.42436357881E+01  0.57996878700E+01 -0.67806343785E+01  0.98809337446E+01  0.10500000000E+00 0.  1.
</event>
<event>
11    0  0.3515428E-009  0.9118800E+02  0.7816531E-02  0.1126479E+00
         25   -1    0    0    0    0  0.00000000000E+00  0.00000000000E+00  0.99999998245E-14  0.12500000000E+03  0.12500000000E+03 0.  0.
    3000001    1    3    3    0    0  0.14685330810E+01  0.30015381658E+00 -0.11368336827E+01  0.21305099262E+01  0.10000000000E+01 0. -1.
    1000022    2    1    0    0    0  0.60865342112E+02  0.65915888527E+01  0.76295884555E+01  0.62500003330E+02  0.10000044113E+02 0.  0.
    3000022    2    3    3    0    0  0.59396809031E+02  0.62914350362E+01  0.87664221382E+01  0.60369493404E+02  0.24999773849E+00 0.  0.
    1000022    2    1    0    0    0 -0.60865342112E+02 -0.65915888527E+01 -0.76295884555E+01  0.62499996670E+02  0.10000002488E+02 0.  0.
    3000022    2    5    5    0    0 -0.58014036175E+02 -0.75204542160E+01 -0.56546286150E+01  0.58772637984E+02  0.25005159932E+00 0.  0.
        -13    1    4    4    0    0  0.24752558467E+02  0.26057472808E+01  0.37162126821E+01  0.25165459091E+02  0.10500000000E+00 0.  1.
         13    1    4    4    0    0  0.34644250564E+02  0.36856877554E+01  0.50502094561E+01  0.35204034313E+02  0.10500000000E+00 0. -1.
    3000001    1    5    5    0    0 -0.28513059364E+01  0.92886536327E+00 -0.19749598405E+01  0.37273586865E+01  0.10000000000E+01 0. -1.
        -13    1    6    6    0    0 -0.27215049788E+02 -0.34703266897E+01 -0.26159546826E+01  0.27560049822E+02  0.10500000000E+00 0. -1.
         13    1    6    6    0    0 -0.30798986388E+02 -0.40501275263E+01 -0.30386739324E+01  0.31212588162E+02  0.10500000000E+00 0.  1.
</event>
<event>
11    0  0.3515428E-009  0.9118800E+02  0.7816531E-02  0.1126479E+00
         25   -1    0    0    0    0  0.00000000000E+00  0.00000000000E+00  0.99999998245E-14  0.12500000000E+03  0.12500000000E+03 0.  0.
    3000001    1    3    3    0    0 -0.33712301543E+02 -0.20583202202E+02 -0.91077035623E+01  0.40547968536E+02  0.10000000000E+01 0.  1.
    1000022    2    1    0    0    0 -0.52704370241E+02 -0.31342753968E+02 -0.67919857098E+01  0.62499999844E+02  0.10000002086E+02 0.  0.
    3000022    2    3    3    0    0 -0.18992068698E+02 -0.10759551766E+02  0.23157178525E+01  0.21952031307E+02  0.25000341760E+00 0.  0.
    1000022    2    1    0    0    0  0.52704370241E+02  0.31342753968E+02  0.67919857098E+01  0.62500000156E+02  0.10000004040E+02 0.  0.
    3000022    2    5    5    0    0  0.49488188606E+01  0.67620158058E+01  0.28963896139E+00  0.83882094862E+01  0.25000356416E+00 0.  0.
        -13    1    4    4    0    0 -0.95411769958E+01 -0.54707652570E+01  0.11296962605E+01  0.11056697952E+02  0.10500000000E+00 0. -1.
         13    1    4    4    0    0 -0.94508917023E+01 -0.52887865089E+01  0.11860215920E+01  0.10895333355E+02  0.10500000000E+00 0.  1.
    3000001    1    5    5    0    0  0.47755551381E+02  0.24580738162E+02  0.65023467484E+01  0.54111790670E+02  0.10000000000E+01 0.  1.
        -13    1    6    6    0    0  0.37878808184E+01  0.51855837762E+01  0.21022685434E+00  0.64260050206E+01  0.10500000000E+00 0.  1.
         13    1    6    6    0    0  0.11609380422E+01  0.15764320297E+01  0.79412107048E-01  0.19622044656E+01  0.10500000000E+00 0. -1.
</event>
<event>
11    0  0.3515428E-009  0.9118800E+02  0.7816531E-02  0.1126479E+00
         25   -1    0    0    0    0  0.00000000000E+00  0.00000000000E+00  0.99999998245E-14  0.12500000000E+03  0.12500000000E+03 0.  0.
    3000001    1    3    3    0    0 -0.68455512233E+01 -0.70528921580E+01 -0.17368657579E+00  0.98810437895E+01  0.10000000000E+01 0. -1.
    1000022    2    1    0    0    0 -0.27677700231E+02 -0.53183924690E+02 -0.14548712197E+02  0.62499999069E+02  0.99999960819E+01 0.  0.
    3000022    2    3    3    0    0 -0.20832149007E+02 -0.46131032532E+02 -0.14375025622E+02  0.52618955280E+02  0.24999688568E+00 0.  0.
    1000022    2    1    0    0    0  0.27677700231E+02  0.53183924690E+02  0.14548712197E+02  0.62500000931E+02  0.10000007714E+02 0.  0.
    3000022    2    5    5    0    0  0.13322211943E+02  0.20183522029E+02  0.10158151789E+02  0.26231782881E+02  0.24998568064E+00 0.  0.
        -13    1    4    4    0    0 -0.12255042565E+02 -0.27008386700E+02 -0.83854353037E+01  0.30821511492E+02  0.10500000000E+00 0.  1.
         13    1    4    4    0    0 -0.85771064424E+01 -0.19122645831E+02 -0.59895903178E+01  0.21797443788E+02  0.10500000000E+00 0. -1.
    3000001    1    5    5    0    0  0.14355488288E+02  0.33000402661E+02  0.43905604081E+01  0.36268218049E+02  0.10000000000E+01 0. -1.
        -13    1    6    6    0    0  0.43548565102E+01  0.65056010860E+01  0.32981968732E+01  0.84956899855E+01  0.10500000000E+00 0.  1.
         13    1    6    6    0    0  0.89673554323E+01  0.13677920943E+02  0.68599549160E+01  0.17736092896E+02  0.10500000000E+00 0. -1.
</event>
<event>
11    0  0.3515428E-009  0.9118800E+02  0.7816531E-02  0.1126479E+00
         25   -1    0    0    0    0  0.00000000000E+00  0.00000000000E+00  0.99999998245E-14  0.12500000000E+03  0.12500000000E+03 0.  0.
    3000001    1    3    3    0    0 -0.49127446603E+02  0.29039096136E+01  0.22637359546E+02  0.54179228012E+02  0.10000000000E+01 0.  1.
    1000022    2    1    0    0    0 -0.57034087858E+02  0.47885878627E+00  0.23518788627E+02  0.62500001138E+02  0.10000012018E+02 0.  0.
    3000022    2    3    3    0    0 -0.79066412550E+01 -0.24250508274E+01  0.88142908009E+00  0.83207731266E+01  0.25000149864E+00 0.  0.
    1000022    2    1    0    0    0  0.57034087858E+02 -0.47885878627E+00 -0.23518788627E+02  0.62499998862E+02  0.99999977877E+01 0.  0.
    3000022    2    5    5    0    0  0.53547676470E+02 -0.25869529839E+01 -0.20818981682E+02  0.57511203110E+02  0.25000770977E+00 0.  0.
        -13    1    4    4    0    0 -0.48390471626E+01 -0.14414688957E+01  0.49118767980E+00  0.50741009406E+01  0.10500000000E+00 0. -1.
         13    1    4    4    0    0 -0.30675940925E+01 -0.98358193171E+00  0.39024140030E+00  0.32466721859E+01  0.10500000000E+00 0.  1.
    3000001    1    5    5    0    0  0.34864113880E+01  0.21080941976E+01 -0.26998069449E+01  0.49887957517E+01  0.10000000000E+01 0. -1.
        -13    1    6    6    0    0  0.24931844504E+02 -0.11408020949E+01 -0.96686462271E+01  0.26765501017E+02  0.10500000000E+00 0. -1.
         13    1    6    6    0    0  0.28615831965E+02 -0.14461508889E+01 -0.11150335454E+02  0.30745702093E+02  0.10500000000E+00 0.  1.
</event>
<event>
11    0  0.3515428E-009  0.9118800E+02  0.7816531E-02  0.1126479E+00
         25   -1    0    0    0    0  0.00000000000E+00  0.00000000000E+00  0.99999998245E-14  0.12500000000E+03  0.12500000000E+03 0.  0.
    3000001    1    3    3    0    0  0.21885724185E+02 -0.14564300810E+02  0.27155164979E+02  0.37808818631E+02  0.10000000000E+01 0.  1.
    1000022    2    1    0    0    0  0.41304941010E+02 -0.24466166253E+02  0.38749948802E+02  0.62499999898E+02  0.10000000609E+02 0.  0.
    3000022    2    3    3    0    0  0.19419216825E+02 -0.99018654424E+01  0.11594783822E+02  0.24691181267E+02  0.24999831588E+00 0.  0.
    1000022    2    1    0    0    0 -0.41304941010E+02  0.24466166253E+02 -0.38749948802E+02  0.62500000102E+02  0.10000001880E+02 0.  0.
    3000022    2    5    5    0    0 -0.25304402402E+02  0.18118538484E+02 -0.29728045249E+02  0.43039672310E+02  0.25000101077E+00 0.  0.
        -13    1    4    4    0    0  0.10415685492E+02 -0.53808663663E+01  0.62642850292E+01  0.13292573831E+02  0.10500000000E+00 0.  1.
         13    1    4    4    0    0  0.90035313332E+01 -0.45209990762E+01  0.53304987931E+01  0.11398607437E+02  0.10500000000E+00 0. -1.
    3000001    1    5    5    0    0 -0.16000538608E+02  0.63476277684E+01 -0.90219035530E+01  0.19460327792E+02  0.10000000000E+01 0.  1.
        -13    1    6    6    0    0 -0.15618433877E+02  0.11135898478E+02 -0.18256301186E+02  0.26481073802E+02  0.10500000000E+00 0.  1.
         13    1    6    6    0    0 -0.96859685253E+01  0.69826400061E+01 -0.11471744062E+02  0.16558598508E+02  0.10500000000E+00 0. -1.
</event>
<event>
11    0  0.3515428E-009  0.9118800E+02  0.7816531E-02  0.1126479E+00
         25   -1    0    0    0    0  0.00000000000E+00  0.00000000000E+00  0.99999998245E-14  0.12500000000E+03  0.12500000000E+03 0.  0.
    3000001    1    3    3    0    0 -0.13326621392E+02 -0.29129916910E+01  0.35863838797E+02  0.38383581016E+02  0.10000000000E+01 0.  1.
    1000022    2    1    0    0    0 -0.20614240758E+02  0.30297954863E+01  0.58069987182E+02  0.62499999716E+02  0.99999985279E+01 0.  0.
    3000022    2    3    3    0    0 -0.72876193660E+01  0.59427871773E+01  0.22206148384E+02  0.24116418701E+02  0.25001883391E+00 0.  0.
    1000022    2    1    0    0    0  0.20614240758E+02 -0.30297954863E+01 -0.58069987182E+02  0.62500000284E+02  0.10000002072E+02 0.  0.
    3000022    2    5    5    0    0  0.17336873284E+02 -0.38428955392E+01 -0.35905614694E+02  0.40057592280E+02  0.25002252665E+00 0.  0.
        -13    1    4    4    0    0 -0.52291472356E+01  0.42856825632E+01  0.16055890286E+02  0.17421644404E+02  0.10500000000E+00 0. -1.
         13    1    4    4    0    0 -0.20584721304E+01  0.16571046142E+01  0.61502580979E+01  0.66947742968E+01  0.10500000000E+00 0.  1.
    3000001    1    5    5    0    0  0.32773674736E+01  0.81310005294E+00 -0.22164372487E+02  0.22442408004E+02  0.10000000000E+01 0.  1.
        -13    1    6    6    0    0  0.94666041128E+01 -0.21005255147E+01 -0.19757202757E+02  0.22008791122E+02  0.10500000000E+00 0. -1.
         13    1    6    6    0    0  0.78702691713E+01 -0.17423700245E+01 -0.16148411937E+02  0.18048801158E+02  0.10500000000E+00 0.  1.
</event>
<event>
11    0  0.3515428E-009  0.9118800E+02  0.7816531E-02  0.1126479E+00
         25   -1    0    0    0    0  0.00000000000E+00  0.00000000000E+00  0.99999998245E-14  0.12500000000E+03  0.12500000000E+03 0.  0.
    3000001    1    3    3    0    0 -0.18387414711E+02  0.25733620791E+02  0.16112582361E+02  0.35509598267E+02  0.10000000000E+01 0. -1.
    1000022    2    1    0    0    0 -0.38562015348E+02  0.42198398922E+02  0.23205949076E+02  0.62499999836E+02  0.10000000387E+02 0.  0.
    3000022    2    3    3    0    0 -0.20174600637E+02  0.16464778131E+02  0.70933667157E+01  0.26990401569E+02  0.24999148726E+00 0.  0.
    1000022    2    1    0    0    0  0.38562015348E+02 -0.42198398922E+02 -0.23205949076E+02  0.62500000164E+02  0.10000002431E+02 0.  0.
    3000022    2    5    5    0    0  0.29889330949E+02 -0.29600297521E+02 -0.20992017589E+02  0.47013583334E+02  0.24999502659E+00 0.  0.
        -13    1    4    4    0    0 -0.69531426946E+01  0.57455611487E+01  0.24467797934E+01  0.93464122850E+01  0.10500000000E+00 0.  1.
         13    1    4    4    0    0 -0.13221457942E+02  0.10719216982E+02  0.46465869223E+01  0.17643989284E+02  0.10500000000E+00 0. -1.
    3000001    1    5    5    0    0  0.86726843987E+01 -0.12598101401E+02 -0.22139314878E+01  0.15486416830E+02  0.10000000000E+01 0.  1.
        -13    1    6    6    0    0  0.12529211126E+02 -0.12446078558E+02 -0.88787987211E+01  0.19766893905E+02  0.10500000000E+00 0. -1.
         13    1    6    6    0    0  0.17360119824E+02 -0.17154218963E+02 -0.12113218868E+02  0.27246689429E+02  0.10500000000E+00 0.  1.
</event>
<event>
11    0  0.3515428E-009  0.9118800E+02  0.7816531E-02  0.1126479E+00
         25   -1    0    0    0    0  0.00000000000E+00  0.00000000000E+00  0.99999998245E-14  0.12500000000E+03  0.12500000000E+03 0.  0.
    3000001    1    3    3    0    0 -0.38720479838E+00 -0.21194166338E+01 -0.14772191005E+01  0.27971468847E+01  0.10000000000E+01 0.  1.
    1000022    2    1    0    0    0  0.87761496559E+01 -0.61057148431E+02  0.11198172312E+01  0.62499997720E+02  0.99999773572E+01 0.  0.
    3000022    2    3    3    0    0  0.91633544543E+01 -0.58937731797E+02  0.25970363316E+01  0.59702850836E+02  0.25001197736E+00 0.  0.
    1000022    2    1    0    0    0 -0.87761496559E+01  0.61057148431E+02 -0.11198172312E+01  0.62500002280E+02  0.10000005853E+02 0.  0.
    3000022    2    5    5    0    0 -0.61862777253E+01  0.29322919889E+02 -0.50883746941E+01  0.30398317805E+02  0.25001091486E+00 0.  0.
        -13    1    4    4    0    0  0.57541845728E+01 -0.37209190328E+02  0.15884235119E+01  0.37685124376E+02  0.10500000000E+00 0. -1.
         13    1    4    4    0    0  0.34091698815E+01 -0.21728541468E+02  0.10086128198E+01  0.22017726460E+02  0.10500000000E+00 0.  1.
    3000001    1    5    5    0    0 -0.25898719306E+01  0.31734228542E+02  0.39685574630E+01  0.32101684475E+02  0.10000000000E+01 0. -1.
        -13    1    6    6    0    0 -0.16181112193E+01  0.75445774942E+01 -0.12939678014E+01  0.78245965490E+01  0.10500000000E+00 0.  1.
         13    1    6    6    0    0 -0.45681665060E+01  0.21778342394E+02 -0.37944068928E+01  0.22573721256E+02  0.10500000000E+00 0. -1.
</event>
<event>
11    0  0.3515428E-009  0.9118800E+02  0.7816531E-02  0.1126479E+00
         25   -1    0    0    0    0  0.00000000000E+00  0.00000000000E+00  0.99999998245E-14  0.12500000000E+03  0.12500000000E+03 0.  0.
    3000001    1    3    3    0    0 -0.21172479618E+02  0.19267887084E+02 -0.13621909418E+02  0.31718792254E+02  0.10000000000E+01 0. -1.
    1000022    2    1    0    0    0 -0.38447413636E+02  0.43961035004E+02 -0.19886522572E+02  0.62500000122E+02  0.10000001071E+02 0.  0.
    3000022    2    3    3    0    0 -0.17274934018E+02  0.24693147920E+02 -0.62646131542E+01  0.30781207869E+02  0.24996073292E+00 0.  0.
    1000022    2    1    0    0    0  0.38447413636E+02 -0.43961035004E+02  0.19886522572E+02  0.62499999878E+02  0.99999995423E+01 0.  0.
    3000022    2    5    5    0    0  0.14049900831E+02 -0.12092665544E+02  0.10361005970E+02  0.21237825073E+02  0.24999160324E+00 0.  0.
        -13    1    4    4    0    0 -0.58645755432E+01  0.84381831625E+01 -0.20903948063E+01  0.10486989884E+02  0.10500000000E+00 0. -1.
         13    1    4    4    0    0 -0.11410358474E+02  0.16254964758E+02 -0.41742183480E+01  0.20294217984E+02  0.10500000000E+00 0.  1.
    3000001    1    5    5    0    0  0.24397512804E+02 -0.31868369460E+02  0.95255166016E+01  0.41262174805E+02  0.10000000000E+01 0. -1.
        -13    1    6    6    0    0  0.96466924149E+01 -0.83618990729E+01  0.71571446395E+01  0.14636112019E+02  0.10500000000E+00 0.  1.
         13    1    6    6    0    0  0.44032084162E+01 -0.37307664709E+01  0.32038613307E+01  0.66017130537E+01  0.10500000000E+00 0. -1.
</event>
<event>
11    0  0.3515428E-009  0.9118800E+02  0.7816531E-02  0.1126479E+00
         25   -1    0    0    0    0  0.00000000000E+00  0.00000000000E+00  0.99999998245E-14  0.12500000000E+03  0.12500000000E+03 0.  0.
    3000001    1    3    3    0    0 -0.41607988682E+01  0.10294375353E+02  0.36251692687E+02  0.37927188583E+02  0.10000000000E+01 0.  1.
    1000022    2    1    0    0    0 -0.69137316855E+01  0.24178123869E+02  0.56337098150E+02  0.62500000211E+02  0.10000001939E+02 0.  0.
    3000022    2    3    3    0    0 -0.27529328174E+01  0.13883748516E+02  0.20085405463E+02  0.24572811628E+02  0.24989346404E+00 0.  0.
    1000022    2    1    0    0    0  0.69137316855E+01 -0.24178123869E+02 -0.56337098150E+02  0.62499999789E+02  0.99999992963E+01 0.  0.
    3000022    2    5    5    0    0  0.89542352387E+01 -0.20541863031E+02 -0.42980107578E+02  0.48471626940E+02  0.25001058211E+00 0.  0.
        -13    1    4    4    0    0 -0.65626127672E+00  0.33970653599E+01  0.48855090171E+01  0.59874832174E+01  0.10500000000E+00 0.  1.
         13    1    4    4    0    0 -0.20966715406E+01  0.10486683157E+02  0.15199896446E+02  0.18585328411E+02  0.10500000000E+00 0. -1.
    3000001    1    5    5    0    0 -0.20405035532E+01 -0.36362608384E+01 -0.13356990572E+02  0.14028372849E+02  0.10000000000E+01 0. -1.
        -13    1    6    6    0    0  0.69054917054E+01 -0.15844298894E+02 -0.33150356534E+02  0.37385622724E+02  0.10500000000E+00 0. -1.
         13    1    6    6    0    0  0.20487435333E+01 -0.46975641368E+01 -0.98297510437E+01  0.11086004215E+02  0.10500000000E+00 0.  1.
</event>
<event>
11    0  0.3515428E-009  0.9118800E+02  0.7816531E-02  0.1126479E+00
         25   -1    0    0    0    0  0.00000000000E+00  0.00000000000E+00  0.99999998245E-14  0.12500000000E+03  0.12500000000E+03 0.  0.
    3000001    1    3    3    0    0 -0.25257361277E+02 -0.35637500542E+02  0.19903958364E+02  0.48011803779E+02  0.10000000000E+01 0.  1.
    1000022    2    1    0    0    0 -0.33905082196E+02 -0.42334708179E+02  0.29401837204E+02  0.62500001344E+02  0.10000001081E+02 0.  0.
    3000022    2    3    3    0    0 -0.86477209194E+01 -0.66972076367E+01  0.94978788401E+01  0.14488197564E+02  0.24999793893E+00 0.  0.
    1000022    2    1    0    0    0  0.33905082196E+02  0.42334708179E+02 -0.29401837204E+02  0.62499998656E+02  0.99999842866E+01 0.  0.
    3000022    2    5    5    0    0  0.28184282721E+02  0.39654556719E+02 -0.24701378803E+02  0.54562425497E+02  0.25000045366E+00 0.  0.
        -13    1    4    4    0    0 -0.58590226660E+01 -0.44831175006E+01  0.64438252328E+01  0.97959378191E+01  0.10500000000E+00 0.  1.
         13    1    4    4    0    0 -0.27886982534E+01 -0.22140901360E+01  0.30540536074E+01  0.46922597451E+01  0.10500000000E+00 0. -1.
    3000001    1    5    5    0    0  0.57207994755E+01  0.26801514599E+01 -0.47004584010E+01  0.79375731598E+01  0.10000000000E+01 0.  1.
        -13    1    6    6    0    0  0.13378402707E+02  0.18845843086E+02 -0.11808877427E+02  0.25953960617E+02  0.10500000000E+00 0.  1.
         13    1    6    6    0    0  0.14805880014E+02  0.20808713633E+02 -0.12892501376E+02  0.28608464880E+02  0.10500000000E+00 0. -1.
</event>
<event>
11    0  0.3515428E-009  0.9118800E+02  0.7816531E-02  0.1126479E+00
         25   -1    0    0    0    0  0.00000000000E+00  0.00000000000E+00  0.99999998245E-14  0.12500000000E+03  0.12500000000E+03 0.  0.
    3000001    1    3    3    0    0 -0.85678497310E+00 -0.76187271461E+01 -0.11343726247E+01  0.78144663969E+01  0.10000000000E+01 0. -1.
    1000022    2    1    0    0    0 -0.10440510166E+02 -0.58679795219E+02  0.15935062267E+02  0.62500008978E+02  0.10000114664E+02 0.  0.
    3000022    2    3    3    0    0 -0.95837251927E+01 -0.51061068073E+02  0.17069434892E+02  0.54685542581E+02  0.24999701972E+00 0.  0.
    1000022    2    1    0    0    0  0.10440510166E+02  0.58679795219E+02 -0.15935062267E+02  0.62499991022E+02  0.10000002440E+02 0.  0.
    3000022    2    5    5    0    0  0.27083760242E+01  0.39865334192E+02 -0.87585952959E+01  0.40906669825E+02  0.24994737382E+00 0.  0.
        -13    1    4    4    0    0 -0.43528012221E+01 -0.23450956469E+02  0.77872160078E+01  0.25090755189E+02  0.10500000000E+00 0.  1.
         13    1    4    4    0    0 -0.52309239706E+01 -0.27610111604E+02  0.92822188842E+01  0.29594787392E+02  0.10500000000E+00 0. -1.
    3000001    1    5    5    0    0  0.77321341417E+01  0.18814461028E+02 -0.71764669714E+01  0.21593321197E+02  0.10000000000E+01 0. -1.
        -13    1    6    6    0    0  0.20618035284E+01  0.30417875588E+02 -0.66666040488E+01  0.31208217245E+02  0.10500000000E+00 0.  1.
         13    1    6    6    0    0  0.64657249580E+00  0.94474586035E+01 -0.20919912471E+01  0.96984525794E+01  0.10500000000E+00 0. -1.
</event>
<event>
11    0  0.3515428E-009  0.9118800E+02  0.7816531E-02  0.1126479E+00
         25   -1    0    0    0    0  0.00000000000E+00  0.00000000000E+00  0.99999998245E-14  0.12500000000E+03  0.12500000000E+03 0.  0.
    3000001    1    3    3    0    0  0.54948753745E+02  0.28220607646E+02  0.49895802333E+01  0.61981159596E+02  0.10000000000E+01 0. -1.
    1000022    2    1    0    0    0  0.54798765977E+02  0.27858527698E+02  0.52200326300E+01  0.62500008258E+02  0.99999986715E+01 0.  0.
    3000022    2    3    3    0    0 -0.14998776775E+00 -0.36207994770E+00  0.23045239675E+00  0.51884866126E+00  0.24999481418E+00 0.  0.
    1000022    2    1    0    0    0 -0.54798765977E+02 -0.27858527698E+02 -0.52200326300E+01  0.62499991742E+02  0.99998954512E+01 0.  0.
    3000022    2    5    5    0    0 -0.14323833969E+02 -0.29262515567E+01 -0.28193383827E+01  0.14891149628E+02  0.25000114179E+00 0.  0.
        -13    1    4    4    0    0 -0.16958513550E-01 -0.21699549717E+00  0.11429371639E+00  0.26732506538E+00  0.10500000000E+00 0. -1.
         13    1    4    4    0    0 -0.13302925420E+00 -0.14508445053E+00  0.11615868036E+00  0.25152359588E+00  0.10500000000E+00 0.  1.
    3000001    1    5    5    0    0 -0.40474932008E+02 -0.24932276141E+02 -0.24006942473E+01  0.47608842115E+02  0.10000000000E+01 0. -1.
        -13    1    6    6    0    0 -0.52251012680E+01 -0.10185144741E+01 -0.10611744910E+01  0.54291961924E+01  0.10500000000E+00 0.  1.
         13    1    6    6    0    0 -0.90987327012E+01 -0.19077370826E+01 -0.17581638917E+01  0.94619534354E+01  0.10500000000E+00 0. -1.
</event>
<event>
11    0  0.3515428E-009  0.9118800E+02  0.7816531E-02  0.1126479E+00
         25   -1    0    0    0    0  0.00000000000E+00  0.00000000000E+00  0.99999998245E-14  0.12500000000E+03  0.12500000000E+03 0.  0.
    3000001    1    3    3    0    0  0.31618672154E+02 -0.92331596757E+01 -0.77772435229E+01  0.33859668976E+02  0.10000000000E+01 0.  1.
    1000022    2    1    0    0    0  0.60205388854E+02 -0.10966120636E+02 -0.78297405561E+01  0.62500003800E+02  0.10000049449E+02 0.  0.
    3000022    2    3    3    0    0  0.28586716700E+02 -0.17329609607E+01 -0.52497033228E-01  0.28640334823E+02  0.24999501066E+00 0.  0.
    1000022    2    1    0    0    0 -0.60205388854E+02  0.10966120636E+02  0.78297405561E+01  0.62499996200E+02  0.10000001950E+02 0.  0.
    3000022    2    5    5    0    0 -0.48157378374E+02  0.90165845648E+01  0.10153440803E+02  0.50035854423E+02  0.24995715976E+00 0.  0.
        -13    1    4    4    0    0  0.98018458453E+01 -0.64630454710E+00 -0.36817254113E-01  0.98237605861E+01  0.10500000000E+00 0. -1.
         13    1    4    4    0    0  0.18784870854E+02 -0.10866564136E+01 -0.15679779116E-01  0.18816574237E+02  0.10500000000E+00 0.  1.
    3000001    1    5    5    0    0 -0.12048010479E+02  0.19495360717E+01 -0.23237002470E+01  0.12464141777E+02  0.10000000000E+01 0.  1.
        -13    1    6    6    0    0 -0.34671486858E+02  0.65242084773E+01  0.72875226897E+01  0.36024940099E+02  0.10500000000E+00 0. -1.
         13    1    6    6    0    0 -0.13485891516E+02  0.24923760874E+01  0.28659181134E+01  0.14010914324E+02  0.10500000000E+00 0.  1.
</event>
<event>
11    0  0.3515428E-009  0.9118800E+02  0.7816531E-02  0.1126479E+00
         25   -1    0    0    0    0  0.00000000000E+00  0.00000000000E+00  0.99999998245E-14  0.12500000000E+03  0.12500000000E+03 0.  0.
    3000001    1    3    3    0    0 -0.54918062829E+02  0.25534660092E+02  0.87427020327E+01  0.61200059884E+02  0.10000000000E+01 0. -1.
    1000022    2    1    0    0    0 -0.55613607725E+02  0.24917924564E+02  0.96163248614E+01  0.62499999131E+02  0.99999929404E+01 0.  0.
    3000022    2    3    3    0    0 -0.69554489580E+00 -0.61673552802E+00  0.87362282873E+00  0.12999392477E+01  0.24995957119E+00 0.  0.
    1000022    2    1    0    0    0  0.55613607725E+02 -0.24917924564E+02 -0.96163248614E+01  0.62500000869E+02  0.10000003800E+02 0.  0.
    3000022    2    5    5    0    0  0.18400056291E+02 -0.33760462419E+01 -0.39037677038E+01  0.19111819975E+02  0.25000148336E+00 0.  0.
        -13    1    4    4    0    0 -0.16685240444E+00 -0.20164943843E+00  0.27055748302E+00  0.39080503132E+00  0.10500000000E+00 0.  1.
         13    1    4    4    0    0 -0.52869249136E+00 -0.41508608960E+00  0.60306534571E+00  0.90913421638E+00  0.10500000000E+00 0. -1.
    3000001    1    5    5    0    0  0.37213551434E+02 -0.21541878322E+02 -0.57125571576E+01  0.43388180894E+02  0.10000000000E+01 0.  1.
        -13    1    6    6    0    0  0.13549428221E+02 -0.25131314046E+01 -0.28552997090E+01  0.14073613466E+02  0.10500000000E+00 0.  1.
         13    1    6    6    0    0  0.48506280700E+01 -0.86291483731E+00 -0.10484679948E+01  0.50382065089E+01  0.10500000000E+00 0. -1.
</event>
<event>
11    0  0.3515428E-009  0.9118800E+02  0.7816531E-02  0.1126479E+00
         25   -1    0    0    0    0  0.00000000000E+00  0.00000000000E+00  0.99999998245E-14  0.12500000000E+03  0.12500000000E+03 0.  0.
    3000001    1    3    3    0    0  0.43614728537E+00  0.52748590898E+00 -0.75011952507E+00  0.14251824938E+01  0.10000000000E+01 0. -1.
    1000022    2    1    0    0    0  0.18791798399E+02 -0.20607591919E+02 -0.55031320255E+02  0.62499994793E+02  0.99999304148E+01 0.  0.
    3000022    2    3    3    0    0  0.18355651113E+02 -0.21135077828E+02 -0.54281200730E+02  0.61074812299E+02  0.25000411110E+00 0.  0.
    1000022    2    1    0    0    0 -0.18791798399E+02  0.20607591919E+02  0.55031320255E+02  0.62500005207E+02  0.99999955042E+01 0.  0.
    3000022    2    5    5    0    0 -0.17015764131E+02  0.14666750017E+02  0.48436185021E+02  0.53392661523E+02  0.25000021001E+00 0.  0.
        -13    1    4    4    0    0  0.53278859625E+01 -0.61363530606E+01 -0.15852870616E+02  0.17814761561E+02  0.10500000000E+00 0. -1.
         13    1    4    4    0    0  0.13027765151E+02 -0.14998724767E+02 -0.38428330114E+02  0.43260050738E+02  0.10500000000E+00 0.  1.
    3000001    1    5    5    0    0 -0.17760342680E+01  0.59408419014E+01  0.65951352345E+01  0.91073436841E+01  0.10000000000E+01 0. -1.
        -13    1    6    6    0    0 -0.73750680600E+01  0.63402868762E+01  0.20817151908E+02  0.22977286722E+02  0.10500000000E+00 0. -1.
         13    1    6    6    0    0 -0.96406960708E+01  0.83264631410E+01  0.27619033113E+02  0.30415374801E+02  0.10500000000E+00 0.  1.
</event>
<event>
11    0  0.3515428E-009  0.9118800E+02  0.7816531E-02  0.1126479E+00
         25   -1    0    0    0    0  0.00000000000E+00  0.00000000000E+00  0.99999998245E-14  0.12500000000E+03  0.12500000000E+03 0.  0.
    3000001    1    3    3    0    0  0.40258572833E+01  0.21062639705E+02  0.16754574769E+02  0.27231564294E+02  0.10000000000E+01 0. -1.
    1000022    2    1    0    0    0 -0.12956176590E+01  0.45734623991E+02  0.41387381803E+02  0.62500000597E+02  0.10000012271E+02 0.  0.
    3000022    2    3    3    0    0 -0.53214749423E+01  0.24671984286E+02  0.24632807034E+02  0.35268436303E+02  0.25002544591E+00 0.  0.
    1000022    2    1    0    0    0  0.12956176590E+01 -0.45734623991E+02 -0.41387381803E+02  0.62499999403E+02  0.10000004809E+02 0.  0.
    3000022    2    5    5    0    0  0.36467359918E+01 -0.36056203946E+02 -0.28071231029E+02  0.45841084570E+02  0.24999339229E+00 0.  0.
        -13    1    4    4    0    0 -0.31174600139E+01  0.14296649780E+02  0.14358664744E+02  0.20501098266E+02  0.10500000000E+00 0. -1.
         13    1    4    4    0    0 -0.22040149283E+01  0.10375334505E+02  0.10274142290E+02  0.14767338037E+02  0.10500000000E+00 0.  1.
    3000001    1    5    5    0    0 -0.23511183329E+01 -0.96784200451E+01 -0.13316150773E+02  0.16658914833E+02  0.10000000000E+01 0. -1.
        -13    1    6    6    0    0  0.91911630372E+00 -0.88537669831E+01 -0.68934543338E+01  0.11258983179E+02  0.10500000000E+00 0. -1.
         13    1    6    6    0    0  0.27276196881E+01 -0.27202436963E+02 -0.21177776695E+02  0.34582101391E+02  0.10500000000E+00 0.  1.
</event>
<event>
11    0  0.3515428E-009  0.9118800E+02  0.7816531E-02  0.1126479E+00
         25   -1    0    0    0    0  0.00000000000E+00  0.00000000000E+00  0.99999998245E-14  0.12500000000E+03  0.12500000000E+03 0.  0.
    3000001    1    3    3    0    0  0.52421374235E+02  0.62543108814E+01  0.95308920363E+01  0.53655892354E+02  0.10000000000E+01 0.  1.
    1000022    2    1    0    0    0  0.59332935713E+02  0.90372860128E+01  0.14289160532E+02  0.62500000691E+02  0.10000008938E+02 0.  0.
    3000022    2    3    3    0    0  0.69115614782E+01  0.27829751315E+01  0.47582684954E+01  0.88441083364E+01  0.25000108345E+00 0.  0.
    1000022    2    1    0    0    0 -0.59332935713E+02 -0.90372860128E+01 -0.14289160532E+02  0.62499999309E+02  0.10000000306E+02 0.  0.
    3000022    2    5    5    0    0 -0.26770877669E+00  0.79259109717E+00 -0.62825268558E+00  0.10756725303E+01  0.25000263805E+00 0.  0.
        -13    1    4    4    0    0  0.29155231678E+01  0.11097574267E+01  0.19622859020E+01  0.36869266129E+01  0.10500000000E+00 0.  1.
         13    1    4    4    0    0  0.39960383105E+01  0.16732177047E+01  0.27959825934E+01  0.51571817235E+01  0.10500000000E+00 0. -1.
    3000001    1    5    5    0    0 -0.59065226937E+02 -0.98298771100E+01 -0.13660907846E+02  0.61424326779E+02  0.10000000000E+01 0.  1.
        -13    1    6    6    0    0 -0.50547656580E-01  0.35051355476E+00 -0.27591828519E+00  0.46105392066E+00  0.10500000000E+00 0. -1.
         13    1    6    6    0    0 -0.21716112011E+00  0.44207754241E+00 -0.35233440039E+00  0.61461860962E+00  0.10500000000E+00 0.  1.
</event>
<event>
11    0  0.3515428E-009  0.9118800E+02  0.7816531E-02  0.1126479E+00
         25   -1    0    0    0    0  0.00000000000E+00  0.00000000000E+00  0.99999998245E-14  0.12500000000E+03  0.12500000000E+03 0.  0.
    3000001    1    3    3    0    0  0.21855131054E+01 -0.31673181350E+01  0.80676599385E+01  0.89941930480E+01  0.10000000000E+01 0. -1.
    1000022    2    1    0    0    0 -0.82897322507E+01 -0.21337139792E+02  0.57290984496E+02  0.62499999871E+02  0.99999942004E+01 0.  0.
    3000022    2    3    3    0    0 -0.10475245356E+02 -0.18169821657E+02  0.49223324558E+02  0.53505806823E+02  0.24999783888E+00 0.  0.
    1000022    2    1    0    0    0  0.82897322507E+01  0.21337139792E+02 -0.57290984496E+02  0.62500000129E+02  0.99999958123E+01 0.  0.
    3000022    2    5    5    0    0  0.74688113993E+01  0.21644401207E+02 -0.48795623390E+02  0.53901193180E+02  0.25003370688E+00 0.  0.
        -13    1    4    4    0    0 -0.40819664444E+01 -0.71968776494E+01  0.19476898109E+02  0.21161712664E+02  0.10500000000E+00 0. -1.
         13    1    4    4    0    0 -0.63932789117E+01 -0.10972944008E+02  0.29746426449E+02  0.32344094159E+02  0.10500000000E+00 0.  1.
    3000001    1    5    5    0    0  0.82092085139E+00 -0.30726141481E+00 -0.84953611060E+01  0.85988069488E+01  0.10000000000E+01 0. -1.
        -13    1    6    6    0    0  0.35167258739E+01  0.10204682143E+02 -0.23161145163E+02  0.25552936598E+02  0.10500000000E+00 0. -1.
         13    1    6    6    0    0  0.39520855255E+01  0.11439719064E+02 -0.25634478227E+02  0.28348256582E+02  0.10500000000E+00 0.  1.
</event>
<event>
11    0  0.3515428E-009  0.9118800E+02  0.7816531E-02  0.1126479E+00
         25   -1    0    0    0    0  0.00000000000E+00  0.00000000000E+00  0.99999998245E-14  0.12500000000E+03  0.12500000000E+03 0.  0.
    3000001    1    3    3    0    0 -0.63887180065E+01 -0.14003360532E+02 -0.10570405308E+02  0.18698751090E+02  0.10000000000E+01 0. -1.
    1000022    2    1    0    0    0 -0.89487916594E+01 -0.53270512265E+02 -0.29806404009E+02  0.62499999097E+02  0.99999909048E+01 0.  0.
    3000022    2    3    3    0    0 -0.25600736530E+01 -0.39267151733E+02 -0.19235998701E+02  0.43801248007E+02  0.24999729145E+00 0.  0.
    1000022    2    1    0    0    0  0.89487916594E+01  0.53270512265E+02  0.29806404009E+02  0.62500000903E+02  0.10000002187E+02 0.  0.
    3000022    2    5    5    0    0  0.56039539034E+01  0.48017370713E+02  0.24207399082E+02  0.54066004699E+02  0.25000864801E+00 0.  0.
        -13    1    4    4    0    0 -0.69046258308E+00 -0.11072369700E+02 -0.54515119583E+01  0.12361396239E+02  0.10500000000E+00 0.  1.
         13    1    4    4    0    0 -0.18696110699E+01 -0.28194782033E+02 -0.13784486743E+02  0.31439851768E+02  0.10500000000E+00 0. -1.
    3000001    1    5    5    0    0  0.33448377560E+01  0.52531415521E+01  0.55990049275E+01  0.84339962034E+01  0.10000000000E+01 0.  1.
        -13    1    6    6    0    0  0.38684896814E+01  0.33515100630E+02  0.16914060845E+02  0.37740212797E+02  0.10500000000E+00 0.  1.
         13    1    6    6    0    0  0.17354642220E+01  0.14502270082E+02  0.72933382363E+01  0.16325791902E+02  0.10500000000E+00 0. -1.
</event>
<event>
11    0  0.3515428E-009  0.9118800E+02  0.7816531E-02  0.1126479E+00
         25   -1    0    0    0    0  0.00000000000E+00  0.00000000000E+00  0.99999998245E-14  0.12500000000E+03  0.12500000000E+03 0.  0.
    3000001    1    3    3    0    0 -0.63372700323E+01 -0.31026570692E+02 -0.29280295828E+02  0.43140987519E+02  0.10000000000E+01 0.  1.
    1000022    2    1    0    0    0 -0.75561092703E+01 -0.39912280696E+02 -0.46434523518E+02  0.62500001957E+02  0.10000016631E+02 0.  0.
    3000022    2    3    3    0    0 -0.12188392380E+01 -0.88857100040E+01 -0.17154227690E+02  0.19359014438E+02  0.25000198573E+00 0.  0.
    1000022    2    1    0    0    0  0.75561092703E+01  0.39912280696E+02  0.46434523518E+02  0.62499998043E+02  0.99999921686E+01 0.  0.
    3000022    2    5    5    0    0  0.71791618535E+01  0.34843171031E+02  0.44493621861E+02  0.56967813900E+02  0.25000358969E+00 0.  0.
        -13    1    4    4    0    0 -0.89375104511E+00 -0.66601059246E+01 -0.12809592784E+02  0.14465562352E+02  0.10500000000E+00 0. -1.
         13    1    4    4    0    0 -0.32508819290E+00 -0.22256040793E+01 -0.43446349059E+01  0.48934520858E+01  0.10500000000E+00 0.  1.
    3000001    1    5    5    0    0  0.37694741686E+00  0.50691096653E+01  0.19409016568E+01  0.55321841433E+01  0.10000000000E+01 0. -1.
        -13    1    6    6    0    0  0.50430774870E+01  0.24633254644E+02  0.31398675065E+02  0.40225833562E+02  0.10500000000E+00 0.  1.
         13    1    6    6    0    0  0.21360843665E+01  0.10209916387E+02  0.13094946796E+02  0.16741980338E+02  0.10500000000E+00 0. -1.
</event>
<event>
11    0  0.3515428E-009  0.9118800E+02  0.7816531E-02  0.1126479E+00
         25   -1    0    0    0    0  0.00000000000E+00  0.00000000000E+00  0.99999998245E-14  0.12500000000E+03  0.12500000000E+03 0.  0.
    3000001    1    3    3    0    0 -0.48630614434E+01 -0.24085584578E+02 -0.29457244027E+02  0.38373089226E+02  0.10000000000E+01 0.  1.
    1000022    2    1    0    0    0 -0.52223489626E+01 -0.44302182385E+02 -0.42617996824E+02  0.62500000112E+02  0.10000003395E+02 0.  0.
    3000022    2    3    3    0    0 -0.35928751914E+00 -0.20216597807E+02 -0.13160752797E+02  0.24126910886E+02  0.25000058558E+00 0.  0.
    1000022    2    1    0    0    0  0.52223489626E+01  0.44302182385E+02  0.42617996824E+02  0.62499999888E+02  0.10000001996E+02 0.  0.
    3000022    2    5    5    0    0  0.38498398330E+01  0.17276202433E+02  0.10873064406E+02  0.20774370979E+02  0.25004542702E+00 0.  0.
        -13    1    4    4    0    0 -0.10463146175E+00 -0.79117442477E+01 -0.52107136784E+01  0.94746613039E+01  0.10500000000E+00 0.  1.
         13    1    4    4    0    0 -0.25465605739E+00 -0.12304853560E+02 -0.79500391191E+01  0.14652249582E+02  0.10500000000E+00 0. -1.
    3000001    1    5    5    0    0  0.13725091296E+01  0.27025979952E+02  0.31744932418E+02  0.41725628910E+02  0.10000000000E+01 0. -1.
        -13    1    6    6    0    0  0.23902309303E+01  0.10615987293E+02  0.66179145843E+01  0.12736569733E+02  0.10500000000E+00 0. -1.
         13    1    6    6    0    0  0.14596089026E+01  0.66602151401E+01  0.42551498218E+01  0.80378012458E+01  0.10500000000E+00 0.  1.
</event>
<event>
11    0  0.3515428E-009  0.9118800E+02  0.7816531E-02  0.1126479E+00
         25   -1    0    0    0    0  0.00000000000E+00  0.00000000000E+00  0.99999998245E-14  0.12500000000E+03  0.12500000000E+03 0.  0.
    3000001    1    3    3    0    0  0.44192313291E+01  0.76353717346E+01 -0.14396241818E+02  0.16913908051E+02  0.10000000000E+01 0. -1.
    1000022    2    1    0    0    0  0.22087214097E+01  0.35449408966E+02 -0.50445128400E+02  0.62499999629E+02  0.99999964015E+01 0.  0.
    3000022    2    3    3    0    0 -0.22105099194E+01  0.27814037231E+02 -0.36048886582E+02  0.45586091578E+02  0.25000073954E+00 0.  0.
    1000022    2    1    0    0    0 -0.22087214097E+01 -0.35449408966E+02  0.50445128400E+02  0.62500000371E+02  0.10000001043E+02 0.  0.
    3000022    2    5    5    0    0  0.10055874406E+01 -0.16958232329E+01  0.37648455672E+00  0.20226870424E+01  0.24999942385E+00 0.  0.
        -13    1    4    4    0    0 -0.16699201945E+01  0.20725462991E+02 -0.26833684813E+02  0.33946886680E+02  0.10500000000E+00 0. -1.
         13    1    4    4    0    0 -0.54058972489E+00  0.70885742405E+01 -0.92152017687E+01  0.11639204898E+02  0.10500000000E+00 0.  1.
    3000001    1    5    5    0    0 -0.32143088503E+01 -0.33753585733E+02  0.50068643843E+02  0.60477313329E+02  0.10000000000E+01 0. -1.
        -13    1    6    6    0    0  0.38753790463E+00 -0.59694782183E+00  0.18825143569E+00  0.74363696288E+00  0.10500000000E+00 0. -1.
         13    1    6    6    0    0  0.61804953596E+00 -0.10988754111E+01  0.18823312103E+00  0.12790500795E+01  0.10500000000E+00 0.  1.
</event>
<event>
11    0  0.3515428E-009  0.9118800E+02  0.7816531E-02  0.1126479E+00
         25   -1    0    0    0    0  0.00000000000E+00  0.00000000000E+00  0.99999998245E-14  0.12500000000E+03  0.12500000000E+03 0.  0.
    3000001    1    3    3    0    0  0.27687405874E+01 -0.94889175320E+01 -0.56935087575E+02  0.57795412253E+02  0.10000000000E+01 0.  1.
    1000022    2    1    0    0    0  0.42879623259E+00 -0.92224645936E+01 -0.61000100816E+02  0.62500000215E+02  0.10000000396E+02 0.  0.
    3000022    2    3    3    0    0 -0.23399443548E+01  0.26645293837E+00 -0.40650132411E+01  0.47045879617E+01  0.24995697137E+00 0.  0.
    1000022    2    1    0    0    0 -0.42879623259E+00  0.92224645936E+01  0.61000100816E+02  0.62499999785E+02  0.99999977090E+01 0.  0.
    3000022    2    5    5    0    0 -0.32875245237E+01 -0.63193499218E-01  0.88774047824E+01  0.94700910969E+01  0.24999760255E+00 0.  0.
        -13    1    4    4    0    0 -0.16502934850E+01  0.19338883835E+00 -0.27708569826E+01  0.32325750181E+01  0.10500000000E+00 0. -1.
         13    1    4    4    0    0 -0.68965086980E+00  0.73064100020E-01 -0.12941562585E+01  0.14720129437E+01  0.10500000000E+00 0.  1.
    3000001    1    5    5    0    0  0.28587282911E+01  0.92856580929E+01  0.52122696034E+02  0.53029908688E+02  0.10000000000E+01 0.  1.
        -13    1    6    6    0    0 -0.23530900583E+01 -0.69323614055E-01  0.64405883353E+01  0.68581368964E+01  0.10500000000E+00 0.  1.
         13    1    6    6    0    0 -0.93443446539E+00  0.61301148375E-02  0.24368164471E+01  0.26119542005E+01  0.10500000000E+00 0. -1.
</event>
<event>
11    0  0.3515428E-009  0.9118800E+02  0.7816531E-02  0.1126479E+00
         25   -1    0    0    0    0  0.00000000000E+00  0.00000000000E+00  0.99999998245E-14  0.12500000000E+03  0.12500000000E+03 0.  0.
    3000001    1    3    3    0    0 -0.25760893371E+02 -0.79047219768E+01  0.21007799056E+02  0.34182391344E+02  0.10000000000E+01 0. -1.
    1000022    2    1    0    0    0 -0.41123483538E+02 -0.20637172310E+02  0.41100081756E+02  0.62499997017E+02  0.99999563762E+01 0.  0.
    3000022    2    3    3    0    0 -0.15362590167E+02 -0.12732450333E+02  0.20092282700E+02  0.28317605673E+02  0.24999768755E+00 0.  0.
    1000022    2    1    0    0    0  0.41123483538E+02  0.20637172310E+02 -0.41100081756E+02  0.62500002983E+02  0.99999936625E+01 0.  0.
    3000022    2    5    5    0    0  0.33055122356E+01 -0.32869386873E+00 -0.57252064853E+01  0.66238157608E+01  0.24999026944E+00 0.  0.
        -13    1    4    4    0    0 -0.89477498793E+01 -0.74407424172E+01  0.11630752600E+02  0.16453337250E+02  0.10500000000E+00 0. -1.
         13    1    4    4    0    0 -0.64148402877E+01 -0.52917079161E+01  0.84615301004E+01  0.11864268424E+02  0.10500000000E+00 0.  1.
    3000001    1    5    5    0    0  0.37817971302E+02  0.20965866179E+02 -0.35374875271E+02  0.55876187222E+02  0.10000000000E+01 0.  1.
        -13    1    6    6    0    0  0.23436670018E+01 -0.27262804413E+00 -0.40246889511E+01  0.46665026753E+01  0.10500000000E+00 0. -1.
         13    1    6    6    0    0  0.96184523387E+00 -0.56065824600E-01 -0.17005175342E+01  0.19573130856E+01  0.10500000000E+00 0.  1.
</event>
<event>
11    0  0.3515428E-009  0.9118800E+02  0.7816531E-02  0.1126479E+00
         25   -1    0    0    0    0  0.00000000000E+00  0.00000000000E+00  0.99999998245E-14  0.12500000000E+03  0.12500000000E+03 0.  0.
    3000001    1    3    3    0    0 -0.77222058293E+01 -0.43406579557E+02  0.18997940427E+02  0.48017552543E+02  0.10000000000E+01 0. -1.
    1000022    2    1    0    0    0 -0.15167333456E+02 -0.54824709103E+02  0.23884164783E+02  0.62500000445E+02  0.99999997881E+01 0.  0.
    3000022    2    3    3    0    0 -0.74451276264E+01 -0.11418129546E+02  0.48862243557E+01  0.14482447902E+02  0.25000212913E+00 0.  0.
    1000022    2    1    0    0    0  0.15167333456E+02  0.54824709103E+02 -0.23884164783E+02  0.62499999555E+02  0.99999942294E+01 0.  0.
    3000022    2    5    5    0    0  0.11616159134E+02  0.26057606053E+02 -0.91013349928E+01  0.29947133113E+02  0.24999363109E+00 0.  0.
        -13    1    4    4    0    0 -0.42892863863E+01 -0.65842449087E+01  0.27476978157E+01  0.83253304444E+01  0.10500000000E+00 0.  1.
         13    1    4    4    0    0 -0.31558412401E+01 -0.48338846375E+01  0.21385265401E+01  0.61571174574E+01  0.10500000000E+00 0. -1.
    3000001    1    5    5    0    0  0.35511743217E+01  0.28767103050E+02 -0.14782829790E+02  0.32552866442E+02  0.10000000000E+01 0.  1.
        -13    1    6    6    0    0  0.35199486936E+01  0.80118954139E+01 -0.27852428201E+01  0.91841771268E+01  0.10500000000E+00 0. -1.
         13    1    6    6    0    0  0.80962104404E+01  0.18045710639E+02 -0.63160921727E+01  0.20762955987E+02  0.10500000000E+00 0.  1.
</event>
<event>
11    0  0.3515428E-009  0.9118800E+02  0.7816531E-02  0.1126479E+00
         25   -1    0    0    0    0  0.00000000000E+00  0.00000000000E+00  0.99999998245E-14  0.12500000000E+03  0.12500000000E+03 0.  0.
    3000001    1    3    3    0    0 -0.57451319589E+01  0.73807149164E+01  0.92867568473E+01  0.13218371558E+02  0.10000000000E+01 0. -1.
    1000022    2    1    0    0    0 -0.31764680963E+02  0.17627179529E+02  0.49865193170E+02  0.62500000625E+02  0.10000008673E+02 0.  0.
    3000022    2    3    3    0    0 -0.26019549004E+02  0.10246464613E+02  0.40578436322E+02  0.49281629067E+02  0.25000341394E+00 0.  0.
    1000022    2    1    0    0    0  0.31764680963E+02 -0.17627179529E+02 -0.49865193170E+02  0.62499999375E+02  0.10000000858E+02 0.  0.
    3000022    2    5    5    0    0  0.92611249055E+01 -0.82748384865E+01 -0.10875111812E+02  0.16509752990E+02  0.25000077687E+00 0.  0.
        -13    1    4    4    0    0 -0.18069301619E+02  0.70810952023E+01  0.28222114180E+02  0.34251136098E+02  0.10500000000E+00 0. -1.
         13    1    4    4    0    0 -0.79502473856E+01  0.31653694104E+01  0.12356322143E+02  0.15030492969E+02  0.10500000000E+00 0.  1.
    3000001    1    5    5    0    0  0.22503556058E+02 -0.93523410427E+01 -0.38990081358E+02  0.45990246384E+02  0.10000000000E+01 0. -1.
        -13    1    6    6    0    0  0.46531111111E+01 -0.41711968287E+01 -0.55610922668E+01  0.83658291996E+01  0.10500000000E+00 0.  1.
         13    1    6    6    0    0  0.46080137944E+01 -0.41036416578E+01 -0.53140195453E+01  0.81439237909E+01  0.10500000000E+00 0. -1.
</event>
<event>
11    0  0.3515428E-009  0.9118800E+02  0.7816531E-02  0.1126479E+00
         25   -1    0    0    0    0  0.00000000000E+00  0.00000000000E+00  0.99999998245E-14  0.12500000000E+03  0.12500000000E+03 0.  0.
    3000001    1    3    3    0    0 -0.25327156634E+02  0.12740688307E+02 -0.23159584826E+02  0.36621801854E+02  0.10000000000E+01 0.  1.
    1000022    2    1    0    0    0 -0.41637054859E+02  0.28744633931E+02 -0.35303703248E+02  0.62500000470E+02  0.10000013930E+02 0.  0.
    3000022    2    3    3    0    0 -0.16309898224E+02  0.16003945624E+02 -0.12144118422E+02  0.25878198616E+02  0.24999148180E+00 0.  0.
    1000022    2    1    0    0    0  0.41637054859E+02 -0.28744633931E+02  0.35303703248E+02  0.62499999530E+02  0.10000008059E+02 0.  0.
    3000022    2    5    5    0    0  0.41799643050E+02 -0.28150035769E+02  0.34379626292E+02  0.61005375794E+02  0.24999774344E+00 0.  0.
        -13    1    4    4    0    0 -0.62944555443E+01  0.60996209542E+01 -0.46273424722E+01  0.99120567865E+01  0.10500000000E+00 0.  1.
         13    1    4    4    0    0 -0.10015442680E+02  0.99043246698E+01 -0.75167759497E+01  0.15966141829E+02  0.10500000000E+00 0. -1.
    3000001    1    5    5    0    0 -0.16258819124E+00 -0.59459816189E+00  0.92407695597E+00  0.14946237368E+01  0.10000000000E+01 0.  1.
        -13    1    6    6    0    0  0.28436834379E+02 -0.19209373774E+02  0.23394142801E+02  0.41532523794E+02  0.10500000000E+00 0.  1.
         13    1    6    6    0    0  0.13362808671E+02 -0.89406619952E+01  0.10985483491E+02  0.19472852000E+02  0.10500000000E+00 0. -1.
</event>
<event>
11    0  0.3515428E-009  0.9118800E+02  0.7816531E-02  0.1126479E+00
         25   -1    0    0    0    0  0.00000000000E+00  0.00000000000E+00  0.99999998245E-14  0.12500000000E+03  0.12500000000E+03 0.  0.
    3000001    1    3    3    0    0 -0.47120634477E+02 -0.28350207074E+01 -0.83601262531E+01  0.47950841983E+02  0.10000000000E+01 0. -1.
    1000022    2    1    0    0    0 -0.60073011337E+02  0.56707104341E+00 -0.14041418717E+02  0.62499995812E+02  0.99999888108E+01 0.  0.
    3000022    2    3    3    0    0 -0.12952376860E+02  0.34020917508E+01 -0.56812924634E+01  0.14549153829E+02  0.24999693157E+00 0.  0.
    1000022    2    1    0    0    0  0.60073011337E+02 -0.56707104341E+00  0.14041418717E+02  0.62500004188E+02  0.10000041160E+02 0.  0.
    3000022    2    5    5    0    0  0.54709956503E+02  0.19348814851E+01  0.13964258992E+02  0.56497664874E+02  0.25000027357E+00 0.  0.
        -13    1    4    4    0    0 -0.40061573015E+01  0.10413329756E+01 -0.17053435925E+01  0.44780456071E+01  0.10500000000E+00 0. -1.
         13    1    4    4    0    0 -0.89462195589E+01  0.23607587752E+01 -0.39759488709E+01  0.10071108222E+02  0.10500000000E+00 0.  1.
    3000001    1    5    5    0    0  0.53630548344E+01 -0.25019525285E+01  0.77159724406E-01  0.60023393135E+01  0.10000000000E+01 0. -1.
        -13    1    6    6    0    0  0.34808354885E+02  0.11915500376E+01  0.88393611840E+01  0.35933086319E+02  0.10500000000E+00 0. -1.
         13    1    6    6    0    0  0.19901601618E+02  0.74333144753E+00  0.51248978081E+01  0.20564578555E+02  0.10500000000E+00 0.  1.
</event>
<event>
11    0  0.3515428E-009  0.9118800E+02  0.7816531E-02  0.1126479E+00
         25   -1    0    0    0    0  0.00000000000E+00  0.00000000000E+00  0.99999998245E-14  0.12500000000E+03  0.12500000000E+03 0.  0.
    3000001    1    3    3    0    0  0.11029080903E+02 -0.19611910306E+02 -0.76530342805E+01  0.23787319839E+02  0.10000000000E+01 0. -1.
    1000022    2    1    0    0    0  0.32634642623E+02 -0.51730975687E+02 -0.80707049057E+01  0.62499999989E+02  0.99999988163E+01 0.  0.
    3000022    2    3    3    0    0  0.21605561720E+02 -0.32119065381E+02 -0.41767062515E+00  0.38712680151E+02  0.24999499548E+00 0.  0.
    1000022    2    1    0    0    0 -0.32634642623E+02  0.51730975687E+02  0.80707049057E+01  0.62500000011E+02  0.99999989486E+01 0.  0.
    3000022    2    5    5    0    0 -0.14636535769E+02  0.14681677589E+02  0.37937775051E+01  0.21076885112E+02  0.25000426904E+00 0.  0.
        -13    1    4    4    0    0  0.75525181385E+01 -0.11292884322E+02 -0.19001704066E+00  0.13587380101E+02  0.10500000000E+00 0.  1.
         13    1    4    4    0    0  0.14053043581E+02 -0.20826181059E+02 -0.22765358450E+00  0.25125300049E+02  0.10500000000E+00 0. -1.
    3000001    1    5    5    0    0 -0.17998106854E+02  0.37049298098E+02  0.42769274005E+01  0.41423114898E+02  0.10000000000E+01 0. -1.
        -13    1    6    6    0    0 -0.67109985405E+01  0.68235147823E+01  0.17691975439E+01  0.97333930540E+01  0.10500000000E+00 0.  1.
         13    1    6    6    0    0 -0.79255372283E+01  0.78581628070E+01  0.20245799612E+01  0.11343492058E+02  0.10500000000E+00 0. -1.
</event>
<event>
11    0  0.3515428E-009  0.9118800E+02  0.7816531E-02  0.1126479E+00
         25   -1    0    0    0    0  0.00000000000E+00  0.00000000000E+00  0.99999998245E-14  0.12500000000E+03  0.12500000000E+03 0.  0.
    3000001    1    3    3    0    0  0.17662123928E+02  0.30538897459E+02  0.25765885107E+02  0.43697319312E+02  0.10000000000E+01 0. -1.
    1000022    2    1    0    0    0  0.30610257183E+02  0.40349578701E+02  0.35230284682E+02  0.62500004762E+02  0.10000064514E+02 0.  0.
    3000022    2    3    3    0    0  0.12948133254E+02  0.98106812423E+01  0.94643995746E+01  0.18802685450E+02  0.24999923319E+00 0.  0.
    1000022    2    1    0    0    0 -0.30610257183E+02 -0.40349578701E+02 -0.35230284682E+02  0.62499995238E+02  0.10000004995E+02 0.  0.
    3000022    2    5    5    0    0 -0.25585872016E+02 -0.29508524685E+02 -0.22780737266E+02  0.45215200494E+02  0.24997892671E+00 0.  0.
        -13    1    4    4    0    0  0.36829964340E+01  0.27583300953E+01  0.26445515101E+01  0.53082506852E+01  0.10500000000E+00 0. -1.
         13    1    4    4    0    0  0.92651368201E+01  0.70523511470E+01  0.68198480645E+01  0.13494434765E+02  0.10500000000E+00 0.  1.
    3000001    1    5    5    0    0 -0.50243851669E+01 -0.10841054016E+02 -0.12449547416E+02  0.17284794745E+02  0.10000000000E+01 0. -1.
        -13    1    6    6    0    0 -0.13601756694E+02 -0.15684826665E+02 -0.12187430615E+02  0.24074178338E+02  0.10500000000E+00 0. -1.
         13    1    6    6    0    0 -0.11984115322E+02 -0.13823698020E+02 -0.10593306651E+02  0.21141022156E+02  0.10500000000E+00 0.  1.
</event>
<event>
11    0  0.3515428E-009  0.9118800E+02  0.7816531E-02  0.1126479E+00
         25   -1    0    0    0    0  0.00000000000E+00  0.00000000000E+00  0.99999998245E-14  0.12500000000E+03  0.12500000000E+03 0.  0.
    3000001    1    3    3    0    0 -0.20326577044E+01  0.27696055740E+02 -0.42716599678E+02  0.50959896870E+02  0.10000000000E+01 0.  1.
    1000022    2    1    0    0    0 -0.59895267187E+01  0.35860523765E+02 -0.49843739673E+02  0.62499999657E+02  0.99999988780E+01 0.  0.
    3000022    2    3    3    0    0 -0.39568690143E+01  0.81644680255E+01 -0.71271399948E+01  0.11540102788E+02  0.24999463010E+00 0.  0.
    1000022    2    1    0    0    0  0.59895267187E+01 -0.35860523765E+02  0.49843739673E+02  0.62500000343E+02  0.10000003160E+02 0.  0.
    3000022    2    5    5    0    0  0.85751541755E+01 -0.25056751857E+02  0.33309332622E+02  0.42555237288E+02  0.24999625601E+00 0.  0.
        -13    1    4    4    0    0 -0.17575952871E+01  0.34834425358E+01 -0.30903412964E+01  0.49784282080E+01  0.10500000000E+00 0.  1.
         13    1    4    4    0    0 -0.21992737273E+01  0.46810254896E+01 -0.40367986984E+01  0.65616745800E+01  0.10500000000E+00 0. -1.
    3000001    1    5    5    0    0 -0.25856274568E+01 -0.10803771908E+02  0.16534407051E+02  0.19944763055E+02  0.10000000000E+01 0. -1.
        -13    1    6    6    0    0  0.36073218576E+01 -0.10717484116E+02  0.14273431634E+02  0.18210412196E+02  0.10500000000E+00 0.  1.
         13    1    6    6    0    0  0.49678323178E+01 -0.14339267741E+02  0.19035900988E+02  0.24344825091E+02  0.10500000000E+00 0. -1.
</event>
<event>
11    0  0.3515428E-009  0.9118800E+02  0.7816531E-02  0.1126479E+00
         25   -1    0    0    0    0  0.00000000000E+00  0.00000000000E+00  0.99999998245E-14  0.12500000000E+03  0.12500000000E+03 0.  0.
    3000001    1    3    3    0    0  0.71749206884E+00 -0.59920020128E+01 -0.13873779212E+02  0.15162474488E+02  0.10000000000E+01 0. -1.
    1000022    2    1    0    0    0  0.17832903577E+02 -0.15884024096E+02 -0.56885283092E+02  0.62500000677E+02  0.99999990392E+01 0.  0.
    3000022    2    3    3    0    0  0.17115411508E+02 -0.98920220832E+01 -0.43011503880E+02  0.47337526189E+02  0.25001541551E+00 0.  0.
    1000022    2    1    0    0    0 -0.17832903577E+02  0.15884024096E+02  0.56885283092E+02  0.62499999323E+02  0.99999905740E+01 0.  0.
    3000022    2    5    5    0    0 -0.15031249096E+02  0.12849980315E+02  0.53590284797E+02  0.57123038913E+02  0.25001300401E+00 0.  0.
        -13    1    4    4    0    0  0.13033196008E+02 -0.75336364420E+01 -0.32795343272E+02  0.36085529531E+02  0.10500000000E+00 0.  1.
         13    1    4    4    0    0  0.40822154996E+01 -0.23583856412E+01 -0.10216160608E+02  0.11251996657E+02  0.10500000000E+00 0. -1.
    3000001    1    5    5    0    0 -0.28016544805E+01  0.30340437806E+01  0.32949982947E+01  0.53769604102E+01  0.10000000000E+01 0. -1.
        -13    1    6    6    0    0 -0.11047500335E+02  0.94567498435E+01  0.39313435958E+02  0.41916997186E+02  0.10500000000E+00 0. -1.
         13    1    6    6    0    0 -0.39837487618E+01  0.33932304719E+01  0.14276848839E+02  0.15206041727E+02  0.10500000000E+00 0.  1.
</event>
<event>
11    0  0.3515428E-009  0.9118800E+02  0.7816531E-02  0.1126479E+00
         25   -1    0    0    0    0  0.00000000000E+00  0.00000000000E+00  0.99999998245E-14  0.12500000000E+03  0.12500000000E+03 0.  0.
    3000001    1    3    3    0    0  0.14140348811E+02  0.10040935388E+02  0.10090092339E+02  0.20089295940E+02  0.10000000000E+01 0. -1.
    1000022    2    1    0    0    0  0.52331219912E+02  0.23089810377E+02  0.23120426804E+02  0.62500000809E+02  0.10000002236E+02 0.  0.
    3000022    2    3    3    0    0  0.38190871102E+02  0.13048874989E+02  0.13030334464E+02  0.42410704868E+02  0.24999438643E+00 0.  0.
    1000022    2    1    0    0    0 -0.52331219912E+02 -0.23089810377E+02 -0.23120426804E+02  0.62499999191E+02  0.99999921289E+01 0.  0.
    3000022    2    5    5    0    0 -0.29264160829E+02 -0.17867098712E+02 -0.15525160395E+02  0.37639307252E+02  0.25003941741E+00 0.  0.
        -13    1    4    4    0    0  0.11798079623E+02  0.40039767740E+01  0.39799223893E+01  0.13079652902E+02  0.10500000000E+00 0. -1.
         13    1    4    4    0    0  0.26392791478E+02  0.90448982151E+01  0.90504120751E+01  0.29331051967E+02  0.10500000000E+00 0.  1.
    3000001    1    5    5    0    0 -0.23067059083E+02 -0.52227116653E+01 -0.75952664089E+01  0.24860691939E+02  0.10000000000E+01 0. -1.
        -13    1    6    6    0    0 -0.86017077996E+01 -0.52385731065E+01 -0.46072421535E+01  0.11075636800E+02  0.10500000000E+00 0.  1.
         13    1    6    6    0    0 -0.20662453030E+02 -0.12628525606E+02 -0.10917918241E+02  0.26563670452E+02  0.10500000000E+00 0. -1.
</event>
<event>
11    0  0.3515428E-009  0.9118800E+02  0.7816531E-02  0.1126479E+00
         25   -1    0    0    0    0  0.00000000000E+00  0.00000000000E+00  0.99999998245E-14  0.12500000000E+03  0.12500000000E+03 0.  0.
    3000001    1    3    3    0    0 -0.41383013610E+02 -0.34714479590E+01  0.45443523949E+01  0.41788226871E+02  0.10000000000E+01 0. -1.
    1000022    2    1    0    0    0 -0.61092466468E+02  0.15397170119E+01  0.84610948170E+01  0.62500003058E+02  0.10000003454E+02 0.  0.
    3000022    2    3    3    0    0 -0.19709452859E+02  0.50111649709E+01  0.39167424222E+01  0.20711776187E+02  0.24999051200E+00 0.  0.
    1000022    2    1    0    0    0  0.61092466468E+02 -0.15397170119E+01 -0.84610948170E+01  0.62499996942E+02  0.99999652277E+01 0.  0.
    3000022    2    5    5    0    0  0.43495288386E+01 -0.22534652361E+01 -0.22773202000E+01  0.54078829864E+01  0.25000882565E+00 0.  0.
        -13    1    4    4    0    0 -0.55218807165E+01  0.14388015476E+01  0.10775206056E+01  0.58080454713E+01  0.10500000000E+00 0.  1.
         13    1    4    4    0    0 -0.14187572142E+02  0.35723634232E+01  0.28392218165E+01  0.14903730716E+02  0.10500000000E+00 0. -1.
    3000001    1    5    5    0    0  0.56742937630E+02  0.71374822424E+00 -0.61837746170E+01  0.57092113955E+02  0.10000000000E+01 0.  1.
        -13    1    6    6    0    0  0.19019914078E+01 -0.10381693412E+01 -0.95576925425E+00  0.23706300352E+01  0.10500000000E+00 0. -1.
         13    1    6    6    0    0  0.24475374308E+01 -0.12152958950E+01 -0.13215509457E+01  0.30372529513E+01  0.10500000000E+00 0.  1.
</event>
<event>
11    0  0.3515428E-009  0.9118800E+02  0.7816531E-02  0.1126479E+00
         25   -1    0    0    0    0  0.00000000000E+00  0.00000000000E+00  0.99999998245E-14  0.12500000000E+03  0.12500000000E+03 0.  0.
    3000001    1    3    3    0    0  0.18087352495E+02 -0.46056621449E+02 -0.90377432220E+01  0.50309497136E+02  0.10000000000E+01 0.  1.
    1000022    2    1    0    0    0  0.18047620096E+02 -0.58238344146E+02 -0.94248930501E+01  0.62499998944E+02  0.99999969466E+01 0.  0.
    3000022    2    3    3    0    0 -0.39732398955E-01 -0.12181722698E+02 -0.38714982808E+00  0.12190501808E+02  0.25000557206E+00 0.  0.
    1000022    2    1    0    0    0 -0.18047620096E+02  0.58238344146E+02  0.94248930501E+01  0.62500001056E+02  0.10000010147E+02 0.  0.
    3000022    2    5    5    0    0 -0.11720259240E+01  0.17492261725E+02  0.80384376956E+00  0.17551681821E+02  0.25000983277E+00 0.  0.
        -13    1    4    4    0    0  0.40756579011E-01 -0.40988715319E+01 -0.12979269431E+00  0.41024724347E+01  0.10500000000E+00 0. -1.
         13    1    4    4    0    0 -0.80488977966E-01 -0.80828511658E+01 -0.25735713378E+00  0.80880293730E+01  0.10500000000E+00 0.  1.
    3000001    1    5    5    0    0 -0.16875594172E+02  0.40746082421E+02  0.86210492805E+01  0.44948319235E+02  0.10000000000E+01 0. -1.
        -13    1    6    6    0    0 -0.43450677121E+00  0.57056429197E+01  0.26055968854E+00  0.57290552112E+01  0.10500000000E+00 0.  1.
         13    1    6    6    0    0 -0.73751915283E+00  0.11786618806E+02  0.54328408102E+00  0.11822626610E+02  0.10500000000E+00 0. -1.
</event>
<event>
11    0  0.3515428E-009  0.9118800E+02  0.7816531E-02  0.1126479E+00
         25   -1    0    0    0    0  0.00000000000E+00  0.00000000000E+00  0.99999998245E-14  0.12500000000E+03  0.12500000000E+03 0.  0.
    3000001    1    3    3    0    0 -0.58894686026E+01  0.15736311388E+01  0.71092170587E+00  0.62183249395E+01  0.10000000000E+01 0. -1.
    1000022    2    1    0    0    0 -0.46375759550E+02  0.40660839517E+02  0.14949604485E+01  0.62499998922E+02  0.10000000726E+02 0.  0.
    3000022    2    3    3    0    0 -0.40486290947E+02  0.39087208378E+02  0.78403874259E+00  0.56281673983E+02  0.24999222460E+00 0.  0.
    1000022    2    1    0    0    0  0.46375759550E+02 -0.40660839517E+02 -0.14949604485E+01  0.62500001078E+02  0.10000014198E+02 0.  0.
    3000022    2    5    5    0    0  0.32926993593E+02 -0.32514442160E+02 -0.43804332698E+01  0.46482540322E+02  0.25000625832E+00 0.  0.
        -13    1    4    4    0    0 -0.26624625664E+02  0.25780428266E+02  0.50935209117E+00  0.37064425503E+02  0.10500000000E+00 0.  1.
         13    1    4    4    0    0 -0.13861665284E+02  0.13306780112E+02  0.27468665142E+00  0.19217248480E+02  0.10500000000E+00 0. -1.
    3000001    1    5    5    0    0  0.13448765956E+02 -0.81463973569E+01  0.28854728214E+01  0.16017460755E+02  0.10000000000E+01 0.  1.
        -13    1    6    6    0    0  0.23318744550E+02 -0.23011330829E+02 -0.30587836269E+01  0.32903683323E+02  0.10500000000E+00 0. -1.
         13    1    6    6    0    0  0.96082490430E+01 -0.95031113307E+01 -0.13216496429E+01  0.13578857000E+02  0.10500000000E+00 0.  1.
</event>
<event>
11    0  0.3515428E-009  0.9118800E+02  0.7816531E-02  0.1126479E+00
         25   -1    0    0    0    0  0.00000000000E+00  0.00000000000E+00  0.99999998245E-14  0.12500000000E+03  0.12500000000E+03 0.  0.
    3000001    1    3    3    0    0  0.18859939896E+02 -0.14577704114E+02  0.52565298262E+01  0.24430265981E+02  0.10000000000E+01 0. -1.
    1000022    2    1    0    0    0  0.54150147585E+02 -0.26488452941E+02  0.13129105642E+02  0.62500000223E+02  0.99999995094E+01 0.  0.
    3000022    2    3    3    0    0  0.35290207689E+02 -0.11910748827E+02  0.78725758160E+01  0.38069734242E+02  0.25003772271E+00 0.  0.
    1000022    2    1    0    0    0 -0.54150147585E+02  0.26488452941E+02 -0.13129105642E+02  0.62499999777E+02  0.99999967199E+01 0.  0.
    3000022    2    5    5    0    0 -0.11299294018E+02  0.23851224590E+01 -0.52882121340E+01  0.12703957737E+02  0.25000033507E+00 0.  0.
        -13    1    4    4    0    0  0.16246308126E+02 -0.55535998667E+01  0.36205298312E+01  0.17547200930E+02  0.10500000000E+00 0. -1.
         13    1    4    4    0    0  0.19043899563E+02 -0.63571489608E+01  0.42520459848E+01  0.20522533312E+02  0.10500000000E+00 0.  1.
    3000001    1    5    5    0    0 -0.42850853567E+02  0.24103330482E+02 -0.78408935082E+01  0.49796042040E+02  0.10000000000E+01 0.  1.
        -13    1    6    6    0    0 -0.49464637832E+01  0.10305988748E+01 -0.22427681421E+01  0.55290751431E+01  0.10500000000E+00 0.  1.
         13    1    6    6    0    0 -0.63528302348E+01  0.13545235842E+01 -0.30454439919E+01  0.71748825942E+01  0.10500000000E+00 0. -1.
</event>
<event>
11    0  0.3515428E-009  0.9118800E+02  0.7816531E-02  0.1126479E+00
         25   -1    0    0    0    0  0.00000000000E+00  0.00000000000E+00  0.99999998245E-14  0.12500000000E+03  0.12500000000E+03 0.  0.
    3000001    1    3    3    0    0 -0.38386360567E+01  0.20105745878E+02  0.84647220378E+01  0.22172678306E+02  0.10000000000E+01 0. -1.
    1000022    2    1    0    0    0 -0.22335406647E+02  0.50805160074E+02  0.26948389113E+02  0.62500001475E+02  0.99999914226E+01 0.  0.
    3000022    2    3    3    0    0 -0.18496770590E+02  0.30699414195E+02  0.18483667075E+02  0.40327323169E+02  0.24998247315E+00 0.  0.
    1000022    2    1    0    0    0  0.22335406647E+02 -0.50805160074E+02 -0.26948389113E+02  0.62499998525E+02  0.99999729816E+01 0.  0.
    3000022    2    5    5    0    0  0.65931475307E+01 -0.26878467688E+02 -0.11835940031E+02  0.30101056445E+02  0.25000622929E+00 0.  0.
        -13    1    4    4    0    0 -0.72636647601E+01  0.12154972305E+02  0.73427726642E+01  0.15950909469E+02  0.10500000000E+00 0. -1.
         13    1    4    4    0    0 -0.11233105830E+02  0.18544441891E+02  0.11140894411E+02  0.24376413701E+02  0.10500000000E+00 0.  1.
    3000001    1    5    5    0    0  0.15742259116E+02 -0.23926692386E+02 -0.15112449081E+02  0.32398942079E+02  0.10000000000E+01 0. -1.
        -13    1    6    6    0    0  0.20791813587E+01 -0.85917172003E+01 -0.38268720429E+01  0.96330978508E+01  0.10500000000E+00 0. -1.
         13    1    6    6    0    0  0.45139661720E+01 -0.18286750487E+02 -0.80090679885E+01  0.20467958595E+02  0.10500000000E+00 0.  1.
</event>
<event>
11    0  0.3515428E-009  0.9118800E+02  0.7816531E-02  0.1126479E+00
         25   -1    0    0    0    0  0.00000000000E+00  0.00000000000E+00  0.99999998245E-14  0.12500000000E+03  0.12500000000E+03 0.  0.
    3000001    1    3    3    0    0 -0.42374147093E+02  0.31110039009E+02 -0.19369468529E+02  0.56031947852E+02  0.10000000000E+01 0.  1.
    1000022    2    1    0    0    0 -0.48029136636E+02  0.34080441297E+02 -0.18384133129E+02  0.62499991402E+02  0.99999064624E+01 0.  0.
    3000022    2    3    3    0    0 -0.56549895440E+01  0.29704022881E+01  0.98533539958E+00  0.64680435501E+01  0.25001004223E+00 0.  0.
    1000022    2    1    0    0    0  0.48029136636E+02 -0.34080441297E+02  0.18384133129E+02  0.62500008598E+02  0.10000013942E+02 0.  0.
    3000022    2    5    5    0    0  0.46545363718E+02 -0.30749036579E+02  0.16020004719E+02  0.58040306522E+02  0.24999161180E+00 0.  0.
        -13    1    4    4    0    0 -0.31056194292E+01  0.16932383974E+01  0.58353575948E+00  0.35865676199E+01  0.10500000000E+00 0. -1.
         13    1    4    4    0    0 -0.25493701147E+01  0.12771638906E+01  0.40179964010E+00  0.28814759302E+01  0.10500000000E+00 0.  1.
    3000001    1    5    5    0    0  0.14837729186E+01 -0.33314047175E+01  0.23641284108E+01  0.44597020762E+01  0.10000000000E+01 0. -1.
        -13    1    6    6    0    0  0.25019835416E+02 -0.16558460356E+02  0.86809581447E+01  0.31233713083E+02  0.10500000000E+00 0.  1.
         13    1    6    6    0    0  0.21525528302E+02 -0.14190576223E+02  0.73390465739E+01  0.26806593440E+02  0.10500000000E+00 0. -1.
</event>
<event>
11    0  0.3515428E-009  0.9118800E+02  0.7816531E-02  0.1126479E+00
         25   -1    0    0    0    0  0.00000000000E+00  0.00000000000E+00  0.99999998245E-14  0.12500000000E+03  0.12500000000E+03 0.  0.
    3000001    1    3    3    0    0 -0.35921772792E+02 -0.36160762053E+02  0.27999845977E+02  0.58163268886E+02  0.10000000000E+01 0.  1.
    1000022    2    1    0    0    0 -0.37617191063E+02 -0.40143768442E+02  0.27922652709E+02  0.62500000698E+02  0.10000017242E+02 0.  0.
    3000022    2    3    3    0    0 -0.16954182707E+01 -0.39830063891E+01 -0.77193268460E-01  0.43367318124E+01  0.25000200648E+00 0.  0.
    1000022    2    1    0    0    0  0.37617191063E+02  0.40143768442E+02 -0.27922652709E+02  0.62499999302E+02  0.10000008512E+02 0.  0.
    3000022    2    5    5    0    0  0.28726075860E+02  0.32237325656E+02 -0.26008005843E+02  0.50407454503E+02  0.25000365176E+00 0.  0.
        -13    1    4    4    0    0 -0.76326136144E+00 -0.18052154840E+01  0.31672358867E-01  0.19630076383E+01  0.10500000000E+00 0. -1.
         13    1    4    4    0    0 -0.93215690922E+00 -0.21777909051E+01 -0.10886562733E+00  0.23737241741E+01  0.10500000000E+00 0.  1.
    3000001    1    5    5    0    0  0.88911152028E+01  0.79064427859E+01 -0.19146468658E+01  0.12092544798E+02  0.10000000000E+01 0.  1.
        -13    1    6    6    0    0  0.18622331948E+02  0.20955307025E+02 -0.16934967214E+02  0.32752408755E+02  0.10500000000E+00 0.  1.
         13    1    6    6    0    0  0.10103743912E+02  0.11282018631E+02 -0.90730386288E+01  0.17655045749E+02  0.10500000000E+00 0. -1.
</event>
<event>
11    0  0.3515428E-009  0.9118800E+02  0.7816531E-02  0.1126479E+00
         25   -1    0    0    0    0  0.00000000000E+00  0.00000000000E+00  0.99999998245E-14  0.12500000000E+03  0.12500000000E+03 0.  0.
    3000001    1    3    3    0    0 -0.14987334471E+02 -0.81707255893E+01  0.29504490721E+02  0.34101259858E+02  0.10000000000E+01 0.  1.
    1000022    2    1    0    0    0 -0.19769012866E+02 -0.11513924081E+02  0.57296297594E+02  0.62500000141E+02  0.99999991054E+01 0.  0.
    3000022    2    3    3    0    0 -0.47816783953E+01 -0.33431984919E+01  0.27791806873E+02  0.28398740283E+02  0.24999184190E+00 0.  0.
    1000022    2    1    0    0    0  0.19769012866E+02  0.11513924081E+02 -0.57296297594E+02  0.62499999859E+02  0.99999973463E+01 0.  0.
    3000022    2    5    5    0    0  0.12803373153E+02  0.11829895522E+02 -0.34734658712E+02  0.38864274280E+02  0.25001475942E+00 0.  0.
        -13    1    4    4    0    0 -0.28648096365E+01 -0.19875578770E+01  0.16302078530E+02  0.16671122037E+02  0.10500000000E+00 0.  1.
         13    1    4    4    0    0 -0.19168687588E+01 -0.13556406148E+01  0.11489728343E+02  0.11727618246E+02  0.10500000000E+00 0. -1.
    3000001    1    5    5    0    0  0.69656397137E+01 -0.31597144032E+00 -0.22561638882E+02  0.23635725579E+02  0.10000000000E+01 0.  1.
        -13    1    6    6    0    0  0.82033680031E+01  0.76296136628E+01 -0.22420984646E+02  0.25064273951E+02  0.10500000000E+00 0.  1.
         13    1    6    6    0    0  0.46000051495E+01  0.42002818588E+01 -0.12313674066E+02  0.13800000329E+02  0.10500000000E+00 0. -1.
</event>
<event>
11    0  0.3515428E-009  0.9118800E+02  0.7816531E-02  0.1126479E+00
         25   -1    0    0    0    0  0.00000000000E+00  0.00000000000E+00  0.99999998245E-14  0.12500000000E+03  0.12500000000E+03 0.  0.
    3000001    1    3    3    0    0 -0.87891066540E+01  0.90349472128E+00 -0.81469960644E+01  0.12059777915E+02  0.10000000000E+01 0.  1.
    1000022    2    1    0    0    0 -0.43487076349E+02  0.23718000573E+02 -0.36777447529E+02  0.62500000336E+02  0.10000001738E+02 0.  0.
    3000022    2    3    3    0    0 -0.34697969695E+02  0.22814505852E+02 -0.28630451464E+02  0.50440222421E+02  0.25001729581E+00 0.  0.
    1000022    2    1    0    0    0  0.43487076349E+02 -0.23718000573E+02  0.36777447529E+02  0.62499999664E+02  0.99999975349E+01 0.  0.
    3000022    2    5    5    0    0  0.15427721882E+02 -0.43909315038E+01  0.81855963963E+01  0.18010035368E+02  0.25000727507E+00 0.  0.
        -13    1    4    4    0    0 -0.16811060240E+02  0.11016078797E+02 -0.13784253461E+02  0.24371754285E+02  0.10500000000E+00 0.  1.
         13    1    4    4    0    0 -0.17886909454E+02  0.11798427055E+02 -0.14846198004E+02  0.26068468136E+02  0.10500000000E+00 0. -1.
    3000001    1    5    5    0    0  0.28059354467E+02 -0.19327069070E+02  0.28591851132E+02  0.44489964296E+02  0.10000000000E+01 0.  1.
        -13    1    6    6    0    0  0.38260504078E+01 -0.10931855510E+01  0.20031942724E+01  0.44561787066E+01  0.10500000000E+00 0.  1.
         13    1    6    6    0    0  0.11601671474E+02 -0.32977459527E+01  0.61824021239E+01  0.13553856661E+02  0.10500000000E+00 0. -1.
</event>
<event>
11    0  0.3515428E-009  0.9118800E+02  0.7816531E-02  0.1126479E+00
         25   -1    0    0    0    0  0.00000000000E+00  0.00000000000E+00  0.99999998245E-14  0.12500000000E+03  0.12500000000E+03 0.  0.
    3000001    1    3    3    0    0 -0.49660189607E+02 -0.81738869081E+01  0.33392328871E+02  0.60406907605E+02  0.10000000000E+01 0. -1.
    1000022    2    1    0    0    0 -0.50036304795E+02 -0.74686515603E+01  0.35310585995E+02  0.62499999353E+02  0.99999941086E+01 0.  0.
    3000022    2    3    3    0    0 -0.37611518773E+00  0.70523534777E+00  0.19182571240E+01  0.20930917478E+01  0.25000628172E+00 0.  0.
    1000022    2    1    0    0    0  0.50036304795E+02  0.74686515603E+01 -0.35310585995E+02  0.62500000647E+02  0.10000002199E+02 0.  0.
    3000022    2    5    5    0    0  0.32749651137E+02  0.77095469732E+00 -0.25411076791E+02  0.41459852824E+02  0.25010351783E+00 0.  0.
        -13    1    4    4    0    0 -0.12015078879E+00  0.25581622053E+00  0.56189516741E+00  0.63767494062E+00  0.10500000000E+00 0. -1.
         13    1    4    4    0    0 -0.25596439894E+00  0.44941912725E+00  0.13563619565E+01  0.14554168072E+01  0.10500000000E+00 0.  1.
    3000001    1    5    5    0    0  0.17286653657E+02  0.66976968630E+01 -0.98995092035E+01  0.21040147823E+02  0.10000000000E+01 0. -1.
        -13    1    6    6    0    0  0.18460606360E+02  0.41170843053E+00 -0.14401813845E+02  0.23417659107E+02  0.10500000000E+00 0. -1.
         13    1    6    6    0    0  0.14289044777E+02  0.35924626680E+00 -0.11009262946E+02  0.18042193717E+02  0.10500000000E+00 0.  1.
</event>
<event>
11    0  0.3515428E-009  0.9118800E+02  0.7816531E-02  0.1126479E+00
         25   -1    0    0    0    0  0.00000000000E+00  0.00000000000E+00  0.99999998245E-14  0.12500000000E+03  0.12500000000E+03 0.  0.
    3000001    1    3    3    0    0 -0.37763964237E+01  0.10296796535E+01  0.23936860564E+02  0.24275392969E+02  0.10000000000E+01 0.  1.
    1000022    2    1    0    0    0 -0.18080598803E+02 -0.59922387401E+01  0.58680789317E+02  0.62500000824E+02  0.10000004494E+02 0.  0.
    3000022    2    3    3    0    0 -0.14304202379E+02 -0.70219183936E+01  0.34743928754E+02  0.38224607855E+02  0.25003360558E+00 0.  0.
    1000022    2    1    0    0    0  0.18080598803E+02  0.59922387401E+01 -0.58680789317E+02  0.62499999176E+02  0.99999941960E+01 0.  0.
    3000022    2    5    5    0    0  0.60270032242E+01 -0.24114712985E+01 -0.22980149040E+02  0.23880739409E+02  0.25000621670E+00 0.  0.
        -13    1    4    4    0    0 -0.36316420348E+01 -0.18140079153E+01  0.88347688975E+01  0.97233541053E+01  0.10500000000E+00 0.  1.
         13    1    4    4    0    0 -0.10672560344E+02 -0.52079104783E+01  0.25909159856E+02  0.28501253750E+02  0.10500000000E+00 0. -1.
    3000001    1    5    5    0    0  0.12053595579E+02  0.84037100386E+01 -0.35700640277E+02  0.38619259768E+02  0.10000000000E+01 0.  1.
        -13    1    6    6    0    0  0.18360603324E+01 -0.70970041626E+00 -0.68253238923E+01  0.71042848662E+01  0.10500000000E+00 0.  1.
         13    1    6    6    0    0  0.41909428919E+01 -0.17017708822E+01 -0.16154825148E+02  0.16776454542E+02  0.10500000000E+00 0. -1.
</event>
<event>
11    0  0.3515428E-009  0.9118800E+02  0.7816531E-02  0.1126479E+00
         25   -1    0    0    0    0  0.00000000000E+00  0.00000000000E+00  0.99999998245E-14  0.12500000000E+03  0.12500000000E+03 0.  0.
    3000001    1    3    3    0    0 -0.32914199860E+02  0.90182317301E+01  0.25227544182E+02  0.42451172438E+02  0.10000000000E+01 0. -1.
    1000022    2    1    0    0    0 -0.47927330147E+02  0.65806010348E+01  0.38287289647E+02  0.62500002224E+02  0.10000022222E+02 0.  0.
    3000022    2    3    3    0    0 -0.15013130288E+02 -0.24376306953E+01  0.13059745465E+02  0.20048829785E+02  0.24999943077E+00 0.  0.
    1000022    2    1    0    0    0  0.47927330147E+02 -0.65806010348E+01 -0.38287289647E+02  0.62499997776E+02  0.99999944251E+01 0.  0.
    3000022    2    5    5    0    0  0.34875718452E+02 -0.49260122864E+01 -0.21958483926E+02  0.41506852990E+02  0.24998837062E+00 0.  0.
        -13    1    4    4    0    0 -0.46884036856E+01 -0.71588904531E+00  0.40470115074E+01  0.62356197274E+01  0.10500000000E+00 0. -1.
         13    1    4    4    0    0 -0.10324726602E+02 -0.17217416499E+01  0.90127339576E+01  0.13813210058E+02  0.10500000000E+00 0.  1.
    3000001    1    5    5    0    0  0.13051611696E+02 -0.16545887484E+01 -0.16328805720E+02  0.20993144787E+02  0.10000000000E+01 0. -1.
        -13    1    6    6    0    0  0.25212416416E+02 -0.36000520751E+01 -0.15879407078E+02  0.30013212268E+02  0.10500000000E+00 0. -1.
         13    1    6    6    0    0  0.96633020358E+01 -0.13259602113E+01 -0.60790768483E+01  0.11493640722E+02  0.10500000000E+00 0.  1.
</event>
<event>
11    0  0.3515428E-009  0.9118800E+02  0.7816531E-02  0.1126479E+00
         25   -1    0    0    0    0  0.00000000000E+00  0.00000000000E+00  0.99999998245E-14  0.12500000000E+03  0.12500000000E+03 0.  0.
    3000001    1    3    3    0    0 -0.70607817744E+01 -0.65950136936E+01 -0.95140963326E+01  0.13596575816E+02  0.10000000000E+01 0.  1.
    1000022    2    1    0    0    0 -0.32923629451E+02 -0.13088886965E+02 -0.50507084857E+02  0.62499999874E+02  0.10000001261E+02 0.  0.
    3000022    2    3    3    0    0 -0.25862847677E+02 -0.64938732714E+01 -0.40992988524E+02  0.48903424058E+02  0.24999280667E+00 0.  0.
    1000022    2    1    0    0    0  0.32923629451E+02  0.13088886965E+02  0.50507084857E+02  0.62500000126E+02  0.10000002841E+02 0.  0.
    3000022    2    5    5    0    0  0.59457976595E-01  0.16577155390E+01  0.45386022488E+01  0.48386886586E+01  0.24988297902E+00 0.  0.
        -13    1    4    4    0    0 -0.83930844818E+01 -0.20563842158E+01 -0.13257776623E+02  0.15825683212E+02  0.10500000000E+00 0. -1.
         13    1    4    4    0    0 -0.17469763195E+02 -0.44374890556E+01 -0.27735211902E+02  0.33077740846E+02  0.10500000000E+00 0.  1.
    3000001    1    5    5    0    0  0.32864171475E+02  0.11431171426E+02  0.45968482608E+02  0.57661311468E+02  0.10000000000E+01 0. -1.
        -13    1    6    6    0    0  0.49962974676E-01  0.12799568804E+01  0.34580123311E+01  0.36891272947E+01  0.10500000000E+00 0.  1.
         13    1    6    6    0    0  0.94950019187E-02  0.37775865864E+00  0.10805899177E+01  0.11495613639E+01  0.10500000000E+00 0. -1.
</event>
<event>
11    0  0.3515428E-009  0.9118800E+02  0.7816531E-02  0.1126479E+00
         25   -1    0    0    0    0  0.00000000000E+00  0.00000000000E+00  0.99999998245E-14  0.12500000000E+03  0.12500000000E+03 0.  0.
    3000001    1    3    3    0    0 -0.64767443315E+01  0.27459963347E+01 -0.69908651095E+01  0.99679941806E+01  0.10000000000E+01 0. -1.
    1000022    2    1    0    0    0 -0.42573782726E+02 -0.49051143696E+01 -0.44380882855E+02  0.62499999709E+02  0.10000003905E+02 0.  0.
    3000022    2    3    3    0    0 -0.36097038394E+02 -0.76511107043E+01 -0.37390017746E+02  0.52532005529E+02  0.25000398638E+00 0.  0.
    1000022    2    1    0    0    0  0.42573782726E+02  0.49051143696E+01  0.44380882855E+02  0.62500000291E+02  0.10000007539E+02 0.  0.
    3000022    2    5    5    0    0  0.33226062248E+02  0.44409235149E+01  0.28317548225E+02  0.43882103774E+02  0.24995992324E+00 0.  0.
        -13    1    4    4    0    0 -0.12053988747E+02 -0.25623040571E+01 -0.12411903692E+02  0.17490866905E+02  0.10500000000E+00 0.  1.
         13    1    4    4    0    0 -0.24043049647E+02 -0.50888066472E+01 -0.24978114053E+02  0.35041138624E+02  0.10500000000E+00 0. -1.
    3000001    1    5    5    0    0  0.93477204780E+01  0.46419085468E+00  0.16063334630E+02  0.18617896517E+02  0.10000000000E+01 0.  1.
        -13    1    6    6    0    0  0.14986195839E+02  0.19361881181E+01  0.12774592470E+02  0.19787271867E+02  0.10500000000E+00 0. -1.
         13    1    6    6    0    0  0.18239866409E+02  0.25047353969E+01  0.15542955755E+02  0.24094831907E+02  0.10500000000E+00 0.  1.
</event>
<event>
11    0  0.3515428E-009  0.9118800E+02  0.7816531E-02  0.1126479E+00
         25   -1    0    0    0    0  0.00000000000E+00  0.00000000000E+00  0.99999998245E-14  0.12500000000E+03  0.12500000000E+03 0.  0.
    3000001    1    3    3    0    0  0.38124446494E+01 -0.19028794813E+02  0.26201312365E+01  0.19608540331E+02  0.10000000000E+01 0.  1.
    1000022    2    1    0    0    0  0.24726394164E+02 -0.55008232959E+02  0.12998069560E+02  0.62500000547E+02  0.99999997231E+01 0.  0.
    3000022    2    3    3    0    0  0.20913949515E+02 -0.35979438146E+02  0.10377938323E+02  0.42891460215E+02  0.25000392146E+00 0.  0.
    1000022    2    1    0    0    0 -0.24726394164E+02  0.55008232959E+02 -0.12998069560E+02  0.62499999453E+02  0.99999928895E+01 0.  0.
    3000022    2    5    5    0    0 -0.23622820567E+02  0.52885997332E+02 -0.10436435411E+02  0.58855314522E+02  0.24999606869E+00 0.  0.
        -13    1    4    4    0    0  0.14829592043E+02 -0.25448776689E+02  0.73143015754E+01  0.30349086768E+02  0.10500000000E+00 0. -1.
         13    1    4    4    0    0  0.60843574714E+01 -0.10530661457E+02  0.30636367480E+01  0.12542373447E+02  0.10500000000E+00 0.  1.
    3000001    1    5    5    0    0 -0.11035735970E+01  0.21222356268E+01 -0.25616341484E+01  0.36446849315E+01  0.10000000000E+01 0.  1.
        -13    1    6    6    0    0 -0.17458755486E+02  0.39124294354E+02 -0.76912832599E+01  0.43527984275E+02  0.10500000000E+00 0.  1.
         13    1    6    6    0    0 -0.61640650812E+01  0.13761702978E+02 -0.27451521515E+01  0.15327330247E+02  0.10500000000E+00 0. -1.
</event>
<event>
11    0  0.3515428E-009  0.9118800E+02  0.7816531E-02  0.1126479E+00
         25   -1    0    0    0    0  0.00000000000E+00  0.00000000000E+00  0.99999998245E-14  0.12500000000E+03  0.12500000000E+03 0.  0.
    3000001    1    3    3    0    0  0.13438879198E+02 -0.36964754952E+01 -0.99187615305E+01  0.17136196646E+02  0.10000000000E+01 0.  1.
    1000022    2    1    0    0    0  0.41997185406E+02 -0.22875015781E+01 -0.45135946068E+02  0.62499999935E+02  0.10000005946E+02 0.  0.
    3000022    2    3    3    0    0  0.28558306207E+02  0.14089739171E+01 -0.35217184538E+02  0.45363803289E+02  0.25000225529E+00 0.  0.
    1000022    2    1    0    0    0 -0.41997185406E+02  0.22875015781E+01  0.45135946068E+02  0.62500000065E+02  0.10000006761E+02 0.  0.
    3000022    2    5    5    0    0 -0.12052970144E+02 -0.35794686792E+01  0.11052231260E+02  0.16742192177E+02  0.24999548137E+00 0.  0.
        -13    1    4    4    0    0  0.10808938522E+02  0.54615935556E+00 -0.13424365899E+02  0.17244015391E+02  0.10500000000E+00 0.  1.
         13    1    4    4    0    0  0.17749367685E+02  0.86281456152E+00 -0.21792818638E+02  0.28119787897E+02  0.10500000000E+00 0. -1.
    3000001    1    5    5    0    0 -0.29944215261E+02  0.58669702573E+01  0.34083714808E+02  0.45757807888E+02  0.10000000000E+01 0. -1.
        -13    1    6    6    0    0 -0.35448657798E+01 -0.10390285890E+01  0.33040207547E+01  0.49571394930E+01  0.10500000000E+00 0. -1.
         13    1    6    6    0    0 -0.85081043644E+01 -0.25404400902E+01  0.77482105051E+01  0.11785052684E+02  0.10500000000E+00 0.  1.
</event>
<event>
11    0  0.3515428E-009  0.9118800E+02  0.7816531E-02  0.1126479E+00
         25   -1    0    0    0    0  0.00000000000E+00  0.00000000000E+00  0.99999998245E-14  0.12500000000E+03  0.12500000000E+03 0.  0.
    3000001    1    3    3    0    0 -0.66716488702E+01 -0.29756951546E+02  0.33212520832E+01  0.30692308147E+02  0.10000000000E+01 0.  1.
    1000022    2    1    0    0    0 -0.22710480986E+02 -0.56723863902E+02  0.85374019376E+01  0.62499999213E+02  0.99999993563E+01 0.  0.
    3000022    2    3    3    0    0 -0.16038832115E+02 -0.26966912356E+02  0.52161498544E+01  0.31807691066E+02  0.24998798740E+00 0.  0.
    1000022    2    1    0    0    0  0.22710480986E+02  0.56723863902E+02 -0.85374019376E+01  0.62500000787E+02  0.10000009198E+02 0.  0.
    3000022    2    5    5    0    0  0.22592252987E+02  0.47391157175E+02 -0.78887957352E+01  0.53090745624E+02  0.24999869845E+00 0.  0.
        -13    1    4    4    0    0 -0.11719975532E+02 -0.19691051664E+02  0.38449898482E+01  0.23235539891E+02  0.10500000000E+00 0. -1.
         13    1    4    4    0    0 -0.43188565835E+01 -0.72758606922E+01  0.13711600062E+01  0.85721511748E+01  0.10500000000E+00 0.  1.
    3000001    1    5    5    0    0  0.11822799806E+00  0.93327067277E+01 -0.64860620247E+00  0.94092551634E+01  0.10000000000E+01 0. -1.
        -13    1    6    6    0    0  0.10509638399E+02  0.22176818608E+02 -0.37247604788E+01  0.24822341720E+02  0.10500000000E+00 0.  1.
         13    1    6    6    0    0  0.12082614588E+02  0.25214338567E+02 -0.41640352563E+01  0.28268403904E+02  0.10500000000E+00 0. -1.
</event>
<event>
11    0  0.3515428E-009  0.9118800E+02  0.7816531E-02  0.1126479E+00
         25   -1    0    0    0    0  0.00000000000E+00  0.00000000000E+00  0.99999998245E-14  0.12500000000E+03  0.12500000000E+03 0.  0.
    3000001    1    3    3    0    0 -0.15131518331E+01 -0.11373356543E+02 -0.20969049006E+02  0.23923709657E+02  0.10000000000E+01 0. -1.
    1000022    2    1    0    0    0 -0.66883346604E+01 -0.39245052231E+02 -0.47131116220E+02  0.62500000310E+02  0.99999988704E+01 0.  0.
    3000022    2    3    3    0    0 -0.51751828273E+01 -0.27871695688E+02 -0.26162067214E+02  0.38576290653E+02  0.25000361787E+00 0.  0.
    1000022    2    1    0    0    0  0.66883346604E+01  0.39245052231E+02  0.47131116220E+02  0.62499999690E+02  0.99999949972E+01 0.  0.
    3000022    2    5    5    0    0  0.37586515976E+01  0.86594922758E+01  0.17042353530E+02  0.19483803196E+02  0.25000962267E+00 0.  0.
        -13    1    4    4    0    0 -0.24162458940E+01 -0.13374679549E+02 -0.12523045728E+02  0.18481287741E+02  0.10500000000E+00 0.  1.
         13    1    4    4    0    0 -0.27589369333E+01 -0.14497016139E+02 -0.13639021486E+02  0.20095002912E+02  0.10500000000E+00 0. -1.
    3000001    1    5    5    0    0  0.29296830628E+01  0.30585559955E+02  0.30088762690E+02  0.43016196494E+02  0.10000000000E+01 0. -1.
        -13    1    6    6    0    0  0.91101882766E+00  0.21392763873E+01  0.41635915992E+01  0.47700082569E+01  0.10500000000E+00 0. -1.
         13    1    6    6    0    0  0.28476327700E+01  0.65202158885E+01  0.12878761931E+02  0.14713794939E+02  0.10500000000E+00 0.  1.
</event>
<event>
11    0  0.3515428E-009  0.9118800E+02  0.7816531E-02  0.1126479E+00
         25   -1    0    0    0    0  0.00000000000E+00  0.00000000000E+00  0.99999998245E-14  0.12500000000E+03  0.12500000000E+03 0.  0.
    3000001    1    3    3    0    0  0.74646632143E+01 -0.31649402482E+02  0.38993632111E+02  0.50782961903E+02  0.10000000000E+01 0. -1.
    1000022    2    1    0    0    0  0.86092635606E+01 -0.41994752872E+02  0.44368588839E+02  0.62500002870E+02  0.99999997636E+01 0.  0.
    3000022    2    3    3    0    0  0.11446003462E+01 -0.10345350390E+02  0.53749567284E+01  0.11717040967E+02  0.25000910831E+00 0.  0.
    1000022    2    1    0    0    0 -0.86092635606E+01  0.41994752872E+02 -0.44368588839E+02  0.62499997130E+02  0.99999638923E+01 0.  0.
    3000022    2    5    5    0    0 -0.43116350345E+01  0.19963658886E+02 -0.14168753080E+02  0.24858679498E+02  0.25001953639E+00 0.  0.
        -13    1    4    4    0    0  0.33743869768E+00 -0.28849016395E+01  0.14612346451E+01  0.32531145126E+01  0.10500000000E+00 0. -1.
         13    1    4    4    0    0  0.80716164855E+00 -0.74604487501E+01  0.39137220832E+01  0.84639264544E+01  0.10500000000E+00 0.  1.
    3000001    1    5    5    0    0 -0.42976285260E+01  0.22031093986E+02 -0.30199835760E+02  0.37641317632E+02  0.10000000000E+01 0.  1.
        -13    1    6    6    0    0 -0.14318758662E+01  0.67298348289E+01 -0.47127532273E+01  0.83403844816E+01  0.10500000000E+00 0.  1.
         13    1    6    6    0    0 -0.28797591683E+01  0.13233824057E+02 -0.94559998523E+01  0.16518295017E+02  0.10500000000E+00 0. -1.
</event>
<event>
11    0  0.3515428E-009  0.9118800E+02  0.7816531E-02  0.1126479E+00
         25   -1    0    0    0    0  0.00000000000E+00  0.00000000000E+00  0.99999998245E-14  0.12500000000E+03  0.12500000000E+03 0.  0.
    3000001    1    3    3    0    0  0.23675634135E+01 -0.31523454650E+02 -0.67978204080E+01  0.32350330939E+02  0.10000000000E+01 0. -1.
    1000022    2    1    0    0    0  0.10743724937E+02 -0.57507173915E+02 -0.19589469617E+02  0.62499999951E+02  0.99999998387E+01 0.  0.
    3000022    2    3    3    0    0  0.83761615232E+01 -0.25983719266E+02 -0.12791649210E+02  0.30149669012E+02  0.25000661843E+00 0.  0.
    1000022    2    1    0    0    0 -0.10743724937E+02  0.57507173915E+02  0.19589469617E+02  0.62500000049E+02  0.10000000449E+02 0.  0.
    3000022    2    5    5    0    0 -0.11389111868E+02  0.50473033300E+02  0.14498100593E+02  0.53735429493E+02  0.25000467136E+00 0.  0.
        -13    1    4    4    0    0  0.46812369513E+01 -0.14717990619E+02 -0.72657056504E+01  0.17068530425E+02  0.10500000000E+00 0.  1.
         13    1    4    4    0    0  0.36949245719E+01 -0.11265728646E+02 -0.55259435591E+01  0.13081138587E+02  0.10500000000E+00 0. -1.
    3000001    1    5    5    0    0  0.64538693108E+00  0.70341406147E+01  0.50913690248E+01  0.87645705557E+01  0.10000000000E+01 0.  1.
        -13    1    6    6    0    0 -0.46214893875E+01  0.20677383361E+02  0.59856967180E+01  0.22017082845E+02  0.10500000000E+00 0. -1.
         13    1    6    6    0    0 -0.67676224803E+01  0.29795649940E+02  0.85124038746E+01  0.31718346648E+02  0.10500000000E+00 0.  1.
</event>
<event>
11    0  0.3515428E-009  0.9118800E+02  0.7816531E-02  0.1126479E+00
         25   -1    0    0    0    0  0.00000000000E+00  0.00000000000E+00  0.99999998245E-14  0.12500000000E+03  0.12500000000E+03 0.  0.
    3000001    1    3    3    0    0  0.32323643634E+02  0.24713324530E+02 -0.32129938904E+02  0.51854597878E+02  0.10000000000E+01 0.  1.
    1000022    2    1    0    0    0  0.36944843699E+02  0.26855228483E+02 -0.41474393074E+02  0.62499999142E+02  0.99999919540E+01 0.  0.
    3000022    2    3    3    0    0  0.46212000652E+01  0.21419039522E+01 -0.93444541707E+01  0.10645401264E+02  0.25000349667E+00 0.  0.
    1000022    2    1    0    0    0 -0.36944843699E+02 -0.26855228483E+02  0.41474393074E+02  0.62500000858E+02  0.10000002678E+02 0.  0.
    3000022    2    5    5    0    0 -0.67086367151E+01 -0.65551777480E+01  0.14068936713E+02  0.16910755295E+02  0.25000508718E+00 0.  0.
        -13    1    4    4    0    0  0.10933078761E+01  0.49443746956E+00 -0.21847273376E+01  0.24947643302E+01  0.10500000000E+00 0.  1.
         13    1    4    4    0    0  0.35278921891E+01  0.16474664827E+01 -0.71597268331E+01  0.81506369342E+01  0.10500000000E+00 0. -1.
    3000001    1    5    5    0    0 -0.30236206984E+02 -0.20300050735E+02  0.27405456362E+02  0.45589245563E+02  0.10000000000E+01 0. -1.
        -13    1    6    6    0    0 -0.47727543290E+01 -0.46822858949E+01  0.10098532230E+02  0.12111744849E+02  0.10500000000E+00 0.  1.
         13    1    6    6    0    0 -0.19358823861E+01 -0.18728918532E+01  0.39704044828E+01  0.47990104463E+01  0.10500000000E+00 0. -1.
</event>
<event>
11    0  0.3515428E-009  0.9118800E+02  0.7816531E-02  0.1126479E+00
         25   -1    0    0    0    0  0.00000000000E+00  0.00000000000E+00  0.99999998245E-14  0.12500000000E+03  0.12500000000E+03 0.  0.
    3000001    1    3    3    0    0  0.20539425948E+02 -0.21769250564E+02 -0.20764524789E+02  0.36440825705E+02  0.10000000000E+01 0.  1.
    1000022    2    1    0    0    0  0.38791590523E+02 -0.38824761669E+02 -0.28179785820E+02  0.62499999923E+02  0.10000002376E+02 0.  0.
    3000022    2    3    3    0    0  0.18252164575E+02 -0.17055511105E+02 -0.74152610308E+01  0.26059174217E+02  0.24998797330E+00 0.  0.
    1000022    2    1    0    0    0 -0.38791590523E+02  0.38824761669E+02  0.28179785820E+02  0.62500000077E+02  0.10000003342E+02 0.  0.
    3000022    2    5    5    0    0 -0.44384646457E+01  0.99054504738E+00  0.34789117786E+01  0.57311848411E+01  0.25000923443E+00 0.  0.
        -13    1    4    4    0    0  0.95450139557E+01 -0.88778833962E+01 -0.39325112957E+01  0.13616158603E+02  0.10500000000E+00 0. -1.
         13    1    4    4    0    0  0.87071506198E+01 -0.81776277089E+01 -0.34827497351E+01  0.12443015614E+02  0.10500000000E+00 0.  1.
    3000001    1    5    5    0    0 -0.34353125877E+02  0.37834216622E+02  0.24700874041E+02  0.56768815236E+02  0.10000000000E+01 0.  1.
        -13    1    6    6    0    0 -0.26356926591E+01  0.62772970050E+00  0.21349166781E+01  0.34510599231E+01  0.10500000000E+00 0. -1.
         13    1    6    6    0    0 -0.18027719866E+01  0.36281534688E+00  0.13439951005E+01  0.22801249180E+01  0.10500000000E+00 0.  1.
</event>
<event>
11    0  0.3515428E-009  0.9118800E+02  0.7816531E-02  0.1126479E+00
         25   -1    0    0    0    0  0.00000000000E+00  0.00000000000E+00  0.99999998245E-14  0.12500000000E+03  0.12500000000E+03 0.  0.
    3000001    1    3    3    0    0  0.18908612180E+01 -0.18651515037E+01  0.17391537804E+01  0.33284834609E+01  0.10000000000E+01 0.  1.
    1000022    2    1    0    0    0  0.30813377198E+02 -0.35075805895E+01  0.53333691383E+02  0.62499999606E+02  0.99999989157E+01 0.  0.
    3000022    2    3    3    0    0  0.28922515980E+02 -0.16424290858E+01  0.51594537603E+02  0.59171516145E+02  0.25001721170E+00 0.  0.
    1000022    2    1    0    0    0 -0.30813377198E+02  0.35075805895E+01 -0.53333691383E+02  0.62500000394E+02  0.10000003838E+02 0.  0.
    3000022    2    5    5    0    0 -0.27821133059E+02  0.51479099689E+01 -0.42162433374E+02  0.50776468035E+02  0.24999275392E+00 0.  0.
        -13    1    4    4    0    0  0.17414728109E+02 -0.10335066712E+01  0.31160668117E+02  0.35711890928E+02  0.10500000000E+00 0. -1.
         13    1    4    4    0    0  0.11507787871E+02 -0.60892241459E+00  0.20433869486E+02  0.23459625218E+02  0.10500000000E+00 0.  1.
    3000001    1    5    5    0    0 -0.29922441390E+01 -0.16403293794E+01 -0.11171258009E+02  0.11723532359E+02  0.10000000000E+01 0.  1.
        -13    1    6    6    0    0 -0.85220342388E+01  0.15621431757E+01 -0.12830530341E+02  0.15482212138E+02  0.10500000000E+00 0. -1.
         13    1    6    6    0    0 -0.19299098820E+02  0.35857667931E+01 -0.29331903033E+02  0.35294255896E+02  0.10500000000E+00 0.  1.
</event>
<event>
11    0  0.3515428E-009  0.9118800E+02  0.7816531E-02  0.1126479E+00
         25   -1    0    0    0    0  0.00000000000E+00  0.00000000000E+00  0.99999998245E-14  0.12500000000E+03  0.12500000000E+03 0.  0.
    3000001    1    3    3    0    0 -0.41592698394E+02 -0.39315450806E+02 -0.78958695259E+01  0.57784098049E+02  0.10000000000E+01 0.  1.
    1000022    2    1    0    0    0 -0.45001089599E+02 -0.41802632827E+02 -0.58044555660E+01  0.62499998730E+02  0.99999980251E+01 0.  0.
    3000022    2    3    3    0    0 -0.34083912050E+01 -0.24871820211E+01  0.20914139599E+01  0.47159006813E+01  0.25000374361E+00 0.  0.
    1000022    2    1    0    0    0  0.45001089599E+02  0.41802632827E+02  0.58044555660E+01  0.62500001270E+02  0.10000013896E+02 0.  0.
    3000022    2    5    5    0    0  0.62022436295E+01  0.26205164973E+01 -0.13974466964E+01  0.68811547800E+01  0.25000216790E+00 0.  0.
        -13    1    4    4    0    0 -0.24340506475E+01 -0.17328955881E+01  0.14502683151E+01  0.33229253467E+01  0.10500000000E+00 0. -1.
         13    1    4    4    0    0 -0.97434055748E+00 -0.75428643301E+00  0.64114564485E+00  0.13929753346E+01  0.10500000000E+00 0.  1.
    3000001    1    5    5    0    0  0.38798845969E+02  0.39182116330E+02  0.72019022624E+01  0.55618846490E+02  0.10000000000E+01 0.  1.
        -13    1    6    6    0    0  0.15591786727E+01  0.68941973591E+00 -0.35477465544E+00  0.17444849560E+01  0.10500000000E+00 0. -1.
         13    1    6    6    0    0  0.46430649568E+01  0.19310967614E+01 -0.10426720410E+01  0.51366698239E+01  0.10500000000E+00 0.  1.
</event>
<event>
11    0  0.3515428E-009  0.9118800E+02  0.7816531E-02  0.1126479E+00
         25   -1    0    0    0    0  0.00000000000E+00  0.00000000000E+00  0.99999998245E-14  0.12500000000E+03  0.12500000000E+03 0.  0.
    3000001    1    3    3    0    0 -0.16665175121E+02 -0.82905248914E+01  0.58041813026E+02  0.60961569239E+02  0.10000000000E+01 0. -1.
    1000022    2    1    0    0    0 -0.15698704862E+02 -0.89857759816E+01  0.58983527130E+02  0.62499999911E+02  0.10000000594E+02 0.  0.
    3000022    2    3    3    0    0  0.96647025908E+00 -0.69525109019E+00  0.94171410392E+00  0.15384306717E+01  0.25000927598E+00 0.  0.
    1000022    2    1    0    0    0  0.15698704862E+02  0.89857759816E+01 -0.58983527130E+02  0.62500000089E+02  0.10000001707E+02 0.  0.
    3000022    2    5    5    0    0  0.13464412452E+02  0.75339877161E+01 -0.33795675277E+02  0.37151871308E+02  0.25000137805E+00 0.  0.
        -13    1    4    4    0    0  0.67591404758E+00 -0.49065638857E+00  0.71135841853E+00  0.11021158247E+01  0.10500000000E+00 0. -1.
         13    1    4    4    0    0  0.29055621150E+00 -0.20459470161E+00  0.23035568539E+00  0.43631484705E+00  0.10500000000E+00 0.  1.
    3000001    1    5    5    0    0  0.22342924104E+01  0.14517882655E+01 -0.25187851853E+02  0.25348128781E+02  0.10000000000E+01 0. -1.
        -13    1    6    6    0    0  0.71733314820E+01  0.39371173819E+01 -0.17903844465E+02  0.19685432417E+02  0.10500000000E+00 0.  1.
         13    1    6    6    0    0  0.62910809697E+01  0.35968703342E+01 -0.15891830812E+02  0.17466438891E+02  0.10500000000E+00 0. -1.
</event>
<event>
11    0  0.3515428E-009  0.9118800E+02  0.7816531E-02  0.1126479E+00
         25   -1    0    0    0    0  0.00000000000E+00  0.00000000000E+00  0.99999998245E-14  0.12500000000E+03  0.12500000000E+03 0.  0.
    3000001    1    3    3    0    0 -0.24920872863E+02  0.31084948591E+02 -0.42659136503E+02  0.58379156044E+02  0.10000000000E+01 0. -1.
    1000022    2    1    0    0    0 -0.24093619676E+02  0.33755595777E+02 -0.45676112918E+02  0.62499999641E+02  0.99999954218E+01 0.  0.
    3000022    2    3    3    0    0  0.82725318759E+00  0.26706471859E+01 -0.30169764149E+01  0.41208435969E+01  0.25000206848E+00 0.  0.
    1000022    2    1    0    0    0  0.24093619676E+02 -0.33755595777E+02  0.45676112918E+02  0.62500000359E+02  0.99999999121E+01 0.  0.
    3000022    2    5    5    0    0  0.14299489888E+02 -0.27477129843E+02  0.32633481067E+02  0.44994162522E+02  0.24999805588E+00 0.  0.
        -13    1    4    4    0    0  0.58133985295E+00  0.18766036032E+01 -0.21816451391E+01  0.29377197997E+01  0.10500000000E+00 0.  1.
         13    1    4    4    0    0  0.24591333465E+00  0.79404358263E+00 -0.83533127579E+00  0.11831237972E+01  0.10500000000E+00 0. -1.
    3000001    1    5    5    0    0  0.97941297877E+01 -0.62784659343E+01  0.13042631851E+02  0.17505837838E+02  0.10000000000E+01 0.  1.
        -13    1    6    6    0    0  0.63944905334E+01 -0.12419715019E+02  0.14755782768E+02  0.20319522150E+02  0.10500000000E+00 0. -1.
         13    1    6    6    0    0  0.79049993546E+01 -0.15057414824E+02  0.17877698299E+02  0.24674640372E+02  0.10500000000E+00 0.  1.
</event>
<event>
11    0  0.3515428E-009  0.9118800E+02  0.7816531E-02  0.1126479E+00
         25   -1    0    0    0    0  0.00000000000E+00  0.00000000000E+00  0.99999998245E-14  0.12500000000E+03  0.12500000000E+03 0.  0.
    3000001    1    3    3    0    0 -0.28364731730E+02  0.20558319371E+02  0.29073336403E+02  0.45535276337E+02  0.10000000000E+01 0. -1.
    1000022    2    1    0    0    0 -0.33787478808E+02  0.31152307258E+02  0.41160541244E+02  0.62499997960E+02  0.99999808933E+01 0.  0.
    3000022    2    3    3    0    0 -0.54227470775E+01  0.10593987886E+02  0.12087204841E+02  0.16964721623E+02  0.24998735042E+00 0.  0.
    1000022    2    1    0    0    0  0.33787478808E+02 -0.31152307258E+02 -0.41160541244E+02  0.62500002040E+02  0.10000006389E+02 0.  0.
    3000022    2    5    5    0    0  0.66418911908E+01 -0.50782587268E+01 -0.29884159771E+01  0.88823735833E+01  0.25000027200E+00 0.  0.
        -13    1    4    4    0    0 -0.21992869142E+01  0.42228823676E+01  0.49121266547E+01  0.68417550156E+01  0.10500000000E+00 0. -1.
         13    1    4    4    0    0 -0.32234601634E+01  0.63711055189E+01  0.71750781862E+01  0.10122966607E+02  0.10500000000E+00 0.  1.
    3000001    1    5    5    0    0  0.27145587617E+02 -0.26074048531E+02 -0.38172125267E+02  0.53617628456E+02  0.10000000000E+01 0. -1.
        -13    1    6    6    0    0  0.19014933873E+01 -0.14331854380E+01 -0.81136163935E+00  0.25177430987E+01  0.10500000000E+00 0. -1.
         13    1    6    6    0    0  0.47403978035E+01 -0.36450732888E+01 -0.21770543377E+01  0.63646304846E+01  0.10500000000E+00 0.  1.
</event>
<event>
11    0  0.3515428E-009  0.9118800E+02  0.7816531E-02  0.1126479E+00
         25   -1    0    0    0    0  0.00000000000E+00  0.00000000000E+00  0.99999998245E-14  0.12500000000E+03  0.12500000000E+03 0.  0.
    3000001    1    3    3    0    0 -0.18168121203E+01 -0.22804420121E+01  0.15548664894E+00  0.30863243752E+01  0.10000000000E+01 0. -1.
    1000022    2    1    0    0    0 -0.28074448343E+02 -0.37341479919E+02  0.40295027034E+02  0.62500001634E+02  0.10000011415E+02 0.  0.
    3000022    2    3    3    0    0 -0.26257636222E+02 -0.35061037907E+02  0.40139540385E+02  0.59413677259E+02  0.25000800411E+00 0.  0.
    1000022    2    1    0    0    0  0.28074448343E+02  0.37341479919E+02 -0.40295027034E+02  0.62499998366E+02  0.99999909882E+01 0.  0.
    3000022    2    5    5    0    0  0.15688864635E+02  0.19541911163E+02 -0.27897559695E+02  0.37501507849E+02  0.24997717958E+00 0.  0.
        -13    1    4    4    0    0 -0.17520516367E+02 -0.23464758801E+02  0.26878616392E+02  0.39749647087E+02  0.10500000000E+00 0. -1.
         13    1    4    4    0    0 -0.87371198554E+01 -0.11596279106E+02  0.13260923993E+02  0.19664030172E+02  0.10500000000E+00 0.  1.
    3000001    1    5    5    0    0  0.12385583707E+02  0.17799568756E+02 -0.12397467339E+02  0.24998490516E+02  0.10000000000E+01 0.  1.
        -13    1    6    6    0    0  0.10304348549E+02  0.12874907445E+02 -0.18283643187E+02  0.24622052594E+02  0.10500000000E+00 0. -1.
         13    1    6    6    0    0  0.53845160860E+01  0.66670037178E+01 -0.96139165087E+01  0.12879455256E+02  0.10500000000E+00 0.  1.
</event>
<event>
11    0  0.3515428E-009  0.9118800E+02  0.7816531E-02  0.1126479E+00
         25   -1    0    0    0    0  0.00000000000E+00  0.00000000000E+00  0.99999998245E-14  0.12500000000E+03  0.12500000000E+03 0.  0.
    3000001    1    3    3    0    0 -0.10467480904E+02 -0.42198219228E+01  0.19553312320E+01  0.11497755162E+02  0.10000000000E+01 0. -1.
    1000022    2    1    0    0    0 -0.45537489457E+02 -0.39931843520E+02  0.11748816424E+02  0.62499998084E+02  0.10000000005E+02 0.  0.
    3000022    2    3    3    0    0 -0.35070008553E+02 -0.35712021597E+02  0.97934851919E+01  0.51002242922E+02  0.24988867671E+00 0.  0.
    1000022    2    1    0    0    0  0.45537489457E+02  0.39931843520E+02 -0.11748816424E+02  0.62500001916E+02  0.10000023959E+02 0.  0.
    3000022    2    5    5    0    0  0.19157169194E+02  0.17336588648E+02 -0.10004821120E+02  0.27707641267E+02  0.25000293336E+00 0.  0.
        -13    1    4    4    0    0 -0.15452899939E+02 -0.15734485193E+02  0.42478152191E+01  0.22459321004E+02  0.10500000000E+00 0.  1.
         13    1    4    4    0    0 -0.19617108615E+02 -0.19977536404E+02  0.55456699728E+01  0.28542921918E+02  0.10500000000E+00 0. -1.
    3000001    1    5    5    0    0  0.26380320263E+02  0.22595254872E+02 -0.17439953042E+01  0.34792360650E+02  0.10000000000E+01 0.  1.
        -13    1    6    6    0    0  0.81180595138E+01  0.72614122331E+01 -0.42338294315E+01  0.11686202743E+02  0.10500000000E+00 0.  1.
         13    1    6    6    0    0  0.11039109680E+02  0.10075176415E+02 -0.57709916882E+01  0.16021438524E+02  0.10500000000E+00 0. -1.
</event>
<event>
11    0  0.3515428E-009  0.9118800E+02  0.7816531E-02  0.1126479E+00
         25   -1    0    0    0    0  0.00000000000E+00  0.00000000000E+00  0.99999998245E-14  0.12500000000E+03  0.12500000000E+03 0.  0.
    3000001    1    3    3    0    0 -0.13844100885E+02  0.85271443490E+01  0.35837811946E+01  0.16679772412E+02  0.10000000000E+01 0. -1.
    1000022    2    1    0    0    0 -0.46423674405E+02  0.40625562724E+02  0.81008226917E+00  0.62499996976E+02  0.99999748395E+01 0.  0.
    3000022    2    3    3    0    0 -0.32579573520E+02  0.32098418375E+02 -0.27736989254E+01  0.45820224564E+02  0.25000085661E+00 0.  0.
    1000022    2    1    0    0    0  0.46423674405E+02 -0.40625562724E+02 -0.81008226917E+00  0.62500003024E+02  0.10000012638E+02 0.  0.
    3000022    2    5    5    0    0  0.35170508506E+02 -0.35549024138E+02 -0.20698812753E+01  0.50050421493E+02  0.24999470977E+00 0.  0.
        -13    1    4    4    0    0 -0.81202937888E+01  0.80260016681E+01 -0.67372062740E+00  0.11437692008E+02  0.10500000000E+00 0. -1.
         13    1    4    4    0    0 -0.24459279731E+02  0.24072416707E+02 -0.20999782980E+01  0.34382532556E+02  0.10500000000E+00 0.  1.
    3000001    1    5    5    0    0  0.11253165899E+02 -0.50765385865E+01  0.12597990061E+01  0.12449581531E+02  0.10000000000E+01 0.  1.
        -13    1    6    6    0    0  0.18124383307E+02 -0.18237287597E+02 -0.10996110534E+01  0.25735424974E+02  0.10500000000E+00 0.  1.
         13    1    6    6    0    0  0.17046125200E+02 -0.17311736541E+02 -0.97027022189E+00  0.24314996519E+02  0.10500000000E+00 0. -1.
</event>
<event>
11    0  0.3515428E-009  0.9118800E+02  0.7816531E-02  0.1126479E+00
         25   -1    0    0    0    0  0.00000000000E+00  0.00000000000E+00  0.99999998245E-14  0.12500000000E+03  0.12500000000E+03 0.  0.
    3000001    1    3    3    0    0  0.63808241625E+00 -0.50921803498E+02 -0.14142530273E+02  0.52862542345E+02  0.10000000000E+01 0. -1.
    1000022    2    1    0    0    0 -0.32683962383E+01 -0.59618212649E+02 -0.15531799777E+02  0.62500004518E+02  0.10000003352E+02 0.  0.
    3000022    2    3    3    0    0 -0.39064786545E+01 -0.86964091513E+01 -0.13892695045E+01  0.96374621735E+01  0.24999957121E+00 0.  0.
    1000022    2    1    0    0    0  0.32683962383E+01  0.59618212649E+02  0.15531799777E+02  0.62499995482E+02  0.99999468711E+01 0.  0.
    3000022    2    5    5    0    0 -0.18441298265E+01  0.25082840123E+02  0.10322367138E+02  0.27187560466E+02  0.24999465067E+00 0.  0.
        -13    1    4    4    0    0 -0.17752752260E+01 -0.39402371330E+01 -0.56248175005E+00  0.43594129778E+01  0.10500000000E+00 0. -1.
         13    1    4    4    0    0 -0.21312034286E+01 -0.47561720183E+01 -0.82678775445E+00  0.52780491957E+01  0.10500000000E+00 0. -1.
    3000001    1    5    5    0    0  0.51125260648E+01  0.34535372526E+02  0.52094326393E+01  0.35312435015E+02  0.10000000000E+01 0. -1.
        -13    1    6    6    0    0 -0.62177540464E+00  0.91612215198E+01  0.37382098672E+01  0.99146266899E+01  0.10500000000E+00 0.  1.
         13    1    6    6    0    0 -0.12223544218E+01  0.15921618603E+02  0.65841572709E+01  0.17272933777E+02  0.10500000000E+00 0. -1.
</event>
<event>
11    0  0.3515428E-009  0.9118800E+02  0.7816531E-02  0.1126479E+00
         25   -1    0    0    0    0  0.00000000000E+00  0.00000000000E+00  0.99999998245E-14  0.12500000000E+03  0.12500000000E+03 0.  0.
    3000001    1    3    3    0    0 -0.62664943681E+01  0.21356773956E+01 -0.54795575172E+00  0.67179107697E+01  0.10000000000E+01 0. -1.
    1000022    2    1    0    0    0 -0.60135953194E+02  0.51714818714E-01  0.13780947024E+02  0.62499999744E+02  0.99999963092E+01 0.  0.
    3000022    2    3    3    0    0 -0.53869458825E+02 -0.20839625769E+01  0.14328902776E+02  0.55782088974E+02  0.25000279188E+00 0.  0.
    1000022    2    1    0    0    0  0.60135953194E+02 -0.51714818714E-01 -0.13780947024E+02  0.62500000256E+02  0.99999995096E+01 0.  0.
    3000022    2    5    5    0    0  0.47387524843E+02  0.39235489905E+01 -0.10084134267E+02  0.48607859588E+02  0.25000488071E+00 0.  0.
        -13    1    4    4    0    0 -0.20021094109E+02 -0.72235345614E+00  0.52947635853E+01  0.20722247712E+02  0.10500000000E+00 0. -1.
         13    1    4    4    0    0 -0.33848364717E+02 -0.13616091208E+01  0.90341391906E+01  0.35059841262E+02  0.10500000000E+00 0.  1.
    3000001    1    5    5    0    0  0.12748428351E+02 -0.39752638092E+01 -0.36968127570E+01  0.13892140668E+02  0.10000000000E+01 0. -1.
        -13    1    6    6    0    0  0.33352659566E+02  0.27235262799E+01 -0.70722983715E+01  0.34203010464E+02  0.10500000000E+00 0. -1.
         13    1    6    6    0    0  0.14034865276E+02  0.12000227106E+01 -0.30118358957E+01  0.14404849124E+02  0.10500000000E+00 0.  1.
</event>
<event>
11    0  0.3515428E-009  0.9118800E+02  0.7816531E-02  0.1126479E+00
         25   -1    0    0    0    0  0.00000000000E+00  0.00000000000E+00  0.99999998245E-14  0.12500000000E+03  0.12500000000E+03 0.  0.
    3000001    1    3    3    0    0  0.65874686835E+01 -0.36059067732E+02  0.28198202099E+02  0.46257861073E+02  0.10000000000E+01 0. -1.
    1000022    2    1    0    0    0  0.14391741864E+02 -0.46659123810E+02  0.37710127980E+02  0.62500000793E+02  0.10000013910E+02 0.  0.
    3000022    2    3    3    0    0  0.78042731806E+01 -0.10600056078E+02  0.95119258810E+01  0.16242139720E+02  0.24999998993E+00 0.  0.
    1000022    2    1    0    0    0 -0.14391741864E+02  0.46659123810E+02 -0.37710127980E+02  0.62499999207E+02  0.10000003999E+02 0.  0.
    3000022    2    5    5    0    0 -0.11443768717E+02  0.20488534707E+02 -0.16938237412E+02  0.28943156128E+02  0.25000624519E+00 0.  0.
        -13    1    4    4    0    0  0.54104670260E+01 -0.73777689826E+01  0.65564355501E+01  0.11256220535E+02  0.10500000000E+00 0.  1.
         13    1    4    4    0    0  0.23938061546E+01 -0.32222870953E+01  0.29554903310E+01  0.49859191857E+01  0.10500000000E+00 0. -1.
    3000001    1    5    5    0    0 -0.29479731474E+01  0.26170589103E+02 -0.20771890568E+02  0.33556843079E+02  0.10000000000E+01 0.  1.
        -13    1    6    6    0    0 -0.64907245456E+01  0.11572304598E+02 -0.96522050695E+01  0.16408041521E+02  0.10500000000E+00 0.  1.
         13    1    6    6    0    0 -0.49530441710E+01  0.89162301093E+01 -0.72860323425E+01  0.12535114607E+02  0.10500000000E+00 0. -1.
</event>
<event>
11    0  0.3515428E-009  0.9118800E+02  0.7816531E-02  0.1126479E+00
         25   -1    0    0    0    0  0.00000000000E+00  0.00000000000E+00  0.99999998245E-14  0.12500000000E+03  0.12500000000E+03 0.  0.
    3000001    1    3    3    0    0 -0.12538714296E+02  0.40284871860E+01  0.12921018344E+02  0.18477033860E+02  0.10000000000E+01 0.  1.
    1000022    2    1    0    0    0 -0.47597942314E+02  0.22233594890E+02  0.32347381569E+02  0.62499999664E+02  0.10000000469E+02 0.  0.
    3000022    2    3    3    0    0 -0.35059228018E+02  0.18205107704E+02  0.19426363224E+02  0.44022965804E+02  0.25002864952E+00 0.  0.
    1000022    2    1    0    0    0  0.47597942314E+02 -0.22233594890E+02 -0.32347381569E+02  0.62500000336E+02  0.10000004672E+02 0.  0.
    3000022    2    5    5    0    0  0.32393111192E+01 -0.46426324743E+01 -0.24053651724E+01  0.61559281898E+01  0.24999489313E+00 0.  0.
        -13    1    4    4    0    0 -0.23405446037E+02  0.12093407578E+02  0.12954049186E+02  0.29357858000E+02  0.10500000000E+00 0.  1.
         13    1    4    4    0    0 -0.11653781981E+02  0.61117001259E+01  0.64723140386E+01  0.14665107804E+02  0.10500000000E+00 0. -1.
    3000001    1    5    5    0    0  0.44358631195E+02 -0.17590962416E+02 -0.29942016396E+02  0.56344072146E+02  0.10000000000E+01 0.  1.
        -13    1    6    6    0    0  0.16245481193E+01 -0.24465374487E+01 -0.12491103526E+01  0.31931181864E+01  0.10500000000E+00 0. -1.
         13    1    6    6    0    0  0.16147629999E+01 -0.21960950256E+01 -0.11562548198E+01  0.29628100033E+01  0.10500000000E+00 0.  1.
</event>
<event>
11    0  0.3515428E-009  0.9118800E+02  0.7816531E-02  0.1126479E+00
         25   -1    0    0    0    0  0.00000000000E+00  0.00000000000E+00  0.99999998245E-14  0.12500000000E+03  0.12500000000E+03 0.  0.
    3000001    1    3    3    0    0 -0.18986111151E+02 -0.24559471883E+02  0.15681100545E+02  0.34792772096E+02  0.10000000000E+01 0.  1.
    1000022    2    1    0    0    0 -0.39275681377E+02 -0.37127712597E+02  0.29752371129E+02  0.62500000121E+02  0.10000011848E+02 0.  0.
    3000022    2    3    3    0    0 -0.20289570226E+02 -0.12568240715E+02  0.14071270584E+02  0.27707228025E+02  0.24998874878E+00 0.  0.
    1000022    2    1    0    0    0  0.39275681377E+02  0.37127712597E+02 -0.29752371129E+02  0.62499999879E+02  0.10000010338E+02 0.  0.
    3000022    2    5    5    0    0  0.65835553460E+01  0.36038214858E+01 -0.76175758821E+01  0.10696761174E+02  0.25001400865E+00 0.  0.
        -13    1    4    4    0    0 -0.68497510751E+01 -0.43072063833E+01  0.47686275819E+01  0.93926540783E+01  0.10500000000E+00 0.  1.
         13    1    4    4    0    0 -0.13439819151E+02 -0.82610343312E+01  0.93026430017E+01  0.18314573947E+02  0.10500000000E+00 0. -1.
    3000001    1    5    5    0    0  0.32692126031E+02  0.33523891111E+02 -0.22134795247E+02  0.51803238705E+02  0.10000000000E+01 0. -1.
        -13    1    6    6    0    0  0.25889529117E+01  0.13859191300E+01 -0.29018077558E+01  0.41297654007E+01  0.10500000000E+00 0. -1.
         13    1    6    6    0    0  0.39946024343E+01  0.22179023558E+01 -0.47157681264E+01  0.65669957736E+01  0.10500000000E+00 0.  1.
</event>
<event>
11    0  0.3515428E-009  0.9118800E+02  0.7816531E-02  0.1126479E+00
         25   -1    0    0    0    0  0.00000000000E+00  0.00000000000E+00  0.99999998245E-14  0.12500000000E+03  0.12500000000E+03 0.  0.
    3000001    1    3    3    0    0  0.29948543394E+02  0.44534818198E+02 -0.19342206332E+02  0.57055992053E+02  0.10000000000E+01 0. -1.
    1000022    2    1    0    0    0  0.30126517859E+02  0.48835298738E+02 -0.22666197793E+02  0.62499999590E+02  0.99999972598E+01 0.  0.
    3000022    2    3    3    0    0  0.17797446489E+00  0.43004805395E+01 -0.33239914610E+01  0.54440075365E+01  0.24998208643E+00 0.  0.
    1000022    2    1    0    0    0 -0.30126517859E+02 -0.48835298738E+02  0.22666197793E+02  0.62500000410E+02  0.10000002389E+02 0.  0.
    3000022    2    5    5    0    0 -0.27066746888E+02 -0.46741929099E+02  0.19192802656E+02  0.57322272277E+02  0.25000454868E+00 0.  0.
        -13    1    4    4    0    0  0.17112022022E+00  0.29723059692E+01 -0.22963279854E+01  0.37613869943E+01  0.10500000000E+00 0.  1.
         13    1    4    4    0    0  0.68542446699E-02  0.13281745703E+01 -0.10276634756E+01  0.16826205422E+01  0.10500000000E+00 0. -1.
    3000001    1    5    5    0    0 -0.30597709709E+01 -0.20933696390E+01  0.34733951373E+01  0.51777281331E+01  0.10000000000E+01 0. -1.
        -13    1    6    6    0    0 -0.20338519317E+02 -0.35081858684E+02  0.14425878849E+02  0.43040785104E+02  0.10500000000E+00 0. -1.
         13    1    6    6    0    0 -0.67282275709E+01 -0.11660070414E+02  0.47669238064E+01  0.14281487174E+02  0.10500000000E+00 0.  1.
</event>
<event>
11    0  0.3515428E-009  0.9118800E+02  0.7816531E-02  0.1126479E+00
         25   -1    0    0    0    0  0.00000000000E+00  0.00000000000E+00  0.99999998245E-14  0.12500000000E+03  0.12500000000E+03 0.  0.
    3000001    1    3    3    0    0 -0.10322904867E+02  0.22704840983E+02  0.57153559818E+01  0.25607371262E+02  0.10000000000E+01 0. -1.
    1000022    2    1    0    0    0 -0.18331768408E+02  0.54015240549E+02  0.23506380902E+02  0.62500000443E+02  0.10000008388E+02 0.  0.
    3000022    2    3    3    0    0 -0.80088635405E+01  0.31310399566E+02  0.17791024920E+02  0.36892629181E+02  0.25000795026E+00 0.  0.
    1000022    2    1    0    0    0  0.18331768408E+02 -0.54015240549E+02 -0.23506380902E+02  0.62499999557E+02  0.10000002848E+02 0.  0.
    3000022    2    5    5    0    0 -0.55621560798E+00 -0.50441833471E-02 -0.61174958928E+00  0.86379757630E+00  0.25001489254E+00 0.  0.
        -13    1    4    4    0    0 -0.45436380050E+01  0.17782179232E+02  0.10178131876E+02  0.20987042146E+02  0.10500000000E+00 0.  1.
         13    1    4    4    0    0 -0.34652255355E+01  0.13528220334E+02  0.76128930438E+01  0.15905587034E+02  0.10500000000E+00 0. -1.
    3000001    1    5    5    0    0  0.18887984016E+02 -0.54010196366E+02 -0.22894631313E+02  0.61636201981E+02  0.10000000000E+01 0. -1.
        -13    1    6    6    0    0 -0.20113707825E+00  0.44496773988E-01 -0.18113279598E+00  0.29371785257E+00  0.10500000000E+00 0.  1.
         13    1    6    6    0    0 -0.35507852973E+00 -0.49540957336E-01 -0.43061679330E+00  0.57007972373E+00  0.10500000000E+00 0.  1.
</event>
<event>
11    0  0.3515428E-009  0.9118800E+02  0.7816531E-02  0.1126479E+00
         25   -1    0    0    0    0  0.00000000000E+00  0.00000000000E+00  0.99999998245E-14  0.12500000000E+03  0.12500000000E+03 0.  0.
    3000001    1    3    3    0    0  0.46145424338E+01 -0.53413233332E+01 -0.12114746761E+02  0.14056700391E+02  0.10000000000E+01 0.  1.
    1000022    2    1    0    0    0  0.35287740762E+02 -0.25797714973E+02 -0.43537378423E+02  0.62500000537E+02  0.10000000063E+02 0.  0.
    3000022    2    3    3    0    0  0.30673198328E+02 -0.20456391640E+02 -0.31422631662E+02  0.48443300146E+02  0.24998758746E+00 0.  0.
    1000022    2    1    0    0    0 -0.35287740762E+02  0.25797714973E+02  0.43537378423E+02  0.62499999463E+02  0.99999933486E+01 0.  0.
    3000022    2    5    5    0    0 -0.72344530755E+01  0.26617486191E+01  0.37039331936E+01  0.85559242737E+01  0.25000412276E+00 0.  0.
        -13    1    4    4    0    0  0.73323934869E+01 -0.49032157035E+01 -0.75380636071E+01  0.11603402364E+02  0.10500000000E+00 0. -1.
         13    1    4    4    0    0  0.23340804841E+02 -0.15553175936E+02 -0.23884568055E+02  0.36839897781E+02  0.10500000000E+00 0.  1.
    3000001    1    5    5    0    0 -0.28053287687E+02  0.23135966354E+02  0.39833445229E+02  0.53944075189E+02  0.10000000000E+01 0. -1.
        -13    1    6    6    0    0 -0.34648816346E+01  0.13374842007E+01  0.17472871061E+01  0.41058867447E+01  0.10500000000E+00 0. -1.
         13    1    6    6    0    0 -0.37695714409E+01  0.13242644185E+01  0.19566460874E+01  0.44500375290E+01  0.10500000000E+00 0.  1.
</event>
<event>
11    0  0.3515428E-009  0.9118800E+02  0.7816531E-02  0.1126479E+00
         25   -1    0    0    0    0  0.00000000000E+00  0.00000000000E+00  0.99999998245E-14  0.12500000000E+03  0.12500000000E+03 0.  0.
    3000001    1    3    3    0    0  0.15955590300E+02 -0.53207802164E+01 -0.81574736981E+01  0.18719934323E+02  0.10000000000E+01 0. -1.
    1000022    2    1    0    0    0  0.58164703637E+02 -0.15808063744E+02 -0.13161396799E+02  0.62499999478E+02  0.99999970251E+01 0.  0.
    3000022    2    3    3    0    0  0.42209113337E+02 -0.10487283527E+02 -0.50039231005E+01  0.43780065154E+02  0.24998807900E+00 0.  0.
    1000022    2    1    0    0    0 -0.58164703637E+02  0.15808063744E+02  0.13161396799E+02  0.62500000522E+02  0.10000003556E+02 0.  0.
    3000022    2    5    5    0    0 -0.57893129269E+02  0.15433849279E+02  0.12470674430E+02  0.61199659608E+02  0.24999049628E+00 0.  0.
        -13    1    4    4    0    0  0.99617719102E+01 -0.24599213196E+01 -0.11854802370E+01  0.10329787069E+02  0.10500000000E+00 0. -1.
         13    1    4    4    0    0  0.32247341427E+02 -0.80273622077E+01 -0.38184428635E+01  0.33450278086E+02  0.10500000000E+00 0.  1.
    3000001    1    5    5    0    0 -0.27157436758E+00  0.37421446504E+00  0.69072236876E+00  0.13003409144E+01  0.10000000000E+01 0.  1.
        -13    1    6    6    0    0 -0.38640275514E+02  0.10355861052E+02  0.83190253984E+01  0.40859906491E+02  0.10500000000E+00 0. -1.
         13    1    6    6    0    0 -0.19252853756E+02  0.50779882262E+01  0.41516490315E+01  0.20339753117E+02  0.10500000000E+00 0.  1.
</event>
<event>
11    0  0.3515428E-009  0.9118800E+02  0.7816531E-02  0.1126479E+00
         25   -1    0    0    0    0  0.00000000000E+00  0.00000000000E+00  0.99999998245E-14  0.12500000000E+03  0.12500000000E+03 0.  0.
    3000001    1    3    3    0    0  0.19439847060E+02 -0.10752054325E+02  0.31582828671E+02  0.38626278526E+02  0.10000000000E+01 0. -1.
    1000022    2    1    0    0    0  0.24176535912E+02 -0.18161985915E+02  0.53776270162E+02  0.62500001586E+02  0.10000017230E+02 0.  0.
    3000022    2    3    3    0    0  0.47366888515E+01 -0.74099315897E+01  0.22193441491E+02  0.23873723060E+02  0.25000009863E+00 0.  0.
    1000022    2    1    0    0    0 -0.24176535912E+02  0.18161985915E+02 -0.53776270162E+02  0.62499998414E+02  0.99999974050E+01 0.  0.
    3000022    2    5    5    0    0 -0.12099851885E+02  0.13765278792E+02 -0.25298745942E+02  0.31240652350E+02  0.24999435787E+00 0.  0.
        -13    1    4    4    0    0  0.12113519649E+01 -0.19029957447E+01  0.57775114145E+01  0.62031789860E+01  0.10500000000E+00 0.  1.
         13    1    4    4    0    0  0.35253368866E+01 -0.55069358451E+01  0.16415930077E+02  0.17670544074E+02  0.10500000000E+00 0. -1.
    3000001    1    5    5    0    0 -0.12076684026E+02  0.43967071232E+01 -0.28477524220E+02  0.31259346064E+02  0.10000000000E+01 0.  1.
        -13    1    6    6    0    0 -0.50089768597E+01  0.56637820009E+01 -0.10335182725E+02  0.12806065074E+02  0.10500000000E+00 0.  1.
         13    1    6    6    0    0 -0.70908750258E+01  0.81014967906E+01 -0.14963563217E+02  0.18434587276E+02  0.10500000000E+00 0. -1.
</event>
<event>
11    0  0.3515428E-009  0.9118800E+02  0.7816531E-02  0.1126479E+00
         25   -1    0    0    0    0  0.00000000000E+00  0.00000000000E+00  0.99999998245E-14  0.12500000000E+03  0.12500000000E+03 0.  0.
    3000001    1    3    3    0    0 -0.25791716678E+02  0.25769322027E+02 -0.31230895058E+02  0.48017074182E+02  0.10000000000E+01 0.  1.
    1000022    2    1    0    0    0 -0.28530397710E+02  0.34394304146E+02 -0.42535846999E+02  0.62499999458E+02  0.99999950604E+01 0.  0.
    3000022    2    3    3    0    0 -0.27386810324E+01  0.86249821192E+01 -0.11304951941E+02  0.14482925276E+02  0.24999162814E+00 0.  0.
    1000022    2    1    0    0    0  0.28530397710E+02 -0.34394304146E+02  0.42535846999E+02  0.62500000542E+02  0.10000001830E+02 0.  0.
    3000022    2    5    5    0    0  0.25235199726E+02 -0.24737950400E+02  0.35317915788E+02  0.49961977237E+02  0.24999719820E+00 0.  0.
        -13    1    4    4    0    0 -0.12872763987E+01  0.42065033776E+01 -0.54160564619E+01  0.69782837282E+01  0.10500000000E+00 0.  1.
         13    1    4    4    0    0 -0.14514046337E+01  0.44184787416E+01 -0.58888954793E+01  0.75046415482E+01  0.10500000000E+00 0. -1.
    3000001    1    5    5    0    0  0.32951979836E+01 -0.96563537465E+01  0.72179312111E+01  0.12538023305E+02  0.10000000000E+01 0. -1.
        -13    1    6    6    0    0  0.96815696197E+01 -0.94641027778E+01  0.13613592940E+02  0.19200077328E+02  0.10500000000E+00 0. -1.
         13    1    6    6    0    0  0.15553630107E+02 -0.15273847622E+02  0.21704322848E+02  0.30761899908E+02  0.10500000000E+00 0.  1.
</event>
<event>
11    0  0.3515428E-009  0.9118800E+02  0.7816531E-02  0.1126479E+00
         25   -1    0    0    0    0  0.00000000000E+00  0.00000000000E+00  0.99999998245E-14  0.12500000000E+03  0.12500000000E+03 0.  0.
    3000001    1    3    3    0    0  0.84748667034E+01  0.38587293984E+02 -0.19361963875E+01  0.39567050422E+02  0.10000000000E+01 0. -1.
    1000022    2    1    0    0    0  0.15079989481E+02  0.58958381549E+02 -0.10136730758E+02  0.62499998720E+02  0.99999845959E+01 0.  0.
    3000022    2    3    3    0    0  0.66051227773E+01  0.20371087564E+02 -0.82005343706E+01  0.22932948297E+02  0.24999637215E+00 0.  0.
    1000022    2    1    0    0    0 -0.15079989481E+02 -0.58958381549E+02  0.10136730758E+02  0.62500001280E+02  0.10000000600E+02 0.  0.
    3000022    2    5    5    0    0 -0.53996688933E+01 -0.37901970618E+02  0.86839174325E+01  0.39257976530E+02  0.24999667393E+00 0.  0.
        -13    1    4    4    0    0  0.32555763443E+01  0.10201248780E+02 -0.41500376825E+01  0.11484689450E+02  0.10500000000E+00 0.  1.
         13    1    4    4    0    0  0.33495464330E+01  0.10169838784E+02 -0.40504966881E+01  0.11448258847E+02  0.10500000000E+00 0. -1.
    3000001    1    5    5    0    0 -0.96803205874E+01 -0.21056410931E+02  0.14528133256E+01  0.23242024751E+02  0.10000000000E+01 0.  1.
        -13    1    6    6    0    0 -0.39565720142E+01 -0.27572516656E+02  0.63425476549E+01  0.28568112864E+02  0.10500000000E+00 0.  1.
         13    1    6    6    0    0 -0.14430968792E+01 -0.10329453962E+02  0.23413697776E+01  0.10689863666E+02  0.10500000000E+00 0. -1.
</event>
<event>
11    0  0.3515428E-009  0.9118800E+02  0.7816531E-02  0.1126479E+00
         25   -1    0    0    0    0  0.00000000000E+00  0.00000000000E+00  0.99999998245E-14  0.12500000000E+03  0.12500000000E+03 0.  0.
    3000001    1    3    3    0    0  0.14413634331E+02 -0.44882040388E+02  0.80685015433E+01  0.47835667876E+02  0.10000000000E+01 0. -1.
    1000022    2    1    0    0    0  0.17791328743E+02 -0.56958605187E+02  0.15666394628E+02  0.62500002763E+02  0.10000017072E+02 0.  0.
    3000022    2    3    3    0    0  0.33776944113E+01 -0.12076564799E+02  0.75978930843E+01  0.14664334886E+02  0.25000291691E+00 0.  0.
    1000022    2    1    0    0    0 -0.17791328743E+02  0.56958605187E+02 -0.15666394628E+02  0.62499997237E+02  0.99999825363E+01 0.  0.
    3000022    2    5    5    0    0 -0.17620718367E+02  0.45963202640E+02 -0.10614352558E+02  0.50357052201E+02  0.25002694470E+00 0.  0.
        -13    1    4    4    0    0  0.18953741826E+01 -0.67168024989E+01  0.43036271364E+01  0.82000067458E+01  0.10500000000E+00 0. -1.
         13    1    4    4    0    0  0.14823202287E+01 -0.53597623002E+01  0.32942659480E+01  0.64643281407E+01  0.10500000000E+00 0.  1.
    3000001    1    5    5    0    0 -0.17061037585E+00  0.10995402547E+02 -0.50520420699E+01  0.12142945036E+02  0.10000000000E+01 0.  1.
        -13    1    6    6    0    0 -0.62125155633E+01  0.16052997037E+02 -0.36964173291E+01  0.17605924843E+02  0.10500000000E+00 0. -1.
         13    1    6    6    0    0 -0.11408202804E+02  0.29910205603E+02 -0.69179352287E+01  0.32751127358E+02  0.10500000000E+00 0.  1.
</event>
<event>
11    0  0.3515428E-009  0.9118800E+02  0.7816531E-02  0.1126479E+00
         25   -1    0    0    0    0  0.00000000000E+00  0.00000000000E+00  0.99999998245E-14  0.12500000000E+03  0.12500000000E+03 0.  0.
    3000001    1    3    3    0    0 -0.30727398382E+02 -0.16604047167E+02  0.39913194098E+02  0.53046493350E+02  0.10000000000E+01 0.  1.
    1000022    2    1    0    0    0 -0.33486885905E+02 -0.17016049011E+02  0.48942135214E+02  0.62499999914E+02  0.99999969208E+01 0.  0.
    3000022    2    3    3    0    0 -0.27594875232E+01 -0.41200184469E+00  0.90289411152E+01  0.94535065638E+01  0.24998355500E+00 0.  0.
    1000022    2    1    0    0    0  0.33486885905E+02  0.17016049011E+02 -0.48942135214E+02  0.62500000086E+02  0.99999979933E+01 0.  0.
    3000022    2    5    5    0    0  0.22590329350E+02  0.61576022974E+01 -0.30873515193E+02  0.38748877181E+02  0.24999239581E+00 0.  0.
        -13    1    4    4    0    0 -0.14500648201E+01 -0.27761571848E+00  0.48725545606E+01  0.50924033045E+01  0.10500000000E+00 0.  1.
         13    1    4    4    0    0 -0.13094227031E+01 -0.13438612621E+00  0.41563865546E+01  0.43611032593E+01  0.10500000000E+00 0. -1.
    3000001    1    5    5    0    0  0.10896556555E+02  0.10858446714E+02 -0.18068620021E+02  0.23751122905E+02  0.10000000000E+01 0. -1.
        -13    1    6    6    0    0  0.14403152003E+02  0.38769354818E+01 -0.19723899286E+02  0.24729024332E+02  0.10500000000E+00 0. -1.
         13    1    6    6    0    0  0.81871773471E+01  0.22806668155E+01 -0.11149615906E+02  0.14019852849E+02  0.10500000000E+00 0.  1.
</event>
<event>
11    0  0.3515428E-009  0.9118800E+02  0.7816531E-02  0.1126479E+00
         25   -1    0    0    0    0  0.00000000000E+00  0.00000000000E+00  0.99999998245E-14  0.12500000000E+03  0.12500000000E+03 0.  0.
    3000001    1    3    3    0    0 -0.12617669303E+01 -0.93916255385E+01  0.47152070990E+01  0.10631456346E+02  0.10000000000E+01 0. -1.
    1000022    2    1    0    0    0 -0.25585835576E+02 -0.45273397298E+02  0.33195400333E+02  0.62499999534E+02  0.99999926776E+01 0.  0.
    3000022    2    3    3    0    0 -0.24324068645E+02 -0.35881771759E+02  0.28480193234E+02  0.51868543189E+02  0.25001168105E+00 0.  0.
    1000022    2    1    0    0    0  0.25585835576E+02  0.45273397298E+02 -0.33195400333E+02  0.62500000466E+02  0.99999984986E+01 0.  0.
    3000022    2    5    5    0    0  0.12337847093E+01  0.16721723810E+01 -0.43280793905E+01  0.48076143647E+01  0.24999897711E+00 0.  0.
        -13    1    4    4    0    0 -0.13007319697E+02 -0.19305673123E+02  0.15308141009E+02  0.27861256012E+02  0.10500000000E+00 0. -1.
         13    1    4    4    0    0 -0.11316748948E+02 -0.16576098637E+02  0.13172052225E+02  0.24007287177E+02  0.10500000000E+00 0.  1.
    3000001    1    5    5    0    0  0.24352050866E+02  0.43601224917E+02 -0.28867320942E+02  0.57692386101E+02  0.10000000000E+01 0.  1.
        -13    1    6    6    0    0  0.45939872197E+00  0.54878952295E+00 -0.15761448638E+01  0.17342072419E+01  0.10500000000E+00 0.  1.
         13    1    6    6    0    0  0.77438598737E+00  0.11233828580E+01 -0.27519345267E+01  0.30734071228E+01  0.10500000000E+00 0. -1.
</event>
<event>
11    0  0.3515428E-009  0.9118800E+02  0.7816531E-02  0.1126479E+00
         25   -1    0    0    0    0  0.00000000000E+00  0.00000000000E+00  0.99999998245E-14  0.12500000000E+03  0.12500000000E+03 0.  0.
    3000001    1    3    3    0    0  0.95175974972E+01  0.42370717704E+02  0.31840675811E+02  0.53858063621E+02  0.10000000000E+01 0. -1.
    1000022    2    1    0    0    0  0.13848863417E+02  0.46567856416E+02  0.38024908953E+02  0.62500000628E+02  0.10000005425E+02 0.  0.
    3000022    2    3    3    0    0  0.43312659194E+01  0.41971387117E+01  0.61842331418E+01  0.86419370069E+01  0.24999569851E+00 0.  0.
    1000022    2    1    0    0    0 -0.13848863417E+02 -0.46567856416E+02 -0.38024908953E+02  0.62499999372E+02  0.99999975788E+01 0.  0.
    3000022    2    5    5    0    0 -0.10264778640E+02 -0.39629249341E+02 -0.27341094543E+02  0.49228457557E+02  0.24999748111E+00 0.  0.
        -13    1    4    4    0    0  0.23392401548E+01  0.23332131026E+01  0.34537604686E+01  0.47807336528E+01  0.10500000000E+00 0. -1.
         13    1    4    4    0    0  0.19920257646E+01  0.18639256091E+01  0.27304726732E+01  0.38612033541E+01  0.10500000000E+00 0.  1.
    3000001    1    5    5    0    0 -0.35840847764E+01 -0.69386070751E+01 -0.10683814410E+02  0.13271541816E+02  0.10000000000E+01 0. -1.
        -13    1    6    6    0    0 -0.58226246649E+01 -0.22225723577E+02 -0.15366427847E+02  0.27640981826E+02  0.10500000000E+00 0. -1.
         13    1    6    6    0    0 -0.44421539753E+01 -0.17403525764E+02 -0.11974666696E+02  0.21587475731E+02  0.10500000000E+00 0.  1.
</event>
<event>
11    0  0.3515428E-009  0.9118800E+02  0.7816531E-02  0.1126479E+00
         25   -1    0    0    0    0  0.00000000000E+00  0.00000000000E+00  0.99999998245E-14  0.12500000000E+03  0.12500000000E+03 0.  0.
    3000001    1    3    3    0    0  0.10765955472E+02 -0.19316738870E+02  0.13232051248E+02  0.25790102327E+02  0.10000000000E+01 0. -1.
    1000022    2    1    0    0    0  0.15545598095E+02 -0.51629632844E+02  0.29982752440E+02  0.62499999968E+02  0.99999972186E+01 0.  0.
    3000022    2    3    3    0    0  0.47796426225E+01 -0.32312893974E+02  0.16750701192E+02  0.36709897641E+02  0.24998761987E+00 0.  0.
    1000022    2    1    0    0    0 -0.15545598095E+02  0.51629632844E+02 -0.29982752440E+02  0.62500000032E+02  0.99999976208E+01 0.  0.
    3000022    2    5    5    0    0 -0.10426833260E+02  0.45836970147E+02 -0.26489781090E+02  0.53958481232E+02  0.25002122193E+00 0.  0.
        -13    1    4    4    0    0  0.20580077384E+01 -0.13917363802E+02  0.71409764171E+01  0.15777610093E+02  0.10500000000E+00 0.  1.
         13    1    4    4    0    0  0.27216348841E+01 -0.18395530172E+02  0.96097247746E+01  0.20932287548E+02  0.10500000000E+00 0. -1.
    3000001    1    5    5    0    0 -0.51187648351E+01  0.57926626971E+01 -0.34929713498E+01  0.85415187999E+01  0.10000000000E+01 0.  1.
        -13    1    6    6    0    0 -0.54258316260E+01  0.23803228224E+02 -0.13680910863E+02  0.27985919134E+02  0.10500000000E+00 0. -1.
         13    1    6    6    0    0 -0.50010016337E+01  0.22033741923E+02 -0.12808870227E+02  0.25972562098E+02  0.10500000000E+00 0.  1.
</event>
<event>
11    0  0.3515428E-009  0.9118800E+02  0.7816531E-02  0.1126479E+00
         25   -1    0    0    0    0  0.00000000000E+00  0.00000000000E+00  0.99999998245E-14  0.12500000000E+03  0.12500000000E+03 0.  0.
    3000001    1    3    3    0    0  0.24937406997E+02 -0.78880863297E+01  0.63666318872E+00  0.26182083830E+02  0.10000000000E+01 0. -1.
    1000022    2    1    0    0    0  0.60369318972E+02 -0.10748784988E+02 -0.68013823229E+01  0.62499999592E+02  0.10000004782E+02 0.  0.
    3000022    2    3    3    0    0  0.35431911975E+02 -0.28606986586E+01 -0.74380455116E+01  0.36317915762E+02  0.25000246687E+00 0.  0.
    1000022    2    1    0    0    0 -0.60369318972E+02  0.10748784988E+02  0.68013823229E+01  0.62500000408E+02  0.10000009883E+02 0.  0.
    3000022    2    5    5    0    0 -0.34170195974E+01  0.31664519573E+01  0.52274059530E+00  0.46944857907E+01  0.24999636449E+00 0.  0.
        -13    1    4    4    0    0  0.10888491523E+02 -0.85000472053E+00 -0.23240666438E+01  0.11166649741E+02  0.10500000000E+00 0.  1.
         13    1    4    4    0    0  0.24543420452E+02 -0.20106939381E+01 -0.51139788679E+01  0.25151266021E+02  0.10500000000E+00 0. -1.
    3000001    1    5    5    0    0 -0.56952299374E+02  0.75823330310E+01  0.62786417276E+01  0.57805514617E+02  0.10000000000E+01 0. -1.
        -13    1    6    6    0    0 -0.12214329848E+01  0.12002497778E+01  0.16063440873E+00  0.17231733746E+01  0.10500000000E+00 0. -1.
         13    1    6    6    0    0 -0.21955866126E+01  0.19662021796E+01  0.36210618657E+00  0.29713124162E+01  0.10500000000E+00 0.  1.
</event>
<event>
11    0  0.3515428E-009  0.9118800E+02  0.7816531E-02  0.1126479E+00
         25   -1    0    0    0    0  0.00000000000E+00  0.00000000000E+00  0.99999998245E-14  0.12500000000E+03  0.12500000000E+03 0.  0.
    3000001    1    3    3    0    0 -0.73742195609E+00 -0.53842472104E+01 -0.47340542683E+01  0.72763437920E+01  0.10000000000E+01 0. -1.
    1000022    2    1    0    0    0 -0.25799785448E+02 -0.50855833836E+02 -0.23543691340E+02  0.62499999971E+02  0.99999915070E+01 0.  0.
    3000022    2    3    3    0    0 -0.25062363492E+02 -0.45471586626E+02 -0.18809637071E+02  0.55223656179E+02  0.25000191096E+00 0.  0.
    1000022    2    1    0    0    0  0.25799785448E+02  0.50855833836E+02  0.23543691340E+02  0.62500000029E+02  0.99999918714E+01 0.  0.
    3000022    2    5    5    0    0  0.19183380214E+02  0.45312171999E+02  0.19965662867E+02  0.53102591209E+02  0.24998338627E+00 0.  0.
        -13    1    4    4    0    0 -0.12473515124E+02 -0.22548155437E+02 -0.92770078217E+01  0.27387621151E+02  0.10500000000E+00 0. -1.
         13    1    4    4    0    0 -0.12588848368E+02 -0.22923431188E+02 -0.95326292496E+01  0.27836035028E+02  0.10500000000E+00 0.  1.
    3000001    1    5    5    0    0  0.66164052336E+01  0.55436618371E+01  0.35780284729E+01  0.93974088201E+01  0.10000000000E+01 0. -1.
        -13    1    6    6    0    0  0.11242935844E+02  0.26578659822E+02  0.11778403360E+02  0.31170026870E+02  0.10500000000E+00 0. -1.
         13    1    6    6    0    0  0.79404443698E+01  0.18733512177E+02  0.81872595063E+01  0.21932564339E+02  0.10500000000E+00 0.  1.
</event>
<event>
11    0  0.3515428E-009  0.9118800E+02  0.7816531E-02  0.1126479E+00
         25   -1    0    0    0    0  0.00000000000E+00  0.00000000000E+00  0.99999998245E-14  0.12500000000E+03  0.12500000000E+03 0.  0.
    3000001    1    3    3    0    0  0.24070104569E+01 -0.40187112121E+02  0.23085280593E+02  0.46419046306E+02  0.10000000000E+01 0.  1.
    1000022    2    1    0    0    0 -0.52054118588E+00 -0.51177040742E+02  0.34451260399E+02  0.62500000646E+02  0.10000013773E+02 0.  0.
    3000022    2    3    3    0    0 -0.29275516427E+01 -0.10989928621E+02  0.11365979806E+02  0.16080954339E+02  0.25001159987E+00 0.  0.
    1000022    2    1    0    0    0  0.52054118588E+00  0.51177040742E+02 -0.34451260399E+02  0.62499999354E+02  0.10000005700E+02 0.  0.
    3000022    2    5    5    0    0 -0.64220509091E-01  0.47848338257E+02 -0.28824062831E+02  0.55860153050E+02  0.25000504586E+00 0.  0.
        -13    1    4    4    0    0 -0.77482231700E+00 -0.29154964950E+01  0.29680290825E+01  0.42332837219E+01  0.10500000000E+00 0.  1.
         13    1    4    4    0    0 -0.21527293257E+01 -0.80744321258E+01  0.83979507236E+01  0.11847670618E+02  0.10500000000E+00 0. -1.
    3000001    1    5    5    0    0  0.58476169497E+00  0.33287024851E+01 -0.56271975674E+01  0.66398463037E+01  0.10000000000E+01 0.  1.
        -13    1    6    6    0    0  0.15870371487E-01  0.15795878371E+02 -0.94715809476E+01  0.18418248994E+02  0.10500000000E+00 0.  1.
         13    1    6    6    0    0 -0.80090880578E-01  0.32052459886E+02 -0.19352481884E+02  0.37441904056E+02  0.10500000000E+00 0. -1.
</event>
<event>
11    0  0.3515428E-009  0.9118800E+02  0.7816531E-02  0.1126479E+00
         25   -1    0    0    0    0  0.00000000000E+00  0.00000000000E+00  0.99999998245E-14  0.12500000000E+03  0.12500000000E+03 0.  0.
    3000001    1    3    3    0    0  0.13749356242E+02  0.12483066190E+02 -0.55363798738E+02  0.58403954912E+02  0.10000000000E+01 0.  1.
    1000022    2    1    0    0    0  0.13373715157E+02  0.15370848566E+02 -0.58233414102E+02  0.62499999245E+02  0.10000007247E+02 0.  0.
    3000022    2    3    3    0    0 -0.37564108484E+00  0.28877823758E+01 -0.28696153636E+01  0.40960443335E+01  0.24998714483E+00 0.  0.
    1000022    2    1    0    0    0 -0.13373715157E+02 -0.15370848566E+02  0.58233414102E+02  0.62500000755E+02  0.10000016682E+02 0.  0.
    3000022    2    5    5    0    0 -0.36560248004E+01 -0.32750124729E+01  0.48749732062E+01  0.69224335942E+01  0.24999813239E+00 0.  0.
        -13    1    4    4    0    0 -0.94151910175E-01  0.11408751044E+01 -0.11731344771E+01  0.16424768149E+01  0.10500000000E+00 0. -1.
         13    1    4    4    0    0 -0.28148917466E+00  0.17469072714E+01 -0.16964808865E+01  0.24535675186E+01  0.10500000000E+00 0.  1.
    3000001    1    5    5    0    0 -0.97176903564E+01 -0.12095836093E+02  0.53358440896E+02  0.55577567161E+02  0.10000000000E+01 0.  1.
        -13    1    6    6    0    0 -0.24622725180E+01 -0.21383586320E+01  0.32648056380E+01  0.46157712732E+01  0.10500000000E+00 0. -1.
         13    1    6    6    0    0 -0.11937522824E+01 -0.11366538409E+01  0.16101675682E+01  0.23066623210E+01  0.10500000000E+00 0.  1.
</event>
<event>
11    0  0.3515428E-009  0.9118800E+02  0.7816531E-02  0.1126479E+00
         25   -1    0    0    0    0  0.00000000000E+00  0.00000000000E+00  0.99999998245E-14  0.12500000000E+03  0.12500000000E+03 0.  0.
    3000001    1    3    3    0    0 -0.37596462481E+02 -0.22973559144E+02 -0.82064730240E+01  0.44828836817E+02  0.10000000000E+01 0. -1.
    1000022    2    1    0    0    0 -0.49720775053E+02 -0.32302343205E+02 -0.17048550543E+02  0.62499999716E+02  0.10000002022E+02 0.  0.
    3000022    2    3    3    0    0 -0.12124312572E+02 -0.93287840610E+01 -0.88420775187E+01  0.17671162899E+02  0.24999192322E+00 0.  0.
    1000022    2    1    0    0    0  0.49720775053E+02  0.32302343205E+02  0.17048550543E+02  0.62500000284E+02  0.10000005574E+02 0.  0.
    3000022    2    5    5    0    0 -0.37574002811E-01 -0.46597195591E+00  0.27268852608E+00  0.59616093893E+00  0.25001432652E+00 0.  0.
        -13    1    4    4    0    0 -0.71325997604E+01 -0.55053294790E+01 -0.51353096466E+01  0.10371357779E+02  0.10500000000E+00 0. -1.
         13    1    4    4    0    0 -0.49917128118E+01 -0.38234545820E+01 -0.37067678722E+01  0.72998051203E+01  0.10500000000E+00 0.  1.
    3000001    1    5    5    0    0  0.49758349056E+02  0.32768315161E+02  0.16775862017E+02  0.61903839345E+02  0.10000000000E+01 0. -1.
        -13    1    6    6    0    0  0.48387928373E-01 -0.23051083306E+00  0.11989017617E+00  0.28438581208E+00  0.10500000000E+00 0. -1.
         13    1    6    6    0    0 -0.85961931184E-01 -0.23546112285E+00  0.15279834991E+00  0.31177512685E+00  0.10500000000E+00 0.  1.
</event>
<event>
11    0  0.3515428E-009  0.9118800E+02  0.7816531E-02  0.1126479E+00
         25   -1    0    0    0    0  0.00000000000E+00  0.00000000000E+00  0.99999998245E-14  0.12500000000E+03  0.12500000000E+03 0.  0.
    3000001    1    3    3    0    0 -0.39853419555E+02 -0.17688207323E+02  0.41689662055E+02  0.60334033934E+02  0.10000000000E+01 0. -1.
    1000022    2    1    0    0    0 -0.41132259850E+02 -0.19418354376E+02  0.41681110897E+02  0.62500001521E+02  0.99999948749E+01 0.  0.
    3000022    2    3    3    0    0 -0.12788402950E+01 -0.17301470532E+01 -0.85511578470E-02  0.21659675870E+01  0.25000227978E+00 0.  0.
    1000022    2    1    0    0    0  0.41132259850E+02  0.19418354376E+02 -0.41681110897E+02  0.62499998479E+02  0.99999758573E+01 0.  0.
    3000022    2    5    5    0    0  0.26276194559E+02  0.70276565865E+01 -0.24317147575E+02  0.36485785250E+02  0.25000305480E+00 0.  0.
        -13    1    4    4    0    0 -0.55453149332E+00 -0.81175233818E+00 -0.60006472858E-01  0.99049119754E+00  0.10500000000E+00 0. -1.
         13    1    4    4    0    0 -0.72430880165E+00 -0.91839471499E+00  0.51455315010E-01  0.11754763894E+01  0.10500000000E+00 0.  1.
    3000001    1    5    5    0    0  0.14856065291E+02  0.12390697790E+02 -0.17363963322E+02  0.26014213228E+02  0.10000000000E+01 0.  1.
        -13    1    6    6    0    0  0.73610247797E+01  0.20032877327E+01 -0.68498521975E+01  0.10253260344E+02  0.10500000000E+00 0. -1.
         13    1    6    6    0    0  0.18915169779E+02  0.50243688539E+01 -0.17467295378E+02  0.26232524907E+02  0.10500000000E+00 0.  1.
</event>
<event>
11    0  0.3515428E-009  0.9118800E+02  0.7816531E-02  0.1126479E+00
         25   -1    0    0    0    0  0.00000000000E+00  0.00000000000E+00  0.99999998245E-14  0.12500000000E+03  0.12500000000E+03 0.  0.
    3000001    1    3    3    0    0 -0.38356856538E+02 -0.44287026122E+01  0.24331085935E+01  0.38701186903E+02  0.10000000000E+01 0. -1.
    1000022    2    1    0    0    0 -0.59953372769E+02 -0.94275944493E+01  0.11088888324E+02  0.62499998876E+02  0.99999985827E+01 0.  0.
    3000022    2    3    3    0    0 -0.21596516232E+02 -0.49988918371E+01  0.86557797302E+01  0.23798811972E+02  0.24999122811E+00 0.  0.
    1000022    2    1    0    0    0  0.59953372769E+02  0.94275944493E+01 -0.11088888324E+02  0.62500001124E+02  0.10000012639E+02 0.  0.
    3000022    2    5    5    0    0  0.11142072092E+02 -0.38796113518E+00  0.11758094683E+01  0.11213443264E+02  0.24999516306E+00 0.  0.
        -13    1    4    4    0    0 -0.10117405131E+02 -0.24088621690E+01  0.40788170648E+01  0.11171941514E+02  0.10500000000E+00 0.  1.
         13    1    4    4    0    0 -0.11479111100E+02 -0.25900296681E+01  0.45769626654E+01  0.12626870458E+02  0.10500000000E+00 0. -1.
    3000001    1    5    5    0    0  0.48811300677E+02  0.98155555845E+01 -0.12264697792E+02  0.51286557861E+02  0.10000000000E+01 0. -1.
        -13    1    6    6    0    0  0.80306358886E+01 -0.29599043626E+00  0.81132739471E+00  0.80776234287E+01  0.10500000000E+00 0. -1.
         13    1    6    6    0    0  0.31114362034E+01 -0.91970698923E-01  0.36448207358E+00  0.31358198353E+01  0.10500000000E+00 0.  1.
</event>
<event>
11    0  0.3515428E-009  0.9118800E+02  0.7816531E-02  0.1126479E+00
         25   -1    0    0    0    0  0.00000000000E+00  0.00000000000E+00  0.99999998245E-14  0.12500000000E+03  0.12500000000E+03 0.  0.
    3000001    1    3    3    0    0  0.90673629371E+00 -0.16468700876E+02 -0.32663888585E+02  0.36605599254E+02  0.10000000000E+01 0. -1.
    1000022    2    1    0    0    0  0.95600451199E+01 -0.25911646588E+02 -0.55167406935E+02  0.62499996464E+02  0.99999439278E+01 0.  0.
    3000022    2    3    3    0    0  0.86533088262E+01 -0.94429457115E+01 -0.22503518350E+02  0.25894397210E+02  0.24998282839E+00 0.  0.
    1000022    2    1    0    0    0 -0.95600451199E+01  0.25911646588E+02  0.55167406935E+02  0.62500003536E+02  0.99999881241E+01 0.  0.
    3000022    2    5    5    0    0 -0.18922195866E+01 -0.11574489836E+00  0.18170300190E+01  0.26378003268E+01  0.25000125728E+00 0.  0.
        -13    1    4    4    0    0  0.47888865003E+01 -0.53135422905E+01 -0.12507007890E+02  0.14408450193E+02  0.10500000000E+00 0. -1.
         13    1    4    4    0    0  0.38644223259E+01 -0.41294034210E+01 -0.99965104596E+01  0.11485947018E+02  0.10500000000E+00 0.  1.
    3000001    1    5    5    0    0 -0.76678255333E+01  0.26027391486E+02  0.53350376916E+02  0.59862203209E+02  0.10000000000E+01 0.  1.
        -13    1    6    6    0    0 -0.45394579421E+00 -0.40887926105E-01  0.46807676213E+00  0.66170949958E+00  0.10500000000E+00 0. -1.
         13    1    6    6    0    0 -0.14382737924E+01 -0.74856972258E-01  0.13489532569E+01  0.19760908272E+01  0.10500000000E+00 0. -1.
</event>
<event>
11    0  0.3515428E-009  0.9118800E+02  0.7816531E-02  0.1126479E+00
         25   -1    0    0    0    0  0.00000000000E+00  0.00000000000E+00  0.99999998245E-14  0.12500000000E+03  0.12500000000E+03 0.  0.
    3000001    1    3    3    0    0 -0.19970024844E+02 -0.71747392470E+01 -0.13920351197E+02  0.25397932061E+02  0.10000000000E+01 0. -1.
    1000022    2    1    0    0    0 -0.40546155765E+02 -0.23464018572E+02 -0.40145970769E+02  0.62499999445E+02  0.10000002337E+02 0.  0.
    3000022    2    3    3    0    0 -0.20576130921E+02 -0.16289279325E+02 -0.26225619572E+02  0.37102067384E+02  0.24999519834E+00 0.  0.
    1000022    2    1    0    0    0  0.40546155765E+02  0.23464018572E+02  0.40145970769E+02  0.62500000555E+02  0.10000009277E+02 0.  0.
    3000022    2    5    5    0    0  0.32169720600E+02  0.20485944672E+02  0.27545169818E+02  0.47046399847E+02  0.25001140301E+00 0.  0.
        -13    1    4    4    0    0 -0.73732348665E+01 -0.57705284225E+01 -0.93911770701E+01  0.13261554299E+02  0.10500000000E+00 0.  1.
         13    1    4    4    0    0 -0.13202896055E+02 -0.10518750902E+02 -0.16834442502E+02  0.23840513085E+02  0.10500000000E+00 0. -1.
    3000001    1    5    5    0    0  0.83764351648E+01  0.29780738996E+01  0.12600800951E+02  0.15453600708E+02  0.10000000000E+01 0. -1.
        -13    1    6    6    0    0  0.10188432765E+02  0.64352961157E+01  0.87311861487E+01  0.14881593829E+02  0.10500000000E+00 0.  1.
         13    1    6    6    0    0  0.21981287835E+02  0.14050648557E+02  0.18813983669E+02  0.32164806019E+02  0.10500000000E+00 0. -1.
</event>
<event>
11    0  0.3515428E-009  0.9118800E+02  0.7816531E-02  0.1126479E+00
         25   -1    0    0    0    0  0.00000000000E+00  0.00000000000E+00  0.99999998245E-14  0.12500000000E+03  0.12500000000E+03 0.  0.
    3000001    1    3    3    0    0  0.78405928931E+01  0.73718478607E+01  0.21379547432E+01  0.11017707941E+02  0.10000000000E+01 0.  1.
    1000022    2    1    0    0    0  0.27524878340E+02  0.54127566967E+02  0.10901262167E+02  0.62500000239E+02  0.10000003986E+02 0.  0.
    3000022    2    3    3    0    0  0.19684285447E+02  0.46755719106E+02  0.87633074238E+01  0.51482292298E+02  0.25000117820E+00 0.  0.
    1000022    2    1    0    0    0 -0.27524878340E+02 -0.54127566967E+02 -0.10901262167E+02  0.62499999761E+02  0.10000000996E+02 0.  0.
    3000022    2    5    5    0    0 -0.14434333845E+01 -0.47073029553E+01 -0.36676366494E+01  0.61446131147E+01  0.25002137676E+00 0.  0.
        -13    1    4    4    0    0  0.79740351003E+01  0.19104961327E+02  0.35781423335E+01  0.21009495726E+02  0.10500000000E+00 0.  1.
         13    1    4    4    0    0  0.11710250346E+02  0.27650757779E+02  0.51851650903E+01  0.30472796572E+02  0.10500000000E+00 0. -1.
    3000001    1    5    5    0    0 -0.26081444955E+02 -0.49420264011E+02 -0.72336255177E+01  0.56355386646E+02  0.10000000000E+01 0. -1.
        -13    1    6    6    0    0 -0.54842496429E+00 -0.20092710325E+01 -0.15432902019E+01  0.25943611296E+01  0.10500000000E+00 0.  1.
         13    1    6    6    0    0 -0.89500842016E+00 -0.26980319228E+01 -0.21243464475E+01  0.35502519851E+01  0.10500000000E+00 0. -1.
</event>
<event>
11    0  0.3515428E-009  0.9118800E+02  0.7816531E-02  0.1126479E+00
         25   -1    0    0    0    0  0.00000000000E+00  0.00000000000E+00  0.99999998245E-14  0.12500000000E+03  0.12500000000E+03 0.  0.
    3000001    1    3    3    0    0  0.48852922281E+00 -0.37041841642E+01 -0.96728737034E+01  0.10417491387E+02  0.10000000000E+01 0. -1.
    1000022    2    1    0    0    0  0.72079262596E+01 -0.12263240502E+01 -0.61260034155E+02  0.62500000075E+02  0.10000007650E+02 0.  0.
    3000022    2    3    3    0    0  0.67193970368E+01  0.24778601140E+01 -0.51587160452E+02  0.52082508687E+02  0.25000081411E+00 0.  0.
    1000022    2    1    0    0    0 -0.72079262596E+01  0.12263240502E+01  0.61260034155E+02  0.62499999925E+02  0.10000006716E+02 0.  0.
    3000022    2    5    5    0    0 -0.67132836219E+01  0.37572911833E+01  0.56275494480E+02  0.56799464710E+02  0.24999668348E+00 0.  0.
        -13    1    4    4    0    0  0.31792820085E+01  0.11656279875E+01 -0.23905004956E+02  0.24143877270E+02  0.10500000000E+00 0.  1.
         13    1    4    4    0    0  0.35401150283E+01  0.13122321265E+01 -0.27682155496E+02  0.27938631418E+02  0.10500000000E+00 0. -1.
    3000001    1    5    5    0    0 -0.49464263768E+00 -0.25309671331E+01  0.49845396756E+01  0.57005352157E+01  0.10000000000E+01 0. -1.
        -13    1    6    6    0    0 -0.26272433951E+01  0.15383905049E+01  0.22124586024E+02  0.22333324538E+02  0.10500000000E+00 0.  1.
         13    1    6    6    0    0 -0.40860402268E+01  0.22189006784E+01  0.34150908456E+02  0.34466140171E+02  0.10500000000E+00 0. -1.
</event>
<event>
11    0  0.3515428E-009  0.9118800E+02  0.7816531E-02  0.1126479E+00
         25   -1    0    0    0    0  0.00000000000E+00  0.00000000000E+00  0.99999998245E-14  0.12500000000E+03  0.12500000000E+03 0.  0.
    3000001    1    3    3    0    0 -0.33956883790E+01 -0.66449451817E+01 -0.14395564401E+01  0.76653974965E+01  0.10000000000E+01 0. -1.
    1000022    2    1    0    0    0 -0.42136648252E+02 -0.44504204231E+02  0.70801675721E+01  0.62500000185E+02  0.99999965045E+01 0.  0.
    3000022    2    3    3    0    0 -0.38740959873E+02 -0.37859259050E+02  0.85197240122E+01  0.54834602689E+02  0.24997416826E+00 0.  0.
    1000022    2    1    0    0    0  0.42136648252E+02  0.44504204231E+02 -0.70801675721E+01  0.62499999815E+02  0.99999941911E+01 0.  0.
    3000022    2    5    5    0    0  0.13713244144E+02  0.20794497206E+02 -0.65408524169E+00  0.24918958817E+02  0.25000408811E+00 0.  0.
        -13    1    4    4    0    0 -0.11336440932E+02 -0.11138887706E+02  0.25076084568E+01  0.16090022918E+02  0.10500000000E+00 0.  1.
         13    1    4    4    0    0 -0.27404518942E+02 -0.26720371343E+02  0.60121155554E+01  0.38744579771E+02  0.10500000000E+00 0. -1.
    3000001    1    5    5    0    0  0.28423404109E+02  0.23709707025E+02 -0.64260823304E+01  0.37581040998E+02  0.10000000000E+01 0. -1.
        -13    1    6    6    0    0  0.45662661556E+01  0.68357309842E+01 -0.19530335787E+00  0.82235742287E+01  0.10500000000E+00 0. -1.
         13    1    6    6    0    0  0.91469779881E+01  0.13958766222E+02 -0.45878188381E+00  0.16695384589E+02  0.10500000000E+00 0.  1.
</event>
<event>
11    0  0.3515428E-009  0.9118800E+02  0.7816531E-02  0.1126479E+00
         25   -1    0    0    0    0  0.00000000000E+00  0.00000000000E+00  0.99999998245E-14  0.12500000000E+03  0.12500000000E+03 0.  0.
    3000001    1    3    3    0    0  0.12076791213E+02 -0.47597238058E+01 -0.23022683907E+02  0.26448966539E+02  0.10000000000E+01 0.  1.
    1000022    2    1    0    0    0  0.34920883656E+02 -0.23449730076E+01 -0.50806328549E+02  0.62499999971E+02  0.99999980985E+01 0.  0.
    3000022    2    3    3    0    0  0.22844092443E+02  0.24147507982E+01 -0.27783644642E+02  0.36051033432E+02  0.25004184644E+00 0.  0.
    1000022    2    1    0    0    0 -0.34920883656E+02  0.23449730076E+01  0.50806328549E+02  0.62500000029E+02  0.99999984656E+01 0.  0.
    3000022    2    5    5    0    0 -0.34112049502E+02  0.46636081805E+00  0.47317133354E+02  0.58333721167E+02  0.25000545956E+00 0.  0.
        -13    1    4    4    0    0  0.65703928171E+01  0.65781064238E+00 -0.79539249138E+01  0.10338216633E+02  0.10500000000E+00 0.  1.
         13    1    4    4    0    0  0.16273699625E+02  0.17569401558E+01 -0.19829719729E+02  0.25712816799E+02  0.10500000000E+00 0. -1.
    3000001    1    5    5    0    0 -0.80883415371E+00  0.18786121895E+01  0.34891951950E+01  0.41662788620E+01  0.10000000000E+01 0. -1.
        -13    1    6    6    0    0 -0.24948851665E+02  0.35896261024E+00  0.34658812885E+02  0.42706186779E+02  0.10500000000E+00 0. -1.
         13    1    6    6    0    0 -0.91631978374E+01  0.10739820781E+00  0.12658320469E+02  0.15627534389E+02  0.10500000000E+00 0.  1.
</event>
<event>
11    0  0.3515428E-009  0.9118800E+02  0.7816531E-02  0.1126479E+00
         25   -1    0    0    0    0  0.00000000000E+00  0.00000000000E+00  0.99999998245E-14  0.12500000000E+03  0.12500000000E+03 0.  0.
    3000001    1    3    3    0    0  0.23600416200E+02 -0.20502980077E+02  0.10809631357E+02  0.33093805567E+02  0.10000000000E+01 0. -1.
    1000022    2    1    0    0    0  0.49625799363E+02 -0.33717609900E+02  0.14375424304E+02  0.62500002040E+02  0.10000012562E+02 0.  0.
    3000022    2    3    3    0    0  0.26025383163E+02 -0.13214629823E+02  0.35657929471E+01  0.29406196473E+02  0.25000296092E+00 0.  0.
    1000022    2    1    0    0    0 -0.49625799363E+02  0.33717609900E+02 -0.14375424304E+02  0.62499997960E+02  0.99999870650E+01 0.  0.
    3000022    2    5    5    0    0 -0.58349774597E+01  0.72118529715E+01  0.15159736815E+00  0.92813396532E+01  0.24999751475E+00 0.  0.
        -13    1    4    4    0    0  0.16927149118E+02 -0.86473160944E+01  0.23537543587E+01  0.19153475859E+02  0.10500000000E+00 0. -1.
         13    1    4    4    0    0  0.90982340450E+01 -0.45673137284E+01  0.12120385884E+01  0.10252720613E+02  0.10500000000E+00 0.  1.
    3000001    1    5    5    0    0 -0.43790821904E+02  0.26505756928E+02 -0.14527021672E+02  0.53218658307E+02  0.10000000000E+01 0. -1.
        -13    1    6    6    0    0 -0.43166739011E+01  0.52842630367E+01  0.12176963253E+00  0.68251712252E+01  0.10500000000E+00 0.  1.
         13    1    6    6    0    0 -0.15183035586E+01  0.19275899348E+01  0.29827735622E-01  0.24561684280E+01  0.10500000000E+00 0. -1.
</event>
<event>
11    0  0.3515428E-009  0.9118800E+02  0.7816531E-02  0.1126479E+00
         25   -1    0    0    0    0  0.00000000000E+00  0.00000000000E+00  0.99999998245E-14  0.12500000000E+03  0.12500000000E+03 0.  0.
    3000001    1    3    3    0    0  0.28139105456E+02  0.17570968106E+02  0.14804588083E+02  0.36341766665E+02  0.10000000000E+01 0. -1.
    1000022    2    1    0    0    0  0.43053810708E+02  0.36660311492E+02  0.24670653172E+02  0.62500000662E+02  0.99999949873E+01 0.  0.
    3000022    2    3    3    0    0  0.14914705252E+02  0.19089343386E+02  0.98660650897E+01  0.26158233997E+02  0.25000373870E+00 0.  0.
    1000022    2    1    0    0    0 -0.43053810708E+02 -0.36660311492E+02 -0.24670653172E+02  0.62499999338E+02  0.99999867070E+01 0.  0.
    3000022    2    5    5    0    0 -0.40497870034E+02 -0.36346009354E+02 -0.24645033335E+02  0.59737342113E+02  0.25000293871E+00 0.  0.
        -13    1    4    4    0    0  0.10380578018E+02  0.13353852977E+02  0.68665210203E+01  0.18254915098E+02  0.10500000000E+00 0. -1.
         13    1    4    4    0    0  0.45341272333E+01  0.57354904089E+01  0.29995440694E+01  0.79033188992E+01  0.10500000000E+00 0.  1.
    3000001    1    5    5    0    0 -0.25559406741E+01 -0.31430213770E+00 -0.25619837500E-01  0.27626572244E+01  0.10000000000E+01 0.  1.
        -13    1    6    6    0    0 -0.17969446556E+02 -0.16157054335E+02 -0.10875729754E+02  0.26499885603E+02  0.10500000000E+00 0. -1.
         13    1    6    6    0    0 -0.22528423478E+02 -0.20188955019E+02 -0.13769303581E+02  0.33237456510E+02  0.10500000000E+00 0.  1.
</event>
<event>
11    0  0.3515428E-009  0.9118800E+02  0.7816531E-02  0.1126479E+00
         25   -1    0    0    0    0  0.00000000000E+00  0.00000000000E+00  0.99999998245E-14  0.12500000000E+03  0.12500000000E+03 0.  0.
    3000001    1    3    3    0    0 -0.32920600053E+01 -0.34204642365E+01  0.21088777200E+01  0.52900472502E+01  0.10000000000E+01 0.  1.
    1000022    2    1    0    0    0 -0.22341937885E+02 -0.57284311923E+02  0.50591908075E+01  0.62500000789E+02  0.10000005304E+02 0.  0.
    3000022    2    3    3    0    0 -0.19049877879E+02 -0.53863847686E+02  0.29503130875E+01  0.57209953539E+02  0.25000359744E+00 0.  0.
    1000022    2    1    0    0    0  0.22341937885E+02  0.57284311923E+02 -0.50591908075E+01  0.62499999211E+02  0.99999954441E+01 0.  0.
    3000022    2    5    5    0    0  0.15492441639E+02  0.49137606445E+02 -0.29759119854E+01  0.51608513564E+02  0.25001003014E+00 0.  0.
        -13    1    4    4    0    0 -0.89924927934E+01 -0.25359886275E+02  0.13256894987E+01  0.26939881889E+02  0.10500000000E+00 0.  1.
         13    1    4    4    0    0 -0.10057385086E+02 -0.28503961411E+02  0.16246235888E+01  0.30270071650E+02  0.10500000000E+00 0. -1.
    3000001    1    5    5    0    0  0.68494962459E+01  0.81467054774E+01 -0.20832788221E+01  0.10891485647E+02  0.10000000000E+01 0.  1.
        -13    1    6    6    0    0  0.10274670813E+02  0.32737229859E+02 -0.19522037202E+01  0.34367385753E+02  0.10500000000E+00 0. -1.
         13    1    6    6    0    0  0.52177708252E+01  0.16400376587E+02 -0.10237082651E+01  0.17241127811E+02  0.10500000000E+00 0.  1.
</event>
<event>
11    0  0.3515428E-009  0.9118800E+02  0.7816531E-02  0.1126479E+00
         25   -1    0    0    0    0  0.00000000000E+00  0.00000000000E+00  0.99999998245E-14  0.12500000000E+03  0.12500000000E+03 0.  0.
    3000001    1    3    3    0    0  0.59463832584E+01 -0.27062568301E+01 -0.20565509919E+02  0.21601469813E+02  0.10000000000E+01 0.  1.
    1000022    2    1    0    0    0  0.10003994044E+02 -0.19181148322E+02 -0.57777620909E+02  0.62500002314E+02  0.10000023177E+02 0.  0.
    3000022    2    3    3    0    0  0.40576107858E+01 -0.16474891492E+02 -0.37212110990E+02  0.40898532500E+02  0.25000275568E+00 0.  0.
    1000022    2    1    0    0    0 -0.10003994044E+02  0.19181148322E+02  0.57777620909E+02  0.62499997686E+02  0.99999942563E+01 0.  0.
    3000022    2    5    5    0    0 -0.57601973358E+01  0.34504346007E+01  0.24933648535E+02  0.25823142778E+02  0.25000275755E+00 0.  0.
        -13    1    4    4    0    0  0.20634126136E+01 -0.82073893927E+01 -0.18429606842E+02  0.20280047968E+02  0.10500000000E+00 0.  1.
         13    1    4    4    0    0  0.19941981722E+01 -0.82675020992E+01 -0.18782504149E+02  0.20618484532E+02  0.10500000000E+00 0. -1.
    3000001    1    5    5    0    0 -0.42437967084E+01  0.15730713721E+02  0.32843972373E+02  0.36676854908E+02  0.10000000000E+01 0.  1.
        -13    1    6    6    0    0 -0.22861938386E+01  0.14432530382E+01  0.10041498785E+02  0.10399633861E+02  0.10500000000E+00 0.  1.
         13    1    6    6    0    0 -0.34740034972E+01  0.20071815625E+01  0.14892149750E+02  0.15423508917E+02  0.10500000000E+00 0. -1.
</event>
<event>
11    0  0.3515428E-009  0.9118800E+02  0.7816531E-02  0.1126479E+00
         25   -1    0    0    0    0  0.00000000000E+00  0.00000000000E+00  0.99999998245E-14  0.12500000000E+03  0.12500000000E+03 0.  0.
    3000001    1    3    3    0    0 -0.67084351302E+00  0.25213270764E+02 -0.21629864739E+01  0.25334513300E+02  0.10000000000E+01 0.  1.
    1000022    2    1    0    0    0  0.92062717088E+01  0.60193575869E+02 -0.99110013871E+01  0.62499999788E+02  0.10000000517E+02 0.  0.
    3000022    2    3    3    0    0  0.98771152218E+01  0.34980305105E+02 -0.77480149131E+01  0.37165486489E+02  0.25000097345E+00 0.  0.
    1000022    2    1    0    0    0 -0.92062717088E+01 -0.60193575869E+02  0.99110013871E+01  0.62500000212E+02  0.10000003161E+02 0.  0.
    3000022    2    5    5    0    0 -0.42339829812E+01 -0.11593752079E+02 -0.11542089505E+01  0.12399048051E+02  0.24999019374E+00 0.  0.
        -13    1    4    4    0    0  0.46569813372E+01  0.16442615997E+02 -0.35753213929E+01  0.17459697708E+02  0.10500000000E+00 0. -1.
         13    1    4    4    0    0  0.52201338846E+01  0.18537689108E+02 -0.41726935202E+01  0.19705788780E+02  0.10500000000E+00 0.  1.
    3000001    1    5    5    0    0 -0.49722887276E+01 -0.48599823790E+02  0.11065210338E+02  0.50100952161E+02  0.10000000000E+01 0.  1.
        -13    1    6    6    0    0 -0.17253069671E+01 -0.47678788725E+01 -0.53674641258E+00  0.50998504669E+01  0.10500000000E+00 0.  1.
         13    1    6    6    0    0 -0.25086760142E+01 -0.68258732070E+01 -0.61746253793E+00  0.72991975838E+01  0.10500000000E+00 0. -1.
</event>
<event>
11    0  0.3515428E-009  0.9118800E+02  0.7816531E-02  0.1126479E+00
         25   -1    0    0    0    0  0.00000000000E+00  0.00000000000E+00  0.99999998245E-14  0.12500000000E+03  0.12500000000E+03 0.  0.
    3000001    1    3    3    0    0  0.49064607228E+01 -0.51037458903E+01  0.14782501912E+02  0.16420838642E+02  0.10000000000E+01 0.  1.
    1000022    2    1    0    0    0  0.23380819551E+02 -0.32232084432E+02  0.47124088146E+02  0.62500002886E+02  0.10000034373E+02 0.  0.
    3000022    2    3    3    0    0  0.18474358828E+02 -0.27128338542E+02  0.32341586233E+02  0.46079164244E+02  0.24998225685E+00 0.  0.
    1000022    2    1    0    0    0 -0.23380819551E+02  0.32232084432E+02 -0.47124088146E+02  0.62499997114E+02  0.99999982973E+01 0.  0.
    3000022    2    5    5    0    0 -0.12773676016E+02  0.14201664436E+02 -0.15650126679E+02  0.24695000227E+02  0.24999884956E+00 0.  0.
        -13    1    4    4    0    0  0.11250723407E+02 -0.16418948745E+02  0.19646751817E+02  0.27967240426E+02  0.10500000000E+00 0.  1.
         13    1    4    4    0    0  0.72236354210E+01 -0.10709389797E+02  0.12694834417E+02  0.18111923818E+02  0.10500000000E+00 0. -1.
    3000001    1    5    5    0    0 -0.10607143535E+02  0.18030419996E+02 -0.31473961467E+02  0.37804996887E+02  0.10000000000E+01 0. -1.
        -13    1    6    6    0    0 -0.77026364286E+01  0.85935458383E+01 -0.95317897316E+01  0.14968155481E+02  0.10500000000E+00 0.  1.
         13    1    6    6    0    0 -0.50710395877E+01  0.56081185976E+01 -0.61183369476E+01  0.97268447458E+01  0.10500000000E+00 0. -1.
</event>
<event>
11    0  0.3515428E-009  0.9118800E+02  0.7816531E-02  0.1126479E+00
         25   -1    0    0    0    0  0.00000000000E+00  0.00000000000E+00  0.99999998245E-14  0.12500000000E+03  0.12500000000E+03 0.  0.
    3000001    1    3    3    0    0  0.42406478032E+02  0.93181252148E+01 -0.38381897716E+02  0.57959528197E+02  0.10000000000E+01 0.  1.
    1000022    2    1    0    0    0  0.46370117377E+02  0.11411024596E+02 -0.39062140112E+02  0.62500001538E+02  0.10000006715E+02 0.  0.
    3000022    2    3    3    0    0  0.39636393450E+01  0.20928993810E+01 -0.68024239600E+00  0.45404733410E+01  0.25000753365E+00 0.  0.
    1000022    2    1    0    0    0 -0.46370117377E+02 -0.11411024596E+02  0.39062140112E+02  0.62499998462E+02  0.99999874884E+01 0.  0.
    3000022    2    5    5    0    0 -0.31476631427E+02 -0.58876405046E+01  0.20385641230E+02  0.37961552993E+02  0.25000115080E+00 0.  0.
        -13    1    4    4    0    0  0.27184865208E+01  0.14376284331E+01 -0.51626690895E+00  0.31200161853E+01  0.10500000000E+00 0.  1.
         13    1    4    4    0    0  0.12451528242E+01  0.65527094790E+00 -0.16397548704E+00  0.14204571557E+01  0.10500000000E+00 0. -1.
    3000001    1    5    5    0    0 -0.14893485950E+02 -0.55233840913E+01  0.18676498882E+02  0.24538445469E+02  0.10000000000E+01 0. -1.
        -13    1    6    6    0    0 -0.92274486855E+01 -0.17705331821E+01  0.59860869356E+01  0.11141133640E+02  0.10500000000E+00 0. -1.
         13    1    6    6    0    0 -0.22249182741E+02 -0.41171073224E+01  0.14399554294E+02  0.26820419352E+02  0.10500000000E+00 0.  1.
</event>
<event>
11    0  0.3515428E-009  0.9118800E+02  0.7816531E-02  0.1126479E+00
         25   -1    0    0    0    0  0.00000000000E+00  0.00000000000E+00  0.99999998245E-14  0.12500000000E+03  0.12500000000E+03 0.  0.
    3000001    1    3    3    0    0  0.26812998989E+01 -0.17429142305E+02  0.46113102482E+02  0.49379981684E+02  0.10000000000E+01 0. -1.
    1000022    2    1    0    0    0  0.83427630010E+01 -0.21392602172E+02  0.57262595148E+02  0.62499999735E+02  0.10000002082E+02 0.  0.
    3000022    2    3    3    0    0  0.56614631020E+01 -0.39634598673E+01  0.11149492666E+02  0.13120018051E+02  0.25001674108E+00 0.  0.
    1000022    2    1    0    0    0 -0.83427630010E+01  0.21392602172E+02 -0.57262595148E+02  0.62500000265E+02  0.10000005389E+02 0.  0.
    3000022    2    5    5    0    0 -0.10068639298E+02  0.20496997309E+02 -0.52936298328E+02  0.57652567827E+02  0.25000062280E+00 0.  0.
        -13    1    4    4    0    0  0.23429639306E+01 -0.16187673570E+01  0.44784567363E+01  0.53082471189E+01  0.10500000000E+00 0.  1.
         13    1    4    4    0    0  0.33184991714E+01 -0.23446925102E+01  0.66710359300E+01  0.78117709322E+01  0.10500000000E+00 0. -1.
    3000001    1    5    5    0    0  0.17258762975E+01  0.89560486292E+00 -0.43262968203E+01  0.48474324381E+01  0.10000000000E+01 0.  1.
        -13    1    6    6    0    0 -0.62351537815E+01  0.12771389075E+02 -0.32818242336E+02  0.35763578912E+02  0.10500000000E+00 0.  1.
         13    1    6    6    0    0 -0.38334855170E+01  0.77256082347E+01 -0.20118055992E+02  0.21888988914E+02  0.10500000000E+00 0. -1.
</event>
<event>
11    0  0.3515428E-009  0.9118800E+02  0.7816531E-02  0.1126479E+00
         25   -1    0    0    0    0  0.00000000000E+00  0.00000000000E+00  0.99999998245E-14  0.12500000000E+03  0.12500000000E+03 0.  0.
    3000001    1    3    3    0    0  0.41399130429E+01 -0.12199430603E+02 -0.14110908716E+02  0.19133288579E+02  0.10000000000E+01 0.  1.
    1000022    2    1    0    0    0  0.18194900810E+02 -0.47792413364E+02 -0.34512042313E+02  0.62500002237E+02  0.10000001221E+02 0.  0.
    3000022    2    3    3    0    0  0.14054987768E+02 -0.35592982760E+02 -0.20401133597E+02  0.43366713658E+02  0.24999713513E+00 0.  0.
    1000022    2    1    0    0    0 -0.18194900810E+02  0.47792413364E+02  0.34512042313E+02  0.62499997763E+02  0.99999732537E+01 0.  0.
    3000022    2    5    5    0    0 -0.10790236142E+02  0.25799941214E+02  0.12995965537E+02  0.30838673565E+02  0.25000876094E+00 0.  0.
        -13    1    4    4    0    0  0.55986043471E+01 -0.14018040653E+02 -0.80714316277E+01  0.17117501801E+02  0.10500000000E+00 0.  1.
         13    1    4    4    0    0  0.84563834204E+01 -0.21574942107E+02 -0.12329701969E+02  0.26249211857E+02  0.10500000000E+00 0. -1.
    3000001    1    5    5    0    0 -0.74046646687E+01  0.21992472150E+02  0.21516076775E+02  0.31661324198E+02  0.10000000000E+01 0. -1.
        -13    1    6    6    0    0 -0.60711284224E+01  0.14513490056E+02  0.72381225878E+01  0.17317662589E+02  0.10500000000E+00 0. -1.
         13    1    6    6    0    0 -0.47191077194E+01  0.11286451157E+02  0.57578429496E+01  0.13521010977E+02  0.10500000000E+00 0.  1.
</event>
<event>
11    0  0.3515428E-009  0.9118800E+02  0.7816531E-02  0.1126479E+00
         25   -1    0    0    0    0  0.00000000000E+00  0.00000000000E+00  0.99999998245E-14  0.12500000000E+03  0.12500000000E+03 0.  0.
    3000001    1    3    3    0    0 -0.15067728845E+02  0.16575039926E+02 -0.10837582031E+00  0.22422759563E+02  0.10000000000E+01 0. -1.
    1000022    2    1    0    0    0 -0.31258234867E+02  0.53065915972E+02 -0.36306158044E+01  0.62499999903E+02  0.99999965916E+01 0.  0.
    3000022    2    3    3    0    0 -0.16190506021E+02  0.36490876046E+02 -0.35222399841E+01  0.40077240340E+02  0.24999784874E+00 0.  0.
    1000022    2    1    0    0    0  0.31258234867E+02 -0.53065915972E+02  0.36306158044E+01  0.62500000097E+02  0.99999978061E+01 0.  0.
    3000022    2    5    5    0    0  0.20385101131E+02 -0.35069385497E+02  0.70547816227E+01  0.41173372190E+02  0.24997288938E+00 0.  0.
        -13    1    4    4    0    0 -0.80174933999E+01  0.17923602654E+02 -0.16996721860E+01  0.19708770714E+02  0.10500000000E+00 0.  1.
         13    1    4    4    0    0 -0.81730126214E+01  0.18567273393E+02 -0.18225677981E+01  0.20368469626E+02  0.10500000000E+00 0. -1.
    3000001    1    5    5    0    0  0.10873133736E+02 -0.17996530474E+02 -0.34241658183E+01  0.21326627908E+02  0.10000000000E+01 0.  1.
        -13    1    6    6    0    0  0.10139594098E+02 -0.17460967259E+02  0.34434370633E+01  0.20483286599E+02  0.10500000000E+00 0.  1.
         13    1    6    6    0    0  0.10245507032E+02 -0.17608418239E+02  0.36113445594E+01  0.20690085590E+02  0.10500000000E+00 0. -1.
</event>
<event>
11    0  0.3515428E-009  0.9118800E+02  0.7816531E-02  0.1126479E+00
         25   -1    0    0    0    0  0.00000000000E+00  0.00000000000E+00  0.99999998245E-14  0.12500000000E+03  0.12500000000E+03 0.  0.
    3000001    1    3    3    0    0  0.59075281331E+01  0.15601610938E+02 -0.31891337001E+02  0.36005090310E+02  0.10000000000E+01 0.  1.
    1000022    2    1    0    0    0  0.16041380563E+02  0.31236438466E+02 -0.50726807037E+02  0.62499999795E+02  0.10000002187E+02 0.  0.
    3000022    2    3    3    0    0  0.10133852430E+02  0.15634827529E+02 -0.18835470036E+02  0.26494909485E+02  0.25000044520E+00 0.  0.
    1000022    2    1    0    0    0 -0.16041380563E+02 -0.31236438466E+02  0.50726807037E+02  0.62500000205E+02  0.10000004748E+02 0.  0.
    3000022    2    5    5    0    0 -0.11199254322E+02 -0.22453331541E+02  0.43054416164E+02  0.49832927318E+02  0.24999847724E+00 0.  0.
        -13    1    4    4    0    0  0.58761029646E+01  0.90858475356E+01 -0.11029186070E+02  0.15451057629E+02  0.10500000000E+00 0. -1.
         13    1    4    4    0    0  0.42577494657E+01  0.65489799930E+01 -0.78062839657E+01  0.11043851856E+02  0.10500000000E+00 0.  1.
    3000001    1    5    5    0    0 -0.48421262414E+01 -0.87831069253E+01  0.76723908736E+01  0.12667072887E+02  0.10000000000E+01 0.  1.
        -13    1    6    6    0    0 -0.32428901675E+01 -0.64765538822E+01  0.12510807457E+02  0.14456604547E+02  0.10500000000E+00 0.  1.
         13    1    6    6    0    0 -0.79563641545E+01 -0.15976777659E+02  0.30543608707E+02  0.35376322771E+02  0.10500000000E+00 0. -1.
</event>
<event>
11    0  0.3515428E-009  0.9118800E+02  0.7816531E-02  0.1126479E+00
         25   -1    0    0    0    0  0.00000000000E+00  0.00000000000E+00  0.99999998245E-14  0.12500000000E+03  0.12500000000E+03 0.  0.
    3000001    1    3    3    0    0 -0.10057132041E+02  0.45958965050E+01  0.54316281908E+01  0.12360046698E+02  0.10000000000E+01 0. -1.
    1000022    2    1    0    0    0 -0.47774416101E+02  0.72211611093E+01  0.38362871937E+02  0.62499999119E+02  0.99999972573E+01 0.  0.
    3000022    2    3    3    0    0 -0.37717284059E+02  0.26252646042E+01  0.32931243746E+02  0.50139952421E+02  0.24996612065E+00 0.  0.
    1000022    2    1    0    0    0  0.47774416101E+02 -0.72211611093E+01 -0.38362871937E+02  0.62500000881E+02  0.10000008267E+02 0.  0.
    3000022    2    5    5    0    0  0.80947258070E+01  0.24895998379E+01 -0.69444143530E+01  0.10954912105E+02  0.25003055439E+00 0.  0.
        -13    1    4    4    0    0 -0.15831782952E+02  0.10402761175E+01  0.13845978509E+02  0.21058244744E+02  0.10500000000E+00 0. -1.
         13    1    4    4    0    0 -0.21885501108E+02  0.15849884867E+01  0.19085265237E+02  0.29081707677E+02  0.10500000000E+00 0.  1.
    3000001    1    5    5    0    0  0.39679690294E+02 -0.97107609472E+01 -0.31418457584E+02  0.51545088776E+02  0.10000000000E+01 0.  1.
        -13    1    6    6    0    0  0.37777312432E+01  0.12315170065E+01 -0.32716115850E+01  0.51480437883E+01  0.10500000000E+00 0.  1.
         13    1    6    6    0    0  0.43169945638E+01  0.12580828314E+01 -0.36728027680E+01  0.58068683167E+01  0.10500000000E+00 0. -1.
</event>
<event>
11    0  0.3515428E-009  0.9118800E+02  0.7816531E-02  0.1126479E+00
         25   -1    0    0    0    0  0.00000000000E+00  0.00000000000E+00  0.99999998245E-14  0.12500000000E+03  0.12500000000E+03 0.  0.
    3000001    1    3    3    0    0 -0.80323209053E+01  0.12356116030E+02 -0.46124273602E+02  0.48431811837E+02  0.10000000000E+01 0. -1.
    1000022    2    1    0    0    0 -0.14205115730E+02  0.12301974369E+02 -0.58763305271E+02  0.62500001138E+02  0.10000010481E+02 0.  0.
    3000022    2    3    3    0    0 -0.61727948247E+01 -0.54141660961E-01 -0.12639031669E+02  0.14068189301E+02  0.25000284539E+00 0.  0.
    1000022    2    1    0    0    0  0.14205115730E+02 -0.12301974369E+02  0.58763305271E+02  0.62499998862E+02  0.99999962585E+01 0.  0.
    3000022    2    5    5    0    0  0.92938482308E+01 -0.12352733237E+02  0.35795154196E+02  0.38991296459E+02  0.25000449118E+00 0.  0.
        -13    1    4    4    0    0 -0.18223885896E+01  0.84133098035E-02 -0.38200404027E+01  0.42337813635E+01  0.10500000000E+00 0.  1.
         13    1    4    4    0    0 -0.43504062352E+01 -0.62554970765E-01 -0.88189912658E+01  0.98344079375E+01  0.10500000000E+00 0. -1.
    3000001    1    5    5    0    0  0.49112674993E+01  0.50758868185E-01  0.22968151074E+02  0.23508702403E+02  0.10000000000E+01 0.  1.
        -13    1    6    6    0    0  0.41793256624E+01 -0.54565083283E+01  0.15991305075E+02  0.17406122748E+02  0.10500000000E+00 0.  1.
         13    1    6    6    0    0  0.51145225684E+01 -0.68962249092E+01  0.19803849122E+02  0.21585173711E+02  0.10500000000E+00 0. -1.
</event>
<event>
11    0  0.3515428E-009  0.9118800E+02  0.7816531E-02  0.1126479E+00
         25   -1    0    0    0    0  0.00000000000E+00  0.00000000000E+00  0.99999998245E-14  0.12500000000E+03  0.12500000000E+03 0.  0.
    3000001    1    3    3    0    0 -0.33503605482E+01 -0.16636140764E+02 -0.17550219405E+01  0.17089944334E+02  0.10000000000E+01 0. -1.
    1000022    2    1    0    0    0 -0.18106816310E+02 -0.58396296473E+02  0.82623101581E+01  0.62499998600E+02  0.99999908619E+01 0.  0.
    3000022    2    3    3    0    0 -0.14756455762E+02 -0.41760155709E+02  0.10017332099E+02  0.45410054266E+02  0.24998923090E+00 0.  0.
    1000022    2    1    0    0    0  0.18106816310E+02  0.58396296473E+02 -0.82623101581E+01  0.62500001400E+02  0.10000008363E+02 0.  0.
    3000022    2    5    5    0    0  0.10311378426E+02  0.21761038396E+02 -0.67099164746E+01  0.24999055915E+02  0.25000082399E+00 0.  0.
        -13    1    4    4    0    0 -0.81457688254E+01 -0.23203009321E+02  0.56063415739E+01  0.25222515381E+02  0.10500000000E+00 0.  1.
         13    1    4    4    0    0 -0.66106869362E+01 -0.18557146388E+02  0.44109905247E+01  0.20187538886E+02  0.10500000000E+00 0. -1.
    3000001    1    5    5    0    0  0.77954378835E+01  0.36635258077E+02 -0.15523936835E+01  0.37500945485E+02  0.10000000000E+01 0.  1.
        -13    1    6    6    0    0  0.37800756916E+01  0.80904313036E+01 -0.24521473808E+01  0.92611069906E+01  0.10500000000E+00 0. -1.
         13    1    6    6    0    0  0.65313027345E+01  0.13670607092E+02 -0.42577690938E+01  0.15737948924E+02  0.10500000000E+00 0.  1.
</event>
<event>
11    0  0.3515428E-009  0.9118800E+02  0.7816531E-02  0.1126479E+00
         25   -1    0    0    0    0  0.00000000000E+00  0.00000000000E+00  0.99999998245E-14  0.12500000000E+03  0.12500000000E+03 0.  0.
    3000001    1    3    3    0    0 -0.34966336066E+01  0.48529163538E+01  0.12093178299E+02  0.13528569957E+02  0.10000000000E+01 0. -1.
    1000022    2    1    0    0    0 -0.11748532774E+02  0.38154072428E+02  0.47037099510E+02  0.62500000043E+02  0.10000000492E+02 0.  0.
    3000022    2    3    3    0    0 -0.82518991675E+01  0.33301156074E+02  0.34943921212E+02  0.48971430086E+02  0.24999854606E+00 0.  0.
    1000022    2    1    0    0    0  0.11748532774E+02 -0.38154072428E+02 -0.47037099510E+02  0.62499999957E+02  0.99999999555E+01 0.  0.
    3000022    2    5    5    0    0  0.51075641680E+01 -0.23360583744E+02 -0.34504775763E+02  0.41981498307E+02  0.25013002302E+00 0.  0.
        -13    1    4    4    0    0 -0.45347150811E+01  0.18060487884E+02  0.19014546428E+02  0.26614072675E+02  0.10500000000E+00 0.  1.
         13    1    4    4    0    0 -0.37171840864E+01  0.15240668189E+02  0.15929374784E+02  0.22357357411E+02  0.10500000000E+00 0. -1.
    3000001    1    5    5    0    0  0.66409686061E+01 -0.14793488684E+02 -0.12532323747E+02  0.20518501650E+02  0.10000000000E+01 0. -1.
        -13    1    6    6    0    0  0.25350114618E+01 -0.11816324226E+02 -0.17523776239E+02  0.21287215882E+02  0.10500000000E+00 0. -1.
         13    1    6    6    0    0  0.25725527063E+01 -0.11544259518E+02 -0.16980999524E+02  0.20694282425E+02  0.10500000000E+00 0.  1.
</event>
<event>
11    0  0.3515428E-009  0.9118800E+02  0.7816531E-02  0.1126479E+00
         25   -1    0    0    0    0  0.00000000000E+00  0.00000000000E+00  0.99999998245E-14  0.12500000000E+03  0.12500000000E+03 0.  0.
    3000001    1    3    3    0    0 -0.68029009311E+01  0.46836006987E+01  0.17216619601E+02  0.19121390301E+02  0.10000000000E+01 0.  1.
    1000022    2    1    0    0    0 -0.31645225505E+02  0.44246010357E+01  0.52775490899E+02  0.62500002569E+02  0.10000024497E+02 0.  0.
    3000022    2    3    3    0    0 -0.24842324574E+02 -0.25899966296E+00  0.35558871299E+02  0.43378612268E+02  0.25000642803E+00 0.  0.
    1000022    2    1    0    0    0  0.31645225505E+02 -0.44246010357E+01 -0.52775490899E+02  0.62499997431E+02  0.99999923791E+01 0.  0.
    3000022    2    5    5    0    0  0.29417402489E+02 -0.61136361956E+01 -0.44379264549E+02  0.53594232327E+02  0.25000010124E+00 0.  0.
        -13    1    4    4    0    0 -0.16140589008E+02 -0.22145751276E+00  0.23137271153E+02  0.28211912348E+02  0.10500000000E+00 0.  1.
         13    1    4    4    0    0 -0.87017355662E+01 -0.37542150197E-01  0.12421600146E+02  0.15166699920E+02  0.10500000000E+00 0. -1.
    3000001    1    5    5    0    0  0.22278230160E+01  0.16890351599E+01 -0.83962263496E+01  0.89057651033E+01  0.10000000000E+01 0.  1.
        -13    1    6    6    0    0  0.16467296844E+02 -0.34132873733E+01 -0.24722814292E+02  0.29900685069E+02  0.10500000000E+00 0.  1.
         13    1    6    6    0    0  0.12950105645E+02 -0.27003488223E+01 -0.19656450257E+02  0.23693547258E+02  0.10500000000E+00 0. -1.
</event>
<event>
11    0  0.3515428E-009  0.9118800E+02  0.7816531E-02  0.1126479E+00
         25   -1    0    0    0    0  0.00000000000E+00  0.00000000000E+00  0.99999998245E-14  0.12500000000E+03  0.12500000000E+03 0.  0.
    3000001    1    3    3    0    0  0.36634198889E+01  0.58380940569E+00  0.48432207876E+01  0.61820923886E+01  0.10000000000E+01 0.  1.
    1000022    2    1    0    0    0  0.10824059538E+02  0.63042481807E+01  0.60409814273E+02  0.62500002423E+02  0.10000041615E+02 0.  0.
    3000022    2    3    3    0    0  0.71606396493E+01  0.57204387750E+01  0.55566593486E+02  0.56317910034E+02  0.24999808076E+00 0.  0.
    1000022    2    1    0    0    0 -0.10824059538E+02 -0.63042481807E+01 -0.60409814273E+02  0.62499997577E+02  0.10000011331E+02 0.  0.
    3000022    2    5    5    0    0 -0.10479356221E+01  0.21620340514E+01 -0.45228113404E+01  0.51274638136E+01  0.25000486170E+00 0.  0.
        -13    1    4    4    0    0  0.37109701657E+01  0.30508949448E+01  0.29097500075E+02  0.29491605503E+02  0.10500000000E+00 0.  1.
         13    1    4    4    0    0  0.34496694836E+01  0.26695438302E+01  0.26469093411E+02  0.26826304531E+02  0.10500000000E+00 0. -1.
    3000001    1    5    5    0    0 -0.97761239161E+01 -0.84662822321E+01 -0.55887002933E+02  0.57372533764E+02  0.10000000000E+01 0. -1.
        -13    1    6    6    0    0 -0.69536566665E+00  0.15381439581E+01 -0.31548377003E+01  0.35795874290E+01  0.10500000000E+00 0.  1.
         13    1    6    6    0    0 -0.35256995547E+00  0.62389009330E+00 -0.13679736401E+01  0.15478763846E+01  0.10500000000E+00 0. -1.
</event>
<event>
11    0  0.3515428E-009  0.9118800E+02  0.7816531E-02  0.1126479E+00
         25   -1    0    0    0    0  0.00000000000E+00  0.00000000000E+00  0.99999998245E-14  0.12500000000E+03  0.12500000000E+03 0.  0.
    3000001    1    3    3    0    0  0.12982026729E+02 -0.22250182177E+02  0.72931965120E+01  0.26791684162E+02  0.10000000000E+01 0.  1.
    1000022    2    1    0    0    0  0.33292069439E+02 -0.51591276667E+02  0.60189785040E+01  0.62499999617E+02  0.10000006710E+02 0.  0.
    3000022    2    3    3    0    0  0.20310042711E+02 -0.29341094490E+02 -0.12742180080E+01  0.35708315455E+02  0.25000058120E+00 0.  0.
    1000022    2    1    0    0    0 -0.33292069439E+02  0.51591276667E+02 -0.60189785040E+01  0.62500000383E+02  0.10000011496E+02 0.  0.
    3000022    2    5    5    0    0 -0.78626287968E+01  0.12485622841E+02 -0.57613111743E+01  0.15841935645E+02  0.25001845529E+00 0.  0.
        -13    1    4    4    0    0  0.63654758947E+01 -0.91110669302E+01 -0.40357269302E+00  0.11122262355E+02  0.10500000000E+00 0.  1.
         13    1    4    4    0    0  0.13944566816E+02 -0.20230027560E+02 -0.87064531503E+00  0.24586053100E+02  0.10500000000E+00 0. -1.
    3000001    1    5    5    0    0 -0.25429440642E+02  0.39105653827E+02 -0.25766732969E+00  0.46658064738E+02  0.10000000000E+01 0.  1.
        -13    1    6    6    0    0 -0.23358707081E+01  0.36833011337E+01 -0.16578117669E+01  0.46671580283E+01  0.10500000000E+00 0. -1.
         13    1    6    6    0    0 -0.55267580887E+01  0.88023217069E+01 -0.41034994074E+01  0.11174777617E+02  0.10500000000E+00 0.  1.
</event>
<event>
11    0  0.3515428E-009  0.9118800E+02  0.7816531E-02  0.1126479E+00
         25   -1    0    0    0    0  0.00000000000E+00  0.00000000000E+00  0.99999998245E-14  0.12500000000E+03  0.12500000000E+03 0.  0.
    3000001    1    3    3    0    0  0.24129980022E+01  0.31311777434E+02 -0.12269625777E+02  0.33731197461E+02  0.10000000000E+01 0. -1.
    1000022    2    1    0    0    0  0.60771673687E+01  0.53329708572E+02 -0.30418077981E+02  0.62500004265E+02  0.10000064277E+02 0.  0.
    3000022    2    3    3    0    0  0.36641693664E+01  0.22017931138E+02 -0.18148452203E+02  0.28768806804E+02  0.24999767025E+00 0.  0.
    1000022    2    1    0    0    0 -0.60771673687E+01 -0.53329708572E+02  0.30418077981E+02  0.62499995735E+02  0.10000010961E+02 0.  0.
    3000022    2    5    5    0    0 -0.34448835526E+01 -0.75825579827E+01  0.19920411109E+01  0.85669791564E+01  0.24999165506E+00 0.  0.
        -13    1    4    4    0    0  0.90474470375E+00  0.54992592161E+01 -0.45629806174E+01  0.72036263103E+01  0.10500000000E+00 0. -1.
         13    1    4    4    0    0  0.27594246627E+01  0.16518671921E+02 -0.13585471586E+02  0.21565180494E+02  0.10500000000E+00 0.  1.
    3000001    1    5    5    0    0 -0.26322838161E+01 -0.45747150589E+02  0.28426036870E+02  0.53933016578E+02  0.10000000000E+01 0. -1.
        -13    1    6    6    0    0 -0.80549258319E+00 -0.18100600298E+01  0.46551380284E+00  0.20378576284E+01  0.10500000000E+00 0.  1.
         13    1    6    6    0    0 -0.26393909694E+01 -0.57724979529E+01  0.15265273081E+01  0.65291215280E+01  0.10500000000E+00 0. -1.
</event>
<event>
11    0  0.3515428E-009  0.9118800E+02  0.7816531E-02  0.1126479E+00
         25   -1    0    0    0    0  0.00000000000E+00  0.00000000000E+00  0.99999998245E-14  0.12500000000E+03  0.12500000000E+03 0.  0.
    3000001    1    3    3    0    0 -0.89178985005E+01 -0.21866671722E+01  0.20525502541E+02  0.22507924861E+02  0.10000000000E+01 0.  1.
    1000022    2    1    0    0    0 -0.31668078710E+02 -0.15298195242E+02  0.50688736714E+02  0.62499999912E+02  0.99999986233E+01 0.  0.
    3000022    2    3    3    0    0 -0.22750180210E+02 -0.13111528070E+02  0.30163234174E+02  0.39992075051E+02  0.25000641686E+00 0.  0.
    1000022    2    1    0    0    0  0.31668078710E+02  0.15298195242E+02 -0.50688736714E+02  0.62500000088E+02  0.99999997208E+01 0.  0.
    3000022    2    5    5    0    0  0.91897683303E+01  0.72272706095E+01 -0.23828485464E+02  0.26543257199E+02  0.25000155714E+00 0.  0.
        -13    1    4    4    0    0 -0.15995990780E+02 -0.91683228202E+01  0.21161572585E+02  0.28066938622E+02  0.10500000000E+00 0.  1.
         13    1    4    4    0    0 -0.67541894301E+01 -0.39432052493E+01  0.90016615889E+01  0.11925136429E+02  0.10500000000E+00 0. -1.
    3000001    1    5    5    0    0  0.22478310380E+02  0.80709246322E+01 -0.26860251250E+02  0.35956742889E+02  0.10000000000E+01 0.  1.
        -13    1    6    6    0    0  0.25398486239E+01  0.19536509732E+01 -0.65670123271E+01  0.73078217727E+01  0.10500000000E+00 0.  1.
         13    1    6    6    0    0  0.66499197064E+01  0.52736196363E+01 -0.17261473137E+02  0.19235435426E+02  0.10500000000E+00 0. -1.
</event>
<event>
11    0  0.3515428E-009  0.9118800E+02  0.7816531E-02  0.1126479E+00
         25   -1    0    0    0    0  0.00000000000E+00  0.00000000000E+00  0.99999998245E-14  0.12500000000E+03  0.12500000000E+03 0.  0.
    3000001    1    3    3    0    0 -0.47219629494E+02 -0.16656592121E+02 -0.15314882527E+02  0.52370612918E+02  0.10000000000E+01 0.  1.
    1000022    2    1    0    0    0 -0.53791930625E+02 -0.21149003316E+02 -0.21573083674E+02  0.62500000020E+02  0.99999960841E+01 0.  0.
    3000022    2    3    3    0    0 -0.65723011309E+01 -0.44924111947E+01 -0.62582011473E+01  0.10129387102E+02  0.25000191466E+00 0.  0.
    1000022    2    1    0    0    0  0.53791930625E+02  0.21149003316E+02  0.21573083674E+02  0.62499999980E+02  0.99999958347E+01 0.  0.
    3000022    2    5    5    0    0  0.35929905991E+02  0.13162833506E+02  0.92939160309E+01  0.39378391250E+02  0.24998362937E+00 0.  0.
        -13    1    4    4    0    0 -0.17978099120E+01 -0.12429441447E+01 -0.16738229629E+01  0.27549480825E+01  0.10500000000E+00 0. -1.
         13    1    4    4    0    0 -0.47744912189E+01 -0.32494670500E+01 -0.45843781844E+01  0.73744390191E+01  0.10500000000E+00 0.  1.
    3000001    1    5    5    0    0  0.17862024633E+02  0.79861698100E+01  0.12279167644E+02  0.23121608730E+02  0.10000000000E+01 0.  1.
        -13    1    6    6    0    0  0.11266447980E+02  0.41334186629E+01  0.28644741769E+01  0.12338323924E+02  0.10500000000E+00 0.  1.
         13    1    6    6    0    0  0.24663458011E+02  0.90294148432E+01  0.64294418540E+01  0.27040067326E+02  0.10500000000E+00 0. -1.
</event>
<event>
11    0  0.3515428E-009  0.9118800E+02  0.7816531E-02  0.1126479E+00
         25   -1    0    0    0    0  0.00000000000E+00  0.00000000000E+00  0.99999998245E-14  0.12500000000E+03  0.12500000000E+03 0.  0.
    3000001    1    3    3    0    0  0.10456127002E+02  0.33119472560E+02  0.11035744745E+02  0.36455695256E+02  0.10000000000E+01 0.  1.
    1000022    2    1    0    0    0  0.22170383833E+02  0.56369415525E+02  0.11713785220E+02  0.62500001712E+02  0.10000026199E+02 0.  0.
    3000022    2    3    3    0    0  0.11714256831E+02  0.23249942965E+02  0.67804047522E+00  0.26044306457E+02  0.24999789142E+00 0.  0.
    1000022    2    1    0    0    0 -0.22170383833E+02 -0.56369415525E+02 -0.11713785220E+02  0.62499998288E+02  0.10000004797E+02 0.  0.
    3000022    2    5    5    0    0 -0.22795123050E+02 -0.50517413551E+02 -0.10599054152E+02  0.56427202265E+02  0.24999946311E+00 0.  0.
        -13    1    4    4    0    0  0.51111674269E+01  0.10152239430E+02  0.23015740787E+00  0.11369080673E+02  0.10500000000E+00 0.  1.
         13    1    4    4    0    0  0.66030894041E+01  0.13097703534E+02  0.44788306735E+00  0.14675225784E+02  0.10500000000E+00 0. -1.
    3000001    1    5    5    0    0  0.62473921725E+00 -0.58520019735E+01 -0.11147310676E+01  0.60727960233E+01  0.10000000000E+01 0. -1.
        -13    1    6    6    0    0 -0.98110736771E+01 -0.21866453721E+02 -0.45410960616E+01  0.24393268405E+02  0.10500000000E+00 0. -1.
         13    1    6    6    0    0 -0.12984049373E+02 -0.28650959830E+02 -0.60579580906E+01  0.32033933860E+02  0.10500000000E+00 0.  1.
</event>
<event>
11    0  0.3515428E-009  0.9118800E+02  0.7816531E-02  0.1126479E+00
         25   -1    0    0    0    0  0.00000000000E+00  0.00000000000E+00  0.99999998245E-14  0.12500000000E+03  0.12500000000E+03 0.  0.
    3000001    1    3    3    0    0  0.75722797743E+01 -0.23948343566E+01  0.74577229066E+01  0.10940396863E+02  0.10000000000E+01 0. -1.
    1000022    2    1    0    0    0  0.54529785716E+02 -0.25014877069E+01  0.28748829835E+02  0.62499998124E+02  0.99999788834E+01 0.  0.
    3000022    2    3    3    0    0  0.46957505941E+02 -0.10665335026E+00  0.21291106928E+02  0.51559601261E+02  0.25001749095E+00 0.  0.
    1000022    2    1    0    0    0 -0.54529785716E+02  0.25014877069E+01 -0.28748829835E+02  0.62500001876E+02  0.10000002335E+02 0.  0.
    3000022    2    5    5    0    0 -0.10196636969E+02  0.39152831791E+01 -0.78764647867E+01  0.13468557698E+02  0.25000218479E+00 0.  0.
        -13    1    4    4    0    0  0.28098852314E+02 -0.62473216271E-01  0.12809704018E+02  0.30881207008E+02  0.10500000000E+00 0. -1.
         13    1    4    4    0    0  0.18858653628E+02 -0.44180133990E-01  0.84814029099E+01  0.20678394252E+02  0.10500000000E+00 0.  1.
    3000001    1    5    5    0    0 -0.44333148747E+02 -0.14137954722E+01 -0.20872365048E+02  0.49031444178E+02  0.10000000000E+01 0.  1.
        -13    1    6    6    0    0 -0.62700749685E+01  0.23420837712E+01 -0.48361724214E+01  0.82582555780E+01  0.10500000000E+00 0.  1.
         13    1    6    6    0    0 -0.39265620003E+01  0.15731994078E+01 -0.30402923652E+01  0.52103021204E+01  0.10500000000E+00 0. -1.
</event>
<event>
11    0  0.3515428E-009  0.9118800E+02  0.7816531E-02  0.1126479E+00
         25   -1    0    0    0    0  0.00000000000E+00  0.00000000000E+00  0.99999998245E-14  0.12500000000E+03  0.12500000000E+03 0.  0.
    3000001    1    3    3    0    0 -0.17343083524E+00 -0.17455492396E+02  0.98226731776E+01  0.20055153986E+02  0.10000000000E+01 0. -1.
    1000022    2    1    0    0    0 -0.61453900277E+01 -0.45946621437E+02  0.40711079427E+02  0.62499999001E+02  0.10000002351E+02 0.  0.
    3000022    2    3    3    0    0 -0.59719591925E+01 -0.28491129040E+02  0.30888406249E+02  0.42444845015E+02  0.24999431849E+00 0.  0.
    1000022    2    1    0    0    0  0.61453900277E+01  0.45946621437E+02 -0.40711079427E+02  0.62500000999E+02  0.10000014836E+02 0.  0.
    3000022    2    5    5    0    0 -0.16021296644E+01  0.63272182431E+01 -0.91768264092E+01  0.11263975741E+02  0.24999280208E+00 0.  0.
        -13    1    4    4    0    0 -0.25232962237E+01 -0.11866404680E+02  0.12951729658E+02  0.17746461901E+02  0.10500000000E+00 0. -1.
         13    1    4    4    0    0 -0.34486629688E+01 -0.16624724360E+02  0.17936676591E+02  0.24698383114E+02  0.10500000000E+00 0.  1.
    3000001    1    5    5    0    0  0.77475196922E+01  0.39619403193E+02 -0.31534253018E+02  0.51236025257E+02  0.10000000000E+01 0. -1.
        -13    1    6    6    0    0 -0.75394571654E+00  0.32531598557E+01 -0.46878229876E+01  0.57565781983E+01  0.10500000000E+00 0.  1.
         13    1    6    6    0    0 -0.84818394791E+00  0.30740583874E+01 -0.44890034216E+01  0.55073975431E+01  0.10500000000E+00 0. -1.
</event>
<event>
11    0  0.3515428E-009  0.9118800E+02  0.7816531E-02  0.1126479E+00
         25   -1    0    0    0    0  0.00000000000E+00  0.00000000000E+00  0.99999998245E-14  0.12500000000E+03  0.12500000000E+03 0.  0.
    3000001    1    3    3    0    0  0.21633761795E+02  0.35883148581E+02 -0.38168010790E+02  0.56687009527E+02  0.10000000000E+01 0. -1.
    1000022    2    1    0    0    0  0.26330140263E+02  0.38025461869E+02 -0.40829372840E+02  0.62499998413E+02  0.10000003925E+02 0.  0.
    3000022    2    3    3    0    0  0.46963784681E+01  0.21423132881E+01 -0.26613620498E+01  0.58129888856E+01  0.25002976583E+00 0.  0.
    1000022    2    1    0    0    0 -0.26330140263E+02 -0.38025461869E+02  0.40829372840E+02  0.62500001587E+02  0.10000023765E+02 0.  0.
    3000022    2    5    5    0    0 -0.28993980910E+01 -0.47889203281E+01  0.12439646212E+01  0.57402278371E+01  0.25000088800E+00 0.  0.
        -13    1    4    4    0    0  0.32589385760E+01  0.15301202004E+01 -0.18825475417E+01  0.40641061399E+01  0.10500000000E+00 0. -1.
         13    1    4    4    0    0  0.14374398921E+01  0.61219308763E+00 -0.77881450809E+00  0.17488827457E+01  0.10500000000E+00 0.  1.
    3000001    1    5    5    0    0 -0.23430742172E+02 -0.33236541541E+02  0.39585408219E+02  0.56759773750E+02  0.10000000000E+01 0. -1.
        -13    1    6    6    0    0 -0.21193457686E+01 -0.35487650451E+01  0.89657016742E+00  0.42308655021E+01  0.10500000000E+00 0.  1.
         13    1    6    6    0    0 -0.78005232233E+00 -0.12401552831E+01  0.34739445379E+00  0.15093623350E+01  0.10500000000E+00 0. -1.
</event>
<event>
11    0  0.3515428E-009  0.9118800E+02  0.7816531E-02  0.1126479E+00
         25   -1    0    0    0    0  0.00000000000E+00  0.00000000000E+00  0.99999998245E-14  0.12500000000E+03  0.12500000000E+03 0.  0.
    3000001    1    3    3    0    0 -0.14251429618E+02  0.19481969519E+01  0.10411263409E+02  0.17784631660E+02  0.10000000000E+01 0. -1.
    1000022    2    1    0    0    0 -0.48436287895E+02 -0.86212243432E+01  0.37227013686E+02  0.62499999957E+02  0.99999976188E+01 0.  0.
    3000022    2    3    3    0    0 -0.34184858277E+02 -0.10569421295E+02  0.26815750277E+02  0.44715368297E+02  0.24999405575E+00 0.  0.
    1000022    2    1    0    0    0  0.48436287895E+02  0.86212243432E+01 -0.37227013686E+02  0.62500000043E+02  0.99999981599E+01 0.  0.
    3000022    2    5    5    0    0  0.47970413126E+02  0.74121655182E+01 -0.36356535847E+02  0.60646194711E+02  0.25000183075E+00 0.  0.
        -13    1    4    4    0    0 -0.15240753801E+02 -0.47700166770E+01  0.12014451169E+02  0.19984786649E+02  0.10500000000E+00 0.  1.
         13    1    4    4    0    0 -0.18944104477E+02 -0.57994046181E+01  0.14801299108E+02  0.24730581648E+02  0.10500000000E+00 0. -1.
    3000001    1    5    5    0    0  0.46587476865E+00  0.12090588250E+01 -0.87047783887E+00  0.18538053324E+01  0.10000000000E+01 0. -1.
        -13    1    6    6    0    0  0.13761214153E+02  0.21026341098E+01 -0.10470536208E+02  0.17419392603E+02  0.10500000000E+00 0. -1.
         13    1    6    6    0    0  0.34209198973E+02  0.53095314084E+01 -0.25885999639E+02  0.43226802108E+02  0.10500000000E+00 0.  1.
</event>
<event>
11    0  0.3515428E-009  0.9118800E+02  0.7816531E-02  0.1126479E+00
         25   -1    0    0    0    0  0.00000000000E+00  0.00000000000E+00  0.99999998245E-14  0.12500000000E+03  0.12500000000E+03 0.  0.
    3000001    1    3    3    0    0 -0.31134749932E+02  0.30335694243E+02  0.32599701913E+02  0.54344894547E+02  0.10000000000E+01 0. -1.
    1000022    2    1    0    0    0 -0.32299032826E+02  0.36393274709E+02  0.37928247766E+02  0.62499999588E+02  0.10000000217E+02 0.  0.
    3000022    2    3    3    0    0 -0.11642828948E+01  0.60575804657E+01  0.53285458536E+01  0.81551050412E+01  0.25000312477E+00 0.  0.
    1000022    2    1    0    0    0  0.32299032826E+02 -0.36393274709E+02 -0.37928247766E+02  0.62500000412E+02  0.10000005364E+02 0.  0.
    3000022    2    5    5    0    0  0.10829520127E+02 -0.86555893057E+01 -0.15771972501E+02  0.21000365465E+02  0.25000136212E+00 0.  0.
        -13    1    4    4    0    0 -0.29281625388E+00  0.15434638722E+01  0.13211463594E+01  0.20553527158E+01  0.10500000000E+00 0.  1.
         13    1    4    4    0    0 -0.87146664090E+00  0.45141165934E+01  0.40073994942E+01  0.60997523254E+01  0.10500000000E+00 0. -1.
    3000001    1    5    5    0    0  0.21469512699E+02 -0.27737685403E+02 -0.22156275265E+02  0.41499634947E+02  0.10000000000E+01 0. -1.
        -13    1    6    6    0    0  0.65948951656E+01 -0.51918688229E+01 -0.95616968637E+01  0.12723412122E+02  0.10500000000E+00 0. -1.
         13    1    6    6    0    0  0.42346249616E+01 -0.34637204828E+01 -0.62102756373E+01  0.82769533428E+01  0.10500000000E+00 0.  1.
</event>
<event>
11    0  0.3515428E-009  0.9118800E+02  0.7816531E-02  0.1126479E+00
         25   -1    0    0    0    0  0.00000000000E+00  0.00000000000E+00  0.99999998245E-14  0.12500000000E+03  0.12500000000E+03 0.  0.
    3000001    1    3    3    0    0  0.99142644105E+01  0.40348312899E+01  0.43918093957E+02  0.45214726353E+02  0.10000000000E+01 0. -1.
    1000022    2    1    0    0    0  0.88021201147E+01  0.92462248713E+01  0.60359588597E+02  0.62500001429E+02  0.10000012511E+02 0.  0.
    3000022    2    3    3    0    0 -0.11121442958E+01  0.52113935814E+01  0.16441494639E+02  0.17285275076E+02  0.25000098402E+00 0.  0.
    1000022    2    1    0    0    0 -0.88021201147E+01 -0.92462248713E+01 -0.60359588597E+02  0.62499998571E+02  0.99999946432E+01 0.  0.
    3000022    2    5    5    0    0 -0.81577044334E+01 -0.42947400392E+01 -0.22766530349E+02  0.24563597818E+02  0.25000004220E+00 0.  0.
        -13    1    4    4    0    0 -0.44179843236E+00  0.23869434109E+01  0.74552500757E+01  0.78412029302E+01  0.10500000000E+00 0.  1.
         13    1    4    4    0    0 -0.67034586348E+00  0.28244501704E+01  0.89862445638E+01  0.94440721462E+01  0.10500000000E+00 0. -1.
    3000001    1    5    5    0    0 -0.64441568131E+00 -0.49514848320E+01 -0.37593058248E+02  0.37936400753E+02  0.10000000000E+01 0. -1.
        -13    1    6    6    0    0 -0.19499078161E+01 -0.10168073238E+01 -0.53923535874E+01  0.58244776449E+01  0.10500000000E+00 0.  1.
         13    1    6    6    0    0 -0.62077966173E+01 -0.32779327155E+01 -0.17374176761E+02  0.18739120173E+02  0.10500000000E+00 0. -1.
</event>
<event>
11    0  0.3515428E-009  0.9118800E+02  0.7816531E-02  0.1126479E+00
         25   -1    0    0    0    0  0.00000000000E+00  0.00000000000E+00  0.99999998245E-14  0.12500000000E+03  0.12500000000E+03 0.  0.
    3000001    1    3    3    0    0 -0.32096379136E+02  0.54013372492E+01 -0.84590966345E+01  0.33643845107E+02  0.10000000000E+01 0. -1.
    1000022    2    1    0    0    0 -0.55746238330E+02  0.17002983802E+02 -0.20236240096E+02  0.62499999512E+02  0.99999989813E+01 0.  0.
    3000022    2    3    3    0    0 -0.23649859194E+02  0.11601646553E+02 -0.11777143461E+02  0.28856154405E+02  0.24999254637E+00 0.  0.
    1000022    2    1    0    0    0  0.55746238330E+02 -0.17002983802E+02  0.20236240096E+02  0.62500000488E+02  0.10000005080E+02 0.  0.
    3000022    2    5    5    0    0  0.31479148358E+02 -0.50014492550E+01  0.13274945891E+02  0.34528799152E+02  0.25001280418E+00 0.  0.
        -13    1    4    4    0    0 -0.70260129285E+01  0.34787949798E+01 -0.35434200769E+01  0.86042851548E+01  0.10500000000E+00 0. -1.
         13    1    4    4    0    0 -0.16623846266E+02  0.81228515734E+01 -0.82337233844E+01  0.20251869250E+02  0.10500000000E+00 0.  1.
    3000001    1    5    5    0    0  0.24267089972E+02 -0.12001534547E+02  0.69612942044E+01  0.27971201336E+02  0.10000000000E+01 0. -1.
        -13    1    6    6    0    0  0.19650361494E+02 -0.30671673247E+01  0.82543169969E+01  0.21533439027E+02  0.10500000000E+00 0.  1.
         13    1    6    6    0    0  0.11828786865E+02 -0.19342819303E+01  0.50206288946E+01  0.12995360125E+02  0.10500000000E+00 0. -1.
</event>
<event>
11    0  0.3515428E-009  0.9118800E+02  0.7816531E-02  0.1126479E+00
         25   -1    0    0    0    0  0.00000000000E+00  0.00000000000E+00  0.99999998245E-14  0.12500000000E+03  0.12500000000E+03 0.  0.
    3000001    1    3    3    0    0  0.21878843302E+02  0.53787274022E+02 -0.84051057606E+01  0.58680494492E+02  0.10000000000E+01 0.  1.
    1000022    2    1    0    0    0  0.23818220763E+02  0.55846516490E+02 -0.10959402012E+02  0.62499996300E+02  0.10000000035E+02 0.  0.
    3000022    2    3    3    0    0  0.19393774610E+01  0.20592424678E+01 -0.25542962515E+01  0.38195018085E+01  0.25000049311E+00 0.  0.
    1000022    2    1    0    0    0 -0.23818220763E+02 -0.55846516490E+02  0.10959402012E+02  0.62500003700E+02  0.10000046283E+02 0.  0.
    3000022    2    5    5    0    0 -0.78518139928E+01 -0.27476760083E+02  0.86070008189E+01  0.29845708192E+02  0.25001351642E+00 0.  0.
        -13    1    4    4    0    0  0.11487576428E+01  0.12105600766E+01 -0.15908517239E+01  0.23080151707E+01  0.10500000000E+00 0. -1.
         13    1    4    4    0    0  0.79061981826E+00  0.84868239121E+00 -0.96344452763E+00  0.15114866377E+01  0.10500000000E+00 0.  1.
    3000001    1    5    5    0    0 -0.15966406770E+02 -0.28369756406E+02  0.23524011932E+01  0.32654295507E+02  0.10000000000E+01 0.  1.
        -13    1    6    6    0    0 -0.33863838270E+01 -0.12005278243E+02  0.37043776842E+01  0.13012599285E+02  0.10500000000E+00 0. -1.
         13    1    6    6    0    0 -0.44654301658E+01 -0.15471481840E+02  0.49026231347E+01  0.16833108908E+02  0.10500000000E+00 0.  1.
</event>
<event>
11    0  0.3515428E-009  0.9118800E+02  0.7816531E-02  0.1126479E+00
         25   -1    0    0    0    0  0.00000000000E+00  0.00000000000E+00  0.99999998245E-14  0.12500000000E+03  0.12500000000E+03 0.  0.
    3000001    1    3    3    0    0  0.68016708736E+01  0.39167381565E+02  0.17978656585E+02  0.43641477953E+02  0.10000000000E+01 0.  1.
    1000022    2    1    0    0    0  0.15869703519E+02  0.54477112453E+02  0.24220792704E+02  0.62499999544E+02  0.99999936395E+01 0.  0.
    3000022    2    3    3    0    0  0.90680326450E+01  0.15309730888E+02  0.62421361191E+01  0.18858521590E+02  0.24999469320E+00 0.  0.
    1000022    2    1    0    0    0 -0.15869703519E+02 -0.54477112453E+02 -0.24220792704E+02  0.62500000456E+02  0.99999993440E+01 0.  0.
    3000022    2    5    5    0    0 -0.10807722895E+02 -0.43295868994E+02 -0.14868843097E+02  0.47037050719E+02  0.24999847906E+00 0.  0.
        -13    1    4    4    0    0  0.50511472406E+01  0.86112496162E+01  0.35557749160E+01  0.10598220070E+02  0.10500000000E+00 0. -1.
         13    1    4    4    0    0  0.40168854044E+01  0.66984812714E+01  0.26863612030E+01  0.82603015204E+01  0.10500000000E+00 0.  1.
    3000001    1    5    5    0    0 -0.50619806234E+01 -0.11181243459E+02 -0.93519496064E+01  0.15462949737E+02  0.10000000000E+01 0. -1.
        -13    1    6    6    0    0 -0.28047032657E+01 -0.11353874715E+02 -0.39133397262E+01  0.12332967375E+02  0.10500000000E+00 0.  1.
         13    1    6    6    0    0 -0.80030196295E+01 -0.31941994279E+02 -0.10955503371E+02  0.34704083345E+02  0.10500000000E+00 0. -1.
</event>
<event>
11    0  0.3515428E-009  0.9118800E+02  0.7816531E-02  0.1126479E+00
         25   -1    0    0    0    0  0.00000000000E+00  0.00000000000E+00  0.99999998245E-14  0.12500000000E+03  0.12500000000E+03 0.  0.
    3000001    1    3    3    0    0 -0.15450815952E+02 -0.26847825781E+02 -0.21956259292E+01  0.31070150240E+02  0.10000000000E+01 0.  1.
    1000022    2    1    0    0    0 -0.23832254531E+02 -0.55835949574E+02 -0.10982723775E+02  0.62499999528E+02  0.10000004926E+02 0.  0.
    3000022    2    3    3    0    0 -0.83814385792E+01 -0.28988123794E+02 -0.87870978456E+01  0.31429849287E+02  0.25000787795E+00 0.  0.
    1000022    2    1    0    0    0  0.23832254531E+02  0.55835949574E+02  0.10982723775E+02  0.62500000472E+02  0.10000010832E+02 0.  0.
    3000022    2    5    5    0    0  0.17662932244E+02  0.48630320240E+02  0.11289619756E+02  0.52956635410E+02  0.24999507297E+00 0.  0.
        -13    1    4    4    0    0 -0.28318954410E+01 -0.99553747960E+01 -0.30480176070E+01  0.10790299136E+02  0.10500000000E+00 0.  1.
         13    1    4    4    0    0 -0.55495431382E+01 -0.19032748998E+02 -0.57390802385E+01  0.20639550151E+02  0.10500000000E+00 0. -1.
    3000001    1    5    5    0    0  0.61693222866E+01  0.72056293341E+01 -0.30689598126E+00  0.95433650627E+01  0.10000000000E+01 0. -1.
        -13    1    6    6    0    0  0.61999224807E+01  0.17044516862E+02  0.40148918054E+01  0.18576462931E+02  0.10500000000E+00 0.  1.
         13    1    6    6    0    0  0.11463009764E+02  0.31585803378E+02  0.72747279507E+01  0.34380172478E+02  0.10500000000E+00 0. -1.
</event>
<event>
11    0  0.3515428E-009  0.9118800E+02  0.7816531E-02  0.1126479E+00
         25   -1    0    0    0    0  0.00000000000E+00  0.00000000000E+00  0.99999998245E-14  0.12500000000E+03  0.12500000000E+03 0.  0.
    3000001    1    3    3    0    0 -0.19087712572E+02  0.92449376407E+01  0.24776848145E+02  0.32629769340E+02  0.10000000000E+01 0. -1.
    1000022    2    1    0    0    0 -0.42909040153E+02  0.12783762583E+02  0.42445726688E+02  0.62500000347E+02  0.10000000832E+02 0.  0.
    3000022    2    3    3    0    0 -0.23821327581E+02  0.35388249426E+01  0.17668878543E+02  0.29870231006E+02  0.25000340299E+00 0.  0.
    1000022    2    1    0    0    0  0.42909040153E+02 -0.12783762583E+02 -0.42445726688E+02  0.62499999653E+02  0.99999964996E+01 0.  0.
    3000022    2    5    5    0    0  0.21603024871E+02 -0.10637687280E+02 -0.18549502359E+02  0.30397328993E+02  0.24999571779E+00 0.  0.
        -13    1    4    4    0    0 -0.14721301161E+02  0.22158389382E+01  0.10855128448E+02  0.18424752066E+02  0.10500000000E+00 0. -1.
         13    1    4    4    0    0 -0.91000264198E+01  0.13229860043E+01  0.68137500947E+01  0.11445478940E+02  0.10500000000E+00 0.  1.
    3000001    1    5    5    0    0  0.21306015282E+02 -0.21460753032E+01 -0.23896224329E+02  0.32102670661E+02  0.10000000000E+01 0. -1.
        -13    1    6    6    0    0  0.84212680260E+01 -0.41774039129E+01 -0.73117953862E+01  0.11909736999E+02  0.10500000000E+00 0.  1.
         13    1    6    6    0    0  0.13181756845E+02 -0.64602833672E+01 -0.11237706973E+02  0.18487591993E+02  0.10500000000E+00 0. -1.
</event>
<event>
11    0  0.3515428E-009  0.9118800E+02  0.7816531E-02  0.1126479E+00
         25   -1    0    0    0    0  0.00000000000E+00  0.00000000000E+00  0.99999998245E-14  0.12500000000E+03  0.12500000000E+03 0.  0.
    3000001    1    3    3    0    0  0.24922699704E+02  0.30731272030E+02 -0.23283904174E+02  0.45920499069E+02  0.10000000000E+01 0.  1.
    1000022    2    1    0    0    0  0.30212719930E+02  0.45457406613E+02 -0.28758748621E+02  0.62499997726E+02  0.99999915966E+01 0.  0.
    3000022    2    3    3    0    0  0.52900202258E+01  0.14726134583E+02 -0.54748444464E+01  0.16579498657E+02  0.25000050879E+00 0.  0.
    1000022    2    1    0    0    0 -0.30212719930E+02 -0.45457406613E+02  0.28758748621E+02  0.62500002274E+02  0.10000020028E+02 0.  0.
    3000022    2    5    5    0    0 -0.92454657198E+01 -0.17604754940E+02  0.56908210438E+01  0.20684631452E+02  0.25000255871E+00 0.  0.
        -13    1    4    4    0    0  0.30702429263E+01  0.84672614639E+01 -0.32140637313E+01  0.95635840036E+01  0.10500000000E+00 0.  1.
         13    1    4    4    0    0  0.22197772995E+01  0.62588731191E+01 -0.22607807151E+01  0.70159146533E+01  0.10500000000E+00 0. -1.
    3000001    1    5    5    0    0 -0.20967254210E+02 -0.27852651672E+02  0.23067927577E+02  0.41815370822E+02  0.10000000000E+01 0.  1.
        -13    1    6    6    0    0 -0.69520279709E+01 -0.13215959972E+02  0.42487581311E+01  0.15525954449E+02  0.10500000000E+00 0.  1.
         13    1    6    6    0    0 -0.22934377489E+01 -0.43887949684E+01  0.14420629127E+01  0.51586770036E+01  0.10500000000E+00 0.  1.
</event>
<event>
11    0  0.3515428E-009  0.9118800E+02  0.7816531E-02  0.1126479E+00
         25   -1    0    0    0    0  0.00000000000E+00  0.00000000000E+00  0.99999998245E-14  0.12500000000E+03  0.12500000000E+03 0.  0.
    3000001    1    3    3    0    0 -0.31243231109E+00 -0.41437440266E+01  0.15967517008E+02  0.16529665087E+02  0.10000000000E+01 0. -1.
    1000022    2    1    0    0    0 -0.16886148700E+02 -0.18081873072E+02  0.56516855483E+02  0.62499991023E+02  0.99998886251E+01 0.  0.
    3000022    2    3    3    0    0 -0.16573716389E+02 -0.13938129046E+02  0.40549338475E+02  0.45970325936E+02  0.24999929853E+00 0.  0.
    1000022    2    1    0    0    0  0.16886148700E+02  0.18081873072E+02 -0.56516855483E+02  0.62500008977E+02  0.10000000839E+02 0.  0.
    3000022    2    5    5    0    0  0.56614497026E+01  0.90873831282E+00 -0.83080299380E+01  0.10097706686E+02  0.25000160949E+00 0.  0.
        -13    1    4    4    0    0 -0.12033643771E+02 -0.10140417448E+02  0.29393078276E+02  0.33340676718E+02  0.10500000000E+00 0. -1.
         13    1    4    4    0    0 -0.45400726176E+01 -0.37977115978E+01  0.11156260199E+02  0.12629649218E+02  0.10500000000E+00 0.  1.
    3000001    1    5    5    0    0  0.11224698997E+02  0.17173134759E+02 -0.48208825545E+02  0.52402302291E+02  0.10000000000E+01 0. -1.
        -13    1    6    6    0    0  0.23337850969E+01  0.37319554560E+00 -0.33129384892E+01  0.40709230190E+01  0.10500000000E+00 0.  1.
         13    1    6    6    0    0  0.33276646057E+01  0.53554276723E+00 -0.49950914488E+01  0.60267836667E+01  0.10500000000E+00 0. -1.
</event>
<event>
11    0  0.3515428E-009  0.9118800E+02  0.7816531E-02  0.1126479E+00
         25   -1    0    0    0    0  0.00000000000E+00  0.00000000000E+00  0.99999998245E-14  0.12500000000E+03  0.12500000000E+03 0.  0.
    3000001    1    3    3    0    0 -0.43627230363E+02 -0.67178944908E+01 -0.39399352487E+02  0.59175791604E+02  0.10000000000E+01 0.  1.
    1000022    2    1    0    0    0 -0.45879311340E+02 -0.89948622449E+01 -0.40254580453E+02  0.62499999879E+02  0.99999990765E+01 0.  0.
    3000022    2    3    3    0    0 -0.22520809775E+01 -0.22769677540E+01 -0.85522796517E+00  0.33242082746E+01  0.24998979651E+00 0.  0.
    1000022    2    1    0    0    0  0.45879311340E+02  0.89948622449E+01  0.40254580453E+02  0.62500000121E+02  0.10000000594E+02 0.  0.
    3000022    2    5    5    0    0  0.37835203863E+01 -0.69630250162E+00  0.69427521521E+01  0.79412960045E+01  0.25002219681E+00 0.  0.
        -13    1    4    4    0    0 -0.12752037914E+01 -0.13638385001E+01 -0.45891543528E+00  0.19255722632E+01  0.10500000000E+00 0. -1.
         13    1    4    4    0    0 -0.97687718611E+00 -0.91312925395E+00 -0.39631252989E+00  0.13986360114E+01  0.10500000000E+00 0.  1.
    3000001    1    5    5    0    0  0.42095790954E+02  0.96911647465E+01  0.33311828301E+02  0.54558704117E+02  0.10000000000E+01 0.  1.
        -13    1    6    6    0    0  0.27952879514E+01 -0.48468792177E+00  0.50808813074E+01  0.58202179489E+01  0.10500000000E+00 0.  1.
         13    1    6    6    0    0  0.98823243497E+00 -0.21161457985E+00  0.18618708446E+01  0.21210780556E+01  0.10500000000E+00 0. -1.
</event>
<event>
11    0  0.3515428E-009  0.9118800E+02  0.7816531E-02  0.1126479E+00
         25   -1    0    0    0    0  0.00000000000E+00  0.00000000000E+00  0.99999998245E-14  0.12500000000E+03  0.12500000000E+03 0.  0.
    3000001    1    3    3    0    0  0.20932306360E+02  0.44767522850E+01 -0.83566087079E+01  0.23000775415E+02  0.10000000000E+01 0. -1.
    1000022    2    1    0    0    0  0.60236977712E+02  0.56012842583E+01 -0.12098837350E+02  0.62499997861E+02  0.99999999088E+01 0.  0.
    3000022    2    3    3    0    0  0.39304671351E+02  0.11245319732E+01 -0.37422286423E+01  0.39499222446E+02  0.25007283310E+00 0.  0.
    1000022    2    1    0    0    0 -0.60236977712E+02 -0.56012842583E+01  0.12098837350E+02  0.62500002139E+02  0.10000026652E+02 0.  0.
    3000022    2    5    5    0    0 -0.23082254135E+02  0.21943479608E+01  0.67363970622E+01  0.24146369566E+02  0.24999781040E+00 0.  0.
        -13    1    4    4    0    0  0.16953080670E+02  0.51787480958E+00 -0.15570637754E+01  0.17032633710E+02  0.10500000000E+00 0. -1.
         13    1    4    4    0    0  0.22351590681E+02  0.60665716365E+00 -0.21851648669E+01  0.22466588735E+02  0.10500000000E+00 0.  1.
    3000001    1    5    5    0    0 -0.37154723577E+02 -0.77956322191E+01  0.53624402880E+01  0.38353632574E+02  0.10000000000E+01 0.  1.
        -13    1    6    6    0    0 -0.15532162871E+02  0.15182737341E+01  0.45669881686E+01  0.16261046846E+02  0.10500000000E+00 0. -1.
         13    1    6    6    0    0 -0.75500912637E+01  0.67607422666E+00  0.21694088936E+01  0.78853227200E+01  0.10500000000E+00 0.  1.
</event>
<event>
11    0  0.3515428E-009  0.9118800E+02  0.7816531E-02  0.1126479E+00
         25   -1    0    0    0    0  0.00000000000E+00  0.00000000000E+00  0.99999998245E-14  0.12500000000E+03  0.12500000000E+03 0.  0.
    3000001    1    3    3    0    0  0.20114744354E+01 -0.11996780814E+01 -0.89459043474E+01  0.93013150412E+01  0.10000000000E+01 0. -1.
    1000022    2    1    0    0    0  0.23100368787E+02  0.12502173102E+02 -0.55823996849E+02  0.62500001550E+02  0.10000009957E+02 0.  0.
    3000022    2    3    3    0    0  0.21088894352E+02  0.13701851183E+02 -0.46878092502E+02  0.53198686508E+02  0.24999760950E+00 0.  0.
    1000022    2    1    0    0    0 -0.23100368787E+02 -0.12502173102E+02  0.55823996849E+02  0.62499998450E+02  0.99999905877E+01 0.  0.
    3000022    2    5    5    0    0 -0.10734632114E+00 -0.54526046361E+00  0.86102184054E+01  0.86317544019E+01  0.24998172215E+00 0.  0.
        -13    1    4    4    0    0  0.92449484415E+01  0.60530283787E+01 -0.20710859445E+02  0.23474644794E+02  0.10500000000E+00 0. -1.
         13    1    4    4    0    0  0.11843945910E+02  0.76488228044E+01 -0.26167233057E+02  0.29724041715E+02  0.10500000000E+00 0.  1.
    3000001    1    5    5    0    0 -0.22993022466E+02 -0.11956912638E+02  0.47213778444E+02  0.53868244049E+02  0.10000000000E+01 0.  1.
        -13    1    6    6    0    0 -0.13476316251E-01 -0.33948976467E+00  0.55598993401E+01  0.55712602329E+01  0.10500000000E+00 0. -1.
         13    1    6    6    0    0 -0.93870004894E-01 -0.20577069894E+00  0.30503190653E+01  0.30604941690E+01  0.10500000000E+00 0.  1.
</event>
<event>
11    0  0.3515428E-009  0.9118800E+02  0.7816531E-02  0.1126479E+00
         25   -1    0    0    0    0  0.00000000000E+00  0.00000000000E+00  0.99999998245E-14  0.12500000000E+03  0.12500000000E+03 0.  0.
    3000001    1    3    3    0    0 -0.20024757416E+02 -0.32323287320E+01  0.15743766941E+00  0.20309200999E+02  0.10000000000E+01 0.  1.
    1000022    2    1    0    0    0 -0.57436135549E+02 -0.20841596372E+02  0.85421431308E+01  0.62499997503E+02  0.99999836204E+01 0.  0.
    3000022    2    3    3    0    0 -0.37411378134E+02 -0.17609267640E+02  0.83847054614E+01  0.42190796504E+02  0.25000659036E+00 0.  0.
    1000022    2    1    0    0    0  0.57436135549E+02  0.20841596372E+02 -0.85421431308E+01  0.62500002497E+02  0.10000014838E+02 0.  0.
    3000022    2    5    5    0    0  0.66232636839E+01  0.32023413327E+01  0.21127419129E+01  0.76582497826E+01  0.24999900986E+00 0.  0.
        -13    1    4    4    0    0 -0.17305501539E+02 -0.81742550615E+01  0.38177885440E+01  0.19516284577E+02  0.10500000000E+00 0.  1.
         13    1    4    4    0    0 -0.20105876595E+02 -0.94350125784E+01  0.45669169174E+01  0.22674511927E+02  0.10500000000E+00 0. -1.
    3000001    1    5    5    0    0  0.50812871865E+02  0.17639255039E+02 -0.10654885044E+02  0.54841752715E+02  0.10000000000E+01 0.  1.
        -13    1    6    6    0    0  0.40365885187E+01  0.20081411111E+01  0.12580318053E+01  0.46819169807E+01  0.10500000000E+00 0. -1.
         13    1    6    6    0    0  0.25866751652E+01  0.11942002215E+01  0.85471010752E+00  0.29763328019E+01  0.10500000000E+00 0.  1.
</event>
<event>
11    0  0.3515428E-009  0.9118800E+02  0.7816531E-02  0.1126479E+00
         25   -1    0    0    0    0  0.00000000000E+00  0.00000000000E+00  0.99999998245E-14  0.12500000000E+03  0.12500000000E+03 0.  0.
    3000001    1    3    3    0    0 -0.47583789572E+01  0.47524813896E+01 -0.19518184243E+01  0.70737433386E+01  0.10000000000E+01 0. -1.
    1000022    2    1    0    0    0 -0.31352209226E+02  0.34376881789E+02 -0.40515664513E+02  0.62499997480E+02  0.99999794546E+01 0.  0.
    3000022    2    3    3    0    0 -0.26593830268E+02  0.29624400400E+02 -0.38563846089E+02  0.55426254141E+02  0.25003103720E+00 0.  0.
    1000022    2    1    0    0    0  0.31352209226E+02 -0.34376881789E+02  0.40515664513E+02  0.62500002520E+02  0.10000010959E+02 0.  0.
    3000022    2    5    5    0    0  0.12401991870E+01  0.32410883511E+00  0.26495221471E+01  0.29539141803E+01  0.25000163227E+00 0.  0.
        -13    1    4    4    0    0 -0.10074533129E+02  0.11312874334E+02 -0.14662327357E+02  0.21082509623E+02  0.10500000000E+00 0.  1.
         13    1    4    4    0    0 -0.16519297139E+02  0.18311526066E+02 -0.23901518732E+02  0.34343744518E+02  0.10500000000E+00 0. -1.
    3000001    1    5    5    0    0  0.30112010039E+02 -0.34700990625E+02  0.37866142366E+02  0.59546088340E+02  0.10000000000E+01 0.  1.
        -13    1    6    6    0    0  0.73120318737E+00  0.12389360744E+00  0.15088068529E+01  0.16844972088E+01  0.10500000000E+00 0.  1.
         13    1    6    6    0    0  0.50899599965E+00  0.20021522767E+00  0.11407152942E+01  0.12694169715E+01  0.10500000000E+00 0. -1.
</event>
<event>
11    0  0.3515428E-009  0.9118800E+02  0.7816531E-02  0.1126479E+00
         25   -1    0    0    0    0  0.00000000000E+00  0.00000000000E+00  0.99999998245E-14  0.12500000000E+03  0.12500000000E+03 0.  0.
    3000001    1    3    3    0    0 -0.25847337940E+02 -0.10956895279E+01 -0.23070411315E+02  0.34677504125E+02  0.10000000000E+01 0.  1.
    1000022    2    1    0    0    0 -0.47114751341E+02  0.65761477074E+01 -0.39283642173E+02  0.62500000601E+02  0.10000001011E+02 0.  0.
    3000022    2    3    3    0    0 -0.21267413401E+02  0.76718372353E+01 -0.16213230857E+02  0.27822496476E+02  0.24999194305E+00 0.  0.
    1000022    2    1    0    0    0  0.47114751341E+02 -0.65761477074E+01  0.39283642173E+02  0.62499999399E+02  0.99999934937E+01 0.  0.
    3000022    2    5    5    0    0  0.30264451262E+02 -0.96887010470E+00  0.29136182807E+02  0.42022081866E+02  0.24999276462E+00 0.  0.
        -13    1    4    4    0    0 -0.72539527459E+01  0.25601548009E+01 -0.55004937834E+01  0.94573082802E+01  0.10500000000E+00 0.  1.
         13    1    4    4    0    0 -0.14013460655E+02  0.51116824344E+01 -0.10712737074E+02  0.18365188196E+02  0.10500000000E+00 0. -1.
    3000001    1    5    5    0    0  0.16850300079E+02 -0.56072776027E+01  0.10147459366E+02  0.20477917532E+02  0.10000000000E+01 0.  1.
        -13    1    6    6    0    0  0.70889707326E+01 -0.22891949576E+00  0.68065920057E+01  0.98309017855E+01  0.10500000000E+00 0.  1.
         13    1    6    6    0    0  0.23175480529E+02 -0.73995060893E+00  0.22329590801E+02  0.32191180081E+02  0.10500000000E+00 0. -1.
</event>
<event>
11    0  0.3515428E-009  0.9118800E+02  0.7816531E-02  0.1126479E+00
         25   -1    0    0    0    0  0.00000000000E+00  0.00000000000E+00  0.99999998245E-14  0.12500000000E+03  0.12500000000E+03 0.  0.
    3000001    1    3    3    0    0 -0.35106453480E+01 -0.59400874892E+02 -0.85491177549E+01  0.60123838725E+02  0.10000000000E+01 0.  1.
    1000022    2    1    0    0    0 -0.53031970173E+01 -0.60910639387E+02 -0.82474348913E+01  0.62500000059E+02  0.99999967980E+01 0.  0.
    3000022    2    3    3    0    0 -0.17925516693E+01 -0.15097644950E+01  0.30168286364E+00  0.23761613337E+01  0.24999963192E+00 0.  0.
    1000022    2    1    0    0    0  0.53031970173E+01  0.60910639387E+02  0.82474348913E+01  0.62499999941E+02  0.99999960647E+01 0.  0.
    3000022    2    5    5    0    0  0.19512191235E+01  0.30703863979E+02 -0.78955045811E+00  0.30776946171E+02  0.25001272563E+00 0.  0.
        -13    1    4    4    0    0 -0.88602114196E+00 -0.68339823119E+00  0.19187369843E+00  0.11401346949E+01  0.10500000000E+00 0.  1.
         13    1    4    4    0    0 -0.90653052732E+00 -0.82636626383E+00  0.10980916521E+00  0.12360266388E+01  0.10500000000E+00 0. -1.
    3000001    1    5    5    0    0  0.33519778938E+01  0.30206775407E+02  0.90369853494E+01  0.31723053770E+02  0.10000000000E+01 0. -1.
        -13    1    6    6    0    0  0.13174193840E+01  0.20499788582E+02 -0.57846589756E+00  0.20550488401E+02  0.10500000000E+00 0. -1.
         13    1    6    6    0    0  0.63379973952E+00  0.10204075398E+02 -0.21108456055E+00  0.10226457770E+02  0.10500000000E+00 0.  1.
</event>
<event>
11    0  0.3515428E-009  0.9118800E+02  0.7816531E-02  0.1126479E+00
         25   -1    0    0    0    0  0.00000000000E+00  0.00000000000E+00  0.99999998245E-14  0.12500000000E+03  0.12500000000E+03 0.  0.
    3000001    1    3    3    0    0 -0.33554468804E+01  0.12357336123E+02  0.67486519784E+01  0.14508862235E+02  0.10000000000E+01 0. -1.
    1000022    2    1    0    0    0  0.99548263707E+00  0.49369149527E+02  0.36985750602E+02  0.62500002614E+02  0.10000033424E+02 0.  0.
    3000022    2    3    3    0    0  0.43509295175E+01  0.37011813404E+02  0.30237098624E+02  0.47991140380E+02  0.25000524944E+00 0.  0.
    1000022    2    1    0    0    0 -0.99548263707E+00 -0.49369149527E+02 -0.36985750602E+02  0.62499997386E+02  0.10000000749E+02 0.  0.
    3000022    2    5    5    0    0  0.39073924105E+00 -0.27943676919E+02 -0.14857139167E+02  0.31651205973E+02  0.24999689025E+00 0.  0.
        -13    1    4    4    0    0  0.11550980294E+01  0.10115362009E+02  0.82810433149E+01  0.13124081050E+02  0.10500000000E+00 0.  1.
         13    1    4    4    0    0  0.31958314881E+01  0.26896451395E+02  0.21956055309E+02  0.34867059329E+02  0.10500000000E+00 0. -1.
    3000001    1    5    5    0    0 -0.13862218781E+01 -0.21425472608E+02 -0.22128611435E+02  0.30848791412E+02  0.10000000000E+01 0.  1.
        -13    1    6    6    0    0  0.21861970556E+00 -0.11198999378E+02 -0.59415500453E+01  0.12679843201E+02  0.10500000000E+00 0. -1.
         13    1    6    6    0    0  0.17211953549E+00 -0.16744677541E+02 -0.89155891216E+01  0.18971362773E+02  0.10500000000E+00 0.  1.
</event>
<event>
11    0  0.3515428E-009  0.9118800E+02  0.7816531E-02  0.1126479E+00
         25   -1    0    0    0    0  0.00000000000E+00  0.00000000000E+00  0.99999998245E-14  0.12500000000E+03  0.12500000000E+03 0.  0.
    3000001    1    3    3    0    0 -0.18203907606E+02 -0.14719173927E+02  0.53998291113E+02  0.58862991567E+02  0.10000000000E+01 0.  1.
    1000022    2    1    0    0    0 -0.17461471253E+02 -0.14035470478E+02  0.57483498009E+02  0.62500000083E+02  0.10000002855E+02 0.  0.
    3000022    2    3    3    0    0  0.74243635235E+00  0.68370344861E+00  0.34852068967E+01  0.36370085153E+01  0.25000336967E+00 0.  0.
    1000022    2    1    0    0    0  0.17461471253E+02  0.14035470478E+02 -0.57483498009E+02  0.62499999917E+02  0.10000001820E+02 0.  0.
    3000022    2    5    5    0    0  0.17368575942E+02  0.10598713899E+02 -0.42868857914E+02  0.47453152061E+02  0.24999004930E+00 0.  0.
        -13    1    4    4    0    0  0.28053164102E+00  0.33298728207E+00  0.13809092314E+01  0.14517278798E+01  0.10500000000E+00 0.  1.
         13    1    4    4    0    0  0.46190471133E+00  0.35071616654E+00  0.21042976652E+01  0.21852806355E+01  0.10500000000E+00 0. -1.
    3000001    1    5    5    0    0  0.92895311239E-01  0.34367565786E+01 -0.14614640095E+02  0.15046847857E+02  0.10000000000E+01 0.  1.
        -13    1    6    6    0    0  0.49137773107E+01  0.30442505651E+01 -0.12150156365E+02  0.13455481919E+02  0.10500000000E+00 0.  1.
         13    1    6    6    0    0  0.12454798631E+02  0.75544633342E+01 -0.30718701549E+02  0.33997670142E+02  0.10500000000E+00 0. -1.
</event>
<event>
11    0  0.3515428E-009  0.9118800E+02  0.7816531E-02  0.1126479E+00
         25   -1    0    0    0    0  0.00000000000E+00  0.00000000000E+00  0.99999998245E-14  0.12500000000E+03  0.12500000000E+03 0.  0.
    3000001    1    3    3    0    0 -0.34751454609E+01 -0.66186345633E+01 -0.15755620324E+02  0.17467756904E+02  0.10000000000E+01 0.  1.
    1000022    2    1    0    0    0 -0.15485778455E+02 -0.36291340102E+02 -0.47427621853E+02  0.62500000226E+02  0.10000000643E+02 0.  0.
    3000022    2    3    3    0    0 -0.12010632995E+02 -0.29672705539E+02 -0.31672001529E+02  0.45032243322E+02  0.24999773070E+00 0.  0.
    1000022    2    1    0    0    0  0.15485778455E+02  0.36291340102E+02  0.47427621853E+02  0.62499999774E+02  0.99999978183E+01 0.  0.
    3000022    2    5    5    0    0  0.89334425880E+01  0.17069864251E+02  0.30338926315E+02  0.35940222772E+02  0.25000188042E+00 0.  0.
        -13    1    4    4    0    0 -0.56839840445E+01 -0.14217913424E+02 -0.15171285982E+02  0.21555409532E+02  0.10500000000E+00 0.  1.
         13    1    4    4    0    0 -0.63266489501E+01 -0.15454792115E+02 -0.16500715547E+02  0.23476833791E+02  0.10500000000E+00 0. -1.
    3000001    1    5    5    0    0  0.65523358675E+01  0.19221475851E+02  0.17088695538E+02  0.26559777002E+02  0.10000000000E+01 0.  1.
        -13    1    6    6    0    0  0.35092246574E+01  0.68305955250E+01  0.12138080728E+02  0.14363694569E+02  0.10500000000E+00 0. -1.
         13    1    6    6    0    0  0.54242179306E+01  0.10239268726E+02  0.18200845587E+02  0.21576528203E+02  0.10500000000E+00 0.  1.
</event>
<event>
11    0  0.3515428E-009  0.9118800E+02  0.7816531E-02  0.1126479E+00
         25   -1    0    0    0    0  0.00000000000E+00  0.00000000000E+00  0.99999998245E-14  0.12500000000E+03  0.12500000000E+03 0.  0.
    3000001    1    3    3    0    0  0.78955779490E+01 -0.52757762458E+01  0.47906727609E+01  0.10682907453E+02  0.10000000000E+01 0.  1.
    1000022    2    1    0    0    0  0.40049794782E+02 -0.17520657559E+02  0.43534934212E+02  0.62500000068E+02  0.10000000418E+02 0.  0.
    3000022    2    3    3    0    0  0.32154216832E+02 -0.12244881313E+02  0.38744261451E+02  0.51817092615E+02  0.25002648580E+00 0.  0.
    1000022    2    1    0    0    0 -0.40049794782E+02  0.17520657559E+02 -0.43534934212E+02  0.62499999932E+02  0.99999995672E+01 0.  0.
    3000022    2    5    5    0    0 -0.16220284092E+02  0.27609663637E+01 -0.19894252510E+02  0.25817907636E+02  0.25004098401E+00 0.  0.
        -13    1    4    4    0    0  0.15724758357E+02 -0.59590015312E+01  0.18842448008E+02  0.25255229093E+02  0.10500000000E+00 0. -1.
         13    1    4    4    0    0  0.16429458476E+02 -0.62858797819E+01  0.19901813443E+02  0.26561863522E+02  0.10500000000E+00 0.  1.
    3000001    1    5    5    0    0 -0.23829510690E+02  0.14759691195E+02 -0.23640681702E+02  0.36682092296E+02  0.10000000000E+01 0. -1.
        -13    1    6    6    0    0 -0.46488574138E+01  0.79619064043E+00 -0.57692048860E+01  0.74525529053E+01  0.10500000000E+00 0.  1.
         13    1    6    6    0    0 -0.11571426678E+02  0.19647757233E+01 -0.14125047624E+02  0.18365354731E+02  0.10500000000E+00 0. -1.
</event>
<event>
11    0  0.3515428E-009  0.9118800E+02  0.7816531E-02  0.1126479E+00
         25   -1    0    0    0    0  0.00000000000E+00  0.00000000000E+00  0.99999998245E-14  0.12500000000E+03  0.12500000000E+03 0.  0.
    3000001    1    3    3    0    0  0.36833230285E+02  0.36983440718E+02  0.29617942748E+02  0.60022364775E+02  0.10000000000E+01 0.  1.
    1000022    2    1    0    0    0  0.39135060192E+02  0.37738873918E+02  0.29162896765E+02  0.62499999657E+02  0.99999934285E+01 0.  0.
    3000022    2    3    3    0    0  0.23018299069E+01  0.75543319938E+00 -0.45504598299E+00  0.24776348815E+01  0.25001504023E+00 0.  0.
    1000022    2    1    0    0    0 -0.39135060192E+02 -0.37738873918E+02 -0.29162896765E+02  0.62500000343E+02  0.99999977178E+01 0.  0.
    3000022    2    5    5    0    0 -0.26066186315E+02 -0.25092824895E+02 -0.13982589231E+02  0.38790091926E+02  0.24999968245E+00 0.  0.
        -13    1    4    4    0    0  0.63275962564E+00  0.24953873269E+00 -0.12273919312E+00  0.69910244777E+00  0.10500000000E+00 0.  1.
         13    1    4    4    0    0  0.16690702812E+01  0.50589446669E+00 -0.33230678987E+00  0.17785324337E+01  0.10500000000E+00 0. -1.
    3000001    1    5    5    0    0 -0.13068873877E+02 -0.12646049023E+02 -0.15180307534E+02  0.23709908417E+02  0.10000000000E+01 0. -1.
        -13    1    6    6    0    0 -0.15141899948E+02 -0.14627686341E+02 -0.80792587856E+01  0.22550649420E+02  0.10500000000E+00 0.  1.
         13    1    6    6    0    0 -0.10924286366E+02 -0.10465138554E+02 -0.59033304451E+01  0.16239442506E+02  0.10500000000E+00 0. -1.
</event>
<event>
11    0  0.3515428E-009  0.9118800E+02  0.7816531E-02  0.1126479E+00
         25   -1    0    0    0    0  0.00000000000E+00  0.00000000000E+00  0.99999998245E-14  0.12500000000E+03  0.12500000000E+03 0.  0.
    3000001    1    3    3    0    0  0.21078328288E+01 -0.12671883751E+01 -0.13897456112E+02  0.14148781290E+02  0.10000000000E+01 0.  1.
    1000022    2    1    0    0    0  0.22158339631E+02 -0.16643139660E+02 -0.55120450729E+02  0.62500001375E+02  0.99999985234E+01 0.  0.
    3000022    2    3    3    0    0  0.20050506802E+02 -0.15375951284E+02 -0.41222994616E+02  0.48351220085E+02  0.24999528070E+00 0.  0.
    1000022    2    1    0    0    0 -0.22158339631E+02  0.16643139660E+02  0.55120450729E+02  0.62499998625E+02  0.99999813328E+01 0.  0.
    3000022    2    5    5    0    0 -0.36608975034E+01  0.61311043565E+00  0.15315016940E+02  0.15760403406E+02  0.24999337871E+00 0.  0.
        -13    1    4    4    0    0  0.10858725036E+02 -0.83984735814E+01 -0.22464123291E+02  0.26326680917E+02  0.10500000000E+00 0. -1.
         13    1    4    4    0    0  0.91917817655E+01 -0.69774777031E+01 -0.18758871326E+02  0.22024539167E+02  0.10500000000E+00 0.  1.
    3000001    1    5    5    0    0 -0.18497442127E+02  0.16030029224E+02  0.39805433788E+02  0.46739595219E+02  0.10000000000E+01 0.  1.
        -13    1    6    6    0    0 -0.20008242729E+01  0.27113432009E+00  0.82287539995E+01  0.84735015769E+01  0.10500000000E+00 0. -1.
         13    1    6    6    0    0 -0.16600732304E+01  0.34197611556E+00  0.70862629410E+01  0.72869018288E+01  0.10500000000E+00 0.  1.
</event>
<event>
11    0  0.3515428E-009  0.9118800E+02  0.7816531E-02  0.1126479E+00
         25   -1    0    0    0    0  0.00000000000E+00  0.00000000000E+00  0.99999998245E-14  0.12500000000E+03  0.12500000000E+03 0.  0.
    3000001    1    3    3    0    0 -0.45965083637E+01 -0.27250985590E+01  0.17974533526E+02  0.18778655617E+02  0.10000000000E+01 0. -1.
    1000022    2    1    0    0    0 -0.28992996272E+02 -0.89620387840E+01  0.53715345189E+02  0.62500002366E+02  0.10000000751E+02 0.  0.
    3000022    2    3    3    0    0 -0.24396487908E+02 -0.62369402251E+01  0.35740811662E+02  0.43721346749E+02  0.24999527427E+00 0.  0.
    1000022    2    1    0    0    0  0.28992996272E+02  0.89620387840E+01 -0.53715345189E+02  0.62499997634E+02  0.99999711760E+01 0.  0.
    3000022    2    5    5    0    0  0.24568558659E+02  0.37940010514E+01 -0.44860297565E+02  0.51288569063E+02  0.25000059749E+00 0.  0.
        -13    1    4    4    0    0 -0.16168132885E+02 -0.40783129228E+01  0.23684611366E+02  0.28965721083E+02  0.10500000000E+00 0.  1.
         13    1    4    4    0    0 -0.82283550233E+01 -0.21586273023E+01  0.12056200296E+02  0.14755625666E+02  0.10500000000E+00 0. -1.
    3000001    1    5    5    0    0  0.44244376124E+01  0.51680377326E+01 -0.88550476239E+01  0.11211428571E+02  0.10000000000E+01 0.  1.
        -13    1    6    6    0    0  0.14846898672E+02  0.22526327115E+01 -0.26997711387E+02  0.30893238734E+02  0.10500000000E+00 0.  1.
         13    1    6    6    0    0  0.97216599876E+01  0.15413683399E+01 -0.17862586178E+02  0.20395330329E+02  0.10500000000E+00 0. -1.
</event>
<event>
11    0  0.3515428E-009  0.9118800E+02  0.7816531E-02  0.1126479E+00
         25   -1    0    0    0    0  0.00000000000E+00  0.00000000000E+00  0.99999998245E-14  0.12500000000E+03  0.12500000000E+03 0.  0.
    3000001    1    3    3    0    0  0.44571092256E+00 -0.28093956632E+01  0.19090939752E+01  0.35687535674E+01  0.10000000000E+01 0.  1.
    1000022    2    1    0    0    0  0.31048700552E+02 -0.53073058449E+02  0.50475922637E+01  0.62499996780E+02  0.10000003539E+02 0.  0.
    3000022    2    3    3    0    0  0.30602989629E+02 -0.50263662785E+02  0.31384982886E+01  0.58931243212E+02  0.24996841312E+00 0.  0.
    1000022    2    1    0    0    0 -0.31048700552E+02  0.53073058449E+02 -0.50475922637E+01  0.62500003220E+02  0.10000043792E+02 0.  0.
    3000022    2    5    5    0    0 -0.28935224898E+02  0.52285454139E+02 -0.54244092517E+01  0.60004188538E+02  0.24994379197E+00 0.  0.
        -13    1    4    4    0    0  0.10952766245E+02 -0.17879040326E+02  0.11225376508E+01  0.20997482877E+02  0.10500000000E+00 0. -1.
         13    1    4    4    0    0  0.19650223384E+02 -0.32384622460E+02  0.20159606378E+01  0.37933760336E+02  0.10500000000E+00 0.  1.
    3000001    1    5    5    0    0 -0.21134756537E+01  0.78760430917E+00  0.37681698792E+00  0.24958146825E+01  0.10000000000E+01 0.  1.
        -13    1    6    6    0    0 -0.17028585450E+02  0.30695103594E+02 -0.31333010420E+01  0.35241888534E+02  0.10500000000E+00 0. -1.
         13    1    6    6    0    0 -0.11906639448E+02  0.21590350545E+02 -0.22911082097E+01  0.24762300003E+02  0.10500000000E+00 0.  1.
</event>
<event>
11    0  0.3515428E-009  0.9118800E+02  0.7816531E-02  0.1126479E+00
         25   -1    0    0    0    0  0.00000000000E+00  0.00000000000E+00  0.99999998245E-14  0.12500000000E+03  0.12500000000E+03 0.  0.
    3000001    1    3    3    0    0 -0.34216254945E+02  0.32328320303E+02 -0.43373192873E+01  0.47283027977E+02  0.10000000000E+01 0. -1.
    1000022    2    1    0    0    0 -0.45248307003E+02  0.40497703000E+02 -0.10898475436E+02  0.62500000567E+02  0.10000003454E+02 0.  0.
    3000022    2    3    3    0    0 -0.11032052058E+02  0.81693826973E+01 -0.65611561485E+01  0.15216972590E+02  0.24999705359E+00 0.  0.
    1000022    2    1    0    0    0  0.45248307003E+02 -0.40497703000E+02  0.10898475436E+02  0.62499999433E+02  0.99999963699E+01 0.  0.
    3000022    2    5    5    0    0  0.31729590979E+02 -0.30331026909E+02  0.35753182104E+01  0.44040703200E+02  0.25000196896E+00 0.  0.
        -13    1    4    4    0    0 -0.70039928298E+01  0.51140102063E+01 -0.41326214313E+01  0.96072160819E+01  0.10500000000E+00 0. -1.
         13    1    4    4    0    0 -0.40280592286E+01  0.30553724910E+01 -0.24285347172E+01  0.56097565081E+01  0.10500000000E+00 0.  1.
    3000001    1    5    5    0    0  0.13518716024E+02 -0.10166676091E+02  0.73231572254E+01  0.18459296233E+02  0.10000000000E+01 0. -1.
        -13    1    6    6    0    0  0.17549009170E+02 -0.16790367894E+02  0.19124242100E+01  0.24362934310E+02  0.10500000000E+00 0. -1.
         13    1    6    6    0    0  0.14180581810E+02 -0.13540659016E+02  0.16628940005E+01  0.19677768890E+02  0.10500000000E+00 0.  1.
</event>
<event>
11    0  0.3515428E-009  0.9118800E+02  0.7816531E-02  0.1126479E+00
         25   -1    0    0    0    0  0.00000000000E+00  0.00000000000E+00  0.99999998245E-14  0.12500000000E+03  0.12500000000E+03 0.  0.
    3000001    1    3    3    0    0  0.14086553010E+01  0.27759693288E+02  0.10726426915E+02  0.29810084125E+02  0.10000000000E+01 0. -1.
    1000022    2    1    0    0    0  0.11107140421E+02  0.58508523890E+02  0.16113161587E+02  0.62500000138E+02  0.10000005238E+02 0.  0.
    3000022    2    3    3    0    0  0.96984851196E+01  0.30748830602E+02  0.53867346723E+01  0.32689916013E+02  0.25000290516E+00 0.  0.
    1000022    2    1    0    0    0 -0.11107140421E+02 -0.58508523890E+02 -0.16113161587E+02  0.62499999862E+02  0.10000003517E+02 0.  0.
    3000022    2    5    5    0    0 -0.12294106877E+02 -0.56609727473E+02 -0.15615480519E+02  0.59997600284E+02  0.24999906529E+00 0.  0.
        -13    1    4    4    0    0  0.32541752506E+01  0.10164121743E+02  0.18097683983E+01  0.10825216581E+02  0.10500000000E+00 0.  1.
         13    1    4    4    0    0  0.64443098690E+01  0.20584708859E+02  0.35769662740E+01  0.21864699431E+02  0.10500000000E+00 0. -1.
    3000001    1    5    5    0    0  0.11869664568E+01 -0.18987964171E+01 -0.49768106765E+00  0.25023995781E+01  0.10000000000E+01 0.  1.
        -13    1    6    6    0    0 -0.72801310769E+01 -0.33617446541E+02 -0.93344822614E+01  0.35640940006E+02  0.10500000000E+00 0. -1.
         13    1    6    6    0    0 -0.50139758005E+01 -0.22992280932E+02 -0.62809982581E+01  0.24356660278E+02  0.10500000000E+00 0.  1.
</event>
<event>
11    0  0.3515428E-009  0.9118800E+02  0.7816531E-02  0.1126479E+00
         25   -1    0    0    0    0  0.00000000000E+00  0.00000000000E+00  0.99999998245E-14  0.12500000000E+03  0.12500000000E+03 0.  0.
    3000001    1    3    3    0    0 -0.43480702539E+02 -0.21493534085E+02  0.15981402236E+01  0.48539649287E+02  0.10000000000E+01 0.  1.
    1000022    2    1    0    0    0 -0.53742955807E+02 -0.30229143469E+02 -0.20356150598E+01  0.62499999954E+02  0.99999925901E+01 0.  0.
    3000022    2    3    3    0    0 -0.10262253269E+02 -0.87356093837E+01 -0.36337552835E+01  0.13960350667E+02  0.24999965973E+00 0.  0.
    1000022    2    1    0    0    0  0.53742955807E+02  0.30229143469E+02  0.20356150598E+01  0.62500000046E+02  0.99999931673E+01 0.  0.
    3000022    2    5    5    0    0  0.16281069073E+02  0.74545046997E+01  0.48607432485E+01  0.18556189583E+02  0.24999286043E+00 0.  0.
        -13    1    4    4    0    0 -0.39031422078E+01 -0.32580251325E+01 -0.14075355498E+01  0.52764977194E+01  0.10500000000E+00 0.  1.
         13    1    4    4    0    0 -0.63591110607E+01 -0.54775842512E+01 -0.22262197336E+01  0.86838529475E+01  0.10500000000E+00 0. -1.
    3000001    1    5    5    0    0  0.37461886734E+02  0.22774638769E+02 -0.28251281887E+01  0.43943810463E+02  0.10000000000E+01 0.  1.
        -13    1    6    6    0    0  0.82946781655E+01  0.37259093861E+01  0.24497415881E+01  0.94178737234E+01  0.10500000000E+00 0.  1.
         13    1    6    6    0    0  0.79863909078E+01  0.37285953136E+01  0.24110016605E+01  0.91383158597E+01  0.10500000000E+00 0. -1.
</event>
<event>
11    0  0.3515428E-009  0.9118800E+02  0.7816531E-02  0.1126479E+00
         25   -1    0    0    0    0  0.00000000000E+00  0.00000000000E+00  0.99999998245E-14  0.12500000000E+03  0.12500000000E+03 0.  0.
    3000001    1    3    3    0    0  0.80605136283E+01 -0.54596187195E+02  0.12359628839E+02  0.56563910413E+02  0.10000000000E+01 0.  1.
    1000022    2    1    0    0    0  0.71816220892E+01 -0.60289300774E+02  0.10948724168E+02  0.62499998694E+02  0.99999896074E+01 0.  0.
    3000022    2    3    3    0    0 -0.87889153912E+00 -0.56931135790E+01 -0.14109046713E+01  0.59360882805E+01  0.24999904231E+00 0.  0.
    1000022    2    1    0    0    0 -0.71816220892E+01  0.60289300774E+02 -0.10948724168E+02  0.62500001306E+02  0.10000005938E+02 0.  0.
    3000022    2    5    5    0    0 -0.71906315028E+00  0.35357399757E+02 -0.28404362525E+01  0.35479477824E+02  0.24999831412E+00 0.  0.
        -13    1    4    4    0    0 -0.53273940712E+00 -0.35453139203E+01 -0.81721015641E+00  0.36785757447E+01  0.10500000000E+00 0. -1.
         13    1    4    4    0    0 -0.34615213200E+00 -0.21477996587E+01 -0.59369451491E+00  0.22575125358E+01  0.10500000000E+00 0.  1.
    3000001    1    5    5    0    0 -0.64625589389E+01  0.24931901017E+02 -0.81082879153E+01  0.27020523482E+02  0.10000000000E+01 0. -1.
        -13    1    6    6    0    0 -0.40892119069E+00  0.22266256394E+02 -0.17482775820E+01  0.22338775478E+02  0.10500000000E+00 0.  1.
         13    1    6    6    0    0 -0.31014195959E+00  0.13091143363E+02 -0.10921586704E+01  0.13140702346E+02  0.10500000000E+00 0. -1.
</event>
<event>
11    0  0.3515428E-009  0.9118800E+02  0.7816531E-02  0.1126479E+00
         25   -1    0    0    0    0  0.00000000000E+00  0.00000000000E+00  0.99999998245E-14  0.12500000000E+03  0.12500000000E+03 0.  0.
    3000001    1    3    3    0    0  0.81184247745E+01  0.11793587474E+02  0.65813976165E+01  0.15789627004E+02  0.10000000000E+01 0. -1.
    1000022    2    1    0    0    0  0.42700455393E+02  0.42386315824E+02  0.13649952237E+02  0.62499998838E+02  0.99999999405E+01 0.  0.
    3000022    2    3    3    0    0  0.34582030619E+02  0.30592728350E+02  0.70685546200E+01  0.46710371834E+02  0.25000581164E+00 0.  0.
    1000022    2    1    0    0    0 -0.42700455393E+02 -0.42386315824E+02 -0.13649952237E+02  0.62500001162E+02  0.10000014461E+02 0.  0.
    3000022    2    5    5    0    0 -0.21810269126E+02 -0.19016916143E+02 -0.18658032069E+01  0.28997838663E+02  0.24997314816E+00 0.  0.
        -13    1    4    4    0    0  0.22691489285E+02  0.20038847782E+02  0.46840986251E+01  0.30633493293E+02  0.10500000000E+00 0.  1.
         13    1    4    4    0    0  0.11890541334E+02  0.10553880567E+02  0.23844559949E+01  0.16076878541E+02  0.10500000000E+00 0. -1.
    3000001    1    5    5    0    0 -0.20890186267E+02 -0.23369399681E+02 -0.11784149030E+02  0.33502162499E+02  0.10000000000E+01 0.  1.
        -13    1    6    6    0    0 -0.72890504852E+01 -0.64238328714E+01 -0.64259421353E+00  0.97375478463E+01  0.10500000000E+00 0. -1.
         13    1    6    6    0    0 -0.14521218641E+02 -0.12593083271E+02 -0.12232089933E+01  0.19260290817E+02  0.10500000000E+00 0.  1.
</event>
<event>
11    0  0.3515428E-009  0.9118800E+02  0.7816531E-02  0.1126479E+00
         25   -1    0    0    0    0  0.00000000000E+00  0.00000000000E+00  0.99999998245E-14  0.12500000000E+03  0.12500000000E+03 0.  0.
    3000001    1    3    3    0    0 -0.88531812875E+01  0.18862530136E+02 -0.37613031395E+02  0.43010626509E+02  0.10000000000E+01 0. -1.
    1000022    2    1    0    0    0 -0.62093572009E+01  0.27102528983E+02 -0.55074011354E+02  0.62500000679E+02  0.10000008201E+02 0.  0.
    3000022    2    3    3    0    0  0.26438240866E+01  0.82399988473E+01 -0.17460979960E+02  0.19489374169E+02  0.24999509390E+00 0.  0.
    1000022    2    1    0    0    0  0.62093572009E+01 -0.27102528983E+02  0.55074011354E+02  0.62499999321E+02  0.99999997195E+01 0.  0.
    3000022    2    5    5    0    0  0.35575463590E+01 -0.61626043193E+01  0.69901293902E+01  0.99778873075E+01  0.24999627144E+00 0.  0.
        -13    1    4    4    0    0  0.19930247916E+01  0.61357996949E+01 -0.12974584499E+02  0.14490377968E+02  0.10500000000E+00 0.  1.
         13    1    4    4    0    0  0.65079929502E+00  0.21041991524E+01 -0.44863954605E+01  0.49989962016E+01  0.10500000000E+00 0. -1.
    3000001    1    5    5    0    0  0.26518108419E+01 -0.20939924664E+02  0.48083881964E+02  0.52522112014E+02  0.10000000000E+01 0. -1.
        -13    1    6    6    0    0  0.19876950309E+01 -0.35204406126E+01  0.38962843869E+01  0.56157359861E+01  0.10500000000E+00 0. -1.
         13    1    6    6    0    0  0.15698513281E+01 -0.26421637067E+01  0.30938450033E+01  0.43621513213E+01  0.10500000000E+00 0.  1.
</event>
<event>
11    0  0.3515428E-009  0.9118800E+02  0.7816531E-02  0.1126479E+00
         25   -1    0    0    0    0  0.00000000000E+00  0.00000000000E+00  0.99999998245E-14  0.12500000000E+03  0.12500000000E+03 0.  0.
    3000001    1    3    3    0    0  0.32099479656E+02  0.30013091979E+00  0.23622743152E+02  0.39868542321E+02  0.10000000000E+01 0.  1.
    1000022    2    1    0    0    0  0.45649544436E+02 -0.34325373163E+01  0.41359240480E+02  0.62500000693E+02  0.10000004694E+02 0.  0.
    3000022    2    3    3    0    0  0.13550064780E+02 -0.37326682361E+01  0.17736497327E+02  0.22631458371E+02  0.25000576701E+00 0.  0.
    1000022    2    1    0    0    0 -0.45649544436E+02  0.34325373163E+01 -0.41359240480E+02  0.62499999307E+02  0.99999960353E+01 0.  0.
    3000022    2    5    5    0    0 -0.26901352749E+02  0.68817325254E+01 -0.24576121393E+02  0.37082195991E+02  0.24998909391E+00 0.  0.
        -13    1    4    4    0    0  0.42069301793E+01 -0.11282347244E+01  0.55592010479E+01  0.70630670687E+01  0.10500000000E+00 0.  1.
         13    1    4    4    0    0  0.93431346005E+01 -0.26044335117E+01  0.12177296279E+02  0.15568391303E+02  0.10500000000E+00 0. -1.
    3000001    1    5    5    0    0 -0.18748191687E+02 -0.34491952090E+01 -0.16783119087E+02  0.25417803316E+02  0.10000000000E+01 0. -1.
        -13    1    6    6    0    0 -0.15967130465E+02  0.40738649039E+01 -0.14668331605E+02  0.22061654689E+02  0.10500000000E+00 0.  1.
         13    1    6    6    0    0 -0.10934222284E+02  0.28078676215E+01 -0.99077897877E+01  0.15020541302E+02  0.10500000000E+00 0. -1.
</event>
<event>
11    0  0.3515428E-009  0.9118800E+02  0.7816531E-02  0.1126479E+00
         25   -1    0    0    0    0  0.00000000000E+00  0.00000000000E+00  0.99999998245E-14  0.12500000000E+03  0.12500000000E+03 0.  0.
    3000001    1    3    3    0    0 -0.99002694769E+01  0.54714874354E+01  0.62231256539E+01  0.12949123653E+02  0.10000000000E+01 0.  1.
    1000022    2    1    0    0    0 -0.50123319273E+02  0.81486874483E+01  0.35035720466E+02  0.62499999057E+02  0.99999965722E+01 0.  0.
    3000022    2    3    3    0    0 -0.40223049797E+02  0.26772000129E+01  0.28812594812E+02  0.49550875404E+02  0.24999735982E+00 0.  0.
    1000022    2    1    0    0    0  0.50123319273E+02 -0.81486874483E+01 -0.35035720466E+02  0.62500000943E+02  0.10000008359E+02 0.  0.
    3000022    2    5    5    0    0  0.29873268989E+02 -0.40195412895E+01 -0.14886166299E+02  0.33618883969E+02  0.24999994081E+00 0.  0.
        -13    1    4    4    0    0 -0.26705287737E+02  0.17612039559E+01  0.19065229859E+02  0.32859827253E+02  0.10500000000E+00 0.  1.
         13    1    4    4    0    0 -0.13517762060E+02  0.91599605699E+00  0.97473649525E+01  0.16691048152E+02  0.10500000000E+00 0. -1.
    3000001    1    5    5    0    0  0.20250050284E+02 -0.41291461589E+01 -0.20149554167E+02  0.28881116974E+02  0.10000000000E+01 0. -1.
        -13    1    6    6    0    0  0.11011372986E+02 -0.14624518217E+01 -0.54232721002E+01  0.12361715319E+02  0.10500000000E+00 0. -1.
         13    1    6    6    0    0  0.18861896003E+02 -0.25570894678E+01 -0.94628941983E+01  0.21257168650E+02  0.10500000000E+00 0.  1.
</event>
<event>
11    0  0.3515428E-009  0.9118800E+02  0.7816531E-02  0.1126479E+00
         25   -1    0    0    0    0  0.00000000000E+00  0.00000000000E+00  0.99999998245E-14  0.12500000000E+03  0.12500000000E+03 0.  0.
    3000001    1    3    3    0    0  0.39499399272E+00  0.59856800656E+01  0.23468804089E+01  0.65186067342E+01  0.10000000000E+01 0. -1.
    1000022    2    1    0    0    0 -0.14670126105E+02  0.45153772770E+02  0.39397627485E+02  0.62500011765E+02  0.10000131195E+02 0.  0.
    3000022    2    3    3    0    0 -0.15065120098E+02  0.39168092704E+02  0.37050747076E+02  0.55981405031E+02  0.25004139057E+00 0.  0.
    1000022    2    1    0    0    0  0.14670126105E+02 -0.45153772770E+02 -0.39397627485E+02  0.62499988235E+02  0.99999841275E+01 0.  0.
    3000022    2    5    5    0    0  0.11093128419E+02 -0.35402212448E+02 -0.25075602784E+02  0.44779710790E+02  0.24999829612E+00 0.  0.
        -13    1    4    4    0    0 -0.84441647218E+01  0.21937531586E+02  0.20665665359E+02  0.31299200623E+02  0.10500000000E+00 0.  1.
         13    1    4    4    0    0 -0.66209553764E+01  0.17230561119E+02  0.16385081717E+02  0.24682204408E+02  0.10500000000E+00 0. -1.
    3000001    1    5    5    0    0  0.35769976865E+01 -0.97515603220E+01 -0.14322024701E+02  0.17720277444E+02  0.10000000000E+01 0. -1.
        -13    1    6    6    0    0  0.42547432360E+01 -0.13767569808E+02 -0.97699376572E+01  0.17410098370E+02  0.10500000000E+00 0. -1.
         13    1    6    6    0    0  0.68383851829E+01 -0.21634642640E+02 -0.15305665127E+02  0.27369612420E+02  0.10500000000E+00 0.  1.
</event>
<event>
11    0  0.3515428E-009  0.9118800E+02  0.7816531E-02  0.1126479E+00
         25   -1    0    0    0    0  0.00000000000E+00  0.00000000000E+00  0.99999998245E-14  0.12500000000E+03  0.12500000000E+03 0.  0.
    3000001    1    3    3    0    0 -0.19140660808E+02  0.38862717023E+02 -0.83599555666E+00  0.43340218726E+02  0.10000000000E+01 0. -1.
    1000022    2    1    0    0    0 -0.31873675876E+02  0.52599163119E+02 -0.48627976899E+01  0.62500000982E+02  0.10000007334E+02 0.  0.
    3000022    2    3    3    0    0 -0.12733015068E+02  0.13736446096E+02 -0.40268021332E+01  0.19159782257E+02  0.24999325294E+00 0.  0.
    1000022    2    1    0    0    0  0.31873675876E+02 -0.52599163119E+02  0.48627976899E+01  0.62499999018E+02  0.99999950565E+01 0.  0.
    3000022    2    5    5    0    0  0.46609145700E+01 -0.80736100469E+01  0.43851157272E+01  0.10305292060E+02  0.25000137869E+00 0.  0.
        -13    1    4    4    0    0 -0.74423452597E+01  0.81231332356E+01 -0.23705927633E+01  0.11269628724E+02  0.10500000000E+00 0. -1.
         13    1    4    4    0    0 -0.52906698085E+01  0.56133128603E+01 -0.16562093699E+01  0.78901535325E+01  0.10500000000E+00 0.  1.
    3000001    1    5    5    0    0  0.27212761306E+02 -0.44525553072E+02  0.47768196268E+00  0.52194706957E+02  0.10000000000E+01 0.  1.
        -13    1    6    6    0    0  0.17937074301E+01 -0.31906068585E+01  0.17730004440E+01  0.40684043610E+01  0.10500000000E+00 0. -1.
         13    1    6    6    0    0  0.28672071400E+01 -0.48830031884E+01  0.26121152832E+01  0.62368876993E+01  0.10500000000E+00 0.  1.
</event>
<event>
11    0  0.3515428E-009  0.9118800E+02  0.7816531E-02  0.1126479E+00
         25   -1    0    0    0    0  0.00000000000E+00  0.00000000000E+00  0.99999998245E-14  0.12500000000E+03  0.12500000000E+03 0.  0.
    3000001    1    3    3    0    0 -0.76904004733E+01  0.21251356098E+02 -0.28343248736E+02  0.36264337087E+02  0.10000000000E+01 0. -1.
    1000022    2    1    0    0    0 -0.11924249155E+02  0.29373915787E+02 -0.52926698134E+02  0.62499998604E+02  0.99999901746E+01 0.  0.
    3000022    2    3    3    0    0 -0.42338486818E+01  0.81225596889E+01 -0.24583449399E+02  0.26235661517E+02  0.25000067825E+00 0.  0.
    1000022    2    1    0    0    0  0.11924249155E+02 -0.29373915787E+02  0.52926698134E+02  0.62500001396E+02  0.10000007625E+02 0.  0.
    3000022    2    5    5    0    0  0.13112766019E+02 -0.28536852405E+02  0.49086778618E+02  0.58274101570E+02  0.25000183415E+00 0.  0.
        -13    1    4    4    0    0 -0.16809633633E+01  0.32049983924E+01 -0.98920729366E+01  0.10533839970E+02  0.10500000000E+00 0. -1.
         13    1    4    4    0    0 -0.25528853185E+01  0.49175612965E+01 -0.14691376462E+02  0.15701821547E+02  0.10500000000E+00 0.  1.
    3000001    1    5    5    0    0 -0.11885168638E+01 -0.83706338190E+00  0.38399195168E+01  0.42258998256E+01  0.10000000000E+01 0. -1.
        -13    1    6    6    0    0  0.35994525989E+01 -0.79220479419E+01  0.13621541101E+02  0.16163919994E+02  0.10500000000E+00 0. -1.
         13    1    6    6    0    0  0.95133134200E+01 -0.20614804463E+02  0.35465237517E+02  0.42110181577E+02  0.10500000000E+00 0.  1.
</event>
<event>
11    0  0.3515428E-009  0.9118800E+02  0.7816531E-02  0.1126479E+00
         25   -1    0    0    0    0  0.00000000000E+00  0.00000000000E+00  0.99999998245E-14  0.12500000000E+03  0.12500000000E+03 0.  0.
    3000001    1    3    3    0    0 -0.79539774461E+01  0.59673388726E+01 -0.27299769915E+01  0.10359906602E+02  0.10000000000E+01 0.  1.
    1000022    2    1    0    0    0 -0.36372542344E+02  0.49657447891E+02 -0.41744291754E+01  0.62500000571E+02  0.10000012239E+02 0.  0.
    3000022    2    3    3    0    0 -0.28418564898E+02  0.43690109018E+02 -0.14444521838E+01  0.52140093968E+02  0.25000006928E+00 0.  0.
    1000022    2    1    0    0    0  0.36372542344E+02 -0.49657447891E+02  0.41744291754E+01  0.62499999429E+02  0.10000005107E+02 0.  0.
    3000022    2    5    5    0    0  0.48150054103E+01 -0.13453851989E+02  0.12357806831E+00  0.14292241877E+02  0.24999177626E+00 0.  0.
        -13    1    4    4    0    0 -0.20106085886E+02  0.30986534973E+02 -0.10107929213E+01  0.36952033321E+02  0.10500000000E+00 0.  1.
         13    1    4    4    0    0 -0.83124790118E+01  0.12703574046E+02 -0.43365926253E+00  0.15188060647E+02  0.10500000000E+00 0. -1.
    3000001    1    5    5    0    0  0.31557536934E+02 -0.36203595902E+02  0.40508511070E+01  0.48207757552E+02  0.10000000000E+01 0. -1.
        -13    1    6    6    0    0  0.31695842597E+01 -0.89466351887E+01  0.12665899759E+00  0.94929243693E+01  0.10500000000E+00 0. -1.
         13    1    6    6    0    0  0.16454211506E+01 -0.45072168004E+01 -0.30809292790E-02  0.47993175078E+01  0.10500000000E+00 0.  1.
</event>
<event>
11    0  0.3515428E-009  0.9118800E+02  0.7816531E-02  0.1126479E+00
         25   -1    0    0    0    0  0.00000000000E+00  0.00000000000E+00  0.99999998245E-14  0.12500000000E+03  0.12500000000E+03 0.  0.
    3000001    1    3    3    0    0 -0.37130858869E+02  0.31510327052E+02 -0.11939895506E+02  0.50151395753E+02  0.10000000000E+01 0. -1.
    1000022    2    1    0    0    0 -0.42670367611E+02  0.42404743464E+02 -0.13686711060E+02  0.62500012524E+02  0.10000148276E+02 0.  0.
    3000022    2    3    3    0    0 -0.55395087417E+01  0.10894416412E+02 -0.17468155538E+01  0.12348616771E+02  0.25001101955E+00 0.  0.
    1000022    2    1    0    0    0  0.42670367611E+02 -0.42404743464E+02  0.13686711060E+02  0.62499987476E+02  0.99999917301E+01 0.  0.
    3000022    2    5    5    0    0  0.36452747519E+02 -0.34545195244E+02  0.77702448611E+01  0.50819410859E+02  0.24999743573E+00 0.  0.
        -13    1    4    4    0    0 -0.23485648489E+01  0.47053621660E+01 -0.80473722900E+00  0.53211668806E+01  0.10500000000E+00 0. -1.
         13    1    4    4    0    0 -0.31909438927E+01  0.61890542462E+01 -0.94207832477E+00  0.70274498902E+01  0.10500000000E+00 0.  1.
    3000001    1    5    5    0    0  0.62176200916E+01 -0.78595482198E+01  0.59164661990E+01  0.11680576617E+02  0.10000000000E+01 0. -1.
        -13    1    6    6    0    0  0.13362414957E+02 -0.12671345182E+02  0.27897534245E+01  0.18625543519E+02  0.10500000000E+00 0. -1.
         13    1    6    6    0    0  0.23090332562E+02 -0.21873850062E+02  0.49804914366E+01  0.32193867340E+02  0.10500000000E+00 0.  1.
</event>
<event>
11    0  0.3515428E-009  0.9118800E+02  0.7816531E-02  0.1126479E+00
         25   -1    0    0    0    0  0.00000000000E+00  0.00000000000E+00  0.99999998245E-14  0.12500000000E+03  0.12500000000E+03 0.  0.
    3000001    1    3    3    0    0 -0.15444396723E+01  0.23123846184E+02 -0.46876660703E+01  0.23665835490E+02  0.10000000000E+01 0.  1.
    1000022    2    1    0    0    0 -0.88600243866E+01  0.56499058822E+02 -0.23143194415E+02  0.62499990891E+02  0.99998866852E+01 0.  0.
    3000022    2    3    3    0    0 -0.73155847143E+01  0.33375212637E+02 -0.18455528345E+02  0.38834155400E+02  0.25000176058E+00 0.  0.
    1000022    2    1    0    0    0  0.88600243866E+01 -0.56499058822E+02  0.23143194415E+02  0.62500009109E+02  0.10000000554E+02 0.  0.
    3000022    2    5    5    0    0  0.10162742543E+02 -0.48239252729E+02  0.22059167651E+02  0.54009038299E+02  0.25000135052E+00 0.  0.
        -13    1    4    4    0    0 -0.41958018474E+01  0.19363848697E+02 -0.10651791857E+02  0.22495223588E+02  0.10500000000E+00 0.  1.
         13    1    4    4    0    0 -0.31197828669E+01  0.14011363940E+02 -0.78037364873E+01  0.16338931812E+02  0.10500000000E+00 0. -1.
    3000001    1    5    5    0    0 -0.13027181560E+01 -0.82598060927E+01  0.10840267645E+01  0.84909708108E+01  0.10000000000E+01 0. -1.
        -13    1    6    6    0    0  0.29613848071E+01 -0.13853315448E+02  0.63346761972E+01  0.15518482413E+02  0.10500000000E+00 0. -1.
         13    1    6    6    0    0  0.72013577355E+01 -0.34385937281E+02  0.15724491453E+02  0.38490555886E+02  0.10500000000E+00 0.  1.
</event>
<event>
11    0  0.3515428E-009  0.9118800E+02  0.7816531E-02  0.1126479E+00
         25   -1    0    0    0    0  0.00000000000E+00  0.00000000000E+00  0.99999998245E-14  0.12500000000E+03  0.12500000000E+03 0.  0.
    3000001    1    3    3    0    0  0.20325805308E+01  0.70785156390E-01  0.37911380868E+00  0.22978514819E+01  0.10000000000E+01 0. -1.
    1000022    2    1    0    0    0  0.36581384823E+02 -0.57322796383E+00  0.49676189079E+02  0.62500001150E+02  0.10000003823E+02 0.  0.
    3000022    2    3    3    0    0  0.34548804292E+02 -0.64401312022E+00  0.49297075270E+02  0.60202149668E+02  0.25012704203E+00 0.  0.
    1000022    2    1    0    0    0 -0.36581384823E+02  0.57322796383E+00 -0.49676189079E+02  0.62499998850E+02  0.99999894495E+01 0.  0.
    3000022    2    5    5    0    0 -0.18294111081E+02  0.47671375220E+01 -0.21459496685E+02  0.28600220267E+02  0.25000195109E+00 0.  0.
        -13    1    4    4    0    0  0.18375539330E+02 -0.36481216855E+00  0.26109286202E+02  0.31929600444E+02  0.10500000000E+00 0.  1.
         13    1    4    4    0    0  0.16173264962E+02 -0.27920095166E+00  0.23187789069E+02  0.28272549224E+02  0.10500000000E+00 0. -1.
    3000001    1    5    5    0    0 -0.18287273742E+02 -0.41939095582E+01 -0.28216692394E+02  0.33899778583E+02  0.10000000000E+01 0. -1.
        -13    1    6    6    0    0 -0.84167152699E+01  0.22176869292E+01 -0.97851900448E+01  0.13096572088E+02  0.10500000000E+00 0.  1.
         13    1    6    6    0    0 -0.98773958111E+01  0.25494505928E+01 -0.11674306640E+02  0.15503648179E+02  0.10500000000E+00 0. -1.
</event>
<event>
11    0  0.3515428E-009  0.9118800E+02  0.7816531E-02  0.1126479E+00
         25   -1    0    0    0    0  0.00000000000E+00  0.00000000000E+00  0.99999998245E-14  0.12500000000E+03  0.12500000000E+03 0.  0.
    3000001    1    3    3    0    0  0.10253113078E+02  0.13932194484E+02 -0.10123654633E+02  0.20067903579E+02  0.10000000000E+01 0. -1.
    1000022    2    1    0    0    0  0.19379955380E+02  0.50138443360E+02 -0.30278767199E+02  0.62499999659E+02  0.10000002061E+02 0.  0.
    3000022    2    3    3    0    0  0.91268423023E+01  0.36206248876E+02 -0.20155112566E+02  0.42432096081E+02  0.25001427451E+00 0.  0.
    1000022    2    1    0    0    0 -0.19379955380E+02 -0.50138443360E+02  0.30278767199E+02  0.62500000341E+02  0.10000006320E+02 0.  0.
    3000022    2    5    5    0    0 -0.15549079307E+02 -0.32925550810E+02  0.15936936331E+02  0.39748134614E+02  0.25000441222E+00 0.  0.
        -13    1    4    4    0    0  0.32848683472E+01  0.13187631244E+02 -0.73867235156E+01  0.15468635596E+02  0.10500000000E+00 0.  1.
         13    1    4    4    0    0  0.58419739551E+01  0.23018617632E+02 -0.12768389050E+02  0.26963460485E+02  0.10500000000E+00 0. -1.
    3000001    1    5    5    0    0 -0.38308760730E+01 -0.17212892551E+02  0.14341830867E+02  0.22751865727E+02  0.10000000000E+01 0. -1.
        -13    1    6    6    0    0 -0.70712351003E+01 -0.15044006936E+02  0.72102750878E+01  0.18119702050E+02  0.10500000000E+00 0. -1.
         13    1    6    6    0    0 -0.84778442070E+01 -0.17881543873E+02  0.87266612434E+01  0.21628432564E+02  0.10500000000E+00 0.  1.
</event>
<event>
11    0  0.3515428E-009  0.9118800E+02  0.7816531E-02  0.1126479E+00
         25   -1    0    0    0    0  0.00000000000E+00  0.00000000000E+00  0.99999998245E-14  0.12500000000E+03  0.12500000000E+03 0.  0.
    3000001    1    3    3    0    0  0.45843649436E+02  0.46194228555E+01  0.29066224906E+02  0.54486922206E+02  0.10000000000E+01 0. -1.
    1000022    2    1    0    0    0  0.53183703013E+02  0.22194354631E+01  0.31190031287E+02  0.62499997784E+02  0.99999755699E+01 0.  0.
    3000022    2    3    3    0    0  0.73400535762E+01 -0.23999873924E+01  0.21238063811E+01  0.80130755783E+01  0.25000138683E+00 0.  0.
    1000022    2    1    0    0    0 -0.53183703013E+02 -0.22194354631E+01 -0.31190031287E+02  0.62500002216E+02  0.10000003271E+02 0.  0.
    3000022    2    5    5    0    0 -0.31632860507E+02  0.28197342257E+01 -0.15413066453E+02  0.35301754787E+02  0.25001716602E+00 0.  0.
        -13    1    4    4    0    0  0.29490863871E+01 -0.10100543670E+01  0.80960930063E+00  0.32223923663E+01  0.10500000000E+00 0. -1.
         13    1    4    4    0    0  0.43909671891E+01 -0.13899330253E+01  0.13141970804E+01  0.47906832119E+01  0.10500000000E+00 0.  1.
    3000001    1    5    5    0    0 -0.21550842505E+02 -0.50391696889E+01 -0.15776964834E+02  0.27198247429E+02  0.10000000000E+01 0.  1.
        -13    1    6    6    0    0 -0.13904657688E+02  0.12091021323E+01 -0.67083985107E+01  0.15485963611E+02  0.10500000000E+00 0. -1.
         13    1    6    6    0    0 -0.17728202820E+02  0.16106320934E+01 -0.87046679424E+01  0.19815791176E+02  0.10500000000E+00 0.  1.
</event>
<event>
11    0  0.3515428E-009  0.9118800E+02  0.7816531E-02  0.1126479E+00
         25   -1    0    0    0    0  0.00000000000E+00  0.00000000000E+00  0.99999998245E-14  0.12500000000E+03  0.12500000000E+03 0.  0.
    3000001    1    3    3    0    0  0.93435243006E+01 -0.59993099135E+01 -0.37475798763E+00  0.11154981369E+02  0.10000000000E+01 0.  1.
    1000022    2    1    0    0    0  0.57476620882E+02 -0.19023839501E+02  0.11865140317E+02  0.62500000327E+02  0.10000003438E+02 0.  0.
    3000022    2    3    3    0    0  0.48133096582E+02 -0.13024529587E+02  0.12239898305E+02  0.51345018958E+02  0.25000757980E+00 0.  0.
    1000022    2    1    0    0    0 -0.57476620882E+02  0.19023839501E+02 -0.11865140317E+02  0.62499999673E+02  0.99999993454E+01 0.  0.
    3000022    2    5    5    0    0 -0.46522998136E+02  0.11999487506E+02 -0.11690521548E+02  0.49448031854E+02  0.25000841827E+00 0.  0.
        -13    1    4    4    0    0  0.23036173440E+02 -0.62190148572E+01  0.57888833915E+01  0.24553281420E+02  0.10500000000E+00 0. -1.
         13    1    4    4    0    0  0.25096923142E+02 -0.68055147300E+01  0.64510149134E+01  0.26791737539E+02  0.10500000000E+00 0.  1.
    3000001    1    5    5    0    0 -0.10953622746E+02  0.70243519948E+01 -0.17461876897E+00  0.13051967818E+02  0.10000000000E+01 0. -1.
        -13    1    6    6    0    0 -0.28267851905E+02  0.73364273619E+01 -0.71513395741E+01  0.30067379341E+02  0.10500000000E+00 0. -1.
         13    1    6    6    0    0 -0.18255146231E+02  0.46630601440E+01 -0.45391819743E+01  0.19380652513E+02  0.10500000000E+00 0.  1.
</event>
<event>
11    0  0.3515428E-009  0.9118800E+02  0.7816531E-02  0.1126479E+00
         25   -1    0    0    0    0  0.00000000000E+00  0.00000000000E+00  0.99999998245E-14  0.12500000000E+03  0.12500000000E+03 0.  0.
    3000001    1    3    3    0    0  0.67301123893E+00  0.76629141351E+00 -0.31173846234E+02  0.31206551166E+02  0.10000000000E+01 0.  1.
    1000022    2    1    0    0    0  0.71186075766E+01 -0.63797822990E+01 -0.60949765048E+02  0.62499999822E+02  0.99999961133E+01 0.  0.
    3000022    2    3    3    0    0  0.64455963376E+01 -0.71460737125E+01 -0.29775918814E+02  0.31293448655E+02  0.25001175647E+00 0.  0.
    1000022    2    1    0    0    0 -0.71186075766E+01  0.63797822990E+01  0.60949765048E+02  0.62500000178E+02  0.99999983427E+01 0.  0.
    3000022    2    5    5    0    0  0.75355426247E+00 -0.13589204648E+01  0.21491721094E+01  0.26638223055E+01  0.24999932572E+00 0.  0.
        -13    1    4    4    0    0  0.35441689970E+01 -0.40173761643E+01 -0.16672493696E+02  0.17512381796E+02  0.10500000000E+00 0.  1.
         13    1    4    4    0    0  0.29014273406E+01 -0.31286975482E+01 -0.13103425117E+02  0.13781066859E+02  0.10500000000E+00 0. -1.
    3000001    1    5    5    0    0 -0.78721618390E+01  0.77387027638E+01  0.58800592939E+02  0.59836177873E+02  0.10000000000E+01 0.  1.
        -13    1    6    6    0    0  0.46961611035E+00 -0.89956852537E+00  0.14798346392E+01  0.17974143602E+01  0.10500000000E+00 0.  1.
         13    1    6    6    0    0  0.28393815212E+00 -0.45935193947E+00  0.66933747022E+00  0.86640794523E+00  0.10500000000E+00 0. -1.
</event>
<event>
11    0  0.3515428E-009  0.9118800E+02  0.7816531E-02  0.1126479E+00
         25   -1    0    0    0    0  0.00000000000E+00  0.00000000000E+00  0.99999998245E-14  0.12500000000E+03  0.12500000000E+03 0.  0.
    3000001    1    3    3    0    0  0.43376994818E+02 -0.20091928811E+02  0.10082159131E+02  0.48866135672E+02  0.10000000000E+01 0.  1.
    1000022    2    1    0    0    0  0.53776666490E+02 -0.24510741485E+02  0.17707162610E+02  0.62499999972E+02  0.10000004094E+02 0.  0.
    3000022    2    3    3    0    0  0.10399671672E+02 -0.44188126735E+01  0.76250034789E+01  0.13633864300E+02  0.25000271768E+00 0.  0.
    1000022    2    1    0    0    0 -0.53776666490E+02  0.24510741485E+02 -0.17707162610E+02  0.62500000028E+02  0.10000004446E+02 0.  0.
    3000022    2    5    5    0    0 -0.12945465492E+02  0.89611258666E+01 -0.82833254530E+01  0.17792212926E+02  0.25001328293E+00 0.  0.
        -13    1    4    4    0    0  0.61927366884E+01 -0.26795353084E+01  0.46073342533E+01  0.81711964290E+01  0.10500000000E+00 0. -1.
         13    1    4    4    0    0  0.42069349840E+01 -0.17392773652E+01  0.30176692256E+01  0.54626678709E+01  0.10500000000E+00 0.  1.
    3000001    1    5    5    0    0 -0.40831200998E+02  0.15549615618E+02 -0.94238371573E+01  0.44707787102E+02  0.10000000000E+01 0.  1.
        -13    1    6    6    0    0 -0.86820149928E+01  0.60164075488E+01 -0.56161291622E+01  0.11963547797E+02  0.10500000000E+00 0. -1.
         13    1    6    6    0    0 -0.42634504989E+01  0.29447183177E+01 -0.26671962908E+01  0.58286651286E+01  0.10500000000E+00 0.  1.
</event>
<event>
11    0  0.3515428E-009  0.9118800E+02  0.7816531E-02  0.1126479E+00
         25   -1    0    0    0    0  0.00000000000E+00  0.00000000000E+00  0.99999998245E-14  0.12500000000E+03  0.12500000000E+03 0.  0.
    3000001    1    3    3    0    0  0.39534247424E+02  0.36740970751E+02 -0.25774275330E+02  0.59817797685E+02  0.10000000000E+01 0.  1.
    1000022    2    1    0    0    0  0.40254103476E+02  0.39278758160E+02 -0.25358160776E+02  0.62499999617E+02  0.99999972433E+01 0.  0.
    3000022    2    3    3    0    0  0.71985605139E+00  0.25377874088E+01  0.41611455331E+00  0.26822019312E+01  0.24999642168E+00 0.  0.
    1000022    2    1    0    0    0 -0.40254103476E+02 -0.39278758160E+02  0.25358160776E+02  0.62500000383E+02  0.10000002037E+02 0.  0.
    3000022    2    5    5    0    0 -0.35853333714E+02 -0.30325982297E+02  0.19193487531E+02  0.50730456366E+02  0.24999766444E+00 0.  0.
        -13    1    4    4    0    0  0.27002988543E+00  0.11790765444E+01  0.16492571939E+00  0.12253012403E+01  0.10500000000E+00 0.  1.
         13    1    4    4    0    0  0.44982616596E+00  0.13587108645E+01  0.25118883392E+00  0.14569006909E+01  0.10500000000E+00 0. -1.
    3000001    1    5    5    0    0 -0.44007697617E+01 -0.89527758633E+01  0.61646732454E+01  0.11769544017E+02  0.10000000000E+01 0.  1.
        -13    1    6    6    0    0 -0.96765961437E+01 -0.81483161420E+01  0.51465380827E+01  0.13657578413E+02  0.10500000000E+00 0. -1.
         13    1    6    6    0    0 -0.26176737570E+02 -0.22177666155E+02  0.14046949448E+02  0.37072877953E+02  0.10500000000E+00 0.  1.
</event>
<event>
11    0  0.3515428E-009  0.9118800E+02  0.7816531E-02  0.1126479E+00
         25   -1    0    0    0    0  0.00000000000E+00  0.00000000000E+00  0.99999998245E-14  0.12500000000E+03  0.12500000000E+03 0.  0.
    3000001    1    3    3    0    0 -0.30065822250E+02 -0.20969577778E+02  0.32228899375E+02  0.48819860863E+02  0.10000000000E+01 0.  1.
    1000022    2    1    0    0    0 -0.34326896274E+02 -0.30033796042E+02  0.41543766522E+02  0.62499994710E+02  0.10000004467E+02 0.  0.
    3000022    2    3    3    0    0 -0.42610740240E+01 -0.90642182648E+01  0.93148671473E+01  0.13680133847E+02  0.25001501699E+00 0.  0.
    1000022    2    1    0    0    0  0.34326896274E+02  0.30033796042E+02 -0.41543766522E+02  0.62500005290E+02  0.10000070595E+02 0.  0.
    3000022    2    5    5    0    0  0.12397445851E+02  0.94371983091E+01 -0.83091233256E+01  0.17659597816E+02  0.24997806721E+00 0.  0.
        -13    1    4    4    0    0 -0.22188922935E+01 -0.46216056123E+01  0.48403977894E+01  0.70514677341E+01  0.10500000000E+00 0.  1.
         13    1    4    4    0    0 -0.20421817305E+01 -0.44426126525E+01  0.44744693579E+01  0.66286661128E+01  0.10500000000E+00 0. -1.
    3000001    1    5    5    0    0  0.21929450423E+02  0.20596597733E+02 -0.33234643197E+02  0.44840407474E+02  0.10000000000E+01 0. -1.
        -13    1    6    6    0    0  0.82597030572E+01  0.62196038182E+01 -0.55171668877E+01  0.11719911336E+02  0.10500000000E+00 0.  1.
         13    1    6    6    0    0  0.41377427934E+01  0.32175944909E+01 -0.27919564379E+01  0.59396864802E+01  0.10500000000E+00 0. -1.
</event>
<event>
11    0  0.3515428E-009  0.9118800E+02  0.7816531E-02  0.1126479E+00
         25   -1    0    0    0    0  0.00000000000E+00  0.00000000000E+00  0.99999998245E-14  0.12500000000E+03  0.12500000000E+03 0.  0.
    3000001    1    3    3    0    0 -0.30584920425E+02 -0.45132403026E+02 -0.24456798161E+02  0.59762079420E+02  0.10000000000E+01 0.  1.
    1000022    2    1    0    0    0 -0.31235972154E+02 -0.45837661037E+02 -0.27008739875E+02  0.62499993217E+02  0.99999998360E+01 0.  0.
    3000022    2    3    3    0    0 -0.65105172885E+00 -0.70525801152E+00 -0.25519417139E+01  0.27379137972E+01  0.25001646599E+00 0.  0.
    1000022    2    1    0    0    0  0.31235972154E+02  0.45837661037E+02  0.27008739875E+02  0.62500006783E+02  0.10000084620E+02 0.  0.
    3000022    2    5    5    0    0  0.15855685852E+02  0.31395095829E+02  0.15378519887E+02  0.38387708810E+02  0.24999568571E+00 0.  0.
        -13    1    4    4    0    0 -0.36452476568E+00 -0.29570288396E+00 -0.12159659319E+01  0.13076378123E+01  0.10500000000E+00 0. -1.
         13    1    4    4    0    0 -0.28652696317E+00 -0.40955512756E+00 -0.13359757819E+01  0.14302759849E+01  0.10500000000E+00 0.  1.
    3000001    1    5    5    0    0  0.15380286302E+02  0.14442565208E+02  0.11630219988E+02  0.24112297972E+02  0.10000000000E+01 0.  1.
        -13    1    6    6    0    0  0.11902827198E+02  0.23567013013E+02  0.11515650890E+02  0.28804559328E+02  0.10500000000E+00 0. -1.
         13    1    6    6    0    0  0.39528586536E+01  0.78280828164E+01  0.38628689972E+01  0.95831494826E+01  0.10500000000E+00 0.  1.
</event>
<event>
11    0  0.3515428E-009  0.9118800E+02  0.7816531E-02  0.1126479E+00
         25   -1    0    0    0    0  0.00000000000E+00  0.00000000000E+00  0.99999998245E-14  0.12500000000E+03  0.12500000000E+03 0.  0.
    3000001    1    3    3    0    0 -0.23528753005E+00 -0.96291188573E+00 -0.13179191527E+01  0.19285928587E+01  0.10000000000E+01 0. -1.
    1000022    2    1    0    0    0  0.22690035684E+02  0.21043300096E+00 -0.57370444009E+02  0.62499998861E+02  0.10000000524E+02 0.  0.
    3000022    2    3    3    0    0  0.22925323214E+02  0.11733448867E+01 -0.56052524856E+02  0.60571406003E+02  0.24999935554E+00 0.  0.
    1000022    2    1    0    0    0 -0.22690035684E+02 -0.21043300096E+00  0.57370444009E+02  0.62500001139E+02  0.10000014758E+02 0.  0.
    3000022    2    5    5    0    0 -0.19192077664E+02 -0.38108042655E+00  0.35782927606E+02  0.40607406607E+02  0.24999196361E+00 0.  0.
        -13    1    4    4    0    0  0.84379338238E+01  0.46670712580E+00 -0.20762619273E+02  0.22416822407E+02  0.10500000000E+00 0.  1.
         13    1    4    4    0    0  0.14487389390E+02  0.70663776088E+00 -0.35289905583E+02  0.38154583595E+02  0.10500000000E+00 0. -1.
    3000001    1    5    5    0    0 -0.34979580201E+01  0.17064742559E+00  0.21587516403E+02  0.21892594531E+02  0.10000000000E+01 0.  1.
        -13    1    6    6    0    0 -0.13707009193E+02 -0.26920948382E+00  0.25642619520E+02  0.29077646666E+02  0.10500000000E+00 0.  1.
         13    1    6    6    0    0 -0.54850684715E+01 -0.11187094273E+00  0.10140308086E+02  0.11529759942E+02  0.10500000000E+00 0. -1.
</event>
<event>
11    0  0.3515428E-009  0.9118800E+02  0.7816531E-02  0.1126479E+00
         25   -1    0    0    0    0  0.00000000000E+00  0.00000000000E+00  0.99999998245E-14  0.12500000000E+03  0.12500000000E+03 0.  0.
    3000001    1    3    3    0    0 -0.94047274898E-01  0.52819499656E+01 -0.23863005145E+02  0.24461211231E+02  0.10000000000E+01 0.  1.
    1000022    2    1    0    0    0 -0.12167880817E+02  0.15262991844E+02 -0.58525495572E+02  0.62499999301E+02  0.10000001859E+02 0.  0.
    3000022    2    3    3    0    0 -0.12073833542E+02  0.99810418785E+01 -0.34662490426E+02  0.38038788070E+02  0.25000384934E+00 0.  0.
    1000022    2    1    0    0    0  0.12167880817E+02 -0.15262991844E+02  0.58525495572E+02  0.62500000699E+02  0.10000010591E+02 0.  0.
    3000022    2    5    5    0    0  0.57103303720E+01 -0.74856781970E+01  0.14300409188E+02  0.17123301491E+02  0.24999997799E+00 0.  0.
        -13    1    4    4    0    0 -0.62659241137E+01  0.52673277718E+01 -0.18123042700E+02  0.19886232639E+02  0.10500000000E+00 0. -1.
         13    1    4    4    0    0 -0.58079094285E+01  0.47137141067E+01 -0.16539447726E+02  0.18152555431E+02  0.10500000000E+00 0.  1.
    3000001    1    5    5    0    0  0.64575504451E+01 -0.77773136472E+01  0.44225086384E+02  0.45376699208E+02  0.10000000000E+01 0. -1.
        -13    1    6    6    0    0  0.27863752670E+01 -0.37644028006E+01  0.71082457688E+01  0.85130957050E+01  0.10500000000E+00 0.  1.
         13    1    6    6    0    0  0.29239551050E+01 -0.37212753964E+01  0.71921634189E+01  0.86102057859E+01  0.10500000000E+00 0. -1.
</event>
<event>
11    0  0.3515428E-009  0.9118800E+02  0.7816531E-02  0.1126479E+00
         25   -1    0    0    0    0  0.00000000000E+00  0.00000000000E+00  0.99999998245E-14  0.12500000000E+03  0.12500000000E+03 0.  0.
    3000001    1    3    3    0    0  0.15831510334E+02  0.22976462222E+02  0.14758181626E+02  0.31580982578E+02  0.10000000000E+01 0. -1.
    1000022    2    1    0    0    0  0.37010470789E+02  0.44534187254E+02  0.21288053948E+02  0.62499999485E+02  0.99999956156E+01 0.  0.
    3000022    2    3    3    0    0  0.21178960454E+02  0.21557725032E+02  0.65298723222E+01  0.30919016906E+02  0.24999887179E+00 0.  0.
    1000022    2    1    0    0    0 -0.37010470789E+02 -0.44534187254E+02 -0.21288053948E+02  0.62500000515E+02  0.10000002055E+02 0.  0.
    3000022    2    5    5    0    0 -0.79646673407E+01 -0.15918943373E+02 -0.87105762820E+01  0.19818812331E+02  0.24999821845E+00 0.  0.
        -13    1    4    4    0    0  0.13830921373E+02  0.14022759792E+02  0.42972329999E+01  0.20159598574E+02  0.10500000000E+00 0. -1.
         13    1    4    4    0    0  0.73480390813E+01  0.75349652403E+01  0.22326393224E+01  0.10759418333E+02  0.10500000000E+00 0.  1.
    3000001    1    5    5    0    0 -0.29045803448E+02 -0.28615243882E+02 -0.12577477666E+02  0.42681188184E+02  0.10000000000E+01 0. -1.
        -13    1    6    6    0    0 -0.22979140737E+01 -0.45721672855E+01 -0.25502349450E+01  0.57183779213E+01  0.10500000000E+00 0.  1.
         13    1    6    6    0    0 -0.56667532670E+01 -0.11346776087E+02 -0.61603413370E+01  0.14100434410E+02  0.10500000000E+00 0. -1.
</event>
<event>
11    0  0.3515428E-009  0.9118800E+02  0.7816531E-02  0.1126479E+00
         25   -1    0    0    0    0  0.00000000000E+00  0.00000000000E+00  0.99999998245E-14  0.12500000000E+03  0.12500000000E+03 0.  0.
    3000001    1    3    3    0    0  0.80620516412E+01  0.14114975080E+01  0.22616134959E+02  0.24072360963E+02  0.10000000000E+01 0. -1.
    1000022    2    1    0    0    0  0.86889538890E+01  0.31671463718E+01  0.60997715054E+02  0.62500000699E+02  0.10000005490E+02 0.  0.
    3000022    2    3    3    0    0  0.62690224781E+00  0.17556488638E+01  0.38381580095E+02  0.38427639736E+02  0.24999142476E+00 0.  0.
    1000022    2    1    0    0    0 -0.86889538890E+01 -0.31671463718E+01 -0.60997715054E+02  0.62499999301E+02  0.99999967524E+01 0.  0.
    3000022    2    5    5    0    0 -0.11812997033E+01 -0.21114086824E+01 -0.41275431375E+02  0.41347034333E+02  0.24999465440E+00 0.  0.
        -13    1    4    4    0    0  0.33194930158E+00  0.11081123340E+01  0.23481707227E+02  0.23510416895E+02  0.10500000000E+00 0.  1.
         13    1    4    4    0    0  0.29495294623E+00  0.64753652978E+00  0.14899872868E+02  0.14917222840E+02  0.10500000000E+00 0. -1.
    3000001    1    5    5    0    0 -0.75076541857E+01 -0.10557376894E+01 -0.19722283678E+02  0.21152964968E+02  0.10000000000E+01 0.  1.
        -13    1    6    6    0    0 -0.74298312541E+00 -0.12273639332E+01 -0.25113507707E+02  0.25154676315E+02  0.10500000000E+00 0. -1.
         13    1    6    6    0    0 -0.43831657790E+00 -0.88404474915E+00 -0.16161923668E+02  0.16192358018E+02  0.10500000000E+00 0.  1.
</event>
<event>
11    0  0.3515428E-009  0.9118800E+02  0.7816531E-02  0.1126479E+00
         25   -1    0    0    0    0  0.00000000000E+00  0.00000000000E+00  0.99999998245E-14  0.12500000000E+03  0.12500000000E+03 0.  0.
    3000001    1    3    3    0    0  0.26561301337E+01 -0.23240837836E+01  0.10957790902E+01  0.38284624244E+01  0.10000000000E+01 0. -1.
    1000022    2    1    0    0    0  0.20056961687E+02 -0.37079991508E+02  0.45044894820E+02  0.62500000111E+02  0.99999991057E+01 0.  0.
    3000022    2    3    3    0    0  0.17400831554E+02 -0.34755907724E+02  0.43949115730E+02  0.58671537686E+02  0.25000104731E+00 0.  0.
    1000022    2    1    0    0    0 -0.20056961687E+02  0.37079991508E+02 -0.45044894820E+02  0.62499999889E+02  0.99999977232E+01 0.  0.
    3000022    2    5    5    0    0 -0.18842265011E+02  0.28629883996E+02 -0.32086255500E+02  0.46949882913E+02  0.25001015559E+00 0.  0.
        -13    1    4    4    0    0  0.61307947349E+01 -0.12200779534E+02  0.15359448584E+02  0.20551626484E+02  0.10500000000E+00 0. -1.
         13    1    4    4    0    0  0.11270036819E+02 -0.22555128190E+02  0.28589667146E+02  0.38119911203E+02  0.10500000000E+00 0.  1.
    3000001    1    5    5    0    0 -0.12146966763E+01  0.84501075113E+01 -0.12958639320E+02  0.15550116977E+02  0.10000000000E+01 0. -1.
        -13    1    6    6    0    0 -0.12774275127E+02  0.19319127203E+02 -0.21663414579E+02  0.31713172927E+02  0.10500000000E+00 0. -1.
         13    1    6    6    0    0 -0.60679898841E+01  0.93107567935E+01 -0.10422840922E+02  0.15236709985E+02  0.10500000000E+00 0.  1.
</event>
<event>
11    0  0.3515428E-009  0.9118800E+02  0.7816531E-02  0.1126479E+00
         25   -1    0    0    0    0  0.00000000000E+00  0.00000000000E+00  0.99999998245E-14  0.12500000000E+03  0.12500000000E+03 0.  0.
    3000001    1    3    3    0    0  0.87616384258E+01 -0.54634949050E+02  0.13672719673E+02  0.57006028004E+02  0.10000000000E+01 0. -1.
    1000022    2    1    0    0    0  0.76851905956E+01 -0.59906094165E+02  0.12587594999E+02  0.62499998205E+02  0.99999977592E+01 0.  0.
    3000022    2    3    3    0    0 -0.10764478302E+01 -0.52711451149E+01 -0.10851246736E+01  0.54939702005E+01  0.25000450746E+00 0.  0.
    1000022    2    1    0    0    0 -0.76851905956E+01  0.59906094165E+02 -0.12587594999E+02  0.62500001795E+02  0.10000020200E+02 0.  0.
    3000022    2    5    5    0    0  0.75793787428E+00  0.92224853051E-01 -0.12959133193E+00  0.81380207647E+00  0.25000932297E+00 0.  0.
        -13    1    4    4    0    0 -0.53893456781E+00 -0.23578410387E+01 -0.45139541723E+00  0.24626505344E+01  0.10500000000E+00 0. -1.
         13    1    4    4    0    0 -0.53751326242E+00 -0.29133040762E+01 -0.63372925637E+00  0.30313196661E+01  0.10500000000E+00 0.  1.
    3000001    1    5    5    0    0 -0.84431284699E+01  0.59813869312E+02 -0.12458003667E+02  0.61686199719E+02  0.10000000000E+01 0. -1.
        -13    1    6    6    0    0  0.25524372006E+00  0.39211618997E-01  0.10146180325E-01  0.27895313705E+00  0.10500000000E+00 0. -1.
         13    1    6    6    0    0  0.50269415421E+00  0.53013234054E-01 -0.13973751225E+00  0.53484893942E+00  0.10500000000E+00 0.  1.
</event>
<event>
11    0  0.3515428E-009  0.9118800E+02  0.7816531E-02  0.1126479E+00
         25   -1    0    0    0    0  0.00000000000E+00  0.00000000000E+00  0.99999998245E-14  0.12500000000E+03  0.12500000000E+03 0.  0.
    3000001    1    3    3    0    0  0.31547377784E+02  0.34058436447E+01  0.33479367003E+02  0.46137889320E+02  0.10000000000E+01 0. -1.
    1000022    2    1    0    0    0  0.42165611977E+02 -0.12568637394E+01  0.45019232466E+02  0.62500001812E+02  0.10000019735E+02 0.  0.
    3000022    2    3    3    0    0  0.10618234194E+02 -0.46627073841E+01  0.11539865463E+02  0.16362112492E+02  0.24998548567E+00 0.  0.
    1000022    2    1    0    0    0 -0.42165611977E+02  0.12568637394E+01 -0.45019232466E+02  0.62499998188E+02  0.99999970892E+01 0.  0.
    3000022    2    5    5    0    0 -0.30947242793E+02  0.38488218678E+01 -0.27902391952E+02  0.41846759137E+02  0.25001480472E+00 0.  0.
        -13    1    4    4    0    0  0.72506218127E+01 -0.31896936922E+01  0.79514935008E+01  0.11224212062E+02  0.10500000000E+00 0.  1.
         13    1    4    4    0    0  0.33676123811E+01 -0.14730136919E+01  0.35883719622E+01  0.51379004296E+01  0.10500000000E+00 0. -1.
    3000001    1    5    5    0    0 -0.11218369185E+02 -0.25919581284E+01 -0.17116840515E+02  0.20653239051E+02  0.10000000000E+01 0. -1.
        -13    1    6    6    0    0 -0.10570960770E+02  0.13664459888E+01 -0.95101162351E+01  0.14285157404E+02  0.10500000000E+00 0.  1.
         13    1    6    6    0    0 -0.20376282022E+02  0.24823758789E+01 -0.18392275717E+02  0.27561601733E+02  0.10500000000E+00 0. -1.
</event>
<event>
11    0  0.3515428E-009  0.9118800E+02  0.7816531E-02  0.1126479E+00
         25   -1    0    0    0    0  0.00000000000E+00  0.00000000000E+00  0.99999998245E-14  0.12500000000E+03  0.12500000000E+03 0.  0.
    3000001    1    3    3    0    0  0.27689038402E+02  0.34310805229E+02  0.28021981435E+02  0.52250795656E+02  0.10000000000E+01 0.  1.
    1000022    2    1    0    0    0  0.28994079003E+02  0.41950393701E+02  0.34724012472E+02  0.62499998775E+02  0.10000032791E+02 0.  0.
    3000022    2    3    3    0    0  0.13050406012E+01  0.76395884718E+01  0.67020310372E+01  0.10249203120E+02  0.25000314734E+00 0.  0.
    1000022    2    1    0    0    0 -0.28994079003E+02 -0.41950393701E+02 -0.34724012472E+02  0.62500001225E+02  0.10000048100E+02 0.  0.
    3000022    2    5    5    0    0  0.79512761676E+00 -0.13012876175E+01 -0.12989713514E+01  0.20187642138E+01  0.25000997733E+00 0.  0.
        -13    1    4    4    0    0  0.71758932380E+00  0.45689095536E+01  0.40157248452E+01  0.61259236021E+01  0.10500000000E+00 0. -1.
         13    1    4    4    0    0  0.58745127742E+00  0.30706789182E+01  0.26863061919E+01  0.41232795175E+01  0.10500000000E+00 0.  1.
    3000001    1    5    5    0    0 -0.29789206620E+02 -0.40649106084E+02 -0.33425041121E+02  0.60481237011E+02  0.10000000000E+01 0.  1.
        -13    1    6    6    0    0  0.37975219044E+00 -0.50147805968E+00 -0.51785116188E+00  0.82151493982E+00  0.10500000000E+00 0. -1.
         13    1    6    6    0    0  0.41537542632E+00 -0.79980955786E+00 -0.78112018953E+00  0.11972492740E+01  0.10500000000E+00 0.  1.
</event>
<event>
11    0  0.3515428E-009  0.9118800E+02  0.7816531E-02  0.1126479E+00
         25   -1    0    0    0    0  0.00000000000E+00  0.00000000000E+00  0.99999998245E-14  0.12500000000E+03  0.12500000000E+03 0.  0.
    3000001    1    3    3    0    0 -0.95002312018E+01 -0.21944222574E+02 -0.24384229488E+02  0.34167147159E+02  0.10000000000E+01 0.  1.
    1000022    2    1    0    0    0 -0.11958760616E+02 -0.34843598861E+02 -0.49489003349E+02  0.62499998126E+02  0.99999988086E+01 0.  0.
    3000022    2    3    3    0    0 -0.24585294143E+01 -0.12899376287E+02 -0.25104773861E+02  0.28332850967E+02  0.24999562758E+00 0.  0.
    1000022    2    1    0    0    0  0.11958760616E+02  0.34843598861E+02  0.49489003349E+02  0.62500001874E+02  0.10000022234E+02 0.  0.
    3000022    2    5    5    0    0  0.37612735630E+01  0.91720400751E+01  0.68623360204E+01  0.12059338793E+02  0.24999702567E+00 0.  0.
        -13    1    4    4    0    0 -0.91824540369E+00 -0.50270655101E+01 -0.98738072923E+01  0.11118347796E+02  0.10500000000E+00 0. -1.
         13    1    4    4    0    0 -0.15402840106E+01 -0.78723107770E+01 -0.15230966569E+02  0.17214503171E+02  0.10500000000E+00 0.  1.
    3000001    1    5    5    0    0  0.81974870530E+01  0.25671558786E+02  0.42626667329E+02  0.50440663081E+02  0.10000000000E+01 0.  1.
        -13    1    6    6    0    0  0.87592030047E+00  0.21599424844E+01  0.16287068095E+01  0.28453995818E+01  0.10500000000E+00 0. -1.
         13    1    6    6    0    0  0.28853532626E+01  0.70120975908E+01  0.52336292109E+01  0.92139392113E+01  0.10500000000E+00 0.  1.
</event>
<event>
11    0  0.3515428E-009  0.9118800E+02  0.7816531E-02  0.1126479E+00
         25   -1    0    0    0    0  0.00000000000E+00  0.00000000000E+00  0.99999998245E-14  0.12500000000E+03  0.12500000000E+03 0.  0.
    3000001    1    3    3    0    0  0.40957199576E+02  0.42866897312E+02 -0.13171554909E+02  0.60741690304E+02  0.10000000000E+01 0.  1.
    1000022    2    1    0    0    0  0.42430575434E+02  0.42531312341E+02 -0.14035092372E+02  0.62499999385E+02  0.99999922049E+01 0.  0.
    3000022    2    3    3    0    0  0.14733758583E+01 -0.33558497101E+00 -0.86353746330E+00  0.17583090811E+01  0.25000036261E+00 0.  0.
    1000022    2    1    0    0    0 -0.42430575434E+02 -0.42531312341E+02  0.14035092372E+02  0.62500000615E+02  0.99999998953E+01 0.  0.
    3000022    2    5    5    0    0 -0.29670677978E+02 -0.30275534124E+02  0.14415640680E+02  0.44775331371E+02  0.25001007735E+00 0.  0.
        -13    1    4    4    0    0  0.82285895792E+00 -0.20160364557E+00 -0.55694976149E+00  0.10192933490E+01  0.10500000000E+00 0. -1.
         13    1    4    4    0    0  0.65051690041E+00 -0.13398132544E+00 -0.30658770181E+00  0.73901573203E+00  0.10500000000E+00 0.  1.
    3000001    1    5    5    0    0 -0.12759897456E+02 -0.12255778217E+02 -0.38054830759E+00  0.17724669244E+02  0.10000000000E+01 0. -1.
        -13    1    6    6    0    0 -0.94195564257E+01 -0.95709890240E+01  0.46102683929E+01  0.14198502520E+02  0.10500000000E+00 0. -1.
         13    1    6    6    0    0 -0.20251121552E+02 -0.20704545100E+02  0.98053722867E+01  0.30576828851E+02  0.10500000000E+00 0.  1.
</event>
<event>
11    0  0.3515428E-009  0.9118800E+02  0.7816531E-02  0.1126479E+00
         25   -1    0    0    0    0  0.00000000000E+00  0.00000000000E+00  0.99999998245E-14  0.12500000000E+03  0.12500000000E+03 0.  0.
    3000001    1    3    3    0    0  0.13336038273E+02  0.16479050520E+02  0.10686956449E+02  0.23761735227E+02  0.10000000000E+01 0. -1.
    1000022    2    1    0    0    0  0.43243216441E+02  0.39539351328E+02  0.19310983281E+02  0.62499999375E+02  0.99999887471E+01 0.  0.
    3000022    2    3    3    0    0  0.29907178168E+02  0.23060300808E+02  0.86240268323E+01  0.38738264148E+02  0.24998205961E+00 0.  0.
    1000022    2    1    0    0    0 -0.43243216441E+02 -0.39539351328E+02 -0.19310983281E+02  0.62500000625E+02  0.99999965601E+01 0.  0.
    3000022    2    5    5    0    0 -0.29873857124E+01 -0.10863190551E+00 -0.27150437826E+00  0.30120581597E+01  0.25001088882E+00 0.  0.
        -13    1    4    4    0    0  0.14598883461E+02  0.11304348096E+02  0.42740765551E+01  0.18952425691E+02  0.10500000000E+00 0. -1.
         13    1    4    4    0    0  0.15308294708E+02  0.11755952712E+02  0.43499502772E+01  0.19785838457E+02  0.10500000000E+00 0. -1.
    3000001    1    5    5    0    0 -0.40255830729E+02 -0.39430719423E+02 -0.19039478903E+02  0.59487942465E+02  0.10000000000E+01 0. -1.
        -13    1    6    6    0    0 -0.14218078492E+01 -0.10985228661E+00 -0.16409973533E+00  0.14392910783E+01  0.10500000000E+00 0. -1.
         13    1    6    6    0    0 -0.15655778632E+01  0.12203811058E-02 -0.10740464293E+00  0.15727670814E+01  0.10500000000E+00 0.  1.
</event>
<event>
11    0  0.3515428E-009  0.9118800E+02  0.7816531E-02  0.1126479E+00
         25   -1    0    0    0    0  0.00000000000E+00  0.00000000000E+00  0.99999998245E-14  0.12500000000E+03  0.12500000000E+03 0.  0.
    3000001    1    3    3    0    0  0.77308095033E+01  0.10393616951E+02 -0.15378874234E+02  0.20132125114E+02  0.10000000000E+01 0.  1.
    1000022    2    1    0    0    0  0.32765792948E+02  0.21003256018E+02 -0.47869784582E+02  0.62499997359E+02  0.99999721521E+01 0.  0.
    3000022    2    3    3    0    0  0.25034983445E+02  0.10609639068E+02 -0.32490910348E+02  0.42367872245E+02  0.25001220059E+00 0.  0.
    1000022    2    1    0    0    0 -0.32765792948E+02 -0.21003256018E+02  0.47869784582E+02  0.62500002641E+02  0.10000005167E+02 0.  0.
    3000022    2    5    5    0    0 -0.67905057784E+01 -0.96854706070E+01  0.14281280912E+02  0.18545533142E+02  0.25001085601E+00 0.  0.
        -13    1    4    4    0    0  0.57545997028E+01  0.24349515102E+01 -0.74754181008E+01  0.97435777504E+01  0.10500000000E+00 0.  1.
         13    1    4    4    0    0  0.19280383742E+02  0.81746875573E+01 -0.25015492247E+02  0.32624294494E+02  0.10500000000E+00 0. -1.
    3000001    1    5    5    0    0 -0.25975287170E+02 -0.11317785411E+02  0.33588503669E+02  0.43954469499E+02  0.10000000000E+01 0. -1.
        -13    1    6    6    0    0 -0.24367452655E+01 -0.33838533666E+01  0.50689579941E+01  0.65645678641E+01  0.10500000000E+00 0.  1.
         13    1    6    6    0    0 -0.43537605129E+01 -0.63016172404E+01  0.92123229183E+01  0.11980965278E+02  0.10500000000E+00 0. -1.
</event>
<event>
11    0  0.3515428E-009  0.9118800E+02  0.7816531E-02  0.1126479E+00
         25   -1    0    0    0    0  0.00000000000E+00  0.00000000000E+00  0.99999998245E-14  0.12500000000E+03  0.12500000000E+03 0.  0.
    3000001    1    3    3    0    0 -0.33193247175E+01  0.50881853291E+01 -0.14559087797E+02  0.15807421802E+02  0.10000000000E+01 0. -1.
    1000022    2    1    0    0    0 -0.23042916980E+02  0.30304935684E+02 -0.48547758689E+02  0.62499999819E+02  0.99999976953E+01 0.  0.
    3000022    2    3    3    0    0 -0.19723592263E+02  0.25216750355E+02 -0.33988670892E+02  0.46692578018E+02  0.25000547390E+00 0.  0.
    1000022    2    1    0    0    0  0.23042916980E+02 -0.30304935684E+02  0.48547758689E+02  0.62500000181E+02  0.99999999518E+01 0.  0.
    3000022    2    5    5    0    0  0.12299973469E+02 -0.14393887926E+02  0.16435389305E+02  0.25073050752E+02  0.24999090036E+00 0.  0.
        -13    1    4    4    0    0 -0.79327098585E+01  0.10189791668E+02 -0.13792053300E+02  0.18894218670E+02  0.10500000000E+00 0. -1.
         13    1    4    4    0    0 -0.11790882404E+02  0.15026958687E+02 -0.20196617592E+02  0.27798359347E+02  0.10500000000E+00 0.  1.
    3000001    1    5    5    0    0  0.10742943511E+02 -0.15911047759E+02  0.32112369384E+02  0.37426949428E+02  0.10000000000E+01 0.  1.
        -13    1    6    6    0    0  0.81996873605E+01 -0.96267136973E+01  0.11041851223E+02  0.16788150370E+02  0.10500000000E+00 0.  1.
         13    1    6    6    0    0  0.41002861089E+01 -0.47671742283E+01  0.53935380826E+01  0.82849003824E+01  0.10500000000E+00 0. -1.
</event>
<event>
11    0  0.3515428E-009  0.9118800E+02  0.7816531E-02  0.1126479E+00
         25   -1    0    0    0    0  0.00000000000E+00  0.00000000000E+00  0.99999998245E-14  0.12500000000E+03  0.12500000000E+03 0.  0.
    3000001    1    3    3    0    0  0.26253766925E+01 -0.17882521760E+02  0.53494735693E+01  0.18875753090E+02  0.10000000000E+01 0. -1.
    1000022    2    1    0    0    0  0.12878569515E+02 -0.60239437360E+02  0.34062626159E+01  0.62499998768E+02  0.99999927372E+01 0.  0.
    3000022    2    3    3    0    0  0.10253192822E+02 -0.42356915601E+02 -0.19432109533E+01  0.43624245678E+02  0.24995973225E+00 0.  0.
    1000022    2    1    0    0    0 -0.12878569515E+02  0.60239437360E+02 -0.34062626159E+01  0.62500001232E+02  0.10000008138E+02 0.  0.
    3000022    2    5    5    0    0 -0.12089009761E+02  0.56699321694E+02 -0.90378066068E+00  0.57981346624E+02  0.24999844511E+00 0.  0.
        -13    1    4    4    0    0  0.56260627517E+01 -0.23421281963E+02 -0.10226257140E+01  0.24109454976E+02  0.10500000000E+00 0. -1.
         13    1    4    4    0    0  0.46271300707E+01 -0.18935633638E+02 -0.92058523936E+00  0.19514790702E+02  0.10500000000E+00 0.  1.
    3000001    1    5    5    0    0 -0.78955975371E+00  0.35401156661E+01 -0.25024819553E+01  0.45186546085E+01  0.10000000000E+01 0. -1.
        -13    1    6    6    0    0 -0.34283389260E+01  0.16225898572E+02 -0.28694479505E+00  0.16586942292E+02  0.10500000000E+00 0.  1.
         13    1    6    6    0    0 -0.86606708351E+01  0.40473423122E+02 -0.61683586563E+00  0.41394404332E+02  0.10500000000E+00 0. -1.
</event>
<event>
11    0  0.3515428E-009  0.9118800E+02  0.7816531E-02  0.1126479E+00
         25   -1    0    0    0    0  0.00000000000E+00  0.00000000000E+00  0.99999998245E-14  0.12500000000E+03  0.12500000000E+03 0.  0.
    3000001    1    3    3    0    0 -0.13842161512E+01 -0.31692729862E+01  0.11344075606E+02  0.11901613209E+02  0.10000000000E+01 0. -1.
    1000022    2    1    0    0    0  0.61258104109E+01 -0.18155974594E+01  0.61363083982E+02  0.62499998932E+02  0.99999921698E+01 0.  0.
    3000022    2    3    3    0    0  0.75100265621E+01  0.13536755268E+01  0.50019008376E+02  0.50598385723E+02  0.25000499219E+00 0.  0.
    1000022    2    1    0    0    0 -0.61258104109E+01  0.18155974594E+01 -0.61363083982E+02  0.62500001068E+02  0.10000005520E+02 0.  0.
    3000022    2    5    5    0    0 -0.36470786022E+01 -0.31200792110E+01 -0.43773817518E+02  0.44036867252E+02  0.25000128511E+00 0.  0.
        -13    1    4    4    0    0  0.40913667442E+01  0.73494205543E+00  0.26801337391E+02  0.27121986148E+02  0.10500000000E+00 0. -1.
         13    1    4    4    0    0  0.34186598179E+01  0.61873347140E+00  0.23217670985E+02  0.23476399575E+02  0.10500000000E+00 0.  1.
    3000001    1    5    5    0    0 -0.24787318087E+01  0.49356766704E+01 -0.17589266464E+02  0.18463133816E+02  0.10000000000E+01 0. -1.
        -13    1    6    6    0    0 -0.91563718089E+00 -0.81831401094E+00 -0.11104549849E+02  0.11172738322E+02  0.10500000000E+00 0. -1.
         13    1    6    6    0    0 -0.27314414213E+01 -0.23017652001E+01 -0.32669267669E+02  0.32864128930E+02  0.10500000000E+00 0.  1.
</event>
<event>
11    0  0.3515428E-009  0.9118800E+02  0.7816531E-02  0.1126479E+00
         25   -1    0    0    0    0  0.00000000000E+00  0.00000000000E+00  0.99999998245E-14  0.12500000000E+03  0.12500000000E+03 0.  0.
    3000001    1    3    3    0    0 -0.60395532468E+02  0.47642712484E+00 -0.41054862901E+01  0.60545043914E+02  0.10000000000E+01 0. -1.
    1000022    2    1    0    0    0 -0.61595028660E+02 -0.87226743539E+00 -0.33972640395E+01  0.62499998603E+02  0.10000000818E+02 0.  0.
    3000022    2    3    3    0    0 -0.11994961918E+01 -0.13486945602E+01  0.70822225060E+00  0.19549546889E+01  0.25000189693E+00 0.  0.
    1000022    2    1    0    0    0  0.61595028660E+02  0.87226743539E+00  0.33972640395E+01  0.62500001397E+02  0.10000018279E+02 0.  0.
    3000022    2    5    5    0    0  0.43480198702E+01 -0.36434464568E+00  0.28699237409E+01  0.52284786951E+01  0.25000674657E+00 0.  0.
        -13    1    4    4    0    0 -0.58490004681E+00 -0.64653519828E+00  0.27011706437E+00  0.91875135692E+00  0.10500000000E+00 0. -1.
         13    1    4    4    0    0 -0.61459614503E+00 -0.70215936195E+00  0.43810518624E+00  0.10362033320E+01  0.10500000000E+00 0.  1.
    3000001    1    5    5    0    0  0.57247008790E+02  0.12366120811E+01  0.52734029863E+00  0.57271522702E+02  0.10000000000E+01 0. -1.
        -13    1    6    6    0    0  0.22871951000E+01 -0.12414266322E+00  0.15129421511E+01  0.27471242744E+01  0.10500000000E+00 0. -1.
         13    1    6    6    0    0  0.20608247703E+01 -0.24020198246E+00  0.13569815898E+01  0.24813544207E+01  0.10500000000E+00 0.  1.
</event>
<event>
11    0  0.3515428E-009  0.9118800E+02  0.7816531E-02  0.1126479E+00
         25   -1    0    0    0    0  0.00000000000E+00  0.00000000000E+00  0.99999998245E-14  0.12500000000E+03  0.12500000000E+03 0.  0.
    3000001    1    3    3    0    0  0.26369455888E+02  0.11163184967E+01  0.15745185279E+02  0.30749068771E+02  0.10000000000E+01 0. -1.
    1000022    2    1    0    0    0  0.56877164485E+02 -0.24768438959E+01  0.23771899037E+02  0.62500002031E+02  0.10000023722E+02 0.  0.
    3000022    2    3    3    0    0  0.30507708597E+02 -0.35931623927E+01  0.80267137581E+01  0.31750933259E+02  0.25005853722E+00 0.  0.
    1000022    2    1    0    0    0 -0.56877164485E+02  0.24768438959E+01 -0.23771899037E+02  0.62499997969E+02  0.99999983395E+01 0.  0.
    3000022    2    5    5    0    0 -0.47129355631E+02  0.55952257225E+01 -0.20599093445E+02  0.51738456351E+02  0.25000355697E+00 0.  0.
        -13    1    4    4    0    0  0.23368863296E+02 -0.27414769000E+01  0.61564974552E+01  0.24321450476E+02  0.10500000000E+00 0.  1.
         13    1    4    4    0    0  0.71388453012E+01 -0.85168549271E+00  0.18702163030E+01  0.74294827837E+01  0.10500000000E+00 0. -1.
    3000001    1    5    5    0    0 -0.97478088540E+01 -0.31183818265E+01 -0.31728055920E+01  0.10761541618E+02  0.10000000000E+01 0.  1.
        -13    1    6    6    0    0 -0.23884534658E+02  0.28985425593E+01 -0.10471181282E+02  0.26239840076E+02  0.10500000000E+00 0. -1.
         13    1    6    6    0    0 -0.23244820973E+02  0.26966831632E+01 -0.10127912164E+02  0.25498616275E+02  0.10500000000E+00 0.  1.
</event>
<event>
11    0  0.3515428E-009  0.9118800E+02  0.7816531E-02  0.1126479E+00
         25   -1    0    0    0    0  0.00000000000E+00  0.00000000000E+00  0.99999998245E-14  0.12500000000E+03  0.12500000000E+03 0.  0.
    3000001    1    3    3    0    0 -0.38574514365E+02  0.28378958883E+02 -0.21671929980E+02  0.52574052677E+02  0.10000000000E+01 0. -1.
    1000022    2    1    0    0    0 -0.46836787294E+02  0.29725148730E+02 -0.26999644486E+02  0.62500000586E+02  0.10000007995E+02 0.  0.
    3000022    2    3    3    0    0 -0.82622729283E+01  0.13461898475E+01 -0.53277145057E+01  0.99259479095E+01  0.25003799869E+00 0.  0.
    1000022    2    1    0    0    0  0.46836787294E+02 -0.29725148730E+02  0.26999644486E+02  0.62499999414E+02  0.10000000663E+02 0.  0.
    3000022    2    5    5    0    0  0.30618731907E+02 -0.24755953454E+02  0.18915842836E+02  0.43683355947E+02  0.25000322817E+00 0.  0.
        -13    1    4    4    0    0 -0.47766076436E+01  0.81754227523E+00 -0.30219838858E+01  0.57120720897E+01  0.10500000000E+00 0. -1.
         13    1    4    4    0    0 -0.34856652847E+01  0.52864757226E+00 -0.23057306199E+01  0.42138758198E+01  0.10500000000E+00 0.  1.
    3000001    1    5    5    0    0  0.16218055387E+02 -0.49691952770E+01  0.80838016501E+01  0.18816643466E+02  0.10000000000E+01 0. -1.
        -13    1    6    6    0    0  0.21650048814E+02 -0.17536004738E+02  0.13344302591E+02  0.30892029918E+02  0.10500000000E+00 0. -1.
         13    1    6    6    0    0  0.89686830932E+01 -0.72199487154E+01  0.55715402447E+01  0.12791326029E+02  0.10500000000E+00 0.  1.
</event>
<event>
11    0  0.3515428E-009  0.9118800E+02  0.7816531E-02  0.1126479E+00
         25   -1    0    0    0    0  0.00000000000E+00  0.00000000000E+00  0.99999998245E-14  0.12500000000E+03  0.12500000000E+03 0.  0.
    3000001    1    3    3    0    0  0.18297862386E+01  0.41309327183E+00  0.39779365676E+00  0.21626380935E+01  0.10000000000E+01 0.  1.
    1000022    2    1    0    0    0  0.54607320158E+02 -0.26707645317E+02 -0.10535285227E+02  0.62500000134E+02  0.10000002436E+02 0.  0.
    3000022    2    3    3    0    0  0.52777533920E+02 -0.27120738589E+02 -0.10933078884E+02  0.60337362041E+02  0.24999179808E+00 0.  0.
    1000022    2    1    0    0    0 -0.54607320158E+02  0.26707645317E+02  0.10535285227E+02  0.62499999866E+02  0.10000000758E+02 0.  0.
    3000022    2    5    5    0    0 -0.24681599610E+02  0.11737597561E+02 -0.23937101981E+00  0.27332624397E+02  0.25000421499E+00 0.  0.
        -13    1    4    4    0    0  0.29424943815E+02 -0.15154734051E+02 -0.60384920619E+01  0.33644727582E+02  0.10500000000E+00 0.  1.
         13    1    4    4    0    0  0.23352590105E+02 -0.11966004538E+02 -0.48945868218E+01  0.26692634459E+02  0.10500000000E+00 0. -1.
    3000001    1    5    5    0    0 -0.29925720548E+02  0.14970047756E+02  0.10774656247E+02  0.35167375469E+02  0.10000000000E+01 0. -1.
        -13    1    6    6    0    0 -0.16677469359E+02  0.79856324178E+01 -0.17715347595E+00  0.18491909520E+02  0.10500000000E+00 0.  1.
         13    1    6    6    0    0 -0.80041302510E+01  0.37519651430E+01 -0.62217543858E-01  0.88407148767E+01  0.10500000000E+00 0. -1.
</event>
<event>
11    0  0.3515428E-009  0.9118800E+02  0.7816531E-02  0.1126479E+00
         25   -1    0    0    0    0  0.00000000000E+00  0.00000000000E+00  0.99999998245E-14  0.12500000000E+03  0.12500000000E+03 0.  0.
    3000001    1    3    3    0    0 -0.23874685732E+01 -0.10362449049E+02  0.19837415689E+02  0.22530055875E+02  0.10000000000E+01 0. -1.
    1000022    2    1    0    0    0 -0.18531688531E+02 -0.31027358823E+02  0.50001295252E+02  0.62500000308E+02  0.10000001812E+02 0.  0.
    3000022    2    3    3    0    0 -0.16144219957E+02 -0.20664909774E+02  0.30163879563E+02  0.39969944433E+02  0.24998741387E+00 0.  0.
    1000022    2    1    0    0    0  0.18531688531E+02  0.31027358823E+02 -0.50001295252E+02  0.62499999692E+02  0.99999979687E+01 0.  0.
    3000022    2    5    5    0    0  0.10917555171E+02  0.16214901630E+02 -0.18824181997E+02  0.27139056466E+02  0.25002452167E+00 0.  0.
        -13    1    4    4    0    0 -0.74567622116E+01 -0.95220421593E+01  0.14011740899E+02  0.18509794639E+02  0.10500000000E+00 0.  1.
         13    1    4    4    0    0 -0.86874577457E+01 -0.11142867615E+02  0.16152138664E+02  0.21460149794E+02  0.10500000000E+00 0. -1.
    3000001    1    5    5    0    0  0.76141333593E+01  0.14812457193E+02 -0.31177113255E+02  0.35360943226E+02  0.10000000000E+01 0.  1.
        -13    1    6    6    0    0  0.78890688283E+01  0.11784437507E+02 -0.13658787582E+02  0.19689689625E+02  0.10500000000E+00 0.  1.
         13    1    6    6    0    0  0.30284863429E+01  0.44304641227E+01 -0.51653944152E+01  0.74493668413E+01  0.10500000000E+00 0. -1.
</event>
<event>
11    0  0.3515428E-009  0.9118800E+02  0.7816531E-02  0.1126479E+00
         25   -1    0    0    0    0  0.00000000000E+00  0.00000000000E+00  0.99999998245E-14  0.12500000000E+03  0.12500000000E+03 0.  0.
    3000001    1    3    3    0    0  0.31929145480E+02 -0.41476996103E+01 -0.38329522163E+02  0.50068213593E+02  0.10000000000E+01 0. -1.
    1000022    2    1    0    0    0  0.41521553689E+02 -0.10903385890E+01 -0.45618224459E+02  0.62500005053E+02  0.99999984895E+01 0.  0.
    3000022    2    3    3    0    0  0.95924082092E+01  0.30573610213E+01 -0.72887022954E+01  0.12431791459E+02  0.25001214119E+00 0.  0.
    1000022    2    1    0    0    0 -0.41521553689E+02  0.10903385890E+01  0.45618224459E+02  0.62499994947E+02  0.99999353313E+01 0.  0.
    3000022    2    5    5    0    0 -0.74477353946E+01  0.15882681369E+01  0.37051654052E+01  0.84724321090E+01  0.24999396016E+00 0.  0.
        -13    1    4    4    0    0  0.41820252842E+01  0.13320790341E+01 -0.32591395906E+01  0.54677953420E+01  0.10500000000E+00 0.  1.
         13    1    4    4    0    0  0.54103829250E+01  0.17252819872E+01 -0.40295627048E+01  0.69639961174E+01  0.10500000000E+00 0. -1.
    3000001    1    5    5    0    0 -0.34073818295E+02 -0.49792954790E+00  0.41913059054E+02  0.54027562838E+02  0.10000000000E+01 0.  1.
        -13    1    6    6    0    0 -0.46380262215E+01  0.95588234450E+00  0.23604092243E+01  0.52922164538E+01  0.10500000000E+00 0.  1.
         13    1    6    6    0    0 -0.28097091731E+01  0.63238579241E+00  0.13447561809E+01  0.31802156552E+01  0.10500000000E+00 0. -1.
</event>
<event>
11    0  0.3515428E-009  0.9118800E+02  0.7816531E-02  0.1126479E+00
         25   -1    0    0    0    0  0.00000000000E+00  0.00000000000E+00  0.99999998245E-14  0.12500000000E+03  0.12500000000E+03 0.  0.
    3000001    1    3    3    0    0 -0.15804259758E+02 -0.28685147384E+01 -0.15848428326E+02  0.22587068949E+02  0.10000000000E+01 0. -1.
    1000022    2    1    0    0    0 -0.35959259007E+02 -0.18076131407E+02 -0.46759333301E+02  0.62500001016E+02  0.10000002066E+02 0.  0.
    3000022    2    3    3    0    0 -0.20154999249E+02 -0.15207616669E+02 -0.30910904975E+02  0.39912932067E+02  0.25000075575E+00 0.  0.
    1000022    2    1    0    0    0  0.35959259007E+02  0.18076131407E+02  0.46759333301E+02  0.62499998984E+02  0.99999893613E+01 0.  0.
    3000022    2    5    5    0    0  0.40898932433E+01  0.60481242804E+01  0.67734076821E+01  0.99623584083E+01  0.24999875256E+00 0.  0.
        -13    1    4    4    0    0 -0.10844136176E+02 -0.80983323160E+01 -0.16560505942E+02  0.21387839016E+02  0.10500000000E+00 0. -1.
         13    1    4    4    0    0 -0.93108630727E+01 -0.71092843526E+01 -0.14350399033E+02  0.18525093051E+02  0.10500000000E+00 0.  1.
    3000001    1    5    5    0    0  0.31869365764E+02  0.12028007127E+02  0.39985925619E+02  0.52537640575E+02  0.10000000000E+01 0.  1.
        -13    1    6    6    0    0  0.17591569328E+01  0.24861615367E+01  0.28245392432E+01  0.41550787281E+01  0.10500000000E+00 0.  1.
         13    1    6    6    0    0  0.23307363105E+01  0.35619627437E+01  0.39488684390E+01  0.58072796802E+01  0.10500000000E+00 0. -1.
</event>
<event>
11    0  0.3515428E-009  0.9118800E+02  0.7816531E-02  0.1126479E+00
         25   -1    0    0    0    0  0.00000000000E+00  0.00000000000E+00  0.99999998245E-14  0.12500000000E+03  0.12500000000E+03 0.  0.
    3000001    1    3    3    0    0 -0.39804404693E+02 -0.49858292273E+01  0.16894918343E+02  0.43539492325E+02  0.10000000000E+01 0.  1.
    1000022    2    1    0    0    0 -0.56546458235E+02 -0.65219825611E+00  0.24664196453E+02  0.62500001187E+02  0.10000013011E+02 0.  0.
    3000022    2    3    3    0    0 -0.16742053541E+02  0.43336309712E+01  0.77692781104E+01  0.18960508862E+02  0.24999956800E+00 0.  0.
    1000022    2    1    0    0    0  0.56546458235E+02  0.65219825611E+00 -0.24664196453E+02  0.62499998813E+02  0.99999981768E+01 0.  0.
    3000022    2    5    5    0    0  0.34594586907E+02 -0.33130890802E+01 -0.18319889625E+02  0.39286675321E+02  0.24999873304E+00 0.  0.
        -13    1    4    4    0    0 -0.48921063045E+01  0.12481777840E+01  0.23121876656E+01  0.55540875647E+01  0.10500000000E+00 0.  1.
         13    1    4    4    0    0 -0.11849947237E+02  0.30854531873E+01  0.54570904448E+01  0.13406421297E+02  0.10500000000E+00 0. -1.
    3000001    1    5    5    0    0  0.21951871327E+02  0.39652873363E+01 -0.63443068286E+01  0.23213323493E+02  0.10000000000E+01 0. -1.
        -13    1    6    6    0    0  0.16373384382E+02 -0.16178709766E+01 -0.86214376018E+01  0.18575398621E+02  0.10500000000E+00 0. -1.
         13    1    6    6    0    0  0.18221202526E+02 -0.16952181036E+01 -0.96984520229E+01  0.20711276700E+02  0.10500000000E+00 0.  1.
</event>
<event>
11    0  0.3515428E-009  0.9118800E+02  0.7816531E-02  0.1126479E+00
         25   -1    0    0    0    0  0.00000000000E+00  0.00000000000E+00  0.99999998245E-14  0.12500000000E+03  0.12500000000E+03 0.  0.
    3000001    1    3    3    0    0 -0.86036639619E+01  0.21325502757E+02 -0.52448976621E+02  0.57277353727E+02  0.10000000000E+01 0. -1.
    1000022    2    1    0    0    0 -0.64264014028E+01  0.23095127727E+02 -0.56846869713E+02  0.62499998520E+02  0.99999829585E+01 0.  0.
    3000022    2    3    3    0    0  0.21772625591E+01  0.17696249699E+01 -0.43978930918E+01  0.52226447929E+01  0.25002040088E+00 0.  0.
    1000022    2    1    0    0    0  0.64264014028E+01 -0.23095127727E+02  0.56846869713E+02  0.62500001480E+02  0.10000001456E+02 0.  0.
    3000022    2    5    5    0    0  0.43482487271E+01 -0.10185578130E+02  0.37691687981E+02  0.39285864052E+02  0.25000527260E+00 0.  0.
        -13    1    4    4    0    0  0.14613034568E+01  0.11923043688E+01 -0.30475333677E+01  0.35854542429E+01  0.10500000000E+00 0. -1.
         13    1    4    4    0    0  0.71595910226E+00  0.57732060110E+00 -0.13503597241E+01  0.16371905500E+01  0.10500000000E+00 0.  1.
    3000001    1    5    5    0    0  0.20781526757E+01 -0.12909549597E+02  0.19155181732E+02  0.23214137428E+02  0.10000000000E+01 0. -1.
        -13    1    6    6    0    0  0.30373206821E+01 -0.71793499661E+01  0.26657264983E+02  0.27773893934E+02  0.10500000000E+00 0. -1.
         13    1    6    6    0    0  0.13109280451E+01 -0.30062281643E+01  0.11034422998E+02  0.11511970119E+02  0.10500000000E+00 0.  1.
</event>
<event>
11    0  0.3515428E-009  0.9118800E+02  0.7816531E-02  0.1126479E+00
         25   -1    0    0    0    0  0.00000000000E+00  0.00000000000E+00  0.99999998245E-14  0.12500000000E+03  0.12500000000E+03 0.  0.
    3000001    1    3    3    0    0  0.27668405912E+02  0.24493360317E+02 -0.18792227743E+02  0.41468219264E+02  0.10000000000E+01 0.  1.
    1000022    2    1    0    0    0  0.44834738882E+02  0.30657945937E+02 -0.29260664098E+02  0.62499999117E+02  0.99999983249E+01 0.  0.
    3000022    2    3    3    0    0  0.17166332969E+02  0.61645856197E+01 -0.10468436355E+02  0.21031779853E+02  0.25000119408E+00 0.  0.
    1000022    2    1    0    0    0 -0.44834738882E+02 -0.30657945937E+02  0.29260664098E+02  0.62500000883E+02  0.10000009363E+02 0.  0.
    3000022    2    5    5    0    0 -0.28996612089E+02 -0.14659244210E+02  0.19874930121E+02  0.38089005009E+02  0.25000370966E+00 0.  0.
        -13    1    4    4    0    0  0.42243803683E+01  0.15222575727E+01 -0.25506028951E+01  0.51651967767E+01  0.10500000000E+00 0.  1.
         13    1    4    4    0    0  0.12941952601E+02  0.46423280470E+01 -0.79178334602E+01  0.15866583077E+02  0.10500000000E+00 0. -1.
    3000001    1    5    5    0    0 -0.15838126793E+02 -0.15998701727E+02  0.93857339776E+01  0.24410995874E+02  0.10000000000E+01 0. -1.
        -13    1    6    6    0    0 -0.81340497862E+01 -0.40680119730E+01  0.55685547674E+01  0.10664488480E+02  0.10500000000E+00 0.  1.
         13    1    6    6    0    0 -0.20862562303E+02 -0.10591232237E+02  0.14306375353E+02  0.27424516529E+02  0.10500000000E+00 0. -1.
</event>
<event>
11    0  0.3515428E-009  0.9118800E+02  0.7816531E-02  0.1126479E+00
         25   -1    0    0    0    0  0.00000000000E+00  0.00000000000E+00  0.99999998245E-14  0.12500000000E+03  0.12500000000E+03 0.  0.
    3000001    1    3    3    0    0  0.28617888830E+02 -0.21467885168E+02 -0.44434412467E+02  0.57054979327E+02  0.10000000000E+01 0.  1.
    1000022    2    1    0    0    0  0.30182695268E+02 -0.25907273182E+02 -0.47160026491E+02  0.62500000655E+02  0.10000004290E+02 0.  0.
    3000022    2    3    3    0    0  0.15648064380E+01 -0.44393880139E+01 -0.27256140246E+01  0.54450213282E+01  0.25000065399E+00 0.  0.
    1000022    2    1    0    0    0 -0.30182695268E+02  0.25907273182E+02  0.47160026491E+02  0.62499999345E+02  0.99999961062E+01 0.  0.
    3000022    2    5    5    0    0 -0.18712716616E+02  0.20754006961E+02  0.36600452107E+02  0.46049431750E+02  0.25000396376E+00 0.  0.
        -13    1    4    4    0    0  0.11645389006E+01 -0.32244030947E+01 -0.19537388369E+01  0.39472834470E+01  0.10500000000E+00 0.  1.
         13    1    4    4    0    0  0.40026753738E+00 -0.12149849192E+01 -0.77187518765E+00  0.14977378812E+01  0.10500000000E+00 0. -1.
    3000001    1    5    5    0    0 -0.11469978652E+02  0.51532662215E+01  0.10559574384E+02  0.16450567595E+02  0.10000000000E+01 0. -1.
        -13    1    6    6    0    0 -0.64667127507E+01  0.71096945226E+01  0.12527961936E+02  0.15790091364E+02  0.10500000000E+00 0.  1.
         13    1    6    6    0    0 -0.12246003865E+02  0.13644312438E+02  0.24072490171E+02  0.30259340386E+02  0.10500000000E+00 0. -1.
</event>
<event>
11    0  0.3515428E-009  0.9118800E+02  0.7816531E-02  0.1126479E+00
         25   -1    0    0    0    0  0.00000000000E+00  0.00000000000E+00  0.99999998245E-14  0.12500000000E+03  0.12500000000E+03 0.  0.
    3000001    1    3    3    0    0  0.10584172210E+02  0.82084789299E+01  0.22756723725E+02  0.26424842524E+02  0.10000000000E+01 0.  1.
    1000022    2    1    0    0    0  0.22825183842E+02  0.29677938840E+02  0.49035507258E+02  0.62500000699E+02  0.10000002210E+02 0.  0.
    3000022    2    3    3    0    0  0.12241011632E+02  0.21469459910E+02  0.26278783533E+02  0.36075158175E+02  0.24999766322E+00 0.  0.
    1000022    2    1    0    0    0 -0.22825183842E+02 -0.29677938840E+02 -0.49035507258E+02  0.62499999301E+02  0.99999934688E+01 0.  0.
    3000022    2    5    5    0    0 -0.14561219402E+02 -0.25550924817E+02 -0.38607666382E+02  0.48533424261E+02  0.24999513927E+00 0.  0.
        -13    1    4    4    0    0  0.45835170018E+01  0.79571077842E+01  0.98285096096E+01  0.13451201379E+02  0.10500000000E+00 0. -1.
         13    1    4    4    0    0  0.76574946302E+01  0.13512352126E+02  0.16450273923E+02  0.22623956796E+02  0.10500000000E+00 0.  1.
    3000001    1    5    5    0    0 -0.82639644397E+01 -0.41270140225E+01 -0.10427840876E+02  0.13966575040E+02  0.10000000000E+01 0. -1.
        -13    1    6    6    0    0 -0.76909458924E+01 -0.13508575797E+02 -0.20517426869E+02  0.25741175169E+02  0.10500000000E+00 0.  1.
         13    1    6    6    0    0 -0.68702735100E+01 -0.12042349020E+02 -0.18090239513E+02  0.22792249092E+02  0.10500000000E+00 0. -1.
</event>
<event>
11    0  0.3515428E-009  0.9118800E+02  0.7816531E-02  0.1126479E+00
         25   -1    0    0    0    0  0.00000000000E+00  0.00000000000E+00  0.99999998245E-14  0.12500000000E+03  0.12500000000E+03 0.  0.
    3000001    1    3    3    0    0 -0.15240652528E+02  0.13380568227E+02  0.21015752118E+02  0.29222917935E+02  0.10000000000E+01 0. -1.
    1000022    2    1    0    0    0 -0.29289701578E+02  0.37112620678E+02  0.39636053111E+02  0.62500000178E+02  0.10000004194E+02 0.  0.
    3000022    2    3    3    0    0 -0.14049049051E+02  0.23732052451E+02  0.18620300992E+02  0.33277082243E+02  0.25000151901E+00 0.  0.
    1000022    2    1    0    0    0  0.29289701578E+02 -0.37112620678E+02 -0.39636053111E+02  0.62499999822E+02  0.10000001971E+02 0.  0.
    3000022    2    5    5    0    0  0.16800236163E+02 -0.13752689873E+02 -0.15822200822E+02  0.26866130058E+02  0.24998307502E+00 0.  0.
        -13    1    4    4    0    0 -0.79020761002E+01  0.13455735719E+02  0.10491318341E+02  0.18803680915E+02  0.10500000000E+00 0.  1.
         13    1    4    4    0    0 -0.61469729503E+01  0.10276316733E+02  0.81289826511E+01  0.14473401327E+02  0.10500000000E+00 0. -1.
    3000001    1    5    5    0    0  0.12489465416E+02 -0.23359930805E+02 -0.23813852288E+02  0.35633869764E+02  0.10000000000E+01 0.  1.
        -13    1    6    6    0    0  0.88964581259E+01 -0.72965332635E+01 -0.84672137810E+01  0.14286045606E+02  0.10500000000E+00 0.  1.
         13    1    6    6    0    0  0.79037780369E+01 -0.64561566100E+01 -0.73549870413E+01  0.12580084451E+02  0.10500000000E+00 0. -1.
</event>
<event>
11    0  0.3515428E-009  0.9118800E+02  0.7816531E-02  0.1126479E+00
         25   -1    0    0    0    0  0.00000000000E+00  0.00000000000E+00  0.99999998245E-14  0.12500000000E+03  0.12500000000E+03 0.  0.
    3000001    1    3    3    0    0 -0.48124145733E+01  0.33573471330E+02 -0.37301928782E+02  0.50425898127E+02  0.10000000000E+01 0. -1.
    1000022    2    1    0    0    0 -0.11430603930E+01  0.41094470890E+02 -0.46002037906E+02  0.62500002350E+02  0.10000033872E+02 0.  0.
    3000022    2    3    3    0    0  0.36693541803E+01  0.75209995610E+01 -0.87001091240E+01  0.12074104222E+02  0.24999901294E+00 0.  0.
    1000022    2    1    0    0    0  0.11430603930E+01 -0.41094470890E+02  0.46002037906E+02  0.62499997650E+02  0.10000004499E+02 0.  0.
    3000022    2    5    5    0    0  0.49894524451E+01 -0.31218191887E+02  0.35678106716E+02  0.47670325571E+02  0.25000158984E+00 0.  0.
        -13    1    4    4    0    0  0.22153669076E+01  0.45491636973E+01 -0.51695939959E+01  0.72345330162E+01  0.10500000000E+00 0.  1.
         13    1    4    4    0    0  0.14539872727E+01  0.29718358637E+01 -0.35305151281E+01  0.48395712062E+01  0.10500000000E+00 0. -1.
    3000001    1    5    5    0    0 -0.38463920521E+01 -0.98762790030E+01  0.10323931189E+02  0.14829672079E+02  0.10000000000E+01 0. -1.
        -13    1    6    6    0    0  0.27478092663E+01 -0.16816313698E+02  0.19182192457E+02  0.25657482235E+02  0.10500000000E+00 0.  1.
         13    1    6    6    0    0  0.22416431788E+01 -0.14401878190E+02  0.16495914259E+02  0.22012843337E+02  0.10500000000E+00 0. -1.
</event>
<event>
11    0  0.3515428E-009  0.9118800E+02  0.7816531E-02  0.1126479E+00
         25   -1    0    0    0    0  0.00000000000E+00  0.00000000000E+00  0.99999998245E-14  0.12500000000E+03  0.12500000000E+03 0.  0.
    3000001    1    3    3    0    0  0.37628682313E+01 -0.37558799596E+01 -0.48256945243E+01  0.72493544015E+01  0.10000000000E+01 0.  1.
    1000022    2    1    0    0    0  0.34779959528E+02 -0.46972810410E+02 -0.19752445825E+02  0.62499996317E+02  0.99999960437E+01 0.  0.
    3000022    2    3    3    0    0  0.31017091297E+02 -0.43216930450E+02 -0.14926751301E+02  0.55250641915E+02  0.24999505844E+00 0.  0.
    1000022    2    1    0    0    0 -0.34779959528E+02  0.46972810410E+02  0.19752445825E+02  0.62500003683E+02  0.10000042087E+02 0.  0.
    3000022    2    5    5    0    0 -0.17073690260E+02  0.25314172986E+02  0.52831273887E+01  0.30988581588E+02  0.25000152645E+00 0.  0.
        -13    1    4    4    0    0  0.22524454297E+02 -0.31323466676E+02 -0.10840024713E+02  0.40075276253E+02  0.10500000000E+00 0.  1.
         13    1    4    4    0    0  0.84926370003E+01 -0.11893463774E+02 -0.40867265880E+01  0.15175365662E+02  0.10500000000E+00 0. -1.
    3000001    1    5    5    0    0 -0.17706269268E+02  0.21658637424E+02  0.14469318436E+02  0.31511422095E+02  0.10000000000E+01 0. -1.
        -13    1    6    6    0    0 -0.51162160394E+01  0.76641828749E+01  0.16091766559E+01  0.93549901236E+01  0.10500000000E+00 0.  1.
         13    1    6    6    0    0 -0.11957474221E+02  0.17649990111E+02  0.36739507328E+01  0.21633591464E+02  0.10500000000E+00 0. -1.
</event>
<event>
11    0  0.3515428E-009  0.9118800E+02  0.7816531E-02  0.1126479E+00
         25   -1    0    0    0    0  0.00000000000E+00  0.00000000000E+00  0.99999998245E-14  0.12500000000E+03  0.12500000000E+03 0.  0.
    3000001    1    3    3    0    0 -0.39615833341E+01 -0.48928708924E+01 -0.15071412642E+01  0.65502521228E+01  0.10000000000E+01 0. -1.
    1000022    2    1    0    0    0 -0.17092743835E+02 -0.49443618208E+02 -0.32701938320E+02  0.62500000360E+02  0.10000000086E+02 0.  0.
    3000022    2    3    3    0    0 -0.13131160501E+02 -0.44550747316E+02 -0.31194797056E+02  0.55949748237E+02  0.25000378876E+00 0.  0.
    1000022    2    1    0    0    0  0.17092743835E+02  0.49443618208E+02  0.32701938320E+02  0.62499999640E+02  0.99999955892E+01 0.  0.
    3000022    2    5    5    0    0  0.45979209677E+01  0.48941913302E+01  0.21904561615E+01  0.70678557418E+01  0.25000117755E+00 0.  0.
        -13    1    4    4    0    0 -0.98995414351E+01 -0.33664143784E+02 -0.23559646680E+02  0.42265156737E+02  0.10500000000E+00 0. -1.
         13    1    4    4    0    0 -0.32316190661E+01 -0.10886603532E+02 -0.76351503758E+01  0.13684591500E+02  0.10500000000E+00 0.  1.
    3000001    1    5    5    0    0  0.12494822868E+02  0.44549426878E+02  0.30511482159E+02  0.55432143898E+02  0.10000000000E+01 0. -1.
        -13    1    6    6    0    0  0.25174692534E+01  0.26101163937E+01  0.11329809640E+01  0.38006617707E+01  0.10500000000E+00 0.  1.
         13    1    6    6    0    0  0.20804517143E+01  0.22840749365E+01  0.10574751975E+01  0.32671939711E+01  0.10500000000E+00 0. -1.
</event>
<event>
11    0  0.3515428E-009  0.9118800E+02  0.7816531E-02  0.1126479E+00
         25   -1    0    0    0    0  0.00000000000E+00  0.00000000000E+00  0.99999998245E-14  0.12500000000E+03  0.12500000000E+03 0.  0.
    3000001    1    3    3    0    0 -0.53105884854E+00 -0.43702248713E+02 -0.10233999459E+02  0.44898811911E+02  0.10000000000E+01 0.  1.
    1000022    2    1    0    0    0 -0.59295979506E+01 -0.60441577760E+02 -0.10858422756E+02  0.62499998320E+02  0.99999995631E+01 0.  0.
    3000022    2    3    3    0    0 -0.53985391021E+01 -0.16739329047E+02 -0.62442329713E+00  0.17601186410E+02  0.24999434641E+00 0.  0.
    1000022    2    1    0    0    0  0.59295979506E+01  0.60441577760E+02  0.10858422756E+02  0.62500001680E+02  0.10000020561E+02 0.  0.
    3000022    2    5    5    0    0 -0.34669376030E+00  0.16344961704E+02  0.69837519920E+01  0.17779576159E+02  0.25013363157E+00 0.  0.
        -13    1    4    4    0    0 -0.18663709824E+01 -0.58085357336E+01 -0.16098736186E+00  0.61040453752E+01  0.10500000000E+00 0. -1.
         13    1    4    4    0    0 -0.35321681197E+01 -0.10930793314E+02 -0.46343593527E+00  0.11497141034E+02  0.10500000000E+00 0.  1.
    3000001    1    5    5    0    0  0.62762917109E+01  0.44096616056E+02  0.38746707645E+01  0.44720425521E+02  0.10000000000E+01 0.  1.
        -13    1    6    6    0    0 -0.18280117866E+00  0.10773718367E+02  0.46360516506E+01  0.11730746934E+02  0.10500000000E+00 0. -1.
         13    1    6    6    0    0 -0.16389258164E+00  0.55712433370E+01  0.23477003414E+01  0.60488292248E+01  0.10500000000E+00 0.  1.
</event>
<event>
11    0  0.3515428E-009  0.9118800E+02  0.7816531E-02  0.1126479E+00
         25   -1    0    0    0    0  0.00000000000E+00  0.00000000000E+00  0.99999998245E-14  0.12500000000E+03  0.12500000000E+03 0.  0.
    3000001    1    3    3    0    0  0.57130200004E+01  0.88632866533E+00  0.65818527009E+01  0.88173103044E+01  0.10000000000E+01 0.  1.
    1000022    2    1    0    0    0  0.38677886153E+02  0.28590757959E+02  0.38637284888E+02  0.62499998738E+02  0.99999870374E+01 0.  0.
    3000022    2    3    3    0    0  0.32964866153E+02  0.27704429294E+02  0.32055432187E+02  0.53682688433E+02  0.25000352976E+00 0.  0.
    1000022    2    1    0    0    0 -0.38677886153E+02 -0.28590757959E+02 -0.38637284888E+02  0.62500001262E+02  0.10000002815E+02 0.  0.
    3000022    2    5    5    0    0 -0.37118140805E+02 -0.28360506593E+02 -0.34861215782E+02  0.58287576884E+02  0.25008442252E+00 0.  0.
        -13    1    4    4    0    0  0.15841120267E+02  0.13400910026E+02  0.15456933904E+02  0.25873795847E+02  0.10500000000E+00 0. -1.
         13    1    4    4    0    0  0.17123745885E+02  0.14303519268E+02  0.16598498284E+02  0.27808892586E+02  0.10500000000E+00 0.  1.
    3000001    1    5    5    0    0 -0.15597453484E+01 -0.23025136572E+00 -0.37760691067E+01  0.42124243782E+01  0.10000000000E+01 0. -1.
        -13    1    6    6    0    0 -0.17889036900E+02 -0.13583128109E+02 -0.16765925273E+02  0.28029025771E+02  0.10500000000E+00 0.  1.
         13    1    6    6    0    0 -0.19229103905E+02 -0.14777378484E+02 -0.18095290508E+02  0.30258551113E+02  0.10500000000E+00 0. -1.
</event>
<event>
11    0  0.3515428E-009  0.9118800E+02  0.7816531E-02  0.1126479E+00
         25   -1    0    0    0    0  0.00000000000E+00  0.00000000000E+00  0.99999998245E-14  0.12500000000E+03  0.12500000000E+03 0.  0.
    3000001    1    3    3    0    0  0.16501966412E+01 -0.20879776898E+02  0.15314234665E+02  0.25965631431E+02  0.10000000000E+01 0. -1.
    1000022    2    1    0    0    0 -0.76475243170E+01 -0.49921664522E+02  0.35434341085E+02  0.62499999352E+02  0.10000008706E+02 0.  0.
    3000022    2    3    3    0    0 -0.92977209581E+01 -0.29041887624E+02  0.20120106420E+02  0.36534367921E+02  0.25001050333E+00 0.  0.
    1000022    2    1    0    0    0  0.76475243170E+01  0.49921664522E+02 -0.35434341085E+02  0.62500000648E+02  0.10000016805E+02 0.  0.
    3000022    2    5    5    0    0 -0.21253398705E+01  0.15474023808E+02 -0.11934779119E+02  0.19658686036E+02  0.25000327866E+00 0.  0.
        -13    1    4    4    0    0 -0.34973762656E+01 -0.11121381307E+02  0.76790764484E+01  0.13960515858E+02  0.10500000000E+00 0. -1.
         13    1    4    4    0    0 -0.58003446925E+01 -0.17920506317E+02  0.12441029972E+02  0.22573852063E+02  0.10500000000E+00 0.  1.
    3000001    1    5    5    0    0  0.97728641875E+01  0.34447640713E+02 -0.23499561965E+02  0.42841314612E+02  0.10000000000E+01 0. -1.
        -13    1    6    6    0    0 -0.62329696953E+00  0.44166651737E+01 -0.34568612423E+01  0.56441425405E+01  0.10500000000E+00 0.  1.
         13    1    6    6    0    0 -0.15020429010E+01  0.11057358635E+02 -0.84779178772E+01  0.14014543495E+02  0.10500000000E+00 0. -1.
</event>
<event>
11    0  0.3515428E-009  0.9118800E+02  0.7816531E-02  0.1126479E+00
         25   -1    0    0    0    0  0.00000000000E+00  0.00000000000E+00  0.99999998245E-14  0.12500000000E+03  0.12500000000E+03 0.  0.
    3000001    1    3    3    0    0 -0.37572587963E+02 -0.12686848610E+02  0.74619812717E+01  0.40365042529E+02  0.10000000000E+01 0.  1.
    1000022    2    1    0    0    0 -0.57552096953E+02 -0.21755375581E+02  0.45508073018E+01  0.62500000236E+02  0.99999976037E+01 0.  0.
    3000022    2    3    3    0    0 -0.19979508990E+02 -0.90685269710E+01 -0.29111739698E+01  0.22134957707E+02  0.24991579074E+00 0.  0.
    1000022    2    1    0    0    0  0.57552096953E+02  0.21755375581E+02 -0.45508073018E+01  0.62499999764E+02  0.99999946511E+01 0.  0.
    3000022    2    5    5    0    0  0.11114230120E+01 -0.18982722776E+00  0.11962286712E+01  0.16627576855E+01  0.25000919711E+00 0.  0.
        -13    1    4    4    0    0 -0.12962679036E+02 -0.58248759699E+01 -0.19047103552E+01  0.14338729874E+02  0.10500000000E+00 0. -1.
         13    1    4    4    0    0 -0.70168299540E+01 -0.32436510011E+01 -0.10064636146E+01  0.77962278333E+01  0.10500000000E+00 0.  1.
    3000001    1    5    5    0    0  0.56440673941E+02  0.21945202809E+02 -0.57470359730E+01  0.60837242078E+02  0.10000000000E+01 0. -1.
        -13    1    6    6    0    0  0.73726295000E+00 -0.17772278058E+00  0.81594954955E+00  0.11189015647E+01  0.10500000000E+00 0. -1.
         13    1    6    6    0    0  0.37416006205E+00 -0.12104447183E-01  0.38027912166E+00  0.54385612072E+00  0.10500000000E+00 0.  1.
</event>
<event>
11    0  0.3515428E-009  0.9118800E+02  0.7816531E-02  0.1126479E+00
         25   -1    0    0    0    0  0.00000000000E+00  0.00000000000E+00  0.99999998245E-14  0.12500000000E+03  0.12500000000E+03 0.  0.
    3000001    1    3    3    0    0 -0.15200327056E+02  0.18418538643E+01 -0.23499820805E+02  0.28065707655E+02  0.10000000000E+01 0. -1.
    1000022    2    1    0    0    0 -0.38414268469E+02  0.12292843814E+02 -0.46684898576E+02  0.62500001609E+02  0.10000020749E+02 0.  0.
    3000022    2    3    3    0    0 -0.23213941413E+02  0.10450989950E+02 -0.23185077770E+02  0.34434293954E+02  0.25000406379E+00 0.  0.
    1000022    2    1    0    0    0  0.38414268469E+02 -0.12292843814E+02  0.46684898576E+02  0.62499998391E+02  0.10000000642E+02 0.  0.
    3000022    2    5    5    0    0  0.12226101269E+02 -0.43205214803E+01  0.85037060607E+01  0.15508706788E+02  0.25002272082E+00 0.  0.
        -13    1    4    4    0    0 -0.88533713935E+01  0.40316797679E+01 -0.87995432322E+01  0.13117911910E+02  0.10500000000E+00 0. -1.
         13    1    4    4    0    0 -0.14360570019E+02  0.64193101818E+01 -0.14385534538E+02  0.21316382044E+02  0.10500000000E+00 0.  1.
    3000001    1    5    5    0    0  0.26188167200E+02 -0.79723223337E+01  0.38181192515E+02  0.46991291603E+02  0.10000000000E+01 0. -1.
        -13    1    6    6    0    0  0.77495519907E+01 -0.27752795763E+01  0.53407237979E+01  0.98128532277E+01  0.10500000000E+00 0. -1.
         13    1    6    6    0    0  0.44765492786E+01 -0.15452419040E+01  0.31629822628E+01  0.56958535603E+01  0.10500000000E+00 0.  1.
</event>
<event>
11    0  0.3515428E-009  0.9118800E+02  0.7816531E-02  0.1126479E+00
         25   -1    0    0    0    0  0.00000000000E+00  0.00000000000E+00  0.99999998245E-14  0.12500000000E+03  0.12500000000E+03 0.  0.
    3000001    1    3    3    0    0  0.15647365596E+02 -0.13591514170E+02 -0.63318244239E+01  0.21694729960E+02  0.10000000000E+01 0. -1.
    1000022    2    1    0    0    0  0.52158081981E+02 -0.31507716882E+02 -0.96461384158E+01  0.62499998124E+02  0.10000002008E+02 0.  0.
    3000022    2    3    3    0    0  0.36510716385E+02 -0.17916202712E+02 -0.33143139918E+01  0.40805268164E+02  0.25000424035E+00 0.  0.
    1000022    2    1    0    0    0 -0.52158081981E+02  0.31507716882E+02  0.96461384158E+01  0.62500001876E+02  0.10000025454E+02 0.  0.
    3000022    2    5    5    0    0 -0.19959573606E+02  0.81908715923E+01  0.68378497541E+01  0.22633904738E+02  0.24999685067E+00 0.  0.
        -13    1    4    4    0    0  0.89719946423E+01 -0.44245948788E+01 -0.82870770088E+00  0.10038501340E+02  0.10500000000E+00 0. -1.
         13    1    4    4    0    0  0.27538721743E+02 -0.13491607833E+02 -0.24856062910E+01  0.30766766824E+02  0.10500000000E+00 0.  1.
    3000001    1    5    5    0    0 -0.32198508374E+02  0.23316845290E+02  0.28082886617E+01  0.39866097138E+02  0.10000000000E+01 0.  1.
        -13    1    6    6    0    0 -0.55462019125E+01  0.22732824296E+01  0.18591766652E+01  0.62766019095E+01  0.10500000000E+00 0. -1.
         13    1    6    6    0    0 -0.14413371694E+02  0.59175891626E+01  0.49786730889E+01  0.16357302828E+02  0.10500000000E+00 0.  1.
</event>
<event>
11    0  0.3515428E-009  0.9118800E+02  0.7816531E-02  0.1126479E+00
         25   -1    0    0    0    0  0.00000000000E+00  0.00000000000E+00  0.99999998245E-14  0.12500000000E+03  0.12500000000E+03 0.  0.
    3000001    1    3    3    0    0 -0.53976324535E+01  0.11360450760E+02 -0.97276775052E+01  0.15931791714E+02  0.10000000000E+01 0.  1.
    1000022    2    1    0    0    0 -0.35637425135E+02  0.39157997824E+02 -0.31668196928E+02  0.62499995183E+02  0.99999918704E+01 0.  0.
    3000022    2    3    3    0    0 -0.30239792682E+02  0.27797547064E+02 -0.21940519423E+02  0.46568203469E+02  0.24999523890E+00 0.  0.
    1000022    2    1    0    0    0  0.35637425135E+02 -0.39157997824E+02  0.31668196928E+02  0.62500004817E+02  0.10000052080E+02 0.  0.
    3000022    2    5    5    0    0  0.21997190876E+02 -0.17538384415E+02  0.19032067113E+02  0.33966945897E+02  0.25000136629E+00 0.  0.
        -13    1    4    4    0    0 -0.20296595501E+02  0.18590345340E+02 -0.14680476709E+02  0.31194232644E+02  0.10500000000E+00 0. -1.
         13    1    4    4    0    0 -0.99431971804E+01  0.92072017232E+01 -0.72600427138E+01  0.15373970826E+02  0.10500000000E+00 0.  1.
    3000001    1    5    5    0    0  0.13640234259E+02 -0.21619613409E+02  0.12636129815E+02  0.28533058919E+02  0.10000000000E+01 0. -1.
        -13    1    6    6    0    0  0.14088108688E+02 -0.11276100204E+02  0.12150833363E+02  0.21754976870E+02  0.10500000000E+00 0. -1.
         13    1    6    6    0    0  0.79090821879E+01 -0.62622842108E+01  0.68812337501E+01  0.12211969027E+02  0.10500000000E+00 0.  1.
</event>
<event>
11    0  0.3515428E-009  0.9118800E+02  0.7816531E-02  0.1126479E+00
         25   -1    0    0    0    0  0.00000000000E+00  0.00000000000E+00  0.99999998245E-14  0.12500000000E+03  0.12500000000E+03 0.  0.
    3000001    1    3    3    0    0  0.17976294958E+01  0.18975549297E+01 -0.39206866051E+01  0.48170499240E+01  0.10000000000E+01 0. -1.
    1000022    2    1    0    0    0  0.26580442152E+01  0.22778781020E+01 -0.61595425557E+02  0.62500002163E+02  0.99999946533E+01 0.  0.
    3000022    2    3    3    0    0  0.86041471936E+00  0.38032317230E+00 -0.57674738952E+02  0.57682952239E+02  0.25001313021E+00 0.  0.
    1000022    2    1    0    0    0 -0.26580442152E+01 -0.22778781020E+01  0.61595425557E+02  0.62499997837E+02  0.99999676208E+01 0.  0.
    3000022    2    5    5    0    0 -0.40093582328E+01 -0.72689185482E+00  0.58545678321E+02  0.58687837542E+02  0.25000017677E+00 0.  0.
        -13    1    4    4    0    0  0.29423372818E+00  0.15049584784E+00 -0.17577734145E+02  0.17581154261E+02  0.10500000000E+00 0. -1.
         13    1    4    4    0    0  0.56618099118E+00  0.22982732446E+00 -0.40097004808E+02  0.40101797978E+02  0.10500000000E+00 0.  1.
    3000001    1    5    5    0    0  0.13513140177E+01 -0.15509862472E+01  0.30497472360E+01  0.38121602953E+01  0.10000000000E+01 0. -1.
        -13    1    6    6    0    0 -0.15061772348E+01 -0.30819343702E+00  0.22824553506E+02  0.22876512426E+02  0.10500000000E+00 0.  1.
         13    1    6    6    0    0 -0.25031809980E+01 -0.41869841780E+00  0.35721124815E+02  0.35811325116E+02  0.10500000000E+00 0. -1.
</event>
<event>
11    0  0.3515428E-009  0.9118800E+02  0.7816531E-02  0.1126479E+00
         25   -1    0    0    0    0  0.00000000000E+00  0.00000000000E+00  0.99999998245E-14  0.12500000000E+03  0.12500000000E+03 0.  0.
    3000001    1    3    3    0    0 -0.13905742443E+02 -0.34376935729E+02 -0.49096425892E+02  0.61535375341E+02  0.10000000000E+01 0. -1.
    1000022    2    1    0    0    0 -0.13374866901E+02 -0.35123265858E+02 -0.48925648227E+02  0.62499999559E+02  0.10000001067E+02 0.  0.
    3000022    2    3    3    0    0  0.53087554177E+00 -0.74633012828E+00  0.17077766506E+00  0.96462421779E+00  0.24999473882E+00 0.  0.
    1000022    2    1    0    0    0  0.13374866901E+02  0.35123265858E+02  0.48925648227E+02  0.62500000441E+02  0.10000006576E+02 0.  0.
    3000022    2    5    5    0    0  0.57322021682E+00  0.28724105722E+01  0.96250899851E+01  0.10064004192E+02  0.24999848615E+00 0.  0.
        -13    1    4    4    0    0  0.25841838269E+00 -0.33828566851E+00  0.14650100060E+00  0.46228216190E+00  0.10500000000E+00 0.  1.
         13    1    4    4    0    0  0.27245715908E+00 -0.40804445977E+00  0.24276664466E-01  0.50234205590E+00  0.10500000000E+00 0. -1.
    3000001    1    5    5    0    0  0.12801646684E+02  0.32250855285E+02  0.39300558242E+02  0.52435996249E+02  0.10000000000E+01 0.  1.
        -13    1    6    6    0    0  0.45164212347E+00  0.20573245486E+01  0.69008725381E+01  0.72159290249E+01  0.10500000000E+00 0. -1.
         13    1    6    6    0    0  0.12157809335E+00  0.81508602366E+00  0.27242174470E+01  0.28480751670E+01  0.10500000000E+00 0.  1.
</event>
<event>
11    0  0.3515428E-009  0.9118800E+02  0.7816531E-02  0.1126479E+00
         25   -1    0    0    0    0  0.00000000000E+00  0.00000000000E+00  0.99999998245E-14  0.12500000000E+03  0.12500000000E+03 0.  0.
    3000001    1    3    3    0    0  0.26266339699E+02  0.16852237013E+02 -0.33467944063E+02  0.45771407815E+02  0.10000000000E+01 0.  1.
    1000022    2    1    0    0    0  0.37767343181E+02  0.17324536803E+02 -0.45604140856E+02  0.62500003785E+02  0.10000051177E+02 0.  0.
    3000022    2    3    3    0    0  0.11501003482E+02  0.47229978908E+00 -0.12136196793E+02  0.16728595970E+02  0.25000470936E+00 0.  0.
    1000022    2    1    0    0    0 -0.37767343181E+02 -0.17324536803E+02  0.45604140856E+02  0.62499996215E+02  0.10000003867E+02 0.  0.
    3000022    2    5    5    0    0 -0.16988817560E+02 -0.60349047765E+01  0.13079792733E+02  0.22275176277E+02  0.25000493968E+00 0.  0.
        -13    1    4    4    0    0  0.77986824441E+01  0.35452720819E+00 -0.82850800227E+01  0.11384143068E+02  0.10500000000E+00 0.  1.
         13    1    4    4    0    0  0.37023210377E+01  0.11777258088E+00 -0.38511167699E+01  0.53444529021E+01  0.10500000000E+00 0. -1.
    3000001    1    5    5    0    0 -0.20778525621E+02 -0.11289632026E+02  0.32524348123E+02  0.40224819939E+02  0.10000000000E+01 0.  1.
        -13    1    6    6    0    0 -0.40872534343E+01 -0.14391725118E+01  0.31636424320E+01  0.53662385889E+01  0.10500000000E+00 0. -1.
         13    1    6    6    0    0 -0.12901564126E+02 -0.45957322647E+01  0.99161503008E+01  0.16908937688E+02  0.10500000000E+00 0.  1.
</event>
<event>
11    0  0.3515428E-009  0.9118800E+02  0.7816531E-02  0.1126479E+00
         25   -1    0    0    0    0  0.00000000000E+00  0.00000000000E+00  0.99999998245E-14  0.12500000000E+03  0.12500000000E+03 0.  0.
    3000001    1    3    3    0    0 -0.26654972803E+02  0.24632189126E+02  0.10503600290E+02  0.37796268802E+02  0.10000000000E+01 0. -1.
    1000022    2    1    0    0    0 -0.43510914484E+02  0.42668295421E+02  0.96159795691E+01  0.62499998665E+02  0.99999828298E+01 0.  0.
    3000022    2    3    3    0    0 -0.16855941681E+02  0.18036106295E+02 -0.88762072114E+00  0.24703729863E+02  0.24999668947E+00 0.  0.
    1000022    2    1    0    0    0  0.43510914484E+02 -0.42668295421E+02 -0.96159795691E+01  0.62500001335E+02  0.99999995212E+01 0.  0.
    3000022    2    5    5    0    0  0.11904842750E+02 -0.17075888079E+02 -0.59675890999E+01  0.21656080893E+02  0.24997081444E+00 0.  0.
        -13    1    4    4    0    0 -0.83940956039E+01  0.89856470244E+01 -0.37431593376E+00  0.12302594477E+02  0.10500000000E+00 0. -1.
         13    1    4    4    0    0 -0.84618460771E+01  0.90504592707E+01 -0.51330478738E+00  0.12401135385E+02  0.10500000000E+00 0.  1.
    3000001    1    5    5    0    0  0.31606071734E+02 -0.25592407342E+02 -0.36483904692E+01  0.40843920442E+02  0.10000000000E+01 0. -1.
        -13    1    6    6    0    0  0.38071190837E+01 -0.55449313258E+01 -0.19471395524E+01  0.70030562301E+01  0.10500000000E+00 0.  1.
         13    1    6    6    0    0  0.80977236662E+01 -0.11530956753E+02 -0.40204495475E+01  0.14653024663E+02  0.10500000000E+00 0. -1.
</event>
<event>
11    0  0.3515428E-009  0.9118800E+02  0.7816531E-02  0.1126479E+00
         25   -1    0    0    0    0  0.00000000000E+00  0.00000000000E+00  0.99999998245E-14  0.12500000000E+03  0.12500000000E+03 0.  0.
    3000001    1    3    3    0    0 -0.33872561193E+01  0.34376916264E+02 -0.46734444313E+02  0.58123611046E+02  0.10000000000E+01 0.  1.
    1000022    2    1    0    0    0 -0.13161294436E+01  0.35568580487E+02 -0.50392400582E+02  0.62499998886E+02  0.99999854856E+01 0.  0.
    3000022    2    3    3    0    0  0.20711266757E+01  0.11916642230E+01 -0.36579562692E+01  0.43763878392E+01  0.24999424974E+00 0.  0.
    1000022    2    1    0    0    0  0.13161294436E+01 -0.35568580487E+02  0.50392400582E+02  0.62500001114E+02  0.99999994143E+01 0.  0.
    3000022    2    5    5    0    0  0.18021363317E+01 -0.13866579341E+01  0.62751466485E+01  0.66791078327E+01  0.25000079392E+00 0.  0.
        -13    1    4    4    0    0  0.10015833915E+01  0.64805506442E+00 -0.18729959448E+01  0.22231247077E+01  0.10500000000E+00 0.  1.
         13    1    4    4    0    0  0.10695432842E+01  0.54360915855E+00 -0.17849603244E+01  0.21532631316E+01  0.10500000000E+00 0. -1.
    3000001    1    5    5    0    0 -0.48600688814E+00 -0.34181922553E+02  0.44117253934E+02  0.55820893282E+02  0.10000000000E+01 0.  1.
        -13    1    6    6    0    0  0.11164996201E+01 -0.88214277457E+00  0.37496077781E+01  0.40118986485E+01  0.10500000000E+00 0. -1.
         13    1    6    6    0    0  0.68563671159E+00 -0.50451515955E+00  0.25255388704E+01  0.26672091842E+01  0.10500000000E+00 0.  1.
</event>
<event>
11    0  0.3515428E-009  0.9118800E+02  0.7816531E-02  0.1126479E+00
         25   -1    0    0    0    0  0.00000000000E+00  0.00000000000E+00  0.99999998245E-14  0.12500000000E+03  0.12500000000E+03 0.  0.
    3000001    1    3    3    0    0  0.23240788603E+02  0.59207306943E+01  0.37388497648E+02  0.44430722065E+02  0.10000000000E+01 0.  1.
    1000022    2    1    0    0    0  0.34422846042E+02  0.13498893063E+02  0.49387220629E+02  0.62500000070E+02  0.10000000184E+02 0.  0.
    3000022    2    3    3    0    0  0.11182057440E+02  0.75781623684E+01  0.11998722981E+02  0.18069278005E+02  0.25000194654E+00 0.  0.
    1000022    2    1    0    0    0 -0.34422846042E+02 -0.13498893063E+02 -0.49387220629E+02  0.62499999930E+02  0.99999993103E+01 0.  0.
    3000022    2    5    5    0    0 -0.11705588412E+00 -0.21163849142E+01 -0.30999332808E+01  0.37636253381E+01  0.25000431027E+00 0.  0.
        -13    1    4    4    0    0  0.60294681251E+01  0.40328441547E+01  0.63753667626E+01  0.96578799023E+01  0.10500000000E+00 0. -1.
         13    1    4    4    0    0  0.51525893145E+01  0.35453182137E+01  0.56233562182E+01  0.84113981024E+01  0.10500000000E+00 0.  1.
    3000001    1    5    5    0    0 -0.34305790158E+02 -0.11382508149E+02 -0.46287287348E+02  0.58736374592E+02  0.10000000000E+01 0.  1.
        -13    1    6    6    0    0 -0.64842946882E-01 -0.10256464631E+01 -0.16221596784E+01  0.19231698566E+01  0.10500000000E+00 0. -1.
         13    1    6    6    0    0 -0.52212937237E-01 -0.10907384511E+01 -0.14777736024E+01  0.18404554815E+01  0.10500000000E+00 0.  1.
</event>
<event>
11    0  0.3515428E-009  0.9118800E+02  0.7816531E-02  0.1126479E+00
         25   -1    0    0    0    0  0.00000000000E+00  0.00000000000E+00  0.99999998245E-14  0.12500000000E+03  0.12500000000E+03 0.  0.
    3000001    1    3    3    0    0 -0.13782846310E+02 -0.24283904074E+02 -0.53991991496E+02  0.60793173919E+02  0.10000000000E+01 0. -1.
    1000022    2    1    0    0    0 -0.14473023120E+02 -0.23369851336E+02 -0.55232524469E+02  0.62500000450E+02  0.99999973688E+01 0.  0.
    3000022    2    3    3    0    0 -0.69017680949E+00  0.91405273751E+00 -0.12405329726E+01  0.17068265308E+01  0.24999662937E+00 0.  0.
    1000022    2    1    0    0    0  0.14473023120E+02  0.23369851336E+02  0.55232524469E+02  0.62499999550E+02  0.99999917404E+01 0.  0.
    3000022    2    5    5    0    0  0.35066838013E+01  0.10922707818E+02  0.31519341902E+02  0.33543014084E+02  0.25000509583E+00 0.  0.
        -13    1    4    4    0    0 -0.44037873430E+00  0.47562460094E+00 -0.67667841180E+00  0.94290554333E+00  0.10500000000E+00 0. -1.
         13    1    4    4    0    0 -0.24979807519E+00  0.43842813657E+00 -0.56385456084E+00  0.76392098746E+00  0.10500000000E+00 0.  1.
    3000001    1    5    5    0    0  0.10966339319E+02  0.12447143518E+02  0.23713182567E+02  0.28956985466E+02  0.10000000000E+01 0.  1.
        -13    1    6    6    0    0  0.12824412030E+01  0.39713566834E+01  0.11298098575E+02  0.12044682883E+02  0.10500000000E+00 0. -1.
         13    1    6    6    0    0  0.22242425983E+01  0.69513511349E+01  0.20221243327E+02  0.21498331201E+02  0.10500000000E+00 0.  1.
</event>
<event>
11    0  0.3515428E-009  0.9118800E+02  0.7816531E-02  0.1126479E+00
         25   -1    0    0    0    0  0.00000000000E+00  0.00000000000E+00  0.99999998245E-14  0.12500000000E+03  0.12500000000E+03 0.  0.
    3000001    1    3    3    0    0  0.86359565281E+01 -0.11106493956E+02 -0.67399300061E+01  0.15632037924E+02  0.10000000000E+01 0. -1.
    1000022    2    1    0    0    0  0.21716751652E+02 -0.43465290028E+02 -0.38018432390E+02  0.62500002485E+02  0.10000018487E+02 0.  0.
    3000022    2    3    3    0    0  0.13080795124E+02 -0.32358796072E+02 -0.31278502384E+02  0.46867964562E+02  0.25001300215E+00 0.  0.
    1000022    2    1    0    0    0 -0.21716751652E+02  0.43465290028E+02  0.38018432390E+02  0.62499997515E+02  0.99999874224E+01 0.  0.
    3000022    2    5    5    0    0 -0.23591142174E+01  0.45323261244E+01  0.64419817668E+00  0.51560598372E+01  0.25012349942E+00 0.  0.
        -13    1    4    4    0    0  0.56919729010E+01 -0.14086544264E+02 -0.13527153547E+02  0.20342669266E+02  0.10500000000E+00 0. -1.
         13    1    4    4    0    0  0.73888222234E+01 -0.18272251808E+02 -0.17751348837E+02  0.26525295295E+02  0.10500000000E+00 0.  1.
    3000001    1    5    5    0    0 -0.19357637435E+02  0.38932963903E+02  0.37374234213E+02  0.57343937678E+02  0.10000000000E+01 0. -1.
        -13    1    6    6    0    0 -0.15904532670E+01  0.31410613687E+01  0.41457107510E+00  0.35466466264E+01  0.10500000000E+00 0.  1.
         13    1    6    6    0    0 -0.76866095037E+00  0.13912647557E+01  0.22962710158E+00  0.16094132107E+01  0.10500000000E+00 0. -1.
</event>
<event>
11    0  0.3515428E-009  0.9118800E+02  0.7816531E-02  0.1126479E+00
         25   -1    0    0    0    0  0.00000000000E+00  0.00000000000E+00  0.99999998245E-14  0.12500000000E+03  0.12500000000E+03 0.  0.
    3000001    1    3    3    0    0  0.21646757637E+02  0.36225251426E+02 -0.12221197713E+02  0.43945518891E+02  0.10000000000E+01 0.  1.
    1000022    2    1    0    0    0  0.35462379093E+02  0.47139321118E+02 -0.18070808276E+02  0.62499999944E+02  0.99999977398E+01 0.  0.
    3000022    2    3    3    0    0  0.13815621456E+02  0.10914069692E+02 -0.58496105631E+01  0.18554481053E+02  0.25001985619E+00 0.  0.
    1000022    2    1    0    0    0 -0.35462379093E+02 -0.47139321118E+02  0.18070808276E+02  0.62500000056E+02  0.99999984421E+01 0.  0.
    3000022    2    5    5    0    0 -0.18821601709E+02 -0.19933792674E+02  0.12410970408E+02  0.30094907639E+02  0.24999612840E+00 0.  0.
        -13    1    4    4    0    0  0.56141550963E+01  0.43642257875E+01 -0.23947972602E+01  0.75040844270E+01  0.10500000000E+00 0. -1.
         13    1    4    4    0    0  0.82014663598E+01  0.65498439045E+01 -0.34548133029E+01  0.11050396626E+02  0.10500000000E+00 0.  1.
    3000001    1    5    5    0    0 -0.16640777384E+02 -0.27205528444E+02  0.56598378679E+01  0.32405092417E+02  0.10000000000E+01 0.  1.
        -13    1    6    6    0    0 -0.53375017432E+01 -0.56304501381E+01  0.34710363449E+01  0.85000007014E+01  0.10500000000E+00 0.  1.
         13    1    6    6    0    0 -0.13484099966E+02 -0.14303342536E+02  0.89399340635E+01  0.21594906938E+02  0.10500000000E+00 0. -1.
</event>
<event>
11    0  0.3515428E-009  0.9118800E+02  0.7816531E-02  0.1126479E+00
         25   -1    0    0    0    0  0.00000000000E+00  0.00000000000E+00  0.99999998245E-14  0.12500000000E+03  0.12500000000E+03 0.  0.
    3000001    1    3    3    0    0 -0.50258116326E+01  0.86438800332E+01  0.78960721664E+01  0.12779804390E+02  0.10000000000E+01 0. -1.
    1000022    2    1    0    0    0 -0.27212156827E+02  0.50955505966E+02  0.21662977991E+02  0.62499999431E+02  0.10000012297E+02 0.  0.
    3000022    2    3    3    0    0 -0.22186345195E+02  0.42311625933E+02  0.13766905824E+02  0.49720195041E+02  0.24999337596E+00 0.  0.
    1000022    2    1    0    0    0  0.27212156827E+02 -0.50955505966E+02 -0.21662977991E+02  0.62500000569E+02  0.10000019413E+02 0.  0.
    3000022    2    5    5    0    0  0.16450233309E+02 -0.36802102557E+02 -0.18733287644E+02  0.44452260782E+02  0.24998839795E+00 0.  0.
        -13    1    4    4    0    0 -0.85736049584E+01  0.16388469886E+02  0.53912343920E+01  0.19265645082E+02  0.10500000000E+00 0.  1.
         13    1    4    4    0    0 -0.13612740236E+02  0.25923156048E+02  0.83756714323E+01  0.30454549958E+02  0.10500000000E+00 0. -1.
    3000001    1    5    5    0    0  0.10761923519E+02 -0.14153403410E+02 -0.29296903469E+01  0.18047739787E+02  0.10000000000E+01 0. -1.
        -13    1    6    6    0    0  0.10309686556E+02 -0.22920997669E+02 -0.11695544476E+02  0.27721085055E+02  0.10500000000E+00 0. -1.
         13    1    6    6    0    0  0.61405467528E+01 -0.13881104887E+02 -0.70377431675E+01  0.16731175727E+02  0.10500000000E+00 0.  1.
</event>
<event>
11    0  0.3515428E-009  0.9118800E+02  0.7816531E-02  0.1126479E+00
         25   -1    0    0    0    0  0.00000000000E+00  0.00000000000E+00  0.99999998245E-14  0.12500000000E+03  0.12500000000E+03 0.  0.
    3000001    1    3    3    0    0  0.26227997709E+02 -0.43473919611E+01  0.40510461259E+02  0.48465504764E+02  0.10000000000E+01 0. -1.
    1000022    2    1    0    0    0  0.36577629919E+02 -0.18391502589E+01  0.49648206805E+02  0.62499999963E+02  0.10000003617E+02 0.  0.
    3000022    2    3    3    0    0  0.10349632210E+02  0.25082417023E+01  0.91377455460E+01  0.14034495199E+02  0.24999701184E+00 0.  0.
    1000022    2    1    0    0    0 -0.36577629919E+02  0.18391502589E+01 -0.49648206805E+02  0.62500000037E+02  0.10000004076E+02 0.  0.
    3000022    2    5    5    0    0 -0.31301214532E+02  0.42848507657E+01 -0.37809945285E+02  0.49272511760E+02  0.24995081119E+00 0.  0.
        -13    1    4    4    0    0  0.55394028573E+01  0.13894777017E+01  0.49650466774E+01  0.75682458871E+01  0.10500000000E+00 0. -1.
         13    1    4    4    0    0  0.48102293527E+01  0.11187640006E+01  0.41726988686E+01  0.64662493118E+01  0.10500000000E+00 0.  1.
    3000001    1    5    5    0    0 -0.52764153865E+01 -0.24457005069E+01 -0.11838261519E+02  0.13227488276E+02  0.10000000000E+01 0. -1.
        -13    1    6    6    0    0 -0.23014850696E+02  0.31670030848E+01 -0.27848571870E+02  0.36266613314E+02  0.10500000000E+00 0. -1.
         13    1    6    6    0    0 -0.82863638364E+01  0.11178476810E+01 -0.99613734155E+01  0.13005898446E+02  0.10500000000E+00 0.  1.
</event>
<event>
11    0  0.3515428E-009  0.9118800E+02  0.7816531E-02  0.1126479E+00
         25   -1    0    0    0    0  0.00000000000E+00  0.00000000000E+00  0.99999998245E-14  0.12500000000E+03  0.12500000000E+03 0.  0.
    3000001    1    3    3    0    0  0.54741082752E+01  0.50444026513E+01 -0.80365339060E+00  0.75536559551E+01  0.10000000000E+01 0.  1.
    1000022    2    1    0    0    0  0.36155910745E+02  0.39459158030E+02 -0.30691609182E+02  0.62500000591E+02  0.10000008272E+02 0.  0.
    3000022    2    3    3    0    0  0.30681802470E+02  0.34414755379E+02 -0.29887955791E+02  0.54946344636E+02  0.24999372136E+00 0.  0.
    1000022    2    1    0    0    0 -0.36155910745E+02 -0.39459158030E+02  0.30691609182E+02  0.62499999409E+02  0.10000000883E+02 0.  0.
    3000022    2    5    5    0    0 -0.17457288251E+02 -0.14895758336E+02  0.85253026859E+01  0.24482316268E+02  0.24998896360E+00 0.  0.
        -13    1    4    4    0    0  0.21928575798E+02  0.24622021329E+02 -0.21328435082E+02  0.39268556618E+02  0.10500000000E+00 0. -1.
         13    1    4    4    0    0  0.87532266726E+01  0.97927340502E+01 -0.85595207087E+01  0.15677788018E+02  0.10500000000E+00 0.  1.
    3000001    1    5    5    0    0 -0.18698622494E+02 -0.24563399694E+02  0.22166306496E+02  0.38017683141E+02  0.10000000000E+01 0.  1.
        -13    1    6    6    0    0 -0.86046205481E+01 -0.74145803573E+01  0.42616185152E+01  0.12132102622E+02  0.10500000000E+00 0.  1.
         13    1    6    6    0    0 -0.88526677031E+01 -0.74811779789E+01  0.42636841707E+01  0.12350213647E+02  0.10500000000E+00 0. -1.
</event>
<event>
11    0  0.3515428E-009  0.9118800E+02  0.7816531E-02  0.1126479E+00
         25   -1    0    0    0    0  0.00000000000E+00  0.00000000000E+00  0.99999998245E-14  0.12500000000E+03  0.12500000000E+03 0.  0.
    3000001    1    3    3    0    0 -0.24232157349E+01 -0.66591261312E+01 -0.80064546516E+00  0.72011782709E+01  0.10000000000E+01 0. -1.
    1000022    2    1    0    0    0 -0.39450549839E+01 -0.60151869556E+02  0.13131606153E+02  0.62500000303E+02  0.10000004385E+02 0.  0.
    3000022    2    3    3    0    0 -0.15218392490E+01 -0.53492743425E+02  0.13932251618E+02  0.55298822032E+02  0.24997814647E+00 0.  0.
    1000022    2    1    0    0    0  0.39450549839E+01  0.60151869556E+02 -0.13131606153E+02  0.62499999697E+02  0.10000000603E+02 0.  0.
    3000022    2    5    5    0    0 -0.18582577323E+01  0.10775137068E+02  0.46849633149E+00  0.10947085742E+02  0.24999359166E+00 0.  0.
        -13    1    4    4    0    0 -0.72979447229E+00 -0.24495123657E+02  0.63197557646E+01  0.25307983342E+02  0.10500000000E+00 0. -1.
         13    1    4    4    0    0 -0.79204477673E+00 -0.28997619768E+02  0.76124958536E+01  0.29990838689E+02  0.10500000000E+00 0.  1.
    3000001    1    5    5    0    0  0.58033127161E+01  0.49376732488E+02 -0.13600102485E+02  0.51552913956E+02  0.10000000000E+01 0. -1.
        -13    1    6    6    0    0 -0.68790987911E+00  0.40803491743E+01  0.23598300319E+00  0.41459838837E+01  0.10500000000E+00 0.  1.
         13    1    6    6    0    0 -0.11703478531E+01  0.66947878936E+01  0.23251332830E+00  0.68011018582E+01  0.10500000000E+00 0. -1.
</event>
<event>
11    0  0.3515428E-009  0.9118800E+02  0.7816531E-02  0.1126479E+00
         25   -1    0    0    0    0  0.00000000000E+00  0.00000000000E+00  0.99999998245E-14  0.12500000000E+03  0.12500000000E+03 0.  0.
    3000001    1    3    3    0    0 -0.42506314448E+01 -0.14242173865E+02  0.25814924633E+01  0.15118580866E+02  0.10000000000E+01 0. -1.
    1000022    2    1    0    0    0 -0.44691958002E+01 -0.57494840981E+02  0.21923037622E+02  0.62499999704E+02  0.99999966960E+01 0.  0.
    3000022    2    3    3    0    0 -0.21856435541E+00 -0.43252667116E+02  0.19341545159E+02  0.47381418838E+02  0.24999783718E+00 0.  0.
    1000022    2    1    0    0    0  0.44691958002E+01  0.57494840981E+02 -0.21923037622E+02  0.62500000296E+02  0.10000000395E+02 0.  0.
    3000022    2    5    5    0    0 -0.12236950404E+01  0.41514623683E+02 -0.15319402316E+02  0.44268589208E+02  0.24998808010E+00 0.  0.
        -13    1    4    4    0    0 -0.10534251749E+00 -0.30070894400E+02  0.13454094307E+02  0.32943792521E+02  0.10500000000E+00 0.  1.
         13    1    4    4    0    0 -0.11322183792E+00 -0.13181772717E+02  0.58874508514E+01  0.14437626317E+02  0.10500000000E+00 0. -1.
    3000001    1    5    5    0    0  0.56928908406E+01  0.15980217298E+02 -0.66036353057E+01  0.18231411088E+02  0.10000000000E+01 0. -1.
        -13    1    6    6    0    0 -0.52138451208E+00  0.18819529570E+02 -0.70060024720E+01  0.20088345643E+02  0.10500000000E+00 0.  1.
         13    1    6    6    0    0 -0.70231052832E+00  0.22695094114E+02 -0.83133998442E+01  0.24180243565E+02  0.10500000000E+00 0. -1.
</event>
<event>
11    0  0.3515428E-009  0.9118800E+02  0.7816531E-02  0.1126479E+00
         25   -1    0    0    0    0  0.00000000000E+00  0.00000000000E+00  0.99999998245E-14  0.12500000000E+03  0.12500000000E+03 0.  0.
    3000001    1    3    3    0    0  0.37979737132E+01 -0.14534797403E+01 -0.27860820840E+01  0.50298569622E+01  0.10000000000E+01 0. -1.
    1000022    2    1    0    0    0  0.58917796591E+02 -0.17529812921E+02 -0.52582164157E+01  0.62499999730E+02  0.10000001508E+02 0.  0.
    3000022    2    3    3    0    0  0.55119822878E+02 -0.16076333180E+02 -0.24721343317E+01  0.57470142768E+02  0.24999791020E+00 0.  0.
    1000022    2    1    0    0    0 -0.58917796591E+02  0.17529812921E+02  0.52582164157E+01  0.62500000270E+02  0.10000004884E+02 0.  0.
    3000022    2    5    5    0    0 -0.11177837386E+02  0.16980039081E+01  0.45461379746E+01  0.12188401833E+02  0.25000573975E+00 0.  0.
        -13    1    4    4    0    0  0.25455675381E+02 -0.74843476538E+01 -0.11771276022E+01  0.26559433791E+02  0.10500000000E+00 0.  1.
         13    1    4    4    0    0  0.29664147497E+02 -0.85919855267E+01 -0.12950067296E+01  0.30910708976E+02  0.10500000000E+00 0. -1.
    3000001    1    5    5    0    0 -0.47739959206E+02  0.15831809013E+02  0.71207844108E+00  0.50311598437E+02  0.10000000000E+01 0.  1.
        -13    1    6    6    0    0 -0.30382836734E+01  0.49255066231E+00  0.12601560743E+01  0.33275805275E+01  0.10500000000E+00 0. -1.
         13    1    6    6    0    0 -0.81395537124E+01  0.12054532458E+01  0.32859819003E+01  0.88608213058E+01  0.10500000000E+00 0.  1.
</event>
<event>
11    0  0.3515428E-009  0.9118800E+02  0.7816531E-02  0.1126479E+00
         25   -1    0    0    0    0  0.00000000000E+00  0.00000000000E+00  0.99999998245E-14  0.12500000000E+03  0.12500000000E+03 0.  0.
    3000001    1    3    3    0    0  0.21775674074E+00 -0.88608249543E+00  0.36282651704E+00  0.14015003633E+01  0.10000000000E+01 0. -1.
    1000022    2    1    0    0    0 -0.18552830125E+02 -0.55008475842E+02 -0.20883253265E+02  0.62500001160E+02  0.99999978997E+01 0.  0.
    3000022    2    3    3    0    0 -0.18770586865E+02 -0.54122393346E+02 -0.21246079782E+02  0.61098500797E+02  0.25000137067E+00 0.  0.
    1000022    2    1    0    0    0  0.18552830125E+02  0.55008475842E+02  0.20883253265E+02  0.62499998840E+02  0.99999834010E+01 0.  0.
    3000022    2    5    5    0    0  0.11163347487E+02  0.18468305457E+02  0.66485135210E+01  0.22582379660E+02  0.25001103805E+00 0.  0.
        -13    1    4    4    0    0 -0.86352059935E+01 -0.24931149111E+02 -0.97148616210E+01  0.28116161542E+02  0.10500000000E+00 0. -1.
         13    1    4    4    0    0 -0.10135380872E+02 -0.29191244235E+02 -0.11531218161E+02  0.32982339254E+02  0.10500000000E+00 0.  1.
    3000001    1    5    5    0    0  0.73894826378E+01  0.36540170385E+02  0.14234739744E+02  0.39917619180E+02  0.10000000000E+01 0.  1.
        -13    1    6    6    0    0  0.76457753578E+01  0.12647176617E+02  0.45009794862E+01  0.15449232943E+02  0.10500000000E+00 0.  1.
         13    1    6    6    0    0  0.35175721292E+01  0.58211288399E+01  0.21475340348E+01  0.71331467170E+01  0.10500000000E+00 0. -1.
</event>
<event>
11    0  0.3515428E-009  0.9118800E+02  0.7816531E-02  0.1126479E+00
         25   -1    0    0    0    0  0.00000000000E+00  0.00000000000E+00  0.99999998245E-14  0.12500000000E+03  0.12500000000E+03 0.  0.
    3000001    1    3    3    0    0  0.12386417499E+02 -0.34934592813E+01  0.11615275540E+01  0.12960584187E+02  0.10000000000E+01 0.  1.
    1000022    2    1    0    0    0  0.51012359881E+02 -0.32660244504E+02  0.11717401364E+02  0.62500000296E+02  0.10000005533E+02 0.  0.
    3000022    2    3    3    0    0  0.38625942382E+02 -0.29166785222E+02  0.10555873810E+02  0.49539416109E+02  0.24998293292E+00 0.  0.
    1000022    2    1    0    0    0 -0.51012359881E+02  0.32660244504E+02 -0.11717401364E+02  0.62499999704E+02  0.10000001829E+02 0.  0.
    3000022    2    5    5    0    0 -0.24132650167E+01  0.37444590952E+01  0.89626516414E+00  0.45508905587E+01  0.24998335258E+00 0.  0.
        -13    1    4    4    0    0  0.25370417937E+02 -0.19087945361E+02  0.69222121466E+01  0.32495165954E+02  0.10500000000E+00 0.  1.
         13    1    4    4    0    0  0.13255524446E+02 -0.10078839862E+02  0.36336616635E+01  0.17044250156E+02  0.10500000000E+00 0. -1.
    3000001    1    5    5    0    0 -0.48599094864E+02  0.28915785408E+02 -0.12613666528E+02  0.57949109145E+02  0.10000000000E+01 0. -1.
        -13    1    6    6    0    0 -0.13737577677E+01  0.20260121065E+01  0.45720933734E+00  0.24923885809E+01  0.10500000000E+00 0. -1.
         13    1    6    6    0    0 -0.10395072490E+01  0.17184469886E+01  0.43905582680E+00  0.20585019778E+01  0.10500000000E+00 0.  1.
</event>
<event>
11    0  0.3515428E-009  0.9118800E+02  0.7816531E-02  0.1126479E+00
         25   -1    0    0    0    0  0.00000000000E+00  0.00000000000E+00  0.99999998245E-14  0.12500000000E+03  0.12500000000E+03 0.  0.
    3000001    1    3    3    0    0  0.35767080847E+02 -0.34777821992E+02  0.21004533910E+02  0.54138446778E+02  0.10000000000E+01 0.  1.
    1000022    2    1    0    0    0  0.43234318731E+02 -0.36770598612E+02  0.24186085210E+02  0.62499999865E+02  0.10000001348E+02 0.  0.
    3000022    2    3    3    0    0  0.74672378839E+01 -0.19927766203E+01  0.31815513001E+01  0.83615530869E+01  0.25000215324E+00 0.  0.
    1000022    2    1    0    0    0 -0.43234318731E+02  0.36770598612E+02 -0.24186085210E+02  0.62500000135E+02  0.10000003032E+02 0.  0.
    3000022    2    5    5    0    0 -0.74111448391E+01  0.88426448601E+01 -0.88642835071E+01  0.14551819816E+02  0.25000382693E+00 0.  0.
        -13    1    4    4    0    0  0.26755633192E+01 -0.66597872476E+00  0.11722282306E+01  0.29978843809E+01  0.10500000000E+00 0. -1.
         13    1    4    4    0    0  0.47916745647E+01 -0.13267978955E+01  0.20093230696E+01  0.53636687059E+01  0.10500000000E+00 0.  1.
    3000001    1    5    5    0    0 -0.35823173892E+02  0.27927953752E+02 -0.15321801703E+02  0.47948180319E+02  0.10000000000E+01 0.  1.
        -13    1    6    6    0    0 -0.29157690571E+01  0.35497430009E+01 -0.34748290303E+01  0.57608893720E+01  0.10500000000E+00 0.  1.
         13    1    6    6    0    0 -0.44953757820E+01  0.52929018593E+01 -0.53894544767E+01  0.87909304439E+01  0.10500000000E+00 0. -1.
</event>
<event>
11    0  0.3515428E-009  0.9118800E+02  0.7816531E-02  0.1126479E+00
         25   -1    0    0    0    0  0.00000000000E+00  0.00000000000E+00  0.99999998245E-14  0.12500000000E+03  0.12500000000E+03 0.  0.
    3000001    1    3    3    0    0  0.25731367944E+02 -0.33701965363E+02  0.22025077445E+02  0.47791524375E+02  0.10000000000E+01 0.  1.
    1000022    2    1    0    0    0  0.32666950941E+02 -0.40633592968E+02  0.32985324900E+02  0.62500001430E+02  0.99999979326E+01 0.  0.
    3000022    2    3    3    0    0  0.69355829971E+01 -0.69316276050E+01  0.10960247455E+02  0.14708477055E+02  0.25000047218E+00 0.  0.
    1000022    2    1    0    0    0 -0.32666950941E+02  0.40633592968E+02 -0.32985324900E+02  0.62499998570E+02  0.99999800627E+01 0.  0.
    3000022    2    5    5    0    0 -0.12700417388E+02  0.13229773090E+02 -0.64814007394E+01  0.19452469002E+02  0.24999377101E+00 0.  0.
        -13    1    4    4    0    0  0.25682765604E+01 -0.25424135977E+01  0.39551559940E+01  0.53585628045E+01  0.10500000000E+00 0.  1.
         13    1    4    4    0    0  0.43673064367E+01 -0.43892140073E+01  0.70050914606E+01  0.93499142501E+01  0.10500000000E+00 0. -1.
    3000001    1    5    5    0    0 -0.19966533553E+02  0.27403819879E+02 -0.26503924161E+02  0.43047529569E+02  0.10000000000E+01 0. -1.
        -13    1    6    6    0    0 -0.67357758986E+01  0.69612695185E+01 -0.33644333783E+01  0.10254773875E+02  0.10500000000E+00 0.  1.
         13    1    6    6    0    0 -0.59646414892E+01  0.62685035710E+01 -0.31169673611E+01  0.91976951267E+01  0.10500000000E+00 0. -1.
</event>
<event>
11    0  0.3515428E-009  0.9118800E+02  0.7816531E-02  0.1126479E+00
         25   -1    0    0    0    0  0.00000000000E+00  0.00000000000E+00  0.99999998245E-14  0.12500000000E+03  0.12500000000E+03 0.  0.
    3000001    1    3    3    0    0  0.23980158674E+02  0.26241502156E+02  0.28103931405E+02  0.45326541957E+02  0.10000000000E+01 0. -1.
    1000022    2    1    0    0    0  0.36668755428E+02  0.31259649544E+02  0.38529036876E+02  0.62499998703E+02  0.99999920494E+01 0.  0.
    3000022    2    3    3    0    0  0.12688596754E+02  0.50181473877E+01  0.10425105472E+02  0.17173456745E+02  0.25000338355E+00 0.  0.
    1000022    2    1    0    0    0 -0.36668755428E+02 -0.31259649544E+02 -0.38529036876E+02  0.62500001297E+02  0.10000008267E+02 0.  0.
    3000022    2    5    5    0    0 -0.10764292537E+02 -0.40036069521E+01 -0.73022750315E+01  0.13611928000E+02  0.25000157973E+00 0.  0.
        -13    1    4    4    0    0  0.65908276387E+01  0.25769465128E+01  0.53289406900E+01  0.88593620634E+01  0.10500000000E+00 0. -1.
         13    1    4    4    0    0  0.60977691151E+01  0.24412008749E+01  0.50961647819E+01  0.83140946817E+01  0.10500000000E+00 0.  1.
    3000001    1    5    5    0    0 -0.25904462890E+02 -0.27256042592E+02 -0.31226761845E+02  0.48888073297E+02  0.10000000000E+01 0.  1.
        -13    1    6    6    0    0 -0.64356820178E+01 -0.23770772356E+01 -0.42891011948E+01  0.80917188086E+01  0.10500000000E+00 0. -1.
         13    1    6    6    0    0 -0.43286105196E+01 -0.16265297165E+01 -0.30131738367E+01  0.55202091917E+01  0.10500000000E+00 0.  1.
</event>
<event>
11    0  0.3515428E-009  0.9118800E+02  0.7816531E-02  0.1126479E+00
         25   -1    0    0    0    0  0.00000000000E+00  0.00000000000E+00  0.99999998245E-14  0.12500000000E+03  0.12500000000E+03 0.  0.
    3000001    1    3    3    0    0  0.10170098709E+02  0.11627801808E+01  0.41356297350E+01  0.11085413786E+02  0.10000000000E+01 0. -1.
    1000022    2    1    0    0    0  0.61391385605E+02  0.54148956249E+01  0.28331673118E+01  0.62499999439E+02  0.99999885903E+01 0.  0.
    3000022    2    3    3    0    0  0.51221286896E+02  0.42521154442E+01 -0.13024624232E+01  0.51414585654E+02  0.24998509304E+00 0.  0.
    1000022    2    1    0    0    0 -0.61391385605E+02 -0.54148956249E+01 -0.28331673118E+01  0.62500000561E+02  0.99999955983E+01 0.  0.
    3000022    2    5    5    0    0 -0.29415839443E+02 -0.75590569092E+01 -0.14615646162E+01  0.30407723079E+02  0.25000055177E+00 0.  0.
        -13    1    4    4    0    0  0.18501635738E+02  0.14913605381E+01 -0.43264620436E+00  0.18566983842E+02  0.10500000000E+00 0.  1.
         13    1    4    4    0    0  0.32719651158E+02  0.27607549061E+01 -0.86981621887E+00  0.32847601812E+02  0.10500000000E+00 0. -1.
    3000001    1    5    5    0    0 -0.31975546162E+02  0.21441612842E+01 -0.13716026956E+01  0.32092277481E+02  0.10000000000E+01 0.  1.
        -13    1    6    6    0    0 -0.11345577409E+02 -0.28971142946E+01 -0.50458459944E+00  0.11720965344E+02  0.10500000000E+00 0.  1.
         13    1    6    6    0    0 -0.18070262034E+02 -0.46619426146E+01 -0.95698001677E+00  0.18686757736E+02  0.10500000000E+00 0. -1.
</event>
<event>
11    0  0.3515428E-009  0.9118800E+02  0.7816531E-02  0.1126479E+00
         25   -1    0    0    0    0  0.00000000000E+00  0.00000000000E+00  0.99999998245E-14  0.12500000000E+03  0.12500000000E+03 0.  0.
    3000001    1    3    3    0    0 -0.24728864430E+02  0.37953210338E+02 -0.13223845465E+02  0.47199925846E+02  0.10000000000E+01 0. -1.
    1000022    2    1    0    0    0 -0.27541815477E+02  0.52439445411E+02 -0.17256968144E+02  0.62500000497E+02  0.10000003890E+02 0.  0.
    3000022    2    3    3    0    0 -0.28129510463E+01  0.14486235073E+02 -0.40331226792E+01  0.15300074651E+02  0.25001120220E+00 0.  0.
    1000022    2    1    0    0    0  0.27541815477E+02 -0.52439445411E+02  0.17256968144E+02  0.62499999503E+02  0.99999976826E+01 0.  0.
    3000022    2    5    5    0    0  0.17018153137E+02 -0.39862042240E+02  0.97005019965E+01  0.44415787599E+02  0.25000265047E+00 0.  0.
        -13    1    4    4    0    0 -0.16214422060E+01  0.86752051037E+01 -0.23986864222E+01  0.91462003024E+01  0.10500000000E+00 0.  1.
         13    1    4    4    0    0 -0.11915088403E+01  0.58110299688E+01 -0.16344362569E+01  0.61538743482E+01  0.10500000000E+00 0. -1.
    3000001    1    5    5    0    0  0.10523662339E+02 -0.12577403171E+02  0.75564661475E+01  0.18084211904E+02  0.10000000000E+01 0. -1.
        -13    1    6    6    0    0  0.99427623262E+01 -0.23290956687E+02  0.56017427488E+01  0.25936802673E+02  0.10500000000E+00 0. -1.
         13    1    6    6    0    0  0.70753908111E+01 -0.16571085554E+02  0.40987592478E+01  0.18478984927E+02  0.10500000000E+00 0.  1.
</event>
<event>
11    0  0.3515428E-009  0.9118800E+02  0.7816531E-02  0.1126479E+00
         25   -1    0    0    0    0  0.00000000000E+00  0.00000000000E+00  0.99999998245E-14  0.12500000000E+03  0.12500000000E+03 0.  0.
    3000001    1    3    3    0    0  0.84894269008E+01 -0.32620620554E+01  0.10574535667E+02  0.13983283682E+02  0.10000000000E+01 0.  1.
    1000022    2    1    0    0    0  0.27560001437E+02 -0.18946166253E+01  0.55164361252E+02  0.62500000057E+02  0.10000000170E+02 0.  0.
    3000022    2    3    3    0    0  0.19070574536E+02  0.13674454301E+01  0.44589825585E+02  0.48516716375E+02  0.25000388920E+00 0.  0.
    1000022    2    1    0    0    0 -0.27560001437E+02  0.18946166253E+01 -0.55164361252E+02  0.62499999943E+02  0.99999994593E+01 0.  0.
    3000022    2    5    5    0    0 -0.15426893576E+02  0.54232410855E+01 -0.35764350136E+02  0.39326223207E+02  0.25000349060E+00 0.  0.
        -13    1    4    4    0    0  0.12826496514E+02  0.89717128191E+00  0.30105135224E+02  0.32736128681E+02  0.10500000000E+00 0. -1.
         13    1    4    4    0    0  0.62440780222E+01  0.47027414820E+00  0.14484690361E+02  0.15780587694E+02  0.10500000000E+00 0.  1.
    3000001    1    5    5    0    0 -0.12133107861E+02 -0.35286244602E+01 -0.19400011116E+02  0.23173776737E+02  0.10000000000E+01 0.  1.
        -13    1    6    6    0    0 -0.10212140918E+02  0.35334574911E+01 -0.23660652815E+02  0.26011740822E+02  0.10500000000E+00 0.  1.
         13    1    6    6    0    0 -0.52147526585E+01  0.18897835944E+01 -0.12103697322E+02  0.13314482385E+02  0.10500000000E+00 0. -1.
</event>
<event>
11    0  0.3515428E-009  0.9118800E+02  0.7816531E-02  0.1126479E+00
         25   -1    0    0    0    0  0.00000000000E+00  0.00000000000E+00  0.99999998245E-14  0.12500000000E+03  0.12500000000E+03 0.  0.
    3000001    1    3    3    0    0 -0.75807906657E+01  0.92992535932E+01 -0.37499383727E+01  0.12609779630E+02  0.10000000000E+01 0. -1.
    1000022    2    1    0    0    0 -0.20845401651E+02  0.55664592757E+02 -0.16527926568E+02  0.62499999756E+02  0.99999977993E+01 0.  0.
    3000022    2    3    3    0    0 -0.13264610985E+02  0.46365339164E+02 -0.12777988195E+02  0.49890220126E+02  0.25000301748E+00 0.  0.
    1000022    2    1    0    0    0  0.20845401651E+02 -0.55664592757E+02  0.16527926568E+02  0.62500000244E+02  0.10000000855E+02 0.  0.
    3000022    2    5    5    0    0  0.11864871337E+02 -0.19183978847E+02  0.82253204155E+01  0.24010801956E+02  0.24999673938E+00 0.  0.
        -13    1    4    4    0    0 -0.99203384232E+01  0.34752882621E+02 -0.95927128767E+01  0.37392607962E+02  0.10500000000E+00 0. -1.
         13    1    4    4    0    0 -0.33442725622E+01  0.11612456543E+02 -0.31852753188E+01  0.12497612164E+02  0.10500000000E+00 0.  1.
    3000001    1    5    5    0    0  0.89805303138E+01 -0.36480613910E+02  0.83026061527E+01  0.38489198288E+02  0.10000000000E+01 0. -1.
        -13    1    6    6    0    0  0.43855996309E+01 -0.70776961156E+01  0.29735401760E+01  0.88419586408E+01  0.10500000000E+00 0. -1.
         13    1    6    6    0    0  0.74792717065E+01 -0.12106282732E+02  0.52517802394E+01  0.15168843315E+02  0.10500000000E+00 0.  1.
</event>
<event>
11    0  0.3515428E-009  0.9118800E+02  0.7816531E-02  0.1126479E+00
         25   -1    0    0    0    0  0.00000000000E+00  0.00000000000E+00  0.99999998245E-14  0.12500000000E+03  0.12500000000E+03 0.  0.
    3000001    1    3    3    0    0 -0.30208356687E+02 -0.84925186353E+01 -0.59911149808E+00  0.31401060828E+02  0.10000000000E+01 0. -1.
    1000022    2    1    0    0    0 -0.61247056766E+02 -0.71525454558E+01 -0.19720995107E+01  0.62500000332E+02  0.99999998035E+01 0.  0.
    3000022    2    3    3    0    0 -0.31038700079E+02  0.13399731795E+01 -0.13729880126E+01  0.31098939505E+02  0.25002306564E+00 0.  0.
    1000022    2    1    0    0    0  0.61247056766E+02  0.71525454558E+01  0.19720995107E+01  0.62499999668E+02  0.99999956502E+01 0.  0.
    3000022    2    5    5    0    0  0.15709463989E+02  0.61949739760E+01  0.12631179186E+01  0.16935847596E+02  0.25001111258E+00 0.  0.
        -13    1    4    4    0    0 -0.15041195225E+02  0.71046634776E+00 -0.69480221100E+00  0.15074352103E+02  0.10500000000E+00 0. -1.
         13    1    4    4    0    0 -0.15997504854E+02  0.62950683178E+00 -0.67818580158E+00  0.16024587401E+02  0.10500000000E+00 0.  1.
    3000001    1    5    5    0    0  0.45537592777E+02  0.95757147981E+00  0.70898159202E+00  0.45564152072E+02  0.10000000000E+01 0.  1.
        -13    1    6    6    0    0  0.67628110290E+01  0.25966337783E+01  0.54563572531E+00  0.72654568567E+01  0.10500000000E+00 0. -1.
         13    1    6    6    0    0  0.89466529596E+01  0.35983401977E+01  0.71748219334E+00  0.96703907395E+01  0.10500000000E+00 0.  1.
</event>
<event>
11    0  0.3515428E-009  0.9118800E+02  0.7816531E-02  0.1126479E+00
         25   -1    0    0    0    0  0.00000000000E+00  0.00000000000E+00  0.99999998245E-14  0.12500000000E+03  0.12500000000E+03 0.  0.
    3000001    1    3    3    0    0  0.19609788480E+02 -0.40300874391E+01 -0.88479135362E+01  0.21910522197E+02  0.10000000000E+01 0. -1.
    1000022    2    1    0    0    0  0.58526063241E+02 -0.14952531960E+02 -0.12544790856E+02  0.62499999087E+02  0.99999908893E+01 0.  0.
    3000022    2    3    3    0    0  0.38916274761E+02 -0.10922444521E+02 -0.36968773194E+01  0.40589476890E+02  0.24999345301E+00 0.  0.
    1000022    2    1    0    0    0 -0.58526063241E+02  0.14952531960E+02  0.12544790856E+02  0.62500000913E+02  0.10000002301E+02 0.  0.
    3000022    2    5    5    0    0 -0.19588115397E+02  0.58384488424E+01  0.90176031872E+01  0.22341921449E+02  0.25007421637E+00 0.  0.
        -13    1    4    4    0    0  0.99310885119E+01 -0.27775183735E+01 -0.91546679113E+00  0.10353271550E+02  0.10500000000E+00 0. -1.
         13    1    4    4    0    0  0.28985186249E+02 -0.81449261477E+01 -0.27814105283E+01  0.30236205340E+02  0.10500000000E+00 0.  1.
    3000001    1    5    5    0    0 -0.38937947844E+02  0.91140831178E+01  0.35271876684E+01  0.40158079464E+02  0.10000000000E+01 0. -1.
        -13    1    6    6    0    0 -0.11014006176E+02  0.32631805837E+01  0.51371021495E+01  0.12584018557E+02  0.10500000000E+00 0. -1.
         13    1    6    6    0    0 -0.85741092212E+01  0.25752682588E+01  0.38805010377E+01  0.97579028918E+01  0.10500000000E+00 0.  1.
</event>
<event>
11    0  0.3515428E-009  0.9118800E+02  0.7816531E-02  0.1126479E+00
         25   -1    0    0    0    0  0.00000000000E+00  0.00000000000E+00  0.99999998245E-14  0.12500000000E+03  0.12500000000E+03 0.  0.
    3000001    1    3    3    0    0 -0.93607000860E+01  0.72475186527E+01 -0.47801125574E+02  0.49255424461E+02  0.10000000000E+01 0. -1.
    1000022    2    1    0    0    0 -0.13369042235E+02  0.13694347737E+02 -0.58651373471E+02  0.62500000316E+02  0.99999989636E+01 0.  0.
    3000022    2    3    3    0    0 -0.40083421488E+01  0.64468290840E+01 -0.10850247897E+02  0.13244575855E+02  0.24999625769E+00 0.  0.
    1000022    2    1    0    0    0  0.13369042235E+02 -0.13694347737E+02  0.58651373471E+02  0.62499999684E+02  0.99999950149E+01 0.  0.
    3000022    2    5    5    0    0  0.56179777177E+01 -0.11271182442E+02  0.26770630965E+02  0.29585983310E+02  0.24999767969E+00 0.  0.
        -13    1    4    4    0    0 -0.30401622701E+01  0.49228985226E+01 -0.82661523863E+01  0.10090481493E+02  0.10500000000E+00 0. -1.
         13    1    4    4    0    0 -0.96817987874E+00  0.15239305614E+01 -0.25840955108E+01  0.31540943617E+01  0.10500000000E+00 0.  1.
    3000001    1    5    5    0    0  0.77510645171E+01 -0.24231652944E+01  0.31880742506E+02  0.32914016374E+02  0.10000000000E+01 0.  1.
        -13    1    6    6    0    0  0.18312061024E+01 -0.35755932522E+01  0.85998268678E+01  0.94924301446E+01  0.10500000000E+00 0.  1.
         13    1    6    6    0    0  0.37867716153E+01 -0.76955891901E+01  0.18170804097E+02  0.20093553165E+02  0.10500000000E+00 0. -1.
</event>
<event>
11    0  0.3515428E-009  0.9118800E+02  0.7816531E-02  0.1126479E+00
         25   -1    0    0    0    0  0.00000000000E+00  0.00000000000E+00  0.99999998245E-14  0.12500000000E+03  0.12500000000E+03 0.  0.
    3000001    1    3    3    0    0  0.16560989256E+02 -0.55386076185E+02 -0.14974332482E+02  0.59725324893E+02  0.10000000000E+01 0. -1.
    1000022    2    1    0    0    0  0.15405691757E+02 -0.57887487488E+02 -0.14763248597E+02  0.62500000490E+02  0.10000000297E+02 0.  0.
    3000022    2    3    3    0    0 -0.11552974986E+01 -0.25014113036E+01  0.21108388495E+00  0.27746755976E+01  0.24999489086E+00 0.  0.
    1000022    2    1    0    0    0 -0.15405691757E+02  0.57887487488E+02  0.14763248597E+02  0.62499999510E+02  0.99999941675E+01 0.  0.
    3000022    2    5    5    0    0 -0.61894214272E+01  0.40325185869E+02  0.11374216997E+02  0.42354041797E+02  0.24998261048E+00 0.  0.
        -13    1    4    4    0    0 -0.85921390204E+00 -0.18342186490E+01  0.18730821496E+00  0.20368396965E+01  0.10500000000E+00 0.  1.
         13    1    4    4    0    0 -0.29608359652E+00 -0.66719265461E+00  0.23775669984E-01  0.73783590112E+00  0.10500000000E+00 0. -1.
    3000001    1    5    5    0    0 -0.92162703299E+01  0.17562301619E+02  0.33890316004E+01  0.20145957712E+02  0.10000000000E+01 0.  1.
        -13    1    6    6    0    0 -0.26808713502E+01  0.17087890509E+02  0.47905142846E+01  0.17948346034E+02  0.10500000000E+00 0.  1.
         13    1    6    6    0    0 -0.35085500770E+01  0.23237295360E+02  0.65837027124E+01  0.24405695763E+02  0.10500000000E+00 0. -1.
</event>
<event>
11    0  0.3515428E-009  0.9118800E+02  0.7816531E-02  0.1126479E+00
         25   -1    0    0    0    0  0.00000000000E+00  0.00000000000E+00  0.99999998245E-14  0.12500000000E+03  0.12500000000E+03 0.  0.
    3000001    1    3    3    0    0  0.34635278929E+02 -0.82119810294E+01  0.24703123878E+02  0.43339168292E+02  0.10000000000E+01 0.  1.
    1000022    2    1    0    0    0  0.45838504563E+02 -0.16491870208E+02  0.37856303810E+02  0.62500000009E+02  0.99999989724E+01 0.  0.
    3000022    2    3    3    0    0  0.11203225634E+02 -0.82798891786E+01  0.13153179932E+02  0.19160831717E+02  0.25000068748E+00 0.  0.
    1000022    2    1    0    0    0 -0.45838504563E+02  0.16491870208E+02 -0.37856303810E+02  0.62499999991E+02  0.99999988624E+01 0.  0.
    3000022    2    5    5    0    0 -0.15951476775E+02  0.69793853813E+01 -0.19507497690E+02  0.26148927331E+02  0.25000560134E+00 0.  0.
        -13    1    4    4    0    0  0.84462605312E+01 -0.62373817126E+01  0.99451362628E+01  0.14462399797E+02  0.10500000000E+00 0.  1.
         13    1    4    4    0    0  0.27569651026E+01 -0.20425074660E+01  0.32080436694E+01  0.46984319204E+01  0.10500000000E+00 0. -1.
    3000001    1    5    5    0    0 -0.29887027787E+02  0.95124848267E+01 -0.18348806119E+02  0.36351072660E+02  0.10000000000E+01 0.  1.
        -13    1    6    6    0    0 -0.75058362837E+01  0.32107958486E+01 -0.91546512529E+01  0.12266436029E+02  0.10500000000E+00 0.  1.
         13    1    6    6    0    0 -0.84456404915E+01  0.37685895327E+01 -0.10352846438E+02  0.13882491302E+02  0.10500000000E+00 0. -1.
</event>
<event>
11    0  0.3515428E-009  0.9118800E+02  0.7816531E-02  0.1126479E+00
         25   -1    0    0    0    0  0.00000000000E+00  0.00000000000E+00  0.99999998245E-14  0.12500000000E+03  0.12500000000E+03 0.  0.
    3000001    1    3    3    0    0 -0.23591249602E-01  0.15310394567E+01 -0.16505333260E+01  0.24635134717E+01  0.10000000000E+01 0. -1.
    1000022    2    1    0    0    0  0.38395125211E+02  0.41411068692E+02 -0.24843265186E+02  0.62500000854E+02  0.10000001572E+02 0.  0.
    3000022    2    3    3    0    0  0.38418716460E+02  0.39880029235E+02 -0.23192731860E+02  0.60036487382E+02  0.24999951173E+00 0.  0.
    1000022    2    1    0    0    0 -0.38395125211E+02 -0.41411068692E+02  0.24843265186E+02  0.62499999146E+02  0.99999909014E+01 0.  0.
    3000022    2    5    5    0    0 -0.15434074409E+02 -0.22792495034E+02  0.14861005218E+02  0.31282910028E+02  0.25000193722E+00 0.  0.
        -13    1    4    4    0    0  0.26738511208E+02  0.27723553473E+02 -0.16176768981E+02  0.41776096975E+02  0.10500000000E+00 0.  1.
         13    1    4    4    0    0  0.11680205252E+02  0.12156475762E+02 -0.70159628799E+01  0.18260390407E+02  0.10500000000E+00 0. -1.
    3000001    1    5    5    0    0 -0.22961050801E+02 -0.18618573658E+02  0.99822599681E+01  0.31217089118E+02  0.10000000000E+01 0. -1.
        -13    1    6    6    0    0 -0.52842082582E+01 -0.77687858902E+01  0.50141966321E+01  0.10650356050E+02  0.10500000000E+00 0.  1.
         13    1    6    6    0    0 -0.10149866151E+02 -0.15023709144E+02  0.98468085862E+01  0.20632553978E+02  0.10500000000E+00 0. -1.
</event>
<event>
11    0  0.3515428E-009  0.9118800E+02  0.7816531E-02  0.1126479E+00
         25   -1    0    0    0    0  0.00000000000E+00  0.00000000000E+00  0.99999998245E-14  0.12500000000E+03  0.12500000000E+03 0.  0.
    3000001    1    3    3    0    0 -0.10276884044E+01  0.41087613605E+01  0.26561669385E+01  0.50983611268E+01  0.10000000000E+01 0. -1.
    1000022    2    1    0    0    0 -0.34028874752E+01  0.29437356356E+02  0.54112036014E+02  0.62500000987E+02  0.10000004472E+02 0.  0.
    3000022    2    3    3    0    0 -0.23751990708E+01  0.25328594995E+02  0.51455869076E+02  0.57401639861E+02  0.25000259973E+00 0.  0.
    1000022    2    1    0    0    0  0.34028874752E+01 -0.29437356356E+02 -0.54112036014E+02  0.62499999013E+02  0.99999921287E+01 0.  0.
    3000022    2    5    5    0    0  0.10733304600E+01 -0.27910451220E+02 -0.45457597175E+02  0.53353546870E+02  0.24999410774E+00 0.  0.
        -13    1    4    4    0    0 -0.13440046870E+01  0.14068364282E+02  0.28723842199E+02  0.32012425054E+02  0.10500000000E+00 0. -1.
         13    1    4    4    0    0 -0.10311943838E+01  0.11260230713E+02  0.22732026877E+02  0.25389214807E+02  0.10500000000E+00 0.  1.
    3000001    1    5    5    0    0  0.23295570152E+01 -0.15269051355E+01 -0.86544388392E+01  0.91464521428E+01  0.10000000000E+01 0. -1.
        -13    1    6    6    0    0  0.36252798512E+00 -0.93335468998E+01 -0.15304705272E+02  0.17930185519E+02  0.10500000000E+00 0.  1.
         13    1    6    6    0    0  0.71080247492E+00 -0.18576904320E+02 -0.30152891903E+02  0.35423361351E+02  0.10500000000E+00 0. -1.
</event>
<event>
11    0  0.3515428E-009  0.9118800E+02  0.7816531E-02  0.1126479E+00
         25   -1    0    0    0    0  0.00000000000E+00  0.00000000000E+00  0.99999998245E-14  0.12500000000E+03  0.12500000000E+03 0.  0.
    3000001    1    3    3    0    0  0.91876911080E+01 -0.46542892601E+00  0.21843534956E+02  0.23722780431E+02  0.10000000000E+01 0.  1.
    1000022    2    1    0    0    0  0.31557655886E+02 -0.98896404073E+01  0.52082235791E+02  0.62499998138E+02  0.99999924972E+01 0.  0.
    3000022    2    3    3    0    0  0.22369964778E+02 -0.94242114813E+01  0.30238700834E+02  0.38777217707E+02  0.24999756484E+00 0.  0.
    1000022    2    1    0    0    0 -0.31557655886E+02  0.98896404073E+01 -0.52082235791E+02  0.62500001862E+02  0.10000015769E+02 0.  0.
    3000022    2    5    5    0    0 -0.11806912053E+02  0.71508982675E+01 -0.27997406145E+02  0.31216274310E+02  0.25002541856E+00 0.  0.
        -13    1    4    4    0    0  0.54574353862E+01 -0.22753305038E+01  0.73616889386E+01  0.94427866081E+01  0.10500000000E+00 0.  1.
         13    1    4    4    0    0  0.16912529391E+02 -0.71488809775E+01  0.22877011896E+02  0.29334431099E+02  0.10500000000E+00 0. -1.
    3000001    1    5    5    0    0 -0.19750743833E+02  0.27387421398E+01 -0.24084829646E+02  0.31283727552E+02  0.10000000000E+01 0. -1.
        -13    1    6    6    0    0 -0.48366245393E+01  0.28908647973E+01 -0.11553127826E+02  0.12854408729E+02  0.10500000000E+00 0. -1.
         13    1    6    6    0    0 -0.69702875139E+01  0.42600334702E+01 -0.16444278319E+02  0.18361865581E+02  0.10500000000E+00 0.  1.
</event>
<event>
11    0  0.3515428E-009  0.9118800E+02  0.7816531E-02  0.1126479E+00
         25   -1    0    0    0    0  0.00000000000E+00  0.00000000000E+00  0.99999998245E-14  0.12500000000E+03  0.12500000000E+03 0.  0.
    3000001    1    3    3    0    0  0.11043452988E+02 -0.47992764933E+01  0.31505944838E+02  0.33743376667E+02  0.10000000000E+01 0. -1.
    1000022    2    1    0    0    0  0.25799717201E+02 -0.18565827916E+01  0.56010516455E+02  0.62499998753E+02  0.99999791592E+01 0.  0.
    3000022    2    3    3    0    0  0.14756264213E+02  0.29426937017E+01  0.24504571618E+02  0.28756622086E+02  0.25000777829E+00 0.  0.
    1000022    2    1    0    0    0 -0.25799717201E+02  0.18565827916E+01 -0.56010516455E+02  0.62500001247E+02  0.99999947479E+01 0.  0.
    3000022    2    5    5    0    0 -0.55320521649E+01  0.45978234615E+01 -0.16394894078E+02  0.17905268568E+02  0.25001779583E+00 0.  0.
        -13    1    4    4    0    0  0.42587069191E+01  0.84099529931E+00  0.71506004430E+01  0.83657617353E+01  0.10500000000E+00 0. -1.
         13    1    4    4    0    0  0.10497557294E+02  0.21016984023E+01  0.17353971174E+02  0.20390860351E+02  0.10500000000E+00 0.  1.
    3000001    1    5    5    0    0 -0.20267665036E+02 -0.27412406699E+01 -0.39615622377E+02  0.44594732679E+02  0.10000000000E+01 0. -1.
        -13    1    6    6    0    0 -0.33448240267E+01  0.27352612428E+01 -0.99770135438E+01  0.10872963078E+02  0.10500000000E+00 0. -1.
         13    1    6    6    0    0 -0.21872281382E+01  0.18625622187E+01 -0.64178805347E+01  0.70323054900E+01  0.10500000000E+00 0.  1.
</event>
<event>
11    0  0.3515428E-009  0.9118800E+02  0.7816531E-02  0.1126479E+00
         25   -1    0    0    0    0  0.00000000000E+00  0.00000000000E+00  0.99999998245E-14  0.12500000000E+03  0.12500000000E+03 0.  0.
    3000001    1    3    3    0    0 -0.11084412760E+02  0.13867267715E+02 -0.11266063614E+02  0.21049691435E+02  0.10000000000E+01 0.  1.
    1000022    2    1    0    0    0 -0.20398386338E+02  0.43324597000E+02 -0.38899037575E+02  0.62500000198E+02  0.10000001503E+02 0.  0.
    3000022    2    3    3    0    0 -0.93139735778E+01  0.29457329285E+02 -0.27632973961E+02  0.41450308763E+02  0.24998853536E+00 0.  0.
    1000022    2    1    0    0    0  0.20398386338E+02 -0.43324597000E+02  0.38899037575E+02  0.62499999802E+02  0.99999990294E+01 0.  0.
    3000022    2    5    5    0    0  0.91028141879E+01 -0.17082749609E+02  0.21946869486E+02  0.29264469001E+02  0.25001068960E+00 0.  0.
        -13    1    4    4    0    0 -0.44759113658E+01  0.13952505672E+02 -0.13067976208E+02  0.19633879501E+02  0.10500000000E+00 0.  1.
         13    1    4    4    0    0 -0.48380622119E+01  0.15504823613E+02 -0.14564997752E+02  0.21816429262E+02  0.10500000000E+00 0. -1.
    3000001    1    5    5    0    0  0.11295572150E+02 -0.26241847391E+02  0.16952168089E+02  0.33235530801E+02  0.10000000000E+01 0. -1.
        -13    1    6    6    0    0  0.20932479357E+01 -0.39337911275E+01  0.50430924437E+01  0.67305427680E+01  0.10500000000E+00 0.  1.
         13    1    6    6    0    0  0.70095662522E+01 -0.13148958481E+02  0.16903777042E+02  0.22533926233E+02  0.10500000000E+00 0. -1.
</event>
<event>
11    0  0.3515428E-009  0.9118800E+02  0.7816531E-02  0.1126479E+00
         25   -1    0    0    0    0  0.00000000000E+00  0.00000000000E+00  0.99999998245E-14  0.12500000000E+03  0.12500000000E+03 0.  0.
    3000001    1    3    3    0    0 -0.30953814309E+02  0.87385202949E+01 -0.83094098765E+01  0.33234720545E+02  0.10000000000E+01 0. -1.
    1000022    2    1    0    0    0 -0.57602893278E+02  0.84875850988E+01 -0.20398976118E+02  0.62499998403E+02  0.99999579439E+01 0.  0.
    3000022    2    3    3    0    0 -0.26649078969E+02 -0.25093519611E+00 -0.12089566242E+02  0.29265277858E+02  0.24999561092E+00 0.  0.
    1000022    2    1    0    0    0  0.57602893278E+02 -0.84875850988E+01  0.20398976118E+02  0.62500001597E+02  0.99999779067E+01 0.  0.
    3000022    2    5    5    0    0  0.20345952661E+02 -0.77841205860E+01  0.81990408574E+01  0.23277394508E+02  0.25000226300E+00 0.  0.
        -13    1    4    4    0    0 -0.20415537877E+02 -0.19460047372E+00 -0.92756819435E+01  0.22425016314E+02  0.10500000000E+00 0.  1.
         13    1    4    4    0    0 -0.62335410916E+01 -0.56334722392E-01 -0.28138842982E+01  0.68402615437E+01  0.10500000000E+00 0. -1.
    3000001    1    5    5    0    0  0.37256940617E+02 -0.70346451278E+00  0.12199935261E+02  0.39222607089E+02  0.10000000000E+01 0. -1.
        -13    1    6    6    0    0  0.12051010979E+02 -0.46708756941E+01  0.48325679954E+01  0.13798865309E+02  0.10500000000E+00 0. -1.
         13    1    6    6    0    0  0.82949416816E+01 -0.31132448919E+01  0.33664728619E+01  0.94785291996E+01  0.10500000000E+00 0.  1.
</event>
<event>
11    0  0.3515428E-009  0.9118800E+02  0.7816531E-02  0.1126479E+00
         25   -1    0    0    0    0  0.00000000000E+00  0.00000000000E+00  0.99999998245E-14  0.12500000000E+03  0.12500000000E+03 0.  0.
    3000001    1    3    3    0    0 -0.18732276793E+01  0.27313898924E+01  0.11711530316E+01  0.36525432381E+01  0.10000000000E+01 0. -1.
    1000022    2    1    0    0    0 -0.56815875473E+02  0.22512397678E+02  0.84497477360E+01  0.62500000759E+02  0.10000005153E+02 0.  0.
    3000022    2    3    3    0    0 -0.54942647794E+02  0.19781007786E+02  0.72785947044E+01  0.58847457521E+02  0.25000034488E+00 0.  0.
    1000022    2    1    0    0    0  0.56815875473E+02 -0.22512397678E+02 -0.84497477360E+01  0.62499999241E+02  0.99999956696E+01 0.  0.
    3000022    2    5    5    0    0  0.56305475151E+02 -0.21258623909E+02 -0.86545244268E+01  0.60804596444E+02  0.25006634799E+00 0.  0.
        -13    1    4    4    0    0 -0.37694674152E+02  0.13570809841E+02  0.49438680635E+01  0.40367167297E+02  0.10500000000E+00 0. -1.
         13    1    4    4    0    0 -0.17247973641E+02  0.62101979448E+01  0.23347266409E+01  0.18480290223E+02  0.10500000000E+00 0.  1.
    3000001    1    5    5    0    0  0.51040032214E+00 -0.12537737690E+01  0.20477669085E+00  0.16954027975E+01  0.10000000000E+01 0.  1.
        -13    1    6    6    0    0  0.39882884999E+02 -0.15048751529E+02 -0.60866707910E+01  0.43060051379E+02  0.10500000000E+00 0.  1.
         13    1    6    6    0    0  0.16422590152E+02 -0.62098723806E+01 -0.25678536359E+01  0.17744545065E+02  0.10500000000E+00 0. -1.
</event>
<event>
11    0  0.3515428E-009  0.9118800E+02  0.7816531E-02  0.1126479E+00
         25   -1    0    0    0    0  0.00000000000E+00  0.00000000000E+00  0.99999998245E-14  0.12500000000E+03  0.12500000000E+03 0.  0.
    3000001    1    3    3    0    0 -0.12465965484E+01  0.12672680930E+02  0.27406723806E+02  0.30237052678E+02  0.10000000000E+01 0.  1.
    1000022    2    1    0    0    0 -0.10663453455E+02  0.30768102765E+02  0.52400998015E+02  0.62499999383E+02  0.99999971297E+01 0.  0.
    3000022    2    3    3    0    0 -0.94168569071E+01  0.18095421835E+02  0.24994274210E+02  0.32262946705E+02  0.25000289515E+00 0.  0.
    1000022    2    1    0    0    0  0.10663453455E+02 -0.30768102765E+02 -0.52400998015E+02  0.62500000617E+02  0.10000004839E+02 0.  0.
    3000022    2    5    5    0    0  0.11227725228E+02 -0.18734603809E+02 -0.31026326727E+02  0.37943940826E+02  0.25000318284E+00 0.  0.
        -13    1    4    4    0    0 -0.60704932632E+01  0.11539569241E+02  0.15984670319E+02  0.20628457454E+02  0.10500000000E+00 0. -1.
         13    1    4    4    0    0 -0.33463636439E+01  0.65558525939E+01  0.90096038903E+01  0.11634489251E+02  0.10500000000E+00 0.  1.
    3000001    1    5    5    0    0 -0.56427177282E+00 -0.12033498956E+02 -0.21374671289E+02  0.24556059791E+02  0.10000000000E+01 0. -1.
        -13    1    6    6    0    0  0.83324197275E+01 -0.13861121410E+02 -0.22933607815E+02  0.28062809867E+02  0.10500000000E+00 0.  1.
         13    1    6    6    0    0  0.28953055008E+01 -0.48734823988E+01 -0.80927189120E+01  0.98811309587E+01  0.10500000000E+00 0. -1.
</event>
<event>
11    0  0.3515428E-009  0.9118800E+02  0.7816531E-02  0.1126479E+00
         25   -1    0    0    0    0  0.00000000000E+00  0.00000000000E+00  0.99999998245E-14  0.12500000000E+03  0.12500000000E+03 0.  0.
    3000001    1    3    3    0    0  0.38102835718E+02 -0.23260979564E+02  0.96206271766E+01  0.45677737765E+02  0.10000000000E+01 0. -1.
    1000022    2    1    0    0    0  0.54407377982E+02 -0.26302761324E+02  0.12419820206E+02  0.62500000291E+02  0.10000003514E+02 0.  0.
    3000022    2    3    3    0    0  0.16304542264E+02 -0.30417817595E+01  0.27991930294E+01  0.16822262526E+02  0.25000033495E+00 0.  0.
    1000022    2    1    0    0    0 -0.54407377982E+02  0.26302761324E+02 -0.12419820206E+02  0.62499999709E+02  0.99999998763E+01 0.  0.
    3000022    2    5    5    0    0 -0.11812238952E+02  0.15751105596E+01 -0.36254168443E+01  0.12458575750E+02  0.25000019850E+00 0.  0.
        -13    1    4    4    0    0  0.94514072327E+01 -0.16972737857E+01  0.16187683767E+01  0.97386484195E+01  0.10500000000E+00 0. -1.
         13    1    4    4    0    0  0.68531350311E+01 -0.13445079738E+01  0.11804246527E+01  0.70836141063E+01  0.10500000000E+00 0.  1.
    3000001    1    5    5    0    0 -0.42595139030E+02  0.24727650764E+02 -0.87944033617E+01  0.50041423959E+02  0.10000000000E+01 0.  1.
        -13    1    6    6    0    0 -0.51512089176E+01  0.65268211877E+00 -0.16387913581E+01  0.54458800369E+01  0.10500000000E+00 0.  1.
         13    1    6    6    0    0 -0.66610300345E+01  0.92242844082E+00 -0.19866254862E+01  0.70126957136E+01  0.10500000000E+00 0. -1.
</event>
<event>
11    0  0.3515428E-009  0.9118800E+02  0.7816531E-02  0.1126479E+00
         25   -1    0    0    0    0  0.00000000000E+00  0.00000000000E+00  0.99999998245E-14  0.12500000000E+03  0.12500000000E+03 0.  0.
    3000001    1    3    3    0    0  0.67545899146E+00  0.53641872290E+01  0.69799615286E+01  0.88854157144E+01  0.10000000000E+01 0.  1.
    1000022    2    1    0    0    0  0.20373200829E+02  0.20753925660E+02  0.54410082494E+02  0.62500002883E+02  0.10000027054E+02 0.  0.
    3000022    2    3    3    0    0  0.19697741838E+02  0.15389738431E+02  0.47430120965E+02  0.53614587169E+02  0.25000004375E+00 0.  0.
    1000022    2    1    0    0    0 -0.20373200829E+02 -0.20753925660E+02 -0.54410082494E+02  0.62499997117E+02  0.99999910149E+01 0.  0.
    3000022    2    5    5    0    0 -0.46899540601E+01  0.30787733232E-01 -0.83214008911E+01  0.95553551600E+01  0.24996494609E+00 0.  0.
        -13    1    4    4    0    0  0.12876827366E+02  0.10063854958E+02  0.31128849527E+02  0.35158358288E+02  0.10500000000E+00 0.  1.
         13    1    4    4    0    0  0.68209144718E+01  0.53258834725E+01  0.16301271438E+02  0.18456228880E+02  0.10500000000E+00 0. -1.
    3000001    1    5    5    0    0 -0.15683246769E+02 -0.20784713393E+02 -0.46088681603E+02  0.52944641957E+02  0.10000000000E+01 0. -1.
        -13    1    6    6    0    0 -0.35243555860E+01  0.47633018681E-02 -0.62108045663E+01  0.71418641367E+01  0.10500000000E+00 0.  1.
         13    1    6    6    0    0 -0.11655984740E+01  0.26024431363E-01 -0.21105963247E+01  0.24134910233E+01  0.10500000000E+00 0. -1.
</event>
<event>
11    0  0.3515428E-009  0.9118800E+02  0.7816531E-02  0.1126479E+00
         25   -1    0    0    0    0  0.00000000000E+00  0.00000000000E+00  0.99999998245E-14  0.12500000000E+03  0.12500000000E+03 0.  0.
    3000001    1    3    3    0    0 -0.36773467804E+02 -0.65301720574E+01 -0.41638359918E+02  0.55943579596E+02  0.10000000000E+01 0.  1.
    1000022    2    1    0    0    0 -0.38685907286E+02 -0.52458913632E+01 -0.47771658368E+02  0.62500000224E+02  0.99999942998E+01 0.  0.
    3000022    2    3    3    0    0 -0.19124394825E+01  0.12842806942E+01 -0.61332984507E+01  0.65564206278E+01  0.24999977605E+00 0.  0.
    1000022    2    1    0    0    0  0.38685907286E+02  0.52458913632E+01  0.47771658368E+02  0.62499999776E+02  0.99999914978E+01 0.  0.
    3000022    2    5    5    0    0  0.84384899071E+00 -0.10036920544E+00 -0.42421706422E+00  0.98214637678E+00  0.24999258254E+00 0.  0.
        -13    1    4    4    0    0 -0.14612476448E+01  0.99457803467E+00 -0.47097420859E+01  0.50316126304E+01  0.10500000000E+00 0.  1.
         13    1    4    4    0    0 -0.45119183767E+00  0.28970265949E+00 -0.14235563647E+01  0.15248079974E+01  0.10500000000E+00 0. -1.
    3000001    1    5    5    0    0  0.37842058296E+02  0.53462605687E+01  0.48195875432E+02  0.61517853399E+02  0.10000000000E+01 0.  1.
        -13    1    6    6    0    0  0.39747739109E+00 -0.71786357223E-01 -0.13227422971E+00  0.43779336376E+00  0.10500000000E+00 0. -1.
         13    1    6    6    0    0  0.44637159962E+00 -0.28582848220E-01 -0.29194283450E+00  0.54435301301E+00  0.10500000000E+00 0.  1.
</event>
<event>
11    0  0.3515428E-009  0.9118800E+02  0.7816531E-02  0.1126479E+00
         25   -1    0    0    0    0  0.00000000000E+00  0.00000000000E+00  0.99999998245E-14  0.12500000000E+03  0.12500000000E+03 0.  0.
    3000001    1    3    3    0    0 -0.55035246868E+01  0.20155675015E+02  0.21439271452E+02  0.29953002849E+02  0.10000000000E+01 0.  1.
    1000022    2    1    0    0    0 -0.84127170281E+01  0.48451046376E+02  0.37255498384E+02  0.62499999240E+02  0.10000002123E+02 0.  0.
    3000022    2    3    3    0    0 -0.29091923412E+01  0.28295371361E+02  0.15816226932E+02  0.32546996391E+02  0.24999835888E+00 0.  0.
    1000022    2    1    0    0    0  0.84127170281E+01 -0.48451046376E+02 -0.37255498384E+02  0.62500000760E+02  0.10000011622E+02 0.  0.
    3000022    2    5    5    0    0  0.47202573339E+01 -0.31027161566E+02 -0.17707487412E+02  0.36035859863E+02  0.25000294692E+00 0.  0.
        -13    1    4    4    0    0 -0.15840177137E+01  0.15999574093E+02  0.89689776385E+01  0.18410569469E+02  0.10500000000E+00 0. -1.
         13    1    4    4    0    0 -0.13251746275E+01  0.12295797268E+02  0.68472492938E+01  0.14136426922E+02  0.10500000000E+00 0.  1.
    3000001    1    5    5    0    0  0.36924596941E+01 -0.17423884810E+02 -0.19548010972E+02  0.26464140897E+02  0.10000000000E+01 0. -1.
        -13    1    6    6    0    0  0.17593143986E+01 -0.11855108722E+02 -0.67132766987E+01  0.13737463339E+02  0.10500000000E+00 0. -1.
         13    1    6    6    0    0  0.29609429354E+01 -0.19172052844E+02 -0.10994210714E+02  0.22298396524E+02  0.10500000000E+00 0.  1.
</event>
<event>
11    0  0.3515428E-009  0.9118800E+02  0.7816531E-02  0.1126479E+00
         25   -1    0    0    0    0  0.00000000000E+00  0.00000000000E+00  0.99999998245E-14  0.12500000000E+03  0.12500000000E+03 0.  0.
    3000001    1    3    3    0    0  0.24899540199E+02 -0.35708176832E+02 -0.56492866645E+01  0.43908717068E+02  0.10000000000E+01 0.  1.
    1000022    2    1    0    0    0  0.39529882764E+02 -0.46277625648E+02 -0.10100476805E+02  0.62499999052E+02  0.99999991404E+01 0.  0.
    3000022    2    3    3    0    0  0.14630342565E+02 -0.10569448817E+02 -0.44511901404E+01  0.18591281984E+02  0.25000053199E+00 0.  0.
    1000022    2    1    0    0    0 -0.39529882764E+02  0.46277625648E+02  0.10100476805E+02  0.62500000948E+02  0.10000010992E+02 0.  0.
    3000022    2    5    5    0    0 -0.40026486643E+01  0.18377797826E+01 -0.99962159173E+00  0.45233121175E+01  0.24995664964E+00 0.  0.
        -13    1    4    4    0    0  0.82988349757E+01 -0.60758666639E+01 -0.25302472566E+01  0.10592449851E+02  0.10500000000E+00 0. -1.
         13    1    4    4    0    0  0.63315075898E+01 -0.44935821528E+01 -0.19209428838E+01  0.79988321327E+01  0.10500000000E+00 0.  1.
    3000001    1    5    5    0    0 -0.35527234100E+02  0.44439845866E+02  0.11100098397E+02  0.57976688831E+02  0.10000000000E+01 0.  1.
        -13    1    6    6    0    0 -0.25972917034E+01  0.11926614747E+01 -0.59005651904E+00  0.29201981579E+01  0.10500000000E+00 0. -1.
         13    1    6    6    0    0 -0.14053569609E+01  0.64511830792E+00 -0.40956507269E+00  0.16031139596E+01  0.10500000000E+00 0.  1.
</event>
<event>
11    0  0.3515428E-009  0.9118800E+02  0.7816531E-02  0.1126479E+00
         25   -1    0    0    0    0  0.00000000000E+00  0.00000000000E+00  0.99999998245E-14  0.12500000000E+03  0.12500000000E+03 0.  0.
    3000001    1    3    3    0    0  0.97037733130E+01  0.22223976848E+01  0.55160349987E+01  0.11424924949E+02  0.10000000000E+01 0.  1.
    1000022    2    1    0    0    0  0.47993642489E+02 -0.60187555151E+01  0.38296668644E+02  0.62499998422E+02  0.99999918118E+01 0.  0.
    3000022    2    3    3    0    0  0.38289869176E+02 -0.82411531999E+01  0.32780633645E+02  0.51075073473E+02  0.25000109313E+00 0.  0.
    1000022    2    1    0    0    0 -0.47993642489E+02  0.60187555151E+01 -0.38296668644E+02  0.62500001578E+02  0.10000011541E+02 0.  0.
    3000022    2    5    5    0    0 -0.21378301150E+02  0.73637703600E+01 -0.19676051063E+02  0.29974429199E+02  0.25009280637E+00 0.  0.
        -13    1    4    4    0    0  0.11463053001E+02 -0.24488678108E+01  0.97560411281E+01  0.15250898372E+02  0.10500000000E+00 0. -1.
         13    1    4    4    0    0  0.26826816175E+02 -0.57922853891E+01  0.23024592517E+02  0.35824175101E+02  0.10500000000E+00 0.  1.
    3000001    1    5    5    0    0 -0.26615341339E+02 -0.13450148449E+01 -0.18620617581E+02  0.32525572379E+02  0.10000000000E+01 0. -1.
        -13    1    6    6    0    0 -0.11510447427E+02  0.39429028031E+01 -0.10672439249E+02  0.16184834476E+02  0.10500000000E+00 0. -1.
         13    1    6    6    0    0 -0.98678537231E+01  0.34208675568E+01 -0.90036118131E+01  0.13789594723E+02  0.10500000000E+00 0.  1.
</event>
<event>
11    0  0.3515428E-009  0.9118800E+02  0.7816531E-02  0.1126479E+00
         25   -1    0    0    0    0  0.00000000000E+00  0.00000000000E+00  0.99999998245E-14  0.12500000000E+03  0.12500000000E+03 0.  0.
    3000001    1    3    3    0    0  0.26998685329E+01 -0.23677345465E+00  0.69960882407E+01  0.75690555841E+01  0.10000000000E+01 0. -1.
    1000022    2    1    0    0    0  0.84350851965E+01  0.19798590388E+02  0.57819677378E+02  0.62499996088E+02  0.99999787647E+01 0.  0.
    3000022    2    3    3    0    0  0.57352166636E+01  0.20035363843E+02  0.50823589137E+02  0.54930940504E+02  0.24999473800E+00 0.  0.
    1000022    2    1    0    0    0 -0.84350851965E+01 -0.19798590388E+02 -0.57819677378E+02  0.62500003912E+02  0.10000027659E+02 0.  0.
    3000022    2    5    5    0    0 -0.87172553465E+01 -0.88893389603E+01 -0.35802361172E+02  0.37906232350E+02  0.24999505826E+00 0.  0.
        -13    1    4    4    0    0  0.31713621382E+01  0.11141174528E+02  0.28080394016E+02  0.30376024440E+02  0.10500000000E+00 0.  1.
         13    1    4    4    0    0  0.25638545254E+01  0.88941893147E+01  0.22743195121E+02  0.24554916064E+02  0.10500000000E+00 0. -1.
    3000001    1    5    5    0    0  0.28217014997E+00 -0.10909251428E+02 -0.22017316206E+02  0.24593771562E+02  0.10000000000E+01 0. -1.
        -13    1    6    6    0    0 -0.50250650769E+01 -0.50419389808E+01 -0.20374129722E+02  0.21582136471E+02  0.10500000000E+00 0. -1.
         13    1    6    6    0    0 -0.36921902696E+01 -0.38473999795E+01 -0.15428231450E+02  0.16324095879E+02  0.10500000000E+00 0.  1.
</event>
<event>
11    0  0.3515428E-009  0.9118800E+02  0.7816531E-02  0.1126479E+00
         25   -1    0    0    0    0  0.00000000000E+00  0.00000000000E+00  0.99999998245E-14  0.12500000000E+03  0.12500000000E+03 0.  0.
    3000001    1    3    3    0    0  0.13796024033E+02  0.13152297685E+02 -0.24953127745E+02  0.31416107298E+02  0.10000000000E+01 0.  1.
    1000022    2    1    0    0    0  0.21743549753E+02  0.33696497369E+02 -0.46882985669E+02  0.62500001536E+02  0.99999977998E+01 0.  0.
    3000022    2    3    3    0    0  0.79475257193E+01  0.20544199683E+02 -0.21929857924E+02  0.31083894237E+02  0.25001342720E+00 0.  0.
    1000022    2    1    0    0    0 -0.21743549753E+02 -0.33696497369E+02  0.46882985669E+02  0.62499998464E+02  0.99999786016E+01 0.  0.
    3000022    2    5    5    0    0  0.72739589923E+00 -0.88206454765E-01  0.16634802096E+01  0.18348165999E+01  0.25000074936E+00 0.  0.
        -13    1    4    4    0    0  0.56710373507E+01  0.14609020143E+02 -0.15546573781E+02  0.22074671356E+02  0.10500000000E+00 0. -1.
         13    1    4    4    0    0  0.22764883685E+01  0.59351795403E+01 -0.63832841433E+01  0.90092228811E+01  0.10500000000E+00 0.  1.
    3000001    1    5    5    0    0 -0.22470945652E+02 -0.33608290914E+02  0.45219505459E+02  0.60665181864E+02  0.10000000000E+01 0. -1.
        -13    1    6    6    0    0  0.35197278043E+00 -0.30954804076E-01  0.96288172077E+00  0.10310233975E+01  0.10500000000E+00 0.  1.
         13    1    6    6    0    0  0.37542311881E+00 -0.57251650688E-01  0.70059848883E+00  0.80379320238E+00  0.10500000000E+00 0. -1.
</event>
<event>
11    0  0.3515428E-009  0.9118800E+02  0.7816531E-02  0.1126479E+00
         25   -1    0    0    0    0  0.00000000000E+00  0.00000000000E+00  0.99999998245E-14  0.12500000000E+03  0.12500000000E+03 0.  0.
    3000001    1    3    3    0    0  0.15222755516E+02 -0.80283467729E+01  0.13350596451E+02  0.21804244151E+02  0.10000000000E+01 0. -1.
    1000022    2    1    0    0    0  0.33012583309E+02 -0.23507531883E+02  0.46516828192E+02  0.62500000305E+02  0.10000001057E+02 0.  0.
    3000022    2    3    3    0    0  0.17789827793E+02 -0.15479185110E+02  0.33166231740E+02  0.40695756154E+02  0.24999297075E+00 0.  0.
    1000022    2    1    0    0    0 -0.33012583309E+02  0.23507531883E+02 -0.46516828192E+02  0.62499999695E+02  0.99999972485E+01 0.  0.
    3000022    2    5    5    0    0 -0.83913686604E+01  0.84641655492E+01 -0.20089399556E+02  0.23360300339E+02  0.24998194405E+00 0.  0.
        -13    1    4    4    0    0  0.12462608094E+02 -0.10867272026E+02  0.23182967860E+02  0.28475870936E+02  0.10500000000E+00 0. -1.
         13    1    4    4    0    0  0.53272196990E+01 -0.46119130837E+01  0.99832638808E+01  0.12219885217E+02  0.10500000000E+00 0.  1.
    3000001    1    5    5    0    0 -0.24621214648E+02  0.15043366334E+02 -0.26427428636E+02  0.39139699356E+02  0.10000000000E+01 0.  1.
        -13    1    6    6    0    0 -0.22992547511E+01  0.23274879405E+01 -0.55894394902E+01  0.64773938693E+01  0.10500000000E+00 0. -1.
         13    1    6    6    0    0 -0.60921139094E+01  0.61366776087E+01 -0.14499960066E+02  0.16882906470E+02  0.10500000000E+00 0.  1.
</event>
<event>
11    0  0.3515428E-009  0.9118800E+02  0.7816531E-02  0.1126479E+00
         25   -1    0    0    0    0  0.00000000000E+00  0.00000000000E+00  0.99999998245E-14  0.12500000000E+03  0.12500000000E+03 0.  0.
    3000001    1    3    3    0    0  0.18918889733E+02 -0.11734562789E+02  0.31988753198E+01  0.22513488310E+02  0.10000000000E+01 0. -1.
    1000022    2    1    0    0    0  0.47966201934E+02 -0.32497413030E+02  0.21199328999E+02  0.62500000000E+02  0.10000003422E+02 0.  0.
    3000022    2    3    3    0    0  0.29047312201E+02 -0.20762850241E+02  0.18000453680E+02  0.39986511690E+02  0.24997654579E+00 0.  0.
    1000022    2    1    0    0    0 -0.47966201934E+02  0.32497413030E+02 -0.21199328999E+02  0.62500000000E+02  0.10000003417E+02 0.  0.
    3000022    2    5    5    0    0 -0.29810103272E+02  0.25572493479E+02 -0.15504496547E+02  0.42226136380E+02  0.25000121604E+00 0.  0.
        -13    1    4    4    0    0  0.19586106678E+02 -0.14031209327E+02  0.12197024830E+02  0.27004978239E+02  0.10500000000E+00 0.  1.
         13    1    4    4    0    0  0.94612055226E+01 -0.67316409136E+01  0.58034288496E+01  0.12981533451E+02  0.10500000000E+00 0. -1.
    3000001    1    5    5    0    0 -0.18156098662E+02  0.69249195511E+01 -0.56948324527E+01  0.20273863620E+02  0.10000000000E+01 0. -1.
        -13    1    6    6    0    0 -0.22407573608E+02  0.19253059109E+02 -0.11652585695E+02  0.31758044940E+02  0.10500000000E+00 0.  1.
         13    1    6    6    0    0 -0.74025296642E+01  0.63194343701E+01 -0.38519108517E+01  0.10468091440E+02  0.10500000000E+00 0. -1.
</event>
<event>
11    0  0.3515428E-009  0.9118800E+02  0.7816531E-02  0.1126479E+00
         25   -1    0    0    0    0  0.00000000000E+00  0.00000000000E+00  0.99999998245E-14  0.12500000000E+03  0.12500000000E+03 0.  0.
    3000001    1    3    3    0    0  0.18909731107E+01 -0.86932244119E+00  0.12965756906E+02  0.13169751439E+02  0.10000000000E+01 0. -1.
    1000022    2    1    0    0    0  0.37920688329E+01  0.13963650965E+02  0.59974057219E+02  0.62500006471E+02  0.99999967670E+01 0.  0.
    3000022    2    3    3    0    0  0.19010957222E+01  0.14832973406E+02  0.47008300312E+02  0.49330255032E+02  0.24999656013E+00 0.  0.
    1000022    2    1    0    0    0 -0.37920688329E+01 -0.13963650965E+02 -0.59974057219E+02  0.62499993529E+02  0.99999158762E+01 0.  0.
    3000022    2    5    5    0    0  0.20689706604E+01 -0.94184604406E+01 -0.40611526561E+02  0.41741425796E+02  0.25000242265E+00 0.  0.
        -13    1    4    4    0    0  0.14046316956E+01  0.10686504609E+02  0.33940301093E+02  0.35610805021E+02  0.10500000000E+00 0. -1.
         13    1    4    4    0    0  0.49646402661E+00  0.41464687969E+01  0.13067999219E+02  0.13719450011E+02  0.10500000000E+00 0.  1.
    3000001    1    5    5    0    0 -0.58610394933E+01 -0.45451905244E+01 -0.19362530657E+02  0.20758567732E+02  0.10000000000E+01 0. -1.
        -13    1    6    6    0    0  0.70854993028E+00 -0.30398607567E+01 -0.13290923079E+02  0.13652928540E+02  0.10500000000E+00 0.  1.
         13    1    6    6    0    0  0.13604207301E+01 -0.63785996839E+01 -0.27320603482E+02  0.28088497257E+02  0.10500000000E+00 0. -1.
</event>
<event>
11    0  0.3515428E-009  0.9118800E+02  0.7816531E-02  0.1126479E+00
         25   -1    0    0    0    0  0.00000000000E+00  0.00000000000E+00  0.99999998245E-14  0.12500000000E+03  0.12500000000E+03 0.  0.
    3000001    1    3    3    0    0  0.34078710093E+02 -0.21096957354E+02 -0.37745242114E+02  0.55064901647E+02  0.10000000000E+01 0.  1.
    1000022    2    1    0    0    0  0.35355637935E+02 -0.24497664144E+02 -0.44227743779E+02  0.62499999205E+02  0.99999949260E+01 0.  0.
    3000022    2    3    3    0    0  0.12769278418E+01 -0.34007067904E+01 -0.64825016650E+01  0.74350975574E+01  0.24999292857E+00 0.  0.
    1000022    2    1    0    0    0 -0.35355637935E+02  0.24497664144E+02  0.44227743779E+02  0.62500000795E+02  0.10000004866E+02 0.  0.
    3000022    2    5    5    0    0 -0.91698399682E+01  0.75967850823E+01  0.18842386474E+02  0.22291144884E+02  0.25000712147E+00 0.  0.
        -13    1    4    4    0    0  0.78819998232E+00 -0.19293162192E+01 -0.37694753811E+01  0.43085368670E+01  0.10500000000E+00 0. -1.
         13    1    4    4    0    0  0.48872785948E+00 -0.14713905712E+01 -0.27130262839E+01  0.31265606904E+01  0.10500000000E+00 0.  1.
    3000001    1    5    5    0    0 -0.26185797967E+02  0.16900879062E+02  0.25385357305E+02  0.40208855912E+02  0.10000000000E+01 0. -1.
        -13    1    6    6    0    0 -0.35666647742E+01  0.29922977647E+01  0.74705388409E+01  0.88031198503E+01  0.10500000000E+00 0.  1.
         13    1    6    6    0    0 -0.56031751940E+01  0.46044873176E+01  0.11371847633E+02  0.13488025033E+02  0.10500000000E+00 0. -1.
</event>
<event>
11    0  0.3515428E-009  0.9118800E+02  0.7816531E-02  0.1126479E+00
         25   -1    0    0    0    0  0.00000000000E+00  0.00000000000E+00  0.99999998245E-14  0.12500000000E+03  0.12500000000E+03 0.  0.
    3000001    1    3    3    0    0 -0.14892730163E+02  0.66674346735E+01  0.15641471401E+01  0.16422382686E+02  0.10000000000E+01 0.  1.
    1000022    2    1    0    0    0 -0.54803300613E+02  0.19037983574E+02  0.20985787502E+02  0.62499999008E+02  0.10000001116E+02 0.  0.
    3000022    2    3    3    0    0 -0.39910570451E+02  0.12370548900E+02  0.19421640362E+02  0.46077616322E+02  0.24999557373E+00 0.  0.
    1000022    2    1    0    0    0  0.54803300613E+02 -0.19037983574E+02 -0.20985787502E+02  0.62500000992E+02  0.10000013510E+02 0.  0.
    3000022    2    5    5    0    0  0.42003954212E+02 -0.14203599317E+02 -0.20292899683E+02  0.48764112488E+02  0.24997249686E+00 0.  0.
        -13    1    4    4    0    0 -0.12505692877E+02  0.39235424049E+01  0.61139682503E+01  0.14462993193E+02  0.10500000000E+00 0.  1.
         13    1    4    4    0    0 -0.27404877573E+02  0.84470064955E+01  0.13307672112E+02  0.31614623129E+02  0.10500000000E+00 0. -1.
    3000001    1    5    5    0    0  0.12799346401E+02 -0.48343842574E+01 -0.69288781964E+00  0.13735888503E+02  0.10000000000E+01 0. -1.
        -13    1    6    6    0    0  0.10136501005E+02 -0.34484763251E+01 -0.49064845987E+01  0.11778168690E+02  0.10500000000E+00 0. -1.
         13    1    6    6    0    0  0.31867453207E+02 -0.10755122991E+02 -0.15386415084E+02  0.36985943798E+02  0.10500000000E+00 0.  1.
</event>
<event>
11    0  0.3515428E-009  0.9118800E+02  0.7816531E-02  0.1126479E+00
         25   -1    0    0    0    0  0.00000000000E+00  0.00000000000E+00  0.99999998245E-14  0.12500000000E+03  0.12500000000E+03 0.  0.
    3000001    1    3    3    0    0 -0.85244107637E+00  0.41570562582E+02 -0.14786629320E+02  0.44141621355E+02  0.10000000000E+01 0.  1.
    1000022    2    1    0    0    0 -0.63295407497E+01  0.56501082399E+02 -0.23954427129E+02  0.62499999946E+02  0.10000000790E+02 0.  0.
    3000022    2    3    3    0    0 -0.54770996733E+01  0.14930519817E+02 -0.91677978088E+01  0.18358378592E+02  0.25000999613E+00 0.  0.
    1000022    2    1    0    0    0  0.63295407497E+01 -0.56501082399E+02  0.23954427129E+02  0.62500000054E+02  0.10000001462E+02 0.  0.
    3000022    2    5    5    0    0  0.59618907574E+01 -0.14175374273E+02  0.68451700928E+01  0.16834614790E+02  0.25004871740E+00 0.  0.
        -13    1    4    4    0    0 -0.32444172219E+01  0.87270309742E+01 -0.54248966902E+01  0.10776262888E+02  0.10500000000E+00 0. -1.
         13    1    4    4    0    0 -0.22326824515E+01  0.62034888431E+01 -0.37429011186E+01  0.75821157034E+01  0.10500000000E+00 0.  1.
    3000001    1    5    5    0    0  0.36764999225E+00 -0.42325708126E+02  0.17109257036E+02  0.45665385263E+02  0.10000000000E+01 0.  1.
        -13    1    6    6    0    0  0.44403467886E+01 -0.10485460559E+02  0.50523431095E+01  0.12457879379E+02  0.10500000000E+00 0. -1.
         13    1    6    6    0    0  0.15215439688E+01 -0.36899137144E+01  0.17928269833E+01  0.43767354114E+01  0.10500000000E+00 0.  1.
</event>
<event>
11    0  0.3515428E-009  0.9118800E+02  0.7816531E-02  0.1126479E+00
         25   -1    0    0    0    0  0.00000000000E+00  0.00000000000E+00  0.99999998245E-14  0.12500000000E+03  0.12500000000E+03 0.  0.
    3000001    1    3    3    0    0  0.13954704866E+02  0.18260242944E+02  0.17935019167E+02  0.29169079053E+02  0.10000000000E+01 0. -1.
    1000022    2    1    0    0    0  0.20077637166E+02  0.42848158422E+02  0.39587545578E+02  0.62499999850E+02  0.10000001106E+02 0.  0.
    3000022    2    3    3    0    0  0.61229322998E+01  0.24587915478E+02  0.21652526411E+02  0.33330920797E+02  0.24998748038E+00 0.  0.
    1000022    2    1    0    0    0 -0.20077637166E+02 -0.42848158422E+02 -0.39587545578E+02  0.62500000150E+02  0.10000002979E+02 0.  0.
    3000022    2    5    5    0    0 -0.20276360780E+02 -0.42529656518E+02 -0.39391954066E+02  0.61414094732E+02  0.24999321588E+00 0.  0.
        -13    1    4    4    0    0  0.26509873678E+01  0.10636248119E+02  0.92807311399E+01  0.14363164817E+02  0.10500000000E+00 0.  1.
         13    1    4    4    0    0  0.34719449320E+01  0.13951667359E+02  0.12371795271E+02  0.18967755980E+02  0.10500000000E+00 0. -1.
    3000001    1    5    5    0    0  0.19872361387E+00 -0.31850190392E+00 -0.19559151177E+00  0.10859054181E+01  0.10000000000E+01 0. -1.
        -13    1    6    6    0    0 -0.10664005023E+02 -0.22244279395E+02 -0.20678711305E+02  0.32189269876E+02  0.10500000000E+00 0. -1.
         13    1    6    6    0    0 -0.96123557569E+01 -0.20285377123E+02 -0.18713242761E+02  0.29224824855E+02  0.10500000000E+00 0.  1.
</event>
<event>
11    0  0.3515428E-009  0.9118800E+02  0.7816531E-02  0.1126479E+00
         25   -1    0    0    0    0  0.00000000000E+00  0.00000000000E+00  0.99999998245E-14  0.12500000000E+03  0.12500000000E+03 0.  0.
    3000001    1    3    3    0    0 -0.39936730238E+01  0.40018300398E+01 -0.20313607275E+00  0.57450267321E+01  0.10000000000E+01 0.  1.
    1000022    2    1    0    0    0 -0.52037190225E+02  0.24023549356E+02 -0.22830898915E+02  0.62499999586E+02  0.99999956360E+01 0.  0.
    3000022    2    3    3    0    0 -0.48043517202E+02  0.20021719317E+02 -0.22627762842E+02  0.56754972854E+02  0.25000576585E+00 0.  0.
    1000022    2    1    0    0    0  0.52037190225E+02 -0.24023549356E+02  0.22830898915E+02  0.62500000414E+02  0.10000000814E+02 0.  0.
    3000022    2    5    5    0    0  0.12261542253E+02 -0.10184250484E+02  0.80266264491E+01  0.17848070465E+02  0.25002169869E+00 0.  0.
        -13    1    4    4    0    0 -0.18191353949E+02  0.76031141388E+01 -0.85092484060E+01  0.21474427502E+02  0.10500000000E+00 0. -1.
         13    1    4    4    0    0 -0.29852163252E+02  0.12418605178E+02 -0.14118514436E+02  0.35280545351E+02  0.10500000000E+00 0.  1.
    3000001    1    5    5    0    0  0.39775647973E+02 -0.13839298873E+02  0.14804272466E+02  0.44651929949E+02  0.10000000000E+01 0. -1.
        -13    1    6    6    0    0  0.53875778947E+01 -0.44836485705E+01  0.34560864214E+01  0.78156674972E+01  0.10500000000E+00 0.  1.
         13    1    6    6    0    0  0.68739643580E+01 -0.57006019130E+01  0.45705400277E+01  0.10032402968E+02  0.10500000000E+00 0. -1.
</event>
<event>
11    0  0.3515428E-009  0.9118800E+02  0.7816531E-02  0.1126479E+00
         25   -1    0    0    0    0  0.00000000000E+00  0.00000000000E+00  0.99999998245E-14  0.12500000000E+03  0.12500000000E+03 0.  0.
    3000001    1    3    3    0    0 -0.70599696994E+01 -0.78674605482E+01 -0.37855073398E+02  0.39315985166E+02  0.10000000000E+01 0. -1.
    1000022    2    1    0    0    0 -0.17162762434E+02 -0.16081755178E+02 -0.57035661132E+02  0.62499999157E+02  0.99999994960E+01 0.  0.
    3000022    2    3    3    0    0 -0.10102792734E+02 -0.82142946303E+01 -0.19180587734E+02  0.23184013991E+02  0.25000321558E+00 0.  0.
    1000022    2    1    0    0    0  0.17162762434E+02  0.16081755178E+02  0.57035661132E+02  0.62500000843E+02  0.10000010031E+02 0.  0.
    3000022    2    5    5    0    0  0.14973996439E+01  0.47799866776E+01  0.21116715088E+02  0.21704115665E+02  0.25000466636E+00 0.  0.
        -13    1    4    4    0    0 -0.32548418866E+01 -0.26088546688E+01 -0.62199589327E+01  0.74899287389E+01  0.10500000000E+00 0. -1.
         13    1    4    4    0    0 -0.68479508475E+01 -0.56054399615E+01 -0.12960628802E+02  0.15694085252E+02  0.10500000000E+00 0.  1.
    3000001    1    5    5    0    0  0.15665362790E+02  0.11301768501E+02  0.35918946044E+02  0.40795885178E+02  0.10000000000E+01 0. -1.
        -13    1    6    6    0    0  0.99423888445E+00  0.33236036775E+01  0.14540572256E+02  0.14949050769E+02  0.10500000000E+00 0. -1.
         13    1    6    6    0    0  0.50316075950E+00  0.14563830001E+01  0.65761428320E+01  0.67550648953E+01  0.10500000000E+00 0.  1.
</event>
<event>
11    0  0.3515428E-009  0.9118800E+02  0.7816531E-02  0.1126479E+00
         25   -1    0    0    0    0  0.00000000000E+00  0.00000000000E+00  0.99999998245E-14  0.12500000000E+03  0.12500000000E+03 0.  0.
    3000001    1    3    3    0    0 -0.21823368077E+01  0.27393213334E+02  0.31205908936E+02  0.41592781624E+02  0.10000000000E+01 0.  1.
    1000022    2    1    0    0    0 -0.95307719396E+01  0.38034116422E+02  0.47632136998E+02  0.62500000069E+02  0.99999953907E+01 0.  0.
    3000022    2    3    3    0    0 -0.73484351319E+01  0.10640903088E+02  0.16426228062E+02  0.20907218445E+02  0.24999465530E+00 0.  0.
    1000022    2    1    0    0    0  0.95307719396E+01 -0.38034116422E+02 -0.47632136998E+02  0.62499999931E+02  0.99999945298E+01 0.  0.
    3000022    2    5    5    0    0  0.10155863688E+02 -0.23932885336E+02 -0.27014987102E+02  0.37493954109E+02  0.24999762475E+00 0.  0.
        -13    1    4    4    0    0 -0.39370387464E+01  0.58103743693E+01  0.88742387908E+01  0.11314763078E+02  0.10500000000E+00 0.  1.
         13    1    4    4    0    0 -0.34113963855E+01  0.48305287187E+01  0.75519892713E+01  0.95924553663E+01  0.10500000000E+00 0. -1.
    3000001    1    5    5    0    0 -0.62509174877E+00 -0.14101231087E+02 -0.20617149896E+02  0.25006045822E+02  0.10000000000E+01 0. -1.
        -13    1    6    6    0    0  0.44110463210E+01 -0.10297973059E+02 -0.11563791701E+02  0.16100865886E+02  0.10500000000E+00 0.  1.
         13    1    6    6    0    0  0.57448173673E+01 -0.13634912277E+02 -0.15451195401E+02  0.21393088223E+02  0.10500000000E+00 0. -1.
</event>
<event>
11    0  0.3515428E-009  0.9118800E+02  0.7816531E-02  0.1126479E+00
         25   -1    0    0    0    0  0.00000000000E+00  0.00000000000E+00  0.99999998245E-14  0.12500000000E+03  0.12500000000E+03 0.  0.
    3000001    1    3    3    0    0  0.27184427999E+02  0.47145142364E+01  0.10320440687E+02  0.29474247507E+02  0.10000000000E+01 0.  1.
    1000022    2    1    0    0    0  0.52375669868E+02  0.16603331120E+02  0.28060077540E+02  0.62499992758E+02  0.99999872440E+01 0.  0.
    3000022    2    3    3    0    0  0.25191241868E+02  0.11888816883E+02  0.17739636854E+02  0.33025745252E+02  0.24999992936E+00 0.  0.
    1000022    2    1    0    0    0 -0.52375669868E+02 -0.16603331120E+02 -0.28060077540E+02  0.62500007242E+02  0.10000077763E+02 0.  0.
    3000022    2    5    5    0    0 -0.11330403877E+02 -0.64964613237E+01 -0.10313356337E+02  0.16643614113E+02  0.25002010442E+00 0.  0.
        -13    1    4    4    0    0  0.68257128486E+01  0.31996349113E+01  0.48371703209E+01  0.89575253932E+01  0.10500000000E+00 0.  1.
         13    1    4    4    0    0  0.18365529020E+02  0.86891819722E+01  0.12902466533E+02  0.24068219858E+02  0.10500000000E+00 0. -1.
    3000001    1    5    5    0    0 -0.41045265991E+02 -0.10106869796E+02 -0.17746721203E+02  0.45856393129E+02  0.10000000000E+01 0.  1.
        -13    1    6    6    0    0 -0.71654614329E+01 -0.41615089584E+01 -0.64957509701E+01  0.10529377950E+02  0.10500000000E+00 0. -1.
         13    1    6    6    0    0 -0.41649424442E+01 -0.23349523653E+01 -0.38176053670E+01  0.61142361624E+01  0.10500000000E+00 0.  1.
</event>
<event>
11    0  0.3515428E-009  0.9118800E+02  0.7816531E-02  0.1126479E+00
         25   -1    0    0    0    0  0.00000000000E+00  0.00000000000E+00  0.99999998245E-14  0.12500000000E+03  0.12500000000E+03 0.  0.
    3000001    1    3    3    0    0 -0.29655735948E+01 -0.37234265273E+01 -0.30226515591E+01  0.57266878995E+01  0.10000000000E+01 0.  1.
    1000022    2    1    0    0    0 -0.47092657903E+02 -0.15131199097E+02 -0.36872459177E+02  0.62499998711E+02  0.99999989285E+01 0.  0.
    3000022    2    3    3    0    0 -0.44127084309E+02 -0.11407772570E+02 -0.33849807618E+02  0.56773310811E+02  0.25000026051E+00 0.  0.
    1000022    2    1    0    0    0  0.47092657903E+02  0.15131199097E+02  0.36872459177E+02  0.62500001289E+02  0.10000015046E+02 0.  0.
    3000022    2    5    5    0    0  0.17403381008E+02  0.35144792439E+01  0.79957619197E+01  0.19473672290E+02  0.24993779307E+00 0.  0.
        -13    1    4    4    0    0 -0.25076129027E+02 -0.65278005521E+01 -0.19183141751E+02  0.32240167175E+02  0.10500000000E+00 0.  1.
         13    1    4    4    0    0 -0.19050955282E+02 -0.48799720174E+01 -0.14666665867E+02  0.24533143636E+02  0.10500000000E+00 0. -1.
    3000001    1    5    5    0    0  0.29689276895E+02  0.11616719853E+02  0.28876697257E+02  0.43026328999E+02  0.10000000000E+01 0. -1.
        -13    1    6    6    0    0  0.88048429677E+01  0.17957360775E+01  0.39750054503E+01  0.98265772818E+01  0.10500000000E+00 0. -1.
         13    1    6    6    0    0  0.85985380408E+01  0.17187431664E+01  0.40207564694E+01  0.96470950082E+01  0.10500000000E+00 0.  1.
</event>
<event>
11    0  0.3515428E-009  0.9118800E+02  0.7816531E-02  0.1126479E+00
         25   -1    0    0    0    0  0.00000000000E+00  0.00000000000E+00  0.99999998245E-14  0.12500000000E+03  0.12500000000E+03 0.  0.
    3000001    1    3    3    0    0 -0.15362714232E+01 -0.57823650332E+01 -0.65457874545E+01  0.89243043797E+01  0.10000000000E+01 0.  1.
    1000022    2    1    0    0    0  0.53016283200E+01 -0.51949920710E+02 -0.32853439322E+02  0.62499999571E+02  0.99999973224E+01 0.  0.
    3000022    2    3    3    0    0  0.68378997432E+01 -0.46167555676E+02 -0.26307651868E+02  0.53575695191E+02  0.24999671324E+00 0.  0.
    1000022    2    1    0    0    0 -0.53016283200E+01  0.51949920710E+02  0.32853439322E+02  0.62500000429E+02  0.10000002689E+02 0.  0.
    3000022    2    5    5    0    0 -0.37471062128E+01  0.32300351586E+02  0.14706364922E+02  0.35688838294E+02  0.24998409111E+00 0.  0.
        -13    1    4    4    0    0  0.32211348314E+01 -0.21291486230E+02 -0.12131939047E+02  0.24716352189E+02  0.10500000000E+00 0. -1.
         13    1    4    4    0    0  0.36167649118E+01 -0.24876069446E+02 -0.14175712821E+02  0.28859343002E+02  0.10500000000E+00 0.  1.
    3000001    1    5    5    0    0 -0.15545221071E+01  0.19649569124E+02  0.18147074401E+02  0.26811162135E+02  0.10000000000E+01 0. -1.
        -13    1    6    6    0    0 -0.11710606935E+01  0.10206064479E+02  0.45934960029E+01  0.11253726752E+02  0.10500000000E+00 0.  1.
         13    1    6    6    0    0 -0.25760455193E+01  0.22094287107E+02  0.10112868919E+02  0.24435111542E+02  0.10500000000E+00 0. -1.
</event>
<event>
11    0  0.3515428E-009  0.9118800E+02  0.7816531E-02  0.1126479E+00
         25   -1    0    0    0    0  0.00000000000E+00  0.00000000000E+00  0.99999998245E-14  0.12500000000E+03  0.12500000000E+03 0.  0.
    3000001    1    3    3    0    0  0.51466596622E+02  0.85161010700E+01 -0.19846894160E+02  0.55823236677E+02  0.10000000000E+01 0.  1.
    1000022    2    1    0    0    0  0.56820935323E+02  0.63424324634E+01 -0.23181995052E+02  0.62500000529E+02  0.10000001551E+02 0.  0.
    3000022    2    3    3    0    0  0.53543387006E+01 -0.21736686066E+01 -0.33351008922E+01  0.66767638519E+01  0.24999888214E+00 0.  0.
    1000022    2    1    0    0    0 -0.56820935323E+02 -0.63424324634E+01  0.23181995052E+02  0.62499999471E+02  0.99999949378E+01 0.  0.
    3000022    2    5    5    0    0 -0.12326214992E+02 -0.29258287921E+01  0.11539141245E+01  0.12723602782E+02  0.24999960328E+00 0.  0.
        -13    1    4    4    0    0  0.20243815347E+01 -0.75920124560E+00 -0.12661126755E+01  0.25077028206E+01  0.10500000000E+00 0.  1.
         13    1    4    4    0    0  0.33299571659E+01 -0.14144673610E+01 -0.20689882167E+01  0.41690610313E+01  0.10500000000E+00 0. -1.
    3000001    1    5    5    0    0 -0.44494720331E+02 -0.34166036713E+01  0.22028080927E+02  0.49776396689E+02  0.10000000000E+01 0.  1.
        -13    1    6    6    0    0 -0.42815286487E+01 -0.98086294605E+00  0.35586822523E+00  0.44080888016E+01  0.10500000000E+00 0. -1.
         13    1    6    6    0    0 -0.80446863433E+01 -0.19449658461E+01  0.79804589924E+00  0.83155139806E+01  0.10500000000E+00 0.  1.
</event>
<event>
11    0  0.3515428E-009  0.9118800E+02  0.7816531E-02  0.1126479E+00
         25   -1    0    0    0    0  0.00000000000E+00  0.00000000000E+00  0.99999998245E-14  0.12500000000E+03  0.12500000000E+03 0.  0.
    3000001    1    3    3    0    0  0.40447120341E+01  0.80114671952E+01  0.26125339019E+01  0.94004593211E+01  0.10000000000E+01 0.  1.
    1000022    2    1    0    0    0  0.55579121401E+01  0.60167567665E+02  0.12458862118E+02  0.62500000522E+02  0.10000011696E+02 0.  0.
    3000022    2    3    3    0    0  0.15132001059E+01  0.52156100470E+02  0.98463282156E+01  0.53099541201E+02  0.25001128805E+00 0.  0.
    1000022    2    1    0    0    0 -0.55579121401E+01 -0.60167567665E+02 -0.12458862118E+02  0.62499999478E+02  0.10000005171E+02 0.  0.
    3000022    2    5    5    0    0 -0.60368280205E+01 -0.30171770574E+02 -0.24890135713E+01  0.30871292840E+02  0.25000190293E+00 0.  0.
        -13    1    4    4    0    0  0.58783879405E+00  0.19601279589E+02  0.36423698697E+01  0.19945766449E+02  0.10500000000E+00 0. -1.
         13    1    4    4    0    0  0.92536131187E+00  0.32554820881E+02  0.62039583460E+01  0.33153774752E+02  0.10500000000E+00 0.  1.
    3000001    1    5    5    0    0  0.47891588043E+00 -0.29995797091E+02 -0.99698485463E+01  0.31628706638E+02  0.10000000000E+01 0. -1.
        -13    1    6    6    0    0 -0.35282018431E+01 -0.17302475305E+02 -0.14342593371E+01  0.17716997059E+02  0.10500000000E+00 0. -1.
         13    1    6    6    0    0 -0.25086261774E+01 -0.12869295269E+02 -0.10547542343E+01  0.13154295781E+02  0.10500000000E+00 0.  1.
</event>
<event>
11    0  0.3515428E-009  0.9118800E+02  0.7816531E-02  0.1126479E+00
         25   -1    0    0    0    0  0.00000000000E+00  0.00000000000E+00  0.99999998245E-14  0.12500000000E+03  0.12500000000E+03 0.  0.
    3000001    1    3    3    0    0  0.17278929672E+01 -0.15884378227E+01  0.30971575234E+01  0.40126217798E+01  0.10000000000E+01 0.  1.
    1000022    2    1    0    0    0 -0.74325775282E+01 -0.28624389554E+02  0.54144724971E+02  0.62500001155E+02  0.10000000806E+02 0.  0.
    3000022    2    3    3    0    0 -0.91604704954E+01 -0.27035951732E+02  0.51047567448E+02  0.58487379375E+02  0.24999628375E+00 0.  0.
    1000022    2    1    0    0    0  0.74325775282E+01  0.28624389554E+02 -0.54144724971E+02  0.62499998845E+02  0.99999863668E+01 0.  0.
    3000022    2    5    5    0    0  0.70407744521E+01  0.29168116238E+02 -0.52314168367E+02  0.60309089025E+02  0.24999470790E+00 0.  0.
        -13    1    4    4    0    0 -0.45153638400E+01 -0.13147316388E+02  0.24932180052E+02  0.28545841483E+02  0.10500000000E+00 0. -1.
         13    1    4    4    0    0 -0.46451066554E+01 -0.13888635344E+02  0.26115387395E+02  0.29941537892E+02  0.10500000000E+00 0.  1.
    3000001    1    5    5    0    0  0.39180307610E+00 -0.54372668373E+00 -0.18305566044E+01  0.21909098199E+01  0.10000000000E+01 0. -1.
        -13    1    6    6    0    0  0.36104278073E+01  0.15070995428E+02 -0.26894120534E+02  0.31039891050E+02  0.10500000000E+00 0.  1.
         13    1    6    6    0    0  0.34303466447E+01  0.14097120810E+02 -0.25420047833E+02  0.29269197975E+02  0.10500000000E+00 0. -1.
</event>
<event>
11    0  0.3515428E-009  0.9118800E+02  0.7816531E-02  0.1126479E+00
         25   -1    0    0    0    0  0.00000000000E+00  0.00000000000E+00  0.99999998245E-14  0.12500000000E+03  0.12500000000E+03 0.  0.
    3000001    1    3    3    0    0 -0.35929330723E+01  0.45727767984E+02  0.28419879221E+02  0.53968763815E+02  0.10000000000E+01 0.  1.
    1000022    2    1    0    0    0 -0.16289789431E+01  0.53868445293E+02  0.30029770841E+02  0.62500000199E+02  0.99999958685E+01 0.  0.
    3000022    2    3    3    0    0  0.19639541293E+01  0.81406773092E+01  0.16098916208E+01  0.85312363834E+01  0.25000064781E+00 0.  0.
    1000022    2    1    0    0    0  0.16289789431E+01 -0.53868445293E+02 -0.30029770841E+02  0.62499999801E+02  0.99999933836E+01 0.  0.
    3000022    2    5    5    0    0 -0.18022383690E+01 -0.91078099745E+01 -0.89382739993E+01  0.12890132180E+02  0.24999971572E+00 0.  0.
        -13    1    4    4    0    0  0.56141837521E+00  0.23917366212E+01  0.43054534730E+00  0.24963951917E+01  0.10500000000E+00 0.  1.
         13    1    4    4    0    0  0.14025357541E+01  0.57489406880E+01  0.11793462735E+01  0.60348411916E+01  0.10500000000E+00 0. -1.
    3000001    1    5    5    0    0  0.34312173120E+01 -0.44760635319E+02 -0.21091496842E+02  0.49609867621E+02  0.10000000000E+01 0.  1.
        -13    1    6    6    0    0 -0.11348694844E+01 -0.57756399909E+01 -0.55846355722E+01  0.81145009413E+01  0.10500000000E+00 0.  1.
         13    1    6    6    0    0 -0.66736888462E+00 -0.33321699836E+01 -0.33536384270E+01  0.47756312386E+01  0.10500000000E+00 0. -1.
</event>
<event>
11    0  0.3515428E-009  0.9118800E+02  0.7816531E-02  0.1126479E+00
         25   -1    0    0    0    0  0.00000000000E+00  0.00000000000E+00  0.99999998245E-14  0.12500000000E+03  0.12500000000E+03 0.  0.
    3000001    1    3    3    0    0  0.14449554741E+02 -0.22055391062E+01 -0.14270893979E+00  0.14651771251E+02  0.10000000000E+01 0.  1.
    1000022    2    1    0    0    0  0.57316789565E+02 -0.15735439093E+02 -0.16535774971E+02  0.62500001364E+02  0.99999953556E+01 0.  0.
    3000022    2    3    3    0    0  0.42867234824E+02 -0.13529899987E+02 -0.16393066031E+02  0.47848230113E+02  0.24999178229E+00 0.  0.
    1000022    2    1    0    0    0 -0.57316789565E+02  0.15735439093E+02  0.16535774971E+02  0.62499998636E+02  0.99999783025E+01 0.  0.
    3000022    2    5    5    0    0 -0.11711618215E+02  0.56220328888E+01  0.17543262479E+00  0.12994711639E+02  0.24999791937E+00 0.  0.
        -13    1    4    4    0    0  0.16665800890E+02 -0.53028041009E+01 -0.64276056483E+01  0.18633136880E+02  0.10500000000E+00 0. -1.
         13    1    4    4    0    0  0.26201433935E+02 -0.82270958862E+01 -0.99654603825E+01  0.29215093233E+02  0.10500000000E+00 0.  1.
    3000001    1    5    5    0    0 -0.45605171350E+02  0.10113406204E+02  0.16360342346E+02  0.49505286996E+02  0.10000000000E+01 0. -1.
        -13    1    6    6    0    0 -0.27022840673E+01  0.12988476453E+01  0.48853160749E-01  0.30004593011E+01  0.10500000000E+00 0. -1.
         13    1    6    6    0    0 -0.90093341481E+01  0.43231852435E+01  0.12657946404E+00  0.99942523383E+01  0.10500000000E+00 0.  1.
</event>
<event>
11    0  0.3515428E-009  0.9118800E+02  0.7816531E-02  0.1126479E+00
         25   -1    0    0    0    0  0.00000000000E+00  0.00000000000E+00  0.99999998245E-14  0.12500000000E+03  0.12500000000E+03 0.  0.
    3000001    1    3    3    0    0 -0.63762915489E+01  0.95126207696E+01 -0.74540753421E+01  0.13700740382E+02  0.10000000000E+01 0.  1.
    1000022    2    1    0    0    0 -0.25983040112E+02  0.30568694200E+02 -0.46868821315E+02  0.62499997744E+02  0.99999934041E+01 0.  0.
    3000022    2    3    3    0    0 -0.19606748563E+02  0.21056073430E+02 -0.39414745973E+02  0.48799257362E+02  0.25000295879E+00 0.  0.
    1000022    2    1    0    0    0  0.25983040112E+02 -0.30568694200E+02  0.46868821315E+02  0.62500002256E+02  0.10000021600E+02 0.  0.
    3000022    2    5    5    0    0  0.15563044133E+02 -0.19430905931E+02  0.21562446444E+02  0.32935847392E+02  0.24999756710E+00 0.  0.
        -13    1    4    4    0    0 -0.99050021463E+01  0.10735206968E+02 -0.20029552454E+02  0.24790073269E+02  0.10500000000E+00 0.  1.
         13    1    4    4    0    0 -0.97017464168E+01  0.10320866462E+02 -0.19385193518E+02  0.24009184093E+02  0.10500000000E+00 0. -1.
    3000001    1    5    5    0    0  0.10419995979E+02 -0.11137788269E+02  0.25306374870E+02  0.29564154864E+02  0.10000000000E+01 0.  1.
        -13    1    6    6    0    0  0.10011730853E+02 -0.12467687008E+02  0.13920633162E+02  0.21200778915E+02  0.10500000000E+00 0.  1.
         13    1    6    6    0    0  0.55513132800E+01 -0.69632189236E+01  0.76418132824E+01  0.11735068477E+02  0.10500000000E+00 0. -1.
</event>
<event>
11    0  0.3515428E-009  0.9118800E+02  0.7816531E-02  0.1126479E+00
         25   -1    0    0    0    0  0.00000000000E+00  0.00000000000E+00  0.99999998245E-14  0.12500000000E+03  0.12500000000E+03 0.  0.
    3000001    1    3    3    0    0  0.50588864784E+01  0.18247751207E+01  0.19762399295E+02  0.20505476404E+02  0.10000000000E+01 0.  1.
    1000022    2    1    0    0    0  0.77800632323E+01  0.17295265161E+02  0.58707702500E+02  0.62499999959E+02  0.10000004054E+02 0.  0.
    3000022    2    3    3    0    0  0.27211767539E+01  0.15470490041E+02  0.38945303205E+02  0.41994523555E+02  0.25000369856E+00 0.  0.
    1000022    2    1    0    0    0 -0.77800632323E+01 -0.17295265161E+02 -0.58707702500E+02  0.62500000041E+02  0.10000004571E+02 0.  0.
    3000022    2    5    5    0    0  0.17311129471E+01 -0.45430951276E+01 -0.81943057222E+01  0.95312963860E+01  0.24999830981E+00 0.  0.
        -13    1    4    4    0    0  0.15634130770E+01  0.85407553488E+01  0.21450534530E+02  0.23141417827E+02  0.10500000000E+00 0.  1.
         13    1    4    4    0    0  0.11577636769E+01  0.69297346919E+01  0.17494768674E+02  0.18853105728E+02  0.10500000000E+00 0. -1.
    3000001    1    5    5    0    0 -0.95111761794E+01 -0.12752170034E+02 -0.50513396778E+02  0.52968703655E+02  0.10000000000E+01 0. -1.
        -13    1    6    6    0    0  0.99520092720E+00 -0.25251605439E+01 -0.46879237983E+01  0.54179807306E+01  0.10500000000E+00 0.  1.
         13    1    6    6    0    0  0.73591201992E+00 -0.20179345836E+01 -0.35063819239E+01  0.41133156554E+01  0.10500000000E+00 0. -1.
</event>
<event>
11    0  0.3515428E-009  0.9118800E+02  0.7816531E-02  0.1126479E+00
         25   -1    0    0    0    0  0.00000000000E+00  0.00000000000E+00  0.99999998245E-14  0.12500000000E+03  0.12500000000E+03 0.  0.
    3000001    1    3    3    0    0  0.15235508096E+02  0.61110691229E+01  0.19542509160E+01  0.16561550936E+02  0.10000000000E+01 0.  1.
    1000022    2    1    0    0    0  0.54795530892E+02  0.17338731341E+02  0.22429183352E+02  0.62500000624E+02  0.10000000098E+02 0.  0.
    3000022    2    3    3    0    0  0.39560022796E+02  0.11227662218E+02  0.20474932436E+02  0.45938449688E+02  0.24999800329E+00 0.  0.
    1000022    2    1    0    0    0 -0.54795530892E+02 -0.17338731341E+02 -0.22429183352E+02  0.62499999376E+02  0.99999922952E+01 0.  0.
    3000022    2    5    5    0    0 -0.24628968791E+02 -0.12941923853E+02 -0.11324816915E+02  0.30039864764E+02  0.25000028987E+00 0.  0.
        -13    1    4    4    0    0  0.13764845204E+02  0.39370271010E+01  0.70748377100E+01  0.15969830917E+02  0.10500000000E+00 0.  1.
         13    1    4    4    0    0  0.25795177592E+02  0.72906351172E+01  0.13400094726E+02  0.29968618771E+02  0.10500000000E+00 0. -1.
    3000001    1    5    5    0    0 -0.30166562100E+02 -0.43968074884E+01 -0.11104366437E+02  0.32460134612E+02  0.10000000000E+01 0.  1.
        -13    1    6    6    0    0 -0.15210284805E+02 -0.80362649919E+01 -0.69510733420E+01  0.18554319294E+02  0.10500000000E+00 0. -1.
         13    1    6    6    0    0 -0.94186839868E+01 -0.49056588608E+01 -0.43737435735E+01  0.11485545470E+02  0.10500000000E+00 0.  1.
</event>
<event>
11    0  0.3515428E-009  0.9118800E+02  0.7816531E-02  0.1126479E+00
         25   -1    0    0    0    0  0.00000000000E+00  0.00000000000E+00  0.99999998245E-14  0.12500000000E+03  0.12500000000E+03 0.  0.
    3000001    1    3    3    0    0  0.40612658225E+02 -0.53191927032E+01 -0.32345028497E+02  0.52200408883E+02  0.10000000000E+01 0.  1.
    1000022    2    1    0    0    0  0.47152490997E+02 -0.23352541997E+01 -0.39716982758E+02  0.62499996701E+02  0.10000002446E+02 0.  0.
    3000022    2    3    3    0    0  0.65398327719E+01  0.29839385034E+01 -0.73719542611E+01  0.10299587818E+02  0.24999584899E+00 0.  0.
    1000022    2    1    0    0    0 -0.47152490997E+02  0.23352541997E+01  0.39716982758E+02  0.62500003299E+02  0.10000043677E+02 0.  0.
    3000022    2    5    5    0    0 -0.12355217949E+02  0.27077079638E+01  0.58758306836E+01  0.13948870386E+02  0.25001167557E+00 0.  0.
        -13    1    4    4    0    0  0.19368346908E+01  0.83578024210E+00 -0.21565488610E+01  0.30185402470E+01  0.10500000000E+00 0. -1.
         13    1    4    4    0    0  0.46029980810E+01  0.21481582613E+01 -0.52154054001E+01  0.72810475714E+01  0.10500000000E+00 0.  1.
    3000001    1    5    5    0    0 -0.34797273047E+02 -0.37245376405E+00  0.33841152074E+02  0.48551132912E+02  0.10000000000E+01 0.  1.
        -13    1    6    6    0    0 -0.63230924026E+01  0.14172327238E+01  0.29436348919E+01  0.71180093777E+01  0.10500000000E+00 0.  1.
         13    1    6    6    0    0 -0.60321255469E+01  0.12904752400E+01  0.29321957917E+01  0.68308610086E+01  0.10500000000E+00 0. -1.
</event>
<event>
11    0  0.3515428E-009  0.9118800E+02  0.7816531E-02  0.1126479E+00
         25   -1    0    0    0    0  0.00000000000E+00  0.00000000000E+00  0.99999998245E-14  0.12500000000E+03  0.12500000000E+03 0.  0.
    3000001    1    3    3    0    0 -0.64127023257E+01  0.29360106522E+01  0.35881351738E+00  0.71324369474E+01  0.10000000000E+01 0.  1.
    1000022    2    1    0    0    0 -0.57083758627E+02  0.72419083790E+01  0.22254203751E+02  0.62500002528E+02  0.99999997699E+01 0.  0.
    3000022    2    3    3    0    0 -0.50671056301E+02  0.43058977267E+01  0.21895390234E+02  0.55367565580E+02  0.25000573553E+00 0.  0.
    1000022    2    1    0    0    0  0.57083758627E+02 -0.72419083790E+01 -0.22254203751E+02  0.62499997472E+02  0.99999681758E+01 0.  0.
    3000022    2    5    5    0    0  0.37289706989E+02 -0.66518272066E+01 -0.99489306120E+01  0.39163921901E+02  0.25001171247E+00 0.  0.
        -13    1    4    4    0    0 -0.32339412493E+02  0.28065369921E+01  0.13980674599E+02  0.35343804797E+02  0.10500000000E+00 0.  1.
         13    1    4    4    0    0 -0.18331643808E+02  0.14993607347E+01  0.79147156350E+01  0.20023760783E+02  0.10500000000E+00 0. -1.
    3000001    1    5    5    0    0  0.19794051638E+02 -0.59008117241E+00 -0.12305273139E+02  0.23336075571E+02  0.10000000000E+01 0. -1.
        -13    1    6    6    0    0  0.16392195066E+02 -0.29793449765E+01 -0.43371344324E+01  0.17216338625E+02  0.10500000000E+00 0.  1.
         13    1    6    6    0    0  0.20897511923E+02 -0.36724822300E+01 -0.56117961796E+01  0.21947583276E+02  0.10500000000E+00 0. -1.
</event>
<event>
11    0  0.3515428E-009  0.9118800E+02  0.7816531E-02  0.1126479E+00
         25   -1    0    0    0    0  0.00000000000E+00  0.00000000000E+00  0.99999998245E-14  0.12500000000E+03  0.12500000000E+03 0.  0.
    3000001    1    3    3    0    0 -0.29962829986E+02 -0.36103983958E+02  0.27837102830E+02  0.54563478008E+02  0.10000000000E+01 0. -1.
    1000022    2    1    0    0    0 -0.36542221510E+02 -0.38300375477E+02  0.31685915778E+02  0.62500000113E+02  0.10000002041E+02 0.  0.
    3000022    2    3    3    0    0 -0.65793915236E+01 -0.21963915199E+01  0.38488129476E+01  0.79365221044E+01  0.24998695534E+00 0.  0.
    1000022    2    1    0    0    0  0.36542221510E+02  0.38300375477E+02 -0.31685915778E+02  0.62499999887E+02  0.10000000631E+02 0.  0.
    3000022    2    5    5    0    0  0.17712212380E+02  0.19464866400E+02 -0.10052948245E+02  0.28173174659E+02  0.25002105658E+00 0.  0.
        -13    1    4    4    0    0 -0.39315709909E+01 -0.12715829089E+01  0.22347983588E+01  0.46988852141E+01  0.10500000000E+00 0.  1.
         13    1    4    4    0    0 -0.26478205327E+01 -0.92480861102E+00  0.16140145888E+01  0.32376368903E+01  0.10500000000E+00 0. -1.
    3000001    1    5    5    0    0  0.18830009130E+02  0.18835509077E+02 -0.21632967532E+02  0.34326825229E+02  0.10000000000E+01 0.  1.
        -13    1    6    6    0    0  0.64151099104E+01  0.71177817076E+01 -0.36998236598E+01  0.10272106489E+02  0.10500000000E+00 0. -1.
         13    1    6    6    0    0  0.11297102470E+02  0.12347084693E+02 -0.63531245856E+01  0.17901068170E+02  0.10500000000E+00 0.  1.
</event>
<event>
11    0  0.3515428E-009  0.9118800E+02  0.7816531E-02  0.1126479E+00
         25   -1    0    0    0    0  0.00000000000E+00  0.00000000000E+00  0.99999998245E-14  0.12500000000E+03  0.12500000000E+03 0.  0.
    3000001    1    3    3    0    0 -0.28063324224E+02 -0.32304124874E+01 -0.44377923441E+01  0.28612579965E+02  0.10000000000E+01 0. -1.
    1000022    2    1    0    0    0 -0.61293139300E+02  0.31462357338E+01 -0.62850882589E+01  0.62500000232E+02  0.99999985003E+01 0.  0.
    3000022    2    3    3    0    0 -0.33229815076E+02  0.63766482213E+01 -0.18472959148E+01  0.33887420267E+02  0.24999528847E+00 0.  0.
    1000022    2    1    0    0    0  0.61293139300E+02 -0.31462357338E+01  0.62850882589E+01  0.62499999768E+02  0.99999955992E+01 0.  0.
    3000022    2    5    5    0    0  0.28483912001E+01 -0.23001889696E+01 -0.24002800494E+00  0.36775421698E+01  0.25000248579E+00 0.  0.
        -13    1    4    4    0    0 -0.84496316153E+01  0.16081291712E+01 -0.49520307908E+00  0.86161827369E+01  0.10500000000E+00 0. -1.
         13    1    4    4    0    0 -0.24780183461E+02  0.47685190501E+01 -0.13520928357E+01  0.25271237530E+02  0.10500000000E+00 0.  1.
    3000001    1    5    5    0    0  0.58444748100E+02 -0.84604676424E+00  0.65251162639E+01  0.58822457598E+02  0.10000000000E+01 0.  1.
        -13    1    6    6    0    0  0.97093641756E+00 -0.72106296966E+00 -0.99475461342E-01  0.12180187604E+01  0.10500000000E+00 0.  1.
         13    1    6    6    0    0  0.18774547826E+01 -0.15791259999E+01 -0.14055254360E+00  0.24595234095E+01  0.10500000000E+00 0. -1.
</event>
<event>
11    0  0.3515428E-009  0.9118800E+02  0.7816531E-02  0.1126479E+00
         25   -1    0    0    0    0  0.00000000000E+00  0.00000000000E+00  0.99999998245E-14  0.12500000000E+03  0.12500000000E+03 0.  0.
    3000001    1    3    3    0    0 -0.13829935476E+02 -0.20077369438E+01 -0.49713013084E+01  0.14866470987E+02  0.10000000000E+01 0.  1.
    1000022    2    1    0    0    0 -0.50262569062E+02 -0.22446777040E+02 -0.27857967029E+02  0.62500000320E+02  0.10000003243E+02 0.  0.
    3000022    2    3    3    0    0 -0.36432633585E+02 -0.20439040097E+02 -0.22886665720E+02  0.47633529333E+02  0.24999776799E+00 0.  0.
    1000022    2    1    0    0    0  0.50262569062E+02  0.22446777040E+02  0.27857967029E+02  0.62499999680E+02  0.99999992400E+01 0.  0.
    3000022    2    5    5    0    0  0.32057267843E+02  0.14359585830E+02  0.12351156884E+02  0.37235462973E+02  0.24999932832E+00 0.  0.
        -13    1    4    4    0    0 -0.22243533748E+02 -0.12530821462E+02 -0.14035031182E+02  0.29133990550E+02  0.10500000000E+00 0.  1.
         13    1    4    4    0    0 -0.14189099838E+02 -0.79082186341E+01 -0.88516345387E+01  0.18499538783E+02  0.10500000000E+00 0. -1.
    3000001    1    5    5    0    0  0.18205301219E+02  0.80871912102E+01  0.15506810145E+02  0.25264536707E+02  0.10000000000E+01 0.  1.
        -13    1    6    6    0    0  0.95808355953E+01  0.43015770988E+01  0.37402098203E+01  0.11148819253E+02  0.10500000000E+00 0.  1.
         13    1    6    6    0    0  0.22476432248E+02  0.10058008731E+02  0.86109470633E+01  0.26086643720E+02  0.10500000000E+00 0. -1.
</event>
<event>
11    0  0.3515428E-009  0.9118800E+02  0.7816531E-02  0.1126479E+00
         25   -1    0    0    0    0  0.00000000000E+00  0.00000000000E+00  0.99999998245E-14  0.12500000000E+03  0.12500000000E+03 0.  0.
    3000001    1    3    3    0    0  0.43212333921E+01 -0.33269679958E+02 -0.10151277611E+02  0.35065554318E+02  0.10000000000E+01 0.  1.
    1000022    2    1    0    0    0 -0.28884768026E+00 -0.57869325709E+02 -0.21384751804E+02  0.62500000926E+02  0.10000010755E+02 0.  0.
    3000022    2    3    3    0    0 -0.46100810724E+01 -0.24599645751E+02 -0.11233474193E+02  0.27434446608E+02  0.24999933239E+00 0.  0.
    1000022    2    1    0    0    0  0.28884768026E+00  0.57869325709E+02  0.21384751804E+02  0.62499999074E+02  0.99999991740E+01 0.  0.
    3000022    2    5    5    0    0 -0.32675228833E+01  0.12531440675E+02  0.73652488098E+01  0.14900439673E+02  0.25000245911E+00 0.  0.
        -13    1    4    4    0    0 -0.34533080274E+01 -0.18269678467E+02 -0.83543926626E+01  0.20384145540E+02  0.10500000000E+00 0. -1.
         13    1    4    4    0    0 -0.11567730450E+01 -0.63299672843E+01 -0.28790815307E+01  0.70503010686E+01  0.10500000000E+00 0.  1.
    3000001    1    5    5    0    0  0.35563705636E+01  0.45337885034E+02  0.14019502995E+02  0.47599559401E+02  0.10000000000E+01 0.  1.
        -13    1    6    6    0    0 -0.13811435812E+01  0.55112763804E+01  0.32750023632E+01  0.65588406302E+01  0.10500000000E+00 0. -1.
         13    1    6    6    0    0 -0.18863793022E+01  0.70201642946E+01  0.40902464466E+01  0.83415990426E+01  0.10500000000E+00 0.  1.
</event>
<event>
11    0  0.3515428E-009  0.9118800E+02  0.7816531E-02  0.1126479E+00
         25   -1    0    0    0    0  0.00000000000E+00  0.00000000000E+00  0.99999998245E-14  0.12500000000E+03  0.12500000000E+03 0.  0.
    3000001    1    3    3    0    0 -0.27917762433E+02 -0.30804173565E+02  0.59155291873E+01  0.42003476688E+02  0.10000000000E+01 0.  1.
    1000022    2    1    0    0    0 -0.37744376703E+02 -0.48658046318E+02  0.37425711452E+01  0.62499997385E+02  0.99999695044E+01 0.  0.
    3000022    2    3    3    0    0 -0.98266142704E+01 -0.17853872753E+02 -0.21729580421E+01  0.20496520697E+02  0.24998745084E+00 0.  0.
    1000022    2    1    0    0    0  0.37744376703E+02  0.48658046318E+02 -0.37425711452E+01  0.62500002615E+02  0.10000002192E+02 0.  0.
    3000022    2    5    5    0    0  0.47243713819E+00  0.34960148425E+01 -0.16382716579E+01  0.38976592974E+01  0.24999469002E+00 0.  0.
        -13    1    4    4    0    0 -0.43737514265E+01 -0.78102223470E+01 -0.94793050129E+00  0.90021592902E+01  0.10500000000E+00 0. -1.
         13    1    4    4    0    0 -0.54528628439E+01 -0.10043650406E+02 -0.12250275408E+01  0.11494361407E+02  0.10500000000E+00 0.  1.
    3000001    1    5    5    0    0  0.37271939565E+02  0.45162031476E+02 -0.21042994873E+01  0.58602343318E+02  0.10000000000E+01 0.  1.
        -13    1    6    6    0    0  0.31305189000E+00  0.19528673172E+01 -0.96697941437E+00  0.22040341269E+01  0.10500000000E+00 0.  1.
         13    1    6    6    0    0  0.15938524819E+00  0.15431475252E+01 -0.67129224354E+00  0.16936251705E+01  0.10500000000E+00 0. -1.
</event>
<event>
11    0  0.3515428E-009  0.9118800E+02  0.7816531E-02  0.1126479E+00
         25   -1    0    0    0    0  0.00000000000E+00  0.00000000000E+00  0.99999998245E-14  0.12500000000E+03  0.12500000000E+03 0.  0.
    3000001    1    3    3    0    0  0.40725529687E+02  0.45283080508E+01  0.90641000266E+01  0.41978950099E+02  0.10000000000E+01 0.  1.
    1000022    2    1    0    0    0  0.59762130117E+02  0.12183901867E+02  0.92892563912E+01  0.62499999698E+02  0.10000000861E+02 0.  0.
    3000022    2    3    3    0    0  0.19036600429E+02  0.76555938163E+01  0.22515636454E+00  0.20521049599E+02  0.25001737983E+00 0.  0.
    1000022    2    1    0    0    0 -0.59762130117E+02 -0.12183901867E+02 -0.92892563912E+01  0.62500000302E+02  0.10000004632E+02 0.  0.
    3000022    2    5    5    0    0 -0.28425209108E+02 -0.27315231087E+01 -0.82973323466E+01  0.29738223858E+02  0.25000556716E+00 0.  0.
        -13    1    4    4    0    0  0.74479760206E+01  0.30618485595E+01  0.95932099179E-01  0.80540357196E+01  0.10500000000E+00 0.  1.
         13    1    4    4    0    0  0.11588624409E+02  0.45937452568E+01  0.12922426536E+00  0.12467013880E+02  0.10500000000E+00 0. -1.
    3000001    1    5    5    0    0 -0.31336921008E+02 -0.94523787584E+01 -0.99192404457E+00  0.32761776444E+02  0.10000000000E+01 0.  1.
        -13    1    6    6    0    0 -0.15803367668E+02 -0.15247034589E+01 -0.46819697732E+01  0.16553036466E+02  0.10500000000E+00 0.  1.
         13    1    6    6    0    0 -0.12621841441E+02 -0.12068196497E+01 -0.36153625734E+01  0.13185187392E+02  0.10500000000E+00 0. -1.
</event>
<event>
11    0  0.3515428E-009  0.9118800E+02  0.7816531E-02  0.1126479E+00
         25   -1    0    0    0    0  0.00000000000E+00  0.00000000000E+00  0.99999998245E-14  0.12500000000E+03  0.12500000000E+03 0.  0.
    3000001    1    3    3    0    0 -0.41152009004E+02  0.27696886789E+02  0.31090435287E+02  0.58551008097E+02  0.10000000000E+01 0.  1.
    1000022    2    1    0    0    0 -0.42550116278E+02  0.31296215725E+02  0.31879220883E+02  0.62500002249E+02  0.10000002155E+02 0.  0.
    3000022    2    3    3    0    0 -0.13981072740E+01  0.35993289359E+01  0.78878559523E+00  0.39489941518E+01  0.24999871433E+00 0.  0.
    1000022    2    1    0    0    0  0.42550116278E+02 -0.31296215725E+02 -0.31879220883E+02  0.62499997751E+02  0.99999740419E+01 0.  0.
    3000022    2    5    5    0    0  0.36685839384E+02 -0.25590991556E+02 -0.30508988662E+02  0.54144349204E+02  0.25000279314E+00 0.  0.
        -13    1    4    4    0    0 -0.33029135698E+00  0.87741460928E+00  0.17230471633E+00  0.95899045478E+00  0.10500000000E+00 0. -1.
         13    1    4    4    0    0 -0.10678159170E+01  0.27219143266E+01  0.61648087890E+00  0.29900036970E+01  0.10500000000E+00 0.  1.
    3000001    1    5    5    0    0  0.58642768938E+01 -0.57052241689E+01 -0.13702322204E+01  0.83556485471E+01  0.10000000000E+01 0. -1.
        -13    1    6    6    0    0  0.21091832306E+02 -0.14638672242E+02 -0.17539498619E+02  0.31093426184E+02  0.10500000000E+00 0.  1.
         13    1    6    6    0    0  0.15594007078E+02 -0.10952319314E+02 -0.12969490043E+02  0.23050923020E+02  0.10500000000E+00 0. -1.
</event>
<event>
11    0  0.3515428E-009  0.9118800E+02  0.7816531E-02  0.1126479E+00
         25   -1    0    0    0    0  0.00000000000E+00  0.00000000000E+00  0.99999998245E-14  0.12500000000E+03  0.12500000000E+03 0.  0.
    3000001    1    3    3    0    0  0.35129021300E+01  0.69338919667E+01 -0.15930333965E+02  0.17753728606E+02  0.10000000000E+01 0.  1.
    1000022    2    1    0    0    0  0.26896418417E+02  0.22304800728E+02 -0.50846124553E+02  0.62499997881E+02  0.99999946917E+01 0.  0.
    3000022    2    3    3    0    0  0.23383516287E+02  0.15370908761E+02 -0.34915790588E+02  0.44746269275E+02  0.25002301573E+00 0.  0.
    1000022    2    1    0    0    0 -0.26896418417E+02 -0.22304800728E+02  0.50846124553E+02  0.62500002119E+02  0.10000021184E+02 0.  0.
    3000022    2    5    5    0    0 -0.42313339361E+00  0.75658654829E+00  0.30859223402E+01  0.32151025373E+01  0.25000512423E+00 0.  0.
        -13    1    4    4    0    0  0.13434372775E+02  0.87528403634E+01 -0.20001072858E+02  0.25634908363E+02  0.10500000000E+00 0. -1.
         13    1    4    4    0    0  0.99491435123E+01  0.66180683975E+01 -0.14914717730E+02  0.19111360912E+02  0.10500000000E+00 0.  1.
    3000001    1    5    5    0    0 -0.26473285024E+02 -0.23061387276E+02  0.47760202213E+02  0.59284899582E+02  0.10000000000E+01 0.  1.
        -13    1    6    6    0    0 -0.24305122964E+00  0.33055025313E+00  0.12984095655E+01  0.13657341505E+01  0.10500000000E+00 0.  1.
         13    1    6    6    0    0 -0.18008216397E+00  0.42603629515E+00  0.17875127747E+01  0.18493683868E+01  0.10500000000E+00 0. -1.
</event>
<event>
11    0  0.3515428E-009  0.9118800E+02  0.7816531E-02  0.1126479E+00
         25   -1    0    0    0    0  0.00000000000E+00  0.00000000000E+00  0.99999998245E-14  0.12500000000E+03  0.12500000000E+03 0.  0.
    3000001    1    3    3    0    0 -0.53315341550E+01  0.93815974944E+01  0.11657936535E+02  0.15916881361E+02  0.10000000000E+01 0.  1.
    1000022    2    1    0    0    0 -0.35428844431E+02  0.32856224306E+02  0.38360337762E+02  0.62499999757E+02  0.99999981527E+01 0.  0.
    3000022    2    3    3    0    0 -0.30097310276E+02  0.23474626811E+02  0.26702401227E+02  0.46583118396E+02  0.24999691466E+00 0.  0.
    1000022    2    1    0    0    0  0.35428844431E+02 -0.32856224306E+02 -0.38360337762E+02  0.62500000243E+02  0.10000001193E+02 0.  0.
    3000022    2    5    5    0    0  0.28158503109E+02 -0.29984918158E+02 -0.34677629383E+02  0.53801459967E+02  0.25000138527E+00 0.  0.
        -13    1    4    4    0    0 -0.14887520013E+02  0.11599546151E+02  0.13121117163E+02  0.22986136335E+02  0.10500000000E+00 0.  1.
         13    1    4    4    0    0 -0.15209790263E+02  0.11875080661E+02  0.13581284064E+02  0.23596982061E+02  0.10500000000E+00 0. -1.
    3000001    1    5    5    0    0  0.72703413217E+01 -0.28713061473E+01 -0.36827083790E+01  0.86985402758E+01  0.10000000000E+01 0.  1.
        -13    1    6    6    0    0  0.20514327916E+02 -0.21891434481E+02 -0.25269383347E+02  0.39225314699E+02  0.10500000000E+00 0. -1.
         13    1    6    6    0    0  0.76441751927E+01 -0.80934836776E+01 -0.94082460365E+01  0.14576145269E+02  0.10500000000E+00 0.  1.
</event>
<event>
11    0  0.3515428E-009  0.9118800E+02  0.7816531E-02  0.1126479E+00
         25   -1    0    0    0    0  0.00000000000E+00  0.00000000000E+00  0.99999998245E-14  0.12500000000E+03  0.12500000000E+03 0.  0.
    3000001    1    3    3    0    0 -0.17111306794E+02 -0.32042493083E+02 -0.53526483599E+01  0.36731036300E+02  0.10000000000E+01 0.  1.
    1000022    2    1    0    0    0 -0.21260761562E+02 -0.57196711513E+02 -0.90975823896E+01  0.62500004289E+02  0.10000037034E+02 0.  0.
    3000022    2    3    3    0    0 -0.41494547680E+01 -0.25154218430E+02 -0.37449340298E+01  0.25768967989E+02  0.25000131997E+00 0.  0.
    1000022    2    1    0    0    0  0.21260761562E+02  0.57196711513E+02  0.90975823896E+01  0.62499995711E+02  0.99999834235E+01 0.  0.
    3000022    2    5    5    0    0  0.19106513714E+02  0.48971895622E+02  0.44419484847E+01  0.52755083844E+02  0.25007597092E+00 0.  0.
        -13    1    4    4    0    0 -0.27795509757E+01 -0.17156950984E+02 -0.25469320601E+01  0.17566580732E+02  0.10500000000E+00 0. -1.
         13    1    4    4    0    0 -0.13699037923E+01 -0.79972674461E+01 -0.11980019697E+01  0.82023872576E+01  0.10500000000E+00 0.  1.
    3000001    1    5    5    0    0  0.21542478476E+01  0.82248158912E+01  0.46556339049E+01  0.97449118667E+01  0.10000000000E+01 0.  1.
        -13    1    6    6    0    0  0.12527093492E+02  0.31995536062E+02  0.29417605706E+01  0.34486336127E+02  0.10500000000E+00 0. -1.
         13    1    6    6    0    0  0.65794202222E+01  0.16976359560E+02  0.15001879141E+01  0.18268747717E+02  0.10500000000E+00 0.  1.
</event>
<event>
11    0  0.3515428E-009  0.9118800E+02  0.7816531E-02  0.1126479E+00
         25   -1    0    0    0    0  0.00000000000E+00  0.00000000000E+00  0.99999998245E-14  0.12500000000E+03  0.12500000000E+03 0.  0.
    3000001    1    3    3    0    0  0.24352378387E+02 -0.26710284854E+02  0.19307111401E+02  0.40990757503E+02  0.10000000000E+01 0. -1.
    1000022    2    1    0    0    0  0.32957496837E+02 -0.38728351886E+02  0.34930911199E+02  0.62500002421E+02  0.99999953939E+01 0.  0.
    3000022    2    3    3    0    0  0.86051184508E+01 -0.12018067032E+02  0.15623799798E+02  0.21509244918E+02  0.24999613098E+00 0.  0.
    1000022    2    1    0    0    0 -0.32957496837E+02  0.38728351886E+02 -0.34930911199E+02  0.62499997579E+02  0.99999651313E+01 0.  0.
    3000022    2    5    5    0    0 -0.13400554235E+02  0.15980657030E+02 -0.20312794738E+02  0.29114058112E+02  0.24999358518E+00 0.  0.
        -13    1    4    4    0    0  0.33398485447E+01 -0.46749395817E+01  0.61629931007E+01  0.84263371255E+01  0.10500000000E+00 0. -1.
         13    1    4    4    0    0  0.52652699062E+01 -0.73431274502E+01  0.94608066973E+01  0.13082907792E+02  0.10500000000E+00 0.  1.
    3000001    1    5    5    0    0 -0.19556942603E+02  0.22747694856E+02 -0.14618116461E+02  0.33385939467E+02  0.10000000000E+01 0.  1.
        -13    1    6    6    0    0 -0.67911598030E+01  0.80508713586E+01 -0.10174077335E+02  0.14644427463E+02  0.10500000000E+00 0.  1.
         13    1    6    6    0    0 -0.66093944317E+01  0.79297856711E+01 -0.10138717403E+02  0.14469630649E+02  0.10500000000E+00 0. -1.
</event>
<event>
11    0  0.3515428E-009  0.9118800E+02  0.7816531E-02  0.1126479E+00
         25   -1    0    0    0    0  0.00000000000E+00  0.00000000000E+00  0.99999998245E-14  0.12500000000E+03  0.12500000000E+03 0.  0.
    3000001    1    3    3    0    0 -0.29112737086E+02 -0.41597992788E+02 -0.55860669441E+01  0.51089613510E+02  0.10000000000E+01 0. -1.
    1000022    2    1    0    0    0 -0.33171054272E+02 -0.50877592395E+02 -0.10835211703E+02  0.62499999792E+02  0.99999955979E+01 0.  0.
    3000022    2    3    3    0    0 -0.40583171856E+01 -0.92795996065E+01 -0.52491447587E+01  0.11410386282E+02  0.24997435237E+00 0.  0.
    1000022    2    1    0    0    0  0.33171054272E+02  0.50877592395E+02  0.10835211703E+02  0.62500000208E+02  0.99999981993E+01 0.  0.
    3000022    2    5    5    0    0  0.76927930967E+01  0.20169962977E+02  0.50241708544E+01  0.22165542325E+02  0.25000335840E+00 0.  0.
        -13    1    4    4    0    0 -0.15618632141E+01 -0.35549924508E+01 -0.19442371824E+01  0.43437853592E+01  0.10500000000E+00 0. -1.
         13    1    4    4    0    0 -0.24964539715E+01 -0.57246071557E+01 -0.33049075763E+01  0.70666009231E+01  0.10500000000E+00 0.  1.
    3000001    1    5    5    0    0  0.25478261175E+02  0.30707629418E+02  0.58110408485E+01  0.40334457883E+02  0.10000000000E+01 0. -1.
        -13    1    6    6    0    0  0.29754401059E+01  0.78729020642E+01  0.19008682766E+01  0.86290298378E+01  0.10500000000E+00 0. -1.
         13    1    6    6    0    0  0.47173529908E+01  0.12297060913E+02  0.31233025777E+01  0.13536512487E+02  0.10500000000E+00 0.  1.
</event>
<event>
11    0  0.3515428E-009  0.9118800E+02  0.7816531E-02  0.1126479E+00
         25   -1    0    0    0    0  0.00000000000E+00  0.00000000000E+00  0.99999998245E-14  0.12500000000E+03  0.12500000000E+03 0.  0.
    3000001    1    3    3    0    0  0.13583027415E+02  0.13330661524E+02  0.14383401353E+02  0.23876503196E+02  0.10000000000E+01 0.  1.
    1000022    2    1    0    0    0  0.44487963232E+02  0.30332601802E+02  0.30116516650E+02  0.62499999247E+02  0.99999863047E+01 0.  0.
    3000022    2    3    3    0    0  0.30904935818E+02  0.17001940278E+02  0.15733115297E+02  0.38623496051E+02  0.24999818834E+00 0.  0.
    1000022    2    1    0    0    0 -0.44487963232E+02 -0.30332601802E+02 -0.30116516650E+02  0.62500000753E+02  0.99999957191E+01 0.  0.
    3000022    2    5    5    0    0 -0.12956102134E+02 -0.72286486162E+01 -0.36454733246E+01  0.15279591481E+02  0.24999346336E+00 0.  0.
        -13    1    4    4    0    0  0.19817099933E+02  0.10965520827E+02  0.10084659003E+02  0.24792568825E+02  0.10500000000E+00 0. -1.
         13    1    4    4    0    0  0.11087835885E+02  0.60364194507E+01  0.56484562949E+01  0.13830927225E+02  0.10500000000E+00 0.  1.
    3000001    1    5    5    0    0 -0.31531861098E+02 -0.23103953186E+02 -0.26471043325E+02  0.47220409273E+02  0.10000000000E+01 0. -1.
        -13    1    6    6    0    0 -0.61729864409E+01 -0.33938156684E+01 -0.17837110518E+01  0.72674890098E+01  0.10500000000E+00 0. -1.
         13    1    6    6    0    0 -0.67831156931E+01 -0.38348329478E+01 -0.18617622729E+01  0.80121024709E+01  0.10500000000E+00 0.  1.
</event>
<event>
11    0  0.3515428E-009  0.9118800E+02  0.7816531E-02  0.1126479E+00
         25   -1    0    0    0    0  0.00000000000E+00  0.00000000000E+00  0.99999998245E-14  0.12500000000E+03  0.12500000000E+03 0.  0.
    3000001    1    3    3    0    0  0.55430575450E+01 -0.25291336177E+02  0.34658367923E+01  0.26141713739E+02  0.10000000000E+01 0.  1.
    1000022    2    1    0    0    0  0.22432171777E+02 -0.55808035778E+02  0.13729909927E+02  0.62499998639E+02  0.10000010758E+02 0.  0.
    3000022    2    3    3    0    0  0.16889114232E+02 -0.30516699602E+02  0.10264073135E+02  0.36358284900E+02  0.25009878810E+00 0.  0.
    1000022    2    1    0    0    0 -0.22432171777E+02  0.55808035778E+02 -0.13729909927E+02  0.62500001361E+02  0.10000027775E+02 0.  0.
    3000022    2    5    5    0    0 -0.21086730440E+02  0.44061231850E+02 -0.87203784644E+01  0.49620054918E+02  0.24999335810E+00 0.  0.
        -13    1    4    4    0    0  0.79115598966E+01 -0.14230052655E+02  0.47292678298E+01  0.16954768585E+02  0.10500000000E+00 0. -1.
         13    1    4    4    0    0  0.89775543351E+01 -0.16286646946E+02  0.55348053047E+01  0.19403516314E+02  0.10500000000E+00 0.  1.
    3000001    1    5    5    0    0 -0.13454413371E+01  0.11746803928E+02 -0.50095314624E+01  0.12879946444E+02  0.10000000000E+01 0. -1.
        -13    1    6    6    0    0 -0.80809118819E+01  0.16906775083E+02 -0.32838287862E+01  0.19024582441E+02  0.10500000000E+00 0. -1.
         13    1    6    6    0    0 -0.13005818558E+02  0.27154456767E+02 -0.54365496783E+01  0.30595472477E+02  0.10500000000E+00 0.  1.
</event>
<event>
11    0  0.3515428E-009  0.9118800E+02  0.7816531E-02  0.1126479E+00
         25   -1    0    0    0    0  0.00000000000E+00  0.00000000000E+00  0.99999998245E-14  0.12500000000E+03  0.12500000000E+03 0.  0.
    3000001    1    3    3    0    0 -0.25525080742E+02  0.16633717445E+02 -0.40020517820E+00  0.30485578019E+02  0.10000000000E+01 0.  1.
    1000022    2    1    0    0    0 -0.53377610657E+02  0.29369327679E+02 -0.97223047073E+01  0.62500000070E+02  0.10000003608E+02 0.  0.
    3000022    2    3    3    0    0 -0.27852529915E+02  0.12735610234E+02 -0.93220995291E+01  0.32014422052E+02  0.24997794551E+00 0.  0.
    1000022    2    1    0    0    0  0.53377610657E+02 -0.29369327679E+02  0.97223047073E+01  0.62499999930E+02  0.10000002728E+02 0.  0.
    3000022    2    5    5    0    0  0.18692319231E+02 -0.15374205121E+02  0.57216833125E+01  0.24871050060E+02  0.24997963955E+00 0.  0.
        -13    1    4    4    0    0 -0.11460859601E+02  0.51923268949E+01 -0.38786713515E+01  0.13166878059E+02  0.10500000000E+00 0.  1.
         13    1    4    4    0    0 -0.16391670314E+02  0.75432833389E+01 -0.54434281776E+01  0.18847543992E+02  0.10500000000E+00 0. -1.
    3000001    1    5    5    0    0  0.34685291426E+02 -0.13995122558E+02  0.40006213948E+01  0.37628949870E+02  0.10000000000E+01 0.  1.
        -13    1    6    6    0    0  0.86970453092E+01 -0.72253582001E+01  0.27117997036E+01  0.11627952565E+02  0.10500000000E+00 0.  1.
         13    1    6    6    0    0  0.99952739218E+01 -0.81488469210E+01  0.30098836090E+01  0.13243097495E+02  0.10500000000E+00 0. -1.
</event>
<event>
11    0  0.3515428E-009  0.9118800E+02  0.7816531E-02  0.1126479E+00
         25   -1    0    0    0    0  0.00000000000E+00  0.00000000000E+00  0.99999998245E-14  0.12500000000E+03  0.12500000000E+03 0.  0.
    3000001    1    3    3    0    0  0.59646128451E+01 -0.99101239336E+01 -0.10318806755E+01  0.11655554062E+02  0.10000000000E+01 0. -1.
    1000022    2    1    0    0    0  0.34481080701E+02 -0.49142992660E+02  0.14222229020E+02  0.62499996149E+02  0.99999533209E+01 0.  0.
    3000022    2    3    3    0    0  0.28516467856E+02 -0.39232868727E+02  0.15254109695E+02  0.50844442087E+02  0.25000202220E+00 0.  0.
    1000022    2    1    0    0    0 -0.34481080701E+02  0.49142992660E+02 -0.14222229020E+02  0.62500003851E+02  0.10000001454E+02 0.  0.
    3000022    2    5    5    0    0 -0.21042529189E+02  0.26984325437E+02 -0.33666442987E+01  0.34385151557E+02  0.24999957388E+00 0.  0.
        -13    1    4    4    0    0  0.98376509413E+01 -0.13596291237E+02  0.53226510722E+01  0.17606253175E+02  0.10500000000E+00 0. -1.
         13    1    4    4    0    0  0.18678816915E+02 -0.25636577490E+02  0.99314586232E+01  0.33238188912E+02  0.10500000000E+00 0.  1.
    3000001    1    5    5    0    0 -0.13438551512E+02  0.22158667224E+02 -0.10855584721E+02  0.28114852294E+02  0.10000000000E+01 0. -1.
        -13    1    6    6    0    0 -0.15979449849E+02  0.20516067419E+02 -0.25461374532E+01  0.26129402610E+02  0.10500000000E+00 0. -1.
         13    1    6    6    0    0 -0.50630793398E+01  0.64682580178E+01 -0.82050684546E+00  0.82557489467E+01  0.10500000000E+00 0.  1.
</event>
<event>
11    0  0.3515428E-009  0.9118800E+02  0.7816531E-02  0.1126479E+00
         25   -1    0    0    0    0  0.00000000000E+00  0.00000000000E+00  0.99999998245E-14  0.12500000000E+03  0.12500000000E+03 0.  0.
    3000001    1    3    3    0    0  0.34251098566E+02 -0.25943960735E+02  0.27995948758E+02  0.51293274398E+02  0.10000000000E+01 0. -1.
    1000022    2    1    0    0    0  0.40216587236E+02 -0.34874707524E+02  0.31187026904E+02  0.62500003085E+02  0.10000031240E+02 0.  0.
    3000022    2    3    3    0    0  0.59654886696E+01 -0.89307467887E+01  0.31910781465E+01  0.11206728687E+02  0.24998973421E+00 0.  0.
    1000022    2    1    0    0    0 -0.40216587236E+02  0.34874707524E+02 -0.31187026904E+02  0.62499996915E+02  0.99999926745E+01 0.  0.
    3000022    2    5    5    0    0 -0.39700014504E+02  0.31957723127E+02 -0.30098830689E+02  0.59189435579E+02  0.24991242341E+00 0.  0.
        -13    1    4    4    0    0  0.34280148747E+01 -0.51449471876E+01  0.19043197375E+01  0.64698706484E+01  0.10500000000E+00 0.  1.
         13    1    4    4    0    0  0.25374737949E+01 -0.37857996011E+01  0.12867584090E+01  0.47368580391E+01  0.10500000000E+00 0. -1.
    3000001    1    5    5    0    0 -0.51657273160E+00  0.29169843963E+01 -0.10881962154E+01  0.33105613359E+01  0.10000000000E+01 0. -1.
        -13    1    6    6    0    0 -0.19910618561E+02  0.16064847182E+02 -0.15038028297E+02  0.29676006580E+02  0.10500000000E+00 0.  1.
         13    1    6    6    0    0 -0.19789395943E+02  0.15892875945E+02 -0.15060802392E+02  0.29513428999E+02  0.10500000000E+00 0. -1.
</event>
<event>
11    0  0.3515428E-009  0.9118800E+02  0.7816531E-02  0.1126479E+00
         25   -1    0    0    0    0  0.00000000000E+00  0.00000000000E+00  0.99999998245E-14  0.12500000000E+03  0.12500000000E+03 0.  0.
    3000001    1    3    3    0    0  0.17637622919E+02  0.89590901206E+01  0.91390938250E+00  0.19828925044E+02  0.10000000000E+01 0. -1.
    1000022    2    1    0    0    0  0.59936022206E+02  0.14564782563E+02  0.13381253801E+01  0.62500002269E+02  0.10000002756E+02 0.  0.
    3000022    2    3    3    0    0  0.42298399287E+02  0.56056924421E+01  0.42421599759E+00  0.42671077225E+02  0.25000474978E+00 0.  0.
    1000022    2    1    0    0    0 -0.59936022206E+02 -0.14564782563E+02 -0.13381253801E+01  0.62499997731E+02  0.99999743958E+01 0.  0.
    3000022    2    5    5    0    0 -0.34462388716E+02 -0.10867578578E+02  0.34440048551E+01  0.36299919677E+02  0.24999787310E+00 0.  0.
        -13    1    4    4    0    0  0.10313383101E+02  0.13781388022E+01  0.12278847121E+00  0.10406307681E+02  0.10500000000E+00 0. -1.
         13    1    4    4    0    0  0.31985016186E+02  0.42275536399E+01  0.30142752638E+00  0.32264769544E+02  0.10500000000E+00 0.  1.
    3000001    1    5    5    0    0 -0.25473633490E+02 -0.36972039852E+01 -0.47821302352E+01  0.26200078054E+02  0.10000000000E+01 0.  1.
        -13    1    6    6    0    0 -0.10544940660E+02 -0.32786826476E+01  0.10362853497E+01  0.11091909022E+02  0.10500000000E+00 0. -1.
         13    1    6    6    0    0 -0.23917448056E+02 -0.75888959299E+01  0.24077195054E+01  0.25208010655E+02  0.10500000000E+00 0.  1.
</event>
<event>
11    0  0.3515428E-009  0.9118800E+02  0.7816531E-02  0.1126479E+00
         25   -1    0    0    0    0  0.00000000000E+00  0.00000000000E+00  0.99999998245E-14  0.12500000000E+03  0.12500000000E+03 0.  0.
    3000001    1    3    3    0    0  0.17828799131E+01 -0.23277508646E+01  0.10603935898E+02  0.11047196088E+02  0.10000000000E+01 0. -1.
    1000022    2    1    0    0    0  0.29708772236E+02 -0.11548048741E+02  0.52823114387E+02  0.62499998645E+02  0.99999919761E+01 0.  0.
    3000022    2    3    3    0    0  0.27925892323E+02 -0.92202978767E+01  0.42219178489E+02  0.51452802556E+02  0.25000738249E+00 0.  0.
    1000022    2    1    0    0    0 -0.29708772236E+02  0.11548048741E+02 -0.52823114387E+02  0.62500001355E+02  0.10000008919E+02 0.  0.
    3000022    2    5    5    0    0 -0.88762567006E+00  0.24437946910E+01 -0.17466521595E+01  0.31421802629E+01  0.24998243139E+00 0.  0.
        -13    1    4    4    0    0  0.93616799425E+01 -0.30383578481E+01  0.14095158315E+02  0.17191776601E+02  0.10500000000E+00 0.  1.
         13    1    4    4    0    0  0.18564212380E+02 -0.61819400286E+01  0.28124020173E+02  0.34261025956E+02  0.10500000000E+00 0. -1.
    3000001    1    5    5    0    0 -0.28821146566E+02  0.91042540503E+01 -0.51076462227E+02  0.59357821093E+02  0.10000000000E+01 0.  1.
        -13    1    6    6    0    0 -0.45608389725E+00  0.12009429155E+01 -0.94139600795E+00  0.15960976948E+01  0.10500000000E+00 0.  1.
         13    1    6    6    0    0 -0.43154177281E+00  0.12428517755E+01 -0.80525615160E+00  0.15460825681E+01  0.10500000000E+00 0. -1.
</event>
<event>
11    0  0.3515428E-009  0.9118800E+02  0.7816531E-02  0.1126479E+00
         25   -1    0    0    0    0  0.00000000000E+00  0.00000000000E+00  0.99999998245E-14  0.12500000000E+03  0.12500000000E+03 0.  0.
    3000001    1    3    3    0    0  0.12543277168E+02  0.15088954268E+02  0.69822930061E+01  0.20850965413E+02  0.10000000000E+01 0.  1.
    1000022    2    1    0    0    0  0.30436572024E+02  0.52434464095E+02  0.11423330903E+02  0.62500004057E+02  0.10000003836E+02 0.  0.
    3000022    2    3    3    0    0  0.17893294856E+02  0.37345509827E+02  0.44410378966E+01  0.41649038644E+02  0.24999473787E+00 0.  0.
    1000022    2    1    0    0    0 -0.30436572024E+02 -0.52434464095E+02 -0.11423330903E+02  0.62499995943E+02  0.99999531214E+01 0.  0.
    3000022    2    5    5    0    0 -0.11310054070E+02 -0.13899574507E+02 -0.70043766197E+01  0.19241602982E+02  0.24999788127E+00 0.  0.
        -13    1    4    4    0    0  0.95537663593E+01  0.20091467526E+02  0.23708424614E+01  0.22373498564E+02  0.10500000000E+00 0.  1.
         13    1    4    4    0    0  0.83395284970E+01  0.17254042301E+02  0.20701954353E+01  0.19275540081E+02  0.10500000000E+00 0. -1.
    3000001    1    5    5    0    0 -0.19126517955E+02 -0.38534889588E+02 -0.44189542831E+01  0.43258392961E+02  0.10000000000E+01 0.  1.
        -13    1    6    6    0    0 -0.68930915569E+01 -0.85680017691E+01 -0.42891849917E+01  0.11803961133E+02  0.10500000000E+00 0.  1.
         13    1    6    6    0    0 -0.44169625128E+01 -0.53315727378E+01 -0.27151916280E+01  0.74376418490E+01  0.10500000000E+00 0. -1.
</event>
<event>
11    0  0.3515428E-009  0.9118800E+02  0.7816531E-02  0.1126479E+00
         25   -1    0    0    0    0  0.00000000000E+00  0.00000000000E+00  0.99999998245E-14  0.12500000000E+03  0.12500000000E+03 0.  0.
    3000001    1    3    3    0    0 -0.12096423196E+02  0.88362280719E+01 -0.20569451646E+02  0.25465755864E+02  0.10000000000E+01 0.  1.
    1000022    2    1    0    0    0 -0.19075580607E+02  0.19405343934E+02 -0.55369709322E+02  0.62500000688E+02  0.10000011342E+02 0.  0.
    3000022    2    3    3    0    0 -0.69791574115E+01  0.10569115862E+02 -0.34800257676E+02  0.37034244824E+02  0.25001421143E+00 0.  0.
    1000022    2    1    0    0    0  0.19075580607E+02 -0.19405343934E+02  0.55369709322E+02  0.62499999312E+02  0.10000002747E+02 0.  0.
    3000022    2    5    5    0    0 -0.70978374735E+00 -0.35032098157E+01  0.71824916435E+01  0.80266438093E+01  0.25010528232E+00 0.  0.
        -13    1    4    4    0    0 -0.40465596793E+01  0.62112341382E+01 -0.20234778562E+02  0.21550205642E+02  0.10500000000E+00 0. -1.
         13    1    4    4    0    0 -0.29325977323E+01  0.43578817235E+01 -0.14565479113E+02  0.15484039182E+02  0.10500000000E+00 0.  1.
    3000001    1    5    5    0    0  0.19785364355E+02 -0.15902134118E+02  0.48187217679E+02  0.54473355503E+02  0.10000000000E+01 0. -1.
        -13    1    6    6    0    0 -0.15334411072E+00 -0.90401325194E+00  0.18320049715E+01  0.20513462876E+01  0.10500000000E+00 0.  1.
         13    1    6    6    0    0 -0.55643963663E+00 -0.25991965637E+01  0.53504866720E+01  0.59752975218E+01  0.10500000000E+00 0. -1.
</event>
<event>
11    0  0.3515428E-009  0.9118800E+02  0.7816531E-02  0.1126479E+00
         25   -1    0    0    0    0  0.00000000000E+00  0.00000000000E+00  0.99999998245E-14  0.12500000000E+03  0.12500000000E+03 0.  0.
    3000001    1    3    3    0    0 -0.75043307382E+00  0.26078134011E+02  0.22295491653E+02  0.34332508958E+02  0.10000000000E+01 0.  1.
    1000022    2    1    0    0    0  0.70566060740E+01  0.44701017700E+02  0.41931770639E+02  0.62500000562E+02  0.10000000430E+02 0.  0.
    3000022    2    3    3    0    0  0.78070391478E+01  0.18622883689E+02  0.19636278987E+02  0.28167491604E+02  0.24994736732E+00 0.  0.
    1000022    2    1    0    0    0 -0.70566060740E+01 -0.44701017700E+02 -0.41931770639E+02  0.62499999438E+02  0.99999934064E+01 0.  0.
    3000022    2    5    5    0    0 -0.23263439982E+01 -0.27288468723E+02 -0.19141916888E+02  0.33414785408E+02  0.25000014656E+00 0.  0.
        -13    1    4    4    0    0  0.40703114095E+01  0.96478666837E+01  0.10270798379E+02  0.14667961373E+02  0.10500000000E+00 0. -1.
         13    1    4    4    0    0  0.37367277383E+01  0.89750170051E+01  0.93654806079E+01  0.13499530231E+02  0.10500000000E+00 0.  1.
    3000001    1    5    5    0    0 -0.47302620757E+01 -0.17412548977E+02 -0.22789853751E+02  0.29085214030E+02  0.10000000000E+01 0.  1.
        -13    1    6    6    0    0 -0.10108106838E+01 -0.11752728808E+02 -0.81655018188E+01  0.14346944540E+02  0.10500000000E+00 0.  1.
         13    1    6    6    0    0 -0.13155333144E+01 -0.15535739915E+02 -0.10976415069E+02  0.19067840868E+02  0.10500000000E+00 0. -1.
</event>
<event>
11    0  0.3515428E-009  0.9118800E+02  0.7816531E-02  0.1126479E+00
         25   -1    0    0    0    0  0.00000000000E+00  0.00000000000E+00  0.99999998245E-14  0.12500000000E+03  0.12500000000E+03 0.  0.
    3000001    1    3    3    0    0 -0.32919442773E+02 -0.15923850056E+02 -0.27494669069E+02  0.45762599798E+02  0.10000000000E+01 0.  1.
    1000022    2    1    0    0    0 -0.40201597190E+02 -0.24636447666E+02 -0.39788527970E+02  0.62500000837E+02  0.10000008821E+02 0.  0.
    3000022    2    3    3    0    0 -0.72821544169E+01 -0.87125976094E+01 -0.12293858902E+02  0.16737401039E+02  0.24999359090E+00 0.  0.
    1000022    2    1    0    0    0  0.40201597190E+02  0.24636447666E+02  0.39788527970E+02  0.62499999163E+02  0.99999983574E+01 0.  0.
    3000022    2    5    5    0    0  0.14699440097E+01 -0.59262527471E+00  0.30491497043E+01  0.34455412885E+01  0.25000148671E+00 0.  0.
        -13    1    4    4    0    0 -0.32708835191E+01 -0.38769849955E+01 -0.55837935302E+01  0.75444991112E+01  0.10500000000E+00 0. -1.
         13    1    4    4    0    0 -0.40112708978E+01 -0.48356126139E+01 -0.67100653713E+01  0.91929019278E+01  0.10500000000E+00 0.  1.
    3000001    1    5    5    0    0  0.38731653180E+02  0.25229072940E+02  0.36739378266E+02  0.59054457874E+02  0.10000000000E+01 0. -1.
        -13    1    6    6    0    0  0.10429423828E+01 -0.39990915227E+00  0.22215348123E+01  0.24887543201E+01  0.10500000000E+00 0.  1.
         13    1    6    6    0    0  0.42700162698E+00 -0.19271612243E+00  0.82761489207E+00  0.95678696838E+00  0.10500000000E+00 0. -1.
</event>
<event>
11    0  0.3515428E-009  0.9118800E+02  0.7816531E-02  0.1126479E+00
         25   -1    0    0    0    0  0.00000000000E+00  0.00000000000E+00  0.99999998245E-14  0.12500000000E+03  0.12500000000E+03 0.  0.
    3000001    1    3    3    0    0 -0.51491214244E+01 -0.42816678830E+01  0.16559342324E+00  0.67730017337E+01  0.10000000000E+01 0. -1.
    1000022    2    1    0    0    0 -0.43883544809E+02 -0.33227226069E+02  0.27864605149E+02  0.62500002763E+02  0.10000003402E+02 0.  0.
    3000022    2    3    3    0    0 -0.38734423385E+02 -0.28945558186E+02  0.27699011725E+02  0.55727001029E+02  0.24999901672E+00 0.  0.
    1000022    2    1    0    0    0  0.43883544809E+02  0.33227226069E+02 -0.27864605149E+02  0.62499997237E+02  0.99999688634E+01 0.  0.
    3000022    2    5    5    0    0  0.30442521744E+02  0.21887350042E+02 -0.23839793032E+02  0.44431986779E+02  0.24999056287E+00 0.  0.
        -13    1    4    4    0    0 -0.24732060925E+02 -0.18411966245E+02  0.17642455672E+02  0.35523831519E+02  0.10500000000E+00 0. -1.
         13    1    4    4    0    0 -0.14002362460E+02 -0.10533591940E+02  0.10056556054E+02  0.20203169511E+02  0.10500000000E+00 0.  1.
    3000001    1    5    5    0    0  0.13441023065E+02  0.11339876027E+02 -0.40248121162E+01  0.18068010458E+02  0.10000000000E+01 0.  1.
        -13    1    6    6    0    0  0.79477528556E+01  0.57025128358E+01 -0.61836129957E+01  0.11572965168E+02  0.10500000000E+00 0. -1.
         13    1    6    6    0    0  0.22494768889E+02  0.16184837206E+02 -0.17656180037E+02  0.32859021611E+02  0.10500000000E+00 0.  1.
</event>
<event>
11    0  0.3515428E-009  0.9118800E+02  0.7816531E-02  0.1126479E+00
         25   -1    0    0    0    0  0.00000000000E+00  0.00000000000E+00  0.99999998245E-14  0.12500000000E+03  0.12500000000E+03 0.  0.
    3000001    1    3    3    0    0  0.29630171655E+02  0.24880385885E+02 -0.14575038265E+02  0.41357132571E+02  0.10000000000E+01 0. -1.
    1000022    2    1    0    0    0  0.48084702032E+02  0.35050053917E+02 -0.16297398556E+02  0.62499999900E+02  0.99999969343E+01 0.  0.
    3000022    2    3    3    0    0  0.18454530377E+02  0.10169668032E+02 -0.17223602915E+01  0.21142867329E+02  0.24994916701E+00 0.  0.
    1000022    2    1    0    0    0 -0.48084702032E+02 -0.35050053917E+02  0.16297398556E+02  0.62500000100E+02  0.99999981883E+01 0.  0.
    3000022    2    5    5    0    0 -0.30234179158E+02 -0.16078210883E+02  0.10139716678E+02  0.35714014192E+02  0.25000167691E+00 0.  0.
        -13    1    4    4    0    0  0.14161605142E+02  0.77946877365E+01 -0.13129516129E+01  0.16218603024E+02  0.10500000000E+00 0.  1.
         13    1    4    4    0    0  0.42929252351E+01  0.23749802956E+01 -0.40940867861E+00  0.49242643049E+01  0.10500000000E+00 0. -1.
    3000001    1    5    5    0    0 -0.17850522874E+02 -0.18971843034E+02  0.61576818783E+01  0.26785985908E+02  0.10000000000E+01 0. -1.
        -13    1    6    6    0    0 -0.19809252736E+02 -0.10596392322E+02  0.66428437496E+01  0.23427087362E+02  0.10500000000E+00 0.  1.
         13    1    6    6    0    0 -0.10424926422E+02 -0.54818185611E+01  0.34968729286E+01  0.12286926830E+02  0.10500000000E+00 0. -1.
</event>
<event>
11    0  0.3515428E-009  0.9118800E+02  0.7816531E-02  0.1126479E+00
         25   -1    0    0    0    0  0.00000000000E+00  0.00000000000E+00  0.99999998245E-14  0.12500000000E+03  0.12500000000E+03 0.  0.
    3000001    1    3    3    0    0 -0.29918337755E+02  0.27084392161E+02 -0.23853255487E+01  0.40439597064E+02  0.10000000000E+01 0.  1.
    1000022    2    1    0    0    0 -0.40577287125E+02  0.46151542314E+02 -0.54560510104E+01  0.62499997631E+02  0.10000006143E+02 0.  0.
    3000022    2    3    3    0    0 -0.10658949370E+02  0.19067150153E+02 -0.30707254617E+01  0.22060400567E+02  0.25000333417E+00 0.  0.
    1000022    2    1    0    0    0  0.40577287125E+02 -0.46151542314E+02  0.54560510104E+01  0.62500002369E+02  0.10000035756E+02 0.  0.
    3000022    2    5    5    0    0  0.18159150541E+02 -0.27285958146E+02  0.59329250954E+00  0.32782506947E+02  0.25001088862E+00 0.  0.
        -13    1    4    4    0    0 -0.65234380592E+01  0.11753247746E+02 -0.18433631691E+01  0.13568459362E+02  0.10500000000E+00 0.  1.
         13    1    4    4    0    0 -0.41355113103E+01  0.73139024077E+01 -0.12273622927E+01  0.84919412047E+01  0.10500000000E+00 0. -1.
    3000001    1    5    5    0    0  0.22418136584E+02 -0.18865584168E+02  0.48627585009E+01  0.29717495422E+02  0.10000000000E+01 0. -1.
        -13    1    6    6    0    0  0.90073380798E+01 -0.13448286385E+02  0.34117148656E+00  0.16189995953E+02  0.10500000000E+00 0.  1.
         13    1    6    6    0    0  0.91518124608E+01 -0.13837671761E+02  0.25212102298E+00  0.16592510994E+02  0.10500000000E+00 0. -1.
</event>
<event>
11    0  0.3515428E-009  0.9118800E+02  0.7816531E-02  0.1126479E+00
         25   -1    0    0    0    0  0.00000000000E+00  0.00000000000E+00  0.99999998245E-14  0.12500000000E+03  0.12500000000E+03 0.  0.
    3000001    1    3    3    0    0  0.10482275750E+02 -0.58999176399E+00  0.96593449927E+01  0.14301368496E+02  0.10000000000E+01 0.  1.
    1000022    2    1    0    0    0  0.49616806424E+02  0.13052963979E+02  0.34264301924E+02  0.62500000606E+02  0.10000017050E+02 0.  0.
    3000022    2    3    3    0    0  0.39134530674E+02  0.13642955743E+02  0.24604956931E+02  0.48198632110E+02  0.24999826186E+00 0.  0.
    1000022    2    1    0    0    0 -0.49616806424E+02 -0.13052963979E+02 -0.34264301924E+02  0.62499999394E+02  0.10000009475E+02 0.  0.
    3000022    2    5    5    0    0 -0.30673298742E+02 -0.11901119506E+02 -0.25202379370E+02  0.41445269061E+02  0.25000088398E+00 0.  0.
        -13    1    4    4    0    0  0.29427126767E+02  0.10235703621E+02  0.18482054612E+02  0.36225995998E+02  0.10500000000E+00 0. -1.
         13    1    4    4    0    0  0.97074039074E+01  0.34072521224E+01  0.61229023197E+01  0.11972636112E+02  0.10500000000E+00 0.  1.
    3000001    1    5    5    0    0 -0.18943507683E+02 -0.11518444736E+01 -0.90619225541E+01  0.21054730333E+02  0.10000000000E+01 0.  1.
        -13    1    6    6    0    0 -0.13832894913E+02 -0.53035414186E+01 -0.11309619323E+02  0.18638536624E+02  0.10500000000E+00 0.  1.
         13    1    6    6    0    0 -0.16840403828E+02 -0.65975780871E+01 -0.13892760047E+02  0.22806732437E+02  0.10500000000E+00 0. -1.
</event>
<event>
11    0  0.3515428E-009  0.9118800E+02  0.7816531E-02  0.1126479E+00
         25   -1    0    0    0    0  0.00000000000E+00  0.00000000000E+00  0.99999998245E-14  0.12500000000E+03  0.12500000000E+03 0.  0.
    3000001    1    3    3    0    0 -0.43231022234E+01  0.37868357860E+01 -0.20341782649E+00  0.58370126706E+01  0.10000000000E+01 0. -1.
    1000022    2    1    0    0    0 -0.58304097334E+02  0.17029803004E+02  0.10810552943E+02  0.62499999416E+02  0.99999957887E+01 0.  0.
    3000022    2    3    3    0    0 -0.53980995110E+02  0.13242967219E+02  0.11013970770E+02  0.56662986745E+02  0.25000187148E+00 0.  0.
    1000022    2    1    0    0    0  0.58304097334E+02 -0.17029803004E+02 -0.10810552943E+02  0.62500000584E+02  0.10000003092E+02 0.  0.
    3000022    2    5    5    0    0  0.40938874061E+01 -0.37905569941E+01 -0.23109575310E+01  0.60441096827E+01  0.25000145486E+00 0.  0.
        -13    1    4    4    0    0 -0.30493479988E+02  0.74335054510E+01  0.61713904040E+01  0.31987597747E+02  0.10500000000E+00 0. -1.
         13    1    4    4    0    0 -0.23487515122E+02  0.58094617675E+01  0.48425803657E+01  0.24675388999E+02  0.10500000000E+00 0.  1.
    3000001    1    5    5    0    0  0.54210209928E+02 -0.13239246010E+02 -0.84995954122E+01  0.56455890901E+02  0.10000000000E+01 0. -1.
        -13    1    6    6    0    0  0.11118731758E+01 -0.10667521888E+01 -0.66833432668E+00  0.16828303431E+01  0.10500000000E+00 0.  1.
         13    1    6    6    0    0  0.29820142303E+01 -0.27238048054E+01 -0.16426232043E+01  0.43612793397E+01  0.10500000000E+00 0. -1.
</event>
<event>
11    0  0.3515428E-009  0.9118800E+02  0.7816531E-02  0.1126479E+00
         25   -1    0    0    0    0  0.00000000000E+00  0.00000000000E+00  0.99999998245E-14  0.12500000000E+03  0.12500000000E+03 0.  0.
    3000001    1    3    3    0    0  0.11625692557E+02  0.31823647075E+02  0.73778427151E+01  0.34689102089E+02  0.10000000000E+01 0. -1.
    1000022    2    1    0    0    0  0.14520381497E+02  0.59481675059E+02  0.75722308781E+01  0.62499999490E+02  0.10000005460E+02 0.  0.
    3000022    2    3    3    0    0  0.28946889405E+01  0.27658027983E+02  0.19438816300E+00  0.27810897401E+02  0.24998304671E+00 0.  0.
    1000022    2    1    0    0    0 -0.14520381497E+02 -0.59481675059E+02 -0.75722308781E+01  0.62500000510E+02  0.10000011832E+02 0.  0.
    3000022    2    5    5    0    0 -0.14796115572E+02 -0.42501227728E+02 -0.47230233799E+01  0.45250954038E+02  0.24999410908E+00 0.  0.
        -13    1    4    4    0    0  0.91518737914E+00  0.88680075794E+01  0.13117265767E-01  0.89157345984E+01  0.10500000000E+00 0. -1.
         13    1    4    4    0    0  0.19795015614E+01  0.18790020404E+02  0.18127089723E+00  0.18895162803E+02  0.10500000000E+00 0.  1.
    3000001    1    5    5    0    0  0.27573407523E+00 -0.16980447330E+02 -0.28492074982E+01  0.17249046472E+02  0.10000000000E+01 0. -1.
        -13    1    6    6    0    0 -0.80794260121E+01 -0.23409923032E+02 -0.25939307522E+01  0.24900624948E+02  0.10500000000E+00 0. -1.
         13    1    6    6    0    0 -0.67166895603E+01 -0.19091304696E+02 -0.21290926277E+01  0.20350329090E+02  0.10500000000E+00 0.  1.
</event>
<event>
11    0  0.3515428E-009  0.9118800E+02  0.7816531E-02  0.1126479E+00
         25   -1    0    0    0    0  0.00000000000E+00  0.00000000000E+00  0.99999998245E-14  0.12500000000E+03  0.12500000000E+03 0.  0.
    3000001    1    3    3    0    0  0.47987470298E+02  0.18751307482E+02  0.22636010169E+02  0.56283192822E+02  0.10000000000E+01 0.  1.
    1000022    2    1    0    0    0  0.53513860734E+02  0.17536382103E+02  0.25199047945E+02  0.62500000002E+02  0.99999997543E+01 0.  0.
    3000022    2    3    3    0    0  0.55263904354E+01 -0.12149253788E+01  0.25630377758E+01  0.62168071800E+01  0.24998790587E+00 0.  0.
    1000022    2    1    0    0    0 -0.53513860734E+02 -0.17536382103E+02 -0.25199047945E+02  0.62499999998E+02  0.99999997244E+01 0.  0.
    3000022    2    5    5    0    0 -0.10039226971E+02 -0.56480128768E+01 -0.89123890717E+01  0.14566375464E+02  0.24997512863E+00 0.  0.
        -13    1    4    4    0    0  0.23973993685E+01 -0.46011505376E+00  0.11117786125E+01  0.26844564213E+01  0.10500000000E+00 0.  1.
         13    1    4    4    0    0  0.31289910669E+01 -0.75481032506E+00  0.14512591633E+01  0.35323507587E+01  0.10500000000E+00 0. -1.
    3000001    1    5    5    0    0 -0.43474633763E+02 -0.11888369226E+02 -0.16286658873E+02  0.47933624534E+02  0.10000000000E+01 0.  1.
        -13    1    6    6    0    0 -0.71055504480E+01 -0.40404956402E+01 -0.62965535351E+01  0.10318530109E+02  0.10500000000E+00 0.  1.
         13    1    6    6    0    0 -0.29336765227E+01 -0.16075172366E+01 -0.26158355366E+01  0.42478453550E+01  0.10500000000E+00 0. -1.
</event>
<event>
11    0  0.3515428E-009  0.9118800E+02  0.7816531E-02  0.1126479E+00
         25   -1    0    0    0    0  0.00000000000E+00  0.00000000000E+00  0.99999998245E-14  0.12500000000E+03  0.12500000000E+03 0.  0.
    3000001    1    3    3    0    0 -0.19882873813E+02  0.23052818254E+02  0.27564364827E+01  0.30583640114E+02  0.10000000000E+01 0.  1.
    1000022    2    1    0    0    0 -0.44278089797E+02  0.41006498745E+02  0.12812801184E+02  0.62500002342E+02  0.10000012157E+02 0.  0.
    3000022    2    3    3    0    0 -0.24395215984E+02  0.17953680491E+02  0.10056364701E+02  0.31916362228E+02  0.25000158247E+00 0.  0.
    1000022    2    1    0    0    0  0.44278089797E+02 -0.41006498745E+02 -0.12812801184E+02  0.62499997658E+02  0.99999828857E+01 0.  0.
    3000022    2    5    5    0    0  0.41940912794E+02 -0.35023011700E+02 -0.10844247724E+02  0.55707375463E+02  0.24991549862E+00 0.  0.
        -13    1    4    4    0    0 -0.17904694645E+02  0.13219123723E+02  0.73908498216E+01  0.23451204840E+02  0.10500000000E+00 0.  1.
         13    1    4    4    0    0 -0.64905213389E+01  0.47345567677E+01  0.26655148794E+01  0.84651573883E+01  0.10500000000E+00 0. -1.
    3000001    1    5    5    0    0  0.23371770027E+01 -0.59834870451E+01 -0.19685534594E+01  0.67926221950E+01  0.10000000000E+01 0. -1.
        -13    1    6    6    0    0  0.12943433974E+02 -0.10753698077E+02 -0.33165399488E+01  0.17151821116E+02  0.10500000000E+00 0. -1.
         13    1    6    6    0    0  0.28997478820E+02 -0.24269313624E+02 -0.75277077755E+01  0.38555554347E+02  0.10500000000E+00 0.  1.
</event>
<event>
11    0  0.3515428E-009  0.9118800E+02  0.7816531E-02  0.1126479E+00
         25   -1    0    0    0    0  0.00000000000E+00  0.00000000000E+00  0.99999998245E-14  0.12500000000E+03  0.12500000000E+03 0.  0.
    3000001    1    3    3    0    0  0.35388186585E+02  0.34024919563E+02 -0.20426152704E+02  0.53181261882E+02  0.10000000000E+01 0. -1.
    1000022    2    1    0    0    0  0.40853884802E+02  0.41565894446E+02 -0.20235768500E+02  0.62500001377E+02  0.10000018039E+02 0.  0.
    3000022    2    3    3    0    0  0.54656982169E+01  0.75409748825E+01  0.19038420444E+00  0.93187394945E+01  0.25000088580E+00 0.  0.
    1000022    2    1    0    0    0 -0.40853884802E+02 -0.41565894446E+02  0.20235768500E+02  0.62499998623E+02  0.10000000832E+02 0.  0.
    3000022    2    5    5    0    0 -0.30580883774E+01 -0.85355432956E+00  0.28733834969E+01  0.42894387729E+01  0.24998549727E+00 0.  0.
        -13    1    4    4    0    0  0.36948701700E+01  0.50070648314E+01  0.12795459884E+00  0.62249627451E+01  0.10500000000E+00 0.  1.
         13    1    4    4    0    0  0.17708280469E+01  0.25339100512E+01  0.62429605603E-01  0.30937767493E+01  0.10500000000E+00 0. -1.
    3000001    1    5    5    0    0 -0.37795796425E+02 -0.40712340116E+02  0.17362385003E+02  0.58210559850E+02  0.10000000000E+01 0. -1.
        -13    1    6    6    0    0 -0.11208795556E+01 -0.36479784516E+00  0.10242482134E+01  0.15651063378E+01  0.10500000000E+00 0. -1.
         13    1    6    6    0    0 -0.19372088219E+01 -0.48875648440E+00  0.18491352835E+01  0.27243324352E+01  0.10500000000E+00 0.  1.
</event>
<event>
11    0  0.3515428E-009  0.9118800E+02  0.7816531E-02  0.1126479E+00
         25   -1    0    0    0    0  0.00000000000E+00  0.00000000000E+00  0.99999998245E-14  0.12500000000E+03  0.12500000000E+03 0.  0.
    3000001    1    3    3    0    0 -0.80096947544E+01  0.24895647045E+02 -0.60860185749E+01  0.26869835763E+02  0.10000000000E+01 0. -1.
    1000022    2    1    0    0    0 -0.18378040286E+02  0.58826302695E+02 -0.28219619135E+01  0.62499999215E+02  0.10000008969E+02 0.  0.
    3000022    2    3    3    0    0 -0.10368345531E+02  0.33930655650E+02  0.32640566614E+01  0.35630163452E+02  0.24999969142E+00 0.  0.
    1000022    2    1    0    0    0  0.18378040286E+02 -0.58826302695E+02  0.28219619135E+01  0.62500000785E+02  0.10000018778E+02 0.  0.
    3000022    2    5    5    0    0  0.16512982256E+02 -0.57571712214E+02  0.20773426819E+01  0.59929612385E+02  0.24991538002E+00 0.  0.
        -13    1    4    4    0    0 -0.58054192017E+01  0.19122625738E+02  0.18938143116E+01  0.20074243818E+02  0.10500000000E+00 0. -1.
         13    1    4    4    0    0 -0.45629263294E+01  0.14808029912E+02  0.13702423498E+01  0.15555919634E+02  0.10500000000E+00 0.  1.
    3000001    1    5    5    0    0  0.18650580291E+01 -0.12545904805E+01  0.74461923158E+00  0.25703883998E+01  0.10000000000E+01 0.  1.
        -13    1    6    6    0    0  0.47383131742E+01 -0.16502470767E+02  0.55396529250E+00  0.17178505630E+02  0.10500000000E+00 0.  1.
         13    1    6    6    0    0  0.11774669082E+02 -0.41069241448E+02  0.15233773894E+01  0.42751106755E+02  0.10500000000E+00 0. -1.
</event>
<event>
11    0  0.3515428E-009  0.9118800E+02  0.7816531E-02  0.1126479E+00
         25   -1    0    0    0    0  0.00000000000E+00  0.00000000000E+00  0.99999998245E-14  0.12500000000E+03  0.12500000000E+03 0.  0.
    3000001    1    3    3    0    0  0.11215552236E+02  0.45183562490E+01  0.28222331094E+02  0.30719767700E+02  0.10000000000E+01 0. -1.
    1000022    2    1    0    0    0  0.19729193806E+02 -0.32602060071E+00  0.58454278451E+02  0.62500000886E+02  0.10000003195E+02 0.  0.
    3000022    2    3    3    0    0  0.85136415693E+01 -0.48443768497E+01  0.30231947357E+02  0.31780233186E+02  0.25000108261E+00 0.  0.
    1000022    2    1    0    0    0 -0.19729193806E+02  0.32602060071E+00 -0.58454278451E+02  0.62499999114E+02  0.99999921177E+01 0.  0.
    3000022    2    5    5    0    0 -0.27612980436E+01 -0.26102035028E+01 -0.19928121179E+02  0.20288677259E+02  0.24996397505E+00 0.  0.
        -13    1    4    4    0    0  0.36501462957E+01 -0.21395253210E+01  0.13177889394E+02  0.13840842838E+02  0.10500000000E+00 0. -1.
         13    1    4    4    0    0  0.48634952737E+01 -0.27048515288E+01  0.17054057963E+02  0.17939390348E+02  0.10500000000E+00 0.  1.
    3000001    1    5    5    0    0 -0.16967895762E+02  0.29362241035E+01 -0.38526157272E+02  0.42211321855E+02  0.10000000000E+01 0. -1.
        -13    1    6    6    0    0 -0.74290681837E+00 -0.75587699343E+00 -0.56035042051E+01  0.57038184531E+01  0.10500000000E+00 0. -1.
         13    1    6    6    0    0 -0.20183912252E+01 -0.18543265094E+01 -0.14324616974E+02  0.14584858806E+02  0.10500000000E+00 0.  1.
</event>
<event>
11    0  0.3515428E-009  0.9118800E+02  0.7816531E-02  0.1126479E+00
         25   -1    0    0    0    0  0.00000000000E+00  0.00000000000E+00  0.99999998245E-14  0.12500000000E+03  0.12500000000E+03 0.  0.
    3000001    1    3    3    0    0 -0.21505635525E+01 -0.17127080074E+02 -0.22198954159E+02  0.28138147793E+02  0.10000000000E+01 0. -1.
    1000022    2    1    0    0    0 -0.10581021492E+02 -0.29598582497E+02 -0.53086871303E+02  0.62500000459E+02  0.10000002553E+02 0.  0.
    3000022    2    3    3    0    0 -0.84304579392E+01 -0.12471502423E+02 -0.30887917144E+02  0.34361852667E+02  0.24999889674E+00 0.  0.
    1000022    2    1    0    0    0  0.10581021492E+02  0.29598582497E+02  0.53086871303E+02  0.62499999541E+02  0.99999968101E+01 0.  0.
    3000022    2    5    5    0    0  0.37121051400E+01  0.14700754414E+02  0.16607974708E+02  0.22489536032E+02  0.25000419478E+00 0.  0.
        -13    1    4    4    0    0 -0.61530617295E+01 -0.90786672734E+01 -0.22423805719E+02  0.24962380817E+02  0.10500000000E+00 0. -1.
         13    1    4    4    0    0 -0.22773962097E+01 -0.33928351498E+01 -0.84641114246E+01  0.93994718499E+01  0.10500000000E+00 0.  1.
    3000001    1    5    5    0    0  0.68689163518E+01  0.14897828083E+02  0.36478896594E+02  0.40010463509E+02  0.10000000000E+01 0. -1.
        -13    1    6    6    0    0  0.20592957327E+01  0.83430815872E+01  0.93427794502E+01  0.12694339768E+02  0.10500000000E+00 0.  1.
         13    1    6    6    0    0  0.16528094072E+01  0.63576728270E+01  0.72651952580E+01  0.97951962639E+01  0.10500000000E+00 0. -1.
</event>
<event>
11    0  0.3515428E-009  0.9118800E+02  0.7816531E-02  0.1126479E+00
         25   -1    0    0    0    0  0.00000000000E+00  0.00000000000E+00  0.99999998245E-14  0.12500000000E+03  0.12500000000E+03 0.  0.
    3000001    1    3    3    0    0 -0.18129510934E+02  0.15519699151E+02 -0.48696991478E+02  0.54239627649E+02  0.10000000000E+01 0.  1.
    1000022    2    1    0    0    0 -0.21438485642E+02  0.14051602366E+02 -0.56117679540E+02  0.62499998458E+02  0.99999827331E+01 0.  0.
    3000022    2    3    3    0    0 -0.33089747081E+01 -0.14680967850E+01 -0.74206880614E+01  0.82603708093E+01  0.24998562595E+00 0.  0.
    1000022    2    1    0    0    0  0.21438485642E+02 -0.14051602366E+02  0.56117679540E+02  0.62500001542E+02  0.10000002006E+02 0.  0.
    3000022    2    5    5    0    0  0.14750440820E+01 -0.43877787382E+01  0.52837995548E+01  0.70291818222E+01  0.25000411016E+00 0.  0.
        -13    1    4    4    0    0 -0.11563432193E+01 -0.50382302037E+00 -0.24641762228E+01  0.27702268379E+01  0.10500000000E+00 0.  1.
         13    1    4    4    0    0 -0.21526314887E+01 -0.96427376462E+00 -0.49565118386E+01  0.54901439713E+01  0.10500000000E+00 0. -1.
    3000001    1    5    5    0    0  0.19963441560E+02 -0.96638236280E+01  0.50833879985E+02  0.55470819720E+02  0.10000000000E+01 0.  1.
        -13    1    6    6    0    0  0.95648663857E+00 -0.28668618189E+01  0.35316817384E+01  0.46494692471E+01  0.10500000000E+00 0.  1.
         13    1    6    6    0    0  0.51855744341E+00 -0.15209169193E+01  0.17521178164E+01  0.23797125751E+01  0.10500000000E+00 0. -1.
</event>
<event>
11    0  0.3515428E-009  0.9118800E+02  0.7816531E-02  0.1126479E+00
         25   -1    0    0    0    0  0.00000000000E+00  0.00000000000E+00  0.99999998245E-14  0.12500000000E+03  0.12500000000E+03 0.  0.
    3000001    1    3    3    0    0  0.60109798041E+01 -0.67143938330E+01  0.41758663811E+02  0.42731732542E+02  0.10000000000E+01 0.  1.
    1000022    2    1    0    0    0  0.14113172556E+02 -0.58878830847E+01  0.59769575857E+02  0.62499992475E+02  0.99999027203E+01 0.  0.
    3000022    2    3    3    0    0  0.81021927517E+01  0.82651074833E+00  0.18010912046E+02  0.19768259933E+02  0.25000128953E+00 0.  0.
    1000022    2    1    0    0    0 -0.14113172556E+02  0.58878830847E+01 -0.59769575857E+02  0.62500007525E+02  0.99999967835E+01 0.  0.
    3000022    2    5    5    0    0 -0.96918506677E+01  0.69656366679E+01 -0.28712629427E+02  0.31095492538E+02  0.25000798252E+00 0.  0.
        -13    1    4    4    0    0  0.39109813776E+01  0.44996069137E+00  0.88144502550E+01  0.96542114260E+01  0.10500000000E+00 0.  1.
         13    1    4    4    0    0  0.41912113741E+01  0.37655005696E+00  0.91964617912E+01  0.10114048507E+02  0.10500000000E+00 0. -1.
    3000001    1    5    5    0    0 -0.44213218880E+01 -0.10777535833E+01 -0.31056946430E+02  0.31404514987E+02  0.10000000000E+01 0.  1.
        -13    1    6    6    0    0 -0.27245012194E+01  0.20085140386E+01 -0.81469961190E+01  0.88227890318E+01  0.10500000000E+00 0. -1.
         13    1    6    6    0    0 -0.69673494483E+01  0.49571226294E+01 -0.20565633308E+02  0.22272703506E+02  0.10500000000E+00 0.  1.
</event>
<event>
11    0  0.3515428E-009  0.9118800E+02  0.7816531E-02  0.1126479E+00
         25   -1    0    0    0    0  0.00000000000E+00  0.00000000000E+00  0.99999998245E-14  0.12500000000E+03  0.12500000000E+03 0.  0.
    3000001    1    3    3    0    0  0.13852562617E+01 -0.92676647852E+00 -0.23006189045E+01  0.30117566901E+01  0.10000000000E+01 0. -1.
    1000022    2    1    0    0    0  0.12355176890E+02 -0.51456808337E+02 -0.31714292255E+02  0.62499998967E+02  0.10000000868E+02 0.  0.
    3000022    2    3    3    0    0  0.10969920629E+02 -0.50530041859E+02 -0.29413673351E+02  0.59488242277E+02  0.25000072339E+00 0.  0.
    1000022    2    1    0    0    0 -0.12355176890E+02  0.51456808337E+02  0.31714292255E+02  0.62500001033E+02  0.10000013778E+02 0.  0.
    3000022    2    5    5    0    0 -0.12570412243E+02  0.38121671362E+02  0.26731101929E+02  0.48227496339E+02  0.25000275698E+00 0.  0.
        -13    1    4    4    0    0  0.30942500262E+01 -0.14116627119E+02 -0.81900486565E+01  0.16611485979E+02  0.10500000000E+00 0.  1.
         13    1    4    4    0    0  0.78756706026E+01 -0.36413414740E+02 -0.21223624694E+02  0.42876756298E+02  0.10500000000E+00 0. -1.
    3000001    1    5    5    0    0  0.21523535217E+00  0.13335136976E+02  0.49831903265E+01  0.14272504694E+02  0.10000000000E+01 0. -1.
        -13    1    6    6    0    0 -0.35889285767E+01  0.10933193257E+02  0.76164283199E+01  0.13799859727E+02  0.10500000000E+00 0. -1.
         13    1    6    6    0    0 -0.89814836659E+01  0.27188478105E+02  0.19114673609E+02  0.34427636612E+02  0.10500000000E+00 0.  1.
</event>
<event>
11    0  0.3515428E-009  0.9118800E+02  0.7816531E-02  0.1126479E+00
         25   -1    0    0    0    0  0.00000000000E+00  0.00000000000E+00  0.99999998245E-14  0.12500000000E+03  0.12500000000E+03 0.  0.
    3000001    1    3    3    0    0  0.29319286309E+02 -0.23224207959E+02  0.21006585315E+02  0.42909917403E+02  0.10000000000E+01 0. -1.
    1000022    2    1    0    0    0  0.45053519969E+02 -0.27667095227E+02  0.31795630521E+02  0.62500000872E+02  0.10000008447E+02 0.  0.
    3000022    2    3    3    0    0  0.15734233660E+02 -0.44428872680E+01  0.10789045206E+02  0.19590083469E+02  0.25003543057E+00 0.  0.
    1000022    2    1    0    0    0 -0.45053519969E+02  0.27667095227E+02 -0.31795630521E+02  0.62499999128E+02  0.99999975431E+01 0.  0.
    3000022    2    5    5    0    0 -0.96737403626E+01  0.96232443439E+01 -0.11713085687E+02  0.17984631369E+02  0.25000973073E+00 0.  0.
        -13    1    4    4    0    0  0.11697428042E+02 -0.33099424380E+01  0.79866372202E+01  0.14545890858E+02  0.10500000000E+00 0.  1.
         13    1    4    4    0    0  0.40368056173E+01 -0.11329448299E+01  0.28024079863E+01  0.50441926114E+01  0.10500000000E+00 0. -1.
    3000001    1    5    5    0    0 -0.35379779606E+02  0.18043850883E+02 -0.20082544834E+02  0.44515367758E+02  0.10000000000E+01 0. -1.
        -13    1    6    6    0    0 -0.69309846051E+01  0.68492168670E+01 -0.83290168756E+01  0.12819277140E+02  0.10500000000E+00 0.  1.
         13    1    6    6    0    0 -0.27427557575E+01  0.27740274769E+01 -0.33840688119E+01  0.51653542290E+01  0.10500000000E+00 0. -1.
</event>
<event>
11    0  0.3515428E-009  0.9118800E+02  0.7816531E-02  0.1126479E+00
         25   -1    0    0    0    0  0.00000000000E+00  0.00000000000E+00  0.99999998245E-14  0.12500000000E+03  0.12500000000E+03 0.  0.
    3000001    1    3    3    0    0  0.52774689521E+01  0.59252740162E+00 -0.12345076728E+01  0.55431738612E+01  0.10000000000E+01 0.  1.
    1000022    2    1    0    0    0  0.48766842521E+02  0.34881608206E+02 -0.14536796405E+02  0.62500000159E+02  0.10000002483E+02 0.  0.
    3000022    2    3    3    0    0  0.43489373569E+02  0.34289080804E+02 -0.13302288732E+02  0.56956826298E+02  0.25000115676E+00 0.  0.
    1000022    2    1    0    0    0 -0.48766842521E+02 -0.34881608206E+02  0.14536796405E+02  0.62499999841E+02  0.10000000495E+02 0.  0.
    3000022    2    5    5    0    0 -0.12230573459E+02 -0.69180999287E+01 -0.56536908744E+00  0.14065176060E+02  0.25000326547E+00 0.  0.
        -13    1    4    4    0    0  0.31462197765E+02  0.24814496697E+02 -0.96636094948E+01  0.41219237111E+02  0.10500000000E+00 0.  1.
         13    1    4    4    0    0  0.12027175804E+02  0.94745841073E+01 -0.36386792375E+01  0.15737589187E+02  0.10500000000E+00 0. -1.
    3000001    1    5    5    0    0 -0.36536269062E+02 -0.27963508277E+02  0.15102165493E+02  0.48434823781E+02  0.10000000000E+01 0. -1.
        -13    1    6    6    0    0 -0.70785016167E+01 -0.40148746558E+01 -0.39163356169E+00  0.81479325897E+01  0.10500000000E+00 0.  1.
         13    1    6    6    0    0 -0.51520718425E+01 -0.29032252728E+01 -0.17373552575E+00  0.59172434704E+01  0.10500000000E+00 0. -1.
</event>
<event>
11    0  0.3515428E-009  0.9118800E+02  0.7816531E-02  0.1126479E+00
         25   -1    0    0    0    0  0.00000000000E+00  0.00000000000E+00  0.99999998245E-14  0.12500000000E+03  0.12500000000E+03 0.  0.
    3000001    1    3    3    0    0  0.14550048483E+01  0.73348737037E+00 -0.11471545565E+01  0.22295753873E+01  0.10000000000E+01 0. -1.
    1000022    2    1    0    0    0  0.40822483638E+01  0.25318164313E+02 -0.56112169427E+02  0.62500000167E+02  0.10000013361E+02 0.  0.
    3000022    2    3    3    0    0  0.26272435155E+01  0.24584676943E+02 -0.54965014871E+02  0.60270424780E+02  0.24998916458E+00 0.  0.
    1000022    2    1    0    0    0 -0.40822483638E+01 -0.25318164313E+02  0.56112169427E+02  0.62499999833E+02  0.10000011268E+02 0.  0.
    3000022    2    5    5    0    0 -0.14786890953E+01 -0.14584715896E+02  0.42406983618E+02  0.44869981289E+02  0.25000414022E+00 0.  0.
        -13    1    4    4    0    0  0.16646372700E+01  0.15781133587E+02 -0.35145989610E+02  0.38562505173E+02  0.10500000000E+00 0. -1.
         13    1    4    4    0    0  0.96260624553E+00  0.88035433559E+01 -0.19819025260E+02  0.21707919607E+02  0.10500000000E+00 0.  1.
    3000001    1    5    5    0    0 -0.26035592685E+01 -0.10733448417E+02  0.13705185809E+02  0.17630018544E+02  0.10000000000E+01 0.  1.
        -13    1    6    6    0    0 -0.96961053350E+00 -0.94698876609E+01  0.27365007951E+02  0.28973670842E+02  0.10500000000E+00 0. -1.
         13    1    6    6    0    0 -0.50907856181E+00 -0.51148282348E+01  0.15041975667E+02  0.15896310446E+02  0.10500000000E+00 0.  1.
</event>
<event>
11    0  0.3515428E-009  0.9118800E+02  0.7816531E-02  0.1126479E+00
         25   -1    0    0    0    0  0.00000000000E+00  0.00000000000E+00  0.99999998245E-14  0.12500000000E+03  0.12500000000E+03 0.  0.
    3000001    1    3    3    0    0  0.24823559405E+02 -0.25189174449E+02 -0.62072793110E+01  0.35919826383E+02  0.10000000000E+01 0. -1.
    1000022    2    1    0    0    0  0.36178001591E+02 -0.48565126271E+02 -0.11782643332E+02  0.62500000694E+02  0.10000005704E+02 0.  0.
    3000022    2    3    3    0    0  0.11354442186E+02 -0.23375951822E+02 -0.55753640206E+01  0.26580174311E+02  0.25000303158E+00 0.  0.
    1000022    2    1    0    0    0 -0.36178001591E+02  0.48565126271E+02  0.11782643332E+02  0.62499999306E+02  0.99999970251E+01 0.  0.
    3000022    2    5    5    0    0 -0.33655951244E+02  0.46691501617E+02  0.12960489573E+02  0.58998781080E+02  0.25000307459E+00 0.  0.
        -13    1    4    4    0    0  0.41732652580E+01 -0.84976729367E+01 -0.20740426289E+01  0.96922270959E+01  0.10500000000E+00 0.  1.
         13    1    4    4    0    0  0.71811769284E+01 -0.14878278885E+02 -0.35013213917E+01  0.16887947215E+02  0.10500000000E+00 0. -1.
    3000001    1    5    5    0    0 -0.25220503468E+01  0.18736246540E+01 -0.11778462416E+01  0.35012182259E+01  0.10000000000E+01 0.  1.
        -13    1    6    6    0    0 -0.11617826582E+02  0.16062962098E+02  0.45105288474E+01  0.20330974923E+02  0.10500000000E+00 0. -1.
         13    1    6    6    0    0 -0.22038124662E+02  0.30628539519E+02  0.84499607258E+01  0.38667806157E+02  0.10500000000E+00 0.  1.
</event>
<event>
11    0  0.3515428E-009  0.9118800E+02  0.7816531E-02  0.1126479E+00
         25   -1    0    0    0    0  0.00000000000E+00  0.00000000000E+00  0.99999998245E-14  0.12500000000E+03  0.12500000000E+03 0.  0.
    3000001    1    3    3    0    0  0.35569387406E+02  0.16308215494E+02 -0.20973330553E+02  0.44407429643E+02  0.10000000000E+01 0. -1.
    1000022    2    1    0    0    0  0.52839091337E+02  0.20465096756E+02 -0.24402059333E+02  0.62499997906E+02  0.99999740028E+01 0.  0.
    3000022    2    3    3    0    0  0.17269703931E+02  0.41568812619E+01 -0.34287287800E+01  0.18092568263E+02  0.25001923214E+00 0.  0.
    1000022    2    1    0    0    0 -0.52839091337E+02 -0.20465096756E+02  0.24402059333E+02  0.62500002094E+02  0.10000000175E+02 0.  0.
    3000022    2    5    5    0    0 -0.16501774146E+02 -0.11271336464E+02  0.71505335138E+01  0.21226027339E+02  0.25006286717E+00 0.  0.
        -13    1    4    4    0    0  0.53183122461E+01  0.13295928589E+01 -0.10593618254E+01  0.55844010237E+01  0.10500000000E+00 0.  1.
         13    1    4    4    0    0  0.11951391685E+02  0.28272884030E+01 -0.23693669546E+01  0.12508167240E+02  0.10500000000E+00 0. -1.
    3000001    1    5    5    0    0 -0.36337317191E+02 -0.91937602927E+01  0.17251525819E+02  0.41273974754E+02  0.10000000000E+01 0.  1.
        -13    1    6    6    0    0 -0.68902490679E+01 -0.46964378513E+01  0.29156595679E+01  0.88342603779E+01  0.10500000000E+00 0.  1.
         13    1    6    6    0    0 -0.96115250783E+01 -0.65748986122E+01  0.42348739459E+01  0.12391766962E+02  0.10500000000E+00 0. -1.
</event>
<event>
11    0  0.3515428E-009  0.9118800E+02  0.7816531E-02  0.1126479E+00
         25   -1    0    0    0    0  0.00000000000E+00  0.00000000000E+00  0.99999998245E-14  0.12500000000E+03  0.12500000000E+03 0.  0.
    3000001    1    3    3    0    0 -0.15816446532E+01 -0.36792868988E+02  0.37026209413E+02  0.52231762288E+02  0.10000000000E+01 0. -1.
    1000022    2    1    0    0    0  0.13480895618E+01 -0.41407079875E+02  0.45715277344E+02  0.62499999165E+02  0.99999851901E+01 0.  0.
    3000022    2    3    3    0    0  0.29297342150E+01 -0.46142108864E+01  0.86890679310E+01  0.10268236877E+02  0.25000477261E+00 0.  0.
    1000022    2    1    0    0    0 -0.13480895618E+01  0.41407079875E+02 -0.45715277344E+02  0.62500000835E+02  0.99999956263E+01 0.  0.
    3000022    2    5    5    0    0  0.27456834849E+01  0.33767008496E+02 -0.36995338239E+02  0.50164401684E+02  0.25000857148E+00 0.  0.
        -13    1    4    4    0    0  0.12049227556E+01 -0.17820090348E+01  0.34075087506E+01  0.40310713133E+01  0.10500000000E+00 0.  1.
         13    1    4    4    0    0  0.17248114594E+01 -0.28322018516E+01  0.52815591804E+01  0.62371655641E+01  0.10500000000E+00 0. -1.
    3000001    1    5    5    0    0 -0.40937730468E+01  0.76400713784E+01 -0.87199391045E+01  0.12335599151E+02  0.10000000000E+01 0.  1.
        -13    1    6    6    0    0  0.14747739723E+01  0.18312363496E+02 -0.20158743253E+02  0.27274595683E+02  0.10500000000E+00 0. -1.
         13    1    6    6    0    0  0.12709095126E+01  0.15454645000E+02 -0.16836594986E+02  0.22889806001E+02  0.10500000000E+00 0.  1.
</event>
<event>
11    0  0.3515428E-009  0.9118800E+02  0.7816531E-02  0.1126479E+00
         25   -1    0    0    0    0  0.00000000000E+00  0.00000000000E+00  0.99999998245E-14  0.12500000000E+03  0.12500000000E+03 0.  0.
    3000001    1    3    3    0    0  0.27929399285E+01 -0.17937655860E+00  0.26841138863E+01  0.40046419002E+01  0.10000000000E+01 0.  1.
    1000022    2    1    0    0    0  0.43576152910E+02  0.30612460746E+02  0.31148773007E+02  0.62500000931E+02  0.10000010059E+02 0.  0.
    3000022    2    3    3    0    0  0.40783212982E+02  0.30791837304E+02  0.28464659121E+02  0.58495359031E+02  0.25000722256E+00 0.  0.
    1000022    2    1    0    0    0 -0.43576152910E+02 -0.30612460746E+02 -0.31148773007E+02  0.62499999069E+02  0.99999984202E+01 0.  0.
    3000022    2    5    5    0    0 -0.40591398138E+01 -0.11950200391E+01 -0.62824683106E-01  0.42392376167E+01  0.24999941668E+00 0.  0.
        -13    1    4    4    0    0  0.27468754293E+02  0.20674017806E+02  0.19155517832E+02  0.39355969853E+02  0.10500000000E+00 0. -1.
         13    1    4    4    0    0  0.13314458689E+02  0.10117819498E+02  0.93091412883E+01  0.19139389178E+02  0.10500000000E+00 0.  1.
    3000001    1    5    5    0    0 -0.39517013097E+02 -0.29417440706E+02 -0.31085948324E+02  0.58260761452E+02  0.10000000000E+01 0. -1.
        -13    1    6    6    0    0 -0.25523646557E+01 -0.78628916885E+00  0.94794511471E-02  0.26728132843E+01  0.10500000000E+00 0.  1.
         13    1    6    6    0    0 -0.15067751581E+01 -0.40873087023E+00 -0.72304134253E-01  0.15664243324E+01  0.10500000000E+00 0. -1.
</event>
<event>
11    0  0.3515428E-009  0.9118800E+02  0.7816531E-02  0.1126479E+00
         25   -1    0    0    0    0  0.00000000000E+00  0.00000000000E+00  0.99999998245E-14  0.12500000000E+03  0.12500000000E+03 0.  0.
    3000001    1    3    3    0    0  0.20621337853E+02  0.13200631553E+02  0.94432714056E+01  0.26261599782E+02  0.10000000000E+01 0.  1.
    1000022    2    1    0    0    0  0.51684113251E+02  0.31781734873E+02  0.11176934463E+02  0.62499997990E+02  0.99999825342E+01 0.  0.
    3000022    2    3    3    0    0  0.31062775397E+02  0.18581103320E+02  0.17336630578E+01  0.36238398208E+02  0.25000222498E+00 0.  0.
    1000022    2    1    0    0    0 -0.51684113251E+02 -0.31781734873E+02 -0.11176934463E+02  0.62500002010E+02  0.10000007664E+02 0.  0.
    3000022    2    5    5    0    0 -0.50363497276E+02 -0.31248661029E+02 -0.93975418604E+01  0.60011140361E+02  0.25000077218E+00 0.  0.
        -13    1    4    4    0    0  0.19534452741E+02  0.11687626016E+02  0.11500099213E+01  0.22793178664E+02  0.10500000000E+00 0.  1.
         13    1    4    4    0    0  0.11528322656E+02  0.68934773035E+01  0.58365313648E+00  0.13445219544E+02  0.10500000000E+00 0. -1.
    3000001    1    5    5    0    0 -0.13206159745E+01 -0.53307384322E+00 -0.17793926030E+01  0.24888616494E+01  0.10000000000E+01 0. -1.
        -13    1    6    6    0    0 -0.26039300636E+02 -0.16178733748E+02 -0.49264348176E+01  0.31049595623E+02  0.10500000000E+00 0.  1.
         13    1    6    6    0    0 -0.24324196640E+02 -0.15069927281E+02 -0.44711070428E+01  0.28961544738E+02  0.10500000000E+00 0. -1.
</event>
<event>
11    0  0.3515428E-009  0.9118800E+02  0.7816531E-02  0.1126479E+00
         25   -1    0    0    0    0  0.00000000000E+00  0.00000000000E+00  0.99999998245E-14  0.12500000000E+03  0.12500000000E+03 0.  0.
    3000001    1    3    3    0    0 -0.14059927312E+02  0.30636490979E+02 -0.23528931833E+02  0.41120393587E+02  0.10000000000E+01 0. -1.
    1000022    2    1    0    0    0 -0.26753876578E+02  0.46090509040E+02 -0.31082870774E+02  0.62499998776E+02  0.10000002796E+02 0.  0.
    3000022    2    3    3    0    0 -0.12693949266E+02  0.15454018062E+02 -0.75539389408E+01  0.21379605189E+02  0.25000464344E+00 0.  0.
    1000022    2    1    0    0    0  0.26753876578E+02 -0.46090509040E+02  0.31082870774E+02  0.62500001224E+02  0.10000018095E+02 0.  0.
    3000022    2    5    5    0    0  0.85782005612E+01 -0.24319161589E+02  0.16207547739E+02  0.30459058605E+02  0.25000428057E+00 0.  0.
        -13    1    4    4    0    0 -0.46087279020E+01  0.57038701410E+01 -0.27690223820E+01  0.78391974980E+01  0.10500000000E+00 0. -1.
         13    1    4    4    0    0 -0.80852213640E+01  0.97501479205E+01 -0.47849165588E+01  0.13540407691E+02  0.10500000000E+00 0.  1.
    3000001    1    5    5    0    0  0.18175676016E+02 -0.21771347451E+02  0.14875323035E+02  0.32040942619E+02  0.10000000000E+01 0.  1.
        -13    1    6    6    0    0  0.39014826762E+01 -0.11261300552E+02  0.74993432441E+01  0.14081535118E+02  0.10500000000E+00 0. -1.
         13    1    6    6    0    0  0.46767178850E+01 -0.13057861038E+02  0.87082044944E+01  0.16377523487E+02  0.10500000000E+00 0.  1.
</event>
<event>
11    0  0.3515428E-009  0.9118800E+02  0.7816531E-02  0.1126479E+00
         25   -1    0    0    0    0  0.00000000000E+00  0.00000000000E+00  0.99999998245E-14  0.12500000000E+03  0.12500000000E+03 0.  0.
    3000001    1    3    3    0    0 -0.51636763988E+02  0.14872660393E+02  0.20643948501E+02  0.57573640080E+02  0.10000000000E+01 0.  1.
    1000022    2    1    0    0    0 -0.55673748473E+02  0.13333610828E+02  0.22997799418E+02  0.62500000523E+02  0.99999920291E+01 0.  0.
    3000022    2    3    3    0    0 -0.40369844845E+01 -0.15390495647E+01  0.23538509176E+01  0.49263604433E+01  0.24999156863E+00 0.  0.
    1000022    2    1    0    0    0  0.55673748473E+02 -0.13333610828E+02 -0.22997799418E+02  0.62499999477E+02  0.99999854911E+01 0.  0.
    3000022    2    5    5    0    0  0.44529520553E+02 -0.70766091015E+01 -0.15673241629E+02  0.47735412340E+02  0.24998198829E+00 0.  0.
        -13    1    4    4    0    0 -0.25270534714E+01 -0.96657846348E+00  0.14047990242E+01  0.30503702188E+01  0.10500000000E+00 0.  1.
         13    1    4    4    0    0 -0.15099310131E+01 -0.57247110124E+00  0.94905189345E+00  0.18759902246E+01  0.10500000000E+00 0. -1.
    3000001    1    5    5    0    0  0.11144227919E+02 -0.62570017265E+01 -0.73245577894E+01  0.14764587137E+02  0.10000000000E+01 0.  1.
        -13    1    6    6    0    0  0.27501641635E+02 -0.44086710169E+01 -0.96309648839E+01  0.29471056688E+02  0.10500000000E+00 0. -1.
         13    1    6    6    0    0  0.17027878919E+02 -0.26679380846E+01 -0.60422767452E+01  0.18264355652E+02  0.10500000000E+00 0.  1.
</event>
<event>
11    0  0.3515428E-009  0.9118800E+02  0.7816531E-02  0.1126479E+00
         25   -1    0    0    0    0  0.00000000000E+00  0.00000000000E+00  0.99999998245E-14  0.12500000000E+03  0.12500000000E+03 0.  0.
    3000001    1    3    3    0    0 -0.19590612288E+02  0.29434099686E+02  0.46921001100E+02  0.58760009005E+02  0.10000000000E+01 0.  1.
    1000022    2    1    0    0    0 -0.22739267390E+02  0.30130822248E+02  0.48798659679E+02  0.62500002999E+02  0.10000022882E+02 0.  0.
    3000022    2    3    3    0    0 -0.31486551024E+01  0.69672256210E+00  0.18776585790E+01  0.37399939933E+01  0.25000409664E+00 0.  0.
    1000022    2    1    0    0    0  0.22739267390E+02 -0.30130822248E+02 -0.48798659679E+02  0.62499997001E+02  0.99999853970E+01 0.  0.
    3000022    2    5    5    0    0  0.98571552196E+00 -0.43487326444E+01 -0.10751386801E+02  0.11642075921E+02  0.25000579064E+00 0.  0.
        -13    1    4    4    0    0 -0.16807489506E+01  0.40410100397E+00  0.10746599589E+01  0.20381691990E+01  0.10500000000E+00 0.  1.
         13    1    4    4    0    0 -0.14679061518E+01  0.29262155812E+00  0.80299862009E+00  0.17018247944E+01  0.10500000000E+00 0. -1.
    3000001    1    5    5    0    0  0.21753551868E+02 -0.25782089604E+02 -0.38047272878E+02  0.50857921080E+02  0.10000000000E+01 0.  1.
        -13    1    6    6    0    0  0.36340834359E+00 -0.17782099760E+01 -0.42462377047E+01  0.46190535814E+01  0.10500000000E+00 0.  1.
         13    1    6    6    0    0  0.62230717837E+00 -0.25705226684E+01 -0.65051490963E+01  0.70230223393E+01  0.10500000000E+00 0. -1.
</event>
<event>
11    0  0.3515428E-009  0.9118800E+02  0.7816531E-02  0.1126479E+00
         25   -1    0    0    0    0  0.00000000000E+00  0.00000000000E+00  0.99999998245E-14  0.12500000000E+03  0.12500000000E+03 0.  0.
    3000001    1    3    3    0    0 -0.30522072741E+02 -0.27793587068E+01  0.12404064382E+02  0.33078430622E+02  0.10000000000E+01 0. -1.
    1000022    2    1    0    0    0 -0.57008622054E+02 -0.13584043725E+02  0.19280614810E+02  0.62499987328E+02  0.99998538025E+01 0.  0.
    3000022    2    3    3    0    0 -0.26486549313E+02 -0.10804685018E+02  0.68765504285E+01  0.29421556706E+02  0.25008065525E+00 0.  0.
    1000022    2    1    0    0    0  0.57008622054E+02  0.13584043725E+02 -0.19280614810E+02  0.62500012672E+02  0.10000012209E+02 0.  0.
    3000022    2    5    5    0    0  0.29938251901E+02  0.11989041853E+02 -0.11929078065E+02  0.34386064823E+02  0.24999812773E+00 0.  0.
        -13    1    4    4    0    0 -0.17734702344E+02 -0.72049475553E+01  0.46483720563E+01  0.19698967594E+02  0.10500000000E+00 0.  1.
         13    1    4    4    0    0 -0.87518469690E+01 -0.35997374628E+01  0.22281783722E+01  0.97225891113E+01  0.10500000000E+00 0. -1.
    3000001    1    5    5    0    0  0.27070370153E+02  0.15950018720E+01 -0.73515367457E+01  0.28113947850E+02  0.10000000000E+01 0.  1.
        -13    1    6    6    0    0  0.89422594138E+01  0.36092726355E+01 -0.35274224195E+01  0.10268621441E+02  0.10500000000E+00 0.  1.
         13    1    6    6    0    0  0.20995992487E+02  0.83797692174E+01 -0.84016556452E+01  0.24117443381E+02  0.10500000000E+00 0. -1.
</event>
<event>
11    0  0.3515428E-009  0.9118800E+02  0.7816531E-02  0.1126479E+00
         25   -1    0    0    0    0  0.00000000000E+00  0.00000000000E+00  0.99999998245E-14  0.12500000000E+03  0.12500000000E+03 0.  0.
    3000001    1    3    3    0    0  0.51033316995E+02 -0.81659280295E+01  0.34156617110E+02  0.61957697798E+02  0.10000000000E+01 0. -1.
    1000022    2    1    0    0    0  0.50704348246E+02 -0.78312503955E+01  0.34263544990E+02  0.62499999872E+02  0.10000002741E+02 0.  0.
    3000022    2    3    3    0    0 -0.32896874808E+00  0.33467763400E+00  0.10692787931E+00  0.54230207311E+00  0.24985678139E+00 0.  0.
    1000022    2    1    0    0    0 -0.50704348246E+02  0.78312503955E+01 -0.34263544990E+02  0.62500000128E+02  0.10000004347E+02 0.  0.
    3000022    2    5    5    0    0 -0.34920131146E+02  0.91852699861E+01 -0.20704223027E+02  0.41623456098E+02  0.25000499346E+00 0.  0.
        -13    1    4    4    0    0 -0.89874812314E-01  0.72348679836E-01  0.67785268419E-01  0.17009308033E+00  0.10500000000E+00 0.  1.
         13    1    4    4    0    0 -0.23909393577E+00  0.26232895417E+00  0.39142610894E-01  0.37220899278E+00  0.10500000000E+00 0. -1.
    3000001    1    5    5    0    0 -0.15784217101E+02 -0.13540195906E+01 -0.13559321963E+02  0.20876544030E+02  0.10000000000E+01 0.  1.
        -13    1    6    6    0    0 -0.22536388506E+02  0.58707970470E+01 -0.13335614114E+02  0.26836629701E+02  0.10500000000E+00 0. -1.
         13    1    6    6    0    0 -0.12383742639E+02  0.33144729391E+01 -0.73686089123E+01  0.14786826398E+02  0.10500000000E+00 0.  1.
</event>
<event>
11    0  0.3515428E-009  0.9118800E+02  0.7816531E-02  0.1126479E+00
         25   -1    0    0    0    0  0.00000000000E+00  0.00000000000E+00  0.99999998245E-14  0.12500000000E+03  0.12500000000E+03 0.  0.
    3000001    1    3    3    0    0  0.27750495779E+02 -0.99423639385E+01 -0.31189363034E+02  0.42926879495E+02  0.10000000000E+01 0. -1.
    1000022    2    1    0    0    0  0.39732543700E+02 -0.79077707013E+01 -0.46530012406E+02  0.62500000584E+02  0.10000007610E+02 0.  0.
    3000022    2    3    3    0    0  0.11982047921E+02  0.20345932372E+01 -0.15340649372E+02  0.19573121089E+02  0.25000803771E+00 0.  0.
    1000022    2    1    0    0    0 -0.39732543700E+02  0.79077707013E+01  0.46530012406E+02  0.62499999416E+02  0.10000000310E+02 0.  0.
    3000022    2    5    5    0    0 -0.25533309023E+02  0.93700178436E+01  0.27372807780E+02  0.38588602108E+02  0.25000578142E+00 0.  0.
        -13    1    4    4    0    0  0.61430766894E+01  0.10304141494E+01 -0.77550113943E+01  0.99473801203E+01  0.10500000000E+00 0.  1.
         13    1    4    4    0    0  0.58389712313E+01  0.10041790878E+01 -0.75856379774E+01  0.96257409691E+01  0.10500000000E+00 0. -1.
    3000001    1    5    5    0    0 -0.14199234677E+02 -0.14622471422E+01  0.19157204626E+02  0.23911397308E+02  0.10000000000E+01 0. -1.
        -13    1    6    6    0    0 -0.87860477597E+01  0.31802195739E+01  0.93517379007E+01  0.13220229141E+02  0.10500000000E+00 0. -1.
         13    1    6    6    0    0 -0.16747261263E+02  0.61897982697E+01  0.18021069879E+02  0.25368372967E+02  0.10500000000E+00 0.  1.
</event>
<event>
11    0  0.3515428E-009  0.9118800E+02  0.7816531E-02  0.1126479E+00
         25   -1    0    0    0    0  0.00000000000E+00  0.00000000000E+00  0.99999998245E-14  0.12500000000E+03  0.12500000000E+03 0.  0.
    3000001    1    3    3    0    0  0.71222601060E+00  0.35065371253E+00 -0.69068941106E+01  0.70239170106E+01  0.10000000000E+01 0.  1.
    1000022    2    1    0    0    0  0.29987527335E+02  0.12077435240E+02 -0.52546490387E+02  0.62500001305E+02  0.10000013674E+02 0.  0.
    3000022    2    3    3    0    0  0.29275301325E+02  0.11726781528E+02 -0.45639596277E+02  0.55476084295E+02  0.25001545365E+00 0.  0.
    1000022    2    1    0    0    0 -0.29987527335E+02 -0.12077435240E+02  0.52546490387E+02  0.62499998695E+02  0.99999973584E+01 0.  0.
    3000022    2    5    5    0    0 -0.20146858413E+02 -0.12821303625E+02  0.35745784676E+02  0.42989595895E+02  0.25000512977E+00 0.  0.
        -13    1    4    4    0    0  0.22220844533E+02  0.88856071536E+01 -0.34658330857E+02  0.42118058705E+02  0.10500000000E+00 0.  1.
         13    1    4    4    0    0  0.70544567917E+01  0.28411743740E+01 -0.10981265419E+02  0.13358025590E+02  0.10500000000E+00 0. -1.
    3000001    1    5    5    0    0 -0.98406689225E+01  0.74386838461E+00  0.16800705711E+02  0.19510402800E+02  0.10000000000E+01 0. -1.
        -13    1    6    6    0    0 -0.10867272556E+02 -0.69495129756E+01  0.19198881150E+02  0.23130097402E+02  0.10500000000E+00 0. -1.
         13    1    6    6    0    0 -0.92795858564E+01 -0.58717906492E+01  0.16546903526E+02  0.19859498493E+02  0.10500000000E+00 0.  1.
</event>
<event>
11    0  0.3515428E-009  0.9118800E+02  0.7816531E-02  0.1126479E+00
         25   -1    0    0    0    0  0.00000000000E+00  0.00000000000E+00  0.99999998245E-14  0.12500000000E+03  0.12500000000E+03 0.  0.
    3000001    1    3    3    0    0 -0.20634196094E+02 -0.47350217089E+02 -0.29929373116E+01  0.51747181378E+02  0.10000000000E+01 0.  1.
    1000022    2    1    0    0    0 -0.26038872577E+02 -0.55927527720E+02  0.58194869844E+00  0.62499999723E+02  0.10000002956E+02 0.  0.
    3000022    2    3    3    0    0 -0.54046764826E+01 -0.85773106316E+01  0.35748860101E+01  0.10752818345E+02  0.25001365388E+00 0.  0.
    1000022    2    1    0    0    0  0.26038872577E+02  0.55927527720E+02 -0.58194869844E+00  0.62500000277E+02  0.10000006417E+02 0.  0.
    3000022    2    5    5    0    0  0.25885169136E+02  0.48637822247E+02  0.20965722386E+00  0.55097968760E+02  0.24994240294E+00 0.  0.
        -13    1    4    4    0    0 -0.18054155573E+01 -0.27718124228E+01  0.11504011742E+01  0.35038432190E+01  0.10500000000E+00 0.  1.
         13    1    4    4    0    0 -0.35992609254E+01 -0.58054982088E+01  0.24244848358E+01  0.72489751262E+01  0.10500000000E+00 0. -1.
    3000001    1    5    5    0    0  0.15370344045E+00  0.72897054737E+01 -0.79160592230E+00  0.74020315169E+01  0.10000000000E+01 0. -1.
        -13    1    6    6    0    0  0.18944908443E+02  0.35593780792E+02  0.18854419589E+00  0.40322119995E+02  0.10500000000E+00 0. -1.
         13    1    6    6    0    0  0.69402606936E+01  0.13044041455E+02  0.21113027975E-01  0.14775848765E+02  0.10500000000E+00 0.  1.
</event>
<event>
11    0  0.3515428E-009  0.9118800E+02  0.7816531E-02  0.1126479E+00
         25   -1    0    0    0    0  0.00000000000E+00  0.00000000000E+00  0.99999998245E-14  0.12500000000E+03  0.12500000000E+03 0.  0.
    3000001    1    3    3    0    0  0.37886208533E+01  0.32226277063E+02  0.58257226186E+01  0.32982201645E+02  0.10000000000E+01 0.  1.
    1000022    2    1    0    0    0  0.44662984092E+01  0.58336156908E+02  0.19575369214E+02  0.62499998857E+02  0.99999876519E+01 0.  0.
    3000022    2    3    3    0    0  0.67767755590E+00  0.26109879844E+02  0.13749646595E+02  0.29517797212E+02  0.24999678491E+00 0.  0.
    1000022    2    1    0    0    0 -0.44662984092E+01 -0.58336156908E+02 -0.19575369214E+02  0.62500001143E+02  0.10000001940E+02 0.  0.
    3000022    2    5    5    0    0 -0.11141148354E+01 -0.41437905025E+01 -0.43171327610E+01  0.60919920403E+01  0.24996029199E+00 0.  0.
        -13    1    4    4    0    0  0.23622595270E+00  0.79463515855E+01  0.41443610708E+01  0.89658831080E+01  0.10500000000E+00 0. -1.
         13    1    4    4    0    0  0.44145160320E+00  0.18163528259E+02  0.96052855246E+01  0.20551914104E+02  0.10500000000E+00 0.  1.
    3000001    1    5    5    0    0 -0.33521835738E+01 -0.54192366405E+02 -0.15258236453E+02  0.56408009103E+02  0.10000000000E+01 0.  1.
        -13    1    6    6    0    0 -0.28228114760E+00 -0.99773736992E+00 -0.10242894306E+01  0.14612858527E+01  0.10500000000E+00 0.  1.
         13    1    6    6    0    0 -0.83183368777E+00 -0.31460531326E+01 -0.32928433304E+01  0.46307061876E+01  0.10500000000E+00 0. -1.
</event>
<event>
11    0  0.3515428E-009  0.9118800E+02  0.7816531E-02  0.1126479E+00
         25   -1    0    0    0    0  0.00000000000E+00  0.00000000000E+00  0.99999998245E-14  0.12500000000E+03  0.12500000000E+03 0.  0.
    3000001    1    3    3    0    0 -0.85199608154E+01  0.13595441868E+02  0.33081337927E+01  0.16412480650E+02  0.10000000000E+01 0.  1.
    1000022    2    1    0    0    0 -0.41489470736E+02  0.40702585959E+02  0.20692354632E+02  0.62500000451E+02  0.99999915233E+01 0.  0.
    3000022    2    3    3    0    0 -0.32969509921E+02  0.27107144091E+02  0.17384220840E+02  0.46087519802E+02  0.25000418203E+00 0.  0.
    1000022    2    1    0    0    0  0.41489470736E+02 -0.40702585959E+02 -0.20692354632E+02  0.62499999549E+02  0.99999858829E+01 0.  0.
    3000022    2    5    5    0    0  0.12560698836E+02 -0.15437283178E+02 -0.11527513801E+02  0.23000585937E+02  0.25002364165E+00 0.  0.
        -13    1    4    4    0    0 -0.17619503754E+02  0.14549228269E+02  0.92562394507E+01  0.24653923613E+02  0.10500000000E+00 0.  1.
         13    1    4    4    0    0 -0.15350006167E+02  0.12557915822E+02  0.81279813889E+01  0.21433596188E+02  0.10500000000E+00 0. -1.
    3000001    1    5    5    0    0  0.28928771900E+02 -0.25265302781E+02 -0.91648408315E+01  0.39499413612E+02  0.10000000000E+01 0. -1.
        -13    1    6    6    0    0  0.72258335985E+01 -0.88541418135E+01 -0.65465323107E+01  0.13171051922E+02  0.10500000000E+00 0. -1.
         13    1    6    6    0    0  0.53348652378E+01 -0.65831413649E+01 -0.49809814901E+01  0.98295340144E+01  0.10500000000E+00 0.  1.
</event>
<event>
11    0  0.3515428E-009  0.9118800E+02  0.7816531E-02  0.1126479E+00
         25   -1    0    0    0    0  0.00000000000E+00  0.00000000000E+00  0.99999998245E-14  0.12500000000E+03  0.12500000000E+03 0.  0.
    3000001    1    3    3    0    0  0.27454913805E+02  0.57448406686E+01  0.27633155528E+02  0.39387393552E+02  0.10000000000E+01 0. -1.
    1000022    2    1    0    0    0  0.38030102376E+02  0.62398742660E+01  0.48177020144E+02  0.62499999178E+02  0.99999954884E+01 0.  0.
    3000022    2    3    3    0    0  0.10575188570E+02  0.49503359741E+00  0.20543864615E+02  0.23112605626E+02  0.24998785412E+00 0.  0.
    1000022    2    1    0    0    0 -0.38030102376E+02 -0.62398742660E+01 -0.48177020144E+02  0.62500000822E+02  0.10000005764E+02 0.  0.
    3000022    2    5    5    0    0 -0.23676232017E+02 -0.22200100832E+01 -0.36383989122E+02  0.43466648963E+02  0.25000066540E+00 0.  0.
        -13    1    4    4    0    0  0.56787404663E+01  0.20035573082E+00  0.10991810015E+02  0.12374132216E+02  0.10500000000E+00 0.  1.
         13    1    4    4    0    0  0.48964481038E+01  0.29467786659E+00  0.95520546005E+01  0.10738473410E+02  0.10500000000E+00 0. -1.
    3000001    1    5    5    0    0 -0.14353870359E+02 -0.40198641828E+01 -0.11793031021E+02  0.19033351859E+02  0.10000000000E+01 0.  1.
        -13    1    6    6    0    0 -0.10137936340E+02 -0.89512915917E+00 -0.15635670879E+02  0.18656479794E+02  0.10500000000E+00 0. -1.
         13    1    6    6    0    0 -0.13538295676E+02 -0.13248809240E+01 -0.20748318243E+02  0.24810169169E+02  0.10500000000E+00 0.  1.
</event>
<event>
11    0  0.3515428E-009  0.9118800E+02  0.7816531E-02  0.1126479E+00
         25   -1    0    0    0    0  0.00000000000E+00  0.00000000000E+00  0.99999998245E-14  0.12500000000E+03  0.12500000000E+03 0.  0.
    3000001    1    3    3    0    0 -0.10974878962E+02  0.14902544590E+02  0.10866044112E+02  0.21484988205E+02  0.10000000000E+01 0. -1.
    1000022    2    1    0    0    0 -0.29270269145E+02  0.34704106288E+02  0.41774709341E+02  0.62500000658E+02  0.10000004636E+02 0.  0.
    3000022    2    3    3    0    0 -0.18295390182E+02  0.19801561697E+02  0.30908665229E+02  0.41015012453E+02  0.25002553131E+00 0.  0.
    1000022    2    1    0    0    0  0.29270269145E+02 -0.34704106288E+02 -0.41774709341E+02  0.62499999342E+02  0.99999964106E+01 0.  0.
    3000022    2    5    5    0    0  0.87723347467E+01 -0.48846282707E+01 -0.65476364096E+01  0.11989473200E+02  0.24994963923E+00 0.  0.
        -13    1    4    4    0    0 -0.61577743591E+01  0.66105893773E+01  0.10297973191E+02  0.13699538452E+02  0.10500000000E+00 0.  1.
         13    1    4    4    0    0 -0.12137615823E+02  0.13190972320E+02  0.20610692038E+02  0.27315474001E+02  0.10500000000E+00 0. -1.
    3000001    1    5    5    0    0  0.20497934398E+02 -0.29819478017E+02 -0.35227072931E+02  0.50510526142E+02  0.10000000000E+01 0. -1.
        -13    1    6    6    0    0  0.28016998101E+01 -0.15717748871E+01 -0.20363656917E+01  0.38049715311E+01  0.10500000000E+00 0.  1.
         13    1    6    6    0    0  0.59706349365E+01 -0.33128533836E+01 -0.45112707178E+01  0.81845016694E+01  0.10500000000E+00 0. -1.
</event>
<event>
11    0  0.3515428E-009  0.9118800E+02  0.7816531E-02  0.1126479E+00
         25   -1    0    0    0    0  0.00000000000E+00  0.00000000000E+00  0.99999998245E-14  0.12500000000E+03  0.12500000000E+03 0.  0.
    3000001    1    3    3    0    0 -0.28219088898E+01 -0.81029324971E+00 -0.75768145524E+01  0.81870546410E+01  0.10000000000E+01 0. -1.
    1000022    2    1    0    0    0 -0.14085942001E+02 -0.29168929002E+02 -0.52507236927E+02  0.62499999618E+02  0.99999920685E+01 0.  0.
    3000022    2    3    3    0    0 -0.11264033111E+02 -0.28358635752E+02 -0.44930422374E+02  0.54312944977E+02  0.24994731947E+00 0.  0.
    1000022    2    1    0    0    0  0.14085942001E+02  0.29168929002E+02  0.52507236927E+02  0.62500000382E+02  0.99999968453E+01 0.  0.
    3000022    2    5    5    0    0  0.91230117425E+01  0.12034117507E+02  0.31417314792E+02  0.34859138287E+02  0.25005189049E+00 0.  0.
        -13    1    4    4    0    0 -0.80253914481E+01 -0.20133932982E+02 -0.31974367170E+02  0.38628400771E+02  0.10500000000E+00 0. -1.
         13    1    4    4    0    0 -0.32386416633E+01 -0.82247027696E+01 -0.12956055205E+02  0.15684544206E+02  0.10500000000E+00 0.  1.
    3000001    1    5    5    0    0  0.49629302588E+01  0.17134811495E+02  0.21089922135E+02  0.27640862095E+02  0.10000000000E+01 0. -1.
        -13    1    6    6    0    0  0.44091251100E+01  0.58460077397E+01  0.15384413355E+02  0.17038409257E+02  0.10500000000E+00 0.  1.
         13    1    6    6    0    0  0.47138866325E+01  0.61881097675E+01  0.16032901437E+02  0.17820729030E+02  0.10500000000E+00 0. -1.
</event>
<event>
11    0  0.3515428E-009  0.9118800E+02  0.7816531E-02  0.1126479E+00
         25   -1    0    0    0    0  0.00000000000E+00  0.00000000000E+00  0.99999998245E-14  0.12500000000E+03  0.12500000000E+03 0.  0.
    3000001    1    3    3    0    0 -0.21303320224E+01 -0.89471079353E+01  0.17266357084E+02  0.19588673817E+02  0.10000000000E+01 0.  1.
    1000022    2    1    0    0    0  0.77313881483E+01 -0.27891768894E+02  0.54484171267E+02  0.62499999763E+02  0.99999958486E+01 0.  0.
    3000022    2    3    3    0    0  0.98617201707E+01 -0.18944660959E+02  0.37217814182E+02  0.42911325946E+02  0.24999672250E+00 0.  0.
    1000022    2    1    0    0    0 -0.77313881483E+01  0.27891768894E+02 -0.54484171267E+02  0.62500000237E+02  0.99999988147E+01 0.  0.
    3000022    2    5    5    0    0  0.16164689020E+01  0.11179222909E+02 -0.23241584399E+02  0.25842247184E+02  0.24999514863E+00 0.  0.
        -13    1    4    4    0    0  0.35982471914E+01 -0.68444105061E+01  0.13574336441E+02  0.15622642953E+02  0.10500000000E+00 0. -1.
         13    1    4    4    0    0  0.62634729793E+01 -0.12100250453E+02  0.23643477741E+02  0.27288682993E+02  0.10500000000E+00 0.  1.
    3000001    1    5    5    0    0 -0.93478570503E+01  0.16712545986E+02 -0.31242586867E+02  0.36657753053E+02  0.10000000000E+01 0.  1.
        -13    1    6    6    0    0  0.58999753043E+00  0.40732622503E+01 -0.83358150255E+01  0.92971178106E+01  0.10500000000E+00 0.  1.
         13    1    6    6    0    0  0.10264713716E+01  0.71059606585E+01 -0.14905769374E+02  0.16545129373E+02  0.10500000000E+00 0. -1.
</event>
<event>
11    0  0.3515428E-009  0.9118800E+02  0.7816531E-02  0.1126479E+00
         25   -1    0    0    0    0  0.00000000000E+00  0.00000000000E+00  0.99999998245E-14  0.12500000000E+03  0.12500000000E+03 0.  0.
    3000001    1    3    3    0    0  0.23292843680E+01  0.19318003174E+02  0.74589764728E+01  0.20862577557E+02  0.10000000000E+01 0. -1.
    1000022    2    1    0    0    0 -0.20818028935E+01  0.60457642579E+02  0.12115674978E+02  0.62500000158E+02  0.99999995031E+01 0.  0.
    3000022    2    3    3    0    0 -0.44110872615E+01  0.41139639405E+02  0.46566985055E+01  0.41637422601E+02  0.24999735729E+00 0.  0.
    1000022    2    1    0    0    0  0.20818028935E+01 -0.60457642579E+02 -0.12115674978E+02  0.62499999842E+02  0.99999975239E+01 0.  0.
    3000022    2    5    5    0    0 -0.32878169441E+01 -0.11673695029E+02 -0.10227431110E+01  0.12173471120E+02  0.24999947912E+00 0.  0.
        -13    1    4    4    0    0 -0.28037652851E+01  0.25683257244E+02  0.28733708201E+01  0.25995347417E+02  0.10500000000E+00 0. -1.
         13    1    4    4    0    0 -0.16073219764E+01  0.15456382161E+02  0.17833276853E+01  0.15642075185E+02  0.10500000000E+00 0.  1.
    3000001    1    5    5    0    0  0.53696198376E+01 -0.48783947550E+02 -0.11092931867E+02  0.50326528722E+02  0.10000000000E+01 0. -1.
        -13    1    6    6    0    0 -0.17246346472E+01 -0.63677573800E+01 -0.56600313360E+00  0.66222415589E+01  0.10500000000E+00 0. -1.
         13    1    6    6    0    0 -0.15631822969E+01 -0.53059376492E+01 -0.45673997740E+00  0.55512295609E+01  0.10500000000E+00 0.  1.
</event>
<event>
11    0  0.3515428E-009  0.9118800E+02  0.7816531E-02  0.1126479E+00
         25   -1    0    0    0    0  0.00000000000E+00  0.00000000000E+00  0.99999998245E-14  0.12500000000E+03  0.12500000000E+03 0.  0.
    3000001    1    3    3    0    0 -0.14447493470E+01 -0.26294876667E+02 -0.99354944824E+01  0.28164195182E+02  0.10000000000E+01 0. -1.
    1000022    2    1    0    0    0 -0.71205025590E+01 -0.53022068238E+02 -0.30727987847E+02  0.62499996094E+02  0.99999498834E+01 0.  0.
    3000022    2    3    3    0    0 -0.56757532120E+01 -0.26727191571E+02 -0.20792493364E+02  0.34335800912E+02  0.25000036306E+00 0.  0.
    1000022    2    1    0    0    0  0.71205025590E+01  0.53022068238E+02  0.30727987847E+02  0.62500003906E+02  0.99999987113E+01 0.  0.
    3000022    2    5    5    0    0 -0.58299038605E-01  0.38830235898E+01 -0.35128658594E+00  0.39073234709E+01  0.25000692855E+00 0.  0.
        -13    1    4    4    0    0 -0.28716037989E+01 -0.13756440297E+02 -0.10634719497E+02  0.17623678442E+02  0.10500000000E+00 0.  1.
         13    1    4    4    0    0 -0.28041494131E+01 -0.12970751274E+02 -0.10157773867E+02  0.16712122470E+02  0.10500000000E+00 0. -1.
    3000001    1    5    5    0    0  0.71788015976E+01  0.49139044648E+02  0.31079274432E+02  0.58592680435E+02  0.10000000000E+01 0. -1.
        -13    1    6    6    0    0 -0.72122802270E-01  0.23924108475E+01 -0.16662568134E+00  0.24015870751E+01  0.10500000000E+00 0. -1.
         13    1    6    6    0    0  0.13823763665E-01  0.14906127423E+01 -0.18466090459E+00  0.15057363958E+01  0.10500000000E+00 0.  1.
</event>
<event>
11    0  0.3515428E-009  0.9118800E+02  0.7816531E-02  0.1126479E+00
         25   -1    0    0    0    0  0.00000000000E+00  0.00000000000E+00  0.99999998245E-14  0.12500000000E+03  0.12500000000E+03 0.  0.
    3000001    1    3    3    0    0 -0.10697971549E+02  0.42419593075E+00  0.14254528979E+02  0.17855479099E+02  0.10000000000E+01 0. -1.
    1000022    2    1    0    0    0 -0.39323573901E+02 -0.13326126529E+02  0.45632454886E+02  0.62499999626E+02  0.99999950835E+01 0.  0.
    3000022    2    3    3    0    0 -0.28625602352E+02 -0.13750322460E+02  0.31377925908E+02  0.44644520527E+02  0.25000209416E+00 0.  0.
    1000022    2    1    0    0    0  0.39323573901E+02  0.13326126529E+02 -0.45632454886E+02  0.62500000374E+02  0.99999997626E+01 0.  0.
    3000022    2    5    5    0    0  0.33922953861E+02  0.13066889010E+02 -0.43273049924E+02  0.56516632370E+02  0.24999531357E+00 0.  0.
        -13    1    4    4    0    0 -0.18655911489E+02 -0.89751771964E+01  0.20532307975E+02  0.29157906903E+02  0.10500000000E+00 0.  1.
         13    1    4    4    0    0 -0.99696908627E+01 -0.47751452636E+01  0.10845617933E+02  0.15486613624E+02  0.10500000000E+00 0. -1.
    3000001    1    5    5    0    0  0.54006200393E+01  0.25923751942E+00 -0.23594049628E+01  0.59833680047E+01  0.10000000000E+01 0.  1.
        -13    1    6    6    0    0  0.11825863214E+02  0.46067878379E+01 -0.15153429612E+02  0.19766410624E+02  0.10500000000E+00 0.  1.
         13    1    6    6    0    0  0.22097090647E+02  0.84601011719E+01 -0.28119620311E+02  0.36750221746E+02  0.10500000000E+00 0. -1.
</event>
<event>
11    0  0.3515428E-009  0.9118800E+02  0.7816531E-02  0.1126479E+00
         25   -1    0    0    0    0  0.00000000000E+00  0.00000000000E+00  0.99999998245E-14  0.12500000000E+03  0.12500000000E+03 0.  0.
    3000001    1    3    3    0    0 -0.70808280574E+00 -0.99382766578E+00  0.16962692940E+01  0.23165500657E+01  0.10000000000E+01 0. -1.
    1000022    2    1    0    0    0 -0.54718198955E+02 -0.17422530149E+02  0.22552696390E+02  0.62500002671E+02  0.10000018287E+02 0.  0.
    3000022    2    3    3    0    0 -0.54010116150E+02 -0.16428702483E+02  0.20856427096E+02  0.60183452605E+02  0.25000908034E+00 0.  0.
    1000022    2    1    0    0    0  0.54718198955E+02  0.17422530149E+02 -0.22552696390E+02  0.62499997329E+02  0.99999848973E+01 0.  0.
    3000022    2    5    5    0    0  0.33423346793E+02  0.75739043407E+01 -0.17492374405E+02  0.38477653199E+02  0.24999105562E+00 0.  0.
        -13    1    4    4    0    0 -0.20261135432E+02 -0.61001099105E+01  0.78186974340E+01  0.22558102856E+02  0.10500000000E+00 0. -1.
         13    1    4    4    0    0 -0.33748980718E+02 -0.10328592573E+02  0.13037729662E+02  0.37625349750E+02  0.10500000000E+00 0.  1.
    3000001    1    5    5    0    0  0.21294852162E+02  0.98486258083E+01 -0.50603219846E+01  0.24022344130E+02  0.10000000000E+01 0. -1.
        -13    1    6    6    0    0  0.11405350465E+02  0.25389580043E+01 -0.59278115815E+01  0.13102606692E+02  0.10500000000E+00 0. -1.
         13    1    6    6    0    0  0.22017996328E+02  0.50349463364E+01 -0.11564562824E+02  0.25375046507E+02  0.10500000000E+00 0.  1.
</event>
<event>
11    0  0.3515428E-009  0.9118800E+02  0.7816531E-02  0.1126479E+00
         25   -1    0    0    0    0  0.00000000000E+00  0.00000000000E+00  0.99999998245E-14  0.12500000000E+03  0.12500000000E+03 0.  0.
    3000001    1    3    3    0    0 -0.35415310905E+02  0.14556766566E+02  0.61615650995E+01  0.38795728938E+02  0.10000000000E+01 0. -1.
    1000022    2    1    0    0    0 -0.56268133177E+02  0.25185415794E+02  0.24170224454E+01  0.62500000339E+02  0.10000003247E+02 0.  0.
    3000022    2    3    3    0    0 -0.20852822272E+02  0.10628649227E+02 -0.37445426540E+01  0.23704271401E+02  0.25000370425E+00 0.  0.
    1000022    2    1    0    0    0  0.56268133177E+02 -0.25185415794E+02 -0.24170224454E+01  0.62499999661E+02  0.99999990072E+01 0.  0.
    3000022    2    5    5    0    0  0.57403684914E+01 -0.31197872466E+01 -0.33519127497E+01  0.73472935875E+01  0.25000219687E+00 0.  0.
        -13    1    4    4    0    0 -0.14433361595E+02  0.74092710181E+01 -0.25869871540E+01  0.16429325960E+02  0.10500000000E+00 0.  1.
         13    1    4    4    0    0 -0.64194606769E+01  0.32193782093E+01 -0.11575555000E+01  0.72749454412E+01  0.10500000000E+00 0. -1.
    3000001    1    5    5    0    0  0.50527764686E+02 -0.22065628547E+02  0.93489030422E+00  0.55152706073E+02  0.10000000000E+01 0.  1.
        -13    1    6    6    0    0  0.36332565762E+01 -0.20304247788E+01 -0.20985754439E+01  0.46624266240E+01  0.10500000000E+00 0.  1.
         13    1    6    6    0    0  0.21071119152E+01 -0.10893624678E+01 -0.12533373057E+01  0.26848669635E+01  0.10500000000E+00 0. -1.
</event>
<event>
11    0  0.3515428E-009  0.9118800E+02  0.7816531E-02  0.1126479E+00
         25   -1    0    0    0    0  0.00000000000E+00  0.00000000000E+00  0.99999998245E-14  0.12500000000E+03  0.12500000000E+03 0.  0.
    3000001    1    3    3    0    0 -0.58136709034E+01 -0.24291846056E+01 -0.90425585944E+00  0.64433986281E+01  0.10000000000E+01 0.  1.
    1000022    2    1    0    0    0 -0.61420652829E+02 -0.17101874928E+00  0.58072623865E+01  0.62500001517E+02  0.10000002595E+02 0.  0.
    3000022    2    3    3    0    0 -0.55606981925E+02  0.22581658564E+01  0.67115182459E+01  0.56056602889E+02  0.24999684055E+00 0.  0.
    1000022    2    1    0    0    0  0.61420652829E+02  0.17101874928E+00 -0.58072623865E+01  0.62499998483E+02  0.99999836309E+01 0.  0.
    3000022    2    5    5    0    0  0.11759731096E+02  0.10339486434E+01 -0.49791031865E+01  0.12814611868E+02  0.24996710656E+00 0.  0.
        -13    1    4    4    0    0 -0.38193228412E+02  0.15020062277E+01  0.46047821211E+01  0.38499269637E+02  0.10500000000E+00 0.  1.
         13    1    4    4    0    0 -0.17413753513E+02  0.75615962864E+00  0.21067361248E+01  0.17557333252E+02  0.10500000000E+00 0. -1.
    3000001    1    5    5    0    0  0.49660921733E+02 -0.86292989415E+00 -0.82815919997E+00  0.49685386615E+02  0.10000000000E+01 0. -1.
        -13    1    6    6    0    0  0.40823305993E+01  0.40668527144E+00 -0.16983744725E+01  0.44414318503E+01  0.10500000000E+00 0.  1.
         13    1    6    6    0    0  0.76774004963E+01  0.62726337199E+00 -0.32807287140E+01  0.83731800180E+01  0.10500000000E+00 0. -1.
</event>
<event>
11    0  0.3515428E-009  0.9118800E+02  0.7816531E-02  0.1126479E+00
         25   -1    0    0    0    0  0.00000000000E+00  0.00000000000E+00  0.99999998245E-14  0.12500000000E+03  0.12500000000E+03 0.  0.
    3000001    1    3    3    0    0  0.16310926446E+02 -0.17500807262E+02 -0.35335633964E+02  0.42684090759E+02  0.10000000000E+01 0. -1.
    1000022    2    1    0    0    0  0.17421882014E+02 -0.25038048116E+02 -0.53626711951E+02  0.62499999832E+02  0.99999959019E+01 0.  0.
    3000022    2    3    3    0    0  0.11109555684E+01 -0.75372408532E+01 -0.18291077987E+02  0.19815909073E+02  0.24999299303E+00 0.  0.
    1000022    2    1    0    0    0 -0.17421882014E+02  0.25038048116E+02  0.53626711951E+02  0.62500000168E+02  0.99999979996E+01 0.  0.
    3000022    2    5    5    0    0 -0.13247508872E+02  0.20938857839E+02  0.49227391867E+02  0.55111984923E+02  0.25002645505E+00 0.  0.
        -13    1    4    4    0    0  0.35404214916E+00 -0.24387749369E+01 -0.60530763993E+01  0.65363390313E+01  0.10500000000E+00 0.  1.
         13    1    4    4    0    0  0.75691341929E+00 -0.50984659162E+01 -0.12238001588E+02  0.13279570041E+02  0.10500000000E+00 0. -1.
    3000001    1    5    5    0    0 -0.41743731424E+01  0.40991902769E+01  0.43993200832E+01  0.73880152445E+01  0.10000000000E+01 0.  1.
        -13    1    6    6    0    0 -0.31467889559E+01  0.49724579315E+01  0.11730715373E+02  0.13124341004E+02  0.10500000000E+00 0.  1.
         13    1    6    6    0    0 -0.10100719916E+02  0.15966399907E+02  0.37496676494E+02  0.41987643920E+02  0.10500000000E+00 0. -1.
</event>
<event>
11    0  0.3515428E-009  0.9118800E+02  0.7816531E-02  0.1126479E+00
         25   -1    0    0    0    0  0.00000000000E+00  0.00000000000E+00  0.99999998245E-14  0.12500000000E+03  0.12500000000E+03 0.  0.
    3000001    1    3    3    0    0 -0.53572859399E+01 -0.92887450797E+01 -0.82721932973E+01  0.13579782021E+02  0.10000000000E+01 0.  1.
    1000022    2    1    0    0    0 -0.26405368658E+02 -0.27526434602E+02 -0.48490223543E+02  0.62499998315E+02  0.99999957129E+01 0.  0.
    3000022    2    3    3    0    0 -0.21048082718E+02 -0.18237689523E+02 -0.40218030246E+02  0.48920216294E+02  0.25000032222E+00 0.  0.
    1000022    2    1    0    0    0  0.26405368658E+02  0.27526434602E+02  0.48490223543E+02  0.62500001685E+02  0.10000016774E+02 0.  0.
    3000022    2    5    5    0    0  0.26107738287E+02  0.26056809296E+02  0.42652227700E+02  0.56390126249E+02  0.25000290519E+00 0.  0.
        -13    1    4    4    0    0 -0.50374338853E+01 -0.43765814278E+01 -0.96077577170E+01  0.11698300667E+02  0.10500000000E+00 0.  1.
         13    1    4    4    0    0 -0.16010648833E+02 -0.13861108095E+02 -0.30610272529E+02  0.37221915627E+02  0.10500000000E+00 0. -1.
    3000001    1    5    5    0    0  0.29763037105E+00  0.14696253061E+01  0.58379958429E+01  0.61098754357E+01  0.10000000000E+01 0.  1.
        -13    1    6    6    0    0  0.63402819475E+01  0.63095063964E+01  0.10317714559E+02  0.13655596100E+02  0.10500000000E+00 0. -1.
         13    1    6    6    0    0  0.19767456340E+02  0.19747302900E+02  0.32334513141E+02  0.42734530149E+02  0.10500000000E+00 0.  1.
</event>
<event>
11    0  0.3515428E-009  0.9118800E+02  0.7816531E-02  0.1126479E+00
         25   -1    0    0    0    0  0.00000000000E+00  0.00000000000E+00  0.99999998245E-14  0.12500000000E+03  0.12500000000E+03 0.  0.
    3000001    1    3    3    0    0 -0.18676022818E+01 -0.17127116918E+02  0.19774832086E+02  0.26246334148E+02  0.10000000000E+01 0.  1.
    1000022    2    1    0    0    0 -0.21318176921E+01 -0.31186576806E+02  0.53189312070E+02  0.62499999094E+02  0.99999874409E+01 0.  0.
    3000022    2    3    3    0    0 -0.26421541033E+00 -0.14059459888E+02  0.33414479984E+02  0.36253664946E+02  0.25005462170E+00 0.  0.
    1000022    2    1    0    0    0  0.21318176921E+01  0.31186576806E+02 -0.53189312070E+02  0.62500000906E+02  0.99999987602E+01 0.  0.
    3000022    2    5    5    0    0  0.37314804871E+01  0.98293682622E+01 -0.11263411941E+02  0.15409976703E+02  0.25001272507E+00 0.  0.
        -13    1    4    4    0    0 -0.87874134218E-01 -0.80992943611E+01  0.19272406330E+02  0.20905572505E+02  0.10500000000E+00 0.  1.
         13    1    4    4    0    0 -0.17634127611E+00 -0.59601655272E+01  0.14142073654E+02  0.15348092441E+02  0.10500000000E+00 0. -1.
    3000001    1    5    5    0    0 -0.15996627950E+01  0.21357208544E+02 -0.41925900128E+02  0.47090024203E+02  0.10000000000E+01 0.  1.
        -13    1    6    6    0    0  0.11539047056E+01  0.30033826734E+01 -0.33810992065E+01  0.46684751682E+01  0.10500000000E+00 0. -1.
         13    1    6    6    0    0  0.25775757815E+01  0.68259855888E+01 -0.78823127347E+01  0.10741501535E+02  0.10500000000E+00 0.  1.
</event>
<event>
11    0  0.3515428E-009  0.9118800E+02  0.7816531E-02  0.1126479E+00
         25   -1    0    0    0    0  0.00000000000E+00  0.00000000000E+00  0.99999998245E-14  0.12500000000E+03  0.12500000000E+03 0.  0.
    3000001    1    3    3    0    0  0.14284446529E+02  0.99060730416E+01 -0.41399871047E+01  0.17897351451E+02  0.10000000000E+01 0.  1.
    1000022    2    1    0    0    0  0.48796568873E+02  0.37744942647E+02  0.68127162843E+00  0.62500000322E+02  0.10000004000E+02 0.  0.
    3000022    2    3    3    0    0  0.34512122344E+02  0.27838869606E+02  0.48212587331E+01  0.44602648871E+02  0.25000180751E+00 0.  0.
    1000022    2    1    0    0    0 -0.48796568873E+02 -0.37744942647E+02 -0.68127162843E+00  0.62499999678E+02  0.99999999774E+01 0.  0.
    3000022    2    5    5    0    0 -0.29672645670E+01 -0.11305392606E+01  0.20167388362E+01  0.37699483504E+01  0.24999400090E+00 0.  0.
        -13    1    4    4    0    0  0.11031712301E+02  0.88642203385E+01  0.15819217364E+01  0.14240315301E+02  0.10500000000E+00 0.  1.
         13    1    4    4    0    0  0.23480410043E+02  0.18974649267E+02  0.32393369967E+01  0.30362333569E+02  0.10500000000E+00 0. -1.
    3000001    1    5    5    0    0 -0.45829304306E+02 -0.36614403387E+02 -0.26980104646E+01  0.58730051328E+02  0.10000000000E+01 0.  1.
        -13    1    6    6    0    0 -0.14556818522E+01 -0.59867102666E+00  0.10631666185E+01  0.19023051574E+01  0.10500000000E+00 0.  1.
         13    1    6    6    0    0 -0.15115827148E+01 -0.53186823397E+00  0.95357221764E+00  0.18676431930E+01  0.10500000000E+00 0. -1.
</event>
<event>
11    0  0.3515428E-009  0.9118800E+02  0.7816531E-02  0.1126479E+00
         25   -1    0    0    0    0  0.00000000000E+00  0.00000000000E+00  0.99999998245E-14  0.12500000000E+03  0.12500000000E+03 0.  0.
    3000001    1    3    3    0    0 -0.52337170216E+01  0.24631738429E+02 -0.20957221638E+02  0.32776813004E+02  0.10000000000E+01 0. -1.
    1000022    2    1    0    0    0 -0.13976150849E+01  0.44359062994E+02 -0.42855205781E+02  0.62499989527E+02  0.10000011533E+02 0.  0.
    3000022    2    3    3    0    0  0.38361019366E+01  0.19727324565E+02 -0.21897984143E+02  0.29723176523E+02  0.25000105175E+00 0.  0.
    1000022    2    1    0    0    0  0.13976150849E+01 -0.44359062994E+02  0.42855205781E+02  0.62500010473E+02  0.10000142451E+02 0.  0.
    3000022    2    5    5    0    0 -0.15068169226E+01 -0.34742145531E+02  0.37220731769E+02  0.50938517310E+02  0.24999798131E+00 0.  0.
        -13    1    4    4    0    0  0.26990288772E+01  0.14069193568E+02 -0.15640733027E+02  0.21210151323E+02  0.10500000000E+00 0.  1.
         13    1    4    4    0    0  0.11370730594E+01  0.56581309969E+01 -0.62572511154E+01  0.85130251992E+01  0.10500000000E+00 0. -1.
    3000001    1    5    5    0    0  0.29044320076E+01 -0.96169174628E+01  0.56344740116E+01  0.11561493163E+02  0.10000000000E+01 0.  1.
        -13    1    6    6    0    0 -0.73568140858E+00 -0.18514028086E+02  0.19836719370E+02  0.27144371856E+02  0.10500000000E+00 0.  1.
         13    1    6    6    0    0 -0.77113551405E+00 -0.16228117445E+02  0.17384012399E+02  0.23794145454E+02  0.10500000000E+00 0. -1.
</event>
<event>
11    0  0.3515428E-009  0.9118800E+02  0.7816531E-02  0.1126479E+00
         25   -1    0    0    0    0  0.00000000000E+00  0.00000000000E+00  0.99999998245E-14  0.12500000000E+03  0.12500000000E+03 0.  0.
    3000001    1    3    3    0    0 -0.24323604245E+02 -0.38608621825E+02 -0.11504856302E+02  0.47070427247E+02  0.10000000000E+01 0. -1.
    1000022    2    1    0    0    0 -0.27678180223E+02 -0.53598951298E+02 -0.12935250471E+02  0.62499999086E+02  0.99999970187E+01 0.  0.
    3000022    2    3    3    0    0 -0.33545759780E+01 -0.14990329473E+02 -0.14303941685E+01  0.15429571840E+02  0.25000393675E+00 0.  0.
    1000022    2    1    0    0    0  0.27678180223E+02  0.53598951298E+02  0.12935250471E+02  0.62500000914E+02  0.10000008438E+02 0.  0.
    3000022    2    5    5    0    0  0.41160859624E+01  0.16499024441E+02  0.14792737795E+01  0.17070756361E+02  0.25000128796E+00 0.  0.
        -13    1    4    4    0    0 -0.94463332425E+00 -0.40582735080E+01 -0.38000034176E+00  0.41853722944E+01  0.10500000000E+00 0.  1.
         13    1    4    4    0    0 -0.24099426537E+01 -0.10932055965E+02 -0.10503938268E+01  0.11244199545E+02  0.10500000000E+00 0. -1.
    3000001    1    5    5    0    0  0.23562094260E+02  0.37099926857E+02  0.11455976691E+02  0.45429244553E+02  0.10000000000E+01 0.  1.
        -13    1    6    6    0    0  0.20644247673E+01  0.82856054537E+01  0.67478652207E+00  0.85661817167E+01  0.10500000000E+00 0. -1.
         13    1    6    6    0    0  0.20516611951E+01  0.82134189875E+01  0.80448725743E+00  0.85045746438E+01  0.10500000000E+00 0.  1.
</event>
<event>
11    0  0.3515428E-009  0.9118800E+02  0.7816531E-02  0.1126479E+00
         25   -1    0    0    0    0  0.00000000000E+00  0.00000000000E+00  0.99999998245E-14  0.12500000000E+03  0.12500000000E+03 0.  0.
    3000001    1    3    3    0    0  0.86998444101E+01 -0.93170147294E+01  0.84554993740E+01  0.15329368085E+02  0.10000000000E+01 0. -1.
    1000022    2    1    0    0    0  0.27078499557E+02 -0.49521647194E+02  0.24912069647E+02  0.62500001342E+02  0.10000013732E+02 0.  0.
    3000022    2    3    3    0    0  0.18378655147E+02 -0.40204632465E+02  0.16456570273E+02  0.47170633257E+02  0.25000021609E+00 0.  0.
    1000022    2    1    0    0    0 -0.27078499557E+02  0.49521647194E+02 -0.24912069647E+02  0.62499998658E+02  0.99999969507E+01 0.  0.
    3000022    2    5    5    0    0 -0.17832285457E+02  0.24669675400E+02 -0.98866054746E+01  0.32006104993E+02  0.25000007047E+00 0.  0.
        -13    1    4    4    0    0  0.81026866188E+01 -0.17673135842E+02  0.71710103504E+01  0.20722636786E+02  0.10500000000E+00 0.  1.
         13    1    4    4    0    0  0.10275968528E+02 -0.22531496623E+02  0.92855599226E+01  0.26447996471E+02  0.10500000000E+00 0. -1.
    3000001    1    5    5    0    0 -0.92462140998E+01  0.24851971794E+02 -0.15025464172E+02  0.30493893665E+02  0.10000000000E+01 0.  1.
        -13    1    6    6    0    0 -0.46886670213E+01  0.65438543748E+01 -0.26159113194E+01  0.84652020381E+01  0.10500000000E+00 0. -1.
         13    1    6    6    0    0 -0.13143618436E+02  0.18125821025E+02 -0.72706941552E+01  0.23540902954E+02  0.10500000000E+00 0.  1.
</event>
<event>
11    0  0.3515428E-009  0.9118800E+02  0.7816531E-02  0.1126479E+00
         25   -1    0    0    0    0  0.00000000000E+00  0.00000000000E+00  0.99999998245E-14  0.12500000000E+03  0.12500000000E+03 0.  0.
    3000001    1    3    3    0    0  0.17613302605E+02  0.31962931238E+01 -0.15583229438E+02  0.23754615511E+02  0.10000000000E+01 0. -1.
    1000022    2    1    0    0    0  0.39667483622E+02  0.18833083227E+02 -0.43336538786E+02  0.62499999538E+02  0.10000003375E+02 0.  0.
    3000022    2    3    3    0    0  0.22054181017E+02  0.15636790103E+02 -0.27753309348E+02  0.38745384026E+02  0.24999697153E+00 0.  0.
    1000022    2    1    0    0    0 -0.39667483622E+02 -0.18833083227E+02  0.43336538786E+02  0.62500000462E+02  0.10000009154E+02 0.  0.
    3000022    2    5    5    0    0 -0.29419855046E+02 -0.89431630626E+01  0.30162439459E+02  0.43073695992E+02  0.24999159355E+00 0.  0.
        -13    1    4    4    0    0  0.11234356063E+02  0.80448215762E+01 -0.14212906077E+02  0.19822906812E+02  0.10500000000E+00 0.  1.
         13    1    4    4    0    0  0.10819824955E+02  0.75919685272E+01 -0.13540403271E+02  0.18922477214E+02  0.10500000000E+00 0. -1.
    3000001    1    5    5    0    0 -0.10247628576E+02 -0.98899201646E+01  0.13174099327E+02  0.19426304470E+02  0.10000000000E+01 0. -1.
        -13    1    6    6    0    0 -0.13412881845E+02 -0.40559573253E+01  0.13834681829E+02  0.19691765678E+02  0.10500000000E+00 0.  1.
         13    1    6    6    0    0 -0.16006973201E+02 -0.48872057373E+01  0.16327757630E+02  0.23381930314E+02  0.10500000000E+00 0. -1.
</event>
<event>
11    0  0.3515428E-009  0.9118800E+02  0.7816531E-02  0.1126479E+00
         25   -1    0    0    0    0  0.00000000000E+00  0.00000000000E+00  0.99999998245E-14  0.12500000000E+03  0.12500000000E+03 0.  0.
    3000001    1    3    3    0    0  0.11368921462E+02 -0.45468492243E+02 -0.91783330814E+00  0.46887936402E+02  0.10000000000E+01 0. -1.
    1000022    2    1    0    0    0  0.19352871447E+02 -0.58544076548E+02  0.20754431570E+01  0.62500001356E+02  0.10000008660E+02 0.  0.
    3000022    2    3    3    0    0  0.79839499855E+01 -0.13075584305E+02  0.29932764651E+01  0.15612064955E+02  0.25001173928E+00 0.  0.
    1000022    2    1    0    0    0 -0.19352871447E+02  0.58544076548E+02 -0.20754431570E+01  0.62499998644E+02  0.99999917041E+01 0.  0.
    3000022    2    5    5    0    0 -0.19925740373E+02  0.56653728394E+02 -0.29281660584E+01  0.60127503903E+02  0.24999755256E+00 0.  0.
        -13    1    4    4    0    0  0.55408310962E+01 -0.90482861162E+01  0.20261263041E+01  0.10802245307E+02  0.10500000000E+00 0.  1.
         13    1    4    4    0    0  0.24431188892E+01 -0.40272981885E+01  0.96715016106E+00  0.48098196474E+01  0.10500000000E+00 0. -1.
    3000001    1    5    5    0    0  0.57286892570E+00  0.18903481535E+01  0.85272290138E+00  0.23724947405E+01  0.10000000000E+01 0. -1.
        -13    1    6    6    0    0 -0.84946208768E+01  0.24106107980E+02 -0.11827272895E+01  0.25586576454E+02  0.10500000000E+00 0. -1.
         13    1    6    6    0    0 -0.11431119496E+02  0.32547620414E+02 -0.17454387689E+01  0.34540927449E+02  0.10500000000E+00 0.  1.
</event>
<event>
11    0  0.3515428E-009  0.9118800E+02  0.7816531E-02  0.1126479E+00
         25   -1    0    0    0    0  0.00000000000E+00  0.00000000000E+00  0.99999998245E-14  0.12500000000E+03  0.12500000000E+03 0.  0.
    3000001    1    3    3    0    0 -0.17854131643E+02 -0.28182853474E+02 -0.40773584441E+01  0.33625408526E+02  0.10000000000E+01 0.  1.
    1000022    2    1    0    0    0 -0.37214299259E+02 -0.49207158253E+02  0.26617338653E-01  0.62500009664E+02  0.10000100341E+02 0.  0.
    3000022    2    3    3    0    0 -0.19360167616E+02 -0.21024304779E+02  0.41039757828E+01  0.28874601138E+02  0.24998417296E+00 0.  0.
    1000022    2    1    0    0    0  0.37214299259E+02  0.49207158253E+02 -0.26617338653E-01  0.62499990336E+02  0.99999795436E+01 0.  0.
    3000022    2    5    5    0    0  0.23005367015E+02  0.29664346511E+02 -0.48136994035E+01  0.37847781491E+02  0.24999270906E+00 0.  0.
        -13    1    4    4    0    0 -0.95733034145E+01 -0.10298418967E+02  0.20044804394E+01  0.14203328424E+02  0.10500000000E+00 0. -1.
         13    1    4    4    0    0 -0.97868642012E+01 -0.10725885812E+02  0.20994953434E+01  0.14671272714E+02  0.10500000000E+00 0.  1.
    3000001    1    5    5    0    0  0.14208932244E+02  0.19542811741E+02  0.47870820649E+01  0.24652208845E+02  0.10000000000E+01 0. -1.
        -13    1    6    6    0    0  0.14536751405E+02  0.18719533184E+02 -0.29813467256E+01  0.23888020373E+02  0.10500000000E+00 0. -1.
         13    1    6    6    0    0  0.84686156101E+01  0.10944813328E+02 -0.18323526779E+01  0.13959761118E+02  0.10500000000E+00 0.  1.
</event>
<event>
11    0  0.3515428E-009  0.9118800E+02  0.7816531E-02  0.1126479E+00
         25   -1    0    0    0    0  0.00000000000E+00  0.00000000000E+00  0.99999998245E-14  0.12500000000E+03  0.12500000000E+03 0.  0.
    3000001    1    3    3    0    0  0.72259578142E+01  0.17425885573E+02  0.23773847444E+02  0.30365634797E+02  0.10000000000E+01 0. -1.
    1000022    2    1    0    0    0  0.47335288589E+01  0.36330213737E+02  0.49638283807E+02  0.62499999459E+02  0.99999993725E+01 0.  0.
    3000022    2    3    3    0    0 -0.24924289553E+01  0.18904328164E+02  0.25864436364E+02  0.32134364663E+02  0.24999685844E+00 0.  0.
    1000022    2    1    0    0    0 -0.47335288589E+01 -0.36330213737E+02 -0.49638283807E+02  0.62500000541E+02  0.10000006133E+02 0.  0.
    3000022    2    5    5    0    0  0.21748387050E+01 -0.16068276932E+02 -0.17368610110E+02  0.23762377150E+02  0.25000737828E+00 0.  0.
        -13    1    4    4    0    0 -0.18665322174E+01  0.13953767230E+02  0.19126172370E+02  0.23748959071E+02  0.10500000000E+00 0. -1.
         13    1    4    4    0    0 -0.62589673790E+00  0.49505609341E+01  0.67382639935E+01  0.83854055915E+01  0.10500000000E+00 0.  1.
    3000001    1    5    5    0    0 -0.69083675639E+01 -0.20261936804E+02 -0.32269673697E+02  0.38737623391E+02  0.10000000000E+01 0.  1.
        -13    1    6    6    0    0  0.93663458491E+00 -0.74091547321E+01 -0.80201698351E+01  0.10959334258E+02  0.10500000000E+00 0.  1.
         13    1    6    6    0    0  0.12382041201E+01 -0.86591222003E+01 -0.93484402752E+01  0.12803042892E+02  0.10500000000E+00 0. -1.
</event>
<event>
11    0  0.3515428E-009  0.9118800E+02  0.7816531E-02  0.1126479E+00
         25   -1    0    0    0    0  0.00000000000E+00  0.00000000000E+00  0.99999998245E-14  0.12500000000E+03  0.12500000000E+03 0.  0.
    3000001    1    3    3    0    0 -0.23034131706E+02  0.11105837837E+02  0.62952203873E+01  0.26354139281E+02  0.10000000000E+01 0.  1.
    1000022    2    1    0    0    0 -0.47495589244E+02  0.34420124466E+02  0.19122606402E+02  0.62500000230E+02  0.99999993572E+01 0.  0.
    3000022    2    3    3    0    0 -0.24461457539E+02  0.23314286629E+02  0.12827386015E+02  0.36145860949E+02  0.25013162173E+00 0.  0.
    1000022    2    1    0    0    0  0.47495589244E+02 -0.34420124466E+02 -0.19122606402E+02  0.62499999770E+02  0.99999964862E+01 0.  0.
    3000022    2    5    5    0    0  0.22794256948E+02 -0.19080549653E+02 -0.14377907141E+02  0.33021693446E+02  0.24999882749E+00 0.  0.
        -13    1    4    4    0    0 -0.77111634910E+01  0.73059334225E+01  0.40733094619E+01  0.11377239583E+02  0.10500000000E+00 0. -1.
         13    1    4    4    0    0 -0.16750294048E+02  0.16008353207E+02  0.87540765531E+01  0.24768621366E+02  0.10500000000E+00 0.  1.
    3000001    1    5    5    0    0  0.24701332296E+02 -0.15339574813E+02 -0.47446992612E+01  0.29478306324E+02  0.10000000000E+01 0. -1.
        -13    1    6    6    0    0  0.11265924208E+02 -0.93468916170E+01 -0.71048808656E+01  0.16271932530E+02  0.10500000000E+00 0. -1.
         13    1    6    6    0    0  0.11528332740E+02 -0.97336580362E+01 -0.72730262755E+01  0.16749760916E+02  0.10500000000E+00 0.  1.
</event>
<event>
11    0  0.3515428E-009  0.9118800E+02  0.7816531E-02  0.1126479E+00
         25   -1    0    0    0    0  0.00000000000E+00  0.00000000000E+00  0.99999998245E-14  0.12500000000E+03  0.12500000000E+03 0.  0.
    3000001    1    3    3    0    0  0.22727958221E+02  0.58813368828E+01 -0.31790627400E+01  0.23711951593E+02  0.10000000000E+01 0.  1.
    1000022    2    1    0    0    0  0.59785516839E+02  0.45010734844E+01 -0.14549310509E+02  0.62500001466E+02  0.10000003036E+02 0.  0.
    3000022    2    3    3    0    0  0.37057558618E+02 -0.13802633983E+01 -0.11370247769E+02  0.38788049873E+02  0.25000172611E+00 0.  0.
    1000022    2    1    0    0    0 -0.59785516839E+02 -0.45010734844E+01  0.14549310509E+02  0.62499998534E+02  0.99999847089E+01 0.  0.
    3000022    2    5    5    0    0 -0.45689436686E+02 -0.11715968575E+01  0.73421508784E+01  0.46291110841E+02  0.24999897298E+00 0.  0.
        -13    1    4    4    0    0  0.13705004831E+02 -0.54882522678E+00 -0.41579525648E+01  0.14332758321E+02  0.10500000000E+00 0.  1.
         13    1    4    4    0    0  0.23352553787E+02 -0.83143817157E+00 -0.72122952045E+01  0.24455291553E+02  0.10500000000E+00 0. -1.
    3000001    1    5    5    0    0 -0.14096080154E+02 -0.33294766269E+01  0.72071596308E+01  0.16208887693E+02  0.10000000000E+01 0.  1.
        -13    1    6    6    0    0 -0.27379660961E+02 -0.65430672239E+00  0.44414059960E+01  0.27745469249E+02  0.10500000000E+00 0. -1.
         13    1    6    6    0    0 -0.18309775725E+02 -0.51729013514E+00  0.29007448824E+01  0.18545641591E+02  0.10500000000E+00 0.  1.
</event>
<event>
11    0  0.3515428E-009  0.9118800E+02  0.7816531E-02  0.1126479E+00
         25   -1    0    0    0    0  0.00000000000E+00  0.00000000000E+00  0.99999998245E-14  0.12500000000E+03  0.12500000000E+03 0.  0.
    3000001    1    3    3    0    0 -0.84847396522E+01  0.71818469960E+00  0.96352301922E+01  0.12897451573E+02  0.10000000000E+01 0. -1.
    1000022    2    1    0    0    0 -0.52848914432E+02  0.38592241310E+01  0.31596655290E+02  0.62500000128E+02  0.10000001148E+02 0.  0.
    3000022    2    3    3    0    0 -0.44364174780E+02  0.31410394314E+01  0.21961425097E+02  0.49602548555E+02  0.24999639626E+00 0.  0.
    1000022    2    1    0    0    0  0.52848914432E+02 -0.38592241310E+01 -0.31596655290E+02  0.62499999872E+02  0.99999995456E+01 0.  0.
    3000022    2    5    5    0    0  0.19455826521E+02 -0.14834602816E+01 -0.62255558939E+01  0.20482916933E+02  0.24999975861E+00 0.  0.
        -13    1    4    4    0    0 -0.28873316445E+02  0.20352035683E+01  0.14230565512E+02  0.32254154397E+02  0.10500000000E+00 0.  1.
         13    1    4    4    0    0 -0.15490858336E+02  0.11058358632E+01  0.77308595854E+01  0.17348394158E+02  0.10500000000E+00 0. -1.
    3000001    1    5    5    0    0  0.33393087911E+02 -0.23757638494E+01 -0.25371099396E+02  0.42017082939E+02  0.10000000000E+01 0.  1.
        -13    1    6    6    0    0  0.64262109562E+01 -0.43989513803E+00 -0.20370067777E+01  0.67564870013E+01  0.10500000000E+00 0. -1.
         13    1    6    6    0    0  0.13029615565E+02 -0.10435651436E+01 -0.41885491162E+01  0.13726429932E+02  0.10500000000E+00 0.  1.
</event>
<event>
11    0  0.3515428E-009  0.9118800E+02  0.7816531E-02  0.1126479E+00
         25   -1    0    0    0    0  0.00000000000E+00  0.00000000000E+00  0.99999998245E-14  0.12500000000E+03  0.12500000000E+03 0.  0.
    3000001    1    3    3    0    0 -0.66147844096E+00 -0.66646282545E+01  0.38324685412E+01  0.77809150245E+01  0.10000000000E+01 0.  1.
    1000022    2    1    0    0    0 -0.28851668623E+02 -0.49953487072E+02  0.21874191366E+02  0.62500001023E+02  0.10000011348E+02 0.  0.
    3000022    2    3    3    0    0 -0.28190190182E+02 -0.43288858818E+02  0.18041722825E+02  0.54719085998E+02  0.24997959194E+00 0.  0.
    1000022    2    1    0    0    0  0.28851668623E+02  0.49953487072E+02 -0.21874191366E+02  0.62499998977E+02  0.99999985627E+01 0.  0.
    3000022    2    5    5    0    0 -0.38023914963E+00  0.40623799914E+01 -0.21289944487E+01  0.46089725361E+01  0.24999494031E+00 0.  0.
        -13    1    4    4    0    0 -0.18158701740E+02 -0.27912809225E+02  0.11688310993E+02  0.35291514654E+02  0.10500000000E+00 0.  1.
         13    1    4    4    0    0 -0.10031488442E+02 -0.15376049593E+02  0.63534118324E+01  0.19427571345E+02  0.10500000000E+00 0. -1.
    3000001    1    5    5    0    0  0.29231907772E+02  0.45891107081E+02 -0.19745196918E+02  0.57891026441E+02  0.10000000000E+01 0. -1.
        -13    1    6    6    0    0 -0.17051872588E+00  0.13268022210E+01 -0.67084197326E+00  0.15001782303E+01  0.10500000000E+00 0.  1.
         13    1    6    6    0    0 -0.20972042375E+00  0.27355777704E+01 -0.14581524754E+01  0.31087943058E+01  0.10500000000E+00 0. -1.
</event>
<event>
11    0  0.3515428E-009  0.9118800E+02  0.7816531E-02  0.1126479E+00
         25   -1    0    0    0    0  0.00000000000E+00  0.00000000000E+00  0.99999998245E-14  0.12500000000E+03  0.12500000000E+03 0.  0.
    3000001    1    3    3    0    0  0.20919308924E+02 -0.47104575563E+02  0.28799433141E+02  0.59049689873E+02  0.10000000000E+01 0. -1.
    1000022    2    1    0    0    0  0.23555747825E+02 -0.47962504660E+02  0.30837881284E+02  0.62499998694E+02  0.99999902882E+01 0.  0.
    3000022    2    3    3    0    0  0.26364389007E+01 -0.85792909714E+00  0.20384481433E+01  0.34503088210E+01  0.25001542870E+00 0.  0.
    1000022    2    1    0    0    0 -0.23555747825E+02  0.47962504660E+02 -0.30837881284E+02  0.62500001306E+02  0.10000006617E+02 0.  0.
    3000022    2    5    5    0    0 -0.13313548870E+02  0.21819590431E+02 -0.96981095678E+01  0.27339731796E+02  0.24999081560E+00 0.  0.
        -13    1    4    4    0    0  0.12248216275E+01 -0.43490628284E+00  0.88408589950E+00  0.15754251400E+01  0.10500000000E+00 0. -1.
         13    1    4    4    0    0  0.14116172732E+01 -0.42302281430E+00  0.11543622438E+01  0.18748836810E+01  0.10500000000E+00 0.  1.
    3000001    1    5    5    0    0 -0.10242198955E+02  0.26142914229E+02 -0.21139771716E+02  0.35160269510E+02  0.10000000000E+01 0.  1.
        -13    1    6    6    0    0 -0.46246015963E+01  0.75194851530E+01 -0.33001015929E+01  0.94250354065E+01  0.10500000000E+00 0. -1.
         13    1    6    6    0    0 -0.86889472733E+01  0.14300105278E+02 -0.63980079749E+01  0.17914696390E+02  0.10500000000E+00 0.  1.
</event>
<event>
11    0  0.3515428E-009  0.9118800E+02  0.7816531E-02  0.1126479E+00
         25   -1    0    0    0    0  0.00000000000E+00  0.00000000000E+00  0.99999998245E-14  0.12500000000E+03  0.12500000000E+03 0.  0.
    3000001    1    3    3    0    0  0.50464046702E+00 -0.20455817768E+00  0.68203288748E+01  0.69147228440E+01  0.10000000000E+01 0.  1.
    1000022    2    1    0    0    0  0.89915286990E+01  0.24217029041E+02  0.56026219024E+02  0.62500002466E+02  0.10000050313E+02 0.  0.
    3000022    2    3    3    0    0  0.84868882320E+01  0.24421587219E+02  0.49205890149E+02  0.55585279622E+02  0.24998237006E+00 0.  0.
    1000022    2    1    0    0    0 -0.89915286990E+01 -0.24217029041E+02 -0.56026219024E+02  0.62499997534E+02  0.10000019485E+02 0.  0.
    3000022    2    5    5    0    0 -0.50484354037E+01 -0.62660233404E+01 -0.94236479640E+01  0.12394247167E+02  0.24994673349E+00 0.  0.
        -13    1    4    4    0    0  0.37978122128E+01  0.10734441952E+02  0.21632268282E+02  0.24446220109E+02  0.10500000000E+00 0. -1.
         13    1    4    4    0    0  0.46890760192E+01  0.13687145267E+02  0.27573621867E+02  0.31139059513E+02  0.10500000000E+00 0.  1.
    3000001    1    5    5    0    0 -0.39430932953E+01 -0.17951005701E+02 -0.46602571060E+02  0.50105750366E+02  0.10000000000E+01 0. -1.
        -13    1    6    6    0    0 -0.35356349819E+01 -0.44577254690E+01 -0.66686780847E+01  0.87666597675E+01  0.10500000000E+00 0.  1.
         13    1    6    6    0    0 -0.15128004218E+01 -0.18082978713E+01 -0.27549698793E+01  0.36275873998E+01  0.10500000000E+00 0. -1.
</event>
<event>
11    0  0.3515428E-009  0.9118800E+02  0.7816531E-02  0.1126479E+00
         25   -1    0    0    0    0  0.00000000000E+00  0.00000000000E+00  0.99999998245E-14  0.12500000000E+03  0.12500000000E+03 0.  0.
    3000001    1    3    3    0    0 -0.12573295124E+02 -0.37989018473E+02  0.28291007022E+02  0.49016674236E+02  0.10000000000E+01 0.  1.
    1000022    2    1    0    0    0 -0.11285184848E+02 -0.47349924174E+02  0.37906189624E+02  0.62499998004E+02  0.99999911176E+01 0.  0.
    3000022    2    3    3    0    0  0.12881102760E+01 -0.93609057011E+01  0.96151826024E+01  0.13483323768E+02  0.24999948207E+00 0.  0.
    1000022    2    1    0    0    0  0.11285184848E+02  0.47349924174E+02 -0.37906189624E+02  0.62500001996E+02  0.10000016065E+02 0.  0.
    3000022    2    5    5    0    0  0.54054820274E+01  0.11939250154E+02 -0.14935872580E+02  0.19872285602E+02  0.25003027020E+00 0.  0.
        -13    1    4    4    0    0  0.62234562272E+00 -0.49618147237E+01  0.51322887581E+01  0.71664727951E+01  0.10500000000E+00 0. -1.
         13    1    4    4    0    0  0.66576465331E+00 -0.43990909774E+01  0.44828938443E+01  0.63168509734E+01  0.10500000000E+00 0.  1.
    3000001    1    5    5    0    0  0.58797028209E+01  0.35410674020E+02 -0.22970317044E+02  0.42627716394E+02  0.10000000000E+01 0.  1.
        -13    1    6    6    0    0  0.13117329862E+01  0.28516037779E+01 -0.35827886206E+01  0.47644188347E+01  0.10500000000E+00 0.  1.
         13    1    6    6    0    0  0.40937490413E+01  0.90876463757E+01 -0.11353083960E+02  0.15107866767E+02  0.10500000000E+00 0. -1.
</event>
<event>
11    0  0.3515428E-009  0.9118800E+02  0.7816531E-02  0.1126479E+00
         25   -1    0    0    0    0  0.00000000000E+00  0.00000000000E+00  0.99999998245E-14  0.12500000000E+03  0.12500000000E+03 0.  0.
    3000001    1    3    3    0    0  0.97401028850E+01 -0.34044437387E+02 -0.25120158190E+02  0.43427130560E+02  0.10000000000E+01 0.  1.
    1000022    2    1    0    0    0  0.15788456465E+02 -0.51377133086E+02 -0.30288031857E+02  0.62499999722E+02  0.99999964946E+01 0.  0.
    3000022    2    3    3    0    0  0.60483535800E+01 -0.17332695699E+02 -0.51678736668E+01  0.19072869162E+02  0.24999725882E+00 0.  0.
    1000022    2    1    0    0    0 -0.15788456465E+02  0.51377133086E+02  0.30288031857E+02  0.62500000278E+02  0.99999999637E+01 0.  0.
    3000022    2    5    5    0    0 -0.60218228496E+01  0.25882379547E+02  0.20186929380E+02  0.33372661549E+02  0.24999919771E+00 0.  0.
        -13    1    4    4    0    0  0.16422707735E+01 -0.46735433910E+01 -0.14303189388E+01  0.51571211337E+01  0.10500000000E+00 0.  1.
         13    1    4    4    0    0  0.44060828065E+01 -0.12659152308E+02 -0.37375547280E+01  0.13915748028E+02  0.10500000000E+00 0. -1.
    3000001    1    5    5    0    0 -0.97666336154E+01  0.25494753539E+02  0.10101102477E+02  0.29127338729E+02  0.10000000000E+01 0.  1.
        -13    1    6    6    0    0 -0.22696757477E+01  0.99834615631E+01  0.77359331338E+01  0.12832638826E+02  0.10500000000E+00 0.  1.
         13    1    6    6    0    0 -0.37521471019E+01  0.15898917984E+02  0.12450996246E+02  0.20540022723E+02  0.10500000000E+00 0. -1.
</event>
<event>
11    0  0.3515428E-009  0.9118800E+02  0.7816531E-02  0.1126479E+00
         25   -1    0    0    0    0  0.00000000000E+00  0.00000000000E+00  0.99999998245E-14  0.12500000000E+03  0.12500000000E+03 0.  0.
    3000001    1    3    3    0    0 -0.14375891051E+01  0.19310209065E+02  0.85548139479E+01  0.21192821385E+02  0.10000000000E+01 0. -1.
    1000022    2    1    0    0    0  0.62514723790E+01  0.51999675547E+02  0.32606791553E+02  0.62500000079E+02  0.99999995321E+01 0.  0.
    3000022    2    3    3    0    0  0.76890614841E+01  0.32689466482E+02  0.24051977605E+02  0.41307178695E+02  0.24999919914E+00 0.  0.
    1000022    2    1    0    0    0 -0.62514723790E+01 -0.51999675547E+02 -0.32606791553E+02  0.62499999921E+02  0.99999985411E+01 0.  0.
    3000022    2    5    5    0    0 -0.33020654504E+01 -0.86235373520E+01 -0.95155302167E+01  0.13261857023E+02  0.25000737659E+00 0.  0.
        -13    1    4    4    0    0  0.35477501705E+01  0.15375695825E+02  0.11292907718E+02  0.19404621695E+02  0.10500000000E+00 0. -1.
         13    1    4    4    0    0  0.41413113135E+01  0.17313770657E+02  0.12759069887E+02  0.21902557000E+02  0.10500000000E+00 0.  1.
    3000001    1    5    5    0    0 -0.29494069286E+01 -0.43376138195E+02 -0.23091261336E+02  0.49238142898E+02  0.10000000000E+01 0. -1.
        -13    1    6    6    0    0 -0.23528141357E+01 -0.61290421810E+01 -0.67029740705E+01  0.93830580731E+01  0.10500000000E+00 0. -1.
         13    1    6    6    0    0 -0.94925131468E+00 -0.24944951709E+01 -0.28125561462E+01  0.38787989496E+01  0.10500000000E+00 0.  1.
</event>
<event>
11    0  0.3515428E-009  0.9118800E+02  0.7816531E-02  0.1126479E+00
         25   -1    0    0    0    0  0.00000000000E+00  0.00000000000E+00  0.99999998245E-14  0.12500000000E+03  0.12500000000E+03 0.  0.
    3000001    1    3    3    0    0  0.49299705418E+02  0.16423279691E+02 -0.76654213934E+01  0.52535166843E+02  0.10000000000E+01 0.  1.
    1000022    2    1    0    0    0  0.58547823782E+02  0.15820715277E+02 -0.11318446261E+02  0.62499998455E+02  0.99999939809E+01 0.  0.
    3000022    2    3    3    0    0  0.92481183637E+01 -0.60256441394E+00 -0.36530248676E+01  0.99648316114E+01  0.25000243709E+00 0.  0.
    1000022    2    1    0    0    0 -0.58547823782E+02 -0.15820715277E+02  0.11318446261E+02  0.62500001545E+02  0.10000013297E+02 0.  0.
    3000022    2    5    5    0    0 -0.54686907672E+02 -0.17065751462E+02  0.10573302895E+02  0.58255943706E+02  0.24999853735E+00 0.  0.
        -13    1    4    4    0    0  0.22546735274E+01 -0.15121804861E+00 -0.91501766504E+00  0.24402257971E+01  0.10500000000E+00 0.  1.
         13    1    4    4    0    0  0.69934448363E+01 -0.45134636533E+00 -0.27380072026E+01  0.75246058143E+01  0.10500000000E+00 0. -1.
    3000001    1    5    5    0    0 -0.38609161096E+01  0.12450361848E+01  0.74514336639E+00  0.42440578393E+01  0.10000000000E+01 0.  1.
        -13    1    6    6    0    0 -0.28398013984E+02 -0.89325164503E+01  0.55008375989E+01  0.30273871369E+02  0.10500000000E+00 0. -1.
         13    1    6    6    0    0 -0.26288893689E+02 -0.81332350113E+01  0.50724652957E+01  0.27982072337E+02  0.10500000000E+00 0.  1.
</event>
<event>
11    0  0.3515428E-009  0.9118800E+02  0.7816531E-02  0.1126479E+00
         25   -1    0    0    0    0  0.00000000000E+00  0.00000000000E+00  0.99999998245E-14  0.12500000000E+03  0.12500000000E+03 0.  0.
    3000001    1    3    3    0    0 -0.66672569331E+01  0.20323210731E+01  0.49644510091E+02  0.50141400321E+02  0.10000000000E+01 0. -1.
    1000022    2    1    0    0    0 -0.40853158368E+01  0.50098565968E+01  0.61355205350E+02  0.62500001443E+02  0.10000024413E+02 0.  0.
    3000022    2    3    3    0    0  0.25819410963E+01  0.29775355237E+01  0.11710695259E+02  0.12358601123E+02  0.25000127021E+00 0.  0.
    1000022    2    1    0    0    0  0.40853158368E+01 -0.50098565968E+01 -0.61355205350E+02  0.62499998557E+02  0.10000006370E+02 0.  0.
    3000022    2    5    5    0    0  0.15772281920E+01  0.30138753467E+01 -0.15652908751E+02  0.16020210558E+02  0.25000116880E+00 0.  0.
        -13    1    4    4    0    0  0.17577269082E+01  0.19531432791E+01  0.78706072296E+01  0.82983043880E+01  0.10500000000E+00 0.  1.
         13    1    4    4    0    0  0.82421418812E+00  0.10243922446E+01  0.38400880297E+01  0.40602967348E+01  0.10500000000E+00 0. -1.
    3000001    1    5    5    0    0  0.25080876448E+01 -0.80237319434E+01 -0.45702296599E+02  0.46479787999E+02  0.10000000000E+01 0. -1.
        -13    1    6    6    0    0  0.89883303575E+00  0.16192583120E+01 -0.82856770242E+01  0.84907812984E+01  0.10500000000E+00 0. -1.
         13    1    6    6    0    0  0.67839515628E+00  0.13946170346E+01 -0.73672317265E+01  0.75294292595E+01  0.10500000000E+00 0.  1.
</event>
<event>
11    0  0.3515428E-009  0.9118800E+02  0.7816531E-02  0.1126479E+00
         25   -1    0    0    0    0  0.00000000000E+00  0.00000000000E+00  0.99999998245E-14  0.12500000000E+03  0.12500000000E+03 0.  0.
    3000001    1    3    3    0    0  0.15701508389E+02  0.18386228301E+02 -0.41672477502E+00  0.24202570450E+02  0.10000000000E+01 0. -1.
    1000022    2    1    0    0    0  0.34433296665E+02  0.49857924052E+02 -0.11609720379E+02  0.62500001448E+02  0.10000003183E+02 0.  0.
    3000022    2    3    3    0    0  0.18731788275E+02  0.31471695751E+02 -0.11192995604E+02  0.38297430998E+02  0.25008996665E+00 0.  0.
    1000022    2    1    0    0    0 -0.34433296665E+02 -0.49857924052E+02  0.11609720379E+02  0.62499998552E+02  0.99999850888E+01 0.  0.
    3000022    2    5    5    0    0 -0.25540445789E+02 -0.42288866237E+02  0.11736621000E+02  0.50778670271E+02  0.25000656745E+00 0.  0.
        -13    1    4    4    0    0  0.67767290626E+01  0.11275514946E+02 -0.40059541164E+01  0.13752090295E+02  0.10500000000E+00 0.  1.
         13    1    4    4    0    0  0.11955059213E+02  0.20196180805E+02 -0.71870414874E+01  0.24545340703E+02  0.10500000000E+00 0. -1.
    3000001    1    5    5    0    0 -0.88928508758E+01 -0.75690578150E+01 -0.12690062156E+00  0.11721328281E+02  0.10000000000E+01 0.  1.
        -13    1    6    6    0    0 -0.14567571578E+02 -0.24245989581E+02  0.67275309550E+01  0.29074952282E+02  0.10500000000E+00 0.  1.
         13    1    6    6    0    0 -0.10972874211E+02 -0.18042876657E+02  0.50090900453E+01  0.21703717990E+02  0.10500000000E+00 0. -1.
</event>
<event>
11    0  0.3515428E-009  0.9118800E+02  0.7816531E-02  0.1126479E+00
         25   -1    0    0    0    0  0.00000000000E+00  0.00000000000E+00  0.99999998245E-14  0.12500000000E+03  0.12500000000E+03 0.  0.
    3000001    1    3    3    0    0  0.12130081662E+02 -0.84268825547E+01 -0.17778272040E+02  0.23134783065E+02  0.10000000000E+01 0.  1.
    1000022    2    1    0    0    0  0.33181089994E+02 -0.32976878014E+02 -0.40221769704E+02  0.62500000210E+02  0.10000002572E+02 0.  0.
    3000022    2    3    3    0    0  0.21051008332E+02 -0.24549995459E+02 -0.22443497664E+02  0.39365217145E+02  0.25000939587E+00 0.  0.
    1000022    2    1    0    0    0 -0.33181089994E+02  0.32976878014E+02  0.40221769704E+02  0.62499999790E+02  0.99999999437E+01 0.  0.
    3000022    2    5    5    0    0 -0.29496807401E+02  0.30984222987E+02  0.39309583349E+02  0.58098102900E+02  0.24999313969E+00 0.  0.
        -13    1    4    4    0    0  0.58797683628E+01 -0.68108075886E+01 -0.62143165736E+01  0.10935608419E+02  0.10500000000E+00 0.  1.
         13    1    4    4    0    0  0.15171239969E+02 -0.17739187870E+02 -0.16229181090E+02  0.28429608727E+02  0.10500000000E+00 0. -1.
    3000001    1    5    5    0    0 -0.36842825933E+01  0.19926550262E+01  0.91218635548E+00  0.44018968897E+01  0.10000000000E+01 0.  1.
        -13    1    6    6    0    0 -0.22170290032E+02  0.23278461001E+02  0.29572204116E+02  0.43679912866E+02  0.10500000000E+00 0. -1.
         13    1    6    6    0    0 -0.73265173686E+01  0.77057619861E+01  0.97373792330E+01  0.14418190034E+02  0.10500000000E+00 0.  1.
</event>
<event>
11    0  0.3515428E-009  0.9118800E+02  0.7816531E-02  0.1126479E+00
         25   -1    0    0    0    0  0.00000000000E+00  0.00000000000E+00  0.99999998245E-14  0.12500000000E+03  0.12500000000E+03 0.  0.
    3000001    1    3    3    0    0 -0.36522266407E+02 -0.16357118600E+02 -0.26027488099E+02  0.47747894290E+02  0.10000000000E+01 0.  1.
    1000022    2    1    0    0    0 -0.50353526220E+02 -0.17604486667E+02 -0.30997668605E+02  0.62500008787E+02  0.10000004293E+02 0.  0.
    3000022    2    3    3    0    0 -0.13831259813E+02 -0.12473680667E+01 -0.49701805062E+01  0.14752114497E+02  0.25002552276E+00 0.  0.
    1000022    2    1    0    0    0  0.50353526220E+02  0.17604486667E+02  0.30997668605E+02  0.62499991213E+02  0.99998944518E+01 0.  0.
    3000022    2    5    5    0    0  0.49912147568E+02  0.17805707397E+02  0.29552430678E+02  0.60676802368E+02  0.24999172453E+00 0.  0.
        -13    1    4    4    0    0 -0.85968305106E+01 -0.71908711831E+00 -0.31121419477E+01  0.91716429070E+01  0.10500000000E+00 0.  1.
         13    1    4    4    0    0 -0.52344293023E+01 -0.52828094836E+00 -0.18580385585E+01  0.55804715899E+01  0.10500000000E+00 0. -1.
    3000001    1    5    5    0    0  0.44137865158E+00 -0.20122073012E+00  0.14452379273E+01  0.18231888446E+01  0.10000000000E+01 0. -1.
        -13    1    6    6    0    0  0.37535304060E+02  0.13415644582E+02  0.22220072778E+02  0.45635745088E+02  0.10500000000E+00 0. -1.
         13    1    6    6    0    0  0.12376843508E+02  0.43900628148E+01  0.73323578998E+01  0.15041057280E+02  0.10500000000E+00 0.  1.
</event>
<event>
11    0  0.3515428E-009  0.9118800E+02  0.7816531E-02  0.1126479E+00
         25   -1    0    0    0    0  0.00000000000E+00  0.00000000000E+00  0.99999998245E-14  0.12500000000E+03  0.12500000000E+03 0.  0.
    3000001    1    3    3    0    0 -0.15675061569E+02  0.41634902732E+02  0.32058562868E+01  0.44614461727E+02  0.10000000000E+01 0. -1.
    1000022    2    1    0    0    0 -0.18198901550E+02  0.58175953049E+02  0.95188497252E+01  0.62500000590E+02  0.10000002142E+02 0.  0.
    3000022    2    3    3    0    0 -0.25238399812E+01  0.16541050317E+02  0.63129934384E+01  0.17885538863E+02  0.25000080957E+00 0.  0.
    1000022    2    1    0    0    0  0.18198901550E+02 -0.58175953049E+02 -0.95188497252E+01  0.62499999410E+02  0.99999947673E+01 0.  0.
    3000022    2    5    5    0    0  0.13237806366E+02 -0.51723548602E+02 -0.98530904543E+01  0.54292825387E+02  0.24999932768E+00 0.  0.
        -13    1    4    4    0    0 -0.11506555965E+01  0.78715005732E+01  0.30501401622E+01  0.85204993741E+01  0.10500000000E+00 0.  1.
         13    1    4    4    0    0 -0.13731843846E+01  0.86695497441E+01  0.32628532762E+01  0.93650394886E+01  0.10500000000E+00 0. -1.
    3000001    1    5    5    0    0  0.49610951838E+01 -0.64524044472E+01  0.33424072915E+00  0.82071740226E+01  0.10000000000E+01 0.  1.
        -13    1    6    6    0    0  0.53138966359E+01 -0.20956213498E+02 -0.40321673667E+01  0.21992493726E+02  0.10500000000E+00 0.  1.
         13    1    6    6    0    0  0.79239097305E+01 -0.30767335104E+02 -0.58209230877E+01  0.32300331661E+02  0.10500000000E+00 0. -1.
</event>
<event>
11    0  0.3515428E-009  0.9118800E+02  0.7816531E-02  0.1126479E+00
         25   -1    0    0    0    0  0.00000000000E+00  0.00000000000E+00  0.99999998245E-14  0.12500000000E+03  0.12500000000E+03 0.  0.
    3000001    1    3    3    0    0 -0.25574619325E+01  0.14556751957E+02 -0.26670499190E+02  0.30508280288E+02  0.10000000000E+01 0.  1.
    1000022    2    1    0    0    0  0.60375595130E-02  0.36807225621E+02 -0.49512402879E+02  0.62500000781E+02  0.10000008220E+02 0.  0.
    3000022    2    3    3    0    0  0.25634994920E+01  0.22250473664E+02 -0.22841903689E+02  0.31991720493E+02  0.25001610288E+00 0.  0.
    1000022    2    1    0    0    0 -0.60375595130E-02 -0.36807225621E+02  0.49512402879E+02  0.62499999219E+02  0.99999984593E+01 0.  0.
    3000022    2    5    5    0    0  0.27222528821E+01 -0.16117820837E+02  0.15172084131E+02  0.22303574866E+02  0.25001130165E+00 0.  0.
        -13    1    4    4    0    0  0.12339879476E+01  0.11226104057E+02 -0.11469741518E+02  0.16097022521E+02  0.10500000000E+00 0. -1.
         13    1    4    4    0    0  0.13295115444E+01  0.11024369607E+02 -0.11372162170E+02  0.15894697972E+02  0.10500000000E+00 0.  1.
    3000001    1    5    5    0    0 -0.27282904416E+01 -0.20689404784E+02  0.34340318748E+02  0.40196424353E+02  0.10000000000E+01 0.  1.
        -13    1    6    6    0    0  0.63137171938E+00 -0.38064513241E+01  0.35971020355E+01  0.52761605344E+01  0.10500000000E+00 0. -1.
         13    1    6    6    0    0  0.20908811627E+01 -0.12311369512E+02  0.11574982095E+02  0.17027414331E+02  0.10500000000E+00 0.  1.
</event>
<event>
11    0  0.3515428E-009  0.9118800E+02  0.7816531E-02  0.1126479E+00
         25   -1    0    0    0    0  0.00000000000E+00  0.00000000000E+00  0.99999998245E-14  0.12500000000E+03  0.12500000000E+03 0.  0.
    3000001    1    3    3    0    0 -0.45834241555E+01 -0.81998370979E+01 -0.11262820407E+02  0.14700211867E+02  0.10000000000E+01 0.  1.
    1000022    2    1    0    0    0 -0.33879165315E+02 -0.25068099397E+02 -0.45055992887E+02  0.62499999725E+02  0.10000001042E+02 0.  0.
    3000022    2    3    3    0    0 -0.29295741160E+02 -0.16868262299E+02 -0.33793172480E+02  0.47799787859E+02  0.24997992119E+00 0.  0.
    1000022    2    1    0    0    0  0.33879165315E+02  0.25068099397E+02  0.45055992887E+02  0.62500000275E+02  0.10000004473E+02 0.  0.
    3000022    2    5    5    0    0  0.14003919438E+02  0.14178446983E+02  0.26703521297E+02  0.33320844326E+02  0.24999702164E+00 0.  0.
        -13    1    4    4    0    0 -0.19835513384E+02 -0.11383805888E+02 -0.22805056336E+02  0.32297372141E+02  0.10500000000E+00 0.  1.
         13    1    4    4    0    0 -0.94602277752E+01 -0.54844564115E+01 -0.10988116144E+02  0.15502415718E+02  0.10500000000E+00 0. -1.
    3000001    1    5    5    0    0  0.19875245877E+02  0.10889652414E+02  0.18352471590E+02  0.29179155948E+02  0.10000000000E+01 0.  1.
        -13    1    6    6    0    0  0.42084881629E+01  0.43033504772E+01  0.81256703736E+01  0.10112751454E+02  0.10500000000E+00 0.  1.
         13    1    6    6    0    0  0.97954312750E+01  0.98750965055E+01  0.18577850923E+02  0.23208092872E+02  0.10500000000E+00 0. -1.
</event>
<event>
11    0  0.3515428E-009  0.9118800E+02  0.7816531E-02  0.1126479E+00
         25   -1    0    0    0    0  0.00000000000E+00  0.00000000000E+00  0.99999998245E-14  0.12500000000E+03  0.12500000000E+03 0.  0.
    3000001    1    3    3    0    0 -0.70055989386E+01  0.41719605280E+01 -0.23186496955E+02  0.24598725824E+02  0.10000000000E+01 0. -1.
    1000022    2    1    0    0    0 -0.58876508220E+01  0.13244202253E+02 -0.59968130454E+02  0.62499998118E+02  0.99999884558E+01 0.  0.
    3000022    2    3    3    0    0  0.11179481165E+01  0.90722417245E+01 -0.36781633499E+02  0.37901272294E+02  0.25000148056E+00 0.  0.
    1000022    2    1    0    0    0  0.58876508220E+01 -0.13244202253E+02  0.59968130454E+02  0.62500001882E+02  0.10000011984E+02 0.  0.
    3000022    2    5    5    0    0  0.15474056219E+01 -0.12561526418E+02  0.49697451550E+02  0.51284360134E+02  0.24998729350E+00 0.  0.
        -13    1    4    4    0    0  0.53580872955E+00  0.39846807781E+01 -0.15975834074E+02  0.16474315502E+02  0.10500000000E+00 0. -1.
         13    1    4    4    0    0  0.58213938700E+00  0.50875609464E+01 -0.20805799425E+02  0.21426956792E+02  0.10500000000E+00 0.  1.
    3000001    1    5    5    0    0  0.43402452001E+01 -0.68267583466E+00  0.10270678904E+02  0.11215641749E+02  0.10000000000E+01 0.  1.
        -13    1    6    6    0    0  0.64680235666E+00 -0.57873070214E+01  0.22921797656E+02  0.23650182000E+02  0.10500000000E+00 0. -1.
         13    1    6    6    0    0  0.90060326526E+00 -0.67742193964E+01  0.26775653894E+02  0.27634178133E+02  0.10500000000E+00 0.  1.
</event>
<event>
11    0  0.3515428E-009  0.9118800E+02  0.7816531E-02  0.1126479E+00
         25   -1    0    0    0    0  0.00000000000E+00  0.00000000000E+00  0.99999998245E-14  0.12500000000E+03  0.12500000000E+03 0.  0.
    3000001    1    3    3    0    0 -0.18768478272E+02 -0.60423713095E+01 -0.19481478967E+01  0.19838379670E+02  0.10000000000E+01 0.  1.
    1000022    2    1    0    0    0 -0.53162370383E+02 -0.26188130221E+02 -0.17152095306E+02  0.62500001026E+02  0.99999982854E+01 0.  0.
    3000022    2    3    3    0    0 -0.34393892111E+02 -0.20145758911E+02 -0.15203947409E+02  0.42661621357E+02  0.25000661165E+00 0.  0.
    1000022    2    1    0    0    0  0.53162370383E+02  0.26188130221E+02  0.17152095306E+02  0.62499998974E+02  0.99999854563E+01 0.  0.
    3000022    2    5    5    0    0  0.85978467724E+01  0.30203666226E+01 -0.80118368111E+00  0.91515007646E+01  0.24997459110E+00 0.  0.
        -13    1    4    4    0    0 -0.10302680735E+02 -0.60810597321E+01 -0.45873601170E+01  0.12813251564E+02  0.10500000000E+00 0.  1.
         13    1    4    4    0    0 -0.24091211376E+02 -0.14064699179E+02 -0.10616587292E+02  0.29848369793E+02  0.10500000000E+00 0. -1.
    3000001    1    5    5    0    0  0.44564523611E+02  0.23167763598E+02  0.17953278987E+02  0.53348498209E+02  0.10000000000E+01 0.  1.
        -13    1    6    6    0    0  0.62288529316E+01  0.21698631911E+01 -0.61412278334E+00  0.66253367390E+01  0.10500000000E+00 0. -1.
         13    1    6    6    0    0  0.23689938408E+01  0.85050343144E+00 -0.18706089777E+00  0.25261640256E+01  0.10500000000E+00 0.  1.
</event>
<event>
11    0  0.3515428E-009  0.9118800E+02  0.7816531E-02  0.1126479E+00
         25   -1    0    0    0    0  0.00000000000E+00  0.00000000000E+00  0.99999998245E-14  0.12500000000E+03  0.12500000000E+03 0.  0.
    3000001    1    3    3    0    0  0.16873291164E+02 -0.15834157577E+02 -0.49398398039E+01  0.23681860530E+02  0.10000000000E+01 0.  1.
    1000022    2    1    0    0    0  0.37017081449E+02 -0.43664203760E+02 -0.23009214627E+02  0.62500007856E+02  0.10000000765E+02 0.  0.
    3000022    2    3    3    0    0  0.20143790285E+02 -0.27830046183E+02 -0.18069374823E+02  0.38818147326E+02  0.24999549642E+00 0.  0.
    1000022    2    1    0    0    0 -0.37017081449E+02  0.43664203760E+02  0.23009214627E+02  0.62499992144E+02  0.99999025604E+01 0.  0.
    3000022    2    5    5    0    0 -0.68033321303E+01  0.48692135981E+01  0.42704099274E+00  0.83808968482E+01  0.24999766419E+00 0.  0.
        -13    1    4    4    0    0  0.95879737595E+01 -0.13280895150E+02 -0.85424410063E+01  0.18474191190E+02  0.10500000000E+00 0. -1.
         13    1    4    4    0    0  0.10555816526E+02 -0.14549151033E+02 -0.95269338170E+01  0.20343956136E+02  0.10500000000E+00 0.  1.
    3000001    1    5    5    0    0 -0.30213749319E+02  0.38794990162E+02  0.22582173634E+02  0.54119095295E+02  0.10000000000E+01 0. -1.
        -13    1    6    6    0    0 -0.48306726334E+01  0.34683428714E+01  0.26163720008E+00  0.59535098378E+01  0.10500000000E+00 0. -1.
         13    1    6    6    0    0 -0.19726594969E+01  0.14008707268E+01  0.16540379266E+00  0.24273870104E+01  0.10500000000E+00 0.  1.
</event>
<event>
11    0  0.3515428E-009  0.9118800E+02  0.7816531E-02  0.1126479E+00
         25   -1    0    0    0    0  0.00000000000E+00  0.00000000000E+00  0.99999998245E-14  0.12500000000E+03  0.12500000000E+03 0.  0.
    3000001    1    3    3    0    0  0.21684183777E+02 -0.20763708889E+02  0.48262064752E+01  0.30424130257E+02  0.10000000000E+01 0.  1.
    1000022    2    1    0    0    0  0.46240148490E+02 -0.36684826220E+02  0.17953338050E+02  0.62500000667E+02  0.99999964515E+01 0.  0.
    3000022    2    3    3    0    0  0.24555964713E+02 -0.15921117331E+02  0.13127131575E+02  0.32075870411E+02  0.24999831311E+00 0.  0.
    1000022    2    1    0    0    0 -0.46240148490E+02  0.36684826220E+02 -0.17953338050E+02  0.62499999333E+02  0.99999881123E+01 0.  0.
    3000022    2    5    5    0    0 -0.20456851613E+02  0.22343428558E+02 -0.78066290444E+01  0.31284461721E+02  0.25002094113E+00 0.  0.
        -13    1    4    4    0    0  0.16110945410E+02 -0.10503337281E+02  0.85971517341E+01  0.21066672708E+02  0.10500000000E+00 0.  1.
         13    1    4    4    0    0  0.84450193029E+01 -0.54177800499E+01  0.45299798410E+01  0.11009197703E+02  0.10500000000E+00 0. -1.
    3000001    1    5    5    0    0 -0.25783296877E+02  0.14341397662E+02 -0.10146709006E+02  0.31215537612E+02  0.10000000000E+01 0.  1.
        -13    1    6    6    0    0 -0.63827368484E+01  0.70096582957E+01 -0.23999604929E+01  0.97798504316E+01  0.10500000000E+00 0. -1.
         13    1    6    6    0    0 -0.14074114765E+02  0.15333770263E+02 -0.54066685515E+01  0.21504611289E+02  0.10500000000E+00 0.  1.
</event>
<event>
11    0  0.3515428E-009  0.9118800E+02  0.7816531E-02  0.1126479E+00
         25   -1    0    0    0    0  0.00000000000E+00  0.00000000000E+00  0.99999998245E-14  0.12500000000E+03  0.12500000000E+03 0.  0.
    3000001    1    3    3    0    0 -0.15199306421E+02  0.15579416342E+01  0.53990087557E+02  0.56119298393E+02  0.10000000000E+01 0.  1.
    1000022    2    1    0    0    0 -0.18885774365E+02  0.39706556396E+01  0.58598733400E+02  0.62500000388E+02  0.99999956403E+01 0.  0.
    3000022    2    3    3    0    0 -0.36864679440E+01  0.24127140053E+01  0.46086458435E+01  0.63807019943E+01  0.25001330941E+00 0.  0.
    1000022    2    1    0    0    0  0.18885774365E+02 -0.39706556396E+01 -0.58598733400E+02  0.62499999612E+02  0.99999907947E+01 0.  0.
    3000022    2    5    5    0    0  0.19805997355E+01  0.72066316277E+00 -0.11296139033E+01  0.24043001233E+01  0.25000161148E+00 0.  0.
        -13    1    4    4    0    0 -0.23056307456E+01  0.14845565842E+01  0.29490210232E+01  0.40283484683E+01  0.10500000000E+00 0.  1.
         13    1    4    4    0    0 -0.13808371985E+01  0.92815742112E+00  0.16596248203E+01  0.23523535260E+01  0.10500000000E+00 0. -1.
    3000001    1    5    5    0    0  0.16905174629E+02 -0.46913188023E+01 -0.57469119497E+02  0.60095699489E+02  0.10000000000E+01 0.  1.
        -13    1    6    6    0    0  0.11902374126E+01  0.46035918521E+00 -0.74685396438E+00  0.14823668648E+01  0.10500000000E+00 0. -1.
         13    1    6    6    0    0  0.79036232298E+00  0.26030397757E+00 -0.38275993887E+00  0.92193325850E+00  0.10500000000E+00 0.  1.
</event>
<event>
11    0  0.3515428E-009  0.9118800E+02  0.7816531E-02  0.1126479E+00
         25   -1    0    0    0    0  0.00000000000E+00  0.00000000000E+00  0.99999998245E-14  0.12500000000E+03  0.12500000000E+03 0.  0.
    3000001    1    3    3    0    0  0.27666566213E+02  0.11065832993E+02 -0.38237995209E+01  0.30058492787E+02  0.10000000000E+01 0.  1.
    1000022    2    1    0    0    0  0.53028715270E+02  0.27003424479E+02 -0.16279453451E+02  0.62499997721E+02  0.99999766810E+01 0.  0.
    3000022    2    3    3    0    0  0.25362149057E+02  0.15937591486E+02 -0.12455653930E+02  0.32441504934E+02  0.25000072444E+00 0.  0.
    1000022    2    1    0    0    0 -0.53028715270E+02 -0.27003424479E+02  0.16279453451E+02  0.62500002279E+02  0.10000005174E+02 0.  0.
    3000022    2    5    5    0    0 -0.15458618249E+02 -0.39469518679E+01  0.16372968275E+01  0.16040279185E+02  0.25001642459E+00 0.  0.
        -13    1    4    4    0    0  0.17038902130E+02  0.10760355328E+02 -0.84085336383E+01  0.21836297661E+02  0.10500000000E+00 0. -1.
         13    1    4    4    0    0  0.83232469268E+01  0.51772361589E+01 -0.40471202917E+01  0.10605207273E+02  0.10500000000E+00 0.  1.
    3000001    1    5    5    0    0 -0.37570097021E+02 -0.23056472611E+02  0.14642156623E+02  0.46459723095E+02  0.10000000000E+01 0.  1.
        -13    1    6    6    0    0 -0.11431360852E+02 -0.28963282710E+01  0.12338457246E+01  0.11857408176E+02  0.10500000000E+00 0. -1.
         13    1    6    6    0    0 -0.40272573966E+01 -0.10506235969E+01  0.40345110294E+00  0.41828710084E+01  0.10500000000E+00 0.  1.
</event>
<event>
11    0  0.3515428E-009  0.9118800E+02  0.7816531E-02  0.1126479E+00
         25   -1    0    0    0    0  0.00000000000E+00  0.00000000000E+00  0.99999998245E-14  0.12500000000E+03  0.12500000000E+03 0.  0.
    3000001    1    3    3    0    0  0.15957890331E+02  0.19905653751E+01 -0.97297721957E+01  0.18822462148E+02  0.10000000000E+01 0.  1.
    1000022    2    1    0    0    0  0.52469842068E+02 -0.83229641525E+01 -0.31367083105E+02  0.62499999122E+02  0.99999964420E+01 0.  0.
    3000022    2    3    3    0    0  0.36511951737E+02 -0.10313529528E+02 -0.21637310909E+02  0.43677536975E+02  0.25000359693E+00 0.  0.
    1000022    2    1    0    0    0 -0.52469842068E+02  0.83229641525E+01  0.31367083105E+02  0.62500000878E+02  0.10000007413E+02 0.  0.
    3000022    2    5    5    0    0 -0.40593660363E+02  0.78150434599E+01  0.19625422614E+02  0.45761773181E+02  0.25001197257E+00 0.  0.
        -13    1    4    4    0    0  0.96476637110E+01 -0.27451517680E+01 -0.56888534502E+01  0.11532014216E+02  0.10500000000E+00 0.  1.
         13    1    4    4    0    0  0.26864288026E+02 -0.75683777595E+01 -0.15948457459E+02  0.32145522758E+02  0.10500000000E+00 0. -1.
    3000001    1    5    5    0    0 -0.11876181705E+02  0.50792069260E+00  0.11741660491E+02  0.16738227696E+02  0.10000000000E+01 0. -1.
        -13    1    6    6    0    0 -0.18929058035E+02  0.36858831367E+01  0.92143701643E+01  0.21373128342E+02  0.10500000000E+00 0. -1.
         13    1    6    6    0    0 -0.21664602328E+02  0.41291603232E+01  0.10411052449E+02  0.24388644840E+02  0.10500000000E+00 0.  1.
</event>
<event>
11    0  0.3515428E-009  0.9118800E+02  0.7816531E-02  0.1126479E+00
         25   -1    0    0    0    0  0.00000000000E+00  0.00000000000E+00  0.99999998245E-14  0.12500000000E+03  0.12500000000E+03 0.  0.
    3000001    1    3    3    0    0 -0.21609188082E+02  0.67017065622E+01 -0.21172632709E+01  0.22745388196E+02  0.10000000000E+01 0.  1.
    1000022    2    1    0    0    0 -0.54980356412E+02  0.27922667107E+02  0.19327472136E+01  0.62499999636E+02  0.99999756581E+01 0.  0.
    3000022    2    3    3    0    0 -0.33371168330E+02  0.21220960544E+02  0.40500104844E+01  0.39754611440E+02  0.25000742520E+00 0.  0.
    1000022    2    1    0    0    0  0.54980356412E+02 -0.27922667107E+02 -0.19327472136E+01  0.62500000364E+02  0.99999802079E+01 0.  0.
    3000022    2    5    5    0    0  0.28511417907E+02 -0.17099788858E+02  0.33050911690E+01  0.33410924234E+02  0.25000096792E+00 0.  0.
        -13    1    4    4    0    0 -0.17361939524E+02  0.10976320968E+02  0.21442292913E+01  0.20652489203E+02  0.10500000000E+00 0. -1.
         13    1    4    4    0    0 -0.16009228806E+02  0.10244639577E+02  0.19057811932E+01  0.19102122237E+02  0.10500000000E+00 0.  1.
    3000001    1    5    5    0    0  0.26468938506E+02 -0.10822878249E+02 -0.52378383826E+01  0.29089076130E+02  0.10000000000E+01 0.  1.
        -13    1    6    6    0    0  0.14308167810E+02 -0.85659934594E+01  0.17246997564E+01  0.16765605395E+02  0.10500000000E+00 0.  1.
         13    1    6    6    0    0  0.14203250097E+02 -0.85337953982E+01  0.15803914126E+01  0.16645318838E+02  0.10500000000E+00 0. -1.
</event>
<event>
11    0  0.3515428E-009  0.9118800E+02  0.7816531E-02  0.1126479E+00
         25   -1    0    0    0    0  0.00000000000E+00  0.00000000000E+00  0.99999998245E-14  0.12500000000E+03  0.12500000000E+03 0.  0.
    3000001    1    3    3    0    0  0.92776464103E+01 -0.45373277590E+02 -0.15384648396E+02  0.48810823067E+02  0.10000000000E+01 0. -1.
    1000022    2    1    0    0    0  0.15888324563E+02 -0.55466600973E+02 -0.21846448846E+02  0.62500001595E+02  0.10000009560E+02 0.  0.
    3000022    2    3    3    0    0  0.66106781531E+01 -0.10093323384E+02 -0.64618004500E+01  0.13689178528E+02  0.25000230942E+00 0.  0.
    1000022    2    1    0    0    0 -0.15888324563E+02  0.55466600973E+02  0.21846448846E+02  0.62499998405E+02  0.99999896234E+01 0.  0.
    3000022    2    5    5    0    0 -0.14607655948E+02  0.51144729562E+02  0.22652073782E+02  0.57813025381E+02  0.24996546002E+00 0.  0.
        -13    1    4    4    0    0  0.18919742399E+01 -0.29466598792E+01 -0.19088393389E+01  0.39896194793E+01  0.10500000000E+00 0.  1.
         13    1    4    4    0    0  0.47187039132E+01 -0.71466635043E+01 -0.45529611111E+01  0.96995590489E+01  0.10500000000E+00 0. -1.
    3000001    1    5    5    0    0 -0.12806686152E+01  0.43218714109E+01 -0.80562493555E+00  0.46869730244E+01  0.10000000000E+01 0.  1.
        -13    1    6    6    0    0 -0.53479972636E+01  0.18863112694E+02  0.83004957662E+01  0.21291485392E+02  0.10500000000E+00 0. -1.
         13    1    6    6    0    0 -0.92596586845E+01  0.32281616869E+02  0.14351578016E+02  0.36521539989E+02  0.10500000000E+00 0.  1.
</event>
<event>
11    0  0.3515428E-009  0.9118800E+02  0.7816531E-02  0.1126479E+00
         25   -1    0    0    0    0  0.00000000000E+00  0.00000000000E+00  0.99999998245E-14  0.12500000000E+03  0.12500000000E+03 0.  0.
    3000001    1    3    3    0    0 -0.15430930829E+02 -0.36953806273E+01  0.82492073111E+01  0.17911417741E+02  0.10000000000E+01 0.  1.
    1000022    2    1    0    0    0 -0.43894341599E+02 -0.19019369216E+02  0.38958958637E+02  0.62500000428E+02  0.99999982784E+01 0.  0.
    3000022    2    3    3    0    0 -0.28463410770E+02 -0.15323988589E+02  0.30709751326E+02  0.44588582686E+02  0.25000111114E+00 0.  0.
    1000022    2    1    0    0    0  0.43894341599E+02  0.19019369216E+02 -0.38958958637E+02  0.62499999572E+02  0.99999929320E+01 0.  0.
    3000022    2    5    5    0    0  0.18697183873E+02  0.41066298442E+01 -0.11419140229E+02  0.22291441391E+02  0.25000452903E+00 0.  0.
        -13    1    4    4    0    0 -0.11319965445E+02 -0.61630213995E+01  0.12268591766E+02  0.17794769438E+02  0.10500000000E+00 0. -1.
         13    1    4    4    0    0 -0.17143445325E+02 -0.91609671891E+01  0.18441159560E+02  0.26793813248E+02  0.10500000000E+00 0.  1.
    3000001    1    5    5    0    0  0.25197157726E+02  0.14912739372E+02 -0.27539818409E+02  0.40208558181E+02  0.10000000000E+01 0.  1.
        -13    1    6    6    0    0  0.47715927447E+01  0.10310576757E+01 -0.28845879850E+01  0.56712476665E+01  0.10500000000E+00 0. -1.
         13    1    6    6    0    0  0.13925591128E+02  0.30755721684E+01 -0.85345522437E+01  0.16620193724E+02  0.10500000000E+00 0.  1.
</event>
<event>
11    0  0.3515428E-009  0.9118800E+02  0.7816531E-02  0.1126479E+00
         25   -1    0    0    0    0  0.00000000000E+00  0.00000000000E+00  0.99999998245E-14  0.12500000000E+03  0.12500000000E+03 0.  0.
    3000001    1    3    3    0    0  0.53307447146E+00 -0.15949271133E+01 -0.43757553856E+01  0.47932448387E+01  0.10000000000E+01 0. -1.
    1000022    2    1    0    0    0 -0.25068009622E+02 -0.18038077265E+02 -0.53408544377E+02  0.62500000126E+02  0.10000003276E+02 0.  0.
    3000022    2    3    3    0    0 -0.25601084093E+02 -0.16443150152E+02 -0.49032788991E+02  0.57706755288E+02  0.25003182902E+00 0.  0.
    1000022    2    1    0    0    0  0.25068009622E+02  0.18038077265E+02  0.53408544377E+02  0.62499999874E+02  0.10000001697E+02 0.  0.
    3000022    2    5    5    0    0  0.23901081009E+02  0.13193781305E+02  0.46514647278E+02  0.53935261528E+02  0.24997217357E+00 0.  0.
        -13    1    4    4    0    0 -0.89443949602E+01 -0.57963249196E+01 -0.17245259252E+02  0.20273371093E+02  0.10500000000E+00 0. -1.
         13    1    4    4    0    0 -0.16656689133E+02 -0.10646825232E+02 -0.31787529739E+02  0.37433384195E+02  0.10500000000E+00 0.  1.
    3000001    1    5    5    0    0  0.11669286129E+01  0.48442959598E+01  0.68938970984E+01  0.85647383461E+01  0.10000000000E+01 0.  1.
        -13    1    6    6    0    0  0.12796221988E+02  0.70644307379E+01  0.24770794291E+02  0.28762001905E+02  0.10500000000E+00 0. -1.
         13    1    6    6    0    0  0.11104859021E+02  0.61293505675E+01  0.21743852988E+02  0.25173259622E+02  0.10500000000E+00 0.  1.
</event>
<event>
11    0  0.3515428E-009  0.9118800E+02  0.7816531E-02  0.1126479E+00
         25   -1    0    0    0    0  0.00000000000E+00  0.00000000000E+00  0.99999998245E-14  0.12500000000E+03  0.12500000000E+03 0.  0.
    3000001    1    3    3    0    0  0.34010542787E+02  0.47121818123E+01 -0.85661623339E+01  0.35401988860E+02  0.10000000000E+01 0.  1.
    1000022    2    1    0    0    0  0.57311099154E+02  0.44828933527E+01 -0.22396254263E+02  0.62500004360E+02  0.99999960433E+01 0.  0.
    3000022    2    3    3    0    0  0.23300556367E+02 -0.22928845957E+00 -0.13830091929E+02  0.27098015500E+02  0.25000208819E+00 0.  0.
    1000022    2    1    0    0    0 -0.57311099154E+02 -0.44828933527E+01  0.22396254263E+02  0.62499995640E+02  0.99999415476E+01 0.  0.
    3000022    2    5    5    0    0 -0.52658889630E+02 -0.20992551616E+01  0.22165555240E+02  0.57172894504E+02  0.24999501825E+00 0.  0.
        -13    1    4    4    0    0  0.81885490026E+01 -0.48619534787E-01 -0.49149133910E+01  0.95510259799E+01  0.10500000000E+00 0.  1.
         13    1    4    4    0    0  0.15112007365E+02 -0.18066892478E+00 -0.89151785382E+01  0.17546989520E+02  0.10500000000E+00 0. -1.
    3000001    1    5    5    0    0 -0.46522095240E+01 -0.23836381912E+01  0.23069902305E+00  0.53271011367E+01  0.10000000000E+01 0. -1.
        -13    1    6    6    0    0 -0.20503260684E+02 -0.76791440059E+00  0.85891263021E+01  0.22243145165E+02  0.10500000000E+00 0. -1.
         13    1    6    6    0    0 -0.32155628947E+02 -0.13313407610E+01  0.13576428938E+02  0.34929749339E+02  0.10500000000E+00 0.  1.
</event>
<event>
11    0  0.3515428E-009  0.9118800E+02  0.7816531E-02  0.1126479E+00
         25   -1    0    0    0    0  0.00000000000E+00  0.00000000000E+00  0.99999998245E-14  0.12500000000E+03  0.12500000000E+03 0.  0.
    3000001    1    3    3    0    0  0.29051268947E+02  0.34639617139E+02  0.37707334622E+02  0.58878878958E+02  0.10000000000E+01 0.  1.
    1000022    2    1    0    0    0  0.28572569236E+02  0.36334749191E+02  0.40861283878E+02  0.62500000751E+02  0.99999931070E+01 0.  0.
    3000022    2    3    3    0    0 -0.47869971173E+00  0.16951320520E+01  0.31539492561E+01  0.36211217930E+01  0.25000208391E+00 0.  0.
    1000022    2    1    0    0    0 -0.28572569236E+02 -0.36334749191E+02 -0.40861283878E+02  0.62499999249E+02  0.99999837240E+01 0.  0.
    3000022    2    5    5    0    0 -0.26321483325E+02 -0.27564067162E+02 -0.34274651940E+02  0.51258292470E+02  0.24999666971E+00 0.  0.
        -13    1    4    4    0    0 -0.27613541684E+00  0.87551739502E+00  0.15162612553E+01  0.17756279654E+01  0.10500000000E+00 0. -1.
         13    1    4    4    0    0 -0.20256429489E+00  0.81961465695E+00  0.16376880008E+01  0.18454938276E+01  0.10500000000E+00 0.  1.
    3000001    1    5    5    0    0 -0.22510859104E+01 -0.87706820292E+01 -0.65866319380E+01  0.11241706780E+02  0.10000000000E+01 0. -1.
        -13    1    6    6    0    0 -0.15773794213E+02 -0.16437455136E+02 -0.20447343513E+02  0.30612209932E+02  0.10500000000E+00 0. -1.
         13    1    6    6    0    0 -0.10547689113E+02 -0.11126612026E+02 -0.13827308427E+02  0.20646082537E+02  0.10500000000E+00 0.  1.
</event>
<event>
11    0  0.3515428E-009  0.9118800E+02  0.7816531E-02  0.1126479E+00
         25   -1    0    0    0    0  0.00000000000E+00  0.00000000000E+00  0.99999998245E-14  0.12500000000E+03  0.12500000000E+03 0.  0.
    3000001    1    3    3    0    0  0.17171755679E+02 -0.24366461556E+02 -0.61184883270E+01  0.30447159823E+02  0.10000000000E+01 0.  1.
    1000022    2    1    0    0    0  0.31284440015E+02 -0.48510000037E+02 -0.21778742488E+02  0.62499997053E+02  0.99999858340E+01 0.  0.
    3000022    2    3    3    0    0  0.14112684336E+02 -0.24143538480E+02 -0.15660254161E+02  0.32052837230E+02  0.25000921135E+00 0.  0.
    1000022    2    1    0    0    0 -0.31284440015E+02  0.48510000037E+02  0.21778742488E+02  0.62500002947E+02  0.10000022667E+02 0.  0.
    3000022    2    5    5    0    0 -0.18119390752E+02  0.20590242198E+02  0.72590516772E+01  0.28372992807E+02  0.24998907091E+00 0.  0.
        -13    1    4    4    0    0  0.54844088722E+01 -0.95045639795E+01 -0.61342903293E+01  0.12572033247E+02  0.10500000000E+00 0. -1.
         13    1    4    4    0    0  0.86282754641E+01 -0.14638974501E+02 -0.95259638315E+01  0.19480803984E+02  0.10500000000E+00 0.  1.
    3000001    1    5    5    0    0 -0.13165049263E+02  0.27919757839E+02  0.14519690811E+02  0.34127010140E+02  0.10000000000E+01 0. -1.
        -13    1    6    6    0    0 -0.86203497862E+01  0.98970253841E+01  0.34841533414E+01  0.13579833997E+02  0.10500000000E+00 0.  1.
         13    1    6    6    0    0 -0.94990409662E+01  0.10693216814E+02  0.37748983357E+01  0.14793158809E+02  0.10500000000E+00 0. -1.
</event>
<event>
11    0  0.3515428E-009  0.9118800E+02  0.7816531E-02  0.1126479E+00
         25   -1    0    0    0    0  0.00000000000E+00  0.00000000000E+00  0.99999998245E-14  0.12500000000E+03  0.12500000000E+03 0.  0.
    3000001    1    3    3    0    0 -0.21742075131E+01 -0.13876108828E+01 -0.84603417706E+00  0.28928214775E+01  0.10000000000E+01 0.  1.
    1000022    2    1    0    0    0 -0.29854236722E+02 -0.53100496358E+02  0.97627688297E+01  0.62500000098E+02  0.10000009669E+02 0.  0.
    3000022    2    3    3    0    0 -0.27680029209E+02 -0.51712885475E+02  0.10608803007E+02  0.59607178621E+02  0.25000151625E+00 0.  0.
    1000022    2    1    0    0    0  0.29854236722E+02  0.53100496358E+02 -0.97627688297E+01  0.62499999902E+02  0.10000008439E+02 0.  0.
    3000022    2    5    5    0    0  0.47530446253E+01  0.16749966287E+02 -0.91879013366E+00  0.17437300912E+02  0.24996788044E+00 0.  0.
        -13    1    4    4    0    0 -0.15724624577E+02 -0.29483700539E+02  0.60008096058E+01  0.33949567840E+02  0.10500000000E+00 0.  1.
         13    1    4    4    0    0 -0.11955404632E+02 -0.22229184935E+02  0.46079934010E+01  0.25657610781E+02  0.10500000000E+00 0. -1.
    3000001    1    5    5    0    0  0.25101192097E+02  0.36350530071E+02 -0.88439786960E+01  0.45062698990E+02  0.10000000000E+01 0. -1.
        -13    1    6    6    0    0  0.26289640976E+01  0.92090799696E+01 -0.57033883231E+00  0.95945253919E+01  0.10500000000E+00 0. -1.
         13    1    6    6    0    0  0.21240805277E+01  0.75408863175E+01 -0.34845130135E+00  0.78427755196E+01  0.10500000000E+00 0.  1.
</event>
<event>
11    0  0.3515428E-009  0.9118800E+02  0.7816531E-02  0.1126479E+00
         25   -1    0    0    0    0  0.00000000000E+00  0.00000000000E+00  0.99999998245E-14  0.12500000000E+03  0.12500000000E+03 0.  0.
    3000001    1    3    3    0    0  0.63559508581E+01  0.50893841858E+00  0.18799400280E+02  0.19876483102E+02  0.10000000000E+01 0. -1.
    1000022    2    1    0    0    0  0.22436013006E+02  0.15300148476E+02  0.55396577938E+02  0.62500000113E+02  0.99999971951E+01 0.  0.
    3000022    2    3    3    0    0  0.16080062148E+02  0.14791210057E+02  0.36597177658E+02  0.42623517011E+02  0.24999241215E+00 0.  0.
    1000022    2    1    0    0    0 -0.22436013006E+02 -0.15300148476E+02 -0.55396577938E+02  0.62499999887E+02  0.99999957832E+01 0.  0.
    3000022    2    5    5    0    0 -0.21494025390E+02 -0.15459832974E+02 -0.55031052068E+02  0.61069458392E+02  0.24998703296E+00 0.  0.
        -13    1    4    4    0    0  0.36803565435E+01  0.33829835550E+01  0.83741758150E+01  0.97533300775E+01  0.10500000000E+00 0. -1.
         13    1    4    4    0    0  0.12399705605E+02  0.11408226502E+02  0.28223001843E+02  0.32870186933E+02  0.10500000000E+00 0.  1.
    3000001    1    5    5    0    0 -0.94198761588E+00  0.15968449844E+00 -0.36552586989E+00  0.14305414951E+01  0.10000000000E+01 0.  1.
        -13    1    6    6    0    0 -0.10058134776E+02 -0.71642543191E+01 -0.25749370593E+02  0.28557551121E+02  0.10500000000E+00 0. -1.
         13    1    6    6    0    0 -0.11435890614E+02 -0.82955786550E+01 -0.29281681475E+02  0.32511907271E+02  0.10500000000E+00 0.  1.
</event>
<event>
11    0  0.3515428E-009  0.9118800E+02  0.7816531E-02  0.1126479E+00
         25   -1    0    0    0    0  0.00000000000E+00  0.00000000000E+00  0.99999998245E-14  0.12500000000E+03  0.12500000000E+03 0.  0.
    3000001    1    3    3    0    0  0.11497224077E+02 -0.49091897876E+01  0.77087017505E+01  0.14721086526E+02  0.10000000000E+01 0. -1.
    1000022    2    1    0    0    0  0.56357460449E+02 -0.75663332080E+01  0.23934015470E+02  0.62499999472E+02  0.10000004554E+02 0.  0.
    3000022    2    3    3    0    0  0.44860236372E+02 -0.26571434204E+01  0.16225313719E+02  0.47778912946E+02  0.24999697585E+00 0.  0.
    1000022    2    1    0    0    0 -0.56357460449E+02  0.75663332080E+01 -0.23934015470E+02  0.62500000528E+02  0.10000011151E+02 0.  0.
    3000022    2    5    5    0    0 -0.43630226419E+02  0.70229775672E+01 -0.22646509168E+02  0.49657282985E+02  0.25000941972E+00 0.  0.
        -13    1    4    4    0    0  0.11966111594E+02 -0.68326033209E+00  0.43026192930E+01  0.12734921639E+02  0.10500000000E+00 0. -1.
         13    1    4    4    0    0  0.32894124778E+02 -0.19738830883E+01  0.11922694426E+02  0.35043991307E+02  0.10500000000E+00 0.  1.
    3000001    1    5    5    0    0 -0.12727234029E+02  0.54335564079E+00 -0.12875063021E+01  0.12842717542E+02  0.10000000000E+01 0. -1.
        -13    1    6    6    0    0 -0.11394429634E+02  0.18616780243E+01 -0.59361598753E+01  0.12982599540E+02  0.10500000000E+00 0.  1.
         13    1    6    6    0    0 -0.32235796786E+02  0.51612995428E+01 -0.16710349292E+02  0.36674683446E+02  0.10500000000E+00 0. -1.
</event>
<event>
11    0  0.3515428E-009  0.9118800E+02  0.7816531E-02  0.1126479E+00
         25   -1    0    0    0    0  0.00000000000E+00  0.00000000000E+00  0.99999998245E-14  0.12500000000E+03  0.12500000000E+03 0.  0.
    3000001    1    3    3    0    0  0.73912705851E+01 -0.24963965446E+01 -0.22488644525E+02  0.23824399450E+02  0.10000000000E+01 0. -1.
    1000022    2    1    0    0    0  0.16405651050E+02  0.56561591316E+01 -0.59203989288E+02  0.62500002328E+02  0.10000021041E+02 0.  0.
    3000022    2    3    3    0    0  0.90143804653E+01  0.81525556762E+01 -0.36715344763E+02  0.38675602877E+02  0.24999533871E+00 0.  0.
    1000022    2    1    0    0    0 -0.16405651050E+02 -0.56561591316E+01  0.59203989288E+02  0.62499997672E+02  0.99999919451E+01 0.  0.
    3000022    2    5    5    0    0 -0.91888108723E+01 -0.25624492816E+01  0.46963400122E+02  0.47923103424E+02  0.24999839881E+00 0.  0.
        -13    1    4    4    0    0  0.57617729764E+01  0.52280879068E+01 -0.23680442505E+02  0.24925996734E+02  0.10500000000E+00 0.  1.
         13    1    4    4    0    0  0.32526074888E+01  0.29244677694E+01 -0.13034902258E+02  0.13749606143E+02  0.10500000000E+00 0. -1.
    3000001    1    5    5    0    0 -0.72168401781E+01 -0.30937098500E+01  0.12240589166E+02  0.14576894248E+02  0.10000000000E+01 0.  1.
        -13    1    6    6    0    0 -0.67445102390E+01 -0.18953698416E+01  0.34325889597E+02  0.35033677609E+02  0.10500000000E+00 0. -1.
         13    1    6    6    0    0 -0.24443006333E+01 -0.66707944001E+00  0.12637510526E+02  0.12889425815E+02  0.10500000000E+00 0.  1.
</event>
<event>
11    0  0.3515428E-009  0.9118800E+02  0.7816531E-02  0.1126479E+00
         25   -1    0    0    0    0  0.00000000000E+00  0.00000000000E+00  0.99999998245E-14  0.12500000000E+03  0.12500000000E+03 0.  0.
    3000001    1    3    3    0    0 -0.10326262615E+02  0.93738398006E+00  0.15594228621E+01  0.10532909759E+02  0.10000000000E+01 0.  1.
    1000022    2    1    0    0    0 -0.54782169813E+02  0.25981617480E+02  0.11407004505E+02  0.62500002239E+02  0.99999975898E+01 0.  0.
    3000022    2    3    3    0    0 -0.44455907198E+02  0.25044233500E+02  0.98475816425E+01  0.51967092480E+02  0.25004049611E+00 0.  0.
    1000022    2    1    0    0    0  0.54782169813E+02 -0.25981617480E+02 -0.11407004505E+02  0.62499997761E+02  0.99999696046E+01 0.  0.
    3000022    2    5    5    0    0  0.48635446196E+02 -0.25832529407E+02 -0.11550513609E+02  0.56269024054E+02  0.25000219694E+00 0.  0.
        -13    1    4    4    0    0 -0.25309785280E+02  0.14250668722E+02  0.56722061352E+01  0.29594792403E+02  0.10500000000E+00 0. -1.
         13    1    4    4    0    0 -0.19146121918E+02  0.10793564777E+02  0.41753755073E+01  0.22372300077E+02  0.10500000000E+00 0.  1.
    3000001    1    5    5    0    0  0.61467236168E+01 -0.14908807273E+00  0.14350910463E+00  0.62309737070E+01  0.10000000000E+01 0.  1.
        -13    1    6    6    0    0  0.15305863235E+02 -0.80752243648E+01 -0.36179082413E+01  0.17679903364E+02  0.10500000000E+00 0.  1.
         13    1    6    6    0    0  0.33329582961E+02 -0.17757305042E+02 -0.79326053680E+01  0.38589120690E+02  0.10500000000E+00 0. -1.
</event>
<event>
11    0  0.3515428E-009  0.9118800E+02  0.7816531E-02  0.1126479E+00
         25   -1    0    0    0    0  0.00000000000E+00  0.00000000000E+00  0.99999998245E-14  0.12500000000E+03  0.12500000000E+03 0.  0.
    3000001    1    3    3    0    0  0.16336647985E+02 -0.88837390506E+01  0.12877315021E+02  0.22641380900E+02  0.10000000000E+01 0. -1.
    1000022    2    1    0    0    0  0.38541432290E+02 -0.17903347801E+02  0.44724469659E+02  0.62500000416E+02  0.10000000013E+02 0.  0.
    3000022    2    3    3    0    0  0.22204784304E+02 -0.90196087504E+01  0.31847154638E+02  0.39858619516E+02  0.25000627317E+00 0.  0.
    1000022    2    1    0    0    0 -0.38541432290E+02  0.17903347801E+02 -0.44724469659E+02  0.62499999584E+02  0.99999948162E+01 0.  0.
    3000022    2    5    5    0    0 -0.32828018128E+02  0.11201249479E+02 -0.33797258996E+02  0.48429990480E+02  0.24999637903E+00 0.  0.
        -13    1    4    4    0    0  0.66246657237E+01 -0.27324169937E+01  0.94821253554E+01  0.11885875013E+02  0.10500000000E+00 0. -1.
         13    1    4    4    0    0  0.15580118581E+02 -0.62871917567E+01  0.22365029283E+02  0.27972744503E+02  0.10500000000E+00 0.  1.
    3000001    1    5    5    0    0 -0.57134141612E+01  0.67020983223E+01 -0.10927210663E+02  0.14070009104E+02  0.10000000000E+01 0.  1.
        -13    1    6    6    0    0 -0.10914956869E+02  0.36883902811E+01 -0.11168915801E+02  0.16046688490E+02  0.10500000000E+00 0. -1.
         13    1    6    6    0    0 -0.21913061259E+02  0.75128591977E+01 -0.22628343195E+02  0.32383301991E+02  0.10500000000E+00 0.  1.
</event>
<event>
11    0  0.3515428E-009  0.9118800E+02  0.7816531E-02  0.1126479E+00
         25   -1    0    0    0    0  0.00000000000E+00  0.00000000000E+00  0.99999998245E-14  0.12500000000E+03  0.12500000000E+03 0.  0.
    3000001    1    3    3    0    0 -0.42057586524E+02 -0.73980550055E+01 -0.22900199224E+02  0.48466389659E+02  0.10000000000E+01 0.  1.
    1000022    2    1    0    0    0 -0.55325278525E+02 -0.50679283557E+01 -0.26826846899E+02  0.62499999550E+02  0.99999943775E+01 0.  0.
    3000022    2    3    3    0    0 -0.13267692001E+02  0.23301266497E+01 -0.39266476756E+01  0.14033609891E+02  0.25000675954E+00 0.  0.
    1000022    2    1    0    0    0  0.55325278525E+02  0.50679283557E+01  0.26826846899E+02  0.62500000450E+02  0.10000000002E+02 0.  0.
    3000022    2    5    5    0    0  0.37107737384E+02  0.59980275113E+00  0.21850140783E+02  0.43067796370E+02  0.24998968403E+00 0.  0.
        -13    1    4    4    0    0 -0.51053445252E+01  0.95818261615E+00 -0.15249659276E+01  0.54147209279E+01  0.10500000000E+00 0. -1.
         13    1    4    4    0    0 -0.81623474755E+01  0.13719440336E+01 -0.24016817481E+01  0.86188889632E+01  0.10500000000E+00 0.  1.
    3000001    1    5    5    0    0  0.18217541141E+02  0.44681256046E+01  0.49767061160E+01  0.19432204080E+02  0.10000000000E+01 0. -1.
        -13    1    6    6    0    0  0.94598549470E+01  0.17957081200E+00  0.55842275023E+01  0.10987070724E+02  0.10500000000E+00 0.  1.
         13    1    6    6    0    0  0.27647882437E+02  0.42023193913E+00  0.16265913281E+02  0.32080725646E+02  0.10500000000E+00 0. -1.
</event>
<event>
11    0  0.3515428E-009  0.9118800E+02  0.7816531E-02  0.1126479E+00
         25   -1    0    0    0    0  0.00000000000E+00  0.00000000000E+00  0.99999998245E-14  0.12500000000E+03  0.12500000000E+03 0.  0.
    3000001    1    3    3    0    0 -0.28133984679E+02 -0.27673868351E+01 -0.77484496909E+01  0.29329473170E+02  0.10000000000E+01 0. -1.
    1000022    2    1    0    0    0 -0.58855420801E+02 -0.14825449655E+02 -0.11067733477E+02  0.62499997139E+02  0.10000020145E+02 0.  0.
    3000022    2    3    3    0    0 -0.30721436122E+02 -0.12058062820E+02 -0.33192837865E+01  0.33170523969E+02  0.24999831497E+00 0.  0.
    1000022    2    1    0    0    0  0.58855420801E+02  0.14825449655E+02  0.11067733477E+02  0.62500002861E+02  0.10000055906E+02 0.  0.
    3000022    2    5    5    0    0  0.82874864032E+01  0.55025831398E+01  0.30318059070E+00  0.99556651241E+01  0.24999499949E+00 0.  0.
        -13    1    4    4    0    0 -0.21555654017E+02 -0.85048040880E+01 -0.23118328797E+01  0.23288055070E+02  0.10500000000E+00 0.  1.
         13    1    4    4    0    0 -0.91657821052E+01 -0.35532587317E+01 -0.10074509068E+01  0.98824688992E+01  0.10500000000E+00 0. -1.
    3000001    1    5    5    0    0  0.50567934398E+02  0.93228665151E+01  0.10764552887E+02  0.52544337737E+02  0.10000000000E+01 0.  1.
        -13    1    6    6    0    0  0.44224342742E+01  0.29670996793E+01  0.22449045172E+00  0.53313250116E+01  0.10500000000E+00 0. -1.
         13    1    6    6    0    0  0.38650521289E+01  0.25354834605E+01  0.78690138984E-01  0.46243401125E+01  0.10500000000E+00 0.  1.
</event>
<event>
11    0  0.3515428E-009  0.9118800E+02  0.7816531E-02  0.1126479E+00
         25   -1    0    0    0    0  0.00000000000E+00  0.00000000000E+00  0.99999998245E-14  0.12500000000E+03  0.12500000000E+03 0.  0.
    3000001    1    3    3    0    0 -0.17482352291E+02  0.32041198932E+01 -0.12772393083E+02  0.21909656569E+02  0.10000000000E+01 0. -1.
    1000022    2    1    0    0    0 -0.55941637645E+02  0.38053609962E+01 -0.25735237200E+02  0.62499999664E+02  0.99999964781E+01 0.  0.
    3000022    2    3    3    0    0 -0.38459285355E+02  0.60124110298E+00 -0.12962844117E+02  0.40590343095E+02  0.25000828739E+00 0.  0.
    1000022    2    1    0    0    0  0.55941637645E+02 -0.38053609962E+01  0.25735237200E+02  0.62500000336E+02  0.10000000673E+02 0.  0.
    3000022    2    5    5    0    0  0.49479379572E+02 -0.11168572258E+01  0.24830320444E+02  0.55372047876E+02  0.24999947795E+00 0.  0.
        -13    1    4    4    0    0 -0.25096786754E+02  0.38702257946E+00 -0.83999266003E+01  0.26468250485E+02  0.10500000000E+00 0. -1.
         13    1    4    4    0    0 -0.13362498600E+02  0.21421852352E+00 -0.45629175162E+01  0.14122092610E+02  0.10500000000E+00 0.  1.
    3000001    1    5    5    0    0  0.64622580738E+01 -0.26885037704E+01  0.90491675565E+00  0.71279524599E+01  0.10000000000E+01 0. -1.
        -13    1    6    6    0    0  0.38084720207E+02 -0.86544329486E+00  0.19117025086E+02  0.42622371807E+02  0.10500000000E+00 0. -1.
         13    1    6    6    0    0  0.11394659365E+02 -0.25141393092E+00  0.57132953577E+01  0.12749676068E+02  0.10500000000E+00 0.  1.
</event>
<event>
11    0  0.3515428E-009  0.9118800E+02  0.7816531E-02  0.1126479E+00
         25   -1    0    0    0    0  0.00000000000E+00  0.00000000000E+00  0.99999998245E-14  0.12500000000E+03  0.12500000000E+03 0.  0.
    3000001    1    3    3    0    0 -0.18814165283E+02 -0.91411625004E+01 -0.77031786396E+01  0.22313059591E+02  0.10000000000E+01 0. -1.
    1000022    2    1    0    0    0 -0.44086482655E+02 -0.30971844895E+02 -0.30056230274E+02  0.62499999459E+02  0.99999912477E+01 0.  0.
    3000022    2    3    3    0    0 -0.25272317372E+02 -0.21830682395E+02 -0.22353051634E+02  0.40186939868E+02  0.24999878373E+00 0.  0.
    1000022    2    1    0    0    0  0.44086482655E+02  0.30971844895E+02  0.30056230274E+02  0.62500000541E+02  0.99999980133E+01 0.  0.
    3000022    2    5    5    0    0  0.54843614853E+01  0.79421866964E+01  0.34290158893E+01  0.10245838397E+02  0.25000811410E+00 0.  0.
        -13    1    4    4    0    0 -0.10949010398E+02 -0.95404154325E+01 -0.97456771272E+01  0.17489699911E+02  0.10500000000E+00 0. -1.
         13    1    4    4    0    0 -0.14323306974E+02 -0.12290266962E+02 -0.12607374507E+02  0.22697239956E+02  0.10500000000E+00 0.  1.
    3000001    1    5    5    0    0  0.38602121170E+02  0.23029658199E+02  0.26627214384E+02  0.52254162145E+02  0.10000000000E+01 0.  1.
        -13    1    6    6    0    0  0.25328206934E+01  0.35589038137E+01  0.15253454403E+01  0.46280320582E+01  0.10500000000E+00 0.  1.
         13    1    6    6    0    0  0.29515407919E+01  0.43832828827E+01  0.19036704490E+01  0.56178063383E+01  0.10500000000E+00 0. -1.
</event>
<event>
11    0  0.3515428E-009  0.9118800E+02  0.7816531E-02  0.1126479E+00
         25   -1    0    0    0    0  0.00000000000E+00  0.00000000000E+00  0.99999998245E-14  0.12500000000E+03  0.12500000000E+03 0.  0.
    3000001    1    3    3    0    0 -0.87019345781E+01 -0.23016347973E+02 -0.65346581446E+01  0.25478965766E+02  0.10000000000E+01 0. -1.
    1000022    2    1    0    0    0 -0.11668675750E+02 -0.56069116662E+02 -0.22942215631E+02  0.62500007232E+02  0.10000090450E+02 0.  0.
    3000022    2    3    3    0    0 -0.29667411720E+01 -0.33052768688E+02 -0.16407557486E+02  0.37021041466E+02  0.24999490172E+00 0.  0.
    1000022    2    1    0    0    0  0.11668675750E+02  0.56069116662E+02  0.22942215631E+02  0.62499992768E+02  0.10000000048E+02 0.  0.
    3000022    2    5    5    0    0  0.36656903684E+01  0.31625296018E+02  0.83637880239E+01  0.32918263708E+02  0.25000268441E+00 0.  0.
        -13    1    4    4    0    0 -0.22709172176E+01 -0.25222821502E+02 -0.12537503878E+02  0.28258588394E+02  0.10500000000E+00 0.  1.
         13    1    4    4    0    0 -0.69582395436E+00 -0.78299471867E+01 -0.38700536080E+01  0.87624530727E+01  0.10500000000E+00 0. -1.
    3000001    1    5    5    0    0  0.80029853817E+01  0.24443820643E+02  0.14578427607E+02  0.29581729060E+02  0.10000000000E+01 0.  1.
        -13    1    6    6    0    0  0.11389176178E+01  0.96969090593E+01  0.26117905434E+01  0.10107405873E+02  0.10500000000E+00 0. -1.
         13    1    6    6    0    0  0.25267727506E+01  0.21928386959E+02  0.57519974805E+01  0.22810857835E+02  0.10500000000E+00 0.  1.
</event>
<event>
11    0  0.3515428E-009  0.9118800E+02  0.7816531E-02  0.1126479E+00
         25   -1    0    0    0    0  0.00000000000E+00  0.00000000000E+00  0.99999998245E-14  0.12500000000E+03  0.12500000000E+03 0.  0.
    3000001    1    3    3    0    0  0.86719613053E+00 -0.10446059470E+02 -0.11499140498E+02  0.15591742038E+02  0.10000000000E+01 0.  1.
    1000022    2    1    0    0    0 -0.22396404470E+01 -0.28403319846E+02 -0.54721893741E+02  0.62499998300E+02  0.99999782629E+01 0.  0.
    3000022    2    3    3    0    0 -0.31068365775E+01 -0.17957260376E+02 -0.43222753243E+02  0.46908256262E+02  0.24994778932E+00 0.  0.
    1000022    2    1    0    0    0  0.22396404470E+01  0.28403319846E+02  0.54721893741E+02  0.62500001700E+02  0.99999995188E+01 0.  0.
    3000022    2    5    5    0    0 -0.32609368114E+00  0.26842492099E+02  0.50827380440E+02  0.57481395448E+02  0.25000206157E+00 0.  0.
        -13    1    4    4    0    0 -0.14237670534E+01 -0.79812841473E+01 -0.19096930875E+02  0.20746850438E+02  0.10500000000E+00 0. -1.
         13    1    4    4    0    0 -0.16830695241E+01 -0.99759762288E+01 -0.24125822368E+02  0.26161405824E+02  0.10500000000E+00 0.  1.
    3000001    1    5    5    0    0  0.25657341281E+01  0.15608277473E+01  0.38945133003E+01  0.50186062527E+01  0.10000000000E+01 0.  1.
        -13    1    6    6    0    0 -0.10363600405E+00  0.13612392770E+02  0.25714126510E+02  0.29095279764E+02  0.10500000000E+00 0.  1.
         13    1    6    6    0    0 -0.22245767708E+00  0.13230099329E+02  0.25113253930E+02  0.28386115684E+02  0.10500000000E+00 0. -1.
</event>
<event>
11    0  0.3515428E-009  0.9118800E+02  0.7816531E-02  0.1126479E+00
         25   -1    0    0    0    0  0.00000000000E+00  0.00000000000E+00  0.99999998245E-14  0.12500000000E+03  0.12500000000E+03 0.  0.
    3000001    1    3    3    0    0 -0.36286368017E+02 -0.35200712465E+01 -0.74625743047E+01  0.37226085218E+02  0.10000000000E+01 0.  1.
    1000022    2    1    0    0    0 -0.61315792944E+02 -0.52178873735E+01 -0.44042238010E+01  0.62499998831E+02  0.99999926785E+01 0.  0.
    3000022    2    3    3    0    0 -0.25029424927E+02 -0.16978161270E+01  0.30583505037E+01  0.25273913612E+02  0.25001939855E+00 0.  0.
    1000022    2    1    0    0    0  0.61315792944E+02  0.52178873735E+01  0.44042238010E+01  0.62500001169E+02  0.10000007296E+02 0.  0.
    3000022    2    5    5    0    0  0.29020342021E+02  0.49868561866E+01 -0.21686070230E+01  0.29526502254E+02  0.24998652830E+00 0.  0.
        -13    1    4    4    0    0 -0.93926775998E+01 -0.66053612828E+00  0.12038842265E+01  0.94931060619E+01  0.10500000000E+00 0. -1.
         13    1    4    4    0    0 -0.15636747327E+02 -0.10372799987E+01  0.18544662772E+01  0.15780807551E+02  0.10500000000E+00 0.  1.
    3000001    1    5    5    0    0  0.32295450922E+02  0.23103118687E+00  0.65728308239E+01  0.32973498916E+02  0.10000000000E+01 0. -1.
        -13    1    6    6    0    0  0.73951905792E+01  0.12426701645E+01 -0.56064825877E+00  0.75205335123E+01  0.10500000000E+00 0.  1.
         13    1    6    6    0    0  0.21625151442E+02  0.37441860221E+01 -0.16079587642E+01  0.22005968741E+02  0.10500000000E+00 0. -1.
</event>
<event>
11    0  0.3515428E-009  0.9118800E+02  0.7816531E-02  0.1126479E+00
         25   -1    0    0    0    0  0.00000000000E+00  0.00000000000E+00  0.99999998245E-14  0.12500000000E+03  0.12500000000E+03 0.  0.
    3000001    1    3    3    0    0 -0.23746564689E+02 -0.35508209657E+02  0.19799413682E+02  0.47092983233E+02  0.10000000000E+01 0. -1.
    1000022    2    1    0    0    0 -0.35695109228E+02 -0.44515004989E+02  0.23463237557E+02  0.62500000090E+02  0.10000000132E+02 0.  0.
    3000022    2    3    3    0    0 -0.11948544539E+02 -0.90067953319E+01  0.36638238745E+01  0.15407016858E+02  0.24996862406E+00 0.  0.
    1000022    2    1    0    0    0  0.35695109228E+02  0.44515004989E+02 -0.23463237557E+02  0.62499999910E+02  0.99999990068E+01 0.  0.
    3000022    2    5    5    0    0  0.19203146815E+02  0.25055951727E+02 -0.18186386623E+02  0.36433071939E+02  0.25001589059E+00 0.  0.
        -13    1    4    4    0    0 -0.77659931287E+01 -0.58371090070E+01  0.24352717189E+01  0.10016190103E+02  0.10500000000E+00 0.  1.
         13    1    4    4    0    0 -0.41825514104E+01 -0.31696863249E+01  0.12285521555E+01  0.53908267545E+01  0.10500000000E+00 0. -1.
    3000001    1    5    5    0    0  0.16491962413E+02  0.19459053261E+02 -0.52768509339E+01  0.26066927971E+02  0.10000000000E+01 0. -1.
        -13    1    6    6    0    0  0.68784256927E+01  0.90299344276E+01 -0.64848681703E+01  0.13073522707E+02  0.10500000000E+00 0. -1.
         13    1    6    6    0    0  0.12324721122E+02  0.16026017300E+02 -0.11701518453E+02  0.23359549232E+02  0.10500000000E+00 0.  1.
</event>
<event>
11    0  0.3515428E-009  0.9118800E+02  0.7816531E-02  0.1126479E+00
         25   -1    0    0    0    0  0.00000000000E+00  0.00000000000E+00  0.99999998245E-14  0.12500000000E+03  0.12500000000E+03 0.  0.
    3000001    1    3    3    0    0  0.30750731207E+01  0.14140401493E+02  0.33090156985E+01  0.14878058139E+02  0.10000000000E+01 0.  1.
    1000022    2    1    0    0    0  0.14037705113E+02  0.52165254598E+02  0.29798977365E+02  0.62499999746E+02  0.99999982101E+01 0.  0.
    3000022    2    3    3    0    0  0.10962631993E+02  0.38024853105E+02  0.26489961666E+02  0.47621941608E+02  0.24999912979E+00 0.  0.
    1000022    2    1    0    0    0 -0.14037705113E+02 -0.52165254598E+02 -0.29798977365E+02  0.62500000254E+02  0.10000001381E+02 0.  0.
    3000022    2    5    5    0    0 -0.77839937476E+00 -0.12142601295E+02 -0.10692871224E+02  0.16200267447E+02  0.24999710974E+00 0.  0.
        -13    1    4    4    0    0  0.79474256378E+01  0.27440317071E+02  0.19101787106E+02  0.34365998762E+02  0.10500000000E+00 0.  1.
         13    1    4    4    0    0  0.30152063549E+01  0.10584536034E+02  0.73881745599E+01  0.13255942846E+02  0.10500000000E+00 0. -1.
    3000001    1    5    5    0    0 -0.13259305739E+02 -0.40022653303E+02 -0.19106106141E+02  0.46299732806E+02  0.10000000000E+01 0. -1.
        -13    1    6    6    0    0 -0.18257115733E+00 -0.28210771774E+01 -0.25002091329E+01  0.37754310187E+01  0.10500000000E+00 0. -1.
         13    1    6    6    0    0 -0.59582821742E+00 -0.93215241174E+01 -0.81926620913E+01  0.12424836429E+02  0.10500000000E+00 0.  1.
</event>
<event>
11    0  0.3515428E-009  0.9118800E+02  0.7816531E-02  0.1126479E+00
         25   -1    0    0    0    0  0.00000000000E+00  0.00000000000E+00  0.99999998245E-14  0.12500000000E+03  0.12500000000E+03 0.  0.
    3000001    1    3    3    0    0 -0.11261059596E+02 -0.52871297872E+01 -0.23527789389E+02  0.26633101174E+02  0.10000000000E+01 0.  1.
    1000022    2    1    0    0    0 -0.23702763479E+02 -0.14094205201E+01 -0.56942448772E+02  0.62500002129E+02  0.10000016563E+02 0.  0.
    3000022    2    3    3    0    0 -0.12441703883E+02  0.38777092671E+01 -0.33414659383E+02  0.35866900955E+02  0.24999554330E+00 0.  0.
    1000022    2    1    0    0    0  0.23702763479E+02  0.14094205201E+01  0.56942448772E+02  0.62499997871E+02  0.99999899505E+01 0.  0.
    3000022    2    5    5    0    0  0.14272274311E+02  0.44586322761E+00  0.45046102737E+02  0.47255798398E+02  0.25000478254E+00 0.  0.
        -13    1    4    4    0    0 -0.56734445891E+01  0.16985272436E+01 -0.15201822869E+02  0.16315005726E+02  0.10500000000E+00 0. -1.
         13    1    4    4    0    0 -0.67682592935E+01  0.21791820235E+01 -0.18212836514E+02  0.19551895229E+02  0.10500000000E+00 0.  1.
    3000001    1    5    5    0    0  0.94304891679E+01  0.96355729252E+00  0.11896346035E+02  0.15244199473E+02  0.10000000000E+01 0. -1.
        -13    1    6    6    0    0  0.74999047000E+01  0.18020623563E+00  0.23799396019E+02  0.24954024137E+02  0.10500000000E+00 0. -1.
         13    1    6    6    0    0  0.67723696108E+01  0.26565699198E+00  0.21246706718E+02  0.22301774260E+02  0.10500000000E+00 0.  1.
</event>
<event>
11    0  0.3515428E-009  0.9118800E+02  0.7816531E-02  0.1126479E+00
         25   -1    0    0    0    0  0.00000000000E+00  0.00000000000E+00  0.99999998245E-14  0.12500000000E+03  0.12500000000E+03 0.  0.
    3000001    1    3    3    0    0  0.26147563553E+01  0.49586001081E+02 -0.10061264347E+02  0.50673834414E+02  0.10000000000E+01 0. -1.
    1000022    2    1    0    0    0  0.53745839896E+01  0.60919896111E+02 -0.81320504033E+01  0.62499999968E+02  0.99999928504E+01 0.  0.
    3000022    2    3    3    0    0  0.27598276343E+01  0.11333895030E+02  0.19292139441E+01  0.11826165553E+02  0.25000027027E+00 0.  0.
    1000022    2    1    0    0    0 -0.53745839896E+01 -0.60919896111E+02  0.81320504033E+01  0.62500000032E+02  0.99999932550E+01 0.  0.
    3000022    2    5    5    0    0 -0.37771449455E+01 -0.15034727242E+02 -0.15018730573E+01  0.15576519611E+02  0.24998666907E+00 0.  0.
        -13    1    4    4    0    0  0.20083134899E+01  0.81212854487E+01  0.13554398789E+01  0.84756617841E+01  0.10500000000E+00 0. -1.
         13    1    4    4    0    0  0.75151414441E+00  0.32126095813E+01  0.57377406514E+00  0.33505037694E+01  0.10500000000E+00 0.  1.
    3000001    1    5    5    0    0 -0.15974390441E+01 -0.45885168869E+02  0.96339234606E+01  0.46923480421E+02  0.10000000000E+01 0. -1.
        -13    1    6    6    0    0 -0.17050981724E+01 -0.65266300937E+01 -0.63587652749E+00  0.67764020037E+01  0.10500000000E+00 0.  1.
         13    1    6    6    0    0 -0.20720467731E+01 -0.85080971481E+01 -0.86599652985E+00  0.88001176072E+01  0.10500000000E+00 0. -1.
</event>
<event>
11    0  0.3515428E-009  0.9118800E+02  0.7816531E-02  0.1126479E+00
         25   -1    0    0    0    0  0.00000000000E+00  0.00000000000E+00  0.99999998245E-14  0.12500000000E+03  0.12500000000E+03 0.  0.
    3000001    1    3    3    0    0  0.11806996448E+02  0.53820089347E+00  0.66544801313E+01  0.13600622454E+02  0.10000000000E+01 0.  1.
    1000022    2    1    0    0    0  0.47857110298E+02  0.19569275498E+02  0.33659924915E+02  0.62499999380E+02  0.99999913866E+01 0.  0.
    3000022    2    3    3    0    0  0.36050113850E+02  0.19031074604E+02  0.27005444783E+02  0.48899376926E+02  0.25001330148E+00 0.  0.
    1000022    2    1    0    0    0 -0.47857110298E+02 -0.19569275498E+02 -0.33659924915E+02  0.62500000620E+02  0.99999991330E+01 0.  0.
    3000022    2    5    5    0    0 -0.30996330040E+02 -0.16310153221E+02 -0.18715300834E+02  0.39712952153E+02  0.25001872659E+00 0.  0.
        -13    1    4    4    0    0  0.13157439379E+02  0.70076208784E+01  0.99022389499E+01  0.17896656744E+02  0.10500000000E+00 0. -1.
         13    1    4    4    0    0  0.22892674471E+02  0.12023453726E+02  0.17103205833E+02  0.31002720182E+02  0.10500000000E+00 0.  1.
    3000001    1    5    5    0    0 -0.16860780258E+02 -0.32591222767E+01 -0.14944624080E+02  0.22787048467E+02  0.10000000000E+01 0. -1.
        -13    1    6    6    0    0 -0.12815412532E+02 -0.66844000299E+01 -0.76808437526E+01  0.16368334915E+02  0.10500000000E+00 0.  1.
         13    1    6    6    0    0 -0.18180917508E+02 -0.96257531910E+01 -0.11034457081E+02  0.23344617238E+02  0.10500000000E+00 0. -1.
</event>
<event>
11    0  0.3515428E-009  0.9118800E+02  0.7816531E-02  0.1126479E+00
         25   -1    0    0    0    0  0.00000000000E+00  0.00000000000E+00  0.99999998245E-14  0.12500000000E+03  0.12500000000E+03 0.  0.
    3000001    1    3    3    0    0  0.35193140374E+02  0.78851178162E+01 -0.13835592008E+02  0.38641374440E+02  0.10000000000E+01 0. -1.
    1000022    2    1    0    0    0  0.56788730771E+02  0.17703052544E+02 -0.16367405459E+02  0.62499998534E+02  0.99999921707E+01 0.  0.
    3000022    2    3    3    0    0  0.21595590396E+02  0.98179347277E+01 -0.25318134507E+01  0.23858624094E+02  0.24999489543E+00 0.  0.
    1000022    2    1    0    0    0 -0.56788730771E+02 -0.17703052544E+02  0.16367405459E+02  0.62500001466E+02  0.10000010492E+02 0.  0.
    3000022    2    5    5    0    0 -0.55473464801E+02 -0.17683356838E+02  0.17113159479E+02  0.60687141418E+02  0.25000020534E+00 0.  0.
        -13    1    4    4    0    0  0.13814123429E+02  0.62417741887E+01 -0.16645747273E+01  0.15250297872E+02  0.10500000000E+00 0. -1.
         13    1    4    4    0    0  0.77814669668E+01  0.35761605390E+01 -0.86723872347E+00  0.86083262229E+01  0.10500000000E+00 0.  1.
    3000001    1    5    5    0    0 -0.13152659701E+01 -0.19695706339E-01 -0.74575402055E+00  0.18128600476E+01  0.10000000000E+01 0.  1.
        -13    1    6    6    0    0 -0.37334028922E+02 -0.11846719900E+02  0.11520358612E+02  0.40827737819E+02  0.10500000000E+00 0. -1.
         13    1    6    6    0    0 -0.18139435879E+02 -0.58366369377E+01  0.55928008670E+01  0.19859403599E+02  0.10500000000E+00 0.  1.
</event>
<event>
11    0  0.3515428E-009  0.9118800E+02  0.7816531E-02  0.1126479E+00
         25   -1    0    0    0    0  0.00000000000E+00  0.00000000000E+00  0.99999998245E-14  0.12500000000E+03  0.12500000000E+03 0.  0.
    3000001    1    3    3    0    0  0.45842481684E+01 -0.74391518879E+01  0.12672187207E+02  0.15425324654E+02  0.10000000000E+01 0.  1.
    1000022    2    1    0    0    0  0.16325353398E+02 -0.14429754913E+02  0.57719277245E+02  0.62499998381E+02  0.99999920730E+01 0.  0.
    3000022    2    3    3    0    0  0.11741105230E+02 -0.69906030253E+01  0.45047090038E+02  0.47074673726E+02  0.25000575295E+00 0.  0.
    1000022    2    1    0    0    0 -0.16325353398E+02  0.14429754913E+02 -0.57719277245E+02  0.62500001619E+02  0.10000012314E+02 0.  0.
    3000022    2    5    5    0    0  0.13179201517E+01  0.12554649836E+01 -0.61242529638E+01  0.63939097281E+01  0.25000278993E+00 0.  0.
        -13    1    4    4    0    0  0.67638468047E+01 -0.39725051563E+01  0.25701499610E+02  0.26872077106E+02  0.10500000000E+00 0.  1.
         13    1    4    4    0    0  0.49772584254E+01 -0.30180978690E+01  0.19345590428E+02  0.20202596620E+02  0.10500000000E+00 0. -1.
    3000001    1    5    5    0    0 -0.17643273550E+02  0.13174289930E+02 -0.51595024281E+02  0.56106091891E+02  0.10000000000E+01 0.  1.
        -13    1    6    6    0    0  0.56186248594E+00  0.46827862101E+00 -0.23254828976E+01  0.24400553328E+01  0.10500000000E+00 0. -1.
         13    1    6    6    0    0  0.75605766574E+00  0.78718636259E+00 -0.37987700662E+01  0.39538543953E+01  0.10500000000E+00 0.  1.
</event>
<event>
11    0  0.3515428E-009  0.9118800E+02  0.7816531E-02  0.1126479E+00
         25   -1    0    0    0    0  0.00000000000E+00  0.00000000000E+00  0.99999998245E-14  0.12500000000E+03  0.12500000000E+03 0.  0.
    3000001    1    3    3    0    0 -0.26316349777E+01 -0.89732836215E+01  0.11576343286E+02  0.14914993982E+02  0.10000000000E+01 0.  1.
    1000022    2    1    0    0    0 -0.84763260309E+01 -0.49443461695E+02  0.35913030461E+02  0.62499997590E+02  0.99999967206E+01 0.  0.
    3000022    2    3    3    0    0 -0.58446910532E+01 -0.40470178074E+02  0.24336687175E+02  0.47585003608E+02  0.24999771440E+00 0.  0.
    1000022    2    1    0    0    0  0.84763260309E+01  0.49443461695E+02 -0.35913030461E+02  0.62500002410E+02  0.10000026849E+02 0.  0.
    3000022    2    5    5    0    0  0.47007001721E+01  0.93763175790E+01 -0.10774080425E+02  0.15038458007E+02  0.24999352573E+00 0.  0.
        -13    1    4    4    0    0 -0.38659289659E+01 -0.27134336085E+02  0.16303835770E+02  0.31891122392E+02  0.10500000000E+00 0. -1.
         13    1    4    4    0    0 -0.19787620872E+01 -0.13335841989E+02  0.80328514050E+01  0.15693881216E+02  0.10500000000E+00 0.  1.
    3000001    1    5    5    0    0  0.37756258588E+01  0.40067144116E+02 -0.25138950036E+02  0.47461544404E+02  0.10000000000E+01 0.  1.
        -13    1    6    6    0    0  0.10965670860E+01  0.21870068896E+01 -0.24968916661E+01  0.34972777272E+01  0.10500000000E+00 0.  1.
         13    1    6    6    0    0  0.36041330861E+01  0.71893106895E+01 -0.82771887587E+01  0.11541180279E+02  0.10500000000E+00 0. -1.
</event>
<event>
11    0  0.3515428E-009  0.9118800E+02  0.7816531E-02  0.1126479E+00
         25   -1    0    0    0    0  0.00000000000E+00  0.00000000000E+00  0.99999998245E-14  0.12500000000E+03  0.12500000000E+03 0.  0.
    3000001    1    3    3    0    0  0.27571573788E+00  0.21075149408E+02  0.41008418146E+02  0.46118632900E+02  0.10000000000E+01 0.  1.
    1000022    2    1    0    0    0 -0.52261859642E+01  0.29504749007E+02  0.53929635716E+02  0.62500007565E+02  0.10000105175E+02 0.  0.
    3000022    2    3    3    0    0 -0.55019017021E+01  0.84295995986E+01  0.12921217570E+02  0.16381374665E+02  0.25000138886E+00 0.  0.
    1000022    2    1    0    0    0  0.52261859642E+01 -0.29504749007E+02 -0.53929635716E+02  0.62499992435E+02  0.10000010611E+02 0.  0.
    3000022    2    5    5    0    0 -0.11534896045E+01 -0.19719505495E+01 -0.99553617468E+01  0.10217184339E+02  0.25000214752E+00 0.  0.
        -13    1    4    4    0    0 -0.24168306180E+01  0.35963821370E+01  0.55129469872E+01  0.70127486904E+01  0.10500000000E+00 0.  1.
         13    1    4    4    0    0 -0.30850710841E+01  0.48332174617E+01  0.74082705829E+01  0.93686259748E+01  0.10500000000E+00 0. -1.
    3000001    1    5    5    0    0  0.63796755687E+01 -0.27532798458E+02 -0.43974273969E+02  0.52282808096E+02  0.10000000000E+01 0.  1.
        -13    1    6    6    0    0 -0.72717514687E+00 -0.12277955465E+01 -0.59375331749E+01  0.61075028286E+01  0.10500000000E+00 0. -1.
         13    1    6    6    0    0 -0.42631445759E+00 -0.74415500294E+00 -0.40178285718E+01  0.41096815105E+01  0.10500000000E+00 0.  1.
</event>
<event>
11    0  0.3515428E-009  0.9118800E+02  0.7816531E-02  0.1126479E+00
         25   -1    0    0    0    0  0.00000000000E+00  0.00000000000E+00  0.99999998245E-14  0.12500000000E+03  0.12500000000E+03 0.  0.
    3000001    1    3    3    0    0 -0.27109167455E+01  0.54374163571E+01 -0.56985440589E+01  0.83897539077E+01  0.10000000000E+01 0. -1.
    1000022    2    1    0    0    0 -0.40056422608E+02  0.26863140041E+02 -0.38472129143E+02  0.62500000840E+02  0.10000004963E+02 0.  0.
    3000022    2    3    3    0    0 -0.37345505863E+02  0.21425723684E+02 -0.32773585084E+02  0.54110246933E+02  0.25000070201E+00 0.  0.
    1000022    2    1    0    0    0  0.40056422608E+02 -0.26863140041E+02  0.38472129143E+02  0.62499999160E+02  0.99999944592E+01 0.  0.
    3000022    2    5    5    0    0  0.39320118309E+02 -0.27214643487E+02  0.36567493615E+02  0.60199274233E+02  0.25000999487E+00 0.  0.
        -13    1    4    4    0    0 -0.12836480939E+02  0.73257924333E+01 -0.11195198637E+02  0.18541466372E+02  0.10500000000E+00 0.  1.
         13    1    4    4    0    0 -0.24509024923E+02  0.14099931250E+02 -0.21578386446E+02  0.35568780561E+02  0.10500000000E+00 0. -1.
    3000001    1    5    5    0    0  0.73630429917E+00  0.35150344581E+00  0.19046355282E+01  0.23007249268E+01  0.10000000000E+01 0.  1.
        -13    1    6    6    0    0  0.16629136521E+02 -0.11477022769E+02  0.15525536762E+02  0.25481435396E+02  0.10500000000E+00 0.  1.
         13    1    6    6    0    0  0.22690981788E+02 -0.15737620718E+02  0.21041956852E+02  0.34717838837E+02  0.10500000000E+00 0. -1.
</event>
<event>
11    0  0.3515428E-009  0.9118800E+02  0.7816531E-02  0.1126479E+00
         25   -1    0    0    0    0  0.00000000000E+00  0.00000000000E+00  0.99999998245E-14  0.12500000000E+03  0.12500000000E+03 0.  0.
    3000001    1    3    3    0    0 -0.33218206927E+02 -0.52382553866E+01  0.43373157806E+02  0.54891888371E+02  0.10000000000E+01 0.  1.
    1000022    2    1    0    0    0 -0.37530996382E+02 -0.23143254743E+01  0.48911332690E+02  0.62500002505E+02  0.10000002793E+02 0.  0.
    3000022    2    3    3    0    0 -0.43127894553E+01  0.29239299123E+01  0.55381748839E+01  0.76081141341E+01  0.25000123034E+00 0.  0.
    1000022    2    1    0    0    0  0.37530996382E+02  0.23143254743E+01 -0.48911332690E+02  0.62499997495E+02  0.99999714771E+01 0.  0.
    3000022    2    5    5    0    0  0.11549559592E+02  0.53513423540E+01 -0.15889037805E+02  0.20360580216E+02  0.25002515694E+00 0.  0.
        -13    1    4    4    0    0 -0.14607524892E+01  0.10512876708E+01  0.18795227452E+01  0.26043491224E+01  0.10500000000E+00 0.  1.
         13    1    4    4    0    0 -0.28520369661E+01  0.18726422415E+01  0.36586521387E+01  0.50037650117E+01  0.10500000000E+00 0. -1.
    3000001    1    5    5    0    0  0.25981436789E+02 -0.30370168797E+01 -0.33022294884E+02  0.42139417279E+02  0.10000000000E+01 0.  1.
        -13    1    6    6    0    0  0.28833783100E+01  0.13224787505E+01 -0.39246281148E+01  0.50474301742E+01  0.10500000000E+00 0. -1.
         13    1    6    6    0    0  0.86661812824E+01  0.40288636035E+01 -0.11964409690E+02  0.15313150042E+02  0.10500000000E+00 0.  1.
</event>
<event>
11    0  0.3515428E-009  0.9118800E+02  0.7816531E-02  0.1126479E+00
         25   -1    0    0    0    0  0.00000000000E+00  0.00000000000E+00  0.99999998245E-14  0.12500000000E+03  0.12500000000E+03 0.  0.
    3000001    1    3    3    0    0 -0.43172282325E+01  0.53256421745E+01  0.17763802570E+01  0.71523738017E+01  0.10000000000E+01 0. -1.
    1000022    2    1    0    0    0 -0.30036405288E+02  0.37063739188E+02  0.39119592930E+02  0.62500010618E+02  0.10000118553E+02 0.  0.
    3000022    2    3    3    0    0 -0.25719177055E+02  0.31738097013E+02  0.37343212673E+02  0.55347636817E+02  0.24999601090E+00 0.  0.
    1000022    2    1    0    0    0  0.30036405288E+02 -0.37063739188E+02 -0.39119592930E+02  0.62499989382E+02  0.99999858234E+01 0.  0.
    3000022    2    5    5    0    0  0.27311385820E+02 -0.30555674043E+02 -0.36583477469E+02  0.54936093252E+02  0.25001287331E+00 0.  0.
        -13    1    4    4    0    0 -0.11274320304E+02  0.13912621189E+02  0.16280345906E+02  0.24201901051E+02  0.10500000000E+00 0. -1.
         13    1    4    4    0    0 -0.14444856752E+02  0.17825475824E+02  0.21062866768E+02  0.31145735766E+02  0.10500000000E+00 0.  1.
    3000001    1    5    5    0    0  0.27250194679E+01 -0.65080651446E+01 -0.25361154617E+01  0.75638961297E+01  0.10000000000E+01 0.  1.
        -13    1    6    6    0    0  0.12819676215E+02 -0.14245683361E+02 -0.17081633963E+02  0.25672491825E+02  0.10500000000E+00 0.  1.
         13    1    6    6    0    0  0.14491709605E+02 -0.16309990682E+02 -0.19501843506E+02  0.29263601427E+02  0.10500000000E+00 0. -1.
</event>
<event>
11    0  0.3515428E-009  0.9118800E+02  0.7816531E-02  0.1126479E+00
         25   -1    0    0    0    0  0.00000000000E+00  0.00000000000E+00  0.99999998245E-14  0.12500000000E+03  0.12500000000E+03 0.  0.
    3000001    1    3    3    0    0  0.14544408331E+01  0.15798266299E+02 -0.94908784640E+01  0.18514248302E+02  0.10000000000E+01 0.  1.
    1000022    2    1    0    0    0 -0.11832315950E+01  0.44493856645E+02 -0.42721732506E+02  0.62500000339E+02  0.10000014891E+02 0.  0.
    3000022    2    3    3    0    0 -0.26376724280E+01  0.28695590346E+02 -0.33230854042E+02  0.43985752036E+02  0.25000128701E+00 0.  0.
    1000022    2    1    0    0    0  0.11832315950E+01 -0.44493856645E+02  0.42721732506E+02  0.62499999661E+02  0.10000010659E+02 0.  0.
    3000022    2    5    5    0    0 -0.49626841447E+00 -0.66213109080E+01  0.21964532182E+01  0.69982095799E+01  0.24998020746E+00 0.  0.
        -13    1    4    4    0    0 -0.14708294229E+01  0.16651923604E+02 -0.19316209462E+02  0.25545584195E+02  0.10500000000E+00 0. -1.
         13    1    4    4    0    0 -0.11668430052E+01  0.12043666742E+02 -0.13914644580E+02  0.18440167841E+02  0.10500000000E+00 0.  1.
    3000001    1    5    5    0    0  0.16795000095E+01 -0.37872545737E+02  0.40525279288E+02  0.55501790082E+02  0.10000000000E+01 0.  1.
        -13    1    6    6    0    0 -0.16399035088E+00 -0.17433293003E+01  0.58277444150E+00  0.18484428404E+01  0.10500000000E+00 0. -1.
         13    1    6    6    0    0 -0.33227806358E+00 -0.48779816077E+01  0.16136787767E+01  0.51497667395E+01  0.10500000000E+00 0.  1.
</event>
<event>
11    0  0.3515428E-009  0.9118800E+02  0.7816531E-02  0.1126479E+00
         25   -1    0    0    0    0  0.00000000000E+00  0.00000000000E+00  0.99999998245E-14  0.12500000000E+03  0.12500000000E+03 0.  0.
    3000001    1    3    3    0    0  0.21214063395E+01 -0.17515695686E+01 -0.79307285873E+00  0.30327092459E+01  0.10000000000E+01 0. -1.
    1000022    2    1    0    0    0  0.54741007878E+02 -0.21789732240E+00 -0.28453902809E+02  0.62499999692E+02  0.99999976821E+01 0.  0.
    3000022    2    3    3    0    0  0.52619601539E+02  0.15336722462E+01 -0.27660829951E+02  0.59467290446E+02  0.25000556020E+00 0.  0.
    1000022    2    1    0    0    0 -0.54741007878E+02  0.21789732240E+00  0.28453902809E+02  0.62500000308E+02  0.10000001534E+02 0.  0.
    3000022    2    5    5    0    0 -0.17771968754E+02  0.47252093317E+01  0.94126599263E+01  0.20659892208E+02  0.25000506365E+00 0.  0.
        -13    1    4    4    0    0  0.12217016563E+02  0.36162566748E+00 -0.64329671583E+01  0.13812326317E+02  0.10500000000E+00 0.  1.
         13    1    4    4    0    0  0.40402584975E+02  0.11720465788E+01 -0.21227862792E+02  0.45654964129E+02  0.10500000000E+00 0. -1.
    3000001    1    5    5    0    0 -0.36969039124E+02 -0.45073120093E+01  0.19041242883E+02  0.41840108100E+02  0.10000000000E+01 0. -1.
        -13    1    6    6    0    0 -0.92329936491E+01  0.24599915392E+01  0.48149655818E+01  0.10700217224E+02  0.10500000000E+00 0.  1.
         13    1    6    6    0    0 -0.85389751048E+01  0.22652177925E+01  0.45976943445E+01  0.99596749833E+01  0.10500000000E+00 0. -1.
</event>
<event>
11    0  0.3515428E-009  0.9118800E+02  0.7816531E-02  0.1126479E+00
         25   -1    0    0    0    0  0.00000000000E+00  0.00000000000E+00  0.99999998245E-14  0.12500000000E+03  0.12500000000E+03 0.  0.
    3000001    1    3    3    0    0  0.93734645952E+01 -0.12953783225E+02  0.92248069847E+01  0.18486735847E+02  0.10000000000E+01 0.  1.
    1000022    2    1    0    0    0  0.17958307352E+02 -0.45734414646E+02  0.37311024016E+02  0.62499999747E+02  0.99999984597E+01 0.  0.
    3000022    2    3    3    0    0  0.85848427572E+01 -0.32780631422E+02  0.28086217031E+02  0.44013263900E+02  0.24998090109E+00 0.  0.
    1000022    2    1    0    0    0 -0.17958307352E+02  0.45734414646E+02 -0.37311024016E+02  0.62500000253E+02  0.10000001625E+02 0.  0.
    3000022    2    5    5    0    0 -0.47768402892E+01  0.24257733096E+02 -0.21241787758E+02  0.32596500821E+02  0.25000104806E+00 0.  0.
        -13    1    4    4    0    0  0.29987706641E+01 -0.11250454316E+02  0.96215721980E+01  0.15104668959E+02  0.10500000000E+00 0.  1.
         13    1    4    4    0    0  0.55860720931E+01 -0.21530177106E+02  0.18464644833E+02  0.28908594941E+02  0.10500000000E+00 0. -1.
    3000001    1    5    5    0    0 -0.13181467063E+02  0.21476681550E+02 -0.16069236258E+02  0.29903499432E+02  0.10000000000E+01 0. -1.
        -13    1    6    6    0    0 -0.13841754702E+01  0.72510589974E+01 -0.63625330419E+01  0.97461094815E+01  0.10500000000E+00 0. -1.
         13    1    6    6    0    0 -0.33926648190E+01  0.17006674099E+02 -0.14879254716E+02  0.22850391340E+02  0.10500000000E+00 0.  1.
</event>
<event>
11    0  0.3515428E-009  0.9118800E+02  0.7816531E-02  0.1126479E+00
         25   -1    0    0    0    0  0.00000000000E+00  0.00000000000E+00  0.99999998245E-14  0.12500000000E+03  0.12500000000E+03 0.  0.
    3000001    1    3    3    0    0  0.38295334652E+02 -0.26467215407E+02  0.34872178463E+02  0.58173146539E+02  0.10000000000E+01 0.  1.
    1000022    2    1    0    0    0  0.39246854713E+02 -0.27285725490E+02  0.39005433621E+02  0.62499998072E+02  0.99999743326E+01 0.  0.
    3000022    2    3    3    0    0  0.95152006153E+00 -0.81851008248E+00  0.41332551577E+01  0.43268515327E+01  0.24999360977E+00 0.  0.
    1000022    2    1    0    0    0 -0.39246854713E+02  0.27285725490E+02 -0.39005433621E+02  0.62500001928E+02  0.99999984346E+01 0.  0.
    3000022    2    5    5    0    0 -0.36329806472E+02  0.27046562705E+02 -0.34073118266E+02  0.56678137618E+02  0.25000615901E+00 0.  0.
        -13    1    4    4    0    0  0.45817948948E+00 -0.44441119255E+00  0.22865669197E+01  0.23763086986E+01  0.10500000000E+00 0. -1.
         13    1    4    4    0    0  0.49334057204E+00 -0.37409888993E+00  0.18466882380E+01  0.19505428342E+01  0.10500000000E+00 0.  1.
    3000001    1    5    5    0    0 -0.29170482418E+01  0.23916278422E+00 -0.49323153550E+01  0.58218643099E+01  0.10000000000E+01 0. -1.
        -13    1    6    6    0    0 -0.19369549315E+02  0.14446329340E+02 -0.18258133407E+02  0.30286074896E+02  0.10500000000E+00 0.  1.
         13    1    6    6    0    0 -0.16960257156E+02  0.12600233365E+02 -0.15814984859E+02  0.26392062722E+02  0.10500000000E+00 0. -1.
</event>
<event>
11    0  0.3515428E-009  0.9118800E+02  0.7816531E-02  0.1126479E+00
         25   -1    0    0    0    0  0.00000000000E+00  0.00000000000E+00  0.99999998245E-14  0.12500000000E+03  0.12500000000E+03 0.  0.
    3000001    1    3    3    0    0  0.11138212322E+02 -0.18062606429E+02 -0.14640182867E+02  0.25800241842E+02  0.10000000000E+01 0.  1.
    1000022    2    1    0    0    0  0.36257971000E+02 -0.36685422137E+02 -0.33849506255E+02  0.62499998624E+02  0.10000004792E+02 0.  0.
    3000022    2    3    3    0    0  0.25119758678E+02 -0.18622815708E+02 -0.19209323389E+02  0.36699756782E+02  0.25000370929E+00 0.  0.
    1000022    2    1    0    0    0 -0.36257971000E+02  0.36685422137E+02  0.33849506255E+02  0.62500001376E+02  0.10000021995E+02 0.  0.
    3000022    2    5    5    0    0 -0.15913930251E+02  0.14854651405E+02  0.20092430681E+02  0.29625700272E+02  0.25000304388E+00 0.  0.
        -13    1    4    4    0    0  0.18751728194E+02 -0.13920951112E+02 -0.14373987376E+02  0.27423397460E+02  0.10500000000E+00 0. -1.
         13    1    4    4    0    0  0.63680304837E+01 -0.47018645956E+01 -0.48353360123E+01  0.92763593218E+01  0.10500000000E+00 0.  1.
    3000001    1    5    5    0    0 -0.20344040749E+02  0.21830770732E+02  0.13757075574E+02  0.32874301105E+02  0.10000000000E+01 0. -1.
        -13    1    6    6    0    0 -0.11772242616E+02  0.11004897486E+02  0.14833142597E+02  0.21902662149E+02  0.10500000000E+00 0. -1.
         13    1    6    6    0    0 -0.41416876347E+01  0.38497539187E+01  0.52592880837E+01  0.77230381228E+01  0.10500000000E+00 0.  1.
</event>
<event>
11    0  0.3515428E-009  0.9118800E+02  0.7816531E-02  0.1126479E+00
         25   -1    0    0    0    0  0.00000000000E+00  0.00000000000E+00  0.99999998245E-14  0.12500000000E+03  0.12500000000E+03 0.  0.
    3000001    1    3    3    0    0  0.11510116769E+02 -0.31216831350E+01 -0.11221743069E+01  0.12020273242E+02  0.10000000000E+01 0.  1.
    1000022    2    1    0    0    0  0.60172287589E+02  0.22027658757E+01 -0.13442228231E+02  0.62500000397E+02  0.10000008934E+02 0.  0.
    3000022    2    3    3    0    0  0.48662170820E+02  0.53244490108E+01 -0.12320053924E+02  0.50479727155E+02  0.24999767695E+00 0.  0.
    1000022    2    1    0    0    0 -0.60172287589E+02 -0.22027658757E+01  0.13442228231E+02  0.62499999603E+02  0.10000003966E+02 0.  0.
    3000022    2    5    5    0    0 -0.42937925926E+02 -0.60010466513E+01  0.91820469029E+01  0.44317609668E+02  0.24999526431E+00 0.  0.
        -13    1    4    4    0    0  0.15115607646E+02  0.16931965405E+01 -0.37982478598E+01  0.15677570629E+02  0.10500000000E+00 0. -1.
         13    1    4    4    0    0  0.33546563173E+02  0.36312524702E+01 -0.85218060642E+01  0.34802156526E+02  0.10500000000E+00 0.  1.
    3000001    1    5    5    0    0 -0.17234361663E+02  0.37982807756E+01  0.42601813280E+01  0.18182389934E+02  0.10000000000E+01 0. -1.
        -13    1    6    6    0    0 -0.28223781584E+02 -0.39099488125E+01  0.60787433890E+01  0.29134716282E+02  0.10500000000E+00 0.  1.
         13    1    6    6    0    0 -0.14714144342E+02 -0.20910978388E+01  0.31033035139E+01  0.15182893386E+02  0.10500000000E+00 0. -1.
</event>
<event>
11    0  0.3515428E-009  0.9118800E+02  0.7816531E-02  0.1126479E+00
         25   -1    0    0    0    0  0.00000000000E+00  0.00000000000E+00  0.99999998245E-14  0.12500000000E+03  0.12500000000E+03 0.  0.
    3000001    1    3    3    0    0 -0.12355692802E+01 -0.17914992194E+01 -0.21227675252E+01  0.32003504285E+01  0.10000000000E+01 0. -1.
    1000022    2    1    0    0    0  0.10124194017E+02 -0.50859869134E+02 -0.33421916464E+02  0.62499999375E+02  0.99999914427E+01 0.  0.
    3000022    2    3    3    0    0  0.11359763298E+02 -0.49068369915E+02 -0.31299148939E+02  0.59299648946E+02  0.24998513616E+00 0.  0.
    1000022    2    1    0    0    0 -0.10124194017E+02  0.50859869134E+02  0.33421916464E+02  0.62500000625E+02  0.99999992602E+01 0.  0.
    3000022    2    5    5    0    0 -0.77336174412E+01  0.19324027320E+02  0.16850666889E+02  0.26781231221E+02  0.25000104136E+00 0.  0.
        -13    1    4    4    0    0  0.82567105565E+01 -0.35697750603E+02 -0.22726611711E+02  0.43116268069E+02  0.10500000000E+00 0. -1.
         13    1    4    4    0    0  0.31030527411E+01 -0.13370619312E+02 -0.85725372283E+01  0.16183380877E+02  0.10500000000E+00 0.  1.
    3000001    1    5    5    0    0 -0.23905765762E+01  0.31535841814E+02  0.16571249576E+02  0.35718769404E+02  0.10000000000E+01 0.  1.
        -13    1    6    6    0    0 -0.50231055768E+01  0.12446945651E+02  0.10811634996E+02  0.17235443771E+02  0.10500000000E+00 0. -1.
         13    1    6    6    0    0 -0.27105118644E+01  0.68770816691E+01  0.60390318927E+01  0.95457874506E+01  0.10500000000E+00 0.  1.
</event>
<event>
11    0  0.3515428E-009  0.9118800E+02  0.7816531E-02  0.1126479E+00
         25   -1    0    0    0    0  0.00000000000E+00  0.00000000000E+00  0.99999998245E-14  0.12500000000E+03  0.12500000000E+03 0.  0.
    3000001    1    3    3    0    0  0.30956011966E+01  0.12292170848E+02  0.91483258724E+01  0.15664356904E+02  0.10000000000E+01 0.  1.
    1000022    2    1    0    0    0  0.18941586170E+02  0.54486023523E+02  0.21880116421E+02  0.62499999716E+02  0.10000001197E+02 0.  0.
    3000022    2    3    3    0    0  0.15845984974E+02  0.42193852674E+02  0.12731790549E+02  0.46835642813E+02  0.25000758716E+00 0.  0.
    1000022    2    1    0    0    0 -0.18941586170E+02 -0.54486023523E+02 -0.21880116421E+02  0.62500000284E+02  0.10000004744E+02 0.  0.
    3000022    2    5    5    0    0 -0.17326148471E+02 -0.38907669093E+02 -0.13334512675E+02  0.44630414136E+02  0.25000519389E+00 0.  0.
        -13    1    4    4    0    0  0.10749069490E+02  0.28487915950E+02  0.86230796545E+01  0.31646048376E+02  0.10500000000E+00 0.  1.
         13    1    4    4    0    0  0.50969154835E+01  0.13705936724E+02  0.41087108942E+01  0.15189594436E+02  0.10500000000E+00 0.  1.
    3000001    1    5    5    0    0 -0.16154376997E+01 -0.15578354430E+02 -0.85456037463E+01  0.17869586148E+02  0.10000000000E+01 0.  1.
        -13    1    6    6    0    0 -0.11926079393E+02 -0.26731048359E+02 -0.92108477531E+01  0.30686007518E+02  0.10500000000E+00 0.  1.
         13    1    6    6    0    0 -0.54000690773E+01 -0.12176620734E+02 -0.41236649216E+01  0.13944406618E+02  0.10500000000E+00 0. -1.
</event>
<event>
11    0  0.3515428E-009  0.9118800E+02  0.7816531E-02  0.1126479E+00
         25   -1    0    0    0    0  0.00000000000E+00  0.00000000000E+00  0.99999998245E-14  0.12500000000E+03  0.12500000000E+03 0.  0.
    3000001    1    3    3    0    0 -0.91698953309E+00  0.77013127107E+01  0.97496505919E+01  0.12498270838E+02  0.10000000000E+01 0.  1.
    1000022    2    1    0    0    0 -0.50022276220E+01  0.21212761663E+02  0.57716949660E+02  0.62499997812E+02  0.99999954968E+01 0.  0.
    3000022    2    3    3    0    0 -0.40852380889E+01  0.13511448952E+02  0.47967299068E+02  0.50001726974E+02  0.24999502138E+00 0.  0.
    1000022    2    1    0    0    0  0.50022276220E+01 -0.21212761663E+02 -0.57716949660E+02  0.62500002188E+02  0.10000022845E+02 0.  0.
    3000022    2    5    5    0    0  0.61743841241E+01 -0.11494151831E+02 -0.23318095449E+02  0.26721426211E+02  0.24999549698E+00 0.  0.
        -13    1    4    4    0    0 -0.31396121128E+01  0.10403502858E+02  0.36909033547E+02  0.38475678270E+02  0.10500000000E+00 0. -1.
         13    1    4    4    0    0 -0.94562597610E+00  0.31079460936E+01  0.11058265521E+02  0.11526048705E+02  0.10500000000E+00 0.  1.
    3000001    1    5    5    0    0 -0.11721565021E+01 -0.97186098320E+01 -0.34398854211E+02  0.35778575977E+02  0.10000000000E+01 0.  1.
        -13    1    6    6    0    0  0.38953433000E+01 -0.71793447146E+01 -0.14697553243E+02  0.16815046425E+02  0.10500000000E+00 0.  1.
         13    1    6    6    0    0  0.22790408241E+01 -0.43148071162E+01 -0.86205422067E+01  0.99063797860E+01  0.10500000000E+00 0. -1.
</event>
<event>
11    0  0.3515428E-009  0.9118800E+02  0.7816531E-02  0.1126479E+00
         25   -1    0    0    0    0  0.00000000000E+00  0.00000000000E+00  0.99999998245E-14  0.12500000000E+03  0.12500000000E+03 0.  0.
    3000001    1    3    3    0    0  0.33908146040E+01 -0.34791370492E+01  0.38549669526E+02  0.38867454751E+02  0.10000000000E+01 0. -1.
    1000022    2    1    0    0    0  0.11739411986E+02 -0.95274041190E+01  0.59813583822E+02  0.62499999356E+02  0.99999943441E+01 0.  0.
    3000022    2    3    3    0    0  0.83485973818E+01 -0.60482670698E+01  0.21263914296E+02  0.23632544605E+02  0.25000104544E+00 0.  0.
    1000022    2    1    0    0    0 -0.11739411986E+02  0.95274041190E+01 -0.59813583822E+02  0.62500000644E+02  0.10000002396E+02 0.  0.
    3000022    2    5    5    0    0 -0.12429525452E+02  0.51183065147E+01 -0.47439332678E+02  0.49307635820E+02  0.25000144335E+00 0.  0.
        -13    1    4    4    0    0  0.48847706668E+01 -0.35836109376E+01  0.12373210787E+02  0.13777177577E+02  0.10500000000E+00 0. -1.
         13    1    4    4    0    0  0.34638267151E+01 -0.24646561322E+01  0.88907035091E+01  0.98553670276E+01  0.10500000000E+00 0.  1.
    3000001    1    5    5    0    0  0.69011346595E+00  0.44090976043E+01 -0.12374251144E+02  0.13192364824E+02  0.10000000000E+01 0.  1.
        -13    1    6    6    0    0 -0.83325874899E+01  0.34878316012E+01 -0.31862121216E+02  0.33118012877E+02  0.10500000000E+00 0.  1.
         13    1    6    6    0    0 -0.40969379618E+01  0.16304749135E+01 -0.15577211461E+02  0.16189622943E+02  0.10500000000E+00 0. -1.
</event>
<event>
11    0  0.3515428E-009  0.9118800E+02  0.7816531E-02  0.1126479E+00
         25   -1    0    0    0    0  0.00000000000E+00  0.00000000000E+00  0.99999998245E-14  0.12500000000E+03  0.12500000000E+03 0.  0.
    3000001    1    3    3    0    0 -0.84098355915E+01 -0.48050991722E+01  0.23058863174E+01  0.10006569064E+02  0.10000000000E+01 0. -1.
    1000022    2    1    0    0    0 -0.59074291967E+02 -0.17577204152E+02 -0.27423125477E+01  0.62500003076E+02  0.10000001458E+02 0.  0.
    3000022    2    3    3    0    0 -0.50664456376E+02 -0.12772104980E+02 -0.50481988652E+01  0.52493434012E+02  0.24999418247E+00 0.  0.
    1000022    2    1    0    0    0  0.59074291967E+02  0.17577204152E+02  0.27423125477E+01  0.62499996924E+02  0.99999630077E+01 0.  0.
    3000022    2    5    5    0    0  0.81959446586E+01 -0.73239877176E+00  0.17108754696E+01  0.84083002735E+01  0.25000361668E+00 0.  0.
        -13    1    4    4    0    0 -0.20066136753E+02 -0.51228756370E+01 -0.19951506760E+01  0.20805897006E+02  0.10500000000E+00 0. -1.
         13    1    4    4    0    0 -0.30598319623E+02 -0.76492293428E+01 -0.30530481892E+01  0.31687537006E+02  0.10500000000E+00 0.  1.
    3000001    1    5    5    0    0  0.50878347309E+02  0.18309602924E+02  0.10314370781E+01  0.54091696651E+02  0.10000000000E+01 0.  1.
        -13    1    6    6    0    0  0.28847306770E+01 -0.24745090792E+00  0.54513174473E+00  0.29480665952E+01  0.10500000000E+00 0.  1.
         13    1    6    6    0    0  0.53112139816E+01 -0.48494786384E+00  0.11657437249E+01  0.54602336783E+01  0.10500000000E+00 0. -1.
</event>
<event>
11    0  0.3515428E-009  0.9118800E+02  0.7816531E-02  0.1126479E+00
         25   -1    0    0    0    0  0.00000000000E+00  0.00000000000E+00  0.99999998245E-14  0.12500000000E+03  0.12500000000E+03 0.  0.
    3000001    1    3    3    0    0  0.37137381654E+02 -0.41048874107E+02  0.16595819635E+02  0.57798065806E+02  0.10000000000E+01 0.  1.
    1000022    2    1    0    0    0  0.39757734149E+02 -0.44672375586E+02  0.15164151015E+02  0.62499999970E+02  0.99999977528E+01 0.  0.
    3000022    2    3    3    0    0  0.26203524947E+01 -0.36235014790E+01 -0.14316686192E+01  0.47019341637E+01  0.24999935984E+00 0.  0.
    1000022    2    1    0    0    0 -0.39757734149E+02  0.44672375586E+02 -0.15164151015E+02  0.62500000030E+02  0.99999981316E+01 0.  0.
    3000022    2    5    5    0    0 -0.33205912397E+02  0.34421515252E+02 -0.84512661906E+01  0.48569123226E+02  0.25000082708E+00 0.  0.
        -13    1    4    4    0    0  0.10107343016E+01 -0.15039402940E+01 -0.59349103060E+00  0.19096274086E+01  0.10500000000E+00 0.  1.
         13    1    4    4    0    0  0.16096181931E+01 -0.21195611849E+01 -0.83817758857E+00  0.27923067550E+01  0.10500000000E+00 0. -1.
    3000001    1    5    5    0    0 -0.65518217525E+01  0.10250860334E+02 -0.67128848248E+01  0.13930876804E+02  0.10000000000E+01 0. -1.
        -13    1    6    6    0    0 -0.12867627727E+02  0.13397054202E+02 -0.33298066920E+01  0.18872083674E+02  0.10500000000E+00 0. -1.
         13    1    6    6    0    0 -0.20338284670E+02  0.21024461050E+02 -0.51214594985E+01  0.29697039552E+02  0.10500000000E+00 0.  1.
</event>
<event>
11    0  0.3515428E-009  0.9118800E+02  0.7816531E-02  0.1126479E+00
         25   -1    0    0    0    0  0.00000000000E+00  0.00000000000E+00  0.99999998245E-14  0.12500000000E+03  0.12500000000E+03 0.  0.
    3000001    1    3    3    0    0  0.33191448288E+02  0.39298420790E+02 -0.26502695241E+02  0.57874268644E+02  0.10000000000E+01 0.  1.
    1000022    2    1    0    0    0  0.35017937080E+02  0.40582241684E+02 -0.30546287312E+02  0.62500000603E+02  0.10000007466E+02 0.  0.
    3000022    2    3    3    0    0  0.18264887925E+01  0.12838208942E+01 -0.40435920714E+01  0.46257319590E+01  0.25000383893E+00 0.  0.
    1000022    2    1    0    0    0 -0.35017937080E+02 -0.40582241684E+02  0.30546287312E+02  0.62499999397E+02  0.99999999341E+01 0.  0.
    3000022    2    5    5    0    0 -0.79792332219E+01 -0.16367696903E+02  0.97747178536E+01  0.20668267626E+02  0.25002559096E+00 0.  0.
        -13    1    4    4    0    0  0.44326143091E+00  0.29517004169E+00 -0.10063362334E+01  0.11433912997E+01  0.10500000000E+00 0.  1.
         13    1    4    4    0    0  0.13832273616E+01  0.98865085252E+00 -0.30372558380E+01  0.34823406593E+01  0.10500000000E+00 0. -1.
    3000001    1    5    5    0    0 -0.27038703858E+02 -0.24214544781E+02  0.20771569458E+02  0.41831731772E+02  0.10000000000E+01 0. -1.
        -13    1    6    6    0    0 -0.56844935992E+01 -0.11646067884E+02  0.70038905705E+01  0.14731254962E+02  0.10500000000E+00 0.  1.
         13    1    6    6    0    0 -0.22947396227E+01 -0.47216290195E+01  0.27708272831E+01  0.59370126635E+01  0.10500000000E+00 0. -1.
</event>
<event>
11    0  0.3515428E-009  0.9118800E+02  0.7816531E-02  0.1126479E+00
         25   -1    0    0    0    0  0.00000000000E+00  0.00000000000E+00  0.99999998245E-14  0.12500000000E+03  0.12500000000E+03 0.  0.
    3000001    1    3    3    0    0 -0.38223866179E+02  0.18583729854E+01  0.17069581987E+02  0.41915249313E+02  0.10000000000E+01 0. -1.
    1000022    2    1    0    0    0 -0.58003109296E+02 -0.23697586448E+01  0.20887167105E+02  0.62500001021E+02  0.99999966976E+01 0.  0.
    3000022    2    3    3    0    0 -0.19779243118E+02 -0.42281316303E+01  0.38175851178E+01  0.20584751708E+02  0.24998272325E+00 0.  0.
    1000022    2    1    0    0    0  0.58003109296E+02  0.23697586448E+01 -0.20887167105E+02  0.62499998979E+02  0.99999839300E+01 0.  0.
    3000022    2    5    5    0    0  0.24682762686E+02 -0.36517913514E+01 -0.72649178247E+01  0.25988764570E+02  0.24999798829E+00 0.  0.
        -13    1    4    4    0    0 -0.12503960084E+02 -0.26393739014E+01  0.24622079820E+01  0.13014945467E+02  0.10500000000E+00 0.  1.
         13    1    4    4    0    0 -0.72752830335E+01 -0.15887577289E+01  0.13553771357E+01  0.75698062405E+01  0.10500000000E+00 0. -1.
    3000001    1    5    5    0    0  0.33320346610E+02  0.60215499962E+01 -0.13622249280E+02  0.36511234408E+02  0.10000000000E+01 0. -1.
        -13    1    6    6    0    0  0.91683129081E+01 -0.14001063162E+01 -0.26574666819E+01  0.96483891631E+01  0.10500000000E+00 0. -1.
         13    1    6    6    0    0  0.15514449778E+02 -0.22516850353E+01 -0.46074511429E+01  0.16340375407E+02  0.10500000000E+00 0.  1.
</event>
<event>
11    0  0.3515428E-009  0.9118800E+02  0.7816531E-02  0.1126479E+00
         25   -1    0    0    0    0  0.00000000000E+00  0.00000000000E+00  0.99999998245E-14  0.12500000000E+03  0.12500000000E+03 0.  0.
    3000001    1    3    3    0    0  0.21637810046E+02  0.38809006071E+02  0.29562323006E+02  0.53378504262E+02  0.10000000000E+01 0.  1.
    1000022    2    1    0    0    0  0.24960362045E+02  0.47190225507E+02  0.30924309641E+02  0.62500000100E+02  0.10000001443E+02 0.  0.
    3000022    2    3    3    0    0  0.33225519998E+01  0.83812194357E+01  0.13619866355E+01  0.91214958373E+01  0.24997538592E+00 0.  0.
    1000022    2    1    0    0    0 -0.24960362045E+02 -0.47190225507E+02 -0.30924309641E+02  0.62499999900E+02  0.10000000196E+02 0.  0.
    3000022    2    5    5    0    0 -0.23665970233E+02 -0.45356933545E+02 -0.26942495193E+02  0.57821190662E+02  0.24994949303E+00 0.  0.
        -13    1    4    4    0    0  0.18605418092E+01  0.46262194322E+01  0.69077543460E+00  0.50350489332E+01  0.10500000000E+00 0. -1.
         13    1    4    4    0    0  0.14620101906E+01  0.37550000035E+01  0.67121120089E+00  0.40864469041E+01  0.10500000000E+00 0.  1.
    3000001    1    5    5    0    0 -0.12943918127E+01 -0.18332919623E+01 -0.39818144487E+01  0.46788092383E+01  0.10000000000E+01 0. -1.
        -13    1    6    6    0    0 -0.17769868938E+02 -0.34077088370E+02 -0.20212592236E+02  0.43423220789E+02  0.10500000000E+00 0. -1.
         13    1    6    6    0    0 -0.58961012947E+01 -0.11279845175E+02 -0.67299029567E+01  0.14397969873E+02  0.10500000000E+00 0.  1.
</event>
<event>
11    0  0.3515428E-009  0.9118800E+02  0.7816531E-02  0.1126479E+00
         25   -1    0    0    0    0  0.00000000000E+00  0.00000000000E+00  0.99999998245E-14  0.12500000000E+03  0.12500000000E+03 0.  0.
    3000001    1    3    3    0    0 -0.44013427307E+02  0.25960372310E+02  0.14366005549E+02  0.53089592475E+02  0.10000000000E+01 0. -1.
    1000022    2    1    0    0    0 -0.52324653668E+02  0.26816425028E+02  0.18688499398E+02  0.62499999582E+02  0.99999952613E+01 0.  0.
    3000022    2    3    3    0    0 -0.83112263612E+01  0.85605271749E+00  0.43224938486E+01  0.94104071062E+01  0.24999790089E+00 0.  0.
    1000022    2    1    0    0    0  0.52324653668E+02 -0.26816425028E+02 -0.18688499398E+02  0.62500000418E+02  0.10000000491E+02 0.  0.
    3000022    2    5    5    0    0  0.44608324784E+02 -0.22029683530E+02 -0.12002682187E+02  0.51179453727E+02  0.25001528941E+00 0.  0.
        -13    1    4    4    0    0 -0.22536792811E+01  0.21660987318E+00  0.12092545939E+01  0.25689125739E+01  0.10500000000E+00 0.  1.
         13    1    4    4    0    0 -0.60575470801E+01  0.63944284431E+00  0.31132392547E+01  0.68414945323E+01  0.10500000000E+00 0. -1.
    3000001    1    5    5    0    0  0.77163288834E+01 -0.47867414982E+01 -0.66858172113E+01  0.11320546691E+02  0.10000000000E+01 0. -1.
        -13    1    6    6    0    0  0.13378312528E+02 -0.65782024636E+01 -0.35577297001E+01  0.15327115168E+02  0.10500000000E+00 0. -1.
         13    1    6    6    0    0  0.31230012257E+02 -0.15451481066E+02 -0.84449524864E+01  0.35852338559E+02  0.10500000000E+00 0.  1.
</event>
<event>
11    0  0.3515428E-009  0.9118800E+02  0.7816531E-02  0.1126479E+00
         25   -1    0    0    0    0  0.00000000000E+00  0.00000000000E+00  0.99999998245E-14  0.12500000000E+03  0.12500000000E+03 0.  0.
    3000001    1    3    3    0    0  0.24078161149E+02 -0.25235516943E+02  0.16875062672E+02  0.38760248965E+02  0.10000000000E+01 0. -1.
    1000022    2    1    0    0    0  0.33794067383E+02 -0.39668752241E+02  0.33024248571E+02  0.62500000876E+02  0.10000011055E+02 0.  0.
    3000022    2    3    3    0    0  0.97159062346E+01 -0.14433235298E+02  0.16149185900E+02  0.23739751911E+02  0.25000083689E+00 0.  0.
    1000022    2    1    0    0    0 -0.33794067383E+02  0.39668752241E+02 -0.33024248571E+02  0.62499999124E+02  0.10000000107E+02 0.  0.
    3000022    2    5    5    0    0 -0.21399466540E+02  0.18307972120E+02 -0.20166105630E+02  0.34638899050E+02  0.24999955810E+00 0.  0.
        -13    1    4    4    0    0  0.30070430669E+01 -0.45130440265E+01  0.49775182524E+01  0.73618331511E+01  0.10500000000E+00 0. -1.
         13    1    4    4    0    0  0.67088631677E+01 -0.99201912717E+01  0.11171667647E+02  0.16377918759E+02  0.10500000000E+00 0.  1.
    3000001    1    5    5    0    0 -0.12394600844E+02  0.21360780121E+02 -0.12858142942E+02  0.27861100074E+02  0.10000000000E+01 0. -1.
        -13    1    6    6    0    0 -0.12155120777E+02  0.10451325365E+02 -0.11414524575E+02  0.19679419688E+02  0.10500000000E+00 0.  1.
         13    1    6    6    0    0 -0.92443457629E+01  0.78566467558E+01 -0.87515810547E+01  0.14959479362E+02  0.10500000000E+00 0. -1.
</event>
<event>
11    0  0.3515428E-009  0.9118800E+02  0.7816531E-02  0.1126479E+00
         25   -1    0    0    0    0  0.00000000000E+00  0.00000000000E+00  0.99999998245E-14  0.12500000000E+03  0.12500000000E+03 0.  0.
    3000001    1    3    3    0    0 -0.15641539940E+02 -0.25989622289E+02  0.37021326654E+02  0.47871670805E+02  0.10000000000E+01 0. -1.
    1000022    2    1    0    0    0 -0.16115446789E+02 -0.31401877541E+02  0.50601031943E+02  0.62499999289E+02  0.99999969550E+01 0.  0.
    3000022    2    3    3    0    0 -0.47390684850E+00 -0.54122552513E+01  0.13579705289E+02  0.14628328484E+02  0.25000775962E+00 0.  0.
    1000022    2    1    0    0    0  0.16115446789E+02  0.31401877541E+02 -0.50601031943E+02  0.62500000711E+02  0.10000005848E+02 0.  0.
    3000022    2    5    5    0    0  0.12841699339E+02  0.30130404423E+02 -0.47562809962E+02  0.57749752395E+02  0.24999536644E+00 0.  0.
        -13    1    4    4    0    0 -0.25503527266E+00 -0.29507408730E+01  0.72218991565E+01  0.78063286580E+01  0.10500000000E+00 0. -1.
         13    1    4    4    0    0 -0.21887157584E+00 -0.24615143782E+01  0.63578061326E+01  0.68219998257E+01  0.10500000000E+00 0.  1.
    3000001    1    5    5    0    0  0.32737474500E+01  0.12714731173E+01 -0.30382219815E+01  0.47502483160E+01  0.10000000000E+01 0. -1.
        -13    1    6    6    0    0  0.75641543988E+01  0.17637773365E+02 -0.27952995169E+02  0.33907055976E+02  0.10500000000E+00 0. -1.
         13    1    6    6    0    0  0.52775449398E+01  0.12492631058E+02 -0.19609814793E+02  0.23842696420E+02  0.10500000000E+00 0.  1.
</event>
<event>
11    0  0.3515428E-009  0.9118800E+02  0.7816531E-02  0.1126479E+00
         25   -1    0    0    0    0  0.00000000000E+00  0.00000000000E+00  0.99999998245E-14  0.12500000000E+03  0.12500000000E+03 0.  0.
    3000001    1    3    3    0    0  0.79286266823E+00  0.19811920449E+01  0.10548850429E+01  0.25819635131E+01  0.10000000000E+01 0.  1.
    1000022    2    1    0    0    0  0.46294444650E+02  0.17956037747E+02  0.36614954237E+02  0.62499996509E+02  0.99999896385E+01 0.  0.
    3000022    2    3    3    0    0  0.45501581982E+02  0.15974845702E+02  0.35560069195E+02  0.59918032995E+02  0.24999780516E+00 0.  0.
    1000022    2    1    0    0    0 -0.46294444650E+02 -0.17956037747E+02 -0.36614954237E+02  0.62500003491E+02  0.10000033281E+02 0.  0.
    3000022    2    5    5    0    0 -0.12695853904E+02 -0.16578727291E+01 -0.13309924851E+02  0.18470242218E+02  0.24999947272E+00 0.  0.
        -13    1    4    4    0    0  0.33487152611E+02  0.11778253437E+02  0.26142660836E+02  0.44085897798E+02  0.10500000000E+00 0.  1.
         13    1    4    4    0    0  0.12014429370E+02  0.41965922645E+01  0.94174083587E+01  0.15832135198E+02  0.10500000000E+00 0. -1.
    3000001    1    5    5    0    0 -0.33598590746E+02 -0.16298165018E+02 -0.23305029387E+02  0.44029761273E+02  0.10000000000E+01 0. -1.
        -13    1    6    6    0    0 -0.49042561678E+01 -0.64982320316E+00 -0.50554987896E+01  0.70741142036E+01  0.10500000000E+00 0. -1.
         13    1    6    6    0    0 -0.77915977362E+01 -0.10080495260E+01 -0.82544260610E+01  0.11396128015E+02  0.10500000000E+00 0.  1.
</event>
<event>
11    0  0.3515428E-009  0.9118800E+02  0.7816531E-02  0.1126479E+00
         25   -1    0    0    0    0  0.00000000000E+00  0.00000000000E+00  0.99999998245E-14  0.12500000000E+03  0.12500000000E+03 0.  0.
    3000001    1    3    3    0    0 -0.12989622206E+02  0.59020921812E+01  0.33667125576E+02  0.36579233476E+02  0.10000000000E+01 0. -1.
    1000022    2    1    0    0    0 -0.27216434805E+02  0.38331824760E+01  0.55234252297E+02  0.62499998125E+02  0.99999763670E+01 0.  0.
    3000022    2    3    3    0    0 -0.14226812600E+02 -0.20689097052E+01  0.21567126721E+02  0.25920764649E+02  0.25000166657E+00 0.  0.
    1000022    2    1    0    0    0  0.27216434805E+02 -0.38331824760E+01 -0.55234252297E+02  0.62500001875E+02  0.99999998091E+01 0.  0.
    3000022    2    5    5    0    0  0.13520383283E+02 -0.65255354463E+01 -0.32556747338E+02  0.35852303607E+02  0.24999945011E+00 0.  0.
        -13    1    4    4    0    0 -0.95173992480E+01 -0.13307884253E+01  0.14402650993E+02  0.17314712441E+02  0.10500000000E+00 0. -1.
         13    1    4    4    0    0 -0.47094133518E+01 -0.73812127988E+00  0.71644757282E+01  0.86060522078E+01  0.10500000000E+00 0.  1.
    3000001    1    5    5    0    0  0.13696051523E+02  0.26923529704E+01 -0.22677504959E+02  0.26647698268E+02  0.10000000000E+01 0. -1.
        -13    1    6    6    0    0  0.10266260011E+02 -0.49401217984E+01 -0.24668072748E+02  0.27172150009E+02  0.10500000000E+00 0. -1.
         13    1    6    6    0    0  0.32541232723E+01 -0.15854136480E+01 -0.78886745900E+01  0.86801535985E+01  0.10500000000E+00 0.  1.
</event>
<event>
11    0  0.3515428E-009  0.9118800E+02  0.7816531E-02  0.1126479E+00
         25   -1    0    0    0    0  0.00000000000E+00  0.00000000000E+00  0.99999998245E-14  0.12500000000E+03  0.12500000000E+03 0.  0.
    3000001    1    3    3    0    0 -0.25451528482E+01 -0.35079735946E+01  0.53710812313E+01  0.69736787533E+01  0.10000000000E+01 0. -1.
    1000022    2    1    0    0    0  0.28143340575E+01 -0.27307013051E+02  0.55250850655E+02  0.62499999320E+02  0.99999989503E+01 0.  0.
    3000022    2    3    3    0    0  0.53594869057E+01 -0.23799039456E+02  0.49879769424E+02  0.55526320567E+02  0.24999805703E+00 0.  0.
    1000022    2    1    0    0    0 -0.28143340575E+01  0.27307013051E+02 -0.55250850655E+02  0.62500000680E+02  0.10000007445E+02 0.  0.
    3000022    2    5    5    0    0  0.16297260599E+00  0.21069224405E+02 -0.32775017875E+02  0.38964125482E+02  0.25000155690E+00 0.  0.
        -13    1    4    4    0    0  0.20759413760E+01 -0.94816554453E+01  0.19902022719E+02  0.22143009187E+02  0.10500000000E+00 0.  1.
         13    1    4    4    0    0  0.32835455297E+01 -0.14317384011E+02  0.29977746705E+02  0.33383311380E+02  0.10500000000E+00 0. -1.
    3000001    1    5    5    0    0 -0.29773066635E+01  0.62377886459E+01 -0.22475832780E+02  0.23535875198E+02  0.10000000000E+01 0. -1.
        -13    1    6    6    0    0  0.12900861656E+00  0.10064557521E+02 -0.15738717270E+02  0.18682350163E+02  0.10500000000E+00 0. -1.
         13    1    6    6    0    0  0.33963989433E-01  0.11004666884E+02 -0.17036300605E+02  0.20281775319E+02  0.10500000000E+00 0.  1.
</event>
<event>
11    0  0.3515428E-009  0.9118800E+02  0.7816531E-02  0.1126479E+00
         25   -1    0    0    0    0  0.00000000000E+00  0.00000000000E+00  0.99999998245E-14  0.12500000000E+03  0.12500000000E+03 0.  0.
    3000001    1    3    3    0    0 -0.12267007742E+02 -0.86976543581E+01 -0.17814365725E+02  0.23334101578E+02  0.10000000000E+01 0.  1.
    1000022    2    1    0    0    0 -0.39061064796E+02 -0.12238822032E+02 -0.46159448922E+02  0.62500000239E+02  0.99999878662E+01 0.  0.
    3000022    2    3    3    0    0 -0.26794057054E+02 -0.35411676739E+01 -0.28345083197E+02  0.39165898661E+02  0.25002906660E+00 0.  0.
    1000022    2    1    0    0    0  0.39061064796E+02  0.12238822032E+02  0.46159448922E+02  0.62499999761E+02  0.99999848770E+01 0.  0.
    3000022    2    5    5    0    0  0.12662997315E+02  0.68668509413E+01  0.22017400404E+02  0.26312231844E+02  0.24996240387E+00 0.  0.
        -13    1    4    4    0    0 -0.14315257794E+02 -0.19344810971E+01 -0.15073688160E+02  0.20878120667E+02  0.10500000000E+00 0.  1.
         13    1    4    4    0    0 -0.12478799260E+02 -0.16066865768E+01 -0.13271395037E+02  0.18287777994E+02  0.10500000000E+00 0. -1.
    3000001    1    5    5    0    0  0.26398067481E+02  0.53719710907E+01  0.24142048518E+02  0.36187767917E+02  0.10000000000E+01 0.  1.
        -13    1    6    6    0    0  0.62159529305E+01  0.33949607144E+01  0.10942973094E+02  0.13035471385E+02  0.10500000000E+00 0. -1.
         13    1    6    6    0    0  0.64470443844E+01  0.34718902269E+01  0.11074427311E+02  0.13276760460E+02  0.10500000000E+00 0.  1.
</event>
<event>
11    0  0.3515428E-009  0.9118800E+02  0.7816531E-02  0.1126479E+00
         25   -1    0    0    0    0  0.00000000000E+00  0.00000000000E+00  0.99999998245E-14  0.12500000000E+03  0.12500000000E+03 0.  0.
    3000001    1    3    3    0    0  0.11225194379E+02  0.15605260906E+02 -0.12677223490E+02  0.23048669207E+02  0.10000000000E+01 0.  1.
    1000022    2    1    0    0    0  0.34345087012E+02  0.31581234554E+02 -0.40364473031E+02  0.62499999431E+02  0.99999934001E+01 0.  0.
    3000022    2    3    3    0    0  0.23119892632E+02  0.15975973649E+02 -0.27687249541E+02  0.39451330224E+02  0.24999994657E+00 0.  0.
    1000022    2    1    0    0    0 -0.34345087012E+02 -0.31581234554E+02  0.40364473031E+02  0.62500000569E+02  0.10000000508E+02 0.  0.
    3000022    2    5    5    0    0 -0.25244463161E+02 -0.17249855511E+02  0.23652225617E+02  0.38656573940E+02  0.24999339341E+00 0.  0.
        -13    1    4    4    0    0  0.12315933050E+02  0.85555472776E+01 -0.14695414871E+02  0.20996329187E+02  0.10500000000E+00 0.  1.
         13    1    4    4    0    0  0.10803959582E+02  0.74204263711E+01 -0.12991834670E+02  0.18455001037E+02  0.10500000000E+00 0. -1.
    3000001    1    5    5    0    0 -0.91006238509E+01 -0.14331379043E+02  0.16712247415E+02  0.23843426629E+02  0.10000000000E+01 0.  1.
        -13    1    6    6    0    0 -0.10994955860E+02 -0.75652328177E+01  0.10261330447E+02  0.16835311981E+02  0.10500000000E+00 0.  1.
         13    1    6    6    0    0 -0.14249507301E+02 -0.96846226932E+01  0.13390895170E+02  0.21821261959E+02  0.10500000000E+00 0. -1.
</event>
<event>
11    0  0.3515428E-009  0.9118800E+02  0.7816531E-02  0.1126479E+00
         25   -1    0    0    0    0  0.00000000000E+00  0.00000000000E+00  0.99999998245E-14  0.12500000000E+03  0.12500000000E+03 0.  0.
    3000001    1    3    3    0    0 -0.56405732448E+01  0.23483008640E+02  0.17831677232E+02  0.30037251443E+02  0.10000000000E+01 0.  1.
    1000022    2    1    0    0    0 -0.15976550135E+02  0.52375784821E+02  0.28421419453E+02  0.62500000418E+02  0.99999989332E+01 0.  0.
    3000022    2    3    3    0    0 -0.10335976891E+02  0.28892776181E+02  0.10589742221E+02  0.32462748975E+02  0.24999398054E+00 0.  0.
    1000022    2    1    0    0    0  0.15976550135E+02 -0.52375784821E+02 -0.28421419453E+02  0.62499999582E+02  0.99999937111E+01 0.  0.
    3000022    2    5    5    0    0  0.15525737169E+02 -0.39154812814E+02 -0.18882069271E+02  0.46159970971E+02  0.24999779231E+00 0.  0.
        -13    1    4    4    0    0 -0.77059178397E+01  0.21512555905E+02  0.78564511832E+01  0.24164148682E+02  0.10500000000E+00 0.  1.
         13    1    4    4    0    0 -0.26300590509E+01  0.73802202759E+01  0.27332910376E+01  0.82986002934E+01  0.10500000000E+00 0. -1.
    3000001    1    5    5    0    0  0.45081296609E+00 -0.13220972007E+02 -0.95393501819E+01  0.16340028612E+02  0.10000000000E+01 0. -1.
        -13    1    6    6    0    0  0.93922218651E+01 -0.23821124052E+02 -0.11437485939E+02  0.28044373629E+02  0.10500000000E+00 0.  1.
         13    1    6    6    0    0  0.61335153042E+01 -0.15333688762E+02 -0.74445833326E+01  0.18115597341E+02  0.10500000000E+00 0. -1.
</event>
<event>
11    0  0.3515428E-009  0.9118800E+02  0.7816531E-02  0.1126479E+00
         25   -1    0    0    0    0  0.00000000000E+00  0.00000000000E+00  0.99999998245E-14  0.12500000000E+03  0.12500000000E+03 0.  0.
    3000001    1    3    3    0    0 -0.14926122885E+02  0.14834385855E+02  0.57697702243E+02  0.61423716854E+02  0.10000000000E+01 0. -1.
    1000022    2    1    0    0    0 -0.14167271179E+02  0.14421126643E+02  0.58288672982E+02  0.62499999942E+02  0.10000006420E+02 0.  0.
    3000022    2    3    3    0    0  0.75885170597E+00 -0.41325921229E+00  0.59097073954E+00  0.10762830879E+01  0.24999956411E+00 0.  0.
    1000022    2    1    0    0    0  0.14167271179E+02 -0.14421126643E+02 -0.58288672982E+02  0.62500000058E+02  0.10000007142E+02 0.  0.
    3000022    2    5    5    0    0  0.95816386550E+01 -0.97971631136E+01 -0.24483872008E+02  0.28059128505E+02  0.24999917087E+00 0.  0.
        -13    1    4    4    0    0  0.43695354979E+00 -0.16711489742E+00  0.28489355939E+00  0.55771420440E+00  0.10500000000E+00 0.  1.
         13    1    4    4    0    0  0.32189815618E+00 -0.24614431487E+00  0.30607718015E+00  0.51856888347E+00  0.10500000000E+00 0. -1.
    3000001    1    5    5    0    0  0.45856325242E+01 -0.46239635293E+01 -0.33804800975E+02  0.34440871552E+02  0.10000000000E+01 0. -1.
        -13    1    6    6    0    0  0.58038132561E+01 -0.60206401360E+01 -0.14968804985E+02  0.17146676168E+02  0.10500000000E+00 0. -1.
         13    1    6    6    0    0  0.37778253990E+01 -0.37765229776E+01 -0.95150670233E+01  0.10912452337E+02  0.10500000000E+00 0.  1.
</event>
<event>
11    0  0.3515428E-009  0.9118800E+02  0.7816531E-02  0.1126479E+00
         25   -1    0    0    0    0  0.00000000000E+00  0.00000000000E+00  0.99999998245E-14  0.12500000000E+03  0.12500000000E+03 0.  0.
    3000001    1    3    3    0    0  0.11542708266E+02 -0.43453628163E+02 -0.27351693348E+02  0.52636176187E+02  0.10000000000E+01 0. -1.
    1000022    2    1    0    0    0  0.10695690328E+02 -0.49732359404E+02 -0.34907657590E+02  0.62499999127E+02  0.99999984471E+01 0.  0.
    3000022    2    3    3    0    0 -0.84701793790E+00 -0.62787312417E+01 -0.75559642421E+01  0.98638229398E+01  0.25000393642E+00 0.  0.
    1000022    2    1    0    0    0 -0.10695690328E+02  0.49732359404E+02  0.34907657590E+02  0.62500000873E+02  0.10000009360E+02 0.  0.
    3000022    2    5    5    0    0 -0.81252875271E+01  0.16800902853E+02  0.10482021086E+02  0.21406211564E+02  0.24998681327E+00 0.  0.
        -13    1    4    4    0    0 -0.33105284168E+00 -0.28225710420E+01 -0.33197269238E+01  0.43712830062E+01  0.10500000000E+00 0.  1.
         13    1    4    4    0    0 -0.51596509623E+00 -0.34561601997E+01 -0.42362373183E+01  0.54925399337E+01  0.10500000000E+00 0. -1.
    3000001    1    5    5    0    0 -0.25704028011E+01  0.32931456551E+02  0.24425636503E+02  0.41093789309E+02  0.10000000000E+01 0. -1.
        -13    1    6    6    0    0 -0.40421714426E+01  0.84424832055E+01  0.51918789766E+01  0.10704265736E+02  0.10500000000E+00 0.  1.
         13    1    6    6    0    0 -0.40831160845E+01  0.83584196475E+01  0.52901421096E+01  0.10701945828E+02  0.10500000000E+00 0. -1.
</event>
<event>
11    0  0.3515428E-009  0.9118800E+02  0.7816531E-02  0.1126479E+00
         25   -1    0    0    0    0  0.00000000000E+00  0.00000000000E+00  0.99999998245E-14  0.12500000000E+03  0.12500000000E+03 0.  0.
    3000001    1    3    3    0    0 -0.60840055640E+01 -0.44471043346E+02  0.36422175106E+01  0.45043918218E+02  0.10000000000E+01 0. -1.
    1000022    2    1    0    0    0 -0.12473635376E+02 -0.60418106019E+02  0.55739933839E+00  0.62499999041E+02  0.10000003587E+02 0.  0.
    3000022    2    3    3    0    0 -0.63896298118E+01 -0.15947062673E+02 -0.30848181722E+01  0.17456080824E+02  0.24995508790E+00 0.  0.
    1000022    2    1    0    0    0  0.12473635376E+02  0.60418106019E+02 -0.55739933839E+00  0.62500000959E+02  0.10000015568E+02 0.  0.
    3000022    2    5    5    0    0 -0.12649608321E+01  0.11580004834E+02  0.12903741723E+01  0.11722807061E+02  0.25000405601E+00 0.  0.
        -13    1    4    4    0    0 -0.16369278884E+01 -0.40586262960E+01 -0.75838518281E+00  0.44427641629E+01  0.10500000000E+00 0.  1.
         13    1    4    4    0    0 -0.47527019234E+01 -0.11888436377E+02 -0.23264329894E+01  0.13013316661E+02  0.10500000000E+00 0. -1.
    3000001    1    5    5    0    0  0.13738596208E+02  0.48838101185E+02 -0.18477735107E+01  0.50777193898E+02  0.10000000000E+01 0. -1.
        -13    1    6    6    0    0 -0.61123493899E+00  0.50884991665E+01  0.53083657985E+00  0.51535661820E+01  0.10500000000E+00 0. -1.
         13    1    6    6    0    0 -0.65372589311E+00  0.64915056673E+01  0.75953759244E+00  0.65692408790E+01  0.10500000000E+00 0.  1.
</event>
<event>
11    0  0.3515428E-009  0.9118800E+02  0.7816531E-02  0.1126479E+00
         25   -1    0    0    0    0  0.00000000000E+00  0.00000000000E+00  0.99999998245E-14  0.12500000000E+03  0.12500000000E+03 0.  0.
    3000001    1    3    3    0    0 -0.14453611003E+02  0.15355111312E+01 -0.24719093698E+02  0.28693174428E+02  0.10000000000E+01 0.  1.
    1000022    2    1    0    0    0 -0.33457502678E+02 -0.69078632229E+01 -0.51372433326E+02  0.62500000016E+02  0.10000001818E+02 0.  0.
    3000022    2    3    3    0    0 -0.19003891675E+02 -0.84433743541E+01 -0.26653339628E+02  0.33806825588E+02  0.24994751419E+00 0.  0.
    1000022    2    1    0    0    0  0.33457502678E+02  0.69078632229E+01  0.51372433326E+02  0.62499999984E+02  0.10000001621E+02 0.  0.
    3000022    2    5    5    0    0  0.16772579202E+02  0.42804564512E+01  0.17389064106E+02  0.24537395736E+02  0.25003701981E+00 0.  0.
        -13    1    4    4    0    0 -0.71180774083E+01 -0.30970935280E+01 -0.99437820169E+01  0.12615420727E+02  0.10500000000E+00 0.  1.
         13    1    4    4    0    0 -0.11885814267E+02 -0.53462808261E+01 -0.16709557611E+02  0.21191404861E+02  0.10500000000E+00 0. -1.
    3000001    1    5    5    0    0  0.16684923476E+02  0.26274067717E+01  0.33983369220E+02  0.37962604248E+02  0.10000000000E+01 0.  1.
        -13    1    6    6    0    0  0.10021508454E+02  0.24962282951E+01  0.10405687572E+02  0.14661212305E+02  0.10500000000E+00 0. -1.
         13    1    6    6    0    0  0.67510707476E+01  0.17842281561E+01  0.69833765344E+01  0.98761834315E+01  0.10500000000E+00 0.  1.
</event>
<event>
11    0  0.3515428E-009  0.9118800E+02  0.7816531E-02  0.1126479E+00
         25   -1    0    0    0    0  0.00000000000E+00  0.00000000000E+00  0.99999998245E-14  0.12500000000E+03  0.12500000000E+03 0.  0.
    3000001    1    3    3    0    0 -0.51310936577E+01 -0.18130776563E+02 -0.44861954353E+01  0.19395337852E+02  0.10000000000E+01 0.  1.
    1000022    2    1    0    0    0 -0.17045690670E+02 -0.59293054285E+02  0.16769390080E+00  0.62500000192E+02  0.10000002292E+02 0.  0.
    3000022    2    3    3    0    0 -0.11914597013E+02 -0.41162277722E+02  0.46538893361E+01  0.43104662340E+02  0.25000047992E+00 0.  0.
    1000022    2    1    0    0    0  0.17045690670E+02  0.59293054285E+02 -0.16769390080E+00  0.62499999808E+02  0.99999998941E+01 0.  0.
    3000022    2    5    5    0    0  0.11746908373E+02  0.27489084685E+02 -0.33670600406E+01  0.30083869258E+02  0.24992611557E+00 0.  0.
        -13    1    4    4    0    0 -0.74013786631E+01 -0.25741355067E+02  0.28718123286E+01  0.26938004711E+02  0.10500000000E+00 0. -1.
         13    1    4    4    0    0 -0.45132183495E+01 -0.15420922655E+02  0.17820770075E+01  0.16166657628E+02  0.10500000000E+00 0.  1.
    3000001    1    5    5    0    0  0.52987822975E+01  0.31803969600E+02  0.31993661398E+01  0.32416130550E+02  0.10000000000E+01 0. -1.
        -13    1    6    6    0    0  0.76728162568E+01  0.17842838508E+02 -0.22230375689E+01  0.19549729317E+02  0.10500000000E+00 0. -1.
         13    1    6    6    0    0  0.40740921159E+01  0.96462461775E+01 -0.11440224717E+01  0.10534139941E+02  0.10500000000E+00 0.  1.
</event>
<event>
11    0  0.3515428E-009  0.9118800E+02  0.7816531E-02  0.1126479E+00
         25   -1    0    0    0    0  0.00000000000E+00  0.00000000000E+00  0.99999998245E-14  0.12500000000E+03  0.12500000000E+03 0.  0.
    3000001    1    3    3    0    0 -0.28289458261E+01  0.10523827329E+02 -0.46038416213E+01  0.11872204253E+02  0.10000000000E+01 0.  1.
    1000022    2    1    0    0    0  0.51710100963E+01  0.56447861670E+02 -0.24354663971E+02  0.62500000052E+02  0.99999958416E+01 0.  0.
    3000022    2    3    3    0    0  0.79999559224E+01  0.45924034341E+02 -0.19750822349E+02  0.50627795799E+02  0.24999824777E+00 0.  0.
    1000022    2    1    0    0    0 -0.51710100963E+01 -0.56447861670E+02  0.24354663971E+02  0.62499999948E+02  0.99999951941E+01 0.  0.
    3000022    2    5    5    0    0 -0.40179735846E+01 -0.21557180869E+02  0.47096975284E+01  0.22429888812E+02  0.25000513291E+00 0.  0.
        -13    1    4    4    0    0  0.46409405371E+01  0.26884289153E+02 -0.11612470282E+02  0.29650696845E+02  0.10500000000E+00 0.  1.
         13    1    4    4    0    0  0.33590153853E+01  0.19039745188E+02 -0.81383520673E+01  0.20977098954E+02  0.10500000000E+00 0. -1.
    3000001    1    5    5    0    0 -0.11530365117E+01 -0.34890680801E+02  0.19644966442E+02  0.40070111136E+02  0.10000000000E+01 0. -1.
        -13    1    6    6    0    0 -0.24355458306E+01 -0.13393012120E+02  0.29121676835E+01  0.13921077643E+02  0.10500000000E+00 0.  1.
         13    1    6    6    0    0 -0.15824277540E+01 -0.81641687490E+01  0.17975298448E+01  0.85088111686E+01  0.10500000000E+00 0. -1.
</event>
<event>
11    0  0.3515428E-009  0.9118800E+02  0.7816531E-02  0.1126479E+00
         25   -1    0    0    0    0  0.00000000000E+00  0.00000000000E+00  0.99999998245E-14  0.12500000000E+03  0.12500000000E+03 0.  0.
    3000001    1    3    3    0    0  0.14587500634E+02 -0.27319820905E+02 -0.75347315873E+01  0.31889496219E+02  0.10000000000E+01 0. -1.
    1000022    2    1    0    0    0  0.30539265202E+02 -0.53346056106E+02 -0.52727197197E+01  0.62499999231E+02  0.99999954724E+01 0.  0.
    3000022    2    3    3    0    0  0.15951764568E+02 -0.26026235201E+02  0.22620118676E+01  0.30610503011E+02  0.24997069863E+00 0.  0.
    1000022    2    1    0    0    0 -0.30539265202E+02  0.53346056106E+02  0.52727197197E+01  0.62500000769E+02  0.10000005090E+02 0.  0.
    3000022    2    5    5    0    0 -0.27391901891E+02  0.41568304011E+02  0.19320128092E+01  0.49820029836E+02  0.25002355547E+00 0.  0.
        -13    1    4    4    0    0  0.97335604123E+01 -0.15824409018E+02  0.14314856378E+01  0.18633687107E+02  0.10500000000E+00 0. -1.
         13    1    4    4    0    0  0.62182041555E+01 -0.10201826183E+02  0.83052622975E+00  0.11976815904E+02  0.10500000000E+00 0.  1.
    3000001    1    5    5    0    0 -0.31473633112E+01  0.11777752095E+02  0.33407069105E+01  0.12679970934E+02  0.10000000000E+01 0. -1.
        -13    1    6    6    0    0 -0.69194223390E+01  0.10450691874E+02  0.48601390466E+00  0.12543627891E+02  0.10500000000E+00 0. -1.
         13    1    6    6    0    0 -0.20472479552E+02  0.31117612137E+02  0.14459989046E+01  0.37276401945E+02  0.10500000000E+00 0.  1.
</event>
<event>
11    0  0.3515428E-009  0.9118800E+02  0.7816531E-02  0.1126479E+00
         25   -1    0    0    0    0  0.00000000000E+00  0.00000000000E+00  0.99999998245E-14  0.12500000000E+03  0.12500000000E+03 0.  0.
    3000001    1    3    3    0    0 -0.35327884761E+02  0.19414489337E+02  0.38454628439E+02  0.55720196395E+02  0.10000000000E+01 0.  1.
    1000022    2    1    0    0    0 -0.40227938280E+02  0.18373029331E+02  0.43016213901E+02  0.62499999424E+02  0.10000002232E+02 0.  0.
    3000022    2    3    3    0    0 -0.49000535186E+01 -0.10414600061E+01  0.45615854622E+01  0.67798030294E+01  0.25000752042E+00 0.  0.
    1000022    2    1    0    0    0  0.40227938280E+02 -0.18373029331E+02 -0.43016213901E+02  0.62500000576E+02  0.10000009427E+02 0.  0.
    3000022    2    5    5    0    0  0.33660672757E+02 -0.18756618170E+02 -0.34756378652E+02  0.51893351945E+02  0.25000685338E+00 0.  0.
        -13    1    4    4    0    0 -0.34741778319E+01 -0.69541211345E+00  0.32068746299E+01  0.47800187768E+01  0.10500000000E+00 0.  1.
         13    1    4    4    0    0 -0.14258756867E+01 -0.34604789266E+00  0.13547108322E+01  0.19997842526E+01  0.10500000000E+00 0. -1.
    3000001    1    5    5    0    0  0.65672655228E+01  0.38358883844E+00 -0.82598352486E+01  0.10606648631E+02  0.10000000000E+01 0. -1.
        -13    1    6    6    0    0  0.18667417259E+02 -0.10473966705E+02 -0.19335290449E+02  0.28845119646E+02  0.10500000000E+00 0. -1.
         13    1    6    6    0    0  0.14993255498E+02 -0.82826514649E+01 -0.15421088203E+02  0.23048232299E+02  0.10500000000E+00 0.  1.
</event>
<event>
11    0  0.3515428E-009  0.9118800E+02  0.7816531E-02  0.1126479E+00
         25   -1    0    0    0    0  0.00000000000E+00  0.00000000000E+00  0.99999998245E-14  0.12500000000E+03  0.12500000000E+03 0.  0.
    3000001    1    3    3    0    0  0.51207570440E+01 -0.20782310157E+02 -0.73976788690E+01  0.22668308733E+02  0.10000000000E+01 0. -1.
    1000022    2    1    0    0    0  0.15538580098E+02 -0.50677427758E+02 -0.31568985587E+02  0.62500000379E+02  0.10000002036E+02 0.  0.
    3000022    2    3    3    0    0  0.10417823054E+02 -0.29895117601E+02 -0.24171306718E+02  0.39831691646E+02  0.24999468805E+00 0.  0.
    1000022    2    1    0    0    0 -0.15538580098E+02  0.50677427758E+02  0.31568985587E+02  0.62499999621E+02  0.99999972991E+01 0.  0.
    3000022    2    5    5    0    0 -0.55852847974E+01  0.29432248555E+02  0.21876944335E+02  0.37096035553E+02  0.24999814474E+00 0.  0.
        -13    1    4    4    0    0  0.47165919977E+01 -0.13621501446E+02 -0.11082082111E+02  0.18182824606E+02  0.10500000000E+00 0.  1.
         13    1    4    4    0    0  0.57012310565E+01 -0.16273616154E+02 -0.13089224607E+02  0.21648867040E+02  0.10500000000E+00 0. -1.
    3000001    1    5    5    0    0 -0.99532953008E+01  0.21245179203E+02  0.96920412523E+01  0.25403964068E+02  0.10000000000E+01 0.  1.
        -13    1    6    6    0    0 -0.40122028954E+01  0.20917803798E+02  0.15563216112E+02  0.26379480824E+02  0.10500000000E+00 0.  1.
         13    1    6    6    0    0 -0.15730819020E+01  0.85144447572E+01  0.63137282222E+01  0.10716554729E+02  0.10500000000E+00 0. -1.
</event>
<event>
11    0  0.3515428E-009  0.9118800E+02  0.7816531E-02  0.1126479E+00
         25   -1    0    0    0    0  0.00000000000E+00  0.00000000000E+00  0.99999998245E-14  0.12500000000E+03  0.12500000000E+03 0.  0.
    3000001    1    3    3    0    0  0.93957380034E+01  0.44443158802E+00  0.32374383082E+01  0.99979207270E+01  0.10000000000E+01 0. -1.
    1000022    2    1    0    0    0  0.52874437403E+02  0.24164692479E+02  0.20654589758E+02  0.62499994453E+02  0.99999367614E+01 0.  0.
    3000022    2    3    3    0    0  0.43478699400E+02  0.23720260891E+02  0.17417151450E+02  0.52502073726E+02  0.25000530515E+00 0.  0.
    1000022    2    1    0    0    0 -0.52874437403E+02 -0.24164692479E+02 -0.20654589758E+02  0.62500005547E+02  0.10000006096E+02 0.  0.
    3000022    2    5    5    0    0 -0.40819787908E+02 -0.18663496063E+02 -0.11409932157E+02  0.46312311745E+02  0.24999434279E+00 0.  0.
        -13    1    4    4    0    0  0.13702528501E+02  0.74224565478E+01  0.54979862742E+01  0.16525466003E+02  0.10500000000E+00 0. -1.
         13    1    4    4    0    0  0.29776170899E+02  0.16297804344E+02  0.11919165176E+02  0.35976607723E+02  0.10500000000E+00 0.  1.
    3000001    1    5    5    0    0 -0.12054649495E+02 -0.55011964164E+01 -0.92446576007E+01  0.16187693802E+02  0.10000000000E+01 0. -1.
        -13    1    6    6    0    0 -0.20883693874E+02 -0.96059785952E+01 -0.58878166389E+01  0.23729325831E+02  0.10500000000E+00 0. -1.
         13    1    6    6    0    0 -0.19936094034E+02 -0.90575174679E+01 -0.55221155184E+01  0.22582985914E+02  0.10500000000E+00 0.  1.
</event>
<event>
11    0  0.3515428E-009  0.9118800E+02  0.7816531E-02  0.1126479E+00
         25   -1    0    0    0    0  0.00000000000E+00  0.00000000000E+00  0.99999998245E-14  0.12500000000E+03  0.12500000000E+03 0.  0.
    3000001    1    3    3    0    0  0.30264260777E+02 -0.31548352670E+02  0.19336781699E+01  0.43771716300E+02  0.10000000000E+01 0. -1.
    1000022    2    1    0    0    0  0.37842360012E+02 -0.48595114507E+02  0.35665889023E+01  0.62499999091E+02  0.99999982376E+01 0.  0.
    3000022    2    3    3    0    0  0.75780992347E+01 -0.17046761837E+02  0.16329107323E+01  0.18728282791E+02  0.25000339737E+00 0.  0.
    1000022    2    1    0    0    0 -0.37842360012E+02  0.48595114507E+02 -0.35665889023E+01  0.62500000909E+02  0.10000009600E+02 0.  0.
    3000022    2    5    5    0    0 -0.16827206905E+02  0.29574634341E+02 -0.14359459842E+01  0.34057867285E+02  0.24998895355E+00 0.  0.
        -13    1    4    4    0    0  0.44963747769E+01 -0.10268848187E+02  0.98692613915E+00  0.11253962743E+02  0.10500000000E+00 0.  1.
         13    1    4    4    0    0  0.30817244578E+01 -0.67779136502E+01  0.64598459318E+00  0.74743200479E+01  0.10500000000E+00 0. -1.
    3000001    1    5    5    0    0 -0.21015153107E+02  0.19020480165E+02 -0.21306429181E+01  0.28442133624E+02  0.10000000000E+01 0. -1.
        -13    1    6    6    0    0 -0.99156627927E+01  0.17460576111E+02 -0.78550729662E+00  0.20095276397E+02  0.10500000000E+00 0.  1.
         13    1    6    6    0    0 -0.69115441121E+01  0.12114058230E+02 -0.65043868757E+00  0.13962590888E+02  0.10500000000E+00 0. -1.
</event>
<event>
11    0  0.3515428E-009  0.9118800E+02  0.7816531E-02  0.1126479E+00
         25   -1    0    0    0    0  0.00000000000E+00  0.00000000000E+00  0.99999998245E-14  0.12500000000E+03  0.12500000000E+03 0.  0.
    3000001    1    3    3    0    0 -0.28499917331E+02  0.18169736898E+02 -0.43993176862E+02  0.55486793359E+02  0.10000000000E+01 0.  1.
    1000022    2    1    0    0    0 -0.29083936275E+02  0.19235139409E+02 -0.50895813555E+02  0.62499999027E+02  0.10000005184E+02 0.  0.
    3000022    2    3    3    0    0 -0.58401894407E+00  0.10654025110E+01 -0.69026366926E+01  0.70132056686E+01  0.24999960364E+00 0.  0.
    1000022    2    1    0    0    0  0.29083936275E+02 -0.19235139409E+02  0.50895813555E+02  0.62500000973E+02  0.10000017345E+02 0.  0.
    3000022    2    5    5    0    0  0.16648300422E+02 -0.79612256927E+01  0.19272337451E+02  0.26683937392E+02  0.25000486766E+00 0.  0.
        -13    1    4    4    0    0 -0.42797214096E+00  0.69311585609E+00 -0.47619425777E+01  0.48322553592E+01  0.10500000000E+00 0.  1.
         13    1    4    4    0    0 -0.15604680311E+00  0.37228665488E+00 -0.21406941150E+01  0.21809503094E+01  0.10500000000E+00 0. -1.
    3000001    1    5    5    0    0  0.12435635852E+02 -0.11273913716E+02  0.31623476104E+02  0.35816063581E+02  0.10000000000E+01 0.  1.
        -13    1    6    6    0    0  0.95828203563E+01 -0.46438008476E+01  0.11170071205E+02  0.15432979233E+02  0.10500000000E+00 0. -1.
         13    1    6    6    0    0  0.70654800662E+01 -0.33174248451E+01  0.81022662462E+01  0.11250958159E+02  0.10500000000E+00 0.  1.
</event>
<event>
11    0  0.3515428E-009  0.9118800E+02  0.7816531E-02  0.1126479E+00
         25   -1    0    0    0    0  0.00000000000E+00  0.00000000000E+00  0.99999998245E-14  0.12500000000E+03  0.12500000000E+03 0.  0.
    3000001    1    3    3    0    0  0.15925452862E+02 -0.30223965983E+00  0.24836448094E+02  0.29522204382E+02  0.10000000000E+01 0.  1.
    1000022    2    1    0    0    0  0.39615653745E+02  0.58758149528E+01  0.46928939485E+02  0.62499994693E+02  0.99999376212E+01 0.  0.
    3000022    2    3    3    0    0  0.23690200883E+02  0.61780546126E+01  0.22092491392E+02  0.32977790311E+02  0.25000246623E+00 0.  0.
    1000022    2    1    0    0    0 -0.39615653745E+02 -0.58758149528E+01 -0.46928939485E+02  0.62500005307E+02  0.10000003961E+02 0.  0.
    3000022    2    5    5    0    0 -0.32593438134E+02 -0.12164067588E+01 -0.39455220591E+02  0.51191686647E+02  0.24999025829E+00 0.  0.
        -13    1    4    4    0    0  0.13074348401E+02  0.34727329880E+01  0.12171325695E+02  0.18197545293E+02  0.10500000000E+00 0.  1.
         13    1    4    4    0    0  0.10615852482E+02  0.27053216247E+01  0.99211656961E+01  0.14780245018E+02  0.10500000000E+00 0. -1.
    3000001    1    5    5    0    0 -0.70222156110E+01 -0.46594081940E+01 -0.74737188943E+01  0.11308318660E+02  0.10000000000E+01 0.  1.
        -13    1    6    6    0    0 -0.11399688700E+02 -0.37714294531E+00 -0.13751838203E+02  0.17866706978E+02  0.10500000000E+00 0. -1.
         13    1    6    6    0    0 -0.21193749434E+02 -0.83926381351E+00 -0.25703382387E+02  0.33324979669E+02  0.10500000000E+00 0.  1.
</event>
<event>
11    0  0.3515428E-009  0.9118800E+02  0.7816531E-02  0.1126479E+00
         25   -1    0    0    0    0  0.00000000000E+00  0.00000000000E+00  0.99999998245E-14  0.12500000000E+03  0.12500000000E+03 0.  0.
    3000001    1    3    3    0    0 -0.39092505439E+01  0.28659863497E+01 -0.22958720426E+01  0.54559276028E+01  0.10000000000E+01 0.  1.
    1000022    2    1    0    0    0 -0.40235662462E+02  0.98661355199E+01 -0.45716529693E+02  0.62500000647E+02  0.99999914889E+01 0.  0.
    3000022    2    3    3    0    0 -0.36326411918E+02  0.70001491702E+01 -0.43420657650E+02  0.57044073044E+02  0.24993471343E+00 0.  0.
    1000022    2    1    0    0    0  0.40235662462E+02 -0.98661355199E+01  0.45716529693E+02  0.62499999353E+02  0.99999834064E+01 0.  0.
    3000022    2    5    5    0    0  0.11771368086E+02  0.12394370216E+01  0.15630348898E+02  0.19607947984E+02  0.25001347648E+00 0.  0.
        -13    1    4    4    0    0 -0.20094793235E+02  0.38334352423E+01 -0.24094301800E+02  0.31607631122E+02  0.10500000000E+00 0. -1.
         13    1    4    4    0    0 -0.16231618683E+02  0.31667139280E+01 -0.19326355850E+02  0.25436441922E+02  0.10500000000E+00 0.  1.
    3000001    1    5    5    0    0  0.28464294376E+02 -0.11105572541E+02  0.30086180795E+02  0.42892051369E+02  0.10000000000E+01 0. -1.
        -13    1    6    6    0    0  0.41047179051E+01  0.41112340174E+00  0.55350168053E+01  0.69039964924E+01  0.10500000000E+00 0. -1.
         13    1    6    6    0    0  0.76666501809E+01  0.82831361984E+00  0.10095332093E+02  0.12703951492E+02  0.10500000000E+00 0.  1.
</event>
<event>
11    0  0.3515428E-009  0.9118800E+02  0.7816531E-02  0.1126479E+00
         25   -1    0    0    0    0  0.00000000000E+00  0.00000000000E+00  0.99999998245E-14  0.12500000000E+03  0.12500000000E+03 0.  0.
    3000001    1    3    3    0    0  0.40432662141E+02 -0.36295296403E+02  0.79184160528E+01  0.54916755381E+02  0.10000000000E+01 0. -1.
    1000022    2    1    0    0    0  0.47761714080E+02 -0.38082021951E+02  0.86503353260E+01  0.62500000128E+02  0.99999993522E+01 0.  0.
    3000022    2    3    3    0    0  0.73290519393E+01 -0.17867255473E+01  0.73191927318E+00  0.75832447470E+01  0.25000912132E+00 0.  0.
    1000022    2    1    0    0    0 -0.47761714080E+02  0.38082021951E+02 -0.86503353260E+01  0.62499999872E+02  0.99999977517E+01 0.  0.
    3000022    2    5    5    0    0 -0.11681607380E+02  0.45582478779E+01 -0.31628157609E+01  0.12934584525E+02  0.24999718748E+00 0.  0.
        -13    1    4    4    0    0  0.38235557551E+01 -0.88226607524E+00  0.33324852870E+00  0.39395496725E+01  0.10500000000E+00 0.  1.
         13    1    4    4    0    0  0.35054961841E+01 -0.90445947206E+00  0.39867074448E+00  0.36436950745E+01  0.10500000000E+00 0. -1.
    3000001    1    5    5    0    0 -0.36080106700E+02  0.33523774073E+02 -0.54875195651E+01  0.49565415347E+02  0.10000000000E+01 0. -1.
        -13    1    6    6    0    0 -0.52981295668E+01  0.21340684238E+01 -0.14150775736E+01  0.58853967142E+01  0.10500000000E+00 0. -1.
         13    1    6    6    0    0 -0.63834778131E+01  0.24241794541E+01 -0.17477381873E+01  0.70491878105E+01  0.10500000000E+00 0.  1.
</event>
<event>
11    0  0.3515428E-009  0.9118800E+02  0.7816531E-02  0.1126479E+00
         25   -1    0    0    0    0  0.00000000000E+00  0.00000000000E+00  0.99999998245E-14  0.12500000000E+03  0.12500000000E+03 0.  0.
    3000001    1    3    3    0    0  0.27908415658E+02 -0.45452967256E+02  0.14111508677E+02  0.55181396993E+02  0.10000000000E+01 0.  1.
    1000022    2    1    0    0    0  0.33660743020E+02 -0.49922363135E+02  0.13452202271E+02  0.62500002056E+02  0.10000027466E+02 0.  0.
    3000022    2    3    3    0    0  0.57523273625E+01 -0.44693958793E+01 -0.65930640648E+00  0.73186050630E+01  0.25005103331E+00 0.  0.
    1000022    2    1    0    0    0 -0.33660743020E+02  0.49922363135E+02 -0.13452202271E+02  0.62499997944E+02  0.10000001771E+02 0.  0.
    3000022    2    5    5    0    0 -0.57459727022E+01  0.32958983972E+01 -0.22843927309E+01  0.70114262760E+01  0.24999947062E+00 0.  0.
        -13    1    4    4    0    0  0.27899935736E+01 -0.22486993481E+01 -0.30147562502E+00  0.35975860589E+01  0.10500000000E+00 0.  1.
         13    1    4    4    0    0  0.29623337889E+01 -0.22206965312E+01 -0.35783078146E+00  0.37210190041E+01  0.10500000000E+00 0. -1.
    3000001    1    5    5    0    0 -0.27914770318E+02  0.46626464738E+02 -0.11167809540E+02  0.55488571668E+02  0.10000000000E+01 0.  1.
        -13    1    6    6    0    0 -0.23922342510E+01  0.14215377710E+01 -0.90831804444E+00  0.29290990109E+01  0.10500000000E+00 0.  1.
         13    1    6    6    0    0 -0.33537384512E+01  0.18743606262E+01 -0.13760746865E+01  0.40823272650E+01  0.10500000000E+00 0. -1.
</event>
<event>
11    0  0.3515428E-009  0.9118800E+02  0.7816531E-02  0.1126479E+00
         25   -1    0    0    0    0  0.00000000000E+00  0.00000000000E+00  0.99999998245E-14  0.12500000000E+03  0.12500000000E+03 0.  0.
    3000001    1    3    3    0    0  0.69170092299E+01 -0.54839875567E+02 -0.19892091732E+02  0.58753317203E+02  0.10000000000E+01 0.  1.
    1000022    2    1    0    0    0  0.49228656164E+01 -0.57803081277E+02 -0.20995693302E+02  0.62500000326E+02  0.10000004627E+02 0.  0.
    3000022    2    3    3    0    0 -0.19941436136E+01 -0.29632057106E+01 -0.11036015699E+01  0.37466831235E+01  0.25000233611E+00 0.  0.
    1000022    2    1    0    0    0 -0.49228656164E+01  0.57803081277E+02  0.20995693302E+02  0.62499999674E+02  0.10000000547E+02 0.  0.
    3000022    2    5    5    0    0 -0.49546940582E+01  0.31696142807E+02  0.69064521010E+01  0.32817008467E+02  0.25000410884E+00 0.  0.
        -13    1    4    4    0    0 -0.75525310100E+00 -0.11076163189E+01 -0.47738144249E+00  0.14269334946E+01  0.10500000000E+00 0. -1.
         13    1    4    4    0    0 -0.12388905126E+01 -0.18555893917E+01 -0.62622012741E+00  0.23197496289E+01  0.10500000000E+00 0.  1.
    3000001    1    5    5    0    0  0.31828441843E-01  0.26106938470E+02  0.14089241201E+02  0.29682991207E+02  0.10000000000E+01 0.  1.
        -13    1    6    6    0    0 -0.17696819384E+01  0.11015681952E+02  0.23707480168E+01  0.11406511043E+02  0.10500000000E+00 0. -1.
         13    1    6    6    0    0 -0.31850121198E+01  0.20680460855E+02  0.45357040842E+01  0.21410497424E+02  0.10500000000E+00 0.  1.
</event>
<event>
11    0  0.3515428E-009  0.9118800E+02  0.7816531E-02  0.1126479E+00
         25   -1    0    0    0    0  0.00000000000E+00  0.00000000000E+00  0.99999998245E-14  0.12500000000E+03  0.12500000000E+03 0.  0.
    3000001    1    3    3    0    0  0.19770038518E+02 -0.80283649079E+01  0.15204596816E+01  0.21415435175E+02  0.10000000000E+01 0.  1.
    1000022    2    1    0    0    0  0.60039006721E+02 -0.13446124897E+02 -0.45571727703E+01  0.62500006819E+02  0.10000121295E+02 0.  0.
    3000022    2    3    3    0    0  0.40268968203E+02 -0.54177599890E+01 -0.60776324519E+01  0.41084571644E+02  0.24997500402E+00 0.  0.
    1000022    2    1    0    0    0 -0.60039006721E+02  0.13446124897E+02  0.45571727703E+01  0.62499993181E+02  0.10000036055E+02 0.  0.
    3000022    2    5    5    0    0 -0.11093569275E+02 -0.41174209848E+00 -0.17147593428E+01  0.11235644390E+02  0.24998888904E+00 0.  0.
        -13    1    4    4    0    0  0.19712384626E+02 -0.26348053743E+01 -0.30410446613E+01  0.20119127333E+02  0.10500000000E+00 0.  1.
         13    1    4    4    0    0  0.20556583578E+02 -0.27829546147E+01 -0.30365877906E+01  0.20965444311E+02  0.10500000000E+00 0. -1.
    3000001    1    5    5    0    0 -0.48945437446E+02  0.13857866995E+02  0.62719321131E+01  0.51264348790E+02  0.10000000000E+01 0.  1.
        -13    1    6    6    0    0 -0.54578710225E+01 -0.13724599573E+00 -0.86173061734E+00  0.55281820898E+01  0.10500000000E+00 0. -1.
         13    1    6    6    0    0 -0.56356982526E+01 -0.27449610275E+00 -0.85302872548E+00  0.57074623005E+01  0.10500000000E+00 0.  1.
</event>
<event>
11    0  0.3515428E-009  0.9118800E+02  0.7816531E-02  0.1126479E+00
         25   -1    0    0    0    0  0.00000000000E+00  0.00000000000E+00  0.99999998245E-14  0.12500000000E+03  0.12500000000E+03 0.  0.
    3000001    1    3    3    0    0  0.43233467566E+02 -0.15638417733E+01 -0.11668540499E+01  0.43289027100E+02  0.10000000000E+01 0.  1.
    1000022    2    1    0    0    0  0.61578706835E+02  0.34869105991E+01  0.14677203989E+01  0.62499997513E+02  0.99999902451E+01 0.  0.
    3000022    2    3    3    0    0  0.18345239269E+02  0.50507523724E+01  0.26345744488E+01  0.19210970413E+02  0.24999661828E+00 0.  0.
    1000022    2    1    0    0    0 -0.61578706835E+02 -0.34869105991E+01 -0.14677203989E+01  0.62500002487E+02  0.10000021334E+02 0.  0.
    3000022    2    5    5    0    0 -0.60727194065E+02 -0.25064780079E+01 -0.18852925552E+01  0.60808645467E+02  0.25000893341E+00 0.  0.
        -13    1    4    4    0    0  0.12639739998E+02  0.35138108661E+01  0.18526154192E+01  0.13249645388E+02  0.10500000000E+00 0.  1.
         13    1    4    4    0    0  0.57054992715E+01  0.15369415063E+01  0.78195902959E+00  0.59613250251E+01  0.10500000000E+00 0. -1.
    3000001    1    5    5    0    0 -0.85151277005E+00 -0.98043259119E+00  0.41757215638E+00  0.16913570200E+01  0.10000000000E+01 0.  1.
        -13    1    6    6    0    0 -0.27501947331E+02 -0.11397193530E+01 -0.92048792764E+00  0.27541139959E+02  0.10500000000E+00 0.  1.
         13    1    6    6    0    0 -0.33225246734E+02 -0.13667586549E+01 -0.96480462759E+00  0.33267505508E+02  0.10500000000E+00 0. -1.
</event>
<event>
11    0  0.3515428E-009  0.9118800E+02  0.7816531E-02  0.1126479E+00
         25   -1    0    0    0    0  0.00000000000E+00  0.00000000000E+00  0.99999998245E-14  0.12500000000E+03  0.12500000000E+03 0.  0.
    3000001    1    3    3    0    0  0.26204863921E+02 -0.17298069958E+02 -0.35391768858E+02  0.47323307369E+02  0.10000000000E+01 0. -1.
    1000022    2    1    0    0    0  0.35005801323E+02 -0.27030069164E+02 -0.43014179075E+02  0.62499998228E+02  0.99999705861E+01 0.  0.
    3000022    2    3    3    0    0  0.88009374016E+01 -0.97319992057E+01 -0.76224102167E+01  0.15176690859E+02  0.25000045924E+00 0.  0.
    1000022    2    1    0    0    0 -0.35005801323E+02  0.27030069164E+02  0.43014179075E+02  0.62500001772E+02  0.99999927364E+01 0.  0.
    3000022    2    5    5    0    0 -0.32077181451E+01  0.71122686782E+01  0.76708405642E+01  0.10944318797E+02  0.24999501769E+00 0.  0.
        -13    1    4    4    0    0  0.47225286847E+01 -0.51259640391E+01 -0.40711254407E+01  0.80723523128E+01  0.10500000000E+00 0.  1.
         13    1    4    4    0    0  0.40784087169E+01 -0.46060351666E+01 -0.35512847760E+01  0.71043385461E+01  0.10500000000E+00 0. -1.
    3000001    1    5    5    0    0 -0.31798083178E+02  0.19917800486E+02  0.35343338511E+02  0.51555682976E+02  0.10000000000E+01 0. -1.
        -13    1    6    6    0    0 -0.16549258950E+01  0.35294596503E+01  0.37817831906E+01  0.54321979200E+01  0.10500000000E+00 0.  1.
         13    1    6    6    0    0 -0.15527922501E+01  0.35828090279E+01  0.38890573736E+01  0.55121208765E+01  0.10500000000E+00 0. -1.
</event>
<event>
11    0  0.3515428E-009  0.9118800E+02  0.7816531E-02  0.1126479E+00
         25   -1    0    0    0    0  0.00000000000E+00  0.00000000000E+00  0.99999998245E-14  0.12500000000E+03  0.12500000000E+03 0.  0.
    3000001    1    3    3    0    0  0.95309936856E+00 -0.18864157774E+01 -0.17741982923E+01  0.29350881540E+01  0.10000000000E+01 0. -1.
    1000022    2    1    0    0    0 -0.19404541478E+02 -0.44622090397E+02 -0.37928655918E+02  0.62500000073E+02  0.99999943986E+01 0.  0.
    3000022    2    3    3    0    0 -0.20357640847E+02 -0.42735674620E+02 -0.36154457626E+02  0.59564911919E+02  0.24999927802E+00 0.  0.
    1000022    2    1    0    0    0  0.19404541478E+02  0.44622090397E+02  0.37928655918E+02  0.62499999927E+02  0.99999934857E+01 0.  0.
    3000022    2    5    5    0    0  0.50251834556E+01  0.10788672847E+02  0.42710900313E+01  0.12647238502E+02  0.25000221915E+00 0.  0.
        -13    1    4    4    0    0 -0.98048611856E+01 -0.20691615828E+02 -0.17549696234E+02  0.28849283030E+02  0.10500000000E+00 0.  1.
         13    1    4    4    0    0 -0.10552779661E+02 -0.22044058792E+02 -0.18604761391E+02  0.30715628889E+02  0.10500000000E+00 0. -1.
    3000001    1    5    5    0    0  0.14379358023E+02  0.33833417551E+02  0.33657565887E+02  0.49852761425E+02  0.10000000000E+01 0.  1.
        -13    1    6    6    0    0  0.27863164361E+01  0.58731388411E+01  0.23842420528E+01  0.69248071667E+01  0.10500000000E+00 0. -1.
         13    1    6    6    0    0  0.22388670195E+01  0.49155340055E+01  0.18868479785E+01  0.57224313351E+01  0.10500000000E+00 0.  1.
</event>
<event>
11    0  0.3515428E-009  0.9118800E+02  0.7816531E-02  0.1126479E+00
         25   -1    0    0    0    0  0.00000000000E+00  0.00000000000E+00  0.99999998245E-14  0.12500000000E+03  0.12500000000E+03 0.  0.
    3000001    1    3    3    0    0  0.33695342773E+00 -0.10499053423E+02  0.47072924448E+01  0.11554317919E+02  0.10000000000E+01 0.  1.
    1000022    2    1    0    0    0  0.17261459702E+02 -0.47642343599E+02  0.35192317981E+02  0.62499996873E+02  0.99999734796E+01 0.  0.
    3000022    2    3    3    0    0  0.16924506275E+02 -0.37143290175E+02  0.30485025536E+02  0.50945678955E+02  0.25000898104E+00 0.  0.
    1000022    2    1    0    0    0 -0.17261459702E+02  0.47642343599E+02 -0.35192317981E+02  0.62500003127E+02  0.10000012567E+02 0.  0.
    3000022    2    5    5    0    0 -0.49810757558E+01  0.81192506224E+01 -0.10989378267E+02  0.14545180647E+02  0.24999799188E+00 0.  0.
        -13    1    4    4    0    0  0.12875378497E+02 -0.28280121431E+02  0.23226488395E+02  0.38794605653E+02  0.10500000000E+00 0.  1.
         13    1    4    4    0    0  0.40491277779E+01 -0.88631687445E+01  0.72585371410E+01  0.12151073302E+02  0.10500000000E+00 0. -1.
    3000001    1    5    5    0    0 -0.12280383946E+02  0.39523092976E+02 -0.24202939714E+02  0.47954822480E+02  0.10000000000E+01 0. -1.
        -13    1    6    6    0    0 -0.14339338049E+01  0.24179573228E+01 -0.32660051656E+01  0.43105102381E+01  0.10500000000E+00 0.  1.
         13    1    6    6    0    0 -0.35471419510E+01  0.57012932997E+01 -0.77233731017E+01  0.10234670409E+02  0.10500000000E+00 0. -1.
</event>
<event>
11    0  0.3515428E-009  0.9118800E+02  0.7816531E-02  0.1126479E+00
         25   -1    0    0    0    0  0.00000000000E+00  0.00000000000E+00  0.99999998245E-14  0.12500000000E+03  0.12500000000E+03 0.  0.
    3000001    1    3    3    0    0 -0.21998683221E+02 -0.19872282289E+02  0.21919311159E+02  0.36882324608E+02  0.10000000000E+01 0. -1.
    1000022    2    1    0    0    0 -0.40441182225E+02 -0.26177334491E+02  0.38542288399E+02  0.62500000619E+02  0.10000001078E+02 0.  0.
    3000022    2    3    3    0    0 -0.18442499004E+02 -0.63050522023E+01  0.16622977240E+02  0.25617676011E+02  0.24999819118E+00 0.  0.
    1000022    2    1    0    0    0  0.40441182225E+02  0.26177334491E+02 -0.38542288399E+02  0.62499999381E+02  0.99999933390E+01 0.  0.
    3000022    2    5    5    0    0  0.39102838692E+02  0.26251505586E+02 -0.38492601645E+02  0.60826938253E+02  0.24999302454E+00 0.  0.
        -13    1    4    4    0    0 -0.57535702449E+01 -0.19871927984E+01  0.52512776308E+01  0.80398661392E+01  0.10500000000E+00 0.  1.
         13    1    4    4    0    0 -0.12688928759E+02 -0.43178594038E+01  0.11371699609E+02  0.17577809872E+02  0.10500000000E+00 0. -1.
    3000001    1    5    5    0    0  0.13383435336E+01 -0.74171095525E-01 -0.49686753949E-01  0.16730611282E+01  0.10000000000E+01 0.  1.
        -13    1    6    6    0    0  0.26355054888E+02  0.17633271391E+02 -0.25936016004E+02  0.40965950852E+02  0.10500000000E+00 0. -1.
         13    1    6    6    0    0  0.12747783804E+02  0.86182341955E+01 -0.12556585641E+02  0.19860987401E+02  0.10500000000E+00 0.  1.
</event>
<event>
11    0  0.3515428E-009  0.9118800E+02  0.7816531E-02  0.1126479E+00
         25   -1    0    0    0    0  0.00000000000E+00  0.00000000000E+00  0.99999998245E-14  0.12500000000E+03  0.12500000000E+03 0.  0.
    3000001    1    3    3    0    0  0.41089908989E+01  0.34907360363E+01 -0.45616223389E+01  0.71328425361E+01  0.10000000000E+01 0. -1.
    1000022    2    1    0    0    0  0.48615220605E+02  0.34063718014E+02 -0.16806944949E+02  0.62500000075E+02  0.10000002574E+02 0.  0.
    3000022    2    3    3    0    0  0.44506229706E+02  0.30572981978E+02 -0.12245322610E+02  0.55367157539E+02  0.24999694238E+00 0.  0.
    1000022    2    1    0    0    0 -0.48615220605E+02 -0.34063718014E+02  0.16806944949E+02  0.62499999925E+02  0.10000001637E+02 0.  0.
    3000022    2    5    5    0    0 -0.72408246885E+01 -0.38334663817E+01 -0.96794385478E+00  0.82537519150E+01  0.24999740012E+00 0.  0.
        -13    1    4    4    0    0  0.24501140573E+02  0.16784913832E+02 -0.67915935500E+01  0.30465980859E+02  0.10500000000E+00 0.  1.
         13    1    4    4    0    0  0.20005089132E+02  0.13788068146E+02 -0.54537290602E+01  0.24901176680E+02  0.10500000000E+00 0. -1.
    3000001    1    5    5    0    0 -0.41374395916E+02 -0.30230251632E+02  0.17774888804E+02  0.54246248010E+02  0.10000000000E+01 0.  1.
        -13    1    6    6    0    0 -0.55188575025E+01 -0.29201408596E+01 -0.71974317564E+00  0.62860214772E+01  0.10500000000E+00 0. -1.
         13    1    6    6    0    0 -0.17219671860E+01 -0.91332552209E+00 -0.24820067914E+00  0.19677304378E+01  0.10500000000E+00 0.  1.
</event>
<event>
11    0  0.3515428E-009  0.9118800E+02  0.7816531E-02  0.1126479E+00
         25   -1    0    0    0    0  0.00000000000E+00  0.00000000000E+00  0.99999998245E-14  0.12500000000E+03  0.12500000000E+03 0.  0.
    3000001    1    3    3    0    0  0.77516833290E-01  0.31710111971E+02  0.12359320913E+01  0.31750035247E+02  0.10000000000E+01 0.  1.
    1000022    2    1    0    0    0 -0.49802681811E+01  0.60589946610E+02  0.10502643178E+02  0.62500002404E+02  0.10000004273E+02 0.  0.
    3000022    2    3    3    0    0 -0.50577850144E+01  0.28879834639E+02  0.92667110866E+01  0.30749967157E+02  0.25001552365E+00 0.  0.
    1000022    2    1    0    0    0  0.49802681811E+01 -0.60589946610E+02 -0.10502643178E+02  0.62499997596E+02  0.99999742216E+01 0.  0.
    3000022    2    5    5    0    0  0.14623097199E+01 -0.53960770272E+02 -0.83043620251E+01  0.54616188195E+02  0.25001235209E+00 0.  0.
        -13    1    4    4    0    0 -0.25063898582E+01  0.14448505180E+02  0.45681193680E+01  0.15359688526E+02  0.10500000000E+00 0. -1.
         13    1    4    4    0    0 -0.25513951562E+01  0.14431329459E+02  0.46985917186E+01  0.15390278631E+02  0.10500000000E+00 0.  1.
    3000001    1    5    5    0    0  0.35179584612E+01 -0.66291763376E+01 -0.21982811527E+01  0.78838094013E+01  0.10000000000E+01 0.  1.
        -13    1    6    6    0    0  0.10779869985E+01 -0.40004878377E+02 -0.61872662322E+01  0.40495007573E+02  0.10500000000E+00 0.  1.
         13    1    6    6    0    0  0.38432272137E+00 -0.13955891896E+02 -0.21170957929E+01  0.14121180622E+02  0.10500000000E+00 0. -1.
</event>
<event>
11    0  0.3515428E-009  0.9118800E+02  0.7816531E-02  0.1126479E+00
         25   -1    0    0    0    0  0.00000000000E+00  0.00000000000E+00  0.99999998245E-14  0.12500000000E+03  0.12500000000E+03 0.  0.
    3000001    1    3    3    0    0 -0.89953755565E+01 -0.31465154714E+01  0.87633789640E+01  0.12985151208E+02  0.10000000000E+01 0. -1.
    1000022    2    1    0    0    0 -0.48136360081E+02  0.28984108204E+01  0.38480382309E+02  0.62500003384E+02  0.10000032661E+02 0.  0.
    3000022    2    3    3    0    0 -0.39140984524E+02  0.60449262918E+01  0.29717003345E+02  0.49514852176E+02  0.24998966244E+00 0.  0.
    1000022    2    1    0    0    0  0.48136360081E+02 -0.28984108204E+01 -0.38480382309E+02  0.62499996616E+02  0.99999903616E+01 0.  0.
    3000022    2    5    5    0    0  0.40174147982E+02 -0.52190411989E+01 -0.28758396924E+02  0.49682073747E+02  0.25000199035E+00 0.  0.
        -13    1    4    4    0    0 -0.10538578676E+02  0.16587423372E+01  0.79824753841E+01  0.13324563967E+02  0.10500000000E+00 0. -1.
         13    1    4    4    0    0 -0.28602405848E+02  0.43861839546E+01  0.21734527961E+02  0.36190288209E+02  0.10500000000E+00 0.  1.
    3000001    1    5    5    0    0  0.79622120987E+01  0.23206303786E+01 -0.97219853852E+01  0.12817922870E+02  0.10000000000E+01 0.  1.
        -13    1    6    6    0    0  0.20902024956E+02 -0.26519834260E+01 -0.14987320464E+02  0.25856497501E+02  0.10500000000E+00 0.  1.
         13    1    6    6    0    0  0.19272123026E+02 -0.25670577730E+01 -0.13771076460E+02  0.23825576246E+02  0.10500000000E+00 0. -1.
</event>
<event>
11    0  0.3515428E-009  0.9118800E+02  0.7816531E-02  0.1126479E+00
         25   -1    0    0    0    0  0.00000000000E+00  0.00000000000E+00  0.99999998245E-14  0.12500000000E+03  0.12500000000E+03 0.  0.
    3000001    1    3    3    0    0 -0.24977293693E+01  0.22235019704E+02 -0.75545660391E+01  0.23636967261E+02  0.10000000000E+01 0. -1.
    1000022    2    1    0    0    0 -0.17726274839E+02  0.57380067807E+02 -0.14126461354E+02  0.62499999520E+02  0.10000001419E+02 0.  0.
    3000022    2    3    3    0    0 -0.15228545470E+02  0.35145048102E+02 -0.65718953154E+01  0.38863032259E+02  0.24993012701E+00 0.  0.
    1000022    2    1    0    0    0  0.17726274839E+02 -0.57380067807E+02  0.14126461354E+02  0.62500000480E+02  0.10000007426E+02 0.  0.
    3000022    2    5    5    0    0  0.49072276085E+01 -0.13205228603E+02 -0.85091553735E+00  0.14115434666E+02  0.24998656364E+00 0.  0.
        -13    1    4    4    0    0 -0.55910014510E+01  0.12978220208E+02 -0.23726548053E+01  0.14329480550E+02  0.10500000000E+00 0. -1.
         13    1    4    4    0    0 -0.96375440185E+01  0.22166827894E+02 -0.41992405101E+01  0.24533551709E+02  0.10500000000E+00 0.  1.
    3000001    1    5    5    0    0  0.12819047230E+02 -0.44174839203E+02  0.14977376892E+02  0.48384565815E+02  0.10000000000E+01 0.  1.
        -13    1    6    6    0    0  0.31925731416E+01 -0.86659331780E+01 -0.50863005848E+00  0.92499000344E+01  0.10500000000E+00 0. -1.
         13    1    6    6    0    0  0.17146544669E+01 -0.45392954252E+01 -0.34228547886E+00  0.48655346312E+01  0.10500000000E+00 0.  1.
</event>
<event>
11    0  0.3515428E-009  0.9118800E+02  0.7816531E-02  0.1126479E+00
         25   -1    0    0    0    0  0.00000000000E+00  0.00000000000E+00  0.99999998245E-14  0.12500000000E+03  0.12500000000E+03 0.  0.
    3000001    1    3    3    0    0 -0.15464958597E+01  0.16045214117E+02 -0.12397370314E+02  0.20360140869E+02  0.10000000000E+01 0.  1.
    1000022    2    1    0    0    0 -0.10195034781E+02  0.54885826164E+02 -0.26265135013E+02  0.62500000443E+02  0.10000004516E+02 0.  0.
    3000022    2    3    3    0    0 -0.86485389211E+01  0.38840612047E+02 -0.13867764699E+02  0.42139859574E+02  0.24999514782E+00 0.  0.
    1000022    2    1    0    0    0  0.10195034781E+02 -0.54885826164E+02  0.26265135013E+02  0.62499999557E+02  0.99999989762E+01 0.  0.
    3000022    2    5    5    0    0  0.10481345700E+02 -0.53613088859E+02  0.23919547704E+02  0.59635804380E+02  0.24999400677E+00 0.  0.
        -13    1    4    4    0    0 -0.36535240794E+01  0.16179856052E+02 -0.58245721528E+01  0.17580462048E+02  0.10500000000E+00 0.  1.
         13    1    4    4    0    0 -0.49950148417E+01  0.22660755995E+02 -0.80431925460E+01  0.24559397526E+02  0.10500000000E+00 0. -1.
    3000001    1    5    5    0    0 -0.28631091900E+00 -0.12727373049E+01  0.23455873087E+01  0.28641951771E+01  0.10000000000E+01 0. -1.
        -13    1    6    6    0    0  0.64307252284E+01 -0.32795497604E+02  0.14697551210E+02  0.36509285485E+02  0.10500000000E+00 0.  1.
         13    1    6    6    0    0  0.40506204714E+01 -0.20817591255E+02  0.92219964937E+01  0.23126518895E+02  0.10500000000E+00 0. -1.
</event>
<event>
11    0  0.3515428E-009  0.9118800E+02  0.7816531E-02  0.1126479E+00
         25   -1    0    0    0    0  0.00000000000E+00  0.00000000000E+00  0.99999998245E-14  0.12500000000E+03  0.12500000000E+03 0.  0.
    3000001    1    3    3    0    0  0.17762188663E+02  0.13947166869E+02  0.25623501775E+02  0.34169908589E+02  0.10000000000E+01 0.  1.
    1000022    2    1    0    0    0  0.39224278508E+02  0.21326246830E+02  0.42578130629E+02  0.62499999839E+02  0.99999971874E+01 0.  0.
    3000022    2    3    3    0    0  0.21462089845E+02  0.73790799603E+01  0.16954628854E+02  0.28330091250E+02  0.25001817814E+00 0.  0.
    1000022    2    1    0    0    0 -0.39224278508E+02 -0.21326246830E+02 -0.42578130629E+02  0.62500000161E+02  0.99999991960E+01 0.  0.
    3000022    2    5    5    0    0  0.14416113104E+00 -0.16404147664E+01 -0.22096579380E+01  0.27670979121E+01  0.24999922988E+00 0.  0.
        -13    1    4    4    0    0  0.69919095588E+01  0.24314899891E+01  0.55868341702E+01  0.92748414483E+01  0.10500000000E+00 0. -1.
         13    1    4    4    0    0  0.14470180286E+02  0.49475899712E+01  0.11367794684E+02  0.19055249802E+02  0.10500000000E+00 0.  1.
    3000001    1    5    5    0    0 -0.39368439639E+02 -0.19685832063E+02 -0.40368472691E+02  0.59732902249E+02  0.10000000000E+01 0.  1.
        -13    1    6    6    0    0  0.68843678229E-01 -0.11996842170E+01 -0.16128335828E+01  0.20140106351E+01  0.10500000000E+00 0. -1.
         13    1    6    6    0    0  0.75317452814E-01 -0.44073054936E+00 -0.59682435519E+00  0.75308727701E+00  0.10500000000E+00 0.  1.
</event>
<event>
11    0  0.3515428E-009  0.9118800E+02  0.7816531E-02  0.1126479E+00
         25   -1    0    0    0    0  0.00000000000E+00  0.00000000000E+00  0.99999998245E-14  0.12500000000E+03  0.12500000000E+03 0.  0.
    3000001    1    3    3    0    0  0.38255567311E+01 -0.24570768919E+01  0.58418357842E+01  0.74698832980E+01  0.10000000000E+01 0.  1.
    1000022    2    1    0    0    0  0.42333002584E+02  0.29189056028E+01  0.44784446606E+02  0.62500002374E+02  0.10000026060E+02 0.  0.
    3000022    2    3    3    0    0  0.38507445853E+02  0.53759824947E+01  0.38942610822E+02  0.55030119076E+02  0.24998793525E+00 0.  0.
    1000022    2    1    0    0    0 -0.42333002584E+02 -0.29189056028E+01 -0.44784446606E+02  0.62499997626E+02  0.99999963908E+01 0.  0.
    3000022    2    5    5    0    0 -0.32666566554E+02  0.18336347118E+01 -0.32219837426E+02  0.45920008820E+02  0.24999925849E+00 0.  0.
        -13    1    4    4    0    0  0.16632902602E+02  0.23875537902E+01  0.16844809604E+02  0.23793118704E+02  0.10500000000E+00 0. -1.
         13    1    4    4    0    0  0.21874543251E+02  0.29884287045E+01  0.22097801218E+02  0.31237000372E+02  0.10500000000E+00 0.  1.
    3000001    1    5    5    0    0 -0.96664360299E+01 -0.47525403145E+01 -0.12564609180E+02  0.16579988806E+02  0.10000000000E+01 0.  1.
        -13    1    6    6    0    0 -0.92681787985E+01  0.49790848215E+00 -0.90924292633E+01  0.12993473208E+02  0.10500000000E+00 0.  1.
         13    1    6    6    0    0 -0.23398387755E+02  0.13357262296E+01 -0.23127408163E+02  0.32926535612E+02  0.10500000000E+00 0. -1.
</event>
<event>
11    0  0.3515428E-009  0.9118800E+02  0.7816531E-02  0.1126479E+00
         25   -1    0    0    0    0  0.00000000000E+00  0.00000000000E+00  0.99999998245E-14  0.12500000000E+03  0.12500000000E+03 0.  0.
    3000001    1    3    3    0    0  0.31534531938E+02  0.60306965283E+01  0.65204594038E+00  0.32128198971E+02  0.10000000000E+01 0.  1.
    1000022    2    1    0    0    0  0.59060883744E+02  0.14670677040E+02  0.10140673546E+02  0.62499992701E+02  0.99999537120E+01 0.  0.
    3000022    2    3    3    0    0  0.27526351805E+02  0.86399805116E+01  0.94886276052E+01  0.30371793730E+02  0.24998720699E+00 0.  0.
    1000022    2    1    0    0    0 -0.59060883744E+02 -0.14670677040E+02 -0.10140673546E+02  0.62500007299E+02  0.10000044951E+02 0.  0.
    3000022    2    5    5    0    0 -0.47355493227E+02 -0.13850056887E+02 -0.11449144687E+02  0.50650885757E+02  0.24999875769E+00 0.  0.
        -13    1    4    4    0    0  0.13480487979E+02  0.42476048529E+01  0.47179058165E+01  0.14900851097E+02  0.10500000000E+00 0.  1.
         13    1    4    4    0    0  0.14045863827E+02  0.43923756586E+01  0.47707217887E+01  0.15470942633E+02  0.10500000000E+00 0. -1.
    3000001    1    5    5    0    0 -0.11705390517E+02 -0.82062015320E+00  0.13084711418E+01  0.11849121542E+02  0.10000000000E+01 0.  1.
        -13    1    6    6    0    0 -0.25129021778E+02 -0.73651947773E+01 -0.60090403805E+01  0.26866957790E+02  0.10500000000E+00 0. -1.
         13    1    6    6    0    0 -0.22226471450E+02 -0.64848621094E+01 -0.54401043069E+01  0.23783927967E+02  0.10500000000E+00 0.  1.
</event>
<event>
11    0  0.3515428E-009  0.9118800E+02  0.7816531E-02  0.1126479E+00
         25   -1    0    0    0    0  0.00000000000E+00  0.00000000000E+00  0.99999998245E-14  0.12500000000E+03  0.12500000000E+03 0.  0.
    3000001    1    3    3    0    0 -0.22624722860E+01 -0.36515379178E+02  0.10854489915E+02  0.38174751456E+02  0.10000000000E+01 0. -1.
    1000022    2    1    0    0    0 -0.11385161992E+02 -0.58329838596E+02  0.16560730112E+02  0.62500001392E+02  0.10000020400E+02 0.  0.
    3000022    2    3    3    0    0 -0.91226897061E+01 -0.21814459418E+02  0.57062401966E+01  0.24325249937E+02  0.25000029383E+00 0.  0.
    1000022    2    1    0    0    0  0.11385161992E+02  0.58329838596E+02 -0.16560730112E+02  0.62499998608E+02  0.10000002997E+02 0.  0.
    3000022    2    5    5    0    0  0.60474052742E+01  0.35932675051E+02 -0.52073325980E+01  0.36809062137E+02  0.24999150480E+00 0.  0.
        -13    1    4    4    0    0 -0.62182587476E+01 -0.14973402313E+02  0.38829092137E+01  0.16672058290E+02  0.10500000000E+00 0.  1.
         13    1    4    4    0    0 -0.29044309585E+01 -0.68410571050E+01  0.18233309829E+01  0.76531916466E+01  0.10500000000E+00 0. -1.
    3000001    1    5    5    0    0  0.53377567178E+01  0.22397163545E+02 -0.11353397514E+02  0.25690936470E+02  0.10000000000E+01 0. -1.
        -13    1    6    6    0    0  0.43034107158E+01  0.25420491920E+02 -0.36481853831E+01  0.26039221087E+02  0.10500000000E+00 0.  1.
         13    1    6    6    0    0  0.17439945584E+01  0.10512183132E+02 -0.15591472149E+01  0.10769841050E+02  0.10500000000E+00 0. -1.
</event>
<event>
11    0  0.3515428E-009  0.9118800E+02  0.7816531E-02  0.1126479E+00
         25   -1    0    0    0    0  0.00000000000E+00  0.00000000000E+00  0.99999998245E-14  0.12500000000E+03  0.12500000000E+03 0.  0.
    3000001    1    3    3    0    0 -0.11608177258E+02  0.10409233877E+01 -0.47700934704E+01  0.12632778493E+02  0.10000000000E+01 0. -1.
    1000022    2    1    0    0    0 -0.57672278951E+02  0.19296934630E+02 -0.10382018980E+02  0.62499998378E+02  0.10000001680E+02 0.  0.
    3000022    2    3    3    0    0 -0.46064101693E+02  0.18256011243E+02 -0.56119255093E+01  0.49867219885E+02  0.24999957777E+00 0.  0.
    1000022    2    1    0    0    0  0.57672278951E+02 -0.19296934630E+02  0.10382018980E+02  0.62500001622E+02  0.10000021954E+02 0.  0.
    3000022    2    5    5    0    0  0.48670512882E+02 -0.19341798397E+02  0.70340379322E+01  0.52843771393E+02  0.24999208440E+00 0.  0.
        -13    1    4    4    0    0 -0.29589399777E+02  0.11735042145E+02 -0.36627406090E+01  0.32041699192E+02  0.10500000000E+00 0. -1.
         13    1    4    4    0    0 -0.16474701916E+02  0.65209690973E+01 -0.19491849003E+01  0.17825520693E+02  0.10500000000E+00 0.  1.
    3000001    1    5    5    0    0  0.90017660696E+01  0.44863767061E-01  0.33479810475E+01  0.96562302284E+01  0.10000000000E+01 0.  1.
        -13    1    6    6    0    0  0.15465115083E+02 -0.61386708215E+01  0.21845271136E+01  0.16782021562E+02  0.10500000000E+00 0.  1.
         13    1    6    6    0    0  0.33205397799E+02 -0.13203127576E+02  0.48495108185E+01  0.36061749832E+02  0.10500000000E+00 0. -1.
</event>
<event>
11    0  0.3515428E-009  0.9118800E+02  0.7816531E-02  0.1126479E+00
         25   -1    0    0    0    0  0.00000000000E+00  0.00000000000E+00  0.99999998245E-14  0.12500000000E+03  0.12500000000E+03 0.  0.
    3000001    1    3    3    0    0 -0.29127553289E+02 -0.94606951867E+01 -0.12660230204E+02  0.33154193443E+02  0.10000000000E+01 0.  1.
    1000022    2    1    0    0    0 -0.56894231039E+02 -0.89017287194E+01 -0.22137202487E+02  0.62499999793E+02  0.99999970268E+01 0.  0.
    3000022    2    3    3    0    0 -0.27766677750E+02  0.55896646728E+00 -0.94769722832E+01  0.29345806350E+02  0.25001989412E+00 0.  0.
    1000022    2    1    0    0    0  0.56894231039E+02  0.89017287194E+01  0.22137202487E+02  0.62500000207E+02  0.99999996093E+01 0.  0.
    3000022    2    5    5    0    0  0.47151289132E+02  0.35567275292E+01  0.18218924026E+02  0.50674313723E+02  0.25000209855E+00 0.  0.
        -13    1    4    4    0    0 -0.14107485570E+02  0.35115579701E+00 -0.48254504720E+01  0.14914437863E+02  0.10500000000E+00 0. -1.
         13    1    4    4    0    0 -0.13659192179E+02  0.20781067027E+00 -0.46515218112E+01  0.14431368488E+02  0.10500000000E+00 0.  1.
    3000001    1    5    5    0    0  0.97429419062E+01  0.53450011902E+01  0.39182784611E+01  0.11825686484E+02  0.10000000000E+01 0. -1.
        -13    1    6    6    0    0  0.18521716359E+02  0.14239461021E+01  0.72178099089E+01  0.19929611242E+02  0.10500000000E+00 0.  1.
         13    1    6    6    0    0  0.28629572773E+02  0.21327814271E+01  0.11001114117E+02  0.30744702481E+02  0.10500000000E+00 0. -1.
</event>
<event>
11    0  0.3515428E-009  0.9118800E+02  0.7816531E-02  0.1126479E+00
         25   -1    0    0    0    0  0.00000000000E+00  0.00000000000E+00  0.99999998245E-14  0.12500000000E+03  0.12500000000E+03 0.  0.
    3000001    1    3    3    0    0 -0.16527787688E+02 -0.21169956301E+02  0.92289210626E+01  0.28416681713E+02  0.10000000000E+01 0.  1.
    1000022    2    1    0    0    0 -0.34698843590E+02 -0.49989168049E+02  0.10164805220E+02  0.62500000454E+02  0.10000006147E+02 0.  0.
    3000022    2    3    3    0    0 -0.18171055902E+02 -0.28819211748E+02  0.93588415738E+00  0.34083318741E+02  0.24999770262E+00 0.  0.
    1000022    2    1    0    0    0  0.34698843590E+02  0.49989168049E+02 -0.10164805220E+02  0.62499999546E+02  0.10000000469E+02 0.  0.
    3000022    2    5    5    0    0  0.34670990825E+02  0.48270479707E+02 -0.10814244390E+02  0.60408006088E+02  0.25000368767E+00 0.  0.
        -13    1    4    4    0    0 -0.51078960255E+01 -0.80304190713E+01  0.27310409133E+00  0.95217563040E+01  0.10500000000E+00 0.  1.
         13    1    4    4    0    0 -0.13063159877E+02 -0.20788792677E+02  0.66278006605E+00  0.24561562437E+02  0.10500000000E+00 0. -1.
    3000001    1    5    5    0    0  0.27852764723E-01  0.17186883421E+01  0.64943916992E+00  0.20919934582E+01  0.10000000000E+01 0.  1.
        -13    1    6    6    0    0  0.25799269650E+02  0.35925671744E+02 -0.80182583044E+01  0.44950636213E+02  0.10500000000E+00 0. -1.
         13    1    6    6    0    0  0.88717211750E+01  0.12344807963E+02 -0.27959860855E+01  0.15457369875E+02  0.10500000000E+00 0.  1.
</event>
<event>
11    0  0.3515428E-009  0.9118800E+02  0.7816531E-02  0.1126479E+00
         25   -1    0    0    0    0  0.00000000000E+00  0.00000000000E+00  0.99999998245E-14  0.12500000000E+03  0.12500000000E+03 0.  0.
    3000001    1    3    3    0    0  0.86166852811E+01  0.10313401335E+02  0.54361039383E+02  0.56006572071E+02  0.10000000000E+01 0.  1.
    1000022    2    1    0    0    0  0.67870174420E+01  0.13179654202E+02  0.59887251728E+02  0.62500000970E+02  0.10000015555E+02 0.  0.
    3000022    2    3    3    0    0 -0.18296678391E+01  0.28662528670E+01  0.55262123442E+01  0.64934288987E+01  0.25001217877E+00 0.  0.
    1000022    2    1    0    0    0 -0.67870174420E+01 -0.13179654202E+02 -0.59887251728E+02  0.62499999030E+02  0.10000003431E+02 0.  0.
    3000022    2    5    5    0    0 -0.22489956898E+01 -0.12952186230E+02 -0.46723012734E+02  0.48537815412E+02  0.24999259367E+00 0.  0.
        -13    1    4    4    0    0 -0.13102488496E+01  0.20234932922E+01  0.38341577817E+01  0.45302392924E+01  0.10500000000E+00 0.  1.
         13    1    4    4    0    0 -0.51941898946E+00  0.84275957481E+00  0.16920545626E+01  0.19631896063E+01  0.10500000000E+00 0. -1.
    3000001    1    5    5    0    0 -0.45380217522E+01 -0.22746797281E+00 -0.13164238994E+02  0.13962183618E+02  0.10000000000E+01 0. -1.
        -13    1    6    6    0    0 -0.12532004116E+01 -0.68572807787E+01 -0.24673097289E+02  0.25639141284E+02  0.10500000000E+00 0.  1.
         13    1    6    6    0    0 -0.99579527828E+00 -0.60949054508E+01 -0.22049915444E+02  0.22898674127E+02  0.10500000000E+00 0. -1.
</event>
<event>
11    0  0.3515428E-009  0.9118800E+02  0.7816531E-02  0.1126479E+00
         25   -1    0    0    0    0  0.00000000000E+00  0.00000000000E+00  0.99999998245E-14  0.12500000000E+03  0.12500000000E+03 0.  0.
    3000001    1    3    3    0    0  0.93479352573E+01  0.54456705433E+01 -0.41748707234E+02  0.43139237092E+02  0.10000000000E+01 0.  1.
    1000022    2    1    0    0    0  0.69081900828E+01  0.80674396371E+01 -0.60773716685E+02  0.62500010346E+02  0.99999990497E+01 0.  0.
    3000022    2    3    3    0    0 -0.24397451745E+01  0.26217690938E+01 -0.19025009452E+02  0.19360773253E+02  0.25005328170E+00 0.  0.
    1000022    2    1    0    0    0 -0.69081900828E+01 -0.80674396371E+01  0.60773716685E+02  0.62499989654E+02  0.99998697261E+01 0.  0.
    3000022    2    5    5    0    0 -0.18080315903E+01  0.20224834388E+01  0.64234311274E+01  0.69772762431E+01  0.24999766489E+00 0.  0.
        -13    1    4    4    0    0 -0.16675341088E+01  0.17514080518E+01 -0.12592362096E+02  0.12822897813E+02  0.10500000000E+00 0. -1.
         13    1    4    4    0    0 -0.77221106571E+00  0.87036104201E+00 -0.64326473555E+01  0.65378754403E+01  0.10500000000E+00 0.  1.
    3000001    1    5    5    0    0 -0.51001584925E+01 -0.10089923076E+02  0.54350285558E+02  0.55522713411E+02  0.10000000000E+01 0.  1.
        -13    1    6    6    0    0 -0.13580046755E+01  0.15140122310E+01  0.48710835959E+01  0.52796676157E+01  0.10500000000E+00 0.  1.
         13    1    6    6    0    0 -0.45002691486E+00  0.50847120788E+00  0.15523475315E+01  0.16976086274E+01  0.10500000000E+00 0. -1.
</event>
<event>
11    0  0.3515428E-009  0.9118800E+02  0.7816531E-02  0.1126479E+00
         25   -1    0    0    0    0  0.00000000000E+00  0.00000000000E+00  0.99999998245E-14  0.12500000000E+03  0.12500000000E+03 0.  0.
    3000001    1    3    3    0    0  0.12682060244E+02  0.72163782674E+00  0.60662519761E+01  0.14112222583E+02  0.10000000000E+01 0. -1.
    1000022    2    1    0    0    0  0.48048741810E+02  0.17423302425E+02  0.34554261865E+02  0.62499999676E+02  0.99999944779E+01 0.  0.
    3000022    2    3    3    0    0  0.35366681566E+02  0.16701664598E+02  0.28488009889E+02  0.48387777093E+02  0.24999853774E+00 0.  0.
    1000022    2    1    0    0    0 -0.48048741810E+02 -0.17423302425E+02 -0.34554261865E+02  0.62500000324E+02  0.99999985293E+01 0.  0.
    3000022    2    5    5    0    0 -0.26171895176E+02 -0.79949885153E+01 -0.12753767843E+02  0.30192863939E+02  0.25000035772E+00 0.  0.
        -13    1    4    4    0    0  0.10169368937E+02  0.48420428119E+01  0.81762112603E+01  0.13918437367E+02  0.10500000000E+00 0. -1.
         13    1    4    4    0    0  0.25197312629E+02  0.11859621786E+02  0.20311798628E+02  0.34469339726E+02  0.10500000000E+00 0.  1.
    3000001    1    5    5    0    0 -0.21876846634E+02 -0.94283139097E+01 -0.21800494022E+02  0.32307136385E+02  0.10000000000E+01 0. -1.
        -13    1    6    6    0    0 -0.66478195863E+01 -0.20532363685E+01 -0.32217986819E+01  0.76681351438E+01  0.10500000000E+00 0.  1.
         13    1    6    6    0    0 -0.19524075589E+02 -0.59417521468E+01 -0.95319691611E+01  0.22524728795E+02  0.10500000000E+00 0. -1.
</event>
<event>
11    0  0.3515428E-009  0.9118800E+02  0.7816531E-02  0.1126479E+00
         25   -1    0    0    0    0  0.00000000000E+00  0.00000000000E+00  0.99999998245E-14  0.12500000000E+03  0.12500000000E+03 0.  0.
    3000001    1    3    3    0    0  0.41967557526E+01 -0.25422074866E+02  0.28200812727E+02  0.38212308067E+02  0.10000000000E+01 0. -1.
    1000022    2    1    0    0    0  0.99189388036E+01 -0.35217427026E+02  0.49674917188E+02  0.62499999636E+02  0.10000002177E+02 0.  0.
    3000022    2    3    3    0    0  0.57221830510E+01 -0.97953521607E+01  0.21474104461E+02  0.24287691569E+02  0.24999310886E+00 0.  0.
    1000022    2    1    0    0    0 -0.99189388036E+01  0.35217427026E+02 -0.49674917188E+02  0.62500000364E+02  0.10000006726E+02 0.  0.
    3000022    2    5    5    0    0 -0.62767948963E+01  0.21434311796E+02 -0.37858691578E+02  0.43956466036E+02  0.25000414166E+00 0.  0.
        -13    1    4    4    0    0  0.41233705115E+01 -0.70651090900E+01  0.15398813239E+02  0.17437099099E+02  0.10500000000E+00 0.  1.
         13    1    4    4    0    0  0.15988125395E+01 -0.27302430708E+01  0.60752912220E+01  0.68505924703E+01  0.10500000000E+00 0. -1.
    3000001    1    5    5    0    0 -0.36421439073E+01  0.13783115231E+02 -0.11816225610E+02  0.18543534328E+02  0.10000000000E+01 0.  1.
        -13    1    6    6    0    0 -0.48346927916E+01  0.16478344574E+02 -0.29104374119E+02  0.33793279098E+02  0.10500000000E+00 0. -1.
         13    1    6    6    0    0 -0.14421021047E+01  0.49559672217E+01 -0.87543174582E+01  0.10163186938E+02  0.10500000000E+00 0.  1.
</event>
<event>
11    0  0.3515428E-009  0.9118800E+02  0.7816531E-02  0.1126479E+00
         25   -1    0    0    0    0  0.00000000000E+00  0.00000000000E+00  0.99999998245E-14  0.12500000000E+03  0.12500000000E+03 0.  0.
    3000001    1    3    3    0    0  0.11377342359E+02 -0.15273929489E+02  0.11227880618E+02  0.22131474067E+02  0.10000000000E+01 0.  1.
    1000022    2    1    0    0    0  0.20612835243E+02 -0.43712226938E+02  0.38348432336E+02  0.62500000384E+02  0.10000001239E+02 0.  0.
    3000022    2    3    3    0    0  0.92354928845E+01 -0.28438297449E+02  0.27120551717E+02  0.40368526317E+02  0.25000196541E+00 0.  0.
    1000022    2    1    0    0    0 -0.20612835243E+02  0.43712226938E+02 -0.38348432336E+02  0.62499999616E+02  0.99999964399E+01 0.  0.
    3000022    2    5    5    0    0 -0.48447961835E+01  0.21082229062E+02 -0.14705980609E+02  0.26158379078E+02  0.24999613420E+00 0.  0.
        -13    1    4    4    0    0  0.60495249944E+01 -0.18789777919E+02  0.17934213139E+02  0.26670199339E+02  0.10500000000E+00 0.  1.
         13    1    4    4    0    0  0.31859678901E+01 -0.96485195300E+01  0.91863385786E+01  0.13698326978E+02  0.10500000000E+00 0. -1.
    3000001    1    5    5    0    0 -0.15768039060E+02  0.22629997876E+02 -0.23642451727E+02  0.36341620538E+02  0.10000000000E+01 0. -1.
        -13    1    6    6    0    0 -0.22814155740E+01  0.98091190372E+01 -0.69213423999E+01  0.12220461486E+02  0.10500000000E+00 0. -1.
         13    1    6    6    0    0 -0.25633806095E+01  0.11273110025E+02 -0.77846382087E+01  0.13937917593E+02  0.10500000000E+00 0.  1.
</event>
<event>
11    0  0.3515428E-009  0.9118800E+02  0.7816531E-02  0.1126479E+00
         25   -1    0    0    0    0  0.00000000000E+00  0.00000000000E+00  0.99999998245E-14  0.12500000000E+03  0.12500000000E+03 0.  0.
    3000001    1    3    3    0    0 -0.17056323620E+02  0.21914098807E+02  0.26876587598E+02  0.38658722986E+02  0.10000000000E+01 0. -1.
    1000022    2    1    0    0    0 -0.21006128904E+02  0.33669990997E+02  0.47236895137E+02  0.62500002053E+02  0.10000012464E+02 0.  0.
    3000022    2    3    3    0    0 -0.39498052837E+01  0.11755892190E+02  0.20360307538E+02  0.23841279067E+02  0.25000314771E+00 0.  0.
    1000022    2    1    0    0    0  0.21006128904E+02 -0.33669990997E+02 -0.47236895137E+02  0.62499997947E+02  0.99999867997E+01 0.  0.
    3000022    2    5    5    0    0  0.12866938973E+01 -0.73049678509E+00  0.14656816871E+00  0.15077116258E+01  0.25001075979E+00 0.  0.
        -13    1    4    4    0    0 -0.14845620136E+01  0.45618645517E+01  0.77969343414E+01  0.91552030390E+01  0.10500000000E+00 0.  1.
         13    1    4    4    0    0 -0.24652432701E+01  0.71940276379E+01  0.12563373197E+02  0.14686076028E+02  0.10500000000E+00 0. -1.
    3000001    1    5    5    0    0  0.19719435006E+02 -0.32939494211E+02 -0.47383463305E+02  0.60992286321E+02  0.10000000000E+01 0. -1.
        -13    1    6    6    0    0  0.86073182740E+00 -0.43838758821E+00  0.13095097353E+00  0.98041629611E+00  0.10500000000E+00 0. -1.
         13    1    6    6    0    0  0.42596206989E+00 -0.29210919688E+00  0.15617195173E-01  0.52729532965E+00  0.10500000000E+00 0.  1.
</event>
<event>
11    0  0.3515428E-009  0.9118800E+02  0.7816531E-02  0.1126479E+00
         25   -1    0    0    0    0  0.00000000000E+00  0.00000000000E+00  0.99999998245E-14  0.12500000000E+03  0.12500000000E+03 0.  0.
    3000001    1    3    3    0    0 -0.33719818733E+01 -0.10468557227E+01 -0.77213848669E+01  0.85490322798E+01  0.10000000000E+01 0.  1.
    1000022    2    1    0    0    0 -0.21436324321E+01 -0.15907194461E+02 -0.59570261002E+02  0.62500000442E+02  0.10000003191E+02 0.  0.
    3000022    2    3    3    0    0  0.12283494413E+01 -0.14860338738E+02 -0.51848876135E+02  0.53950968162E+02  0.24999887939E+00 0.  0.
    1000022    2    1    0    0    0  0.21436324321E+01  0.15907194461E+02  0.59570261002E+02  0.62499999558E+02  0.99999976661E+01 0.  0.
    3000022    2    5    5    0    0 -0.12448113116E+01  0.62471866636E+01  0.38824084512E+02  0.39343982184E+02  0.24999910358E+00 0.  0.
        -13    1    4    4    0    0  0.90700480349E+00 -0.10457040651E+02 -0.36443946134E+02  0.37925513731E+02  0.10500000000E+00 0. -1.
         13    1    4    4    0    0  0.32134463779E+00 -0.44032980875E+01 -0.15404930000E+02  0.16025454432E+02  0.10500000000E+00 0.  1.
    3000001    1    5    5    0    0  0.33884437436E+01  0.96600077974E+01  0.20746176490E+02  0.23156017374E+02  0.10000000000E+01 0. -1.
        -13    1    6    6    0    0 -0.45941334344E+00  0.21168779534E+01  0.12959886905E+02  0.13140088526E+02  0.10500000000E+00 0. -1.
         13    1    6    6    0    0 -0.78539796815E+00  0.41303087102E+01  0.25864197607E+02  0.26203893658E+02  0.10500000000E+00 0.  1.
</event>
<event>
11    0  0.3515428E-009  0.9118800E+02  0.7816531E-02  0.1126479E+00
         25   -1    0    0    0    0  0.00000000000E+00  0.00000000000E+00  0.99999998245E-14  0.12500000000E+03  0.12500000000E+03 0.  0.
    3000001    1    3    3    0    0  0.15123479076E+02 -0.78625942504E+01  0.30510044876E+02  0.34962878114E+02  0.10000000000E+01 0.  1.
    1000022    2    1    0    0    0  0.31387175020E+02 -0.66457672281E+01  0.52696573892E+02  0.62499999347E+02  0.10000002030E+02 0.  0.
    3000022    2    3    3    0    0  0.16263695944E+02  0.12168270223E+01  0.22186529017E+02  0.27537121233E+02  0.25000444534E+00 0.  0.
    1000022    2    1    0    0    0 -0.31387175020E+02  0.66457672281E+01 -0.52696573892E+02  0.62500000653E+02  0.10000010196E+02 0.  0.
    3000022    2    5    5    0    0 -0.16448807034E+02  0.68006174244E+01 -0.21625625601E+02  0.28009673830E+02  0.24999049005E+00 0.  0.
        -13    1    4    4    0    0  0.11692729744E+02  0.83474383484E+00  0.15951524588E+02  0.19795931093E+02  0.10500000000E+00 0. -1.
         13    1    4    4    0    0  0.45709661996E+01  0.38208318747E+00  0.62350044283E+01  0.77411901399E+01  0.10500000000E+00 0.  1.
    3000001    1    5    5    0    0 -0.14938367986E+02 -0.15485019632E+00 -0.31070948291E+02  0.34490326823E+02  0.10000000000E+01 0.  1.
        -13    1    6    6    0    0 -0.48053583617E+01  0.20328233498E+01 -0.63234376944E+01  0.81988248567E+01  0.10500000000E+00 0.  1.
         13    1    6    6    0    0 -0.11643448672E+02  0.47677940746E+01 -0.15302187907E+02  0.19810848973E+02  0.10500000000E+00 0. -1.
</event>
<event>
11    0  0.3515428E-009  0.9118800E+02  0.7816531E-02  0.1126479E+00
         25   -1    0    0    0    0  0.00000000000E+00  0.00000000000E+00  0.99999998245E-14  0.12500000000E+03  0.12500000000E+03 0.  0.
    3000001    1    3    3    0    0  0.17786856467E+02  0.67052486510E+01  0.38230287575E+01  0.19415153137E+02  0.10000000000E+01 0. -1.
    1000022    2    1    0    0    0  0.54025596299E+02  0.29784502132E+02  0.60692926094E+00  0.62499999683E+02  0.99999987258E+01 0.  0.
    3000022    2    3    3    0    0  0.36238739832E+02  0.23079253481E+02 -0.32160994966E+01  0.43084846546E+02  0.25000011767E+00 0.  0.
    1000022    2    1    0    0    0 -0.54025596299E+02 -0.29784502132E+02 -0.60692926094E+00  0.62500000317E+02  0.10000002689E+02 0.  0.
    3000022    2    5    5    0    0 -0.33826456807E+02 -0.23734709216E+02  0.93879400154E+00  0.41334119968E+02  0.25007532024E+00 0.  0.
        -13    1    4    4    0    0  0.25093139797E+02  0.16006913967E+02 -0.22705165145E+01  0.29850514734E+02  0.10500000000E+00 0.  1.
         13    1    4    4    0    0  0.11145600034E+02  0.70723395146E+01 -0.94558298214E+00  0.13234331812E+02  0.10500000000E+00 0. -1.
    3000001    1    5    5    0    0 -0.20199139492E+02 -0.60497929164E+01 -0.15457232625E+01  0.21165880349E+02  0.10000000000E+01 0.  1.
        -13    1    6    6    0    0 -0.24008542057E+02 -0.16861101405E+02  0.70770932243E+00  0.29346528070E+02  0.10500000000E+00 0.  1.
         13    1    6    6    0    0 -0.98179147499E+01 -0.68736078112E+01  0.23108467911E+00  0.11987591898E+02  0.10500000000E+00 0. -1.
</event>
<event>
11    0  0.3515428E-009  0.9118800E+02  0.7816531E-02  0.1126479E+00
         25   -1    0    0    0    0  0.00000000000E+00  0.00000000000E+00  0.99999998245E-14  0.12500000000E+03  0.12500000000E+03 0.  0.
    3000001    1    3    3    0    0 -0.14213678971E+02 -0.49719353174E+02 -0.13655886243E+02  0.53493233021E+02  0.10000000000E+01 0.  1.
    1000022    2    1    0    0    0 -0.18310344702E+02 -0.57619184193E+02 -0.12288658730E+02  0.62499997781E+02  0.99999739533E+01 0.  0.
    3000022    2    3    3    0    0 -0.40966657311E+01 -0.78998310189E+01  0.13672275124E+01  0.90067647603E+01  0.25000027393E+00 0.  0.
    1000022    2    1    0    0    0  0.18310344702E+02  0.57619184193E+02  0.12288658730E+02  0.62500002219E+02  0.10000001692E+02 0.  0.
    3000022    2    5    5    0    0  0.42999643418E+01  0.40942352468E+01  0.11551805535E+01  0.60538752145E+01  0.25001480794E+00 0.  0.
        -13    1    4    4    0    0 -0.28223772601E+01 -0.54561620423E+01  0.99210704689E+00  0.62234089551E+01  0.10500000000E+00 0.  1.
         13    1    4    4    0    0 -0.12742884711E+01 -0.24436689766E+01  0.37512046546E+00  0.27833558052E+01  0.10500000000E+00 0. -1.
    3000001    1    5    5    0    0  0.14010380360E+02  0.53524948946E+02  0.11133478177E+02  0.56446127005E+02  0.10000000000E+01 0.  1.
        -13    1    6    6    0    0  0.27392418013E+01  0.25552529743E+01  0.68225078521E+00  0.38091015401E+01  0.10500000000E+00 0. -1.
         13    1    6    6    0    0  0.15607225405E+01  0.15389822725E+01  0.47292976829E+00  0.22447736744E+01  0.10500000000E+00 0.  1.
</event>
<event>
11    0  0.3515428E-009  0.9118800E+02  0.7816531E-02  0.1126479E+00
         25   -1    0    0    0    0  0.00000000000E+00  0.00000000000E+00  0.99999998245E-14  0.12500000000E+03  0.12500000000E+03 0.  0.
    3000001    1    3    3    0    0  0.26825264454E+02 -0.27199128966E+02  0.37888680749E+00  0.38216893970E+02  0.10000000000E+01 0.  1.
    1000022    2    1    0    0    0  0.41701535109E+02 -0.44930502959E+02 -0.69628889294E+01  0.62499999860E+02  0.10000001687E+02 0.  0.
    3000022    2    3    3    0    0  0.14876270655E+02 -0.17731373993E+02 -0.73417757369E+01  0.24283105890E+02  0.25001684674E+00 0.  0.
    1000022    2    1    0    0    0 -0.41701535109E+02  0.44930502959E+02  0.69628889294E+01  0.62500000140E+02  0.10000003435E+02 0.  0.
    3000022    2    5    5    0    0 -0.17989134598E+02  0.23596315166E+02 -0.69745687671E+00  0.29680700869E+02  0.25000998829E+00 0.  0.
        -13    1    4    4    0    0  0.34082809699E+01 -0.40621739866E+01 -0.16863487678E+01  0.55652882975E+01  0.10500000000E+00 0.  1.
         13    1    4    4    0    0  0.11467989685E+02 -0.13669200006E+02 -0.56554269691E+01  0.18717817593E+02  0.10500000000E+00 0. -1.
    3000001    1    5    5    0    0 -0.23712400510E+02  0.21334187793E+02  0.76603458061E+01  0.32819299271E+02  0.10000000000E+01 0. -1.
        -13    1    6    6    0    0 -0.10280294106E+02  0.13382735258E+02 -0.37455865747E+00  0.16879969463E+02  0.10500000000E+00 0.  1.
         13    1    6    6    0    0 -0.77088404926E+01  0.10213579907E+02 -0.32289821923E+00  0.12800731406E+02  0.10500000000E+00 0. -1.
</event>
<event>
11    0  0.3515428E-009  0.9118800E+02  0.7816531E-02  0.1126479E+00
         25   -1    0    0    0    0  0.00000000000E+00  0.00000000000E+00  0.99999998245E-14  0.12500000000E+03  0.12500000000E+03 0.  0.
    3000001    1    3    3    0    0  0.13360766651E+02  0.48074723685E+02 -0.15962902724E+02  0.52397551529E+02  0.10000000000E+01 0. -1.
    1000022    2    1    0    0    0  0.16593665550E+02  0.54947986245E+02 -0.22618996898E+02  0.62499999839E+02  0.10000001523E+02 0.  0.
    3000022    2    3    3    0    0  0.32328988987E+01  0.68732625601E+01 -0.66560941747E+01  0.10102448310E+02  0.24999737610E+00 0.  0.
    1000022    2    1    0    0    0 -0.16593665550E+02 -0.54947986245E+02  0.22618996898E+02  0.62500000161E+02  0.10000003531E+02 0.  0.
    3000022    2    5    5    0    0  0.12580682757E+01 -0.52843561673E+01  0.14378434690E+01  0.56246820193E+01  0.24999617463E+00 0.  0.
        -13    1    4    4    0    0  0.11647724978E+01  0.23576129364E+01 -0.22733859122E+01  0.34776920847E+01  0.10500000000E+00 0. -1.
         13    1    4    4    0    0  0.20681264009E+01  0.45156496237E+01 -0.43827082624E+01  0.66247562255E+01  0.10500000000E+00 0.  1.
    3000001    1    5    5    0    0 -0.17851733826E+02 -0.49663630078E+02  0.21181153430E+02  0.56875318141E+02  0.10000000000E+01 0. -1.
        -13    1    6    6    0    0  0.94486811733E+00 -0.40010053867E+01  0.11088648469E+01  0.42592753036E+01  0.10500000000E+00 0.  1.
         13    1    6    6    0    0  0.31320015834E+00 -0.12833507806E+01  0.32897862207E+00  0.13654067156E+01  0.10500000000E+00 0. -1.
</event>
<event>
11    0  0.3515428E-009  0.9118800E+02  0.7816531E-02  0.1126479E+00
         25   -1    0    0    0    0  0.00000000000E+00  0.00000000000E+00  0.99999998245E-14  0.12500000000E+03  0.12500000000E+03 0.  0.
    3000001    1    3    3    0    0 -0.17308082937E+02 -0.28258882293E+02  0.31257978977E+02  0.45565287370E+02  0.10000000000E+01 0. -1.
    1000022    2    1    0    0    0 -0.27287066109E+02 -0.33933981193E+02  0.43705273524E+02  0.62500000058E+02  0.10000000851E+02 0.  0.
    3000022    2    3    3    0    0 -0.99789831722E+01 -0.56750989002E+01  0.12447294546E+02  0.16934712688E+02  0.24999922836E+00 0.  0.
    1000022    2    1    0    0    0  0.27287066109E+02  0.33933981193E+02 -0.43705273524E+02  0.62499999942E+02  0.10000000128E+02 0.  0.
    3000022    2    5    5    0    0  0.12033285728E+01  0.71045206465E+01 -0.79971132571E+01  0.10767476065E+02  0.25001419365E+00 0.  0.
        -13    1    4    4    0    0 -0.40103446713E+01 -0.22110085914E+01  0.49906958966E+01  0.67741784673E+01  0.10500000000E+00 0. -1.
         13    1    4    4    0    0 -0.59686385009E+01 -0.34640903088E+01  0.74565986498E+01  0.10160534221E+02  0.10500000000E+00 0.  1.
    3000001    1    5    5    0    0  0.26083737536E+02  0.26829460546E+02 -0.35708160267E+02  0.51732523877E+02  0.10000000000E+01 0. -1.
        -13    1    6    6    0    0  0.70899830631E+00  0.38105020233E+01 -0.43366629639E+01  0.58172394596E+01  0.10500000000E+00 0. -1.
         13    1    6    6    0    0  0.49433026653E+00  0.32940186232E+01 -0.36604502933E+01  0.49502366057E+01  0.10500000000E+00 0.  1.
</event>
<event>
11    0  0.3515428E-009  0.9118800E+02  0.7816531E-02  0.1126479E+00
         25   -1    0    0    0    0  0.00000000000E+00  0.00000000000E+00  0.99999998245E-14  0.12500000000E+03  0.12500000000E+03 0.  0.
    3000001    1    3    3    0    0  0.38943637957E+01 -0.96865031382E+01  0.36360508620E+02  0.37842846081E+02  0.10000000000E+01 0. -1.
    1000022    2    1    0    0    0  0.12036581126E+02 -0.10307425431E+02  0.59624893030E+02  0.62500001664E+02  0.10000001747E+02 0.  0.
    3000022    2    3    3    0    0  0.81422173299E+01 -0.62092229281E+00  0.23264384410E+02  0.24657155583E+02  0.24998382823E+00 0.  0.
    1000022    2    1    0    0    0 -0.12036581126E+02  0.10307425431E+02 -0.59624893030E+02  0.62499998336E+02  0.99999809460E+01 0.  0.
    3000022    2    5    5    0    0 -0.44254676786E+00  0.42684258566E+01 -0.65858208463E+01  0.78645306737E+01  0.24999912519E+00 0.  0.
        -13    1    4    4    0    0  0.42770610857E+01 -0.31082213281E+00  0.12018306376E+02  0.12760900246E+02  0.10500000000E+00 0. -1.
         13    1    4    4    0    0  0.38651562442E+01 -0.31010015999E+00  0.11246078034E+02  0.11896255337E+02  0.10500000000E+00 0.  1.
    3000001    1    5    5    0    0 -0.11594034358E+02  0.60389995745E+01 -0.53039072184E+02  0.54635467662E+02  0.10000000000E+01 0. -1.
        -13    1    6    6    0    0 -0.26298698542E+00  0.20206998385E+01 -0.30506993390E+01  0.36701745801E+01  0.10500000000E+00 0. -1.
         13    1    6    6    0    0 -0.17955978245E+00  0.22477260181E+01 -0.35351215073E+01  0.41943560936E+01  0.10500000000E+00 0.  1.
</event>
<event>
11    0  0.3515428E-009  0.9118800E+02  0.7816531E-02  0.1126479E+00
         25   -1    0    0    0    0  0.00000000000E+00  0.00000000000E+00  0.99999998245E-14  0.12500000000E+03  0.12500000000E+03 0.  0.
    3000001    1    3    3    0    0 -0.33440478781E+02 -0.45644859277E+02  0.64008844538E+01  0.56953403070E+02  0.10000000000E+01 0. -1.
    1000022    2    1    0    0    0 -0.34148465874E+02 -0.50642691731E+02  0.86861984281E+01  0.62499999630E+02  0.99999981658E+01 0.  0.
    3000022    2    3    3    0    0 -0.70798709362E+00 -0.49978324547E+01  0.22853139743E+01  0.55465965605E+01  0.24999694739E+00 0.  0.
    1000022    2    1    0    0    0  0.34148465874E+02  0.50642691731E+02 -0.86861984281E+01  0.62500000370E+02  0.10000002786E+02 0.  0.
    3000022    2    5    5    0    0  0.28925461161E+02  0.43651289402E+02 -0.39353121874E+01  0.52513489225E+02  0.24999755419E+00 0.  0.
        -13    1    4    4    0    0 -0.40201755107E+00 -0.30284132715E+01  0.14445168161E+01  0.33809109551E+01  0.10500000000E+00 0.  1.
         13    1    4    4    0    0 -0.30596954254E+00 -0.19694191832E+01  0.84079715823E+00  0.21656856054E+01  0.10500000000E+00 0. -1.
    3000001    1    5    5    0    0  0.52230047131E+01  0.69914023296E+01 -0.47508862407E+01  0.99865111445E+01  0.10000000000E+01 0. -1.
        -13    1    6    6    0    0  0.12396064285E+02  0.18589193331E+02 -0.16854685023E+01  0.22406970958E+02  0.10500000000E+00 0.  1.
         13    1    6    6    0    0  0.16529396876E+02  0.25062096071E+02 -0.22498436850E+01  0.30106518267E+02  0.10500000000E+00 0. -1.
</event>
<event>
11    0  0.3515428E-009  0.9118800E+02  0.7816531E-02  0.1126479E+00
         25   -1    0    0    0    0  0.00000000000E+00  0.00000000000E+00  0.99999998245E-14  0.12500000000E+03  0.12500000000E+03 0.  0.
    3000001    1    3    3    0    0  0.13038369067E+02 -0.83985465017E+01 -0.33805074753E+02  0.37206420552E+02  0.10000000000E+01 0. -1.
    1000022    2    1    0    0    0  0.17982604934E+02 -0.71683442364E+01 -0.58578928501E+02  0.62500000739E+02  0.99999994382E+01 0.  0.
    3000022    2    3    3    0    0  0.49442358672E+01  0.12302022654E+01 -0.24773853748E+02  0.25293580187E+02  0.25000642462E+00 0.  0.
    1000022    2    1    0    0    0 -0.17982604934E+02  0.71683442364E+01  0.58578928501E+02  0.62499999261E+02  0.99999902001E+01 0.  0.
    3000022    2    5    5    0    0 -0.10893683269E+02  0.78789544423E+01  0.27662504435E+02  0.30757550486E+02  0.25000396913E+00 0.  0.
        -13    1    4    4    0    0  0.24675647306E+01  0.56262860574E+00 -0.12075840359E+02  0.12338653574E+02  0.10500000000E+00 0. -1.
         13    1    4    4    0    0  0.24766711366E+01  0.66757365962E+00 -0.12698013389E+02  0.12954926612E+02  0.10500000000E+00 0.  1.
    3000001    1    5    5    0    0 -0.70889216650E+01 -0.71061020594E+00  0.30916424066E+02  0.31742448775E+02  0.10000000000E+01 0. -1.
        -13    1    6    6    0    0 -0.55399386591E+01  0.39243224264E+01  0.13941903408E+02  0.15507382838E+02  0.10500000000E+00 0. -1.
         13    1    6    6    0    0 -0.53537446100E+01  0.39546320160E+01  0.13720601027E+02  0.15250167647E+02  0.10500000000E+00 0.  1.
</event>
<event>
11    0  0.3515428E-009  0.9118800E+02  0.7816531E-02  0.1126479E+00
         25   -1    0    0    0    0  0.00000000000E+00  0.00000000000E+00  0.99999998245E-14  0.12500000000E+03  0.12500000000E+03 0.  0.
    3000001    1    3    3    0    0 -0.40902065358E-01  0.18237587645E+01 -0.34977397700E+00  0.21095285836E+01  0.10000000000E+01 0.  1.
    1000022    2    1    0    0    0 -0.44247144406E+02  0.41412638419E+02 -0.11551357094E+02  0.62500001495E+02  0.99999963659E+01 0.  0.
    3000022    2    3    3    0    0 -0.44206242340E+02  0.39588879654E+02 -0.11201583117E+02  0.60390472911E+02  0.25000004154E+00 0.  0.
    1000022    2    1    0    0    0  0.44247144406E+02 -0.41412638419E+02  0.11551357094E+02  0.62499998505E+02  0.99999776781E+01 0.  0.
    3000022    2    5    5    0    0  0.25499366173E+02 -0.17892488330E+02  0.82464847101E+01  0.32224615265E+02  0.25001008114E+00 0.  0.
        -13    1    4    4    0    0 -0.22855993181E+02  0.20381227109E+02 -0.57617752600E+01  0.31160871649E+02  0.10500000000E+00 0.  1.
         13    1    4    4    0    0 -0.21350249160E+02  0.19207652545E+02 -0.54398078570E+01  0.29229601263E+02  0.10500000000E+00 0. -1.
    3000001    1    5    5    0    0  0.18747778233E+02 -0.23520150089E+02  0.33048723839E+01  0.30275383240E+02  0.10000000000E+01 0. -1.
        -13    1    6    6    0    0  0.17593415123E+02 -0.12292683087E+02  0.56577410403E+01  0.22195931425E+02  0.10500000000E+00 0.  1.
         13    1    6    6    0    0  0.79059510498E+01 -0.55998052430E+01  0.25887436698E+01  0.10028683839E+02  0.10500000000E+00 0. -1.
</event>
<event>
11    0  0.3515428E-009  0.9118800E+02  0.7816531E-02  0.1126479E+00
         25   -1    0    0    0    0  0.00000000000E+00  0.00000000000E+00  0.99999998245E-14  0.12500000000E+03  0.12500000000E+03 0.  0.
    3000001    1    3    3    0    0 -0.57400679141E+00 -0.85619644640E+00  0.17741624502E+01  0.22825881256E+01  0.10000000000E+01 0. -1.
    1000022    2    1    0    0    0  0.89232905548E+01  0.10830000386E+02  0.60077747304E+02  0.62499997255E+02  0.99999956526E+01 0.  0.
    3000022    2    3    3    0    0  0.94972973462E+01  0.11686196833E+02  0.58303584853E+02  0.60217409129E+02  0.25000430807E+00 0.  0.
    1000022    2    1    0    0    0 -0.89232905548E+01 -0.10830000386E+02 -0.60077747304E+02  0.62500002745E+02  0.10000029970E+02 0.  0.
    3000022    2    5    5    0    0  0.71501247873E+00 -0.45770195273E-01 -0.17597171139E+02  0.17613525300E+02  0.25000728795E+00 0.  0.
        -13    1    4    4    0    0  0.60110059339E+01  0.73246774033E+01  0.36528364471E+02  0.37737455231E+02  0.10500000000E+00 0.  1.
         13    1    4    4    0    0  0.34862914123E+01  0.43615194294E+01  0.21775220382E+02  0.22479953898E+02  0.10500000000E+00 0. -1.
    3000001    1    5    5    0    0 -0.96383030335E+01 -0.10784230191E+02 -0.42480576165E+02  0.44886477446E+02  0.10000000000E+01 0.  1.
        -13    1    6    6    0    0  0.35829611004E+00 -0.90876071827E-01 -0.89340413301E+01  0.89423013845E+01  0.10500000000E+00 0.  1.
         13    1    6    6    0    0  0.35671636870E+00  0.45105876553E-01 -0.86631298085E+01  0.86712239152E+01  0.10500000000E+00 0. -1.
</event>
<event>
11    0  0.3515428E-009  0.9118800E+02  0.7816531E-02  0.1126479E+00
         25   -1    0    0    0    0  0.00000000000E+00  0.00000000000E+00  0.99999998245E-14  0.12500000000E+03  0.12500000000E+03 0.  0.
    3000001    1    3    3    0    0  0.19318762943E+02 -0.14280224654E+02 -0.54552753108E+01  0.24655616937E+02  0.10000000000E+01 0. -1.
    1000022    2    1    0    0    0  0.49163337811E+02 -0.28851541254E+02 -0.23596729237E+02  0.62499992573E+02  0.99999111744E+01 0.  0.
    3000022    2    3    3    0    0  0.29844574868E+02 -0.14571316600E+02 -0.18141453926E+02  0.37844375636E+02  0.25000047050E+00 0.  0.
    1000022    2    1    0    0    0 -0.49163337811E+02  0.28851541254E+02  0.23596729237E+02  0.62500007427E+02  0.10000004008E+02 0.  0.
    3000022    2    5    5    0    0 -0.17532056717E+02  0.12086580857E+02  0.39758573064E+01  0.21663988324E+02  0.24999853640E+00 0.  0.
        -13    1    4    4    0    0  0.10480291915E+02 -0.51794647802E+01 -0.63952675423E+01  0.13325683696E+02  0.10500000000E+00 0. -1.
         13    1    4    4    0    0  0.19364282953E+02 -0.93918518198E+01 -0.11746186384E+02  0.24518691940E+02  0.10500000000E+00 0.  1.
    3000001    1    5    5    0    0 -0.31631281095E+02  0.16764960397E+02  0.19620871930E+02  0.40836019102E+02  0.10000000000E+01 0. -1.
        -13    1    6    6    0    0 -0.71427279459E+01  0.49827990546E+01  0.16686619713E+01  0.88680497689E+01  0.10500000000E+00 0. -1.
         13    1    6    6    0    0 -0.10389328771E+02  0.71037818022E+01  0.23071953351E+01  0.12795938556E+02  0.10500000000E+00 0.  1.
</event>
<event>
11    0  0.3515428E-009  0.9118800E+02  0.7816531E-02  0.1126479E+00
         25   -1    0    0    0    0  0.00000000000E+00  0.00000000000E+00  0.99999998245E-14  0.12500000000E+03  0.12500000000E+03 0.  0.
    3000001    1    3    3    0    0  0.59729478189E+01  0.13687634769E+02  0.10187305460E+01  0.15002175281E+02  0.10000000000E+01 0.  1.
    1000022    2    1    0    0    0  0.38692148735E+02  0.47299872041E+02  0.84787791619E+01  0.62500000773E+02  0.10000006582E+02 0.  0.
    3000022    2    3    3    0    0  0.32719200916E+02  0.33612237272E+02  0.74600486158E+01  0.47497825492E+02  0.24999617909E+00 0.  0.
    1000022    2    1    0    0    0 -0.38692148735E+02 -0.47299872041E+02 -0.84787791619E+01  0.62499999227E+02  0.99999969232E+01 0.  0.
    3000022    2    5    5    0    0  0.81893733544E-01 -0.30050765846E+01 -0.82969011629E+00  0.31285933390E+01  0.25003745531E+00 0.  0.
        -13    1    4    4    0    0  0.23078415059E+02  0.23767572350E+02  0.52840783768E+01  0.33547626538E+02  0.10500000000E+00 0.  1.
         13    1    4    4    0    0  0.96407858570E+01  0.98446649222E+01  0.21759702390E+01  0.13950198954E+02  0.10500000000E+00 0. -1.
    3000001    1    5    5    0    0 -0.38774042469E+02 -0.44294795457E+02 -0.76490890456E+01  0.59371405888E+02  0.10000000000E+01 0. -1.
        -13    1    6    6    0    0  0.89623398109E-01 -0.22407761161E+01 -0.62359171197E+00  0.23300217980E+01  0.10500000000E+00 0. -1.
         13    1    6    6    0    0 -0.77296645644E-02 -0.76430046851E+00 -0.20609840432E+00  0.79857154103E+00  0.10500000000E+00 0.  1.
</event>
<event>
11    0  0.3515428E-009  0.9118800E+02  0.7816531E-02  0.1126479E+00
         25   -1    0    0    0    0  0.00000000000E+00  0.00000000000E+00  0.99999998245E-14  0.12500000000E+03  0.12500000000E+03 0.  0.
    3000001    1    3    3    0    0 -0.98284442927E+00  0.42193605026E+01 -0.15792742560E+00  0.44490366704E+01  0.10000000000E+01 0. -1.
    1000022    2    1    0    0    0  0.15610627269E+01  0.55324687047E+02  0.27257875730E+02  0.62500002430E+02  0.10000030033E+02 0.  0.
    3000022    2    3    3    0    0  0.25439071562E+01  0.51105326545E+02  0.27415803156E+02  0.58050965759E+02  0.24999607415E+00 0.  0.
    1000022    2    1    0    0    0 -0.15610627269E+01 -0.55324687047E+02 -0.27257875730E+02  0.62499997570E+02  0.99999996642E+01 0.  0.
    3000022    2    5    5    0    0  0.58206673101E+00 -0.16382818708E+02 -0.33197679405E+01  0.16727788555E+02  0.25000051916E+00 0.  0.
        -13    1    4    4    0    0  0.11614201638E+01  0.23368340626E+02  0.12612038936E+02  0.26580120232E+02  0.10500000000E+00 0. -1.
         13    1    4    4    0    0  0.13824869924E+01  0.27736985918E+02  0.14803764220E+02  0.31470845527E+02  0.10500000000E+00 0.  1.
    3000001    1    5    5    0    0 -0.21431294579E+01 -0.38941868339E+02 -0.23938107790E+02  0.45772209016E+02  0.10000000000E+01 0.  1.
        -13    1    6    6    0    0  0.21332117405E+00 -0.76138953088E+01 -0.15786174469E+01  0.77794579336E+01  0.10500000000E+00 0. -1.
         13    1    6    6    0    0  0.36874555695E+00 -0.87689233989E+01 -0.17411504935E+01  0.89483306210E+01  0.10500000000E+00 0.  1.
</event>
<event>
11    0  0.3515428E-009  0.9118800E+02  0.7816531E-02  0.1126479E+00
         25   -1    0    0    0    0  0.00000000000E+00  0.00000000000E+00  0.99999998245E-14  0.12500000000E+03  0.12500000000E+03 0.  0.
    3000001    1    3    3    0    0 -0.85309561106E+01 -0.13805467852E+02 -0.57302149090E+01  0.17239591575E+02  0.10000000000E+01 0. -1.
    1000022    2    1    0    0    0 -0.43158495481E+02 -0.40343125923E+02 -0.17777134030E+02  0.62499999586E+02  0.99999956243E+01 0.  0.
    3000022    2    3    3    0    0 -0.34627539371E+02 -0.26537658071E+02 -0.12046919121E+02  0.45260408011E+02  0.24998849190E+00 0.  0.
    1000022    2    1    0    0    0  0.43158495481E+02  0.40343125923E+02  0.17777134030E+02  0.62500000414E+02  0.10000000799E+02 0.  0.
    3000022    2    5    5    0    0  0.75415016776E+01  0.11632887211E+02  0.15628175870E+01  0.13953609073E+02  0.24998986447E+00 0.  0.
        -13    1    4    4    0    0 -0.88581604745E+01 -0.67816425982E+01 -0.31107060774E+01  0.11582106916E+02  0.10500000000E+00 0. -1.
         13    1    4    4    0    0 -0.25769378896E+02 -0.19756015473E+02 -0.89362130438E+01  0.33678301095E+02  0.10500000000E+00 0.  1.
    3000001    1    5    5    0    0  0.35616993804E+02  0.28710238711E+02  0.16214316443E+02  0.48546391341E+02  0.10000000000E+01 0. -1.
        -13    1    6    6    0    0  0.24252411191E+01  0.38074841891E+01  0.54647561901E+00  0.45484492894E+01  0.10500000000E+00 0. -1.
         13    1    6    6    0    0  0.51162605585E+01  0.78254030223E+01  0.10163419680E+01  0.94051597839E+01  0.10500000000E+00 0.  1.
</event>
<event>
11    0  0.3515428E-009  0.9118800E+02  0.7816531E-02  0.1126479E+00
         25   -1    0    0    0    0  0.00000000000E+00  0.00000000000E+00  0.99999998245E-14  0.12500000000E+03  0.12500000000E+03 0.  0.
    3000001    1    3    3    0    0  0.10287046371E+01  0.17616578234E+02 -0.34920820962E+01  0.18016567356E+02  0.10000000000E+01 0.  1.
    1000022    2    1    0    0    0  0.15178341694E+02  0.59763801949E+02 -0.20386038973E+01  0.62500000158E+02  0.10000001701E+02 0.  0.
    3000022    2    3    3    0    0  0.14149637057E+02  0.42147223714E+02  0.14534781988E+01  0.44483432803E+02  0.24999874604E+00 0.  0.
    1000022    2    1    0    0    0 -0.15178341694E+02 -0.59763801949E+02  0.20386038973E+01  0.62499999842E+02  0.99999997198E+01 0.  0.
    3000022    2    5    5    0    0 -0.87144432978E+01 -0.16356043392E+02  0.15554302413E+01  0.18599556311E+02  0.24990857975E+00 0.  0.
        -13    1    4    4    0    0  0.84083662257E+01  0.25188360265E+02  0.82395002111E+00  0.26567725421E+02  0.10500000000E+00 0. -1.
         13    1    4    4    0    0  0.57412708311E+01  0.16958863450E+02  0.62952817773E+00  0.17915707382E+02  0.10500000000E+00 0.  1.
    3000001    1    5    5    0    0 -0.64638983961E+01 -0.43407758557E+02  0.48317365605E+00  0.43900443531E+02  0.10000000000E+01 0. -1.
        -13    1    6    6    0    0 -0.49551880721E+01 -0.91629389626E+01  0.88747981052E+00  0.10455237189E+02  0.10500000000E+00 0. -1.
         13    1    6    6    0    0 -0.37592552256E+01 -0.71931044291E+01  0.66795043075E+00  0.81443191218E+01  0.10500000000E+00 0.  1.
</event>
<event>
11    0  0.3515428E-009  0.9118800E+02  0.7816531E-02  0.1126479E+00
         25   -1    0    0    0    0  0.00000000000E+00  0.00000000000E+00  0.99999998245E-14  0.12500000000E+03  0.12500000000E+03 0.  0.
    3000001    1    3    3    0    0  0.14429590905E+02 -0.10250713864E+02  0.50367982209E+01  0.18429855255E+02  0.10000000000E+01 0.  1.
    1000022    2    1    0    0    0  0.53484957257E+02 -0.30583609563E+02  0.32019256482E+01  0.62499998734E+02  0.99999843638E+01 0.  0.
    3000022    2    3    3    0    0  0.39055366352E+02 -0.20332895699E+02 -0.18348725727E+01  0.44070143479E+02  0.25000108854E+00 0.  0.
    1000022    2    1    0    0    0 -0.53484957257E+02  0.30583609563E+02 -0.32019256482E+01  0.62500001266E+02  0.10000000185E+02 0.  0.
    3000022    2    5    5    0    0 -0.11288337344E+02  0.30907342629E+01  0.19375959870E+01  0.11865747968E+02  0.24999673222E+00 0.  0.
        -13    1    4    4    0    0  0.18289599938E+02 -0.95377802214E+01 -0.79364837563E+00  0.20642665046E+02  0.10500000000E+00 0. -1.
         13    1    4    4    0    0  0.20765766413E+02 -0.10795115477E+02 -0.10412241971E+01  0.23427478433E+02  0.10500000000E+00 0.  1.
    3000001    1    5    5    0    0 -0.42196619913E+02  0.27492875300E+02 -0.51395216352E+01  0.50634253297E+02  0.10000000000E+01 0. -1.
        -13    1    6    6    0    0 -0.77303274985E+01  0.21141567394E+01  0.13769032040E+01  0.81323126714E+01  0.10500000000E+00 0. -1.
         13    1    6    6    0    0 -0.35580098454E+01  0.97657752351E+00  0.56069278301E+00  0.37334352969E+01  0.10500000000E+00 0.  1.
</event>
<event>
11    0  0.3515428E-009  0.9118800E+02  0.7816531E-02  0.1126479E+00
         25   -1    0    0    0    0  0.00000000000E+00  0.00000000000E+00  0.99999998245E-14  0.12500000000E+03  0.12500000000E+03 0.  0.
    3000001    1    3    3    0    0 -0.83276871798E+01 -0.14642384487E+02  0.69756420682E+01  0.18259501075E+02  0.10000000000E+01 0. -1.
    1000022    2    1    0    0    0 -0.22078673985E+02 -0.44514477057E+02  0.36568340140E+02  0.62500000987E+02  0.10000005509E+02 0.  0.
    3000022    2    3    3    0    0 -0.13750986806E+02 -0.29872092570E+02  0.29592698072E+02  0.44240499913E+02  0.25000139640E+00 0.  0.
    1000022    2    1    0    0    0  0.22078673985E+02  0.44514477057E+02 -0.36568340140E+02  0.62499999013E+02  0.99999931658E+01 0.  0.
    3000022    2    5    5    0    0  0.86175316392E+01  0.24162581631E+02 -0.13893406509E+02  0.29175014153E+02  0.25000755756E+00 0.  0.
        -13    1    4    4    0    0 -0.65491061824E+01 -0.14234176230E+02  0.14190652285E+02  0.21139730414E+02  0.10500000000E+00 0.  1.
         13    1    4    4    0    0 -0.72018806231E+01 -0.15637916340E+02  0.15402045787E+02  0.23100769498E+02  0.10500000000E+00 0. -1.
    3000001    1    5    5    0    0  0.13461142346E+02  0.20351895427E+02 -0.22674933631E+02  0.33324984860E+02  0.10000000000E+01 0. -1.
        -13    1    6    6    0    0  0.56974760022E+01  0.15839353186E+02 -0.90802498711E+01  0.19126115781E+02  0.10500000000E+00 0. -1.
         13    1    6    6    0    0  0.29200556370E+01  0.83232284450E+01 -0.48131566378E+01  0.10048898372E+02  0.10500000000E+00 0.  1.
</event>
<event>
11    0  0.3515428E-009  0.9118800E+02  0.7816531E-02  0.1126479E+00
         25   -1    0    0    0    0  0.00000000000E+00  0.00000000000E+00  0.99999998245E-14  0.12500000000E+03  0.12500000000E+03 0.  0.
    3000001    1    3    3    0    0 -0.11871789289E+01 -0.47299942325E+02 -0.67127652002E+01  0.47799112485E+02  0.10000000000E+01 0.  1.
    1000022    2    1    0    0    0  0.38642505280E+01 -0.61012900505E+02 -0.82911910078E+01  0.62499999722E+02  0.99999828329E+01 0.  0.
    3000022    2    3    3    0    0  0.50514294570E+01 -0.13712958181E+02 -0.15784258076E+01  0.14700887237E+02  0.24999177763E+00 0.  0.
    1000022    2    1    0    0    0 -0.38642505280E+01  0.61012900505E+02  0.82911910078E+01  0.62500000278E+02  0.99999863107E+01 0.  0.
    3000022    2    5    5    0    0  0.31713509654E+01  0.11930480231E+02  0.13028941398E+01  0.12415871440E+02  0.25000997105E+00 0.  0.
        -13    1    4    4    0    0  0.22940890364E+01 -0.60669190340E+01 -0.73701980935E+00  0.65287498245E+01  0.10500000000E+00 0.  1.
         13    1    4    4    0    0  0.27573404205E+01 -0.76460391467E+01 -0.84140599826E+00  0.81721374121E+01  0.10500000000E+00 0. -1.
    3000001    1    5    5    0    0 -0.70356014934E+01  0.49082420274E+02  0.69882968680E+01  0.50084128838E+02  0.10000000000E+01 0.  1.
        -13    1    6    6    0    0  0.21507755293E+01  0.82768958677E+01  0.90410775597E+00  0.86000742100E+01  0.10500000000E+00 0.  1.
         13    1    6    6    0    0  0.10205754361E+01  0.36535843634E+01  0.39878638383E+00  0.38157972301E+01  0.10500000000E+00 0. -1.
</event>
<event>
11    0  0.3515428E-009  0.9118800E+02  0.7816531E-02  0.1126479E+00
         25   -1    0    0    0    0  0.00000000000E+00  0.00000000000E+00  0.99999998245E-14  0.12500000000E+03  0.12500000000E+03 0.  0.
    3000001    1    3    3    0    0  0.32726781610E+01  0.21809725149E+01 -0.10154451599E+00  0.40592332706E+01  0.10000000000E+01 0. -1.
    1000022    2    1    0    0    0  0.59845672859E+02  0.26961428600E+01 -0.14747080449E+02  0.62500001157E+02  0.10000000829E+02 0.  0.
    3000022    2    3    3    0    0  0.56572994698E+02  0.51517034512E+00 -0.14645535933E+02  0.58440767886E+02  0.24999758543E+00 0.  0.
    1000022    2    1    0    0    0 -0.59845672859E+02 -0.26961428600E+01  0.14747080449E+02  0.62499998843E+02  0.99999863698E+01 0.  0.
    3000022    2    5    5    0    0 -0.30495198976E+01 -0.23904488874E+01  0.15543405986E+01  0.41823786522E+01  0.24999800826E+00 0.  0.
        -13    1    4    4    0    0  0.16356619420E+02  0.17401225253E+00 -0.41988272193E+01  0.16888174979E+02  0.10500000000E+00 0. -1.
         13    1    4    4    0    0  0.40216375278E+02  0.34115809259E+00 -0.10446708713E+02  0.41552592907E+02  0.10500000000E+00 0.  1.
    3000001    1    5    5    0    0 -0.56796152961E+02 -0.30569397256E+00  0.13192739850E+02  0.58317620191E+02  0.10000000000E+01 0.  1.
        -13    1    6    6    0    0 -0.19993418560E+01 -0.15332950078E+01  0.95603788680E+00  0.26969232246E+01  0.10500000000E+00 0. -1.
         13    1    6    6    0    0 -0.10501780417E+01 -0.85715387962E+00  0.59830271178E+00  0.14854554276E+01  0.10500000000E+00 0.  1.
</event>
<event>
11    0  0.3515428E-009  0.9118800E+02  0.7816531E-02  0.1126479E+00
         25   -1    0    0    0    0  0.00000000000E+00  0.00000000000E+00  0.99999998245E-14  0.12500000000E+03  0.12500000000E+03 0.  0.
    3000001    1    3    3    0    0 -0.13778883812E+02 -0.15631562129E+02 -0.78731576771E+01  0.22297757410E+02  0.10000000000E+01 0. -1.
    1000022    2    1    0    0    0 -0.30245028740E+02 -0.43007000285E+02 -0.32278268849E+02  0.62500002317E+02  0.99999906372E+01 0.  0.
    3000022    2    3    3    0    0 -0.16466144928E+02 -0.27375438157E+02 -0.24405111172E+02  0.40202244908E+02  0.25000248364E+00 0.  0.
    1000022    2    1    0    0    0  0.30245028740E+02  0.43007000285E+02  0.32278268849E+02  0.62499997683E+02  0.99999616696E+01 0.  0.
    3000022    2    5    5    0    0  0.20088857665E+02  0.21696708567E+02  0.14518031423E+02  0.32941540729E+02  0.25000860250E+00 0.  0.
        -13    1    4    4    0    0 -0.11188662170E+02 -0.18582619082E+02 -0.16633506268E+02  0.27334674845E+02  0.10500000000E+00 0.  1.
         13    1    4    4    0    0 -0.52774827579E+01 -0.87928190752E+01 -0.77716049038E+01  0.12867570063E+02  0.10500000000E+00 0. -1.
    3000001    1    5    5    0    0  0.10156171075E+02  0.21310291719E+02  0.17760237426E+02  0.29558456953E+02  0.10000000000E+01 0. -1.
        -13    1    6    6    0    0  0.11228943743E+02  0.12163563416E+02  0.81964377954E+01  0.18472522029E+02  0.10500000000E+00 0.  1.
         13    1    6    6    0    0  0.88599139215E+01  0.95331451505E+01  0.63215936279E+01  0.14469018700E+02  0.10500000000E+00 0. -1.
</event>
<event>
11    0  0.3515428E-009  0.9118800E+02  0.7816531E-02  0.1126479E+00
         25   -1    0    0    0    0  0.00000000000E+00  0.00000000000E+00  0.99999998245E-14  0.12500000000E+03  0.12500000000E+03 0.  0.
    3000001    1    3    3    0    0  0.66929939653E-01 -0.69916676531E+00 -0.10730580534E+02  0.10799938536E+02  0.10000000000E+01 0.  1.
    1000022    2    1    0    0    0 -0.20455110985E+02 -0.39587749559E+01 -0.58070360545E+02  0.62500001203E+02  0.99999955979E+01 0.  0.
    3000022    2    3    3    0    0 -0.20522040925E+02 -0.32596081906E+01 -0.47339780011E+02  0.51700062666E+02  0.24999798872E+00 0.  0.
    1000022    2    1    0    0    0  0.20455110985E+02  0.39587749559E+01  0.58070360545E+02  0.62499998797E+02  0.99999805645E+01 0.  0.
    3000022    2    5    5    0    0  0.18158929152E+02  0.41803150334E+01  0.38546541540E+02  0.42814952707E+02  0.25013784548E+00 0.  0.
        -13    1    4    4    0    0 -0.70131573770E+01 -0.10637584418E+01 -0.16101463806E+02  0.17595002703E+02  0.10500000000E+00 0. -1.
         13    1    4    4    0    0 -0.13508883548E+02 -0.21958497488E+01 -0.31238316204E+02  0.34105059963E+02  0.10500000000E+00 0.  1.
    3000001    1    5    5    0    0  0.22961818332E+01 -0.22154007752E+00  0.19523819005E+02  0.19685046090E+02  0.10000000000E+01 0. -1.
        -13    1    6    6    0    0  0.86006516127E+01  0.20287976101E+01  0.18390109054E+02  0.20403292967E+02  0.10500000000E+00 0.  1.
         13    1    6    6    0    0  0.95582775391E+01  0.21515174233E+01  0.20156432486E+02  0.22411659740E+02  0.10500000000E+00 0. -1.
</event>
<event>
11    0  0.3515428E-009  0.9118800E+02  0.7816531E-02  0.1126479E+00
         25   -1    0    0    0    0  0.00000000000E+00  0.00000000000E+00  0.99999998245E-14  0.12500000000E+03  0.12500000000E+03 0.  0.
    3000001    1    3    3    0    0 -0.14933776013E+02  0.27809653679E+02  0.39751168764E+02  0.50769576735E+02  0.10000000000E+01 0. -1.
    1000022    2    1    0    0    0 -0.21210040149E+02  0.35897675893E+02  0.45472422243E+02  0.62500000289E+02  0.99999956929E+01 0.  0.
    3000022    2    3    3    0    0 -0.62762641353E+01  0.80880222137E+01  0.57212534796E+01  0.11730423554E+02  0.25000111386E+00 0.  0.
    1000022    2    1    0    0    0  0.21210040149E+02 -0.35897675893E+02 -0.45472422243E+02  0.62499999711E+02  0.99999920755E+01 0.  0.
    3000022    2    5    5    0    0  0.76996849246E+01 -0.59412610086E+01 -0.75816474770E+01  0.12334002228E+02  0.25000437572E+00 0.  0.
        -13    1    4    4    0    0 -0.21317282116E+01  0.26629632070E+01  0.18903902340E+01  0.39013124005E+01  0.10500000000E+00 0.  1.
         13    1    4    4    0    0 -0.41445359238E+01  0.54250590067E+01  0.38308632456E+01  0.78291111537E+01  0.10500000000E+00 0. -1.
    3000001    1    5    5    0    0  0.13510355224E+02 -0.29956414884E+02 -0.37890774766E+02  0.50165997482E+02  0.10000000000E+01 0. -1.
        -13    1    6    6    0    0  0.22563741560E+01 -0.17543384906E+01 -0.22834656264E+01  0.36598043853E+01  0.10500000000E+00 0. -1.
         13    1    6    6    0    0  0.54433107686E+01 -0.41869225181E+01 -0.52981818505E+01  0.86741978429E+01  0.10500000000E+00 0.  1.
</event>
<event>
11    0  0.3515428E-009  0.9118800E+02  0.7816531E-02  0.1126479E+00
         25   -1    0    0    0    0  0.00000000000E+00  0.00000000000E+00  0.99999998245E-14  0.12500000000E+03  0.12500000000E+03 0.  0.
    3000001    1    3    3    0    0 -0.60242446464E+01  0.19563241613E+02  0.17633310311E+02  0.27036005225E+02  0.10000000000E+01 0. -1.
    1000022    2    1    0    0    0 -0.23838380140E+02  0.44594402427E+02  0.35345720404E+02  0.62499992680E+02  0.10000001934E+02 0.  0.
    3000022    2    3    3    0    0 -0.17814135494E+02  0.25031160813E+02  0.17712410092E+02  0.35463987456E+02  0.24999982459E+00 0.  0.
    1000022    2    1    0    0    0  0.23838380140E+02 -0.44594402427E+02 -0.35345720404E+02  0.62500007320E+02  0.10000093430E+02 0.  0.
    3000022    2    5    5    0    0  0.52929758614E+01 -0.56169668927E+01 -0.92536652498E+01  0.12052333014E+02  0.24999997773E+00 0.  0.
        -13    1    4    4    0    0 -0.13224778014E+02  0.18633456107E+02  0.13168379419E+02  0.26372669215E+02  0.10500000000E+00 0.  1.
         13    1    4    4    0    0 -0.45893574803E+01  0.63977047061E+01  0.45440306732E+01  0.90913182403E+01  0.10500000000E+00 0. -1.
    3000001    1    5    5    0    0  0.18545404279E+02 -0.38977435534E+02 -0.26092055154E+02  0.50447674305E+02  0.10000000000E+01 0. -1.
        -13    1    6    6    0    0  0.18957382490E+01 -0.19298020376E+01 -0.32340399935E+01  0.42175821382E+01  0.10500000000E+00 0. -1.
         13    1    6    6    0    0  0.33972376124E+01 -0.36871648551E+01 -0.60196252563E+01  0.78347508761E+01  0.10500000000E+00 0.  1.
</event>
<event>
11    0  0.3515428E-009  0.9118800E+02  0.7816531E-02  0.1126479E+00
         25   -1    0    0    0    0  0.00000000000E+00  0.00000000000E+00  0.99999998245E-14  0.12500000000E+03  0.12500000000E+03 0.  0.
    3000001    1    3    3    0    0  0.22368147623E+02 -0.13144645860E+02 -0.72813107499E+01  0.26965408009E+02  0.10000000000E+01 0. -1.
    1000022    2    1    0    0    0  0.48929799824E+02 -0.26177377155E+02 -0.26960520289E+02  0.62500000163E+02  0.99999990269E+01 0.  0.
    3000022    2    3    3    0    0  0.26561652201E+02 -0.13032731295E+02 -0.19679209540E+02  0.35534592154E+02  0.24999752867E+00 0.  0.
    1000022    2    1    0    0    0 -0.48929799824E+02  0.26177377155E+02  0.26960520289E+02  0.62499999837E+02  0.99999969904E+01 0.  0.
    3000022    2    5    5    0    0 -0.29263450898E+02  0.11401301358E+02  0.11593164524E+02  0.33478398929E+02  0.25000013212E+00 0.  0.
        -13    1    4    4    0    0  0.11001941464E+02 -0.54266260777E+01 -0.80886683456E+01  0.14694508061E+02  0.10500000000E+00 0.  1.
         13    1    4    4    0    0  0.15559710738E+02 -0.76061052177E+01 -0.11590541194E+02  0.20840084093E+02  0.10500000000E+00 0. -1.
    3000001    1    5    5    0    0 -0.19666348926E+02  0.14776075797E+02  0.15367355765E+02  0.29021600908E+02  0.10000000000E+01 0.  1.
        -13    1    6    6    0    0 -0.19424025812E+02  0.75096142832E+01  0.76882561388E+01  0.22199265594E+02  0.10500000000E+00 0. -1.
         13    1    6    6    0    0 -0.98394250855E+01  0.38916870751E+01  0.39049083857E+01  0.11279133336E+02  0.10500000000E+00 0.  1.
</event>
<event>
11    0  0.3515428E-009  0.9118800E+02  0.7816531E-02  0.1126479E+00
         25   -1    0    0    0    0  0.00000000000E+00  0.00000000000E+00  0.99999998245E-14  0.12500000000E+03  0.12500000000E+03 0.  0.
    3000001    1    3    3    0    0  0.28138762383E+02 -0.16095395029E+02 -0.10443867519E+02  0.34072365024E+02  0.10000000000E+01 0. -1.
    1000022    2    1    0    0    0  0.45965033584E+02 -0.32121051051E+02 -0.25723604021E+02  0.62500000298E+02  0.10000000020E+02 0.  0.
    3000022    2    3    3    0    0  0.17826271201E+02 -0.16025656022E+02 -0.15279736502E+02  0.28427635274E+02  0.25000760922E+00 0.  0.
    1000022    2    1    0    0    0 -0.45965033584E+02  0.32121051051E+02  0.25723604021E+02  0.62499999702E+02  0.99999962992E+01 0.  0.
    3000022    2    5    5    0    0 -0.30070201917E+02  0.22723407203E+02  0.12293447630E+02  0.39645449077E+02  0.24999922200E+00 0.  0.
        -13    1    4    4    0    0  0.78401697273E+01 -0.71060163497E+01 -0.68046684270E+01  0.12580869092E+02  0.10500000000E+00 0.  1.
         13    1    4    4    0    0  0.99861014737E+01 -0.89196396724E+01 -0.84750680755E+01  0.15846766182E+02  0.10500000000E+00 0. -1.
    3000001    1    5    5    0    0 -0.15894831666E+02  0.93976438474E+01  0.13430156391E+02  0.22854550625E+02  0.10000000000E+01 0. -1.
        -13    1    6    6    0    0 -0.12145399510E+02  0.91382995819E+01  0.50153007338E+01  0.16005733815E+02  0.10500000000E+00 0.  1.
         13    1    6    6    0    0 -0.17924802408E+02  0.13585107622E+02  0.72781468961E+01  0.23639715263E+02  0.10500000000E+00 0. -1.
</event>
<event>
11    0  0.3515428E-009  0.9118800E+02  0.7816531E-02  0.1126479E+00
         25   -1    0    0    0    0  0.00000000000E+00  0.00000000000E+00  0.99999998245E-14  0.12500000000E+03  0.12500000000E+03 0.  0.
    3000001    1    3    3    0    0 -0.11013319816E+02  0.17252631056E+02  0.12930811767E+02  0.24231227469E+02  0.10000000000E+01 0. -1.
    1000022    2    1    0    0    0 -0.16688997494E+02  0.48405529093E+02  0.34418483785E+02  0.62499999628E+02  0.10000002168E+02 0.  0.
    3000022    2    3    3    0    0 -0.56756776782E+01  0.31152898037E+02  0.21487672018E+02  0.38268772159E+02  0.25000119317E+00 0.  0.
    1000022    2    1    0    0    0  0.16688997494E+02 -0.48405529093E+02 -0.34418483785E+02  0.62500000372E+02  0.10000006813E+02 0.  0.
    3000022    2    5    5    0    0  0.29476032141E+01 -0.20916958782E+02 -0.17319446610E+02  0.27317270420E+02  0.25000590906E+00 0.  0.
        -13    1    4    4    0    0 -0.39980995748E+01  0.21854952780E+02  0.15127410440E+02  0.26878864055E+02  0.10500000000E+00 0. -1.
         13    1    4    4    0    0 -0.16775781034E+01  0.92979452569E+01  0.63602615781E+01  0.11389908105E+02  0.10500000000E+00 0.  1.
    3000001    1    5    5    0    0  0.13741394280E+02 -0.27488570311E+02 -0.17099037175E+02  0.35182729951E+02  0.10000000000E+01 0.  1.
        -13    1    6    6    0    0  0.92267225695E+00 -0.67891705873E+01 -0.55673559893E+01  0.88289659116E+01  0.10500000000E+00 0.  1.
         13    1    6    6    0    0  0.20249309572E+01 -0.14127788195E+02 -0.11752090620E+02  0.18488304509E+02  0.10500000000E+00 0. -1.
</event>
<event>
11    0  0.3515428E-009  0.9118800E+02  0.7816531E-02  0.1126479E+00
         25   -1    0    0    0    0  0.00000000000E+00  0.00000000000E+00  0.99999998245E-14  0.12500000000E+03  0.12500000000E+03 0.  0.
    3000001    1    3    3    0    0  0.49077273561E+01 -0.25819494966E+02 -0.17341751201E+02  0.31503467156E+02  0.10000000000E+01 0. -1.
    1000022    2    1    0    0    0  0.16238682027E+02 -0.45240930435E+02 -0.38675749767E+02  0.62499994146E+02  0.99999533757E+01 0.  0.
    3000022    2    3    3    0    0  0.11330954671E+02 -0.19421435469E+02 -0.21333998567E+02  0.30996526990E+02  0.25000235074E+00 0.  0.
    1000022    2    1    0    0    0 -0.16238682027E+02  0.45240930435E+02  0.38675749767E+02  0.62500005854E+02  0.10000026553E+02 0.  0.
    3000022    2    5    5    0    0 -0.36632747542E+01  0.24765351224E+02  0.19083556452E+02  0.31479943781E+02  0.25006082489E+00 0.  0.
        -13    1    4    4    0    0  0.84584669001E+01 -0.14551763368E+02 -0.15966408760E+02  0.23199929162E+02  0.10500000000E+00 0. -1.
         13    1    4    4    0    0  0.28724877707E+01 -0.48696721007E+01 -0.53675898067E+01  0.77965978282E+01  0.10500000000E+00 0.  1.
    3000001    1    5    5    0    0 -0.12575407273E+02  0.20475579211E+02  0.19592193316E+02  0.31020062073E+02  0.10000000000E+01 0. -1.
        -13    1    6    6    0    0 -0.17668424078E+01  0.11974167170E+02  0.91415173735E+01  0.15168413773E+02  0.10500000000E+00 0. -1.
         13    1    6    6    0    0 -0.18964323464E+01  0.12791184054E+02  0.99420390782E+01  0.16311530007E+02  0.10500000000E+00 0.  1.
</event>
<event>
11    0  0.3515428E-009  0.9118800E+02  0.7816531E-02  0.1126479E+00
         25   -1    0    0    0    0  0.00000000000E+00  0.00000000000E+00  0.99999998245E-14  0.12500000000E+03  0.12500000000E+03 0.  0.
    3000001    1    3    3    0    0 -0.56749420900E+01  0.56511160584E+01  0.17986789906E+00  0.80729444994E+01  0.10000000000E+01 0. -1.
    1000022    2    1    0    0    0 -0.55991692048E+02  0.23800592144E+02  0.10232890360E+02  0.62500001879E+02  0.10000021249E+02 0.  0.
    3000022    2    3    3    0    0 -0.50316749958E+02  0.18149476086E+02  0.10053022461E+02  0.54427057380E+02  0.25001179027E+00 0.  0.
    1000022    2    1    0    0    0  0.55991692048E+02 -0.23800592144E+02 -0.10232890360E+02  0.62499998121E+02  0.99999977620E+01 0.  0.
    3000022    2    5    5    0    0  0.32364299124E+02 -0.18308811083E+02 -0.37632840414E+01  0.37374927743E+02  0.24999190985E+00 0.  0.
        -13    1    4    4    0    0 -0.23048192467E+02  0.82593757579E+01  0.45572327024E+01  0.24904133368E+02  0.10500000000E+00 0. -1.
         13    1    4    4    0    0 -0.27268557491E+02  0.98901003276E+01  0.54957897585E+01  0.29522924011E+02  0.10500000000E+00 0.  1.
    3000001    1    5    5    0    0  0.23627392923E+02 -0.54917810614E+01 -0.64696063185E+01  0.25125070378E+02  0.10000000000E+01 0. -1.
        -13    1    6    6    0    0  0.94562615862E+01 -0.53246109297E+01 -0.11362611853E+01  0.10912125330E+02  0.10500000000E+00 0. -1.
         13    1    6    6    0    0  0.22908037538E+02 -0.12984200153E+02 -0.26270228561E+01  0.26462802413E+02  0.10500000000E+00 0.  1.
</event>
<event>
11    0  0.3515428E-009  0.9118800E+02  0.7816531E-02  0.1126479E+00
         25   -1    0    0    0    0  0.00000000000E+00  0.00000000000E+00  0.99999998245E-14  0.12500000000E+03  0.12500000000E+03 0.  0.
    3000001    1    3    3    0    0 -0.10599423493E+02  0.37299003426E+02  0.32343990141E+02  0.50504426867E+02  0.10000000000E+01 0. -1.
    1000022    2    1    0    0    0 -0.82929783940E+01  0.46402567557E+02  0.39802999607E+02  0.62500004708E+02  0.10000002212E+02 0.  0.
    3000022    2    3    3    0    0  0.23064450987E+01  0.91035641315E+01  0.74590094655E+01  0.11995577841E+02  0.24999327093E+00 0.  0.
    1000022    2    1    0    0    0  0.82929783940E+01 -0.46402567557E+02 -0.39802999607E+02  0.62499995292E+02  0.99999433652E+01 0.  0.
    3000022    2    5    5    0    0  0.47153558390E+01 -0.28450521371E+02 -0.30375662330E+02  0.41885679065E+02  0.25000347360E+00 0.  0.
        -13    1    4    4    0    0  0.13069266564E+01  0.50046397685E+01  0.40378202925E+01  0.65627352692E+01  0.10500000000E+00 0.  1.
         13    1    4    4    0    0  0.99951844223E+00  0.40989243630E+01  0.34211891730E+01  0.54328425715E+01  0.10500000000E+00 0. -1.
    3000001    1    5    5    0    0  0.35776225550E+01 -0.17952046186E+02 -0.94273372769E+01  0.20614316228E+02  0.10000000000E+01 0. -1.
        -13    1    6    6    0    0  0.22974308328E+01 -0.14211846860E+02 -0.15216357905E+02  0.20947633578E+02  0.10500000000E+00 0. -1.
         13    1    6    6    0    0  0.24179250063E+01 -0.14238674511E+02 -0.15159304425E+02  0.20938045487E+02  0.10500000000E+00 0.  1.
</event>
<event>
11    0  0.3515428E-009  0.9118800E+02  0.7816531E-02  0.1126479E+00
         25   -1    0    0    0    0  0.00000000000E+00  0.00000000000E+00  0.99999998245E-14  0.12500000000E+03  0.12500000000E+03 0.  0.
    3000001    1    3    3    0    0 -0.85832629323E+01 -0.54174173464E+00  0.69499218382E+01  0.11102580791E+02  0.10000000000E+01 0. -1.
    1000022    2    1    0    0    0 -0.58088536202E+02 -0.20477424927E+01  0.20682809499E+02  0.62500001208E+02  0.10000012740E+02 0.  0.
    3000022    2    3    3    0    0 -0.49505273270E+02 -0.15060007581E+01  0.13732887661E+02  0.51397420416E+02  0.25000434356E+00 0.  0.
    1000022    2    1    0    0    0  0.58088536202E+02  0.20477424927E+01 -0.20682809499E+02  0.62499998792E+02  0.99999976412E+01 0.  0.
    3000022    2    5    5    0    0  0.41147904922E+02  0.47349355743E+01 -0.17779542142E+02  0.45074874513E+02  0.24999830442E+00 0.  0.
        -13    1    4    4    0    0 -0.31805995328E+02 -0.10247205097E+01  0.88320588063E+01  0.33025560990E+02  0.10500000000E+00 0.  1.
         13    1    4    4    0    0 -0.17699277942E+02 -0.48128024837E+00  0.49008288549E+01  0.18371859427E+02  0.10500000000E+00 0. -1.
    3000001    1    5    5    0    0  0.16940631280E+02 -0.26871930816E+01 -0.29032673573E+01  0.17425124280E+02  0.10000000000E+01 0. -1.
        -13    1    6    6    0    0  0.26780428838E+02  0.31186670244E+01 -0.11619713541E+02  0.29358920629E+02  0.10500000000E+00 0. -1.
         13    1    6    6    0    0  0.14367476084E+02  0.16162685499E+01 -0.61598286014E+01  0.15715953883E+02  0.10500000000E+00 0.  1.
</event>
<event>
11    0  0.3515428E-009  0.9118800E+02  0.7816531E-02  0.1126479E+00
         25   -1    0    0    0    0  0.00000000000E+00  0.00000000000E+00  0.99999998245E-14  0.12500000000E+03  0.12500000000E+03 0.  0.
    3000001    1    3    3    0    0  0.16895879971E+02  0.35296956048E+02 -0.22571418267E+02  0.45186444747E+02  0.10000000000E+01 0. -1.
    1000022    2    1    0    0    0  0.27268055744E+02  0.44425059493E+02 -0.33001776198E+02  0.62499999270E+02  0.99999950750E+01 0.  0.
    3000022    2    3    3    0    0  0.10372175773E+02  0.91281034447E+01 -0.10430357931E+02  0.17313554523E+02  0.25000178281E+00 0.  0.
    1000022    2    1    0    0    0 -0.27268055744E+02 -0.44425059493E+02  0.33001776198E+02  0.62500000730E+02  0.10000004198E+02 0.  0.
    3000022    2    5    5    0    0 -0.31307521936E+01 -0.11546730662E+02  0.47535108040E+01  0.12875828926E+02  0.25001458434E+00 0.  0.
        -13    1    4    4    0    0  0.67980429448E+01  0.60516613520E+01 -0.68468226517E+01  0.11389732149E+02  0.10500000000E+00 0.  1.
         13    1    4    4    0    0  0.35741328283E+01  0.30764420927E+01 -0.35835352796E+01  0.59238223745E+01  0.10500000000E+00 0. -1.
    3000001    1    5    5    0    0 -0.24137303551E+02 -0.32878328831E+02  0.28248265395E+02  0.49624171804E+02  0.10000000000E+01 0. -1.
        -13    1    6    6    0    0 -0.14807309939E+01 -0.54556565964E+01  0.23187763968E+01  0.61110148219E+01  0.10500000000E+00 0.  1.
         13    1    6    6    0    0 -0.16500211997E+01 -0.60910740656E+01  0.24347344071E+01  0.67648141043E+01  0.10500000000E+00 0. -1.
</event>
<event>
11    0  0.3515428E-009  0.9118800E+02  0.7816531E-02  0.1126479E+00
         25   -1    0    0    0    0  0.00000000000E+00  0.00000000000E+00  0.99999998245E-14  0.12500000000E+03  0.12500000000E+03 0.  0.
    3000001    1    3    3    0    0 -0.97017215788E+01  0.51896724852E+02  0.21990443408E+02  0.57201163041E+02  0.10000000000E+01 0.  1.
    1000022    2    1    0    0    0 -0.13262226250E+02  0.55662365239E+02  0.23066522796E+02  0.62500001206E+02  0.10000006387E+02 0.  0.
    3000022    2    3    3    0    0 -0.35605046709E+01  0.37656403872E+01  0.10760793880E+01  0.52988381652E+01  0.24999602865E+00 0.  0.
    1000022    2    1    0    0    0  0.13262226250E+02 -0.55662365239E+02 -0.23066522796E+02  0.62499998794E+02  0.99999913082E+01 0.  0.
    3000022    2    5    5    0    0  0.87303510060E+01 -0.18567383892E+02 -0.58133161851E+01  0.21326601160E+02  0.24999732725E+00 0.  0.
        -13    1    4    4    0    0 -0.13773421634E+01  0.15478477651E+01  0.43745213253E+00  0.21202107224E+01  0.10500000000E+00 0.  1.
         13    1    4    4    0    0 -0.21831625074E+01  0.22177926221E+01  0.63862725550E+00  0.31786274428E+01  0.10500000000E+00 0. -1.
    3000001    1    5    5    0    0  0.45318752436E+01 -0.37094981347E+02 -0.17253206611E+02  0.41173397634E+02  0.10000000000E+01 0.  1.
        -13    1    6    6    0    0  0.55127668654E+01 -0.11735387617E+02 -0.37349268623E+01  0.13493354835E+02  0.10500000000E+00 0. -1.
         13    1    6    6    0    0  0.32175841406E+01 -0.68319962752E+01 -0.20783893228E+01  0.78332463247E+01  0.10500000000E+00 0.  1.
</event>
<event>
11    0  0.3515428E-009  0.9118800E+02  0.7816531E-02  0.1126479E+00
         25   -1    0    0    0    0  0.00000000000E+00  0.00000000000E+00  0.99999998245E-14  0.12500000000E+03  0.12500000000E+03 0.  0.
    3000001    1    3    3    0    0  0.92057549369E+01  0.27940830392E+02  0.13024445801E+02  0.32188074117E+02  0.10000000000E+01 0.  1.
    1000022    2    1    0    0    0  0.26334811800E+02  0.51364251904E+02  0.21781676244E+02  0.62499999983E+02  0.99999945812E+01 0.  0.
    3000022    2    3    3    0    0  0.17129056863E+02  0.23423421512E+02  0.87572304430E+01  0.30311925866E+02  0.25000057359E+00 0.  0.
    1000022    2    1    0    0    0 -0.26334811800E+02 -0.51364251904E+02 -0.21781676244E+02  0.62500000017E+02  0.99999947955E+01 0.  0.
    3000022    2    5    5    0    0 -0.24441193374E+02 -0.45079190368E+02 -0.22130601656E+02  0.55850974660E+02  0.25000606212E+00 0.  0.
        -13    1    4    4    0    0  0.93764523643E+01  0.12875468844E+02  0.48680969726E+01  0.16655478079E+02  0.10500000000E+00 0. -1.
         13    1    4    4    0    0  0.77526044988E+01  0.10547952669E+02  0.38891334703E+01  0.13656447787E+02  0.10500000000E+00 0.  1.
    3000001    1    5    5    0    0 -0.18936184260E+01 -0.62850615362E+01  0.34892541173E+00  0.66490253572E+01  0.10000000000E+01 0. -1.
        -13    1    6    6    0    0 -0.14693341437E+02 -0.27002868985E+02 -0.13313786178E+02  0.33501002125E+02  0.10500000000E+00 0.  1.
         13    1    6    6    0    0 -0.97478519368E+01 -0.18076321383E+02 -0.88168154779E+01  0.22349972535E+02  0.10500000000E+00 0. -1.
</event>
<event>
11    0  0.3515428E-009  0.9118800E+02  0.7816531E-02  0.1126479E+00
         25   -1    0    0    0    0  0.00000000000E+00  0.00000000000E+00  0.99999998245E-14  0.12500000000E+03  0.12500000000E+03 0.  0.
    3000001    1    3    3    0    0 -0.17828701828E+02 -0.30217017295E+02  0.46562016909E+02  0.58309108737E+02  0.10000000000E+01 0.  1.
    1000022    2    1    0    0    0 -0.21107427480E+02 -0.32261360746E+02  0.48165664088E+02  0.62499999333E+02  0.99999913767E+01 0.  0.
    3000022    2    3    3    0    0 -0.32787256524E+01 -0.20443434514E+01  0.16036471790E+01  0.41908905959E+01  0.24999532217E+00 0.  0.
    1000022    2    1    0    0    0  0.21107427480E+02  0.32261360746E+02 -0.48165664088E+02  0.62500000667E+02  0.99999997202E+01 0.  0.
    3000022    2    5    5    0    0  0.12637425463E+02  0.26780968748E+02 -0.37528749118E+02  0.47805798045E+02  0.25001398187E+00 0.  0.
        -13    1    4    4    0    0 -0.92843709722E+00 -0.56057846190E+00  0.41157973841E+00  0.11647602914E+01  0.10500000000E+00 0.  1.
         13    1    4    4    0    0 -0.23502885552E+01 -0.14837649895E+01  0.11920674406E+01  0.30261303045E+01  0.10500000000E+00 0. -1.
    3000001    1    5    5    0    0  0.84700020174E+01  0.54803919986E+01 -0.10636914969E+02  0.14694202622E+02  0.10000000000E+01 0. -1.
        -13    1    6    6    0    0  0.93811477974E+01  0.19932702682E+02 -0.27949711576E+02  0.35588143705E+02  0.10500000000E+00 0. -1.
         13    1    6    6    0    0  0.32562776655E+01  0.68482660657E+01 -0.95790375425E+01  0.12217654340E+02  0.10500000000E+00 0.  1.
</event>
<event>
11    0  0.3515428E-009  0.9118800E+02  0.7816531E-02  0.1126479E+00
         25   -1    0    0    0    0  0.00000000000E+00  0.00000000000E+00  0.99999998245E-14  0.12500000000E+03  0.12500000000E+03 0.  0.
    3000001    1    3    3    0    0  0.26014351835E+02  0.19109033782E+01 -0.28838560134E+02  0.38898079692E+02  0.10000000000E+01 0.  1.
    1000022    2    1    0    0    0  0.39929594558E+02  0.10543879463E+02 -0.45833438691E+02  0.62500000191E+02  0.10000000300E+02 0.  0.
    3000022    2    3    3    0    0  0.13915242723E+02  0.86329760851E+01 -0.16994878557E+02  0.23601920499E+02  0.24999595819E+00 0.  0.
    1000022    2    1    0    0    0 -0.39929594558E+02 -0.10543879463E+02  0.45833438691E+02  0.62499999809E+02  0.99999979082E+01 0.  0.
    3000022    2    5    5    0    0 -0.17129456273E+02 -0.10750949192E+00  0.15225753732E+02  0.22919771127E+02  0.25000257697E+00 0.  0.
        -13    1    4    4    0    0  0.87091660151E+01  0.53380081226E+01 -0.10635174148E+02  0.14746587997E+02  0.10500000000E+00 0. -1.
         13    1    4    4    0    0  0.52060767075E+01  0.32949679625E+01 -0.63597044086E+01  0.88553325021E+01  0.10500000000E+00 0.  1.
    3000001    1    5    5    0    0 -0.22800138285E+02 -0.10436369971E+02  0.30607684959E+02  0.39580228682E+02  0.10000000000E+01 0.  1.
        -13    1    6    6    0    0 -0.12441044232E+02 -0.42688300035E-01  0.11073734473E+02  0.16655930597E+02  0.10500000000E+00 0.  1.
         13    1    6    6    0    0 -0.46884120405E+01 -0.64821191886E-01  0.41520192593E+01  0.62638405294E+01  0.10500000000E+00 0. -1.
</event>
<event>
11    0  0.3515428E-009  0.9118800E+02  0.7816531E-02  0.1126479E+00
         25   -1    0    0    0    0  0.00000000000E+00  0.00000000000E+00  0.99999998245E-14  0.12500000000E+03  0.12500000000E+03 0.  0.
    3000001    1    3    3    0    0  0.16892854317E+02  0.96117864051E+01  0.61602902677E+01  0.20413332434E+02  0.10000000000E+01 0.  1.
    1000022    2    1    0    0    0  0.43593608774E+02  0.40624133337E+02  0.15985226176E+02  0.62500002737E+02  0.99999975509E+01 0.  0.
    3000022    2    3    3    0    0  0.26700754457E+02  0.31012346932E+02  0.98249359081E+01  0.42086670304E+02  0.25000177440E+00 0.  0.
    1000022    2    1    0    0    0 -0.43593608774E+02 -0.40624133337E+02 -0.15985226176E+02  0.62499997263E+02  0.99999633321E+01 0.  0.
    3000022    2    5    5    0    0 -0.61763138828E+01 -0.10829033985E+02 -0.48551762502E+01  0.13380959063E+02  0.24999757478E+00 0.  0.
        -13    1    4    4    0    0  0.16023786522E+02  0.18654941485E+02  0.59618328844E+01  0.25304605364E+02  0.10500000000E+00 0. -1.
         13    1    4    4    0    0  0.10676967935E+02  0.12357405446E+02  0.38631030237E+01  0.16782064940E+02  0.10500000000E+00 0.  1.
    3000001    1    5    5    0    0 -0.37417294891E+02 -0.29795099352E+02 -0.11130049926E+02  0.49119038200E+02  0.10000000000E+01 0. -1.
        -13    1    6    6    0    0 -0.31835465791E+01 -0.56724539527E+01 -0.25874165543E+01  0.70012464671E+01  0.10500000000E+00 0. -1.
         13    1    6    6    0    0 -0.29927673037E+01 -0.51565800324E+01 -0.22677596959E+01  0.63797125956E+01  0.10500000000E+00 0.  1.
</event>
<event>
11    0  0.3515428E-009  0.9118800E+02  0.7816531E-02  0.1126479E+00
         25   -1    0    0    0    0  0.00000000000E+00  0.00000000000E+00  0.99999998245E-14  0.12500000000E+03  0.12500000000E+03 0.  0.
    3000001    1    3    3    0    0 -0.20840354548E+02 -0.16929207225E+02 -0.73680105779E+01  0.27860474060E+02  0.10000000000E+01 0. -1.
    1000022    2    1    0    0    0 -0.39874065503E+02 -0.45453151718E+02 -0.12260505711E+02  0.62499997257E+02  0.99999777994E+01 0.  0.
    3000022    2    3    3    0    0 -0.19033710954E+02 -0.28523944492E+02 -0.48924951331E+01  0.34639523196E+02  0.24999309635E+00 0.  0.
    1000022    2    1    0    0    0  0.39874065503E+02  0.45453151718E+02  0.12260505711E+02  0.62500002743E+02  0.10000012093E+02 0.  0.
    3000022    2    5    5    0    0  0.67268011595E+01  0.13338925845E+02  0.95125738687E+00  0.14971445702E+02  0.24999846671E+00 0.  0.
        -13    1    4    4    0    0 -0.97420906713E+01 -0.14671562417E+02 -0.24574728861E+01  0.17782386577E+02  0.10500000000E+00 0. -1.
         13    1    4    4    0    0 -0.92916202830E+01 -0.13852382076E+02 -0.24350222470E+01  0.16857136619E+02  0.10500000000E+00 0.  1.
    3000001    1    5    5    0    0  0.33147264343E+02  0.32114225872E+02  0.11309248324E+02  0.47528557042E+02  0.10000000000E+01 0.  1.
        -13    1    6    6    0    0  0.44652582900E+01  0.89260091702E+01  0.59302237582E+00  0.99987435131E+01  0.10500000000E+00 0.  1.
         13    1    6    6    0    0  0.22615428695E+01  0.44129166750E+01  0.35823501105E+00  0.49727021884E+01  0.10500000000E+00 0. -1.
</event>
<event>
11    0  0.3515428E-009  0.9118800E+02  0.7816531E-02  0.1126479E+00
         25   -1    0    0    0    0  0.00000000000E+00  0.00000000000E+00  0.99999998245E-14  0.12500000000E+03  0.12500000000E+03 0.  0.
    3000001    1    3    3    0    0  0.16855312406E+01 -0.21800989744E+00  0.52028138733E+00  0.20394206531E+01  0.10000000000E+01 0. -1.
    1000022    2    1    0    0    0  0.48896814431E+02  0.37261186569E+02  0.51918805670E+01  0.62500000769E+02  0.99999993163E+01 0.  0.
    3000022    2    3    3    0    0  0.47211283190E+02  0.37479196467E+02  0.46715991797E+01  0.60460580116E+02  0.24996169475E+00 0.  0.
    1000022    2    1    0    0    0 -0.48896814431E+02 -0.37261186569E+02 -0.51918805670E+01  0.62499999231E+02  0.99999897019E+01 0.  0.
    3000022    2    5    5    0    0 -0.14374609358E+02 -0.67927294492E+01  0.14556878946E+01  0.15967218433E+02  0.24993933368E+00 0.  0.
        -13    1    4    4    0    0  0.26069029421E+02  0.20678849904E+02  0.25132790470E+01  0.33369697704E+02  0.10500000000E+00 0. -1.
         13    1    4    4    0    0  0.21142253769E+02  0.16800346563E+02  0.21583201326E+01  0.27090882412E+02  0.10500000000E+00 0.  1.
    3000001    1    5    5    0    0 -0.34522205072E+02 -0.30468457120E+02 -0.66475684616E+01  0.46532780798E+02  0.10000000000E+01 0. -1.
        -13    1    6    6    0    0 -0.90453142755E+01 -0.42820311210E+01  0.85686578657E+00  0.10044836725E+02  0.10500000000E+00 0. -1.
         13    1    6    6    0    0 -0.53292950828E+01 -0.25106983283E+01  0.59882210802E+00  0.59223817077E+01  0.10500000000E+00 0.  1.
</event>
<event>
11    0  0.3515428E-009  0.9118800E+02  0.7816531E-02  0.1126479E+00
         25   -1    0    0    0    0  0.00000000000E+00  0.00000000000E+00  0.99999998245E-14  0.12500000000E+03  0.12500000000E+03 0.  0.
    3000001    1    3    3    0    0  0.26715687316E+01  0.13442031985E+02 -0.26276619486E+02  0.29652761001E+02  0.10000000000E+01 0.  1.
    1000022    2    1    0    0    0 -0.29093920763E+01  0.33176260930E+02 -0.51933815244E+02  0.62499999999E+02  0.99999991236E+01 0.  0.
    3000022    2    3    3    0    0 -0.55809608079E+01  0.19734228945E+02 -0.25657195758E+02  0.32847238998E+02  0.25000000225E+00 0.  0.
    1000022    2    1    0    0    0  0.29093920763E+01 -0.33176260930E+02  0.51933815244E+02  0.62500000001E+02  0.99999991416E+01 0.  0.
    3000022    2    5    5    0    0  0.34108979646E+00  0.40548708291E-01  0.45369158253E+01  0.45567631773E+01  0.24999800253E+00 0.  0.
        -13    1    4    4    0    0 -0.41460560609E+01  0.14707259987E+02 -0.19074127011E+02  0.24440266435E+02  0.10500000000E+00 0. -1.
         13    1    4    4    0    0 -0.14349047470E+01  0.50269689582E+01 -0.65830687470E+01  0.84069725625E+01  0.10500000000E+00 0.  1.
    3000001    1    5    5    0    0  0.25683022799E+01 -0.33216809638E+02  0.47396899419E+02  0.57943236824E+02  0.10000000000E+01 0. -1.
        -13    1    6    6    0    0  0.92329589678E-01 -0.10981844314E-02  0.20824642448E+01  0.20871531545E+01  0.10500000000E+00 0. -1.
         13    1    6    6    0    0  0.24876020678E+00  0.41646892723E-01  0.24544515805E+01  0.24696100229E+01  0.10500000000E+00 0.  1.
</event>
<event>
11    0  0.3515428E-009  0.9118800E+02  0.7816531E-02  0.1126479E+00
         25   -1    0    0    0    0  0.00000000000E+00  0.00000000000E+00  0.99999998245E-14  0.12500000000E+03  0.12500000000E+03 0.  0.
    3000001    1    3    3    0    0  0.10696444315E+02 -0.46907138732E+02 -0.32372049681E+02  0.57996923932E+02  0.10000000000E+01 0. -1.
    1000022    2    1    0    0    0  0.90387426766E+01 -0.50858450036E+02 -0.33733798675E+02  0.62499999955E+02  0.10000000606E+02 0.  0.
    3000022    2    3    3    0    0 -0.16577016381E+01 -0.39513113040E+01 -0.13617489942E+01  0.45030760236E+01  0.24999521770E+00 0.  0.
    1000022    2    1    0    0    0 -0.90387426766E+01  0.50858450036E+02  0.33733798675E+02  0.62500000045E+02  0.10000001166E+02 0.  0.
    3000022    2    5    5    0    0 -0.61911843154E+01  0.48084845262E+02  0.30491286028E+02  0.57273590155E+02  0.24999718494E+00 0.  0.
        -13    1    4    4    0    0 -0.81249997891E+00 -0.17669459469E+01 -0.63091256553E+00  0.20472737629E+01  0.10500000000E+00 0.  1.
         13    1    4    4    0    0 -0.84520165917E+00 -0.21843653571E+01 -0.73083642864E+00  0.24558022607E+01  0.10500000000E+00 0. -1.
    3000001    1    5    5    0    0 -0.28475583612E+01  0.27736047744E+01  0.32425126472E+01  0.52264098894E+01  0.10000000000E+01 0.  1.
        -13    1    6    6    0    0 -0.31655315517E+01  0.24518566208E+02  0.15468834538E+02  0.29162931023E+02  0.10500000000E+00 0.  1.
         13    1    6    6    0    0 -0.30256527637E+01  0.23566279054E+02  0.15022451489E+02  0.28110659132E+02  0.10500000000E+00 0. -1.
</event>
<event>
11    0  0.3515428E-009  0.9118800E+02  0.7816531E-02  0.1126479E+00
         25   -1    0    0    0    0  0.00000000000E+00  0.00000000000E+00  0.99999998245E-14  0.12500000000E+03  0.12500000000E+03 0.  0.
    3000001    1    3    3    0    0 -0.15331788956E+02 -0.93373276975E+01 -0.75737931052E+01  0.19509274285E+02  0.10000000000E+01 0. -1.
    1000022    2    1    0    0    0 -0.53019081641E+02 -0.16136884774E+02 -0.27107709932E+02  0.62499999027E+02  0.99999936189E+01 0.  0.
    3000022    2    3    3    0    0 -0.37687292685E+02 -0.67995570764E+01 -0.19533916826E+02  0.42990724742E+02  0.25000182852E+00 0.  0.
    1000022    2    1    0    0    0  0.53019081641E+02  0.16136884774E+02  0.27107709932E+02  0.62500000973E+02  0.10000005783E+02 0.  0.
    3000022    2    5    5    0    0  0.13179033859E+02  0.37241296394E+01  0.11673625956E+02  0.17997002810E+02  0.24998436072E+00 0.  0.
        -13    1    4    4    0    0 -0.23753467153E+02 -0.42620186887E+01 -0.12248041962E+02  0.27063214184E+02  0.10500000000E+00 0. -1.
         13    1    4    4    0    0 -0.13933825532E+02 -0.25375383877E+01 -0.72858748646E+01  0.15927510558E+02  0.10500000000E+00 0.  1.
    3000001    1    5    5    0    0  0.39840047782E+02  0.12412755134E+02  0.15434083976E+02  0.44502998163E+02  0.10000000000E+01 0. -1.
        -13    1    6    6    0    0  0.86569108707E+01  0.24169382702E+01  0.77233229640E+01  0.11850925661E+02  0.10500000000E+00 0. -1.
         13    1    6    6    0    0  0.45221229881E+01  0.13071913692E+01  0.39503029916E+01  0.61460771489E+01  0.10500000000E+00 0.  1.
</event>
<event>
11    0  0.3515428E-009  0.9118800E+02  0.7816531E-02  0.1126479E+00
         25   -1    0    0    0    0  0.00000000000E+00  0.00000000000E+00  0.99999998245E-14  0.12500000000E+03  0.12500000000E+03 0.  0.
    3000001    1    3    3    0    0 -0.40219234275E+01 -0.38401953026E+02  0.44009985450E+02  0.58555654582E+02  0.10000000000E+01 0. -1.
    1000022    2    1    0    0    0 -0.43098918379E+01 -0.42258951188E+02  0.44742103165E+02  0.62499999259E+02  0.99999994273E+01 0.  0.
    3000022    2    3    3    0    0 -0.28796841040E+00 -0.38569981625E+01  0.73211771506E+00  0.39443446767E+01  0.24999589728E+00 0.  0.
    1000022    2    1    0    0    0  0.43098918379E+01  0.42258951188E+02 -0.44742103165E+02  0.62500000741E+02  0.10000008692E+02 0.  0.
    3000022    2    5    5    0    0 -0.76102712981E+00  0.73080617058E+01 -0.33487030952E+01  0.80785668743E+01  0.25000427045E+00 0.  0.
        -13    1    4    4    0    0 -0.21681934561E+00 -0.20153643383E+01  0.36951695895E+00  0.20630733937E+01  0.10500000000E+00 0. -1.
         13    1    4    4    0    0 -0.71149064783E-01 -0.18416338242E+01  0.36260075610E+00  0.18812712830E+01  0.10500000000E+00 0.  1.
    3000001    1    5    5    0    0  0.50709189677E+01  0.34950889483E+02 -0.41393400070E+02  0.54421433867E+02  0.10000000000E+01 0. -1.
        -13    1    6    6    0    0 -0.17405146261E+00  0.19137240094E+01 -0.89915122672E+00  0.21241778231E+01  0.10500000000E+00 0. -1.
         13    1    6    6    0    0 -0.58697566720E+00  0.53943376964E+01 -0.24495518685E+01  0.59543890512E+01  0.10500000000E+00 0.  1.
</event>
<event>
11    0  0.3515428E-009  0.9118800E+02  0.7816531E-02  0.1126479E+00
         25   -1    0    0    0    0  0.00000000000E+00  0.00000000000E+00  0.99999998245E-14  0.12500000000E+03  0.12500000000E+03 0.  0.
    3000001    1    3    3    0    0 -0.38312608964E+02  0.27178949975E+02 -0.12167954492E+01  0.47000339558E+02  0.10000000000E+01 0.  1.
    1000022    2    1    0    0    0 -0.52724633026E+02  0.31690636962E+02 -0.46974899042E+01  0.62500000364E+02  0.10000011769E+02 0.  0.
    3000022    2    3    3    0    0 -0.14412024061E+02  0.45116869866E+01 -0.34806944550E+01  0.15499660806E+02  0.24998840703E+00 0.  0.
    1000022    2    1    0    0    0  0.52724633026E+02 -0.31690636962E+02  0.46974899042E+01  0.62499999636E+02  0.10000007218E+02 0.  0.
    3000022    2    5    5    0    0  0.49225235628E+02 -0.31882927594E+02  0.48738478479E+01  0.58851183395E+02  0.24999912004E+00 0.  0.
        -13    1    4    4    0    0 -0.74015332493E+01  0.23502044982E+01 -0.18512807425E+01  0.79840103339E+01  0.10500000000E+00 0. -1.
         13    1    4    4    0    0 -0.70104908118E+01  0.21614824884E+01 -0.16294137125E+01  0.75156504720E+01  0.10500000000E+00 0.  1.
    3000001    1    5    5    0    0  0.34993973975E+01  0.19229063260E+00 -0.17635794367E+00  0.36488162405E+01  0.10000000000E+01 0. -1.
        -13    1    6    6    0    0  0.31558581063E+02 -0.20440092502E+02  0.30665023973E+01  0.37724738331E+02  0.10500000000E+00 0.  1.
         13    1    6    6    0    0  0.17666654565E+02 -0.11442835092E+02  0.18073454506E+01  0.21126445064E+02  0.10500000000E+00 0. -1.
</event>
<event>
11    0  0.3515428E-009  0.9118800E+02  0.7816531E-02  0.1126479E+00
         25   -1    0    0    0    0  0.00000000000E+00  0.00000000000E+00  0.99999998245E-14  0.12500000000E+03  0.12500000000E+03 0.  0.
    3000001    1    3    3    0    0  0.32923606237E+02 -0.23360442400E+01 -0.45710453175E+02  0.56390304839E+02  0.10000000000E+01 0. -1.
    1000022    2    1    0    0    0  0.36458641558E+02 -0.56184049139E+01 -0.49451503661E+02  0.62499996018E+02  0.99999634954E+01 0.  0.
    3000022    2    3    3    0    0  0.35350353209E+01 -0.32823606739E+01 -0.37410504854E+01  0.61096911789E+01  0.25000250814E+00 0.  0.
    1000022    2    1    0    0    0 -0.36458641558E+02  0.56184049139E+01  0.49451503661E+02  0.62500003982E+02  0.10000013273E+02 0.  0.
    3000022    2    5    5    0    0 -0.21880173907E+02  0.51413423181E+01  0.22302342736E+02  0.31664371239E+02  0.25000682538E+00 0.  0.
        -13    1    4    4    0    0  0.10196830032E+01 -0.92370460336E+00 -0.10211154698E+01  0.17165912221E+01  0.10500000000E+00 0. -1.
         13    1    4    4    0    0  0.25153523177E+01 -0.23586560705E+01 -0.27199350156E+01  0.43930999568E+01  0.10500000000E+00 0.  1.
    3000001    1    5    5    0    0 -0.14578467651E+02  0.47706259576E+00  0.27149160925E+02  0.30835632744E+02  0.10000000000E+01 0. -1.
        -13    1    6    6    0    0 -0.62679525466E+01  0.15151201078E+01  0.64106577451E+01  0.90934248660E+01  0.10500000000E+00 0.  1.
         13    1    6    6    0    0 -0.15612221360E+02  0.36262222102E+01  0.15891684991E+02  0.22570946373E+02  0.10500000000E+00 0. -1.
</event>
<event>
11    0  0.3515428E-009  0.9118800E+02  0.7816531E-02  0.1126479E+00
         25   -1    0    0    0    0  0.00000000000E+00  0.00000000000E+00  0.99999998245E-14  0.12500000000E+03  0.12500000000E+03 0.  0.
    3000001    1    3    3    0    0 -0.34691292546E+02 -0.48978330394E+01  0.24118393742E+02  0.42546109853E+02  0.10000000000E+01 0. -1.
    1000022    2    1    0    0    0 -0.53671248121E+02 -0.38452727245E+01  0.30180465427E+02  0.62500001923E+02  0.10000037493E+02 0.  0.
    3000022    2    3    3    0    0 -0.18979955575E+02  0.10525603149E+01  0.60620716857E+01  0.19953892070E+02  0.24999755512E+00 0.  0.
    1000022    2    1    0    0    0  0.53671248121E+02  0.38452727245E+01 -0.30180465427E+02  0.62499998077E+02  0.10000013451E+02 0.  0.
    3000022    2    5    5    0    0  0.48130674462E+02  0.41742733028E+00 -0.26254533991E+02  0.54827904610E+02  0.24999827773E+00 0.  0.
        -13    1    4    4    0    0 -0.95787050825E+01  0.59491043311E+00  0.30358404892E+01  0.10066422500E+02  0.10500000000E+00 0.  1.
         13    1    4    4    0    0 -0.94012504923E+01  0.45764988179E+00  0.30262311966E+01  0.98874695695E+01  0.10500000000E+00 0. -1.
    3000001    1    5    5    0    0  0.55405736587E+01  0.34278453942E+01 -0.39259314362E+01  0.76720934663E+01  0.10000000000E+01 0.  1.
        -13    1    6    6    0    0  0.22667187914E+02  0.16338477744E+00 -0.12431316380E+02  0.25852983473E+02  0.10500000000E+00 0.  1.
         13    1    6    6    0    0  0.25463486547E+02  0.25404255284E+00 -0.13823217611E+02  0.28974921137E+02  0.10500000000E+00 0. -1.
</event>
<event>
11    0  0.3515428E-009  0.9118800E+02  0.7816531E-02  0.1126479E+00
         25   -1    0    0    0    0  0.00000000000E+00  0.00000000000E+00  0.99999998245E-14  0.12500000000E+03  0.12500000000E+03 0.  0.
    3000001    1    3    3    0    0  0.39182336718E+02 -0.75283511413E+01  0.32749624810E+01  0.40045685920E+02  0.10000000000E+01 0.  1.
    1000022    2    1    0    0    0  0.61411883430E+02 -0.58727622344E+01  0.58425090122E+00  0.62499998639E+02  0.99999859059E+01 0.  0.
    3000022    2    3    3    0    0  0.22229546712E+02  0.16555889070E+01 -0.26907115798E+01  0.22454312719E+02  0.25001843760E+00 0.  0.
    1000022    2    1    0    0    0 -0.61411883430E+02  0.58727622344E+01 -0.58425090122E+00  0.62500001361E+02  0.10000002918E+02 0.  0.
    3000022    2    5    5    0    0 -0.64124329912E+01  0.29022854257E+01  0.20894038511E+01  0.73464728180E+01  0.24999370537E+00 0.  0.
        -13    1    4    4    0    0  0.64662352205E+01  0.52494473000E+00 -0.78497406755E+00  0.65356693753E+01  0.10500000000E+00 0.  1.
         13    1    4    4    0    0  0.15763311491E+02  0.11306441770E+01 -0.19057375123E+01  0.15918643343E+02  0.10500000000E+00 0. -1.
    3000001    1    5    5    0    0 -0.54999450438E+02  0.29704768087E+01 -0.26736547523E+01  0.55153528543E+02  0.10000000000E+01 0. -1.
        -13    1    6    6    0    0 -0.24618022525E+01  0.11555143341E+01  0.75664039043E+00  0.28247501460E+01  0.10500000000E+00 0.  1.
         13    1    6    6    0    0 -0.39506307388E+01  0.17467710915E+01  0.13327634607E+01  0.45217226720E+01  0.10500000000E+00 0. -1.
</event>
<event>
11    0  0.3515428E-009  0.9118800E+02  0.7816531E-02  0.1126479E+00
         25   -1    0    0    0    0  0.00000000000E+00  0.00000000000E+00  0.99999998245E-14  0.12500000000E+03  0.12500000000E+03 0.  0.
    3000001    1    3    3    0    0  0.44827193186E+02 -0.62590649698E+01  0.12473067641E+02  0.46959882449E+02  0.10000000000E+01 0.  1.
    1000022    2    1    0    0    0  0.57825908214E+02 -0.13733688786E+02  0.16546908701E+02  0.62500001063E+02  0.10000003843E+02 0.  0.
    3000022    2    3    3    0    0  0.12998715028E+02 -0.74746238165E+01  0.40738410599E+01  0.15540118614E+02  0.25002396416E+00 0.  0.
    1000022    2    1    0    0    0 -0.57825908214E+02  0.13733688786E+02 -0.16546908701E+02  0.62499998937E+02  0.99999905539E+01 0.  0.
    3000022    2    5    5    0    0 -0.19664068451E+02  0.24365824731E-01 -0.65034874649E+01  0.20713136644E+02  0.24999735838E+00 0.  0.
        -13    1    4    4    0    0  0.82318271157E+01 -0.47151260549E+01  0.26363006192E+01  0.98466490407E+01  0.10500000000E+00 0.  1.
         13    1    4    4    0    0  0.47668879124E+01 -0.27594977616E+01  0.14375404407E+01  0.56934695735E+01  0.10500000000E+00 0. -1.
    3000001    1    5    5    0    0 -0.38161839763E+02  0.13709322962E+02 -0.10043421236E+02  0.41786862293E+02  0.10000000000E+01 0.  1.
        -13    1    6    6    0    0 -0.60690775561E+01  0.24310240142E-01 -0.19599815413E+01  0.63786241472E+01  0.10500000000E+00 0. -1.
         13    1    6    6    0    0 -0.13594990895E+02  0.55584588705E-04 -0.45435059236E+01  0.14334512497E+02  0.10500000000E+00 0.  1.
</event>
<event>
11    0  0.3515428E-009  0.9118800E+02  0.7816531E-02  0.1126479E+00
         25   -1    0    0    0    0  0.00000000000E+00  0.00000000000E+00  0.99999998245E-14  0.12500000000E+03  0.12500000000E+03 0.  0.
    3000001    1    3    3    0    0  0.45914830894E+00  0.28146124139E+02 -0.95666334183E+01  0.29747867086E+02  0.10000000000E+01 0.  1.
    1000022    2    1    0    0    0  0.60477913188E+01  0.60378577682E+02 -0.11140086440E+02  0.62500000388E+02  0.10000004991E+02 0.  0.
    3000022    2    3    3    0    0  0.55886430098E+01  0.32232453543E+02 -0.15734530214E+01  0.32752133301E+02  0.24997857893E+00 0.  0.
    1000022    2    1    0    0    0 -0.60477913188E+01 -0.60378577682E+02  0.11140086440E+02  0.62499999612E+02  0.10000000144E+02 0.  0.
    3000022    2    5    5    0    0  0.92499526434E-01 -0.41246972818E+02  0.94134104598E+01  0.42308345735E+02  0.24999912729E+00 0.  0.
        -13    1    4    4    0    0  0.16102683580E+01  0.90542520093E+01 -0.43789264112E+00  0.92073459041E+01  0.10500000000E+00 0. -1.
         13    1    4    4    0    0  0.39783746519E+01  0.23178201534E+02 -0.11355603803E+01  0.23544787397E+02  0.10500000000E+00 0.  1.
    3000001    1    5    5    0    0 -0.61402908452E+01 -0.19131604864E+02  0.17266759799E+01  0.20191653877E+02  0.10000000000E+01 0.  1.
        -13    1    6    6    0    0  0.94943957934E-01 -0.27223584743E+02  0.62570742832E+01  0.27933753492E+02  0.10500000000E+00 0. -1.
         13    1    6    6    0    0 -0.24444314999E-02 -0.14023388075E+02  0.31563361766E+01  0.14374592243E+02  0.10500000000E+00 0.  1.
</event>
<event>
11    0  0.3515428E-009  0.9118800E+02  0.7816531E-02  0.1126479E+00
         25   -1    0    0    0    0  0.00000000000E+00  0.00000000000E+00  0.99999998245E-14  0.12500000000E+03  0.12500000000E+03 0.  0.
    3000001    1    3    3    0    0  0.14253318113E+02  0.44249047017E+01  0.21379013921E+02  0.26092127071E+02  0.10000000000E+01 0.  1.
    1000022    2    1    0    0    0  0.23613179243E+02  0.97493608095E+01  0.56157072134E+02  0.62499992643E+02  0.10000002978E+02 0.  0.
    3000022    2    3    3    0    0  0.93598611297E+01  0.53244561078E+01  0.34778058213E+02  0.36407865572E+02  0.25001846185E+00 0.  0.
    1000022    2    1    0    0    0 -0.23613179243E+02 -0.97493608095E+01 -0.56157072134E+02  0.62500007357E+02  0.10000094943E+02 0.  0.
    3000022    2    5    5    0    0 -0.35924800523E+01 -0.42254264808E+01 -0.58490713537E+01  0.80643830930E+01  0.24999419763E+00 0.  0.
        -13    1    4    4    0    0  0.54336176645E+01  0.31391118571E+01  0.20431208185E+02  0.21373430166E+02  0.10500000000E+00 0.  1.
         13    1    4    4    0    0  0.39262434651E+01  0.21853442507E+01  0.14346850028E+02  0.15034435405E+02  0.10500000000E+00 0. -1.
    3000001    1    5    5    0    0 -0.20020699191E+02 -0.55239343287E+01 -0.50308000780E+02  0.54435624264E+02  0.10000000000E+01 0. -1.
        -13    1    6    6    0    0 -0.12858059321E+01 -0.14262594858E+01 -0.20210248043E+01  0.27898170685E+01  0.10500000000E+00 0.  1.
         13    1    6    6    0    0 -0.23066741202E+01 -0.27991669950E+01 -0.38280465494E+01  0.52745660246E+01  0.10500000000E+00 0. -1.
</event>
<event>
11    0  0.3515428E-009  0.9118800E+02  0.7816531E-02  0.1126479E+00
         25   -1    0    0    0    0  0.00000000000E+00  0.00000000000E+00  0.99999998245E-14  0.12500000000E+03  0.12500000000E+03 0.  0.
    3000001    1    3    3    0    0  0.34374376027E+01 -0.47224346613E+00 -0.92099729101E+00  0.37265570134E+01  0.10000000000E+01 0.  1.
    1000022    2    1    0    0    0  0.38695693323E+02 -0.17050971647E+02 -0.44923909258E+02  0.62499999934E+02  0.10000002644E+02 0.  0.
    3000022    2    3    3    0    0  0.35258255721E+02 -0.16578728181E+02 -0.44002911967E+02  0.58773442921E+02  0.25001328715E+00 0.  0.
    1000022    2    1    0    0    0 -0.38695693323E+02  0.17050971647E+02  0.44923909258E+02  0.62500000066E+02  0.10000003466E+02 0.  0.
    3000022    2    5    5    0    0 -0.18941126899E+02  0.71343147706E+01  0.14582023465E+02  0.24947197085E+02  0.24999724846E+00 0.  0.
        -13    1    4    4    0    0  0.26715111462E+02 -0.12556696688E+02 -0.33369429860E+02  0.44552190589E+02  0.10500000000E+00 0.  1.
         13    1    4    4    0    0  0.85431442585E+01 -0.40220314935E+01 -0.10633482107E+02  0.14221252332E+02  0.10500000000E+00 0. -1.
    3000001    1    5    5    0    0 -0.19754566424E+02  0.99166568766E+01  0.30341885793E+02  0.37552802980E+02  0.10000000000E+01 0.  1.
        -13    1    6    6    0    0 -0.95107772621E+01  0.36531152844E+01  0.73577088098E+01  0.12567698252E+02  0.10500000000E+00 0.  1.
         13    1    6    6    0    0 -0.94303496371E+01  0.34811994862E+01  0.72243146553E+01  0.12379498834E+02  0.10500000000E+00 0. -1.
</event>
<event>
11    0  0.3515428E-009  0.9118800E+02  0.7816531E-02  0.1126479E+00
         25   -1    0    0    0    0  0.00000000000E+00  0.00000000000E+00  0.99999998245E-14  0.12500000000E+03  0.12500000000E+03 0.  0.
    3000001    1    3    3    0    0 -0.33684114546E+02  0.63337017253E+00  0.66525734623E+00  0.33711471310E+02  0.10000000000E+01 0. -1.
    1000022    2    1    0    0    0 -0.61056450415E+02 -0.65110900306E+01  0.59971240338E+01  0.62499999853E+02  0.10000002710E+02 0.  0.
    3000022    2    3    3    0    0 -0.27372335869E+02 -0.71444602031E+01  0.53318666875E+01  0.28788528543E+02  0.24998151129E+00 0.  0.
    1000022    2    1    0    0    0  0.61056450415E+02  0.65110900306E+01 -0.59971240338E+01  0.62500000147E+02  0.10000004551E+02 0.  0.
    3000022    2    5    5    0    0  0.36169680878E+02  0.27585838179E+01  0.12277224962E+01  0.36296355205E+02  0.24999828036E+00 0.  0.
        -13    1    4    4    0    0 -0.15622094723E+02 -0.41445621006E+01  0.30375175880E+01  0.16445813347E+02  0.10500000000E+00 0.  1.
         13    1    4    4    0    0 -0.11750241146E+02 -0.29998981025E+01  0.22943490995E+01  0.12342715196E+02  0.10500000000E+00 0. -1.
    3000001    1    5    5    0    0  0.24886769537E+02  0.37525062127E+01 -0.72248465300E+01  0.26203644942E+02  0.10000000000E+01 0. -1.
        -13    1    6    6    0    0  0.98291175400E+01  0.74520813284E+00  0.37004359337E+00  0.98648286370E+01  0.10500000000E+00 0. -1.
         13    1    6    6    0    0  0.26340563338E+02  0.20133756851E+01  0.85767890286E+00  0.26431526568E+02  0.10500000000E+00 0.  1.
</event>
<event>
11    0  0.3515428E-009  0.9118800E+02  0.7816531E-02  0.1126479E+00
         25   -1    0    0    0    0  0.00000000000E+00  0.00000000000E+00  0.99999998245E-14  0.12500000000E+03  0.12500000000E+03 0.  0.
    3000001    1    3    3    0    0  0.33971278510E+01 -0.35819048401E+01  0.72599860166E+01  0.88361709400E+01  0.10000000000E+01 0. -1.
    1000022    2    1    0    0    0  0.10032945725E+01 -0.23736166894E+02  0.56937138346E+02  0.62500001075E+02  0.10000009628E+02 0.  0.
    3000022    2    3    3    0    0 -0.23938332785E+01 -0.20154262054E+02  0.49677152329E+02  0.53663830135E+02  0.24996907005E+00 0.  0.
    1000022    2    1    0    0    0 -0.10032945725E+01  0.23736166894E+02 -0.56937138346E+02  0.62499998925E+02  0.99999961855E+01 0.  0.
    3000022    2    5    5    0    0 -0.38019942556E+01  0.16021306801E+02 -0.45492794639E+02  0.48381755795E+02  0.24999564925E+00 0.  0.
        -13    1    4    4    0    0 -0.68518098672E+00 -0.55111077385E+01  0.13651975040E+02  0.14738698348E+02  0.10500000000E+00 0. -1.
         13    1    4    4    0    0 -0.17086522917E+01 -0.14643154316E+02  0.36025177289E+02  0.38925131788E+02  0.10500000000E+00 0.  1.
    3000001    1    5    5    0    0  0.27986996831E+01  0.77148600935E+01 -0.11444343707E+02  0.14118243129E+02  0.10000000000E+01 0. -1.
        -13    1    6    6    0    0 -0.19666053121E+01  0.85730856640E+01 -0.24261835616E+02  0.25807228187E+02  0.10500000000E+00 0. -1.
         13    1    6    6    0    0 -0.18353889435E+01  0.74482211367E+01 -0.21230959024E+02  0.22574527608E+02  0.10500000000E+00 0.  1.
</event>
<event>
11    0  0.3515428E-009  0.9118800E+02  0.7816531E-02  0.1126479E+00
         25   -1    0    0    0    0  0.00000000000E+00  0.00000000000E+00  0.99999998245E-14  0.12500000000E+03  0.12500000000E+03 0.  0.
    3000001    1    3    3    0    0  0.22178095952E+02 -0.86053309571E+01  0.49821225411E+02  0.55218422309E+02  0.10000000000E+01 0. -1.
    1000022    2    1    0    0    0  0.22850116569E+02 -0.12510584410E+02  0.55925014288E+02  0.62499998776E+02  0.10000003721E+02 0.  0.
    3000022    2    3    3    0    0  0.67202061765E+00 -0.39052534528E+01  0.61037888773E+01  0.72815764669E+01  0.25000188755E+00 0.  0.
    1000022    2    1    0    0    0 -0.22850116569E+02  0.12510584410E+02 -0.55925014288E+02  0.62500001224E+02  0.10000019017E+02 0.  0.
    3000022    2    5    5    0    0 -0.76791357959E+01  0.65072230787E+01 -0.31822359847E+02  0.33377210218E+02  0.24999378168E+00 0.  0.
        -13    1    4    4    0    0  0.19868049557E+00 -0.15144651514E+01  0.23401826969E+01  0.27965261825E+01  0.10500000000E+00 0. -1.
         13    1    4    4    0    0  0.47334012208E+00 -0.23907883014E+01  0.37636061804E+01  0.44850502845E+01  0.10500000000E+00 0.  1.
    3000001    1    5    5    0    0 -0.15170980773E+02  0.60033613313E+01 -0.24102654441E+02  0.29122791006E+02  0.10000000000E+01 0.  1.
        -13    1    6    6    0    0 -0.34269217213E+01  0.28351554699E+01 -0.14195735357E+02  0.14876552905E+02  0.10500000000E+00 0. -1.
         13    1    6    6    0    0 -0.42522140746E+01  0.36720676088E+01 -0.17626624490E+02  0.18500657312E+02  0.10500000000E+00 0.  1.
</event>
<event>
11    0  0.3515428E-009  0.9118800E+02  0.7816531E-02  0.1126479E+00
         25   -1    0    0    0    0  0.00000000000E+00  0.00000000000E+00  0.99999998245E-14  0.12500000000E+03  0.12500000000E+03 0.  0.
    3000001    1    3    3    0    0 -0.68653769766E+01  0.16388173936E+02  0.12823612487E+02  0.21935147211E+02  0.10000000000E+01 0. -1.
    1000022    2    1    0    0    0 -0.65198735501E+01  0.46857522699E+02  0.39599421200E+02  0.62499996770E+02  0.99999626163E+01 0.  0.
    3000022    2    3    3    0    0  0.34550342645E+00  0.30469348763E+02  0.26775808713E+02  0.40564849559E+02  0.25000163029E+00 0.  0.
    1000022    2    1    0    0    0  0.65198735501E+01 -0.46857522699E+02 -0.39599421200E+02  0.62500003230E+02  0.10000002989E+02 0.  0.
    3000022    2    5    5    0    0 -0.22532861608E+01 -0.10223062741E+02 -0.63602599317E+01  0.12251681571E+02  0.24996917801E+00 0.  0.
        -13    1    4    4    0    0  0.20056792362E+00  0.13579775117E+02  0.11871082771E+02  0.18038407659E+02  0.10500000000E+00 0. -1.
         13    1    4    4    0    0  0.14493550283E+00  0.16889573646E+02  0.14904725942E+02  0.22526441900E+02  0.10500000000E+00 0.  1.
    3000001    1    5    5    0    0  0.87731597109E+01 -0.36634459958E+02 -0.33239161269E+02  0.50248321659E+02  0.10000000000E+01 0.  1.
        -13    1    6    6    0    0 -0.12310393505E+01 -0.53638082697E+01 -0.33992955034E+01  0.64693223722E+01  0.10500000000E+00 0.  1.
         13    1    6    6    0    0 -0.10222468103E+01 -0.48592544710E+01 -0.29609644283E+01  0.57823591985E+01  0.10500000000E+00 0. -1.
</event>
<event>
11    0  0.3515428E-009  0.9118800E+02  0.7816531E-02  0.1126479E+00
         25   -1    0    0    0    0  0.00000000000E+00  0.00000000000E+00  0.99999998245E-14  0.12500000000E+03  0.12500000000E+03 0.  0.
    3000001    1    3    3    0    0 -0.27452654455E+02 -0.16619334896E+02 -0.20598745807E+01  0.32172870750E+02  0.10000000000E+01 0. -1.
    1000022    2    1    0    0    0 -0.56569053177E+02 -0.24608525905E+02  0.78273247775E+00  0.62499999822E+02  0.99999991510E+01 0.  0.
    3000022    2    3    3    0    0 -0.29116398723E+02 -0.79891910092E+01  0.28426070585E+01  0.30327129072E+02  0.24999064555E+00 0.  0.
    1000022    2    1    0    0    0  0.56569053177E+02  0.24608525905E+02 -0.78273247775E+00  0.62500000178E+02  0.10000001377E+02 0.  0.
    3000022    2    5    5    0    0  0.29825228350E+02  0.76633214145E+01  0.48056563009E+00  0.30798769228E+02  0.25000287207E+00 0.  0.
        -13    1    4    4    0    0 -0.14689106345E+02 -0.40317719758E+01  0.15022085621E+01  0.15306622294E+02  0.10500000000E+00 0. -1.
         13    1    4    4    0    0 -0.14427292378E+02 -0.39574190334E+01  0.13403984964E+01  0.15020506779E+02  0.10500000000E+00 0.  1.
    3000001    1    5    5    0    0  0.26743824828E+02  0.16945204490E+02 -0.12632981078E+01  0.31701230950E+02  0.10000000000E+01 0.  1.
        -13    1    6    6    0    0  0.16450347257E+02  0.42831029930E+01  0.22713956153E+00  0.17000632738E+02  0.10500000000E+00 0. -1.
         13    1    6    6    0    0  0.13374881093E+02  0.33802184215E+01  0.25342606856E+00  0.13798136490E+02  0.10500000000E+00 0.  1.
</event>
<event>
11    0  0.3515428E-009  0.9118800E+02  0.7816531E-02  0.1126479E+00
         25   -1    0    0    0    0  0.00000000000E+00  0.00000000000E+00  0.99999998245E-14  0.12500000000E+03  0.12500000000E+03 0.  0.
    3000001    1    3    3    0    0 -0.41197143268E+02 -0.11169966717E+02  0.10098570803E+02  0.43874296601E+02  0.10000000000E+01 0. -1.
    1000022    2    1    0    0    0 -0.57292681926E+02 -0.20539480753E+02  0.10095977726E+02  0.62499996386E+02  0.99999555077E+01 0.  0.
    3000022    2    3    3    0    0 -0.16095538657E+02 -0.93695140356E+01 -0.25930761368E-02  0.18625699785E+02  0.25005566892E+00 0.  0.
    1000022    2    1    0    0    0  0.57292681926E+02  0.20539480753E+02 -0.10095977726E+02  0.62500003614E+02  0.10000000685E+02 0.  0.
    3000022    2    5    5    0    0  0.47658006543E+02  0.18889994051E+02 -0.11594392768E+02  0.52560535633E+02  0.24999898080E+00 0.  0.
        -13    1    4    4    0    0 -0.52314555004E+01 -0.31021609118E+01 -0.18564248974E-01  0.60830007896E+01  0.10500000000E+00 0. -1.
         13    1    4    4    0    0 -0.10864083157E+02 -0.62673531238E+01  0.15971172837E-01  0.12542698996E+02  0.10500000000E+00 0.  1.
    3000001    1    5    5    0    0  0.96346753829E+01  0.16494867011E+01  0.14984150412E+01  0.99394679811E+01  0.10000000000E+01 0. -1.
        -13    1    6    6    0    0  0.24080468818E+02  0.96053423910E+01 -0.59020144077E+01  0.26589027436E+02  0.10500000000E+00 0.  1.
         13    1    6    6    0    0  0.23577537725E+02  0.92846516604E+01 -0.56923783599E+01  0.25971508197E+02  0.10500000000E+00 0. -1.
</event>
<event>
11    0  0.3515428E-009  0.9118800E+02  0.7816531E-02  0.1126479E+00
         25   -1    0    0    0    0  0.00000000000E+00  0.00000000000E+00  0.99999998245E-14  0.12500000000E+03  0.12500000000E+03 0.  0.
    3000001    1    3    3    0    0  0.17448960911E+01 -0.26789218021E+01  0.52930973162E+00  0.33913792449E+01  0.10000000000E+01 0. -1.
    1000022    2    1    0    0    0  0.57040728052E+02 -0.21069935779E+02  0.10424165040E+02  0.62500000332E+02  0.99999987180E+01 0.  0.
    3000022    2    3    3    0    0  0.55295831961E+02 -0.18391013977E+02  0.98948553084E+01  0.59108621088E+02  0.24999595406E+00 0.  0.
    1000022    2    1    0    0    0 -0.57040728052E+02  0.21069935779E+02 -0.10424165040E+02  0.62499999668E+02  0.99999945631E+01 0.  0.
    3000022    2    5    5    0    0 -0.17200187728E+02  0.89216934656E+01 -0.73434680323E+01  0.20722743431E+02  0.25000079192E+00 0.  0.
        -13    1    4    4    0    0  0.28814630373E+02 -0.96547017306E+01  0.51635384182E+01  0.30824816999E+02  0.10500000000E+00 0. -1.
         13    1    4    4    0    0  0.26481201588E+02 -0.87363122463E+01  0.47313168903E+01  0.28283804088E+02  0.10500000000E+00 0.  1.
    3000001    1    5    5    0    0 -0.39840540324E+02  0.12148242313E+02 -0.30806970077E+01  0.41777256237E+02  0.10000000000E+01 0. -1.
        -13    1    6    6    0    0 -0.42788767995E+01  0.22276513981E+01 -0.18549572564E+01  0.51694398961E+01  0.10500000000E+00 0.  1.
         13    1    6    6    0    0 -0.12921310928E+02  0.66940420675E+01 -0.54885107760E+01  0.15553303535E+02  0.10500000000E+00 0. -1.
</event>
<event>
11    0  0.3515428E-009  0.9118800E+02  0.7816531E-02  0.1126479E+00
         25   -1    0    0    0    0  0.00000000000E+00  0.00000000000E+00  0.99999998245E-14  0.12500000000E+03  0.12500000000E+03 0.  0.
    3000001    1    3    3    0    0  0.40372214015E+01  0.16020360260E+01 -0.66306691640E+01  0.79894586572E+01  0.10000000000E+01 0. -1.
    1000022    2    1    0    0    0  0.78060402147E+01  0.13012103848E+02 -0.59799673087E+02  0.62500000043E+02  0.99999996808E+01 0.  0.
    3000022    2    3    3    0    0  0.37688188132E+01  0.11410067822E+02 -0.53169003923E+02  0.54510541386E+02  0.25000199783E+00 0.  0.
    1000022    2    1    0    0    0 -0.78060402147E+01 -0.13012103848E+02  0.59799673087E+02  0.62499999957E+02  0.99999991449E+01 0.  0.
    3000022    2    5    5    0    0 -0.28567375114E+01 -0.12611884117E+02  0.38835813103E+02  0.40932913957E+02  0.24999091881E+00 0.  0.
        -13    1    4    4    0    0  0.18891281812E+01  0.55124931579E+01 -0.25694268631E+02  0.26346970444E+02  0.10500000000E+00 0. -1.
         13    1    4    4    0    0  0.18796906320E+01  0.58975746640E+01 -0.27474735292E+02  0.28163570942E+02  0.10500000000E+00 0.  1.
    3000001    1    5    5    0    0 -0.49493027033E+01 -0.40021973053E+00  0.20963859984E+02  0.21567086000E+02  0.10000000000E+01 0.  1.
        -13    1    6    6    0    0 -0.74683003757E+00 -0.33715574260E+01  0.10471163587E+02  0.11026397710E+02  0.10500000000E+00 0. -1.
         13    1    6    6    0    0 -0.21099074739E+01 -0.92403266914E+01  0.28364649516E+02  0.29906516248E+02  0.10500000000E+00 0.  1.
</event>
<event>
11    0  0.3515428E-009  0.9118800E+02  0.7816531E-02  0.1126479E+00
         25   -1    0    0    0    0  0.00000000000E+00  0.00000000000E+00  0.99999998245E-14  0.12500000000E+03  0.12500000000E+03 0.  0.
    3000001    1    3    3    0    0 -0.32139559171E+02 -0.10164689833E+02 -0.72128895527E+01  0.34486199542E+02  0.10000000000E+01 0.  1.
    1000022    2    1    0    0    0 -0.60063718409E+02 -0.12349273987E+02 -0.67893602244E+01  0.62499998767E+02  0.99999798207E+01 0.  0.
    3000022    2    3    3    0    0 -0.27924159238E+02 -0.21845841542E+01  0.42352932831E+00  0.28013799225E+02  0.24998570726E+00 0.  0.
    1000022    2    1    0    0    0  0.60063718409E+02  0.12349273987E+02  0.67893602244E+01  0.62500001233E+02  0.99999952391E+01 0.  0.
    3000022    2    5    5    0    0  0.71029175646E+01 -0.15247100052E+01 -0.36150780630E+00  0.72780058738E+01  0.25000614998E+00 0.  0.
        -13    1    4    4    0    0 -0.12446707885E+02 -0.95174981232E+00  0.12603486963E+00  0.12484120901E+02  0.10500000000E+00 0.  1.
         13    1    4    4    0    0 -0.15477451353E+02 -0.12328343419E+01  0.29749445868E+00  0.15529678324E+02  0.10500000000E+00 0. -1.
    3000001    1    5    5    0    0  0.52960800845E+02  0.13873983992E+02  0.71508680307E+01  0.55221995360E+02  0.10000000000E+01 0.  1.
        -13    1    6    6    0    0  0.35314111840E+01 -0.71421301628E+00 -0.12665245793E+00  0.36066648068E+01  0.10500000000E+00 0.  1.
         13    1    6    6    0    0  0.35715063806E+01 -0.81049698888E+00 -0.23485534837E+00  0.36713410670E+01  0.10500000000E+00 0. -1.
</event>
<event>
11    0  0.3515428E-009  0.9118800E+02  0.7816531E-02  0.1126479E+00
         25   -1    0    0    0    0  0.00000000000E+00  0.00000000000E+00  0.99999998245E-14  0.12500000000E+03  0.12500000000E+03 0.  0.
    3000001    1    3    3    0    0  0.11969440553E+01 -0.31867900568E+01  0.62736351399E+01  0.72074131147E+01  0.10000000000E+01 0. -1.
    1000022    2    1    0    0    0  0.17213743623E+02 -0.25256640371E+01  0.59190860357E+02  0.62500000180E+02  0.10000006218E+02 0.  0.
    3000022    2    3    3    0    0  0.16016799568E+02  0.66112601972E+00  0.52917225217E+02  0.55292587065E+02  0.25000739296E+00 0.  0.
    1000022    2    1    0    0    0 -0.17213743623E+02  0.25256640371E+01 -0.59190860357E+02  0.62499999820E+02  0.10000003971E+02 0.  0.
    3000022    2    5    5    0    0 -0.70255292220E+01 -0.34662675379E+01 -0.17939196741E+02  0.19576781071E+02  0.25001184363E+00 0.  0.
        -13    1    4    4    0    0  0.11076510015E+02  0.50155669310E+00  0.36535043083E+02  0.38180636863E+02  0.10500000000E+00 0.  1.
         13    1    4    4    0    0  0.49402895525E+01  0.15956932662E+00  0.16382182134E+02  0.17111950202E+02  0.10500000000E+00 0. -1.
    3000001    1    5    5    0    0 -0.10188214401E+02  0.59919315750E+01 -0.41251663616E+02  0.42923218749E+02  0.10000000000E+01 0.  1.
        -13    1    6    6    0    0 -0.23953377988E+01 -0.11927869788E+01 -0.62656998566E+01  0.68139858849E+01  0.10500000000E+00 0. -1.
         13    1    6    6    0    0 -0.46301914233E+01 -0.22734805591E+01 -0.11673496884E+02  0.12762795186E+02  0.10500000000E+00 0.  1.
</event>
<event>
11    0  0.3515428E-009  0.9118800E+02  0.7816531E-02  0.1126479E+00
         25   -1    0    0    0    0  0.00000000000E+00  0.00000000000E+00  0.99999998245E-14  0.12500000000E+03  0.12500000000E+03 0.  0.
    3000001    1    3    3    0    0  0.24443606974E+01  0.23204089118E+02  0.13918026624E+02  0.27186690055E+02  0.10000000000E+01 0. -1.
    1000022    2    1    0    0    0  0.25535290434E+01  0.57573692476E+02  0.22022704559E+02  0.62499999897E+02  0.99999947567E+01 0.  0.
    3000022    2    3    3    0    0  0.10916834596E+00  0.34369603358E+02  0.81046779346E+01  0.35313309842E+02  0.24998975984E+00 0.  0.
    1000022    2    1    0    0    0 -0.25535290434E+01 -0.57573692476E+02 -0.22022704559E+02  0.62500000103E+02  0.99999960412E+01 0.  0.
    3000022    2    5    5    0    0 -0.46302515209E+01 -0.18349858430E+02 -0.43669686137E+01  0.19423940101E+02  0.25000122413E+00 0.  0.
        -13    1    4    4    0    0  0.54764261698E-01  0.25643584690E+02  0.60572195636E+01  0.26349523121E+02  0.10500000000E+00 0. -1.
         13    1    4    4    0    0  0.54404084265E-01  0.87260186679E+01  0.20474583710E+01  0.89637867209E+01  0.10500000000E+00 0.  1.
    3000001    1    5    5    0    0  0.20767224775E+01 -0.39223834046E+02 -0.17655735945E+02  0.43076060002E+02  0.10000000000E+01 0. -1.
        -13    1    6    6    0    0 -0.11622011267E+01 -0.45139155916E+01 -0.10670374419E+01  0.47828589075E+01  0.10500000000E+00 0. -1.
         13    1    6    6    0    0 -0.34680503942E+01 -0.13835942838E+02 -0.32999311717E+01  0.14641081193E+02  0.10500000000E+00 0.  1.
</event>
<event>
11    0  0.3515428E-009  0.9118800E+02  0.7816531E-02  0.1126479E+00
         25   -1    0    0    0    0  0.00000000000E+00  0.00000000000E+00  0.99999998245E-14  0.12500000000E+03  0.12500000000E+03 0.  0.
    3000001    1    3    3    0    0 -0.58427610046E+01  0.34253120757E+01 -0.40914968753E+01  0.79756482904E+01  0.10000000000E+01 0. -1.
    1000022    2    1    0    0    0 -0.33690480657E+02  0.13847432560E+02 -0.49794078428E+02  0.62499996473E+02  0.99999718612E+01 0.  0.
    3000022    2    3    3    0    0 -0.27847719653E+02  0.10422120485E+02 -0.45702581553E+02  0.54524348183E+02  0.24999784448E+00 0.  0.
    1000022    2    1    0    0    0  0.33690480657E+02 -0.13847432560E+02  0.49794078428E+02  0.62500003527E+02  0.10000015947E+02 0.  0.
    3000022    2    5    5    0    0  0.22083496147E+02 -0.78557303056E+01  0.23876199761E+02  0.33459359251E+02  0.25001156995E+00 0.  0.
        -13    1    4    4    0    0 -0.10715244703E+02  0.39455178462E+01 -0.17568021509E+02  0.20953042377E+02  0.10500000000E+00 0.  1.
         13    1    4    4    0    0 -0.17132474949E+02  0.64766026386E+01 -0.28134560044E+02  0.33571305806E+02  0.10500000000E+00 0. -1.
    3000001    1    5    5    0    0  0.11606984510E+02 -0.59917022549E+01  0.25917878667E+02  0.29040644276E+02  0.10000000000E+01 0. -1.
        -13    1    6    6    0    0  0.84196376240E+01 -0.30595629324E+01  0.91157865322E+01  0.12781228899E+02  0.10500000000E+00 0.  1.
         13    1    6    6    0    0  0.13663858523E+02 -0.47961673731E+01  0.14760413228E+02  0.20678130353E+02  0.10500000000E+00 0. -1.
</event>
<event>
11    0  0.3515428E-009  0.9118800E+02  0.7816531E-02  0.1126479E+00
         25   -1    0    0    0    0  0.00000000000E+00  0.00000000000E+00  0.99999998245E-14  0.12500000000E+03  0.12500000000E+03 0.  0.
    3000001    1    3    3    0    0 -0.26091985966E+02 -0.23372056832E+01 -0.10497670017E+02  0.28239251723E+02  0.10000000000E+01 0. -1.
    1000022    2    1    0    0    0 -0.58517516032E+02  0.48025476902E+01 -0.18944281861E+02  0.62499999366E+02  0.99999979330E+01 0.  0.
    3000022    2    3    3    0    0 -0.32425530066E+02  0.71397533733E+01 -0.84466118440E+01  0.34260747643E+02  0.24999833470E+00 0.  0.
    1000022    2    1    0    0    0  0.58517516032E+02 -0.48025476902E+01  0.18944281861E+02  0.62500000634E+02  0.10000005855E+02 0.  0.
    3000022    2    5    5    0    0  0.50332069930E+02 -0.88094782349E+00  0.17242661899E+02  0.53211514002E+02  0.25000113082E+00 0.  0.
        -13    1    4    4    0    0 -0.13164721011E+02  0.28336339595E+01 -0.34247468664E+01  0.13895296932E+02  0.10500000000E+00 0.  1.
         13    1    4    4    0    0 -0.19260809055E+02  0.43061194138E+01 -0.50218649776E+01  0.20365450712E+02  0.10500000000E+00 0. -1.
    3000001    1    5    5    0    0  0.81854461025E+01 -0.39215998667E+01  0.17016199625E+01  0.92884866317E+01  0.10000000000E+01 0. -1.
        -13    1    6    6    0    0  0.20094422838E+02 -0.37422512322E+00  0.68219203487E+01  0.21224408022E+02  0.10500000000E+00 0. -1.
         13    1    6    6    0    0  0.30237647092E+02 -0.50672270027E+00  0.10420741550E+02  0.31987105980E+02  0.10500000000E+00 0.  1.
</event>
<event>
11    0  0.3515428E-009  0.9118800E+02  0.7816531E-02  0.1126479E+00
         25   -1    0    0    0    0  0.00000000000E+00  0.00000000000E+00  0.99999998245E-14  0.12500000000E+03  0.12500000000E+03 0.  0.
    3000001    1    3    3    0    0  0.10848825352E+00 -0.28353230355E+00  0.12899217896E+01  0.16601380941E+01  0.10000000000E+01 0.  1.
    1000022    2    1    0    0    0 -0.27258506521E+02  0.25380768294E+02  0.49183739694E+02  0.62500002087E+02  0.10000021681E+02 0.  0.
    3000022    2    3    3    0    0 -0.27366994774E+02  0.25664300598E+02  0.47893817904E+02  0.60839863992E+02  0.25005809282E+00 0.  0.
    1000022    2    1    0    0    0  0.27258506521E+02 -0.25380768294E+02 -0.49183739694E+02  0.62499997913E+02  0.99999956000E+01 0.  0.
    3000022    2    5    5    0    0  0.22415275415E+02 -0.24049180938E+02 -0.38326662937E+02  0.50495576723E+02  0.25000190224E+00 0.  0.
        -13    1    4    4    0    0 -0.95096033072E+01  0.89658119859E+01  0.16612864713E+02  0.21138037719E+02  0.10500000000E+00 0.  1.
         13    1    4    4    0    0 -0.17857391467E+02  0.16698488612E+02  0.31280953191E+02  0.39701826274E+02  0.10500000000E+00 0. -1.
    3000001    1    5    5    0    0  0.48432311056E+01 -0.13315873563E+01 -0.10857076756E+02  0.12004421191E+02  0.10000000000E+01 0.  1.
        -13    1    6    6    0    0  0.11410169987E+02 -0.12265950376E+02 -0.19631144127E+02  0.25807719049E+02  0.10500000000E+00 0. -1.
         13    1    6    6    0    0  0.11005105428E+02 -0.11783230562E+02 -0.18695518810E+02  0.24687857674E+02  0.10500000000E+00 0.  1.
</event>
<event>
11    0  0.3515428E-009  0.9118800E+02  0.7816531E-02  0.1126479E+00
         25   -1    0    0    0    0  0.00000000000E+00  0.00000000000E+00  0.99999998245E-14  0.12500000000E+03  0.12500000000E+03 0.  0.
    3000001    1    3    3    0    0  0.84468507941E+01  0.51729617532E+02 -0.28133720260E+02  0.59496292608E+02  0.10000000000E+01 0. -1.
    1000022    2    1    0    0    0  0.96775784640E+01  0.54379916096E+02 -0.27484887109E+02  0.62500000217E+02  0.10000010407E+02 0.  0.
    3000022    2    3    3    0    0  0.12307276699E+01  0.26502985644E+01  0.64883315138E+00  0.30037076094E+01  0.25000373365E+00 0.  0.
    1000022    2    1    0    0    0 -0.96775784640E+01 -0.54379916096E+02  0.27484887109E+02  0.62499999783E+02  0.10000007695E+02 0.  0.
    3000022    2    5    5    0    0 -0.24175508976E+00 -0.15818042941E+02  0.12073590942E+02  0.19902337012E+02  0.24998460857E+00 0.  0.
        -13    1    4    4    0    0  0.43909145391E+00  0.87858254607E+00  0.17144166299E+00  0.10025596436E+01  0.10500000000E+00 0.  1.
         13    1    4    4    0    0  0.79163621601E+00  0.17717160183E+01  0.47739148840E+00  0.20011479658E+01  0.10500000000E+00 0. -1.
    3000001    1    5    5    0    0 -0.94358233742E+01 -0.38561873155E+02  0.15411296167E+02  0.42597662771E+02  0.10000000000E+01 0. -1.
        -13    1    6    6    0    0 -0.32445427473E-01 -0.55276984364E+01  0.41916421851E+01  0.69381115527E+01  0.10500000000E+00 0. -1.
         13    1    6    6    0    0 -0.20930966229E+00 -0.10290344505E+02  0.78819487566E+01  0.12964225459E+02  0.10500000000E+00 0.  1.
</event>
<event>
11    0  0.3515428E-009  0.9118800E+02  0.7816531E-02  0.1126479E+00
         25   -1    0    0    0    0  0.00000000000E+00  0.00000000000E+00  0.99999998245E-14  0.12500000000E+03  0.12500000000E+03 0.  0.
    3000001    1    3    3    0    0  0.94487216544E+01  0.46283893770E+02 -0.21627587286E+02  0.51963734424E+02  0.10000000000E+01 0.  1.
    1000022    2    1    0    0    0  0.14865662324E+02  0.55164372076E+02 -0.23284230749E+02  0.62500010195E+02  0.10000000494E+02 0.  0.
    3000022    2    3    3    0    0  0.54169406698E+01  0.88804783063E+01 -0.16566434630E+01  0.10536275771E+02  0.24999679781E+00 0.  0.
    1000022    2    1    0    0    0 -0.14865662324E+02 -0.55164372076E+02  0.23284230749E+02  0.62499989805E+02  0.99998730541E+01 0.  0.
    3000022    2    5    5    0    0 -0.11782331156E+02 -0.26131364030E+02  0.13554065574E+02  0.31708779994E+02  0.25004310840E+00 0.  0.
        -13    1    4    4    0    0  0.27241022830E+01  0.43389275965E+01 -0.83108870921E+00  0.51912194501E+01  0.10500000000E+00 0.  1.
         13    1    4    4    0    0  0.26928383868E+01  0.45415507097E+01 -0.82555475384E+00  0.53450563213E+01  0.10500000000E+00 0. -1.
    3000001    1    5    5    0    0 -0.30833311685E+01 -0.29033008046E+02  0.97301651757E+01  0.30791209811E+02  0.10000000000E+01 0.  1.
        -13    1    6    6    0    0 -0.28526315112E+01 -0.63115019236E+01  0.32972371692E+01  0.76717247749E+01  0.10500000000E+00 0.  1.
         13    1    6    6    0    0 -0.89296996445E+01 -0.19819862107E+02  0.10256828405E+02  0.24037055219E+02  0.10500000000E+00 0. -1.
</event>
<event>
11    0  0.3515428E-009  0.9118800E+02  0.7816531E-02  0.1126479E+00
         25   -1    0    0    0    0  0.00000000000E+00  0.00000000000E+00  0.99999998245E-14  0.12500000000E+03  0.12500000000E+03 0.  0.
    3000001    1    3    3    0    0 -0.57324622191E+01 -0.14970285790E+02 -0.27736342879E+02  0.32051135643E+02  0.10000000000E+01 0. -1.
    1000022    2    1    0    0    0 -0.18105002841E+02 -0.33230877735E+02 -0.48725431531E+02  0.62499999611E+02  0.99999955334E+01 0.  0.
    3000022    2    3    3    0    0 -0.12372540621E+02 -0.18260591945E+02 -0.20989088651E+02  0.30448863968E+02  0.24998978875E+00 0.  0.
    1000022    2    1    0    0    0  0.18105002841E+02  0.33230877735E+02  0.48725431531E+02  0.62500000389E+02  0.10000000395E+02 0.  0.
    3000022    2    5    5    0    0  0.12591033120E+02  0.27246049038E+02  0.32006526602E+02  0.43878941917E+02  0.24999079363E+00 0.  0.
        -13    1    4    4    0    0 -0.90594274052E+01 -0.13430658481E+02 -0.15406971998E+02  0.22357138084E+02  0.10500000000E+00 0.  1.
         13    1    4    4    0    0 -0.33131132163E+01 -0.48299334639E+01 -0.55821166537E+01  0.80917258842E+01  0.10500000000E+00 0. -1.
    3000001    1    5    5    0    0  0.55139697210E+01  0.59848286963E+01  0.16718904929E+02  0.18621058472E+02  0.10000000000E+01 0.  1.
        -13    1    6    6    0    0  0.55653560670E+01  0.12177372724E+02  0.14328851672E+02  0.19610930877E+02  0.10500000000E+00 0.  1.
         13    1    6    6    0    0  0.70256770525E+01  0.15068676314E+02  0.17677674930E+02  0.24268011040E+02  0.10500000000E+00 0. -1.
</event>
<event>
11    0  0.3515428E-009  0.9118800E+02  0.7816531E-02  0.1126479E+00
         25   -1    0    0    0    0  0.00000000000E+00  0.00000000000E+00  0.99999998245E-14  0.12500000000E+03  0.12500000000E+03 0.  0.
    3000001    1    3    3    0    0  0.19725453426E+02 -0.21750719022E+02 -0.20158909653E+02  0.35631010780E+02  0.10000000000E+01 0. -1.
    1000022    2    1    0    0    0  0.36816084928E+02 -0.41103910174E+02 -0.27591564894E+02  0.62499999477E+02  0.99999970146E+01 0.  0.
    3000022    2    3    3    0    0  0.17090631503E+02 -0.19353191152E+02 -0.74326552408E+01  0.26868988697E+02  0.24999346555E+00 0.  0.
    1000022    2    1    0    0    0 -0.36816084928E+02  0.41103910174E+02  0.27591564894E+02  0.62500000523E+02  0.10000003553E+02 0.  0.
    3000022    2    5    5    0    0 -0.24225799392E+02  0.31599266091E+02  0.23245714990E+02  0.46106710420E+02  0.25001327771E+00 0.  0.
        -13    1    4    4    0    0  0.64652129066E+01 -0.72363816968E+01 -0.27704718446E+01  0.10092112625E+02  0.10500000000E+00 0.  1.
         13    1    4    4    0    0  0.10625418596E+02 -0.12116809455E+02 -0.46621833961E+01  0.16776876072E+02  0.10500000000E+00 0. -1.
    3000001    1    5    5    0    0 -0.12590285537E+02  0.95046440824E+01  0.43458499040E+01  0.16393290104E+02  0.10000000000E+01 0. -1.
        -13    1    6    6    0    0 -0.13819265882E+02  0.18031887597E+02  0.13338858823E+02  0.26344966493E+02  0.10500000000E+00 0. -1.
         13    1    6    6    0    0 -0.10406533510E+02  0.13567378495E+02  0.99068561665E+01  0.19761743926E+02  0.10500000000E+00 0.  1.
</event>
<event>
11    0  0.3515428E-009  0.9118800E+02  0.7816531E-02  0.1126479E+00
         25   -1    0    0    0    0  0.00000000000E+00  0.00000000000E+00  0.99999998245E-14  0.12500000000E+03  0.12500000000E+03 0.  0.
    3000001    1    3    3    0    0  0.82132901003E+00  0.47888067022E-01  0.56090757794E+01  0.57566140837E+01  0.10000000000E+01 0. -1.
    1000022    2    1    0    0    0 -0.46707329671E+01  0.26314608424E+02  0.55605535141E+02  0.62499999530E+02  0.10000001998E+02 0.  0.
    3000022    2    3    3    0    0 -0.54920619771E+01  0.26266720357E+02  0.49996459361E+02  0.56743385446E+02  0.25000022814E+00 0.  0.
    1000022    2    1    0    0    0  0.46707329671E+01 -0.26314608424E+02 -0.55605535141E+02  0.62500000470E+02  0.10000007874E+02 0.  0.
    3000022    2    5    5    0    0  0.44564640690E+00 -0.22216656520E+02 -0.47416197907E+02  0.52365415595E+02  0.24999775758E+00 0.  0.
        -13    1    4    4    0    0 -0.30969158869E+01  0.15110871790E+02  0.28785198956E+02  0.32657740862E+02  0.10500000000E+00 0. -1.
         13    1    4    4    0    0 -0.23951460902E+01  0.11155848568E+02  0.21211260405E+02  0.24085644584E+02  0.10500000000E+00 0.  1.
    3000001    1    5    5    0    0  0.42250865602E+01 -0.40979519048E+01 -0.81893372339E+01  0.10134584875E+02  0.10000000000E+01 0. -1.
        -13    1    6    6    0    0  0.23949182966E+00 -0.13534697451E+02 -0.28759207140E+02  0.31785978226E+02  0.10500000000E+00 0. -1.
         13    1    6    6    0    0  0.20615457724E+00 -0.86819590685E+01 -0.18656990767E+02  0.20579437370E+02  0.10500000000E+00 0.  1.
</event>
<event>
11    0  0.3515428E-009  0.9118800E+02  0.7816531E-02  0.1126479E+00
         25   -1    0    0    0    0  0.00000000000E+00  0.00000000000E+00  0.99999998245E-14  0.12500000000E+03  0.12500000000E+03 0.  0.
    3000001    1    3    3    0    0 -0.42804267634E+02  0.36838837797E+02  0.22715724431E+02  0.60879466443E+02  0.10000000000E+01 0.  1.
    1000022    2    1    0    0    0 -0.43007175301E+02  0.36961913512E+02  0.24299172071E+02  0.62499999811E+02  0.10000001757E+02 0.  0.
    3000022    2    3    3    0    0 -0.20290766739E+00  0.12307571517E+00  0.15834476400E+01  0.16205333682E+01  0.25000563138E+00 0.  0.
    1000022    2    1    0    0    0  0.43007175301E+02 -0.36961913512E+02 -0.24299172071E+02  0.62500000189E+02  0.10000004122E+02 0.  0.
    3000022    2    5    5    0    0  0.32588119740E+02 -0.32553887000E+02 -0.17578446183E+02  0.49303198570E+02  0.25002397618E+00 0.  0.
        -13    1    4    4    0    0 -0.15643172496E-01  0.54156607951E-01  0.56034240780E+00  0.57287543236E+00  0.10500000000E+00 0. -1.
         13    1    4    4    0    0 -0.18726449490E+00  0.68919107219E-01  0.10231052322E+01  0.10476579359E+01  0.10500000000E+00 0.  1.
    3000001    1    5    5    0    0  0.10419055561E+02 -0.44080265116E+01 -0.67207258883E+01  0.13196801619E+02  0.10000000000E+01 0. -1.
        -13    1    6    6    0    0  0.15887162348E+02 -0.15777717836E+02 -0.85627840996E+01  0.23972288254E+02  0.10500000000E+00 0.  1.
         13    1    6    6    0    0  0.16700957391E+02 -0.16776169164E+02 -0.90156620836E+01  0.25330910316E+02  0.10500000000E+00 0. -1.
</event>
<event>
11    0  0.3515428E-009  0.9118800E+02  0.7816531E-02  0.1126479E+00
         25   -1    0    0    0    0  0.00000000000E+00  0.00000000000E+00  0.99999998245E-14  0.12500000000E+03  0.12500000000E+03 0.  0.
    3000001    1    3    3    0    0 -0.35703343233E+01  0.77612487993E+01  0.22922523786E+02  0.24483185390E+02  0.10000000000E+01 0. -1.
    1000022    2    1    0    0    0 -0.17170575461E+01  0.10264454512E+02  0.60810714581E+02  0.62499999762E+02  0.99999824699E+01 0.  0.
    3000022    2    3    3    0    0  0.18532767772E+01  0.25032057131E+01  0.37888190795E+02  0.38016814373E+02  0.24999936260E+00 0.  0.
    1000022    2    1    0    0    0  0.17170575461E+01 -0.10264454512E+02 -0.60810714581E+02  0.62500000238E+02  0.99999854388E+01 0.  0.
    3000022    2    5    5    0    0  0.16214266696E+01 -0.11821464442E+02 -0.57306049142E+02  0.58535645936E+02  0.25006182010E+00 0.  0.
        -13    1    4    4    0    0  0.52397248220E+00  0.65245154021E+00  0.10060472324E+02  0.10095759930E+02  0.10500000000E+00 0.  1.
         13    1    4    4    0    0  0.13293042950E+01  0.18507541729E+01  0.27827718471E+02  0.27921054443E+02  0.10500000000E+00 0. -1.
    3000001    1    5    5    0    0  0.95630876441E-01  0.15570099298E+01 -0.35046654393E+01  0.39643543015E+01  0.10000000000E+01 0. -1.
        -13    1    6    6    0    0  0.59290724776E+00 -0.47378567726E+01 -0.23071671004E+02  0.23560811822E+02  0.10500000000E+00 0.  1.
         13    1    6    6    0    0  0.10285194219E+01 -0.70836076695E+01 -0.34234378138E+02  0.34974834114E+02  0.10500000000E+00 0. -1.
</event>
<event>
11    0  0.3515428E-009  0.9118800E+02  0.7816531E-02  0.1126479E+00
         25   -1    0    0    0    0  0.00000000000E+00  0.00000000000E+00  0.99999998245E-14  0.12500000000E+03  0.12500000000E+03 0.  0.
    3000001    1    3    3    0    0  0.25677883038E+01 -0.80054871464E+01 -0.35169634353E+01  0.91679001428E+01  0.10000000000E+01 0.  1.
    1000022    2    1    0    0    0  0.21300823759E+01 -0.47114146998E+02 -0.39773985156E+02  0.62500000956E+02  0.10000006299E+02 0.  0.
    3000022    2    3    3    0    0 -0.43770592790E+00 -0.39108659852E+02 -0.36257021720E+02  0.53332100813E+02  0.24998236645E+00 0.  0.
    1000022    2    1    0    0    0 -0.21300823759E+01  0.47114146998E+02  0.39773985156E+02  0.62499999044E+02  0.99999943526E+01 0.  0.
    3000022    2    5    5    0    0 -0.40190636683E+01  0.40129544673E+02  0.29841200795E+02  0.50170638756E+02  0.24999967770E+00 0.  0.
        -13    1    4    4    0    0 -0.34079881512E+00 -0.26772184571E+02 -0.24782267500E+02  0.36483390987E+02  0.10500000000E+00 0. -1.
         13    1    4    4    0    0 -0.96907112780E-01 -0.12336475281E+02 -0.11474754221E+02  0.16848709826E+02  0.10500000000E+00 0.  1.
    3000001    1    5    5    0    0  0.18889812924E+01  0.69846023251E+01  0.99327843606E+01  0.12329360288E+02  0.10000000000E+01 0.  1.
        -13    1    6    6    0    0 -0.19283495107E+01  0.19203537295E+02  0.14196694913E+02  0.23959372862E+02  0.10500000000E+00 0.  1.
         13    1    6    6    0    0 -0.20907141576E+01  0.20926007378E+02  0.15644505882E+02  0.26211265894E+02  0.10500000000E+00 0. -1.
</event>
<event>
11    0  0.3515428E-009  0.9118800E+02  0.7816531E-02  0.1126479E+00
         25   -1    0    0    0    0  0.00000000000E+00  0.00000000000E+00  0.99999998245E-14  0.12500000000E+03  0.12500000000E+03 0.  0.
    3000001    1    3    3    0    0  0.13922124835E+01 -0.89871998430E+01 -0.13155650751E+02  0.16024330355E+02  0.10000000000E+01 0.  1.
    1000022    2    1    0    0    0  0.38544837784E+01 -0.19958331158E+02 -0.58249961480E+02  0.62499999902E+02  0.99999973722E+01 0.  0.
    3000022    2    3    3    0    0  0.24622712949E+01 -0.10971131315E+02 -0.45094310729E+02  0.46475669547E+02  0.24999496812E+00 0.  0.
    1000022    2    1    0    0    0 -0.38544837784E+01  0.19958331158E+02  0.58249961480E+02  0.62500000098E+02  0.99999986016E+01 0.  0.
    3000022    2    5    5    0    0 -0.66439939352E+01  0.92768657028E+01  0.25890125835E+02  0.28294239850E+02  0.25000050880E+00 0.  0.
        -13    1    4    4    0    0  0.11395447342E+01 -0.51769370188E+01 -0.20995883075E+02  0.21654961791E+02  0.10500000000E+00 0.  1.
         13    1    4    4    0    0  0.13227265607E+01 -0.57941942961E+01 -0.24098427654E+02  0.24820707756E+02  0.10500000000E+00 0. -1.
    3000001    1    5    5    0    0  0.27895101568E+01  0.10681465455E+02  0.32359835645E+02  0.34205760248E+02  0.10000000000E+01 0. -1.
        -13    1    6    6    0    0 -0.15839640166E+01  0.21898521953E+01  0.61617525113E+01  0.67292357407E+01  0.10500000000E+00 0. -1.
         13    1    6    6    0    0 -0.50600299186E+01  0.70870135074E+01  0.19728373324E+02  0.21565004109E+02  0.10500000000E+00 0.  1.
</event>
<event>
11    0  0.3515428E-009  0.9118800E+02  0.7816531E-02  0.1126479E+00
         25   -1    0    0    0    0  0.00000000000E+00  0.00000000000E+00  0.99999998245E-14  0.12500000000E+03  0.12500000000E+03 0.  0.
    3000001    1    3    3    0    0 -0.11236651130E+02 -0.20195821346E+02 -0.10600313140E+02  0.25446024584E+02  0.10000000000E+01 0.  1.
    1000022    2    1    0    0    0 -0.37193974736E+02 -0.44380748525E+02 -0.21288671292E+02  0.62499996789E+02  0.99999738500E+01 0.  0.
    3000022    2    3    3    0    0 -0.25957323606E+02 -0.24184927178E+02 -0.10688358152E+02  0.37053972205E+02  0.25000956248E+00 0.  0.
    1000022    2    1    0    0    0  0.37193974736E+02  0.44380748525E+02  0.21288671292E+02  0.62500003211E+02  0.10000013982E+02 0.  0.
    3000022    2    5    5    0    0  0.77860509692E+01  0.81007636366E+01  0.18152005216E+00  0.11240124970E+02  0.24999723935E+00 0.  0.
        -13    1    4    4    0    0 -0.12914539753E+02 -0.11973418347E+02 -0.52511511438E+01  0.18377532405E+02  0.10500000000E+00 0.  1.
         13    1    4    4    0    0 -0.13042783853E+02 -0.12211508831E+02 -0.54372070084E+01  0.18676439800E+02  0.10500000000E+00 0. -1.
    3000001    1    5    5    0    0  0.29407923767E+02  0.36279984888E+02  0.21107151240E+02  0.51259878241E+02  0.10000000000E+01 0. -1.
        -13    1    6    6    0    0  0.51590966333E+01  0.54444567445E+01  0.12459051997E+00  0.75023286460E+01  0.10500000000E+00 0.  1.
         13    1    6    6    0    0  0.26269543359E+01  0.26563068921E+01  0.56929532189E-01  0.37377963240E+01  0.10500000000E+00 0. -1.
</event>
<event>
11    0  0.3515428E-009  0.9118800E+02  0.7816531E-02  0.1126479E+00
         25   -1    0    0    0    0  0.00000000000E+00  0.00000000000E+00  0.99999998245E-14  0.12500000000E+03  0.12500000000E+03 0.  0.
    3000001    1    3    3    0    0  0.34396102508E+02 -0.20933358681E+01 -0.82816770561E+01  0.35455043332E+02  0.10000000000E+01 0.  1.
    1000022    2    1    0    0    0  0.57571346916E+02 -0.98122791295E+01 -0.19887413383E+02  0.62499999389E+02  0.99999952558E+01 0.  0.
    3000022    2    3    3    0    0  0.23175244408E+02 -0.77189432615E+01 -0.11605736327E+02  0.27044956057E+02  0.24998800313E+00 0.  0.
    1000022    2    1    0    0    0 -0.57571346916E+02  0.98122791295E+01  0.19887413383E+02  0.62500000611E+02  0.10000002899E+02 0.  0.
    3000022    2    5    5    0    0 -0.26874993535E+02  0.56381087910E+01  0.42646678960E+01  0.27790347985E+02  0.25000128013E+00 0.  0.
        -13    1    4    4    0    0  0.14060703610E+02 -0.46761056012E+01 -0.69715168380E+01  0.16376276183E+02  0.10500000000E+00 0. -1.
         13    1    4    4    0    0  0.91145407980E+01 -0.30428376603E+01 -0.46342194886E+01  0.10668679874E+02  0.10500000000E+00 0.  1.
    3000001    1    5    5    0    0 -0.30696353381E+02  0.41741703385E+01  0.15622745487E+02  0.34709652626E+02  0.10000000000E+01 0.  1.
        -13    1    6    6    0    0 -0.16033570337E+02  0.34133486579E+01  0.25047348847E+01  0.16583457078E+02  0.10500000000E+00 0.  1.
         13    1    6    6    0    0 -0.10841423198E+02  0.22247601332E+01  0.17599330114E+01  0.11206890908E+02  0.10500000000E+00 0. -1.
</event>
<event>
11    0  0.3515428E-009  0.9118800E+02  0.7816531E-02  0.1126479E+00
         25   -1    0    0    0    0  0.00000000000E+00  0.00000000000E+00  0.99999998245E-14  0.12500000000E+03  0.12500000000E+03 0.  0.
    3000001    1    3    3    0    0  0.32974748747E+02 -0.13333621746E+02 -0.49926619974E+02  0.61308946377E+02  0.10000000000E+01 0.  1.
    1000022    2    1    0    0    0  0.33533234953E+02 -0.12376694257E+02 -0.50285083664E+02  0.62499999906E+02  0.99999970976E+01 0.  0.
    3000022    2    3    3    0    0  0.55848620646E+00  0.95692748930E+00 -0.35846369019E+00  0.11910535292E+01  0.24999045902E+00 0.  0.
    1000022    2    1    0    0    0 -0.33533234953E+02  0.12376694257E+02  0.50285083664E+02  0.62500000094E+02  0.99999982752E+01 0.  0.
    3000022    2    5    5    0    0 -0.66777255357E+01  0.35944586836E+01  0.49113133906E+01  0.90385646796E+01  0.25000137954E+00 0.  0.
        -13    1    4    4    0    0  0.32178601234E+00  0.47448527718E+00 -0.24298739603E+00  0.63146685631E+00  0.10500000000E+00 0.  1.
         13    1    4    4    0    0  0.23670019412E+00  0.48244221212E+00 -0.11547629416E+00  0.55958667286E+00  0.10500000000E+00 0.  1.
    3000001    1    5    5    0    0 -0.26855509418E+02  0.87822355730E+01  0.45373770274E+02  0.53461435415E+02  0.10000000000E+01 0.  1.
        -13    1    6    6    0    0 -0.33781030037E+01  0.18328341474E+01  0.25682521634E+01  0.46236138561E+01  0.10500000000E+00 0. -1.
         13    1    6    6    0    0 -0.32996225320E+01  0.17616245362E+01  0.23430612272E+01  0.44149508236E+01  0.10500000000E+00 0.  1.
</event>
<event>
11    0  0.3515428E-009  0.9118800E+02  0.7816531E-02  0.1126479E+00
         25   -1    0    0    0    0  0.00000000000E+00  0.00000000000E+00  0.99999998245E-14  0.12500000000E+03  0.12500000000E+03 0.  0.
    3000001    1    3    3    0    0 -0.74514056405E+01  0.64434958368E+01 -0.29758420456E+01  0.10339135385E+02  0.10000000000E+01 0. -1.
    1000022    2    1    0    0    0 -0.27206197830E+02  0.50273108932E+02 -0.23209626744E+02  0.62499995640E+02  0.99999999662E+01 0.  0.
    3000022    2    3    3    0    0 -0.19754792190E+02  0.43829613095E+02 -0.20233784698E+02  0.52160860255E+02  0.25000165723E+00 0.  0.
    1000022    2    1    0    0    0  0.27206197830E+02 -0.50273108932E+02  0.23209626744E+02  0.62500004360E+02  0.10000054468E+02 0.  0.
    3000022    2    5    5    0    0  0.18962211348E+02 -0.27090996775E+02  0.16611737551E+02  0.37006754685E+02  0.25000483486E+00 0.  0.
        -13    1    4    4    0    0 -0.87557145439E+01  0.19370361221E+02 -0.88791826370E+01  0.23037455161E+02  0.10500000000E+00 0.  1.
         13    1    4    4    0    0 -0.10999077646E+02  0.24459251874E+02 -0.11354602061E+02  0.29123405094E+02  0.10500000000E+00 0. -1.
    3000001    1    5    5    0    0  0.82439864827E+01 -0.23182112157E+02  0.65978891928E+01  0.25493249675E+02  0.10000000000E+01 0. -1.
        -13    1    6    6    0    0  0.75500097938E+01 -0.10686010285E+02  0.65455598151E+01  0.14630408128E+02  0.10500000000E+00 0. -1.
         13    1    6    6    0    0  0.11412201554E+02 -0.16404986490E+02  0.10066177736E+02  0.22376346557E+02  0.10500000000E+00 0.  1.
</event>
<event>
11    0  0.3515428E-009  0.9118800E+02  0.7816531E-02  0.1126479E+00
         25   -1    0    0    0    0  0.00000000000E+00  0.00000000000E+00  0.99999998245E-14  0.12500000000E+03  0.12500000000E+03 0.  0.
    3000001    1    3    3    0    0  0.81580274848E+01 -0.13643696323E+02 -0.25587887346E+02  0.30140402131E+02  0.10000000000E+01 0.  1.
    1000022    2    1    0    0    0  0.20231039095E+02 -0.18825488470E+02 -0.55159367938E+02  0.62499999034E+02  0.10000002446E+02 0.  0.
    3000022    2    3    3    0    0  0.12073011610E+02 -0.51817921473E+01 -0.29571480592E+02  0.32359596903E+02  0.24993621664E+00 0.  0.
    1000022    2    1    0    0    0 -0.20231039095E+02  0.18825488470E+02  0.55159367938E+02  0.62500000966E+02  0.10000014521E+02 0.  0.
    3000022    2    5    5    0    0 -0.13044597406E+02  0.15543782314E+02  0.46501434608E+02  0.50736738281E+02  0.25000138849E+00 0.  0.
        -13    1    4    4    0    0  0.35204756635E+01 -0.15089435856E+01 -0.87300355620E+01  0.95338977105E+01  0.10500000000E+00 0. -1.
         13    1    4    4    0    0  0.85525359468E+01 -0.36728485617E+01 -0.20841445030E+02  0.22825699192E+02  0.10500000000E+00 0.  1.
    3000001    1    5    5    0    0 -0.71864416888E+01  0.32817061567E+01  0.86579333296E+01  0.11763262684E+02  0.10000000000E+01 0.  1.
        -13    1    6    6    0    0 -0.53225079525E+01  0.63423417120E+01  0.18815004237E+02  0.20556502590E+02  0.10500000000E+00 0. -1.
         13    1    6    6    0    0 -0.77220894539E+01  0.92014406015E+01  0.27686430372E+02  0.30180235692E+02  0.10500000000E+00 0.  1.
</event>
<event>
11    0  0.3515428E-009  0.9118800E+02  0.7816531E-02  0.1126479E+00
         25   -1    0    0    0    0  0.00000000000E+00  0.00000000000E+00  0.99999998245E-14  0.12500000000E+03  0.12500000000E+03 0.  0.
    3000001    1    3    3    0    0 -0.81601583169E+01 -0.10266243119E+02  0.71786560722E+01  0.14983892503E+02  0.10000000000E+01 0.  1.
    1000022    2    1    0    0    0 -0.46659039228E+02 -0.33921637441E+02  0.21874793779E+02  0.62500000088E+02  0.99999989906E+01 0.  0.
    3000022    2    3    3    0    0 -0.38498880911E+02 -0.23655394322E+02  0.14696137707E+02  0.47516107585E+02  0.25000929077E+00 0.  0.
    1000022    2    1    0    0    0  0.46659039228E+02  0.33921637441E+02 -0.21874793779E+02  0.62499999912E+02  0.99999978890E+01 0.  0.
    3000022    2    5    5    0    0  0.45490041783E+02  0.33430991453E+02 -0.19702247391E+02  0.59793111233E+02  0.25001537564E+00 0.  0.
        -13    1    4    4    0    0 -0.10677881402E+02 -0.65156785726E+01  0.40685275964E+01  0.13154282964E+02  0.10500000000E+00 0. -1.
         13    1    4    4    0    0 -0.27820999508E+02 -0.17139715750E+02  0.10627610111E+02  0.34361824621E+02  0.10500000000E+00 0.  1.
    3000001    1    5    5    0    0  0.11689974441E+01  0.49064598830E+00 -0.21725463886E+01  0.27068886790E+01  0.10000000000E+01 0.  1.
        -13    1    6    6    0    0  0.11211883342E+02  0.82137103881E+01 -0.48631087103E+01  0.14725223861E+02  0.10500000000E+00 0. -1.
         13    1    6    6    0    0  0.34278158441E+02  0.25217281065E+02 -0.14839138680E+02  0.45067887372E+02  0.10500000000E+00 0.  1.
</event>
<event>
11    0  0.3515428E-009  0.9118800E+02  0.7816531E-02  0.1126479E+00
         25   -1    0    0    0    0  0.00000000000E+00  0.00000000000E+00  0.99999998245E-14  0.12500000000E+03  0.12500000000E+03 0.  0.
    3000001    1    3    3    0    0  0.26154461147E+02  0.19805894261E+02 -0.67130876577E+01  0.33502161591E+02  0.10000000000E+01 0.  1.
    1000022    2    1    0    0    0  0.43901714892E+02  0.38351302017E+02 -0.20200672008E+02  0.62499999389E+02  0.99999918558E+01 0.  0.
    3000022    2    3    3    0    0  0.17747253746E+02  0.18545407756E+02 -0.13487584351E+02  0.28997837798E+02  0.25000199342E+00 0.  0.
    1000022    2    1    0    0    0 -0.43901714892E+02 -0.38351302017E+02  0.20200672008E+02  0.62500000611E+02  0.99999994915E+01 0.  0.
    3000022    2    5    5    0    0 -0.32388644942E+01 -0.40532677539E+01  0.48934399186E+01  0.71363490774E+01  0.25000244446E+00 0.  0.
        -13    1    4    4    0    0  0.55594579341E+01  0.58501779599E+01 -0.42867392637E+01  0.91388901514E+01  0.10500000000E+00 0.  1.
         13    1    4    4    0    0  0.12187795812E+02  0.12695229796E+02 -0.92008450870E+01  0.19858947647E+02  0.10500000000E+00 0. -1.
    3000001    1    5    5    0    0 -0.40662850398E+02 -0.34298034264E+02  0.15307232090E+02  0.55363651533E+02  0.10000000000E+01 0.  1.
        -13    1    6    6    0    0 -0.11158724544E+01 -0.13385117519E+01  0.15899461029E+01  0.23613002043E+01  0.10500000000E+00 0.  1.
         13    1    6    6    0    0 -0.21229920397E+01 -0.27147560020E+01  0.33034938156E+01  0.47750488732E+01  0.10500000000E+00 0. -1.
</event>
<event>
11    0  0.3515428E-009  0.9118800E+02  0.7816531E-02  0.1126479E+00
         25   -1    0    0    0    0  0.00000000000E+00  0.00000000000E+00  0.99999998245E-14  0.12500000000E+03  0.12500000000E+03 0.  0.
    3000001    1    3    3    0    0  0.17911018548E+02 -0.24192651294E+01 -0.70234540760E+00  0.18114930811E+02  0.10000000000E+01 0.  1.
    1000022    2    1    0    0    0  0.57527707326E+02 -0.22087617088E+02  0.29916690973E+01  0.62499999689E+02  0.99999969195E+01 0.  0.
    3000022    2    3    3    0    0  0.39616688777E+02 -0.19668351959E+02  0.36940145049E+01  0.44385068879E+02  0.24999547632E+00 0.  0.
    1000022    2    1    0    0    0 -0.57527707326E+02  0.22087617088E+02 -0.29916690973E+01  0.62500000311E+02  0.10000000803E+02 0.  0.
    3000022    2    5    5    0    0 -0.40699544813E+01  0.30746342993E+01  0.21067934142E+01  0.55243987457E+01  0.24999491504E+00 0.  0.
        -13    1    4    4    0    0  0.17599584206E+02 -0.87986288100E+01  0.16054930051E+01  0.19742083628E+02  0.10500000000E+00 0. -1.
         13    1    4    4    0    0  0.22017104571E+02 -0.10869723149E+02  0.20885214997E+01  0.24642985251E+02  0.10500000000E+00 0.  1.
    3000001    1    5    5    0    0 -0.53457752844E+02  0.19012982789E+02 -0.50984625114E+01  0.56975601565E+02  0.10000000000E+01 0.  1.
        -13    1    6    6    0    0 -0.21104857653E+01  0.15756287539E+01  0.11591605014E+01  0.28794850587E+01  0.10500000000E+00 0. -1.
         13    1    6    6    0    0 -0.19594687160E+01  0.14990055454E+01  0.94763291276E+00  0.26449136870E+01  0.10500000000E+00 0.  1.
</event>
<event>
11    0  0.3515428E-009  0.9118800E+02  0.7816531E-02  0.1126479E+00
         25   -1    0    0    0    0  0.00000000000E+00  0.00000000000E+00  0.99999998245E-14  0.12500000000E+03  0.12500000000E+03 0.  0.
    3000001    1    3    3    0    0  0.10192536695E+01 -0.36637632219E+01  0.43668104768E+01  0.58763145533E+01  0.10000000000E+01 0. -1.
    1000022    2    1    0    0    0  0.64568820691E+01 -0.56684853171E+02  0.23481609707E+02  0.62500000716E+02  0.10000009497E+02 0.  0.
    3000022    2    3    3    0    0  0.54376283996E+01 -0.53021089949E+02  0.19114799231E+02  0.56623686162E+02  0.25000598927E+00 0.  0.
    1000022    2    1    0    0    0 -0.64568820691E+01  0.56684853171E+02 -0.23481609707E+02  0.62499999284E+02  0.10000000552E+02 0.  0.
    3000022    2    5    5    0    0  0.15340244182E+01  0.99060406871E+01 -0.70975290840E+01  0.12284961878E+02  0.24999245940E+00 0.  0.
        -13    1    4    4    0    0  0.15260264152E+01 -0.14515043022E+02  0.52298463527E+01  0.15504113919E+02  0.10500000000E+00 0.  1.
         13    1    4    4    0    0  0.39116019844E+01 -0.38506046927E+02  0.13884952878E+02  0.41119572243E+02  0.10500000000E+00 0. -1.
    3000001    1    5    5    0    0 -0.79909064873E+01  0.46778812484E+02 -0.16384080623E+02  0.50215037407E+02  0.10000000000E+01 0. -1.
        -13    1    6    6    0    0  0.69570260134E+00  0.41472866318E+01 -0.30235008881E+01  0.51804026037E+01  0.10500000000E+00 0. -1.
         13    1    6    6    0    0  0.83832181689E+00  0.57587540553E+01 -0.40740281959E+01  0.71045592741E+01  0.10500000000E+00 0.  1.
</event>
<event>
11    0  0.3515428E-009  0.9118800E+02  0.7816531E-02  0.1126479E+00
         25   -1    0    0    0    0  0.00000000000E+00  0.00000000000E+00  0.99999998245E-14  0.12500000000E+03  0.12500000000E+03 0.  0.
    3000001    1    3    3    0    0  0.27111190485E+02  0.18472378298E+02 -0.13058100838E+02  0.35323638077E+02  0.10000000000E+01 0.  1.
    1000022    2    1    0    0    0  0.44452767572E+02  0.38795735392E+02 -0.18030320188E+02  0.62499999123E+02  0.99999907450E+01 0.  0.
    3000022    2    3    3    0    0  0.17341577087E+02  0.20323357094E+02 -0.49722193501E+01  0.27176361046E+02  0.24999002286E+00 0.  0.
    1000022    2    1    0    0    0 -0.44452767572E+02 -0.38795735392E+02  0.18030320188E+02  0.62500000877E+02  0.10000001708E+02 0.  0.
    3000022    2    5    5    0    0 -0.35739175244E+01 -0.76121909022E+01  0.28169234285E+01  0.88721977419E+01  0.24999673366E+00 0.  0.
        -13    1    4    4    0    0  0.11718329748E+02  0.13811738894E+02 -0.33661427905E+01  0.18423499278E+02  0.10500000000E+00 0. -1.
         13    1    4    4    0    0  0.56232473383E+01  0.65116182001E+01 -0.16060765596E+01  0.87528617679E+01  0.10500000000E+00 0.  1.
    3000001    1    5    5    0    0 -0.40878850047E+02 -0.31183544490E+02  0.15213396760E+02  0.53627803135E+02  0.10000000000E+01 0.  1.
        -13    1    6    6    0    0 -0.10475484666E+01 -0.22435052414E+01  0.87627933236E+00  0.26286049582E+01  0.10500000000E+00 0. -1.
         13    1    6    6    0    0 -0.25263690578E+01 -0.53686856609E+01  0.19406440961E+01  0.62435927838E+01  0.10500000000E+00 0.  1.
</event>
<event>
11    0  0.3515428E-009  0.9118800E+02  0.7816531E-02  0.1126479E+00
         25   -1    0    0    0    0  0.00000000000E+00  0.00000000000E+00  0.99999998245E-14  0.12500000000E+03  0.12500000000E+03 0.  0.
    3000001    1    3    3    0    0  0.32135885692E+02 -0.89226997034E+01  0.50097140419E+01  0.33740583190E+02  0.10000000000E+01 0. -1.
    1000022    2    1    0    0    0  0.57373117208E+02 -0.22520258110E+02  0.27227884917E+01  0.62499998632E+02  0.99999824208E+01 0.  0.
    3000022    2    3    3    0    0  0.25237231515E+02 -0.13597558407E+02 -0.22869255502E+01  0.28759415442E+02  0.24999785845E+00 0.  0.
    1000022    2    1    0    0    0 -0.57373117208E+02  0.22520258110E+02 -0.27227884917E+01  0.62500001368E+02  0.99999995155E+01 0.  0.
    3000022    2    5    5    0    0 -0.15677869575E+02  0.74588363252E+01  0.35275330884E+01  0.17718234752E+02  0.25003861980E+00 0.  0.
        -13    1    4    4    0    0  0.18106659339E+02 -0.97395675229E+01 -0.16783330004E+01  0.20628575196E+02  0.10500000000E+00 0.  1.
         13    1    4    4    0    0  0.71305721767E+01 -0.38579908842E+01 -0.60859254982E+00  0.81308402469E+01  0.10500000000E+00 0. -1.
    3000001    1    5    5    0    0 -0.41695247633E+02  0.15061421785E+02 -0.62503215801E+01  0.44781766615E+02  0.10000000000E+01 0.  1.
        -13    1    6    6    0    0 -0.82159367814E+01  0.39621798020E+01  0.18049472937E+01  0.92988894881E+01  0.10500000000E+00 0. -1.
         13    1    6    6    0    0 -0.74619327936E+01  0.34966565232E+01  0.17225857948E+01  0.84193452642E+01  0.10500000000E+00 0.  1.
</event>
<event>
11    0  0.3515428E-009  0.9118800E+02  0.7816531E-02  0.1126479E+00
         25   -1    0    0    0    0  0.00000000000E+00  0.00000000000E+00  0.99999998245E-14  0.12500000000E+03  0.12500000000E+03 0.  0.
    3000001    1    3    3    0    0 -0.29741143910E+01 -0.81828551385E+01 -0.13662419764E+02  0.16231641582E+02  0.10000000000E+01 0. -1.
    1000022    2    1    0    0    0 -0.25290879498E+02 -0.34858606931E+02 -0.44175777605E+02  0.62500002726E+02  0.99999975342E+01 0.  0.
    3000022    2    3    3    0    0 -0.22316765107E+02 -0.26675751793E+02 -0.30513357841E+02  0.46268361144E+02  0.24999524833E+00 0.  0.
    1000022    2    1    0    0    0  0.25290879498E+02  0.34858606931E+02  0.44175777605E+02  0.62499997274E+02  0.99999634598E+01 0.  0.
    3000022    2    5    5    0    0  0.24814909432E+02  0.28969764065E+02  0.36876579940E+02  0.53056306027E+02  0.25000213840E+00 0.  0.
        -13    1    4    4    0    0 -0.83875591178E+01 -0.10110469084E+02 -0.11489707263E+02  0.17452711281E+02  0.10500000000E+00 0. -1.
         13    1    4    4    0    0 -0.13929205990E+02 -0.16565282709E+02 -0.19023650578E+02  0.28815649863E+02  0.10500000000E+00 0.  1.
    3000001    1    5    5    0    0  0.47597006679E+00  0.58888428668E+01  0.72991976654E+01  0.94436912472E+01  0.10000000000E+01 0.  1.
        -13    1    6    6    0    0  0.18672743494E+02  0.21808731410E+02  0.27722266578E+02  0.39910239344E+02  0.10500000000E+00 0. -1.
         13    1    6    6    0    0  0.61421659381E+01  0.71610326550E+01  0.91543133623E+01  0.13146066683E+02  0.10500000000E+00 0.  1.
</event>
<event>
11    0  0.3515428E-009  0.9118800E+02  0.7816531E-02  0.1126479E+00
         25   -1    0    0    0    0  0.00000000000E+00  0.00000000000E+00  0.99999998245E-14  0.12500000000E+03  0.12500000000E+03 0.  0.
    3000001    1    3    3    0    0  0.12939072822E+02  0.33496918010E+02 -0.12899205135E+02  0.38168738711E+02  0.10000000000E+01 0.  1.
    1000022    2    1    0    0    0  0.13794485981E+02  0.56965486327E+02 -0.19258641244E+02  0.62500001698E+02  0.10000023684E+02 0.  0.
    3000022    2    3    3    0    0  0.85541315971E+00  0.23468568317E+02 -0.63594361085E+01  0.24331262987E+02  0.25000078360E+00 0.  0.
    1000022    2    1    0    0    0 -0.13794485981E+02 -0.56965486327E+02  0.19258641244E+02  0.62499998302E+02  0.10000002460E+02 0.  0.
    3000022    2    5    5    0    0 -0.71601807663E+01 -0.13846633581E+02  0.26794201177E+01  0.15818952459E+02  0.25002920580E+00 0.  0.
        -13    1    4    4    0    0  0.50882872326E+00  0.14414285122E+02 -0.39670829825E+01  0.14959254481E+02  0.10500000000E+00 0. -1.
         13    1    4    4    0    0  0.34658443645E+00  0.90542831954E+01 -0.23923531261E+01  0.93720085059E+01  0.10500000000E+00 0.  1.
    3000001    1    5    5    0    0 -0.66343052151E+01 -0.43118852746E+02  0.16579221126E+02  0.46681045843E+02  0.10000000000E+01 0.  1.
        -13    1    6    6    0    0 -0.37421237025E+01 -0.71021219057E+01  0.13516260338E+01  0.81413477571E+01  0.10500000000E+00 0. -1.
         13    1    6    6    0    0 -0.34180570638E+01 -0.67445116755E+01  0.13277940839E+01  0.76776047021E+01  0.10500000000E+00 0.  1.
</event>
<event>
11    0  0.3515428E-009  0.9118800E+02  0.7816531E-02  0.1126479E+00
         25   -1    0    0    0    0  0.00000000000E+00  0.00000000000E+00  0.99999998245E-14  0.12500000000E+03  0.12500000000E+03 0.  0.
    3000001    1    3    3    0    0  0.19019309724E+02  0.48645464977E+02  0.42430366466E+01  0.52412963713E+02  0.10000000000E+01 0.  1.
    1000022    2    1    0    0    0  0.25687143586E+02  0.56032149828E+02  0.26112500253E+01  0.62500002414E+02  0.10000025756E+02 0.  0.
    3000022    2    3    3    0    0  0.66678338620E+01  0.73866848508E+01 -0.16317866213E+01  0.10087038701E+02  0.25000135418E+00 0.  0.
    1000022    2    1    0    0    0 -0.25687143586E+02 -0.56032149828E+02 -0.26112500253E+01  0.62499997586E+02  0.99999955806E+01 0.  0.
    3000022    2    5    5    0    0 -0.13810184197E+02 -0.40639710471E+02 -0.30102272736E+01  0.43028260721E+02  0.24999552824E+00 0.  0.
        -13    1    4    4    0    0  0.32929884929E+01  0.36170656154E+01 -0.73671392282E+00  0.49477984281E+01  0.10500000000E+00 0. -1.
         13    1    4    4    0    0  0.33748453691E+01  0.37696192354E+01 -0.89507269851E+00  0.51392402727E+01  0.10500000000E+00 0.  1.
    3000001    1    5    5    0    0 -0.11876959388E+02 -0.15392439358E+02  0.39897724835E+00  0.19471736865E+02  0.10000000000E+01 0.  1.
        -13    1    6    6    0    0 -0.79732152568E+01 -0.23275250929E+02 -0.17006331216E+01  0.24661967588E+02  0.10500000000E+00 0.  1.
         13    1    6    6    0    0 -0.58369689406E+01 -0.17364459542E+02 -0.13095941520E+01  0.18366293133E+02  0.10500000000E+00 0. -1.
</event>
<event>
11    0  0.3515428E-009  0.9118800E+02  0.7816531E-02  0.1126479E+00
         25   -1    0    0    0    0  0.00000000000E+00  0.00000000000E+00  0.99999998245E-14  0.12500000000E+03  0.12500000000E+03 0.  0.
    3000001    1    3    3    0    0 -0.28429249834E+02 -0.43597895515E+02  0.55980853840E+01  0.52357781651E+02  0.10000000000E+01 0.  1.
    1000022    2    1    0    0    0 -0.30384477481E+02 -0.52923173741E+02  0.90648380854E+01  0.62500000081E+02  0.99999964998E+01 0.  0.
    3000022    2    3    3    0    0 -0.19552276467E+01 -0.93252782262E+01  0.34667527014E+01  0.10142218430E+02  0.24998248021E+00 0.  0.
    1000022    2    1    0    0    0  0.30384477481E+02  0.52923173741E+02 -0.90648380854E+01  0.62499999919E+02  0.99999954916E+01 0.  0.
    3000022    2    5    5    0    0  0.24485385366E+01  0.56240934854E+01 -0.39952614849E+01  0.73246405222E+01  0.24995189373E+00 0.  0.
        -13    1    4    4    0    0 -0.10512968242E+01 -0.49801858763E+01  0.19230701043E+01  0.54421227477E+01  0.10500000000E+00 0.  1.
         13    1    4    4    0    0 -0.90393082253E+00 -0.43450923500E+01  0.15436825970E+01  0.47000956822E+01  0.10500000000E+00 0. -1.
    3000001    1    5    5    0    0  0.27935938944E+02  0.47299080255E+02 -0.50695766005E+01  0.55175359397E+02  0.10000000000E+01 0.  1.
        -13    1    6    6    0    0  0.18858620295E+01  0.42958823550E+01 -0.30586045918E+01  0.56015326341E+01  0.10500000000E+00 0. -1.
         13    1    6    6    0    0  0.56267650713E+00  0.13282111304E+01 -0.93665689309E+00  0.17231078881E+01  0.10500000000E+00 0.  1.
</event>
<event>
11    0  0.3515428E-009  0.9118800E+02  0.7816531E-02  0.1126479E+00
         25   -1    0    0    0    0  0.00000000000E+00  0.00000000000E+00  0.99999998245E-14  0.12500000000E+03  0.12500000000E+03 0.  0.
    3000001    1    3    3    0    0  0.11607138764E+01  0.39714883573E+01 -0.13157409357E+02  0.13828861033E+02  0.10000000000E+01 0. -1.
    1000022    2    1    0    0    0  0.12582165987E+02  0.11834800122E+01 -0.60386578838E+02  0.62499997300E+02  0.99999616408E+01 0.  0.
    3000022    2    3    3    0    0  0.11421452111E+02 -0.27880083451E+01 -0.47229169481E+02  0.48671136267E+02  0.24999357539E+00 0.  0.
    1000022    2    1    0    0    0 -0.12582165987E+02 -0.11834800122E+01  0.60386578838E+02  0.62500002700E+02  0.99999953911E+01 0.  0.
    3000022    2    5    5    0    0 -0.21222082694E+01 -0.42144019029E+01  0.25683695857E+02  0.26114740709E+02  0.24999612038E+00 0.  0.
        -13    1    4    4    0    0  0.47125198557E+01 -0.11712545347E+01 -0.19256427619E+02  0.19859524421E+02  0.10500000000E+00 0. -1.
         13    1    4    4    0    0  0.67089322549E+01 -0.16167538104E+01 -0.27972741862E+02  0.28811611846E+02  0.10500000000E+00 0.  1.
    3000001    1    5    5    0    0 -0.10459957718E+02  0.30309218908E+01  0.34702882981E+02  0.36385261991E+02  0.10000000000E+01 0. -1.
        -13    1    6    6    0    0 -0.11318712176E+01 -0.22529838173E+01  0.13349763706E+02  0.13586179910E+02  0.10500000000E+00 0. -1.
         13    1    6    6    0    0 -0.99033705175E+00 -0.19614180856E+01  0.12333932151E+02  0.12528560799E+02  0.10500000000E+00 0.  1.
</event>
<event>
11    0  0.3515428E-009  0.9118800E+02  0.7816531E-02  0.1126479E+00
         25   -1    0    0    0    0  0.00000000000E+00  0.00000000000E+00  0.99999998245E-14  0.12500000000E+03  0.12500000000E+03 0.  0.
    3000001    1    3    3    0    0  0.11587507312E+01 -0.42803336959E+01  0.18674999332E+02  0.19220290317E+02  0.10000000000E+01 0.  1.
    1000022    2    1    0    0    0 -0.14580255503E+01 -0.26722340519E+02  0.55588133659E+02  0.62499998963E+02  0.99999972660E+01 0.  0.
    3000022    2    3    3    0    0 -0.26167762815E+01 -0.22442006823E+02  0.36913134327E+02  0.43279708646E+02  0.25001257263E+00 0.  0.
    1000022    2    1    0    0    0  0.14580255503E+01  0.26722340519E+02 -0.55588133659E+02  0.62500001037E+02  0.10000010232E+02 0.  0.
    3000022    2    5    5    0    0 -0.31599135831E+01  0.11549271991E+02 -0.30894946161E+02  0.33135040980E+02  0.25001006518E+00 0.  0.
        -13    1    4    4    0    0 -0.11819954146E+01 -0.10014473326E+02  0.16350557603E+02  0.19210376053E+02  0.10500000000E+00 0.  1.
         13    1    4    4    0    0 -0.14347808669E+01 -0.12427533497E+02  0.20562576724E+02  0.24069332593E+02  0.10500000000E+00 0. -1.
    3000001    1    5    5    0    0  0.46179391334E+01  0.15173068528E+02 -0.24693187498E+02  0.29364960058E+02  0.10000000000E+01 0.  1.
        -13    1    6    6    0    0 -0.13029782532E+01  0.48769721155E+01 -0.12866898934E+02  0.13822109916E+02  0.10500000000E+00 0. -1.
         13    1    6    6    0    0 -0.18569353299E+01  0.66722998760E+01 -0.18028047227E+02  0.19312931064E+02  0.10500000000E+00 0.  1.
</event>
<event>
11    0  0.3515428E-009  0.9118800E+02  0.7816531E-02  0.1126479E+00
         25   -1    0    0    0    0  0.00000000000E+00  0.00000000000E+00  0.99999998245E-14  0.12500000000E+03  0.12500000000E+03 0.  0.
    3000001    1    3    3    0    0 -0.22737712236E+02  0.13571522102E+02  0.27040230936E+02  0.37859792115E+02  0.10000000000E+01 0.  1.
    1000022    2    1    0    0    0 -0.33557480179E+02  0.16948079719E+02  0.48917360624E+02  0.62499999588E+02  0.99999947965E+01 0.  0.
    3000022    2    3    3    0    0 -0.10819767943E+02  0.33765576166E+01  0.21877129688E+02  0.24640207473E+02  0.25000249019E+00 0.  0.
    1000022    2    1    0    0    0  0.33557480179E+02 -0.16948079719E+02 -0.48917360624E+02  0.62500000412E+02  0.99999999476E+01 0.  0.
    3000022    2    5    5    0    0  0.17617460206E+02 -0.14129544696E+02 -0.30644701420E+02  0.38068085816E+02  0.24999034309E+00 0.  0.
        -13    1    4    4    0    0 -0.27169412850E+01  0.87510594734E+00  0.55309578709E+01  0.62249578581E+01  0.10500000000E+00 0. -1.
         13    1    4    4    0    0 -0.81028266580E+01  0.25014516693E+01  0.16346171817E+02  0.18415249615E+02  0.10500000000E+00 0.  1.
    3000001    1    5    5    0    0  0.15940019973E+02 -0.28185350225E+01 -0.18272659204E+02  0.24431914596E+02  0.10000000000E+01 0.  1.
        -13    1    6    6    0    0  0.49057543518E+01 -0.39560281043E+01 -0.86124029011E+01  0.10672445495E+02  0.10500000000E+00 0.  1.
         13    1    6    6    0    0  0.12711705854E+02 -0.10173516592E+02 -0.22032298519E+02  0.27395640321E+02  0.10500000000E+00 0.  1.
</event>
<event>
11    0  0.3515428E-009  0.9118800E+02  0.7816531E-02  0.1126479E+00
         25   -1    0    0    0    0  0.00000000000E+00  0.00000000000E+00  0.99999998245E-14  0.12500000000E+03  0.12500000000E+03 0.  0.
    3000001    1    3    3    0    0 -0.38033029922E+02  0.43080713324E+02 -0.21706543211E+02  0.61438043944E+02  0.10000000000E+01 0.  1.
    1000022    2    1    0    0    0 -0.37461139341E+02  0.43939559580E+02 -0.21730810690E+02  0.62500001638E+02  0.10000010736E+02 0.  0.
    3000022    2    3    3    0    0  0.57189058045E+00  0.85884625630E+00 -0.24267478399E-01  0.10619576940E+01  0.24997900980E+00 0.  0.
    1000022    2    1    0    0    0  0.37461139341E+02 -0.43939559580E+02  0.21730810690E+02  0.62499998362E+02  0.99999902570E+01 0.  0.
    3000022    2    5    5    0    0  0.68375315077E+01 -0.76153396476E+01 -0.20179509232E-01  0.10237584668E+02  0.24999511220E+00 0.  0.
        -13    1    4    4    0    0  0.33451133547E+00  0.49346990407E+00 -0.78865820784E-01  0.61045491026E+00  0.10500000000E+00 0. -1.
         13    1    4    4    0    0  0.23737924498E+00  0.36537635223E+00  0.54598342385E-01  0.45150278372E+00  0.10500000000E+00 0.  1.
    3000001    1    5    5    0    0  0.30623607834E+02 -0.36324219933E+02  0.21750990199E+02  0.52262413694E+02  0.10000000000E+01 0. -1.
        -13    1    6    6    0    0  0.36786864086E+01 -0.40435342975E+01 -0.67727429409E-01  0.54679534848E+01  0.10500000000E+00 0. -1.
         13    1    6    6    0    0  0.31588450991E+01 -0.35718053501E+01  0.47547920176E-01  0.47696311832E+01  0.10500000000E+00 0.  1.
</event>
<event>
11    0  0.3515428E-009  0.9118800E+02  0.7816531E-02  0.1126479E+00
         25   -1    0    0    0    0  0.00000000000E+00  0.00000000000E+00  0.99999998245E-14  0.12500000000E+03  0.12500000000E+03 0.  0.
    3000001    1    3    3    0    0  0.63485060692E+01 -0.18237370308E+02 -0.52305876507E-01  0.19336699330E+02  0.10000000000E+01 0. -1.
    1000022    2    1    0    0    0  0.86367176512E+01 -0.60517507138E+02  0.83239867336E+01  0.62500001590E+02  0.99999940849E+01 0.  0.
    3000022    2    3    3    0    0  0.22882115820E+01 -0.42280136830E+02  0.83762926101E+01  0.43163302261E+02  0.25000313648E+00 0.  0.
    1000022    2    1    0    0    0 -0.86367176512E+01  0.60517507138E+02 -0.83239867336E+01  0.62499998410E+02  0.99999742070E+01 0.  0.
    3000022    2    5    5    0    0 -0.49446942915E+01  0.13626401812E+02  0.10214954941E+01  0.14533918382E+02  0.25000503189E+00 0.  0.
        -13    1    4    4    0    0  0.13263007308E+01 -0.23388118975E+02  0.46624354397E+01  0.23885403744E+02  0.10500000000E+00 0. -1.
         13    1    4    4    0    0  0.96191085115E+00 -0.18892017855E+02  0.37138571704E+01  0.19277898516E+02  0.10500000000E+00 0.  1.
    3000001    1    5    5    0    0 -0.36920233597E+01  0.46891105326E+02 -0.93454822277E+01  0.47966080028E+02  0.10000000000E+01 0. -1.
        -13    1    6    6    0    0 -0.25724106751E+01  0.71221422725E+01  0.46680403107E+00  0.75875647104E+01  0.10500000000E+00 0.  1.
         13    1    6    6    0    0 -0.23722836164E+01  0.65042595396E+01  0.55469146305E+00  0.69463536719E+01  0.10500000000E+00 0. -1.
</event>
<event>
11    0  0.3515428E-009  0.9118800E+02  0.7816531E-02  0.1126479E+00
         25   -1    0    0    0    0  0.00000000000E+00  0.00000000000E+00  0.99999998245E-14  0.12500000000E+03  0.12500000000E+03 0.  0.
    3000001    1    3    3    0    0  0.35618976630E+00  0.27135000097E+00 -0.78647691638E+00  0.13487208431E+01  0.10000000000E+01 0. -1.
    1000022    2    1    0    0    0 -0.27909098604E+02  0.19193064997E+01 -0.54987712958E+02  0.62499998613E+02  0.99999863983E+01 0.  0.
    3000022    2    3    3    0    0 -0.28265288370E+02  0.16479564987E+01 -0.54201236042E+02  0.61151277770E+02  0.24999438359E+00 0.  0.
    1000022    2    1    0    0    0  0.27909098604E+02 -0.19193064997E+01  0.54987712958E+02  0.62500001387E+02  0.10000003731E+02 0.  0.
    3000022    2    5    5    0    0  0.10697133736E+02  0.37882116361E+01  0.17739255114E+02  0.21059983172E+02  0.25000325081E+00 0.  0.
        -13    1    4    4    0    0 -0.82793048682E+01  0.52646305497E+00 -0.15890090746E+02  0.17925681615E+02  0.10500000000E+00 0.  1.
         13    1    4    4    0    0 -0.19985983502E+02  0.11214934438E+01 -0.38311145296E+02  0.43225596155E+02  0.10500000000E+00 0. -1.
    3000001    1    5    5    0    0  0.17211964868E+02 -0.57075181358E+01  0.37248457844E+02  0.41440018215E+02  0.10000000000E+01 0. -1.
        -13    1    6    6    0    0  0.44202781045E+01  0.14992901061E+01  0.73245846708E+01  0.86860402338E+01  0.10500000000E+00 0.  1.
         13    1    6    6    0    0  0.62768556310E+01  0.22889215300E+01  0.10414670444E+02  0.12373942938E+02  0.10500000000E+00 0. -1.
</event>
<event>
11    0  0.3515428E-009  0.9118800E+02  0.7816531E-02  0.1126479E+00
         25   -1    0    0    0    0  0.00000000000E+00  0.00000000000E+00  0.99999998245E-14  0.12500000000E+03  0.12500000000E+03 0.  0.
    3000001    1    3    3    0    0 -0.74929453845E+01  0.47304640720E+01 -0.39396047332E+02  0.40392698180E+02  0.10000000000E+01 0. -1.
    1000022    2    1    0    0    0 -0.18169645668E+02  0.91125635656E+01 -0.58250107629E+02  0.62500000473E+02  0.10000009098E+02 0.  0.
    3000022    2    3    3    0    0 -0.10676700283E+02  0.43820994937E+01 -0.18854060297E+02  0.22107302293E+02  0.25000020556E+00 0.  0.
    1000022    2    1    0    0    0  0.18169645668E+02 -0.91125635656E+01  0.58250107629E+02  0.62499999527E+02  0.10000003184E+02 0.  0.
    3000022    2    5    5    0    0  0.76037109531E+01 -0.23219086866E+01  0.36565323612E+02  0.37420489405E+02  0.24991256458E+00 0.  0.
        -13    1    4    4    0    0 -0.42980003245E+01  0.18310693607E+01 -0.76059027671E+01  0.89267241301E+01  0.10500000000E+00 0. -1.
         13    1    4    4    0    0 -0.63786999586E+01  0.25510301329E+01 -0.11248157530E+02  0.13180578163E+02  0.10500000000E+00 0.  1.
    3000001    1    5    5    0    0  0.10565934714E+02 -0.67906548790E+01  0.21684784017E+02  0.25079510121E+02  0.10000000000E+01 0. -1.
        -13    1    6    6    0    0  0.22896248119E+01 -0.71041951587E+00  0.11244012323E+02  0.11497213392E+02  0.10500000000E+00 0. -1.
         13    1    6    6    0    0  0.53140861412E+01 -0.16114891708E+01  0.25321311289E+02  0.25923276013E+02  0.10500000000E+00 0.  1.
</event>
<event>
11    0  0.3515428E-009  0.9118800E+02  0.7816531E-02  0.1126479E+00
         25   -1    0    0    0    0  0.00000000000E+00  0.00000000000E+00  0.99999998245E-14  0.12500000000E+03  0.12500000000E+03 0.  0.
    3000001    1    3    3    0    0  0.23936716631E+02  0.21787223056E+02  0.18531307147E+02  0.37310304691E+02  0.10000000000E+01 0.  1.
    1000022    2    1    0    0    0  0.43904450912E+02  0.36189583057E+02  0.23852950412E+02  0.62499999642E+02  0.99999990107E+01 0.  0.
    3000022    2    3    3    0    0  0.19967734281E+02  0.14402360001E+02  0.53216432650E+01  0.25189694951E+02  0.24991756045E+00 0.  0.
    1000022    2    1    0    0    0 -0.43904450912E+02 -0.36189583057E+02 -0.23852950412E+02  0.62500000358E+02  0.10000003480E+02 0.  0.
    3000022    2    5    5    0    0 -0.39493830568E+02 -0.35643288356E+02 -0.21601885686E+02  0.57418730623E+02  0.25000676659E+00 0.  0.
        -13    1    4    4    0    0  0.14364174935E+02  0.10409136776E+02  0.38362876985E+01  0.18149594439E+02  0.10500000000E+00 0.  1.
         13    1    4    4    0    0  0.56035593457E+01  0.39932232249E+01  0.14853555665E+01  0.70401005124E+01  0.10500000000E+00 0. -1.
    3000001    1    5    5    0    0 -0.44106203438E+01 -0.54629470163E+00 -0.22510647261E+01  0.50812697350E+01  0.10000000000E+01 0.  1.
        -13    1    6    6    0    0 -0.21923725487E+02 -0.19697235712E+02 -0.11975335194E+02  0.31812741346E+02  0.10500000000E+00 0. -1.
         13    1    6    6    0    0 -0.17570105081E+02 -0.15946052643E+02 -0.96265504922E+01  0.25605989277E+02  0.10500000000E+00 0.  1.
</event>
<event>
11    0  0.3515428E-009  0.9118800E+02  0.7816531E-02  0.1126479E+00
         25   -1    0    0    0    0  0.00000000000E+00  0.00000000000E+00  0.99999998245E-14  0.12500000000E+03  0.12500000000E+03 0.  0.
    3000001    1    3    3    0    0 -0.56480635178E+02  0.14193804508E+02 -0.11047642673E+02  0.59283864965E+02  0.10000000000E+01 0.  1.
    1000022    2    1    0    0    0 -0.58099417299E+02  0.16420623805E+02 -0.12691368531E+02  0.62499999729E+02  0.99999977182E+01 0.  0.
    3000022    2    3    3    0    0 -0.16187821204E+01  0.22268192972E+01 -0.16437258575E+01  0.32161347641E+01  0.25001678107E+00 0.  0.
    1000022    2    1    0    0    0  0.58099417299E+02 -0.16420623805E+02  0.12691368531E+02  0.62500000271E+02  0.10000001103E+02 0.  0.
    3000022    2    5    5    0    0  0.32632960948E+02 -0.54063877177E+01  0.10241458059E+02  0.34627866212E+02  0.24997373070E+00 0.  0.
        -13    1    4    4    0    0 -0.73928739585E+00  0.11302107941E+01 -0.82033269063E+00  0.15836328539E+01  0.10500000000E+00 0.  1.
         13    1    4    4    0    0 -0.87949472453E+00  0.10966085031E+01 -0.82339316692E+00  0.16325019102E+01  0.10500000000E+00 0. -1.
    3000001    1    5    5    0    0  0.25466456351E+02 -0.11014236087E+02  0.24499104724E+01  0.27872134059E+02  0.10000000000E+01 0.  1.
        -13    1    6    6    0    0  0.23539632139E+02 -0.39002271815E+01  0.73464985394E+01  0.24966139451E+02  0.10500000000E+00 0. -1.
         13    1    6    6    0    0  0.90933288087E+01 -0.15061605362E+01  0.28949595192E+01  0.96617267608E+01  0.10500000000E+00 0.  1.
</event>
<event>
11    0  0.3515428E-009  0.9118800E+02  0.7816531E-02  0.1126479E+00
         25   -1    0    0    0    0  0.00000000000E+00  0.00000000000E+00  0.99999998245E-14  0.12500000000E+03  0.12500000000E+03 0.  0.
    3000001    1    3    3    0    0  0.26436313440E+02  0.61507552244E+01 -0.11825490184E+02  0.29623515595E+02  0.10000000000E+01 0. -1.
    1000022    2    1    0    0    0  0.55882994171E+02  0.19794228230E+02 -0.17074240456E+02  0.62500000234E+02  0.99999916683E+01 0.  0.
    3000022    2    3    3    0    0  0.29446680732E+02  0.13643473005E+02 -0.52487502714E+01  0.32876484639E+02  0.25000210531E+00 0.  0.
    1000022    2    1    0    0    0 -0.55882994171E+02 -0.19794228230E+02  0.17074240456E+02  0.62499999766E+02  0.99999887403E+01 0.  0.
    3000022    2    5    5    0    0 -0.49604374069E+02 -0.17598033053E+02  0.11770517110E+02  0.53934147505E+02  0.24999965564E+00 0.  0.
        -13    1    4    4    0    0  0.13800670974E+02  0.64016820602E+01 -0.23925232089E+01  0.15400494954E+02  0.10500000000E+00 0.  1.
         13    1    4    4    0    0  0.15646009758E+02  0.72417909452E+01 -0.28562270625E+01  0.17475989685E+02  0.10500000000E+00 0. -1.
    3000001    1    5    5    0    0 -0.62786201020E+01 -0.21961951765E+01  0.53037233452E+01  0.85658522612E+01  0.10000000000E+01 0.  1.
        -13    1    6    6    0    0 -0.21608705732E+02 -0.75993368892E+01  0.51024902579E+01  0.23467690905E+02  0.10500000000E+00 0. -1.
         13    1    6    6    0    0 -0.27995668337E+02 -0.99986961642E+01  0.66680268526E+01  0.30466456600E+02  0.10500000000E+00 0.  1.
</event>
<event>
11    0  0.3515428E-009  0.9118800E+02  0.7816531E-02  0.1126479E+00
         25   -1    0    0    0    0  0.00000000000E+00  0.00000000000E+00  0.99999998245E-14  0.12500000000E+03  0.12500000000E+03 0.  0.
    3000001    1    3    3    0    0 -0.15028099414E+01 -0.37099917021E+02  0.68649283943E+01  0.37772867545E+02  0.10000000000E+01 0. -1.
    1000022    2    1    0    0    0 -0.30937954346E+01 -0.61525190198E+02  0.33658926092E+01  0.62499997485E+02  0.99999926708E+01 0.  0.
    3000022    2    3    3    0    0 -0.15909854932E+01 -0.24425273177E+02 -0.34990357851E+01  0.24727129940E+02  0.24999805568E+00 0.  0.
    1000022    2    1    0    0    0  0.30937954346E+01  0.61525190198E+02 -0.33658926092E+01  0.62500002515E+02  0.10000024112E+02 0.  0.
    3000022    2    5    5    0    0 -0.12723078513E+01  0.27731965330E+02 -0.56628640034E+01  0.28333923102E+02  0.25000259028E+00 0.  0.
        -13    1    4    4    0    0 -0.66091138135E+00 -0.10883841753E+02 -0.15122567704E+01  0.11008758363E+02  0.10500000000E+00 0.  1.
         13    1    4    4    0    0 -0.93007411186E+00 -0.13541431424E+02 -0.19867790147E+01  0.13718371577E+02  0.10500000000E+00 0. -1.
    3000001    1    5    5    0    0  0.43661032859E+01  0.33793224868E+02  0.22969713942E+01  0.34166079413E+02  0.10000000000E+01 0. -1.
        -13    1    6    6    0    0 -0.72779942514E+00  0.16493811976E+02 -0.33099390161E+01  0.16838712742E+02  0.10500000000E+00 0.  1.
         13    1    6    6    0    0 -0.54450842616E+00  0.11238153354E+02 -0.23529249873E+01  0.11495210360E+02  0.10500000000E+00 0. -1.
</event>
<event>
11    0  0.3515428E-009  0.9118800E+02  0.7816531E-02  0.1126479E+00
         25   -1    0    0    0    0  0.00000000000E+00  0.00000000000E+00  0.99999998245E-14  0.12500000000E+03  0.12500000000E+03 0.  0.
    3000001    1    3    3    0    0  0.15501626599E+02  0.92970535243E+00 -0.13649939670E+02  0.20699894499E+02  0.10000000000E+01 0.  1.
    1000022    2    1    0    0    0  0.37326744716E+02 -0.39589814700E+01 -0.48962135970E+02  0.62499999153E+02  0.99999864950E+01 0.  0.
    3000022    2    3    3    0    0  0.21825118117E+02 -0.48886868224E+01 -0.35312196300E+02  0.41800104654E+02  0.25000371201E+00 0.  0.
    1000022    2    1    0    0    0 -0.37326744716E+02  0.39589814700E+01  0.48962135970E+02  0.62500000847E+02  0.99999970882E+01 0.  0.
    3000022    2    5    5    0    0 -0.14850359589E+01 -0.36299372199E+00  0.68483889705E+01  0.70213991836E+01  0.25003752375E+00 0.  0.
        -13    1    4    4    0    0  0.10826649759E+02 -0.24921682541E+01 -0.17507008730E+02  0.20734840904E+02  0.10500000000E+00 0.  1.
         13    1    4    4    0    0  0.10998468358E+02 -0.23965185683E+01 -0.17805187569E+02  0.21065263750E+02  0.10500000000E+00 0. -1.
    3000001    1    5    5    0    0 -0.35841708758E+02  0.43219751920E+01  0.42113747000E+02  0.55478601664E+02  0.10000000000E+01 0. -1.
        -13    1    6    6    0    0 -0.51568421542E+00 -0.69563647966E-01  0.23364867415E+01  0.23960310107E+01  0.10500000000E+00 0. -1.
         13    1    6    6    0    0 -0.96935174346E+00 -0.29343007402E+00  0.45119022289E+01  0.46253681728E+01  0.10500000000E+00 0.  1.
</event>
<event>
11    0  0.3515428E-009  0.9118800E+02  0.7816531E-02  0.1126479E+00
         25   -1    0    0    0    0  0.00000000000E+00  0.00000000000E+00  0.99999998245E-14  0.12500000000E+03  0.12500000000E+03 0.  0.
    3000001    1    3    3    0    0 -0.22506997973E+01 -0.99344254722E+00  0.22403987967E+02  0.22560834525E+02  0.10000000000E+01 0. -1.
    1000022    2    1    0    0    0  0.27339995095E+01  0.67798512619E+01  0.61260173835E+02  0.62500000792E+02  0.10000003218E+02 0.  0.
    3000022    2    3    3    0    0  0.49846993069E+01  0.77732938091E+01  0.38856185868E+02  0.39939166267E+02  0.24999616678E+00 0.  0.
    1000022    2    1    0    0    0 -0.27339995095E+01 -0.67798512619E+01 -0.61260173835E+02  0.62499999208E+02  0.99999933122E+01 0.  0.
    3000022    2    5    5    0    0 -0.24016400970E+01 -0.26437681218E+00 -0.43256491473E+02  0.43324638750E+02  0.24999608723E+00 0.  0.
        -13    1    4    4    0    0  0.23181670156E+01  0.35089540157E+01  0.17845476547E+02  0.18334631569E+02  0.10500000000E+00 0. -1.
         13    1    4    4    0    0  0.26665322912E+01  0.42643397934E+01  0.21010709321E+02  0.21604534698E+02  0.10500000000E+00 0.  1.
    3000001    1    5    5    0    0 -0.33235941251E+00 -0.65154744497E+01 -0.18003682362E+02  0.19175360457E+02  0.10000000000E+01 0. -1.
        -13    1    6    6    0    0 -0.12606718573E+01 -0.70836862962E-01 -0.22508443415E+02  0.22544075970E+02  0.10500000000E+00 0.  1.
         13    1    6    6    0    0 -0.11409682397E+01 -0.19353994921E+00 -0.20748048058E+02  0.20780562780E+02  0.10500000000E+00 0. -1.
</event>
<event>
11    0  0.3515428E-009  0.9118800E+02  0.7816531E-02  0.1126479E+00
         25   -1    0    0    0    0  0.00000000000E+00  0.00000000000E+00  0.99999998245E-14  0.12500000000E+03  0.12500000000E+03 0.  0.
    3000001    1    3    3    0    0 -0.65596889453E+01  0.32750145996E+02  0.14965192587E+02  0.36613639139E+02  0.10000000000E+01 0.  1.
    1000022    2    1    0    0    0 -0.12042492877E+02  0.57919901920E+02  0.17507522300E+02  0.62500000366E+02  0.10000001783E+02 0.  0.
    3000022    2    3    3    0    0 -0.54828039317E+01  0.25169755923E+02  0.25423297131E+01  0.25886361228E+02  0.25001008205E+00 0.  0.
    1000022    2    1    0    0    0  0.12042492877E+02 -0.57919901920E+02 -0.17507522300E+02  0.62499999634E+02  0.99999972031E+01 0.  0.
    3000022    2    5    5    0    0  0.12420189397E+02 -0.43917614744E+02 -0.10625515936E+02  0.46861306837E+02  0.25000012708E+00 0.  0.
        -13    1    4    4    0    0 -0.16123178545E+01  0.75954269821E+01  0.74539370787E+00  0.78010715087E+01  0.10500000000E+00 0.  1.
         13    1    4    4    0    0 -0.38704860772E+01  0.17574328941E+02  0.17969360052E+01  0.18085289719E+02  0.10500000000E+00 0. -1.
    3000001    1    5    5    0    0 -0.37769652021E+00 -0.14002287175E+02 -0.68820063637E+01  0.15638692797E+02  0.10000000000E+01 0. -1.
        -13    1    6    6    0    0  0.39285693286E+01 -0.13953942294E+02 -0.33264821197E+01  0.14873556092E+02  0.10500000000E+00 0.  1.
         13    1    6    6    0    0  0.84916200686E+01 -0.29963672450E+02 -0.72990338162E+01  0.31987750745E+02  0.10500000000E+00 0. -1.
</event>
<event>
11    0  0.3515428E-009  0.9118800E+02  0.7816531E-02  0.1126479E+00
         25   -1    0    0    0    0  0.00000000000E+00  0.00000000000E+00  0.99999998245E-14  0.12500000000E+03  0.12500000000E+03 0.  0.
    3000001    1    3    3    0    0 -0.42707315603E+01  0.71752546980E+01 -0.15450260278E+02  0.17590735365E+02  0.10000000000E+01 0. -1.
    1000022    2    1    0    0    0  0.34166965527E+00  0.27782395449E+02 -0.55084223706E+02  0.62500000031E+02  0.10000003378E+02 0.  0.
    3000022    2    3    3    0    0  0.46124012156E+01  0.20607140751E+02 -0.39633963428E+02  0.44909264666E+02  0.25000178671E+00 0.  0.
    1000022    2    1    0    0    0 -0.34166965527E+00 -0.27782395449E+02  0.55084223706E+02  0.62499999969E+02  0.10000002990E+02 0.  0.
    3000022    2    5    5    0    0  0.32443415965E+01 -0.23579159804E+02  0.46581891413E+02  0.52310970525E+02  0.25000044206E+00 0.  0.
        -13    1    4    4    0    0  0.33070542197E+01  0.14597008379E+02 -0.28049286923E+02  0.31792810242E+02  0.10500000000E+00 0. -1.
         13    1    4    4    0    0  0.13053469959E+01  0.60101323718E+01 -0.11584676505E+02  0.13116454423E+02  0.10500000000E+00 0.  1.
    3000001    1    5    5    0    0 -0.35860112518E+01 -0.42032356451E+01  0.85023322929E+01  0.10189029444E+02  0.10000000000E+01 0. -1.
        -13    1    6    6    0    0  0.11816170237E+01 -0.89752394357E+01  0.17650972554E+02  0.19837313296E+02  0.10500000000E+00 0.  1.
         13    1    6    6    0    0  0.20627245728E+01 -0.14603920368E+02  0.28930918859E+02  0.32473657229E+02  0.10500000000E+00 0. -1.
</event>
<event>
11    0  0.3515428E-009  0.9118800E+02  0.7816531E-02  0.1126479E+00
         25   -1    0    0    0    0  0.00000000000E+00  0.00000000000E+00  0.99999998245E-14  0.12500000000E+03  0.12500000000E+03 0.  0.
    3000001    1    3    3    0    0 -0.23486178325E+02 -0.12752854287E+01  0.19742990052E+02  0.30724787736E+02  0.10000000000E+01 0.  1.
    1000022    2    1    0    0    0 -0.43139014618E+02  0.55792394944E+01  0.43750965992E+02  0.62499996620E+02  0.10000002836E+02 0.  0.
    3000022    2    3    3    0    0 -0.19652836293E+02  0.68545249231E+01  0.24007975940E+02  0.31775208884E+02  0.25000919901E+00 0.  0.
    1000022    2    1    0    0    0  0.43139014618E+02 -0.55792394944E+01 -0.43750965992E+02  0.62500003380E+02  0.10000045088E+02 0.  0.
    3000022    2    5    5    0    0  0.12474608138E+02 -0.40270748455E+01 -0.18819600694E+02  0.22936282430E+02  0.25000277455E+00 0.  0.
        -13    1    4    4    0    0 -0.15081786932E+02  0.52684211147E+01  0.18413553451E+02  0.24377992817E+02  0.10500000000E+00 0.  1.
         13    1    4    4    0    0 -0.45710493615E+01  0.15861038085E+01  0.55944224890E+01  0.73972160670E+01  0.10500000000E+00 0. -1.
    3000001    1    5    5    0    0  0.30664406480E+02 -0.15521646488E+01 -0.24931365297E+02  0.39563720951E+02  0.10000000000E+01 0. -1.
        -13    1    6    6    0    0  0.32115793596E+01 -0.10068988247E+01 -0.48164899758E+01  0.58768773948E+01  0.10500000000E+00 0.  1.
         13    1    6    6    0    0  0.92630287785E+01 -0.30201760208E+01 -0.14003110719E+02  0.17059405035E+02  0.10500000000E+00 0. -1.
</event>
<event>
11    0  0.3515428E-009  0.9118800E+02  0.7816531E-02  0.1126479E+00
         25   -1    0    0    0    0  0.00000000000E+00  0.00000000000E+00  0.99999998245E-14  0.12500000000E+03  0.12500000000E+03 0.  0.
    3000001    1    3    3    0    0  0.33075008733E+01 -0.20535989526E+02 -0.43004012557E+02  0.47780869853E+02  0.10000000000E+01 0. -1.
    1000022    2    1    0    0    0  0.71192743734E+01 -0.22197009789E+02 -0.57121438068E+02  0.62500000309E+02  0.10000002024E+02 0.  0.
    3000022    2    3    3    0    0  0.38117735001E+01 -0.16610202633E+01 -0.14117425511E+02  0.14719130457E+02  0.24998562565E+00 0.  0.
    1000022    2    1    0    0    0 -0.71192743734E+01  0.22197009789E+02  0.57121438068E+02  0.62499999691E+02  0.99999981613E+01 0.  0.
    3000022    2    5    5    0    0  0.20598231790E-02 -0.40671639466E+00 -0.15844087491E+00  0.50301291055E+00  0.24999201744E+00 0.  0.
        -13    1    4    4    0    0  0.98395262363E+00 -0.45722259094E+00 -0.37617260327E+01  0.39164809470E+01  0.10500000000E+00 0. -1.
         13    1    4    4    0    0  0.28278208765E+01 -0.12037976723E+01 -0.10355699478E+02  0.10802649510E+02  0.10500000000E+00 0.  1.
    3000001    1    5    5    0    0 -0.71213341965E+01  0.22603726184E+02  0.57279878943E+02  0.61996986780E+02  0.10000000000E+01 0. -1.
        -13    1    6    6    0    0 -0.63304055935E-01 -0.21317003302E+00 -0.10373020753E+00  0.26689665122E+00  0.10500000000E+00 0.  1.
         13    1    6    6    0    0  0.65363879114E-01 -0.19354636164E+00 -0.54710667376E-01  0.23611625934E+00  0.10500000000E+00 0. -1.
</event>
<event>
11    0  0.3515428E-009  0.9118800E+02  0.7816531E-02  0.1126479E+00
         25   -1    0    0    0    0  0.00000000000E+00  0.00000000000E+00  0.99999998245E-14  0.12500000000E+03  0.12500000000E+03 0.  0.
    3000001    1    3    3    0    0  0.32053921244E+02  0.13126635140E+02 -0.11322196214E+02  0.36454828820E+02  0.10000000000E+01 0.  1.
    1000022    2    1    0    0    0  0.54191034137E+02  0.26813638019E+02 -0.12272356189E+02  0.62500002698E+02  0.10000012306E+02 0.  0.
    3000022    2    3    3    0    0  0.22137112893E+02  0.13687002879E+02 -0.95015997569E+00  0.26045173878E+02  0.24992654592E+00 0.  0.
    1000022    2    1    0    0    0 -0.54191034137E+02 -0.26813638019E+02  0.12272356189E+02  0.62499997302E+02  0.99999785832E+01 0.  0.
    3000022    2    5    5    0    0 -0.51168429566E+02 -0.26574737528E+02  0.98529756982E+01  0.58494174815E+02  0.24999653963E+00 0.  0.
        -13    1    4    4    0    0  0.10435389335E+02  0.64518692471E+01 -0.38048082498E+00  0.12275168350E+02  0.10500000000E+00 0. -1.
         13    1    4    4    0    0  0.11701723559E+02  0.72351336318E+01 -0.56967915071E+00  0.13770005528E+02  0.10500000000E+00 0.  1.
    3000001    1    5    5    0    0 -0.30226045706E+01 -0.23890049173E+00  0.24193804911E+01  0.40058224868E+01  0.10000000000E+01 0. -1.
        -13    1    6    6    0    0 -0.37923473239E+02 -0.19661503659E+02  0.73064863389E+01  0.43337747014E+02  0.10500000000E+00 0.  1.
         13    1    6    6    0    0 -0.13244956328E+02 -0.69132338685E+01  0.25464893593E+01  0.15156427801E+02  0.10500000000E+00 0. -1.
</event>
<event>
11    0  0.3515428E-009  0.9118800E+02  0.7816531E-02  0.1126479E+00
         25   -1    0    0    0    0  0.00000000000E+00  0.00000000000E+00  0.99999998245E-14  0.12500000000E+03  0.12500000000E+03 0.  0.
    3000001    1    3    3    0    0 -0.11576160730E+02 -0.29877715328E+02  0.49351746948E+02  0.58849641438E+02  0.10000000000E+01 0. -1.
    1000022    2    1    0    0    0 -0.99545615290E+01 -0.32102490091E+02  0.51735739793E+02  0.62499999895E+02  0.10000002481E+02 0.  0.
    3000022    2    3    3    0    0  0.16215992010E+01 -0.22247747630E+01  0.23839928449E+01  0.36503584572E+01  0.24997653349E+00 0.  0.
    1000022    2    1    0    0    0  0.99545615290E+01  0.32102490091E+02 -0.51735739793E+02  0.62500000105E+02  0.10000003793E+02 0.  0.
    3000022    2    5    5    0    0  0.37174729253E+01  0.59451465594E+01 -0.18182374032E+02  0.19489114869E+02  0.25000072718E+00 0.  0.
        -13    1    4    4    0    0  0.57114913374E+00 -0.72677106027E+00  0.74708605233E+00  0.11931345593E+01  0.10500000000E+00 0. -1.
         13    1    4    4    0    0  0.10504500672E+01 -0.14980037027E+01  0.16369067925E+01  0.24572238979E+01  0.10500000000E+00 0.  1.
    3000001    1    5    5    0    0  0.62370886037E+01  0.26157343532E+02 -0.33553365761E+02  0.43010885236E+02  0.10000000000E+01 0.  1.
        -13    1    6    6    0    0  0.23534908416E+01  0.36880758046E+01 -0.11216560424E+02  0.12040061256E+02  0.10500000000E+00 0. -1.
         13    1    6    6    0    0  0.13639820837E+01  0.22570707548E+01 -0.69658136076E+01  0.74490536133E+01  0.10500000000E+00 0.  1.
</event>
<event>
11    0  0.3515428E-009  0.9118800E+02  0.7816531E-02  0.1126479E+00
         25   -1    0    0    0    0  0.00000000000E+00  0.00000000000E+00  0.99999998245E-14  0.12500000000E+03  0.12500000000E+03 0.  0.
    3000001    1    3    3    0    0 -0.36548334147E+01  0.32193046830E+01 -0.12224575837E+02  0.13197044530E+02  0.10000000000E+01 0. -1.
    1000022    2    1    0    0    0 -0.15066754247E+02 -0.33870303017E+01 -0.59730821219E+02  0.62500000177E+02  0.99999980416E+01 0.  0.
    3000022    2    3    3    0    0 -0.11411920832E+02 -0.66063349847E+01 -0.47506245382E+02  0.49302955647E+02  0.24997246046E+00 0.  0.
    1000022    2    1    0    0    0  0.15066754247E+02  0.33870303017E+01  0.59730821219E+02  0.62499999823E+02  0.99999958315E+01 0.  0.
    3000022    2    5    5    0    0  0.11402366296E+02  0.65336487095E-01  0.52223992748E+02  0.53454898246E+02  0.25000389254E+00 0.  0.
        -13    1    4    4    0    0 -0.73904348048E+01 -0.42966389895E+01 -0.30592152315E+02  0.31764295073E+02  0.10500000000E+00 0. -1.
         13    1    4    4    0    0 -0.40214860276E+01 -0.23096959952E+01 -0.16914093066E+02  0.17538660574E+02  0.10500000000E+00 0.  1.
    3000001    1    5    5    0    0  0.36643879510E+01  0.33216938146E+01  0.75068284712E+01  0.90451015776E+01  0.10000000000E+01 0. -1.
        -13    1    6    6    0    0  0.53325718657E+01  0.80004771740E-02  0.24721338436E+02  0.25290155906E+02  0.10500000000E+00 0.  1.
         13    1    6    6    0    0  0.60697944304E+01  0.57336009921E-01  0.27502654312E+02  0.28164742339E+02  0.10500000000E+00 0. -1.
</event>
<event>
11    0  0.3515428E-009  0.9118800E+02  0.7816531E-02  0.1126479E+00
         25   -1    0    0    0    0  0.00000000000E+00  0.00000000000E+00  0.99999998245E-14  0.12500000000E+03  0.12500000000E+03 0.  0.
    3000001    1    3    3    0    0 -0.19004360676E+02 -0.11775078198E+02  0.46904019858E+02  0.51969272364E+02  0.10000000000E+01 0. -1.
    1000022    2    1    0    0    0 -0.23145604368E+02 -0.97049004276E+01  0.56359079944E+02  0.62499999626E+02  0.99999983655E+01 0.  0.
    3000022    2    3    3    0    0 -0.41412436922E+01  0.20701777705E+01  0.94550600861E+01  0.10530727262E+02  0.25004022706E+00 0.  0.
    1000022    2    1    0    0    0  0.23145604368E+02  0.97049004276E+01 -0.56359079944E+02  0.62500000374E+02  0.10000003035E+02 0.  0.
    3000022    2    5    5    0    0  0.15384925818E+02  0.10359383480E+02 -0.32993445230E+02  0.37850266801E+02  0.25000046479E+00 0.  0.
        -13    1    4    4    0    0 -0.18654488912E+01  0.96972693076E+00  0.41625536102E+01  0.46645629424E+01  0.10500000000E+00 0.  1.
         13    1    4    4    0    0 -0.22757948009E+01  0.11004508397E+01  0.52925064759E+01  0.58661643196E+01  0.10500000000E+00 0. -1.
    3000001    1    5    5    0    0  0.77606785501E+01 -0.65448305282E+00 -0.23365634713E+02  0.24649733572E+02  0.10000000000E+01 0. -1.
        -13    1    6    6    0    0  0.96969306875E+01  0.64983372758E+01 -0.20873448323E+02  0.23915909391E+02  0.10500000000E+00 0. -1.
         13    1    6    6    0    0  0.56879951305E+01  0.38610462046E+01 -0.12119996907E+02  0.13934357410E+02  0.10500000000E+00 0.  1.
</event>
<event>
11    0  0.3515428E-009  0.9118800E+02  0.7816531E-02  0.1126479E+00
         25   -1    0    0    0    0  0.00000000000E+00  0.00000000000E+00  0.99999998245E-14  0.12500000000E+03  0.12500000000E+03 0.  0.
    3000001    1    3    3    0    0  0.20349047160E+02  0.11374701391E+02  0.66110751865E+01  0.24252296122E+02  0.10000000000E+01 0. -1.
    1000022    2    1    0    0    0  0.55193662565E+02  0.27077921484E+02  0.51667900920E+01  0.62499999381E+02  0.99999991707E+01 0.  0.
    3000022    2    3    3    0    0  0.34844615405E+02  0.15703220093E+02 -0.14442850945E+01  0.38247703259E+02  0.25000217801E+00 0.  0.
    1000022    2    1    0    0    0 -0.55193662565E+02 -0.27077921484E+02 -0.51667900920E+01  0.62500000619E+02  0.10000006914E+02 0.  0.
    3000022    2    5    5    0    0 -0.20386062804E+02 -0.11284349091E+02 -0.66582239038E+01  0.24234738240E+02  0.25000197086E+00 0.  0.
        -13    1    4    4    0    0  0.23687760667E+02  0.10645142711E+02 -0.10242263069E+01  0.25990173783E+02  0.10500000000E+00 0. -1.
         13    1    4    4    0    0  0.11156854739E+02  0.50580773827E+01 -0.42005878758E+00  0.12257529476E+02  0.10500000000E+00 0.  1.
    3000001    1    5    5    0    0 -0.34807599762E+02 -0.15793572393E+02  0.14914338118E+01  0.38265262379E+02  0.10000000000E+01 0. -1.
        -13    1    6    6    0    0 -0.11428826341E+02 -0.62571830509E+01 -0.37512747531E+01  0.13559258776E+02  0.10500000000E+00 0.  1.
         13    1    6    6    0    0 -0.89572364623E+01 -0.50271660405E+01 -0.29069491507E+01  0.10675479465E+02  0.10500000000E+00 0. -1.
</event>
<event>
11    0  0.3515428E-009  0.9118800E+02  0.7816531E-02  0.1126479E+00
         25   -1    0    0    0    0  0.00000000000E+00  0.00000000000E+00  0.99999998245E-14  0.12500000000E+03  0.12500000000E+03 0.  0.
    3000001    1    3    3    0    0 -0.10584220761E+02  0.32146441165E+02 -0.38740370849E+02  0.51451294855E+02  0.10000000000E+01 0.  1.
    1000022    2    1    0    0    0 -0.10375967760E+02  0.35800102562E+02 -0.49162404082E+02  0.62500000405E+02  0.10000001255E+02 0.  0.
    3000022    2    3    3    0    0  0.20825300162E+00  0.36536613966E+01 -0.10422033233E+02  0.11048705550E+02  0.25001341368E+00 0.  0.
    1000022    2    1    0    0    0  0.10375967760E+02 -0.35800102562E+02  0.49162404082E+02  0.62499999595E+02  0.99999961913E+01 0.  0.
    3000022    2    5    5    0    0  0.10949569649E+02 -0.30495250486E+02  0.37008895714E+02  0.49189167903E+02  0.24999864618E+00 0.  0.
        -13    1    4    4    0    0  0.56578746305E-01  0.91595600214E+00 -0.25448302983E+01  0.27072795939E+01  0.10500000000E+00 0. -1.
         13    1    4    4    0    0  0.15167425532E+00  0.27377053945E+01 -0.78772029351E+01  0.83414259565E+01  0.10500000000E+00 0.  1.
    3000001    1    5    5    0    0 -0.57360188902E+00 -0.53048520759E+01  0.12153508368E+02  0.13310831692E+02  0.10000000000E+01 0. -1.
        -13    1    6    6    0    0  0.29959326939E+01 -0.84501325390E+01  0.10261945823E+02  0.13627138720E+02  0.10500000000E+00 0.  1.
         13    1    6    6    0    0  0.79536369549E+01 -0.22045117947E+02  0.26746949892E+02  0.35562029183E+02  0.10500000000E+00 0. -1.
</event>
<event>
11    0  0.3515428E-009  0.9118800E+02  0.7816531E-02  0.1126479E+00
         25   -1    0    0    0    0  0.00000000000E+00  0.00000000000E+00  0.99999998245E-14  0.12500000000E+03  0.12500000000E+03 0.  0.
    3000001    1    3    3    0    0  0.63658782982E+01  0.16374497481E+02  0.20925452218E+02  0.27340869130E+02  0.10000000000E+01 0. -1.
    1000022    2    1    0    0    0  0.13512191346E+02  0.45165509972E+02  0.39796324130E+02  0.62500000183E+02  0.10000000132E+02 0.  0.
    3000022    2    3    3    0    0  0.71463130473E+01  0.28791012491E+02  0.18870871912E+02  0.35159131053E+02  0.24999850030E+00 0.  0.
    1000022    2    1    0    0    0 -0.13512191346E+02 -0.45165509972E+02 -0.39796324130E+02  0.62499999817E+02  0.99999978456E+01 0.  0.
    3000022    2    5    5    0    0 -0.10509260063E+02 -0.21644819367E+02 -0.24036707297E+02  0.34011300206E+02  0.24998303537E+00 0.  0.
        -13    1    4    4    0    0  0.31812871983E+01  0.13083158501E+02  0.85430896519E+01  0.15946317143E+02  0.10500000000E+00 0.  1.
         13    1    4    4    0    0  0.39650258490E+01  0.15707853990E+02  0.10327782260E+02  0.19212813911E+02  0.10500000000E+00 0. -1.
    3000001    1    5    5    0    0 -0.30029312821E+01 -0.23520690605E+02 -0.15759616833E+02  0.28488699611E+02  0.10000000000E+01 0. -1.
        -13    1    6    6    0    0 -0.48016279723E+01 -0.97402552356E+01 -0.10828062582E+02  0.15335780630E+02  0.10500000000E+00 0.  1.
         13    1    6    6    0    0 -0.57076320911E+01 -0.11904564132E+02 -0.13208644714E+02  0.18675519576E+02  0.10500000000E+00 0. -1.
</event>
<event>
11    0  0.3515428E-009  0.9118800E+02  0.7816531E-02  0.1126479E+00
         25   -1    0    0    0    0  0.00000000000E+00  0.00000000000E+00  0.99999998245E-14  0.12500000000E+03  0.12500000000E+03 0.  0.
    3000001    1    3    3    0    0 -0.41436870516E+02  0.44569997417E+01 -0.37329569942E+02  0.55958697956E+02  0.10000000000E+01 0. -1.
    1000022    2    1    0    0    0 -0.47768929049E+02  0.38893660476E+01 -0.38849095512E+02  0.62499999870E+02  0.10000000547E+02 0.  0.
    3000022    2    3    3    0    0 -0.63320585333E+01 -0.56763369413E+00 -0.15195255700E+01  0.65413019146E+01  0.24999899914E+00 0.  0.
    1000022    2    1    0    0    0  0.47768929049E+02 -0.38893660476E+01  0.38849095512E+02  0.62500000130E+02  0.10000002167E+02 0.  0.
    3000022    2    5    5    0    0  0.33518645105E+02  0.17744856002E+00  0.22285059045E+02  0.40251924311E+02  0.24999290072E+00 0.  0.
        -13    1    4    4    0    0 -0.31329285896E+01 -0.26120403651E+00 -0.81816303394E+00  0.32502130463E+01  0.10500000000E+00 0. -1.
         13    1    4    4    0    0 -0.31991299437E+01 -0.30642965762E+00 -0.70136253606E+00  0.32910888682E+01  0.10500000000E+00 0.  1.
    3000001    1    5    5    0    0  0.14250283944E+02 -0.40668146076E+01  0.16564036467E+02  0.22248075818E+02  0.10000000000E+01 0.  1.
        -13    1    6    6    0    0  0.25269886133E+02  0.11874809795E+00  0.16778170768E+02  0.30333138406E+02  0.10500000000E+00 0.  1.
         13    1    6    6    0    0  0.82487589721E+01  0.58700462073E-01  0.55068882777E+01  0.99187859049E+01  0.10500000000E+00 0. -1.
</event>
<event>
11    0  0.3515428E-009  0.9118800E+02  0.7816531E-02  0.1126479E+00
         25   -1    0    0    0    0  0.00000000000E+00  0.00000000000E+00  0.99999998245E-14  0.12500000000E+03  0.12500000000E+03 0.  0.
    3000001    1    3    3    0    0 -0.94955992571E-01  0.33961910783E+00 -0.22632622918E+00  0.10842422889E+01  0.10000000000E+01 0. -1.
    1000022    2    1    0    0    0  0.30228780303E+02  0.52894105816E+02 -0.97305553720E+01  0.62500005139E+02  0.10000067289E+02 0.  0.
    3000022    2    3    3    0    0  0.30323736295E+02  0.52554486709E+02 -0.95042291428E+01  0.61415762850E+02  0.24999744515E+00 0.  0.
    1000022    2    1    0    0    0 -0.30228780303E+02 -0.52894105816E+02  0.97305553720E+01  0.62499994861E+02  0.10000003055E+02 0.  0.
    3000022    2    5    5    0    0 -0.10044780738E+02 -0.12884603045E+02 -0.11336030745E+01  0.16378588885E+02  0.25000448745E+00 0.  0.
        -13    1    4    4    0    0  0.98076472669E+01  0.16915932300E+02 -0.30316509558E+01  0.19787385957E+02  0.10500000000E+00 0. -1.
         13    1    4    4    0    0  0.20516089028E+02  0.35638554408E+02 -0.64725781870E+01  0.41628376893E+02  0.10500000000E+00 0.  1.
    3000001    1    5    5    0    0 -0.20183999565E+02 -0.40009502771E+02  0.10864158447E+02  0.46121405976E+02  0.10000000000E+01 0.  1.
        -13    1    6    6    0    0 -0.27134641969E+01 -0.34315274437E+01 -0.28567219967E+00  0.43853052517E+01  0.10500000000E+00 0.  1.
         13    1    6    6    0    0 -0.73313165408E+01 -0.94530756013E+01 -0.84793087486E+00  0.11993283634E+02  0.10500000000E+00 0. -1.
</event>
<event>
11    0  0.3515428E-009  0.9118800E+02  0.7816531E-02  0.1126479E+00
         25   -1    0    0    0    0  0.00000000000E+00  0.00000000000E+00  0.99999998245E-14  0.12500000000E+03  0.12500000000E+03 0.  0.
    3000001    1    3    3    0    0  0.85926745998E+01 -0.83566979657E+01  0.14000797849E+02  0.18457811302E+02  0.10000000000E+01 0.  1.
    1000022    2    1    0    0    0  0.40677921309E+02 -0.20326846778E+02  0.41693839157E+02  0.62500001783E+02  0.10000000859E+02 0.  0.
    3000022    2    3    3    0    0  0.32085246710E+02 -0.11970148813E+02  0.27693041309E+02  0.44042190481E+02  0.24997280343E+00 0.  0.
    1000022    2    1    0    0    0 -0.40677921309E+02  0.20326846778E+02 -0.41693839157E+02  0.62499998217E+02  0.99999785740E+01 0.  0.
    3000022    2    5    5    0    0 -0.22840422585E+02  0.80008824508E+01 -0.16741830877E+02  0.29428734641E+02  0.24999516190E+00 0.  0.
        -13    1    4    4    0    0  0.15567614489E+02 -0.57950707403E+01  0.13347259126E+02  0.21309477163E+02  0.10500000000E+00 0. -1.
         13    1    4    4    0    0  0.16517632221E+02 -0.61750780724E+01  0.14345782182E+02  0.22732713318E+02  0.10500000000E+00 0.  1.
    3000001    1    5    5    0    0 -0.17837498725E+02  0.12325964328E+02 -0.24952008280E+02  0.33071263577E+02  0.10000000000E+01 0. -1.
        -13    1    6    6    0    0 -0.61949478366E+01  0.21844298798E+01 -0.45857805302E+01  0.80118362857E+01  0.10500000000E+00 0. -1.
         13    1    6    6    0    0 -0.16645474748E+02  0.58164525709E+01 -0.12156050347E+02  0.21416898355E+02  0.10500000000E+00 0.  1.
</event>
<event>
11    0  0.3515428E-009  0.9118800E+02  0.7816531E-02  0.1126479E+00
         25   -1    0    0    0    0  0.00000000000E+00  0.00000000000E+00  0.99999998245E-14  0.12500000000E+03  0.12500000000E+03 0.  0.
    3000001    1    3    3    0    0 -0.25613834088E+02 -0.37746525809E+02  0.30916289147E+01  0.45732120842E+02  0.10000000000E+01 0. -1.
    1000022    2    1    0    0    0 -0.39143016202E+02 -0.47384418710E+02  0.53657291561E+01  0.62499999857E+02  0.10000003942E+02 0.  0.
    3000022    2    3    3    0    0 -0.13529182114E+02 -0.96378929012E+01  0.22741002414E+01  0.16767879015E+02  0.24997301835E+00 0.  0.
    1000022    2    1    0    0    0  0.39143016202E+02  0.47384418710E+02 -0.53657291561E+01  0.62500000143E+02  0.10000005734E+02 0.  0.
    3000022    2    5    5    0    0  0.35800672560E+02  0.46099771249E+02 -0.61765097311E+01  0.58694879218E+02  0.25001781620E+00 0.  0.
        -13    1    4    4    0    0 -0.37839504820E+01 -0.27431093926E+01  0.65064502852E+00  0.47198828739E+01  0.10500000000E+00 0. -1.
         13    1    4    4    0    0 -0.97452316318E+01 -0.68947835086E+01  0.16234552129E+01  0.12047996141E+02  0.10500000000E+00 0.  1.
    3000001    1    5    5    0    0  0.33423436421E+01  0.12846474605E+01  0.81078057507E+00  0.38051209258E+01  0.10000000000E+01 0.  1.
        -13    1    6    6    0    0  0.11122259094E+02  0.14248430817E+02 -0.18951163098E+01  0.18174843024E+02  0.10500000000E+00 0.  1.
         13    1    6    6    0    0  0.24678413466E+02  0.31851340432E+02 -0.42813934213E+01  0.40520036194E+02  0.10500000000E+00 0. -1.
</event>
<event>
11    0  0.3515428E-009  0.9118800E+02  0.7816531E-02  0.1126479E+00
         25   -1    0    0    0    0  0.00000000000E+00  0.00000000000E+00  0.99999998245E-14  0.12500000000E+03  0.12500000000E+03 0.  0.
    3000001    1    3    3    0    0 -0.23991131580E+02  0.34732446722E+02 -0.38842685580E+01  0.42402886600E+02  0.10000000000E+01 0.  1.
    1000022    2    1    0    0    0 -0.29516896506E+02  0.54052027742E+02 -0.36580291687E+01  0.62500000139E+02  0.99999978820E+01 0.  0.
    3000022    2    3    3    0    0 -0.55257649260E+01  0.19319581020E+02  0.22623938937E+00  0.20097113539E+02  0.24999908072E+00 0.  0.
    1000022    2    1    0    0    0  0.29516896506E+02 -0.54052027742E+02  0.36580291687E+01  0.62499999861E+02  0.99999961449E+01 0.  0.
    3000022    2    5    5    0    0  0.14017327646E+02 -0.35540943650E+02  0.14175555792E+01  0.38232396127E+02  0.24999983766E+00 0.  0.
        -13    1    4    4    0    0 -0.23827470859E+01  0.80998497940E+01  0.82004233507E-01  0.84440985342E+01  0.10500000000E+00 0.  1.
         13    1    4    4    0    0 -0.31430178402E+01  0.11219731226E+02  0.14423515586E+00  0.11653015005E+02  0.10500000000E+00 0. -1.
    3000001    1    5    5    0    0  0.15499568860E+02 -0.18511084092E+02  0.22404735895E+01  0.24267603734E+02  0.10000000000E+01 0. -1.
        -13    1    6    6    0    0  0.76840063972E+01 -0.19657281821E+02  0.76490840716E+00  0.21119867253E+02  0.10500000000E+00 0. -1.
         13    1    6    6    0    0  0.63333212490E+01 -0.15883661829E+02  0.65264717205E+00  0.17112528874E+02  0.10500000000E+00 0.  1.
</event>
<event>
11    0  0.3515428E-009  0.9118800E+02  0.7816531E-02  0.1126479E+00
         25   -1    0    0    0    0  0.00000000000E+00  0.00000000000E+00  0.99999998245E-14  0.12500000000E+03  0.12500000000E+03 0.  0.
    3000001    1    3    3    0    0 -0.80249432652E+00 -0.69551780383E+01  0.91472673478E+00  0.71312848553E+01  0.10000000000E+01 0.  1.
    1000022    2    1    0    0    0  0.91893395769E+00 -0.59209045261E+02 -0.17311687924E+02  0.62500000213E+02  0.10000000380E+02 0.  0.
    3000022    2    3    3    0    0  0.17214282842E+01 -0.52253867222E+02 -0.18226414659E+02  0.55368715358E+02  0.24998810196E+00 0.  0.
    1000022    2    1    0    0    0 -0.91893395769E+00  0.59209045261E+02  0.17311687924E+02  0.62499999787E+02  0.99999977133E+01 0.  0.
    3000022    2    5    5    0    0  0.40612511372E+01  0.39011431735E+02  0.10923963958E+02  0.40715857546E+02  0.25000061925E+00 0.  0.
        -13    1    4    4    0    0  0.11661485941E+01 -0.36717499009E+02 -0.12793881231E+02  0.38900244960E+02  0.10500000000E+00 0. -1.
         13    1    4    4    0    0  0.55527969010E+00 -0.15536368213E+02 -0.54325334281E+01  0.16468470398E+02  0.10500000000E+00 0.  1.
    3000001    1    5    5    0    0 -0.49801850949E+01  0.20197613525E+02  0.63877239666E+01  0.21784142241E+02  0.10000000000E+01 0. -1.
        -13    1    6    6    0    0  0.21506833029E+01  0.20039737349E+02  0.56360437034E+01  0.20928270959E+02  0.10500000000E+00 0.  1.
         13    1    6    6    0    0  0.19105678343E+01  0.18971694386E+02  0.52879202542E+01  0.19787586587E+02  0.10500000000E+00 0. -1.
</event>
<event>
11    0  0.3515428E-009  0.9118800E+02  0.7816531E-02  0.1126479E+00
         25   -1    0    0    0    0  0.00000000000E+00  0.00000000000E+00  0.99999998245E-14  0.12500000000E+03  0.12500000000E+03 0.  0.
    3000001    1    3    3    0    0 -0.49056472660E+00  0.12451820259E+02 -0.33384192553E+02  0.35648180794E+02  0.10000000000E+01 0. -1.
    1000022    2    1    0    0    0  0.68733862960E+01  0.24702891002E+02 -0.56113938628E+02  0.62500003175E+02  0.10000001277E+02 0.  0.
    3000022    2    3    3    0    0  0.73639510226E+01  0.12251070742E+02 -0.22729746075E+02  0.26851822381E+02  0.24999909707E+00 0.  0.
    1000022    2    1    0    0    0 -0.68733862960E+01 -0.24702891002E+02  0.56113938628E+02  0.62499996825E+02  0.99999615857E+01 0.  0.
    3000022    2    5    5    0    0 -0.47850857589E+01 -0.11405648473E+02  0.37638115621E+02  0.39619138148E+02  0.24999456532E+00 0.  0.
        -13    1    4    4    0    0  0.17540351084E+01  0.28874414784E+01 -0.53791532400E+01  0.63529734796E+01  0.10500000000E+00 0. -1.
         13    1    4    4    0    0  0.56099159142E+01  0.93636292640E+01 -0.17350592835E+02  0.20498848901E+02  0.10500000000E+00 0.  1.
    3000001    1    5    5    0    0 -0.20883005371E+01 -0.13297242528E+02  0.18475823007E+02  0.22880858677E+02  0.10000000000E+01 0. -1.
        -13    1    6    6    0    0 -0.19988572475E+01 -0.49316815288E+01  0.16226206851E+02  0.17076818403E+02  0.10500000000E+00 0.  1.
         13    1    6    6    0    0 -0.27862285114E+01 -0.64739669447E+01  0.21411908769E+02  0.22542319744E+02  0.10500000000E+00 0. -1.
</event>
<event>
11    0  0.3515428E-009  0.9118800E+02  0.7816531E-02  0.1126479E+00
         25   -1    0    0    0    0  0.00000000000E+00  0.00000000000E+00  0.99999998245E-14  0.12500000000E+03  0.12500000000E+03 0.  0.
    3000001    1    3    3    0    0 -0.28911299293E+02 -0.34405893528E+02 -0.20130875649E+02  0.49253232286E+02  0.10000000000E+01 0.  1.
    1000022    2    1    0    0    0 -0.34710534321E+02 -0.46228409380E+02 -0.21549084381E+02  0.62499998880E+02  0.99999897834E+01 0.  0.
    3000022    2    3    3    0    0 -0.57992350281E+01 -0.11822515852E+02 -0.14182087325E+01  0.13246766593E+02  0.25000239286E+00 0.  0.
    1000022    2    1    0    0    0  0.34710534321E+02  0.46228409380E+02  0.21549084381E+02  0.62500001120E+02  0.10000003786E+02 0.  0.
    3000022    2    5    5    0    0  0.33345829444E+02  0.40317019476E+02  0.20808361742E+02  0.56306809695E+02  0.24999788543E+00 0.  0.
        -13    1    4    4    0    0 -0.29682165759E+01 -0.59210297302E+01 -0.67678484880E+00  0.66586759524E+01  0.10500000000E+00 0. -1.
         13    1    4    4    0    0 -0.28310184522E+01 -0.59014861216E+01 -0.74142388374E+00  0.65880906411E+01  0.10500000000E+00 0.  1.
    3000001    1    5    5    0    0  0.13647048769E+01  0.59113899039E+01  0.74072263910E+00  0.61931914248E+01  0.10000000000E+01 0.  1.
        -13    1    6    6    0    0  0.15913344610E+02  0.19237259654E+02  0.10002025128E+02  0.26895319804E+02  0.10500000000E+00 0. -1.
         13    1    6    6    0    0  0.17432484834E+02  0.21079759822E+02  0.10806336614E+02  0.29411489891E+02  0.10500000000E+00 0.  1.
</event>
<event>
11    0  0.3515428E-009  0.9118800E+02  0.7816531E-02  0.1126479E+00
         25   -1    0    0    0    0  0.00000000000E+00  0.00000000000E+00  0.99999998245E-14  0.12500000000E+03  0.12500000000E+03 0.  0.
    3000001    1    3    3    0    0  0.50519462905E+01  0.37043613397E+02 -0.24747488525E+02  0.44846289068E+02  0.10000000000E+01 0. -1.
    1000022    2    1    0    0    0  0.10107822265E+02  0.47522338637E+02 -0.38022481587E+02  0.62499999866E+02  0.10000006836E+02 0.  0.
    3000022    2    3    3    0    0  0.50558759743E+01  0.10478725239E+02 -0.13274993062E+02  0.17653710798E+02  0.24999925700E+00 0.  0.
    1000022    2    1    0    0    0 -0.10107822265E+02 -0.47522338637E+02  0.38022481587E+02  0.62500000134E+02  0.10000008516E+02 0.  0.
    3000022    2    5    5    0    0  0.13430718894E+01 -0.12997433180E+02  0.79804840986E+01  0.15312992528E+02  0.25000471211E+00 0.  0.
        -13    1    4    4    0    0  0.22055834826E+01  0.44512817307E+01 -0.57279585149E+01  0.75828122285E+01  0.10500000000E+00 0. -1.
         13    1    4    4    0    0  0.28502924917E+01  0.60274435087E+01 -0.75470345469E+01  0.10070898569E+02  0.10500000000E+00 0.  1.
    3000001    1    5    5    0    0 -0.11450894154E+02 -0.34524905457E+02  0.30041997488E+02  0.47187007606E+02  0.10000000000E+01 0. -1.
        -13    1    6    6    0    0  0.90578058605E+00 -0.83184035433E+01  0.50684912399E+01  0.97835016445E+01  0.10500000000E+00 0. -1.
         13    1    6    6    0    0  0.43729130333E+00 -0.46790296363E+01  0.29119928587E+01  0.55294908834E+01  0.10500000000E+00 0.  1.
</event>
<event>
11    0  0.3515428E-009  0.9118800E+02  0.7816531E-02  0.1126479E+00
         25   -1    0    0    0    0  0.00000000000E+00  0.00000000000E+00  0.99999998245E-14  0.12500000000E+03  0.12500000000E+03 0.  0.
    3000001    1    3    3    0    0  0.21154706722E+01  0.35557322318E+02 -0.14552924787E+02  0.38491375741E+02  0.10000000000E+01 0. -1.
    1000022    2    1    0    0    0  0.92141822329E+01  0.54358237784E+02 -0.27686295941E+02  0.62500000531E+02  0.99999957111E+01 0.  0.
    3000022    2    3    3    0    0  0.70987115608E+01  0.18800915466E+02 -0.13133371154E+02  0.24008624790E+02  0.24999647692E+00 0.  0.
    1000022    2    1    0    0    0 -0.92141822329E+01 -0.54358237784E+02  0.27686295941E+02  0.62499999469E+02  0.99999890731E+01 0.  0.
    3000022    2    5    5    0    0 -0.14335633744E+01 -0.31551203081E+02  0.19033306589E+02  0.36876317327E+02  0.25000019207E+00 0.  0.
        -13    1    4    4    0    0  0.40119622611E+01  0.10809966281E+02 -0.75406546806E+01  0.13777652564E+02  0.10500000000E+00 0. -1.
         13    1    4    4    0    0  0.30867492996E+01  0.79909491854E+01 -0.55927164737E+01  0.10230972225E+02  0.10500000000E+00 0.  1.
    3000001    1    5    5    0    0 -0.77806188586E+01 -0.22807034703E+02  0.86529893517E+01  0.25623682142E+02  0.10000000000E+01 0. -1.
        -13    1    6    6    0    0 -0.42006990256E+00 -0.10074954692E+02  0.60374854247E+01  0.11753443156E+02  0.10500000000E+00 0.  1.
         13    1    6    6    0    0 -0.10134934718E+01 -0.21476248388E+02  0.12995821165E+02  0.25122874171E+02  0.10500000000E+00 0. -1.
</event>
<event>
11    0  0.3515428E-009  0.9118800E+02  0.7816531E-02  0.1126479E+00
         25   -1    0    0    0    0  0.00000000000E+00  0.00000000000E+00  0.99999998245E-14  0.12500000000E+03  0.12500000000E+03 0.  0.
    3000001    1    3    3    0    0  0.35834720123E+02 -0.25528895526E+02 -0.12702935094E+02  0.45806290322E+02  0.10000000000E+01 0. -1.
    1000022    2    1    0    0    0  0.51690744372E+02 -0.29793016203E+02 -0.15706470820E+02  0.62500000373E+02  0.99999976434E+01 0.  0.
    3000022    2    3    3    0    0  0.15856024249E+02 -0.42641206766E+01 -0.30035357252E+01  0.16693710051E+02  0.24999656943E+00 0.  0.
    1000022    2    1    0    0    0 -0.51690744372E+02  0.29793016203E+02  0.15706470820E+02  0.62499999627E+02  0.99999929757E+01 0.  0.
    3000022    2    5    5    0    0 -0.68958018358E+01  0.77288384583E+01  0.45982145091E+01  0.11335478964E+02  0.24995959405E+00 0.  0.
        -13    1    4    4    0    0  0.61450880946E+01 -0.17127073406E+01 -0.11453640276E+01  0.64821568849E+01  0.10500000000E+00 0. -1.
         13    1    4    4    0    0  0.97109361546E+01 -0.25514133360E+01 -0.18581716976E+01  0.10211553166E+02  0.10500000000E+00 0.  1.
    3000001    1    5    5    0    0 -0.44794942536E+02  0.22064177744E+02  0.11108256310E+02  0.51164520663E+02  0.10000000000E+01 0. -1.
        -13    1    6    6    0    0 -0.41984026436E+01  0.46498438110E+01  0.28358570678E+01  0.68775535283E+01  0.10500000000E+00 0.  1.
         13    1    6    6    0    0 -0.26973991922E+01  0.30789946472E+01  0.17623574413E+01  0.44579254357E+01  0.10500000000E+00 0. -1.
</event>
<event>
11    0  0.3515428E-009  0.9118800E+02  0.7816531E-02  0.1126479E+00
         25   -1    0    0    0    0  0.00000000000E+00  0.00000000000E+00  0.99999998245E-14  0.12500000000E+03  0.12500000000E+03 0.  0.
    3000001    1    3    3    0    0 -0.20019896511E+02 -0.17130779472E+02 -0.42213883383E+01  0.26703557462E+02  0.10000000000E+01 0. -1.
    1000022    2    1    0    0    0 -0.51606443659E+02 -0.30656805637E+02 -0.14254309303E+02  0.62500000349E+02  0.99999975514E+01 0.  0.
    3000022    2    3    3    0    0 -0.31586547148E+02 -0.13526026165E+02 -0.10032920965E+02  0.35796442888E+02  0.24995156492E+00 0.  0.
    1000022    2    1    0    0    0  0.51606443659E+02  0.30656805637E+02  0.14254309303E+02  0.62499999651E+02  0.99999931844E+01 0.  0.
    3000022    2    5    5    0    0  0.45483414670E+02  0.27580822996E+02  0.15625741678E+02  0.55440680989E+02  0.24999680984E+00 0.  0.
        -13    1    4    4    0    0 -0.12714901688E+02 -0.54064836295E+01 -0.39796355689E+01  0.14378710458E+02  0.10500000000E+00 0.  1.
         13    1    4    4    0    0 -0.18871645460E+02 -0.81195425357E+01 -0.60532853958E+01  0.21417732430E+02  0.10500000000E+00 0. -1.
    3000001    1    5    5    0    0  0.61230289888E+01  0.30759826411E+01 -0.13714323750E+01  0.70593186615E+01  0.10000000000E+01 0.  1.
        -13    1    6    6    0    0  0.27968128289E+02  0.16938374505E+02  0.95439342348E+01  0.34062038056E+02  0.10500000000E+00 0.  1.
         13    1    6    6    0    0  0.17515286381E+02  0.10642448490E+02  0.60818074432E+01  0.21378642933E+02  0.10500000000E+00 0. -1.
</event>
<event>
11    0  0.3515428E-009  0.9118800E+02  0.7816531E-02  0.1126479E+00
         25   -1    0    0    0    0  0.00000000000E+00  0.00000000000E+00  0.99999998245E-14  0.12500000000E+03  0.12500000000E+03 0.  0.
    3000001    1    3    3    0    0  0.15927560168E+02  0.14167242622E+02  0.47042594588E+02  0.51656593403E+02  0.10000000000E+01 0.  1.
    1000022    2    1    0    0    0  0.22322139813E+02  0.13964704846E+02  0.55793897571E+02  0.62500000384E+02  0.10000006733E+02 0.  0.
    3000022    2    3    3    0    0  0.63945796453E+01 -0.20253777562E+00  0.87513029827E+01  0.10843406982E+02  0.25000137129E+00 0.  0.
    1000022    2    1    0    0    0 -0.22322139813E+02 -0.13964704846E+02 -0.55793897571E+02  0.62499999616E+02  0.10000001927E+02 0.  0.
    3000022    2    5    5    0    0 -0.20340516351E+01 -0.52130686094E+00 -0.13733817450E+02  0.13895660189E+02  0.25000689590E+00 0.  0.
        -13    1    4    4    0    0  0.35719948272E+01 -0.11337354140E+00  0.47755243998E+01  0.59656230939E+01  0.10500000000E+00 0.  1.
         13    1    4    4    0    0  0.28225848181E+01 -0.89164234220E-01  0.39757785828E+01  0.48777838878E+01  0.10500000000E+00 0. -1.
    3000001    1    5    5    0    0 -0.20288088178E+02 -0.13443397985E+02 -0.42060080121E+02  0.48604339427E+02  0.10000000000E+01 0.  1.
        -13    1    6    6    0    0 -0.87821796441E+00 -0.21377199835E+00 -0.54997044722E+01  0.55744721312E+01  0.10500000000E+00 0.  1.
         13    1    6    6    0    0 -0.11558336707E+01 -0.30753486259E+00 -0.82341129774E+01  0.83211880576E+01  0.10500000000E+00 0. -1.
</event>
<event>
11    0  0.3515428E-009  0.9118800E+02  0.7816531E-02  0.1126479E+00
         25   -1    0    0    0    0  0.00000000000E+00  0.00000000000E+00  0.99999998245E-14  0.12500000000E+03  0.12500000000E+03 0.  0.
    3000001    1    3    3    0    0  0.24373568991E+01  0.28448362877E+01  0.30769031692E+01  0.49498621465E+01  0.10000000000E+01 0. -1.
    1000022    2    1    0    0    0  0.26905479580E+01  0.31223842843E+02  0.53142098229E+02  0.62500000071E+02  0.99999997272E+01 0.  0.
    3000022    2    3    3    0    0  0.25319105893E+00  0.28379006555E+02  0.50065195059E+02  0.57550137924E+02  0.25000002829E+00 0.  0.
    1000022    2    1    0    0    0 -0.26905479580E+01 -0.31223842843E+02 -0.53142098229E+02  0.62499999929E+02  0.99999988417E+01 0.  0.
    3000022    2    5    5    0    0 -0.55555477071E+01 -0.12369440962E+02 -0.18439921937E+02  0.22890181282E+02  0.24999614162E+00 0.  0.
        -13    1    4    4    0    0  0.20777785267E+00  0.15993138858E+02  0.28236640596E+02  0.32452158008E+02  0.10500000000E+00 0. -1.
         13    1    4    4    0    0  0.45413206262E-01  0.12385867697E+02  0.21828554463E+02  0.25097979917E+02  0.10500000000E+00 0.  1.
    3000001    1    5    5    0    0  0.28649997491E+01 -0.18854401881E+02 -0.34702176292E+02  0.39609818647E+02  0.10000000000E+01 0. -1.
        -13    1    6    6    0    0 -0.17820005748E+01 -0.39066520872E+01 -0.57672156667E+01  0.71909149713E+01  0.10500000000E+00 0. -1.
         13    1    6    6    0    0 -0.37735471322E+01 -0.84627888749E+01 -0.12672706270E+02  0.15699266311E+02  0.10500000000E+00 0.  1.
</event>
<event>
11    0  0.3515428E-009  0.9118800E+02  0.7816531E-02  0.1126479E+00
         25   -1    0    0    0    0  0.00000000000E+00  0.00000000000E+00  0.99999998245E-14  0.12500000000E+03  0.12500000000E+03 0.  0.
    3000001    1    3    3    0    0 -0.15277845590E+02  0.13263218210E+02  0.65368939449E+01  0.21285124045E+02  0.10000000000E+01 0.  1.
    1000022    2    1    0    0    0 -0.39223403275E+02  0.35886802771E+02  0.31303549219E+02  0.62500000322E+02  0.99999934494E+01 0.  0.
    3000022    2    3    3    0    0 -0.23945557685E+02  0.22623584561E+02  0.24766655274E+02  0.41214876277E+02  0.25000373086E+00 0.  0.
    1000022    2    1    0    0    0  0.39223403275E+02 -0.35886802771E+02 -0.31303549219E+02  0.62499999678E+02  0.99999894197E+01 0.  0.
    3000022    2    5    5    0    0  0.32141381335E+02 -0.30743048224E+02 -0.21771716376E+02  0.49520435627E+02  0.25000499316E+00 0.  0.
        -13    1    4    4    0    0 -0.12880006857E+02  0.12098700646E+02  0.13340044207E+02  0.22141385196E+02  0.10500000000E+00 0. -1.
         13    1    4    4    0    0 -0.11065550828E+02  0.10524883915E+02  0.11426611067E+02  0.19073491081E+02  0.10500000000E+00 0.  1.
    3000001    1    5    5    0    0  0.70820219399E+01 -0.51437545473E+01 -0.95318328432E+01  0.12979564051E+02  0.10000000000E+01 0.  1.
        -13    1    6    6    0    0  0.14119279965E+02 -0.13566311908E+02 -0.95300928068E+01  0.21776881765E+02  0.10500000000E+00 0.  1.
         13    1    6    6    0    0  0.18022101370E+02 -0.17176736316E+02 -0.12241623569E+02  0.27743553862E+02  0.10500000000E+00 0. -1.
</event>
<event>
11    0  0.3515428E-009  0.9118800E+02  0.7816531E-02  0.1126479E+00
         25   -1    0    0    0    0  0.00000000000E+00  0.00000000000E+00  0.99999998245E-14  0.12500000000E+03  0.12500000000E+03 0.  0.
    3000001    1    3    3    0    0  0.25544528564E+02  0.43064017137E+02  0.23415332913E+02  0.55283906582E+02  0.10000000000E+01 0.  1.
    1000022    2    1    0    0    0  0.25855707828E+02  0.48307695261E+02  0.28356638303E+02  0.62499999094E+02  0.99999951118E+01 0.  0.
    3000022    2    3    3    0    0  0.31117926441E+00  0.52436781238E+01  0.49413053899E+01  0.72160925124E+01  0.24999878235E+00 0.  0.
    1000022    2    1    0    0    0 -0.25855707828E+02 -0.48307695261E+02 -0.28356638303E+02  0.62500000906E+02  0.10000006437E+02 0.  0.
    3000022    2    5    5    0    0 -0.86506626203E+01 -0.19667098267E+02 -0.16285149817E+02  0.26961033405E+02  0.24999939828E+00 0.  0.
        -13    1    4    4    0    0  0.62050548738E-01  0.17328226943E+01  0.16788646323E+01  0.24158096395E+01  0.10500000000E+00 0.  1.
         13    1    4    4    0    0  0.24912871567E+00  0.35108554295E+01  0.32624407576E+01  0.48002828730E+01  0.10500000000E+00 0. -1.
    3000001    1    5    5    0    0 -0.17205045208E+02 -0.28640596994E+02 -0.12071488485E+02  0.35538967501E+02  0.10000000000E+01 0. -1.
        -13    1    6    6    0    0 -0.61007848374E+01 -0.13853208069E+02 -0.11417549145E+02  0.18960548593E+02  0.10500000000E+00 0. -1.
         13    1    6    6    0    0 -0.25498777828E+01 -0.58138901973E+01 -0.48676006720E+01  0.80004848125E+01  0.10500000000E+00 0.  1.
</event>
<event>
11    0  0.3515428E-009  0.9118800E+02  0.7816531E-02  0.1126479E+00
         25   -1    0    0    0    0  0.00000000000E+00  0.00000000000E+00  0.99999998245E-14  0.12500000000E+03  0.12500000000E+03 0.  0.
    3000001    1    3    3    0    0 -0.50838002421E+02 -0.71214990719E+01 -0.18565730027E+02  0.54597660853E+02  0.10000000000E+01 0.  1.
    1000022    2    1    0    0    0 -0.56450102449E+02 -0.63480922212E+01 -0.24069427486E+02  0.62500002975E+02  0.10000034553E+02 0.  0.
    3000022    2    3    3    0    0 -0.56121000283E+01  0.77340685073E+00 -0.55036974589E+01  0.79023421225E+01  0.25000083602E+00 0.  0.
    1000022    2    1    0    0    0  0.56450102449E+02  0.63480922212E+01  0.24069427486E+02  0.62499997025E+02  0.99999973632E+01 0.  0.
    3000022    2    5    5    0    0  0.18482805014E+02 -0.23759676293E+01  0.63239894117E+01  0.19680311514E+02  0.25003170789E+00 0.  0.
        -13    1    4    4    0    0 -0.29695791892E+01  0.45618393288E+00 -0.28501335062E+01  0.41425584299E+01  0.10500000000E+00 0. -1.
         13    1    4    4    0    0 -0.26425208391E+01  0.31722291785E+00 -0.26535639526E+01  0.37597836926E+01  0.10500000000E+00 0.  1.
    3000001    1    5    5    0    0  0.37967297435E+02  0.87240598505E+01  0.17745438074E+02  0.42819685510E+02  0.10000000000E+01 0.  1.
        -13    1    6    6    0    0  0.47195196064E+01 -0.57759472387E+00  0.16189556961E+01  0.50238952543E+01  0.10500000000E+00 0. -1.
         13    1    6    6    0    0  0.13763285408E+02 -0.17983729054E+01  0.47050337156E+01  0.14656416260E+02  0.10500000000E+00 0.  1.
</event>
<event>
11    0  0.3515428E-009  0.9118800E+02  0.7816531E-02  0.1126479E+00
         25   -1    0    0    0    0  0.00000000000E+00  0.00000000000E+00  0.99999998245E-14  0.12500000000E+03  0.12500000000E+03 0.  0.
    3000001    1    3    3    0    0 -0.37446644052E+01  0.26594858612E+02  0.30202692188E+02  0.40429093875E+02  0.10000000000E+01 0.  1.
    1000022    2    1    0    0    0 -0.88446448029E+01  0.35254590570E+02  0.49851142008E+02  0.62499998645E+02  0.99999786575E+01 0.  0.
    3000022    2    3    3    0    0 -0.50999803977E+01  0.86597319574E+01  0.19648449820E+02  0.22070904770E+02  0.24999882214E+00 0.  0.
    1000022    2    1    0    0    0  0.88446448029E+01 -0.35254590570E+02 -0.49851142008E+02  0.62500001355E+02  0.99999955967E+01 0.  0.
    3000022    2    5    5    0    0  0.78978453599E+01 -0.35263863545E+02 -0.46611062112E+02  0.58979400141E+02  0.24999265283E+00 0.  0.
        -13    1    4    4    0    0 -0.26299012272E+01  0.43792105574E+01  0.98729708505E+01  0.11116674142E+02  0.10500000000E+00 0.  1.
         13    1    4    4    0    0 -0.24700791705E+01  0.42805214001E+01  0.97754789695E+01  0.10954230628E+02  0.10500000000E+00 0. -1.
    3000001    1    5    5    0    0  0.94679944294E+00  0.92729756092E-02 -0.32400798968E+01  0.35206012144E+01  0.10000000000E+01 0.  1.
        -13    1    6    6    0    0  0.45336344940E+01 -0.19941970683E+02 -0.26382561594E+02  0.33380931948E+02  0.10500000000E+00 0.  1.
         13    1    6    6    0    0  0.33642108660E+01 -0.15321892862E+02 -0.20228500518E+02  0.25598468193E+02  0.10500000000E+00 0. -1.
</event>
<event>
11    0  0.3515428E-009  0.9118800E+02  0.7816531E-02  0.1126479E+00
         25   -1    0    0    0    0  0.00000000000E+00  0.00000000000E+00  0.99999998245E-14  0.12500000000E+03  0.12500000000E+03 0.  0.
    3000001    1    3    3    0    0  0.34732381402E+01 -0.40096935289E+01 -0.35015257063E+01  0.64344158745E+01  0.10000000000E+01 0.  1.
    1000022    2    1    0    0    0  0.75157923986E+01 -0.44071439615E+02 -0.42514362525E+02  0.62499999629E+02  0.10000000381E+02 0.  0.
    3000022    2    3    3    0    0  0.40425542584E+01 -0.40061746086E+02 -0.39012836818E+02  0.56065583754E+02  0.25000142325E+00 0.  0.
    1000022    2    1    0    0    0 -0.75157923986E+01  0.44071439615E+02  0.42514362525E+02  0.62500000371E+02  0.10000005019E+02 0.  0.
    3000022    2    5    5    0    0  0.15827128519E+01  0.19591904936E+02  0.17332903748E+02  0.26207628142E+02  0.25000298384E+00 0.  0.
        -13    1    4    4    0    0  0.10074093512E+01 -0.98584387455E+01 -0.96302657285E+01  0.13818709459E+02  0.10500000000E+00 0.  1.
         13    1    4    4    0    0  0.30351449073E+01 -0.30203307341E+02 -0.29382571090E+02  0.42246874296E+02  0.10500000000E+00 0. -1.
    3000001    1    5    5    0    0 -0.90985052506E+01  0.24479534679E+02  0.25181458777E+02  0.36292372229E+02  0.10000000000E+01 0. -1.
        -13    1    6    6    0    0  0.39642525250E+00  0.48520888575E+01  0.42609415226E+01  0.64704379235E+01  0.10500000000E+00 0. -1.
         13    1    6    6    0    0  0.11862875994E+01  0.14739816078E+02  0.13071962225E+02  0.19737190218E+02  0.10500000000E+00 0.  1.
</event>
<event>
11    0  0.3515428E-009  0.9118800E+02  0.7816531E-02  0.1126479E+00
         25   -1    0    0    0    0  0.00000000000E+00  0.00000000000E+00  0.99999998245E-14  0.12500000000E+03  0.12500000000E+03 0.  0.
    3000001    1    3    3    0    0  0.22985103841E+02  0.84477121527E+01 -0.20231575454E+01  0.24592112672E+02  0.10000000000E+01 0. -1.
    1000022    2    1    0    0    0  0.55090827546E+02  0.27297707334E+02  0.51074409771E+01  0.62499997705E+02  0.99999827209E+01 0.  0.
    3000022    2    3    3    0    0  0.32105723705E+02  0.18849995181E+02  0.71305985225E+01  0.37907885033E+02  0.24999895332E+00 0.  0.
    1000022    2    1    0    0    0 -0.55090827546E+02 -0.27297707334E+02 -0.51074409771E+01  0.62500002295E+02  0.10000011408E+02 0.  0.
    3000022    2    5    5    0    0 -0.11334006838E+02 -0.19133037862E+01 -0.28898756297E+01  0.11854717243E+02  0.24999474442E+00 0.  0.
        -13    1    4    4    0    0  0.19800073719E+02  0.11560690496E+02  0.44177960333E+01  0.23349955692E+02  0.10500000000E+00 0. -1.
         13    1    4    4    0    0  0.12305649985E+02  0.72893046850E+01  0.27128024893E+01  0.14557929341E+02  0.10500000000E+00 0.  1.
    3000001    1    5    5    0    0 -0.43756820707E+02 -0.25384403548E+02 -0.22175653474E+01  0.50645285052E+02  0.10000000000E+01 0.  1.
        -13    1    6    6    0    0 -0.53773684623E+01 -0.90831960433E+00 -0.13015317567E+01  0.56076863319E+01  0.10500000000E+00 0. -1.
         13    1    6    6    0    0 -0.59566383761E+01 -0.10049841819E+01 -0.15883438730E+01  0.62470309114E+01  0.10500000000E+00 0.  1.
</event>
<event>
11    0  0.3515428E-009  0.9118800E+02  0.7816531E-02  0.1126479E+00
         25   -1    0    0    0    0  0.00000000000E+00  0.00000000000E+00  0.99999998245E-14  0.12500000000E+03  0.12500000000E+03 0.  0.
    3000001    1    3    3    0    0 -0.17266229555E+02  0.18946532266E+02  0.14723215513E+02  0.29578148066E+02  0.10000000000E+01 0. -1.
    1000022    2    1    0    0    0 -0.38520764860E+02  0.43189856820E+02  0.21378423225E+02  0.62500000391E+02  0.10000000587E+02 0.  0.
    3000022    2    3    3    0    0 -0.21254535305E+02  0.24243324554E+02  0.66552077127E+01  0.32921852325E+02  0.25002875643E+00 0.  0.
    1000022    2    1    0    0    0  0.38520764860E+02 -0.43189856820E+02 -0.21378423225E+02  0.62499999609E+02  0.99999957004E+01 0.  0.
    3000022    2    5    5    0    0  0.33231596581E+02 -0.41129684393E+02 -0.20276002504E+02  0.56631870183E+02  0.24998660479E+00 0.  0.
        -13    1    4    4    0    0 -0.95728591494E+01  0.10817966870E+02  0.29819448775E+01  0.14750290158E+02  0.10500000000E+00 0. -1.
         13    1    4    4    0    0 -0.11681676156E+02  0.13425357683E+02  0.36732628351E+01  0.18171562167E+02  0.10500000000E+00 0.  1.
    3000001    1    5    5    0    0  0.52891682789E+01 -0.20601724266E+01 -0.11024207214E+01  0.58681294258E+01  0.10000000000E+01 0. -1.
        -13    1    6    6    0    0  0.16295993524E+02 -0.20126197452E+02 -0.99967052771E+01  0.27759113282E+02  0.10500000000E+00 0.  1.
         13    1    6    6    0    0  0.16935603057E+02 -0.21003486942E+02 -0.10279297227E+02  0.28872756902E+02  0.10500000000E+00 0. -1.
</event>
<event>
11    0  0.3515428E-009  0.9118800E+02  0.7816531E-02  0.1126479E+00
         25   -1    0    0    0    0  0.00000000000E+00  0.00000000000E+00  0.99999998245E-14  0.12500000000E+03  0.12500000000E+03 0.  0.
    3000001    1    3    3    0    0  0.55692352856E+01  0.67248454708E-01  0.45570561381E+02  0.45920550613E+02  0.10000000000E+01 0. -1.
    1000022    2    1    0    0    0  0.13176848028E+02 -0.95979604998E+00  0.60263585003E+02  0.62499997413E+02  0.99999733386E+01 0.  0.
    3000022    2    3    3    0    0  0.76076127421E+01 -0.10270445047E+01  0.14693023622E+02  0.16579446800E+02  0.25004195419E+00 0.  0.
    1000022    2    1    0    0    0 -0.13176848028E+02  0.95979604998E+00 -0.60263585003E+02  0.62500002587E+02  0.10000005678E+02 0.  0.
    3000022    2    5    5    0    0 -0.10318128011E+02  0.40170686688E+01 -0.30944504667E+02  0.32866783597E+02  0.24997708734E+00 0.  0.
        -13    1    4    4    0    0  0.38737729249E+01 -0.49546573570E+00  0.73403939684E+01  0.83152878231E+01  0.10500000000E+00 0.  1.
         13    1    4    4    0    0  0.37338398172E+01 -0.53157876900E+00  0.73526296536E+01  0.82641589766E+01  0.10500000000E+00 0. -1.
    3000001    1    5    5    0    0 -0.28587200169E+01 -0.30572726188E+01 -0.29319080336E+02  0.29633218991E+02  0.10000000000E+01 0. -1.
        -13    1    6    6    0    0 -0.74228701544E+01  0.29277246948E+01 -0.22348900188E+02  0.23730885736E+02  0.10500000000E+00 0.  1.
         13    1    6    6    0    0 -0.28952578565E+01  0.10893439740E+01 -0.85956044798E+01  0.91358978607E+01  0.10500000000E+00 0. -1.
</event>
<event>
11    0  0.3515428E-009  0.9118800E+02  0.7816531E-02  0.1126479E+00
         25   -1    0    0    0    0  0.00000000000E+00  0.00000000000E+00  0.99999998245E-14  0.12500000000E+03  0.12500000000E+03 0.  0.
    3000001    1    3    3    0    0 -0.32073500112E+02  0.51289874198E+02 -0.43415241191E+01  0.60656487175E+02  0.10000000000E+01 0.  1.
    1000022    2    1    0    0    0 -0.31464120663E+02  0.52930779094E+02 -0.38198485741E+01  0.62500004814E+02  0.10000054702E+02 0.  0.
    3000022    2    3    3    0    0  0.60937944968E+00  0.16409048956E+01  0.52167554505E+00  0.18435176389E+01  0.24999944106E+00 0.  0.
    1000022    2    1    0    0    0  0.31464120663E+02 -0.52930779094E+02  0.38198485741E+01  0.62499995186E+02  0.99999945266E+01 0.  0.
    3000022    2    5    5    0    0  0.97262950682E+01 -0.22738734092E+02 -0.20728230078E+01  0.24819546391E+02  0.24988796856E+00 0.  0.
        -13    1    4    4    0    0  0.39526111984E+00  0.11088916782E+01  0.40153762491E+00  0.12482506042E+01  0.10500000000E+00 0.  1.
         13    1    4    4    0    0  0.21411832984E+00  0.53201321745E+00  0.12013792014E+00  0.59526703467E+00  0.10500000000E+00 0. -1.
    3000001    1    5    5    0    0  0.21737825594E+02 -0.30192045002E+02  0.58926715819E+01  0.37680448795E+02  0.10000000000E+01 0.  1.
        -13    1    6    6    0    0  0.30377473348E+01 -0.72204822389E+01 -0.67428792449E+00  0.78631394391E+01  0.10500000000E+00 0. -1.
         13    1    6    6    0    0  0.66885477334E+01 -0.15518251853E+02 -0.13985350833E+01  0.16956406952E+02  0.10500000000E+00 0.  1.
</event>
<event>
11    0  0.3515428E-009  0.9118800E+02  0.7816531E-02  0.1126479E+00
         25   -1    0    0    0    0  0.00000000000E+00  0.00000000000E+00  0.99999998245E-14  0.12500000000E+03  0.12500000000E+03 0.  0.
    3000001    1    3    3    0    0 -0.27207478688E+02  0.98634179774E+01  0.14161350068E+02  0.32234728889E+02  0.10000000000E+01 0. -1.
    1000022    2    1    0    0    0 -0.56126505130E+02  0.11357557940E+02  0.22958030503E+02  0.62499999952E+02  0.10000006449E+02 0.  0.
    3000022    2    3    3    0    0 -0.28919026442E+02  0.14941399630E+01  0.87966804345E+01  0.30265271064E+02  0.25000262197E+00 0.  0.
    1000022    2    1    0    0    0  0.56126505130E+02 -0.11357557940E+02 -0.22958030503E+02  0.62500000048E+02  0.10000007047E+02 0.  0.
    3000022    2    5    5    0    0  0.60298424425E+01 -0.23875080680E+01  0.38113367179E+00  0.65013037103E+01  0.24998480340E+00 0.  0.
        -13    1    4    4    0    0 -0.11778188026E+02  0.62137437369E+00  0.35177295176E+01  0.12308422533E+02  0.10500000000E+00 0. -1.
         13    1    4    4    0    0 -0.17140838416E+02  0.87276558933E+00  0.52789509170E+01  0.17956848531E+02  0.10500000000E+00 0.  1.
    3000001    1    5    5    0    0  0.50096662687E+02 -0.89700498724E+01 -0.23339164175E+02  0.55998696338E+02  0.10000000000E+01 0. -1.
        -13    1    6    6    0    0  0.21009644519E+01 -0.88555513176E+00  0.10696912836E+00  0.22848910070E+01  0.10500000000E+00 0.  1.
         13    1    6    6    0    0  0.39288779906E+01 -0.15019529362E+01  0.27416454342E+00  0.42164127033E+01  0.10500000000E+00 0. -1.
</event>
<event>
11    0  0.3515428E-009  0.9118800E+02  0.7816531E-02  0.1126479E+00
         25   -1    0    0    0    0  0.00000000000E+00  0.00000000000E+00  0.99999998245E-14  0.12500000000E+03  0.12500000000E+03 0.  0.
    3000001    1    3    3    0    0  0.71923008609E+01  0.27817438762E+01  0.36533935321E+02  0.37352318813E+02  0.10000000000E+01 0.  1.
    1000022    2    1    0    0    0  0.14632779671E+02 -0.29437444273E+01  0.59862059380E+02  0.62499998885E+02  0.99999917640E+01 0.  0.
    3000022    2    3    3    0    0  0.74404788103E+01 -0.57254883036E+01  0.23328124059E+02  0.25147680072E+02  0.24999932797E+00 0.  0.
    1000022    2    1    0    0    0 -0.14632779671E+02  0.29437444273E+01 -0.59862059380E+02  0.62500001115E+02  0.10000005704E+02 0.  0.
    3000022    2    5    5    0    0 -0.10060197202E+02 -0.16571812754E+01 -0.46596630056E+02  0.47699709128E+02  0.25000164859E+00 0.  0.
        -13    1    4    4    0    0  0.25285785256E+01 -0.20157313750E+01  0.80272027383E+01  0.86547034114E+01  0.10500000000E+00 0.  1.
         13    1    4    4    0    0  0.49119002847E+01 -0.37097569286E+01  0.15300921321E+02  0.16492976661E+02  0.10500000000E+00 0. -1.
    3000001    1    5    5    0    0 -0.45725824695E+01  0.46009257027E+01 -0.13265429323E+02  0.14800291987E+02  0.10000000000E+01 0.  1.
        -13    1    6    6    0    0 -0.49156650124E+01 -0.75003911699E+00 -0.22567715760E+02  0.23109286896E+02  0.10500000000E+00 0.  1.
         13    1    6    6    0    0 -0.51445321893E+01 -0.90714215840E+00 -0.24028914296E+02  0.24590422233E+02  0.10500000000E+00 0. -1.
</event>
<event>
11    0  0.3515428E-009  0.9118800E+02  0.7816531E-02  0.1126479E+00
         25   -1    0    0    0    0  0.00000000000E+00  0.00000000000E+00  0.99999998245E-14  0.12500000000E+03  0.12500000000E+03 0.  0.
    3000001    1    3    3    0    0 -0.35416186303E+01 -0.55307844084E+02  0.24409861154E+02  0.60566839122E+02  0.10000000000E+01 0. -1.
    1000022    2    1    0    0    0 -0.44998575065E+01 -0.55764568145E+02  0.26006040959E+02  0.62499999979E+02  0.10000002654E+02 0.  0.
    3000022    2    3    3    0    0 -0.95823887617E+00 -0.45672406172E+00  0.15961798048E+01  0.19331608573E+01  0.25000463707E+00 0.  0.
    1000022    2    1    0    0    0  0.44998575065E+01  0.55764568145E+02 -0.26006040959E+02  0.62500000021E+02  0.10000002911E+02 0.  0.
    3000022    2    5    5    0    0  0.54769743667E+01  0.32338863010E+02 -0.19452207459E+02  0.38134632139E+02  0.24996876532E+00 0.  0.
        -13    1    4    4    0    0 -0.21907687020E+00 -0.12765497681E+00  0.41939008315E+00  0.50120206505E+00  0.10500000000E+00 0. -1.
         13    1    4    4    0    0 -0.73916200597E+00 -0.32906908491E+00  0.11767897217E+01  0.14319587923E+01  0.10500000000E+00 0.  1.
    3000001    1    5    5    0    0 -0.97711686015E+00  0.23425705135E+02 -0.65538334996E+01  0.24365367881E+02  0.10000000000E+01 0.  1.
        -13    1    6    6    0    0  0.35326569571E+01  0.20619916674E+02 -0.12456576622E+02  0.24348263900E+02  0.10500000000E+00 0.  1.
         13    1    6    6    0    0  0.19443174096E+01  0.11718946336E+02 -0.69956308371E+01  0.13786368239E+02  0.10500000000E+00 0. -1.
</event>
<event>
11    0  0.3515428E-009  0.9118800E+02  0.7816531E-02  0.1126479E+00
         25   -1    0    0    0    0  0.00000000000E+00  0.00000000000E+00  0.99999998245E-14  0.12500000000E+03  0.12500000000E+03 0.  0.
    3000001    1    3    3    0    0 -0.58715176958E+01 -0.76765202302E+01  0.15854603371E+01  0.98446618722E+01  0.10000000000E+01 0. -1.
    1000022    2    1    0    0    0 -0.42258407781E+02 -0.43552544564E+02 -0.11119979775E+02  0.62500009114E+02  0.10000001141E+02 0.  0.
    3000022    2    3    3    0    0 -0.36386890086E+02 -0.35876024334E+02 -0.12705440112E+02  0.52655347242E+02  0.24998519452E+00 0.  0.
    1000022    2    1    0    0    0  0.42258407781E+02  0.43552544564E+02  0.11119979775E+02  0.62499990886E+02  0.99998872170E+01 0.  0.
    3000022    2    5    5    0    0  0.10226895758E+02  0.74945595351E+01 -0.11186018055E+01  0.12730734051E+02  0.25000000376E+00 0.  0.
        -13    1    4    4    0    0 -0.12012233563E+02 -0.11885888982E+02 -0.41569124114E+01  0.17402846258E+02  0.10500000000E+00 0.  1.
         13    1    4    4    0    0 -0.24374656522E+02 -0.23990135351E+02 -0.85485277004E+01  0.35252500984E+02  0.10500000000E+00 0. -1.
    3000001    1    5    5    0    0  0.32031512024E+02  0.36057985029E+02  0.12238581580E+02  0.49769256836E+02  0.10000000000E+01 0. -1.
        -13    1    6    6    0    0  0.53623242539E+01  0.39501023810E+01 -0.52183844359E+00  0.66814048362E+01  0.10500000000E+00 0. -1.
         13    1    6    6    0    0  0.48645715038E+01  0.35444571541E+01 -0.59676336191E+00  0.60493292143E+01  0.10500000000E+00 0.  1.
</event>
<event>
11    0  0.3515428E-009  0.9118800E+02  0.7816531E-02  0.1126479E+00
         25   -1    0    0    0    0  0.00000000000E+00  0.00000000000E+00  0.99999998245E-14  0.12500000000E+03  0.12500000000E+03 0.  0.
    3000001    1    3    3    0    0  0.24562132160E+02  0.17194607339E+02  0.10878941140E+02  0.31910879307E+02  0.10000000000E+01 0.  1.
    1000022    2    1    0    0    0  0.42721662064E+02  0.33455040481E+02  0.29357619707E+02  0.62499999483E+02  0.99999978700E+01 0.  0.
    3000022    2    3    3    0    0  0.18159529904E+02  0.16260433143E+02  0.18478678567E+02  0.30589120177E+02  0.24999855772E+00 0.  0.
    1000022    2    1    0    0    0 -0.42721662064E+02 -0.33455040481E+02 -0.29357619707E+02  0.62500000517E+02  0.10000004328E+02 0.  0.
    3000022    2    5    5    0    0 -0.22583185410E+02 -0.16511111112E+02 -0.96077099265E+01  0.29580190056E+02  0.25000056346E+00 0.  0.
        -13    1    4    4    0    0  0.63599387056E+01  0.56471883972E+01  0.65028143014E+01  0.10706875173E+02  0.10500000000E+00 0. -1.
         13    1    4    4    0    0  0.11799591198E+02  0.10613244745E+02  0.11975864266E+02  0.19882245004E+02  0.10500000000E+00 0.  1.
    3000001    1    5    5    0    0 -0.20138476654E+02 -0.16943929369E+02 -0.19749909781E+02  0.32919810460E+02  0.10000000000E+01 0.  1.
        -13    1    6    6    0    0 -0.13729435936E+02 -0.99634484735E+01 -0.58434732537E+01  0.17942266336E+02  0.10500000000E+00 0.  1.
         13    1    6    6    0    0 -0.88537494746E+01 -0.65476626389E+01 -0.37642366728E+01  0.11637923720E+02  0.10500000000E+00 0. -1.
</event>
<event>
11    0  0.3515428E-009  0.9118800E+02  0.7816531E-02  0.1126479E+00
         25   -1    0    0    0    0  0.00000000000E+00  0.00000000000E+00  0.99999998245E-14  0.12500000000E+03  0.12500000000E+03 0.  0.
    3000001    1    3    3    0    0 -0.12364655534E+02 -0.35376484917E+02 -0.25624906152E+02  0.45409428612E+02  0.10000000000E+01 0.  1.
    1000022    2    1    0    0    0 -0.15402348273E+02 -0.44731849788E+02 -0.39598980416E+02  0.62500001348E+02  0.10000010032E+02 0.  0.
    3000022    2    3    3    0    0 -0.30376927385E+01 -0.93553648711E+01 -0.13974074264E+02  0.17090572735E+02  0.24999168359E+00 0.  0.
    1000022    2    1    0    0    0  0.15402348273E+02  0.44731849788E+02  0.39598980416E+02  0.62499998652E+02  0.99999931884E+01 0.  0.
    3000022    2    5    5    0    0  0.11008374074E+01  0.56854071239E+01  0.96049188699E+01  0.11218407162E+02  0.24999117813E+00 0.  0.
        -13    1    4    4    0    0 -0.19155421684E+01 -0.58658983063E+01 -0.86630459565E+01  0.10636609186E+02  0.10500000000E+00 0.  1.
         13    1    4    4    0    0 -0.11221505700E+01 -0.34894665647E+01 -0.53110283074E+01  0.64539635488E+01  0.10500000000E+00 0. -1.
    3000001    1    5    5    0    0  0.14301510866E+02  0.39046442665E+02  0.29994061546E+02  0.51281591491E+02  0.10000000000E+01 0.  1.
        -13    1    6    6    0    0  0.74099894337E+00  0.37465913985E+01  0.62295250035E+01  0.73078063268E+01  0.10500000000E+00 0.  1.
         13    1    6    6    0    0  0.35983846402E+00  0.19388157253E+01  0.33753938664E+01  0.39106008349E+01  0.10500000000E+00 0. -1.
</event>
<event>
11    0  0.3515428E-009  0.9118800E+02  0.7816531E-02  0.1126479E+00
         25   -1    0    0    0    0  0.00000000000E+00  0.00000000000E+00  0.99999998245E-14  0.12500000000E+03  0.12500000000E+03 0.  0.
    3000001    1    3    3    0    0  0.52840895746E+02 -0.27784118405E+02 -0.15655624580E+02  0.61726947761E+02  0.10000000000E+01 0.  1.
    1000022    2    1    0    0    0  0.52628751129E+02 -0.27731223255E+02 -0.16353698864E+02  0.62499999290E+02  0.10000012803E+02 0.  0.
    3000022    2    3    3    0    0 -0.21214461718E+00  0.52895150609E-01 -0.69807428313E+00  0.77305152901E+00  0.24999545234E+00 0.  0.
    1000022    2    1    0    0    0 -0.52628751129E+02  0.27731223255E+02  0.16353698864E+02  0.62500000710E+02  0.10000021684E+02 0.  0.
    3000022    2    5    5    0    0 -0.26500490675E+02  0.85351005935E+01  0.87316952641E+01  0.29179255544E+02  0.25000752033E+00 0.  0.
        -13    1    4    4    0    0 -0.68506284631E-01  0.20890240779E-01 -0.43977993875E+00  0.45777822985E+00  0.10500000000E+00 0. -1.
         13    1    4    4    0    0 -0.14363833255E+00  0.32004909830E-01 -0.25829434437E+00  0.31527329917E+00  0.10500000000E+00 0.  1.
    3000001    1    5    5    0    0 -0.26128260454E+02  0.19196122661E+02  0.76220035995E+01  0.33320745166E+02  0.10000000000E+01 0. -1.
        -13    1    6    6    0    0 -0.16127264901E+02  0.52487298926E+01  0.53546396901E+01  0.17785416214E+02  0.10500000000E+00 0. -1.
         13    1    6    6    0    0 -0.10373225774E+02  0.32863707009E+01  0.33770555740E+01  0.11393839331E+02  0.10500000000E+00 0.  1.
</event>
<event>
11    0  0.3515428E-009  0.9118800E+02  0.7816531E-02  0.1126479E+00
         25   -1    0    0    0    0  0.00000000000E+00  0.00000000000E+00  0.99999998245E-14  0.12500000000E+03  0.12500000000E+03 0.  0.
    3000001    1    3    3    0    0  0.45279365113E+02 -0.10005209095E+02  0.62258794928E+01  0.46798362039E+02  0.10000000000E+01 0. -1.
    1000022    2    1    0    0    0  0.58659853755E+02 -0.13256688011E+02  0.13767055062E+02  0.62499999641E+02  0.99999965269E+01 0.  0.
    3000022    2    3    3    0    0  0.13380488641E+02 -0.32514789160E+01  0.75411755689E+01  0.15701637602E+02  0.25000599700E+00 0.  0.
    1000022    2    1    0    0    0 -0.58659853755E+02  0.13256688011E+02 -0.13767055062E+02  0.62500000359E+02  0.10000001014E+02 0.  0.
    3000022    2    5    5    0    0 -0.24345884810E+02  0.94709046106E+01 -0.90248306881E+01  0.27639287333E+02  0.24998799559E+00 0.  0.
        -13    1    4    4    0    0  0.78147266029E+01 -0.19164504903E+01  0.44772993760E+01  0.92086898668E+01  0.10500000000E+00 0. -1.
         13    1    4    4    0    0  0.55657620384E+01 -0.13350284257E+01  0.30638761928E+01  0.64929477351E+01  0.10500000000E+00 0.  1.
    3000001    1    5    5    0    0 -0.34313968944E+02  0.37857834002E+01 -0.47422243736E+01  0.34860713026E+02  0.10000000000E+01 0.  1.
        -13    1    6    6    0    0 -0.75581392154E+01  0.29900974376E+01 -0.28234583572E+01  0.86051782771E+01  0.10500000000E+00 0. -1.
         13    1    6    6    0    0 -0.16787745595E+02  0.64808071730E+01 -0.62013723309E+01  0.19034109056E+02  0.10500000000E+00 0.  1.
</event>
<event>
11    0  0.3515428E-009  0.9118800E+02  0.7816531E-02  0.1126479E+00
         25   -1    0    0    0    0  0.00000000000E+00  0.00000000000E+00  0.99999998245E-14  0.12500000000E+03  0.12500000000E+03 0.  0.
    3000001    1    3    3    0    0 -0.35866851900E+01 -0.16933841479E+02  0.44268074556E+02  0.47542420245E+02  0.10000000000E+01 0. -1.
    1000022    2    1    0    0    0 -0.97337473485E+01 -0.23569133772E+02  0.56178286174E+02  0.62499997466E+02  0.99999970835E+01 0.  0.
    3000022    2    3    3    0    0 -0.61470621585E+01 -0.66352922926E+01  0.11910211618E+02  0.14957577221E+02  0.24999710115E+00 0.  0.
    1000022    2    1    0    0    0  0.97337473485E+01  0.23569133772E+02 -0.56178286174E+02  0.62500002534E+02  0.10000028758E+02 0.  0.
    3000022    2    5    5    0    0 -0.19290679186E+00  0.94213933794E+01 -0.26687674442E+02  0.28303610898E+02  0.25011296468E+00 0.  0.
        -13    1    4    4    0    0 -0.28141603572E+01 -0.31314461430E+01  0.55790546265E+01  0.69901594394E+01  0.10500000000E+00 0.  1.
         13    1    4    4    0    0 -0.33329018013E+01 -0.35038461496E+01  0.63311569912E+01  0.79674177815E+01  0.10500000000E+00 0. -1.
    3000001    1    5    5    0    0  0.99266541403E+01  0.14147740392E+02 -0.29490611732E+02  0.34196391636E+02  0.10000000000E+01 0. -1.
        -13    1    6    6    0    0 -0.17484004212E+00  0.67895633383E+01 -0.19281260010E+02  0.20442767717E+02  0.10500000000E+00 0. -1.
         13    1    6    6    0    0 -0.18066749743E-01  0.26318300411E+01 -0.74064144323E+01  0.78608431810E+01  0.10500000000E+00 0.  1.
</event>
<event>
11    0  0.3515428E-009  0.9118800E+02  0.7816531E-02  0.1126479E+00
         25   -1    0    0    0    0  0.00000000000E+00  0.00000000000E+00  0.99999998245E-14  0.12500000000E+03  0.12500000000E+03 0.  0.
    3000001    1    3    3    0    0 -0.14264267413E+02  0.34049145164E+02 -0.22631291886E+02  0.43312688484E+02  0.10000000000E+01 0. -1.
    1000022    2    1    0    0    0 -0.23679803195E+02  0.44264452891E+02 -0.35863283122E+02  0.62499999631E+02  0.10000000429E+02 0.  0.
    3000022    2    3    3    0    0 -0.94155357819E+01  0.10215307726E+02 -0.13231991235E+02  0.19187311148E+02  0.24998202386E+00 0.  0.
    1000022    2    1    0    0    0  0.23679803195E+02 -0.44264452891E+02  0.35863283122E+02  0.62500000369E+02  0.10000005038E+02 0.  0.
    3000022    2    5    5    0    0  0.44817784845E+01 -0.18456126943E+02  0.12679654934E+02  0.22837493426E+02  0.24999326851E+00 0.  0.
        -13    1    4    4    0    0 -0.54519371719E+01  0.60079293595E+01 -0.77457199528E+01  0.11217220543E+02  0.10500000000E+00 0. -1.
         13    1    4    4    0    0 -0.39635986100E+01  0.42073783669E+01 -0.54862712826E+01  0.79700906049E+01  0.10500000000E+00 0.  1.
    3000001    1    5    5    0    0  0.19198024711E+02 -0.25808325948E+02  0.23183628187E+02  0.39662506942E+02  0.10000000000E+01 0. -1.
        -13    1    6    6    0    0  0.31951746084E+01 -0.13181115424E+02  0.90046404554E+01  0.16280218651E+02  0.10500000000E+00 0. -1.
         13    1    6    6    0    0  0.12866038761E+01 -0.52750115187E+01  0.36750144790E+01  0.65572747751E+01  0.10500000000E+00 0.  1.
</event>
<event>
11    0  0.3515428E-009  0.9118800E+02  0.7816531E-02  0.1126479E+00
         25   -1    0    0    0    0  0.00000000000E+00  0.00000000000E+00  0.99999998245E-14  0.12500000000E+03  0.12500000000E+03 0.  0.
    3000001    1    3    3    0    0 -0.14064694205E+02 -0.27671231218E+01 -0.13349662119E+01  0.14431033512E+02  0.10000000000E+01 0. -1.
    1000022    2    1    0    0    0 -0.54057387903E+02 -0.27534502802E+02 -0.11220527750E+02  0.62499999354E+02  0.99999822403E+01 0.  0.
    3000022    2    3    3    0    0 -0.39992693699E+02 -0.24767379681E+02 -0.98855615382E+01  0.48068965842E+02  0.25000939843E+00 0.  0.
    1000022    2    1    0    0    0  0.54057387903E+02  0.27534502802E+02  0.11220527750E+02  0.62500000646E+02  0.99999903098E+01 0.  0.
    3000022    2    5    5    0    0  0.36903312113E+02  0.19592291325E+02  0.30858677009E+01  0.41896269588E+02  0.25000332090E+00 0.  0.
        -13    1    4    4    0    0 -0.24073530369E+02 -0.14905234861E+02 -0.60143550942E+01  0.28946232619E+02  0.10500000000E+00 0.  1.
         13    1    4    4    0    0 -0.15919163330E+02 -0.98621448200E+01 -0.38712064441E+01  0.19122733223E+02  0.10500000000E+00 0. -1.
    3000001    1    5    5    0    0  0.17154075791E+02  0.79422114776E+01  0.81346600491E+01  0.20603731058E+02  0.10000000000E+01 0. -1.
        -13    1    6    6    0    0  0.10213508467E+02  0.54313488602E+01  0.81651587812E+00  0.11597112952E+02  0.10500000000E+00 0. -1.
         13    1    6    6    0    0  0.26689803646E+02  0.14160942465E+02  0.22693518228E+01  0.30299156636E+02  0.10500000000E+00 0.  1.
</event>
<event>
11    0  0.3515428E-009  0.9118800E+02  0.7816531E-02  0.1126479E+00
         25   -1    0    0    0    0  0.00000000000E+00  0.00000000000E+00  0.99999998245E-14  0.12500000000E+03  0.12500000000E+03 0.  0.
    3000001    1    3    3    0    0 -0.82878601112E+01 -0.23937603592E+02  0.54077572673E+02  0.59725047987E+02  0.10000000000E+01 0.  1.
    1000022    2    1    0    0    0 -0.66531933702E+01 -0.25177199534E+02  0.55929361624E+02  0.62499999213E+02  0.10000002574E+02 0.  0.
    3000022    2    3    3    0    0  0.16346667411E+01 -0.12395959420E+01  0.18517889518E+01  0.27749512253E+01  0.24999705373E+00 0.  0.
    1000022    2    1    0    0    0  0.66531933702E+01  0.25177199534E+02 -0.55929361624E+02  0.62500000787E+02  0.10000012415E+02 0.  0.
    3000022    2    5    5    0    0  0.33620176902E+01  0.12699845072E+01 -0.53552659634E+01  0.64542523347E+01  0.24995212042E+00 0.  0.
        -13    1    4    4    0    0  0.96927937825E+00 -0.79910243392E+00  0.10829989787E+01  0.16619202751E+01  0.10500000000E+00 0. -1.
         13    1    4    4    0    0  0.66538736283E+00 -0.44049350808E+00  0.76878997313E+00  0.11130309502E+01  0.10500000000E+00 0.  1.
    3000001    1    5    5    0    0  0.32911756799E+01  0.23907215027E+02 -0.50574095661E+02  0.56045748453E+02  0.10000000000E+01 0.  1.
        -13    1    6    6    0    0  0.13022960430E+01  0.55433427286E+00 -0.21492981848E+01  0.25756104435E+01  0.10500000000E+00 0. -1.
         13    1    6    6    0    0  0.20597216473E+01  0.71565023438E+00 -0.32059677786E+01  0.38786418911E+01  0.10500000000E+00 0.  1.
</event>
<event>
11    0  0.3515428E-009  0.9118800E+02  0.7816531E-02  0.1126479E+00
         25   -1    0    0    0    0  0.00000000000E+00  0.00000000000E+00  0.99999998245E-14  0.12500000000E+03  0.12500000000E+03 0.  0.
    3000001    1    3    3    0    0 -0.14655028687E+02 -0.17164366567E+02  0.29422043511E+02  0.37095039962E+02  0.10000000000E+01 0.  1.
    1000022    2    1    0    0    0 -0.20217935980E+02 -0.23248064308E+02  0.53451029026E+02  0.62499999360E+02  0.99999993319E+01 0.  0.
    3000022    2    3    3    0    0 -0.55629072932E+01 -0.60836977405E+01  0.24028985516E+02  0.25404959397E+02  0.25000263132E+00 0.  0.
    1000022    2    1    0    0    0  0.20217935980E+02  0.23248064308E+02 -0.53451029026E+02  0.62500000640E+02  0.10000007338E+02 0.  0.
    3000022    2    5    5    0    0  0.16949419026E+02  0.17399432806E+02 -0.33142809906E+02  0.41091743884E+02  0.24999931313E+00 0.  0.
        -13    1    4    4    0    0 -0.34708945209E+01 -0.38814314384E+01  0.15132152132E+02  0.16003301907E+02  0.10500000000E+00 0.  1.
         13    1    4    4    0    0 -0.20920127723E+01 -0.22022663021E+01  0.88968333832E+01  0.94016574897E+01  0.10500000000E+00 0. -1.
    3000001    1    5    5    0    0  0.32685169535E+01  0.58486315017E+01 -0.20308219120E+02  0.21408256757E+02  0.10000000000E+01 0.  1.
        -13    1    6    6    0    0  0.95959258128E+01  0.99209135232E+01 -0.18758303886E+02  0.23289295975E+02  0.10500000000E+00 0.  1.
         13    1    6    6    0    0  0.73534932137E+01  0.74785192829E+01 -0.14384506020E+02  0.17802447909E+02  0.10500000000E+00 0. -1.
</event>
<event>
11    0  0.3515428E-009  0.9118800E+02  0.7816531E-02  0.1126479E+00
         25   -1    0    0    0    0  0.00000000000E+00  0.00000000000E+00  0.99999998245E-14  0.12500000000E+03  0.12500000000E+03 0.  0.
    3000001    1    3    3    0    0 -0.23419040234E+02  0.18213148308E+02 -0.38734351332E+01  0.29936160684E+02  0.10000000000E+01 0. -1.
    1000022    2    1    0    0    0 -0.41856528173E+02  0.43263929411E+02 -0.13509752378E+02  0.62500001078E+02  0.10000009332E+02 0.  0.
    3000022    2    3    3    0    0 -0.18437487939E+02  0.25050781103E+02 -0.96363172446E+01  0.32563840393E+02  0.24999156480E+00 0.  0.
    1000022    2    1    0    0    0  0.41856528173E+02 -0.43263929411E+02  0.13509752378E+02  0.62499998922E+02  0.99999958628E+01 0.  0.
    3000022    2    5    5    0    0  0.27857778309E+02 -0.25168088153E+02  0.12526506880E+02  0.39578584475E+02  0.25000163099E+00 0.  0.
        -13    1    4    4    0    0 -0.84014686636E+01  0.11499116410E+02 -0.44588511728E+01  0.14923361977E+02  0.10500000000E+00 0.  1.
         13    1    4    4    0    0 -0.10036019275E+02  0.13551664693E+02 -0.51774660718E+01  0.17640478417E+02  0.10500000000E+00 0. -1.
    3000001    1    5    5    0    0  0.13998749863E+02 -0.18095841258E+02  0.98324549779E+00  0.22921414447E+02  0.10000000000E+01 0. -1.
        -13    1    6    6    0    0  0.18617208318E+02 -0.16806948545E+02  0.84236882671E+01  0.26458335435E+02  0.10500000000E+00 0.  1.
         13    1    6    6    0    0  0.92405699909E+01 -0.83611396086E+01  0.41028186130E+01  0.13120249040E+02  0.10500000000E+00 0. -1.
</event>
<event>
11    0  0.3515428E-009  0.9118800E+02  0.7816531E-02  0.1126479E+00
         25   -1    0    0    0    0  0.00000000000E+00  0.00000000000E+00  0.99999998245E-14  0.12500000000E+03  0.12500000000E+03 0.  0.
    3000001    1    3    3    0    0  0.45740791249E+01 -0.36171778340E+01 -0.70273214206E+01  0.91863715183E+01  0.10000000000E+01 0.  1.
    1000022    2    1    0    0    0  0.10763561573E+02 -0.19183481302E+02 -0.57640175496E+02  0.62500000102E+02  0.99999984450E+01 0.  0.
    3000022    2    3    3    0    0  0.61894824484E+01 -0.15566303468E+02 -0.50612854075E+02  0.53313628584E+02  0.24999687587E+00 0.  0.
    1000022    2    1    0    0    0 -0.10763561573E+02  0.19183481302E+02  0.57640175496E+02  0.62499999898E+02  0.99999971719E+01 0.  0.
    3000022    2    5    5    0    0  0.19298966604E+01  0.26621300689E+01  0.73609045886E+01  0.80657826127E+01  0.24999033587E+00 0.  0.
        -13    1    4    4    0    0  0.26852592259E+01 -0.68272041917E+01 -0.21974830351E+02  0.23167337528E+02  0.10500000000E+00 0.  1.
         13    1    4    4    0    0  0.35042232225E+01 -0.87390992768E+01 -0.28638023724E+02  0.30146291055E+02  0.10500000000E+00 0. -1.
    3000001    1    5    5    0    0 -0.12693458234E+02  0.16521351234E+02  0.50279270907E+02  0.54434217285E+02  0.10000000000E+01 0.  1.
        -13    1    6    6    0    0  0.69289195273E+00  0.97462834319E+00  0.28236796417E+01  0.30682554301E+01  0.10500000000E+00 0.  1.
         13    1    6    6    0    0  0.12370047076E+01  0.16875017258E+01  0.45372249469E+01  0.49975271825E+01  0.10500000000E+00 0. -1.
</event>
<event>
11    0  0.3515428E-009  0.9118800E+02  0.7816531E-02  0.1126479E+00
         25   -1    0    0    0    0  0.00000000000E+00  0.00000000000E+00  0.99999998245E-14  0.12500000000E+03  0.12500000000E+03 0.  0.
    3000001    1    3    3    0    0 -0.46546976959E+01 -0.25411797927E+01  0.15850000613E+01  0.56245915917E+01  0.10000000000E+01 0. -1.
    1000022    2    1    0    0    0 -0.33379358849E+02 -0.50824571485E+02  0.10436998902E+02  0.62500003257E+02  0.10000039863E+02 0.  0.
    3000022    2    3    3    0    0 -0.28724661154E+02 -0.48283391692E+02  0.88519988405E+01  0.56875411665E+02  0.24999392921E+00 0.  0.
    1000022    2    1    0    0    0  0.33379358849E+02  0.50824571485E+02 -0.10436998902E+02  0.62499996743E+02  0.99999991483E+01 0.  0.
    3000022    2    5    5    0    0  0.31895950202E+02  0.42729617764E+02 -0.86448422418E+01  0.54018216125E+02  0.25000482405E+00 0.  0.
        -13    1    4    4    0    0 -0.14325230641E+02 -0.24197205742E+02  0.44620125590E+01  0.28471697872E+02  0.10500000000E+00 0. -1.
         13    1    4    4    0    0 -0.14399430512E+02 -0.24086185950E+02  0.43899862814E+01  0.28403713794E+02  0.10500000000E+00 0.  1.
    3000001    1    5    5    0    0  0.14834086480E+01  0.80949537205E+01 -0.17921566600E+01  0.84817806178E+01  0.10000000000E+01 0. -1.
        -13    1    6    6    0    0  0.17985163785E+02  0.24195723886E+02 -0.48624222526E+01  0.30537736424E+02  0.10500000000E+00 0. -1.
         13    1    6    6    0    0  0.13910786416E+02  0.18533893878E+02 -0.37824199892E+01  0.23480479701E+02  0.10500000000E+00 0.  1.
</event>
<event>
11    0  0.3515428E-009  0.9118800E+02  0.7816531E-02  0.1126479E+00
         25   -1    0    0    0    0  0.00000000000E+00  0.00000000000E+00  0.99999998245E-14  0.12500000000E+03  0.12500000000E+03 0.  0.
    3000001    1    3    3    0    0  0.60146094471E+00 -0.14482458598E+02 -0.10076955872E+02  0.17681866472E+02  0.10000000000E+01 0.  1.
    1000022    2    1    0    0    0  0.74672050567E+01 -0.40627095882E+02 -0.45824993241E+02  0.62500000943E+02  0.10000002060E+02 0.  0.
    3000022    2    3    3    0    0  0.68657441120E+01 -0.26144637284E+02 -0.35748037369E+02  0.44818134471E+02  0.25000154166E+00 0.  0.
    1000022    2    1    0    0    0 -0.74672050567E+01  0.40627095882E+02  0.45824993241E+02  0.62499999057E+02  0.99999902715E+01 0.  0.
    3000022    2    5    5    0    0  0.21420042536E+01  0.73992520622E+01  0.10761526503E+02  0.13236694172E+02  0.25001326692E+00 0.  0.
        -13    1    4    4    0    0  0.29902541561E+01 -0.11343301921E+02 -0.15621462366E+02  0.19535947119E+02  0.10500000000E+00 0. -1.
         13    1    4    4    0    0  0.38754899559E+01 -0.14801335363E+02 -0.20126575003E+02  0.25282187351E+02  0.10500000000E+00 0.  1.
    3000001    1    5    5    0    0 -0.96092093103E+01  0.33227843820E+02  0.35063466738E+02  0.49263304885E+02  0.10000000000E+01 0. -1.
        -13    1    6    6    0    0  0.13985303901E+01  0.47430852200E+01  0.68166671782E+01  0.84220378220E+01  0.10500000000E+00 0.  1.
         13    1    6    6    0    0  0.74347386347E+00  0.26561668421E+01  0.39448593248E+01  0.48146563502E+01  0.10500000000E+00 0. -1.
</event>
<event>
11    0  0.3515428E-009  0.9118800E+02  0.7816531E-02  0.1126479E+00
         25   -1    0    0    0    0  0.00000000000E+00  0.00000000000E+00  0.99999998245E-14  0.12500000000E+03  0.12500000000E+03 0.  0.
    3000001    1    3    3    0    0 -0.33334736711E+02 -0.55082353178E+01 -0.49256572020E+01  0.34158563008E+02  0.10000000000E+01 0. -1.
    1000022    2    1    0    0    0 -0.57986534427E+02 -0.18518721815E+02 -0.10043341024E+02  0.62500000493E+02  0.10000006506E+02 0.  0.
    3000022    2    3    3    0    0 -0.24651797716E+02 -0.13010486497E+02 -0.51176838219E+01  0.28341437485E+02  0.25000290704E+00 0.  0.
    1000022    2    1    0    0    0  0.57986534427E+02  0.18518721815E+02  0.10043341024E+02  0.62499999507E+02  0.10000000347E+02 0.  0.
    3000022    2    5    5    0    0  0.24084657999E+02  0.44522790566E+01  0.78316664495E+01  0.25715579685E+02  0.24999886503E+00 0.  0.
        -13    1    4    4    0    0 -0.64675857756E+01 -0.34430820296E+01 -0.13655517953E+01  0.74538739144E+01  0.10500000000E+00 0.  1.
         13    1    4    4    0    0 -0.18184211941E+02 -0.95674044676E+01 -0.37521320266E+01  0.20887563570E+02  0.10500000000E+00 0. -1.
    3000001    1    5    5    0    0  0.33901876428E+02  0.14066442758E+02  0.22116745744E+01  0.36784419822E+02  0.10000000000E+01 0.  1.
        -13    1    6    6    0    0  0.16176587312E+02  0.30433146929E+01  0.52562912606E+01  0.17279564931E+02  0.10500000000E+00 0. -1.
         13    1    6    6    0    0  0.79080706870E+01  0.14089643636E+01  0.25753751889E+01  0.84360147542E+01  0.10500000000E+00 0.  1.
</event>
<event>
11    0  0.3515428E-009  0.9118800E+02  0.7816531E-02  0.1126479E+00
         25   -1    0    0    0    0  0.00000000000E+00  0.00000000000E+00  0.99999998245E-14  0.12500000000E+03  0.12500000000E+03 0.  0.
    3000001    1    3    3    0    0 -0.54192738458E+01  0.36960145873E+01 -0.35057493822E+01  0.75046206817E+01  0.10000000000E+01 0. -1.
    1000022    2    1    0    0    0 -0.35609887212E+02  0.15596862898E+02 -0.47905364605E+02  0.62499999253E+02  0.99999874617E+01 0.  0.
    3000022    2    3    3    0    0 -0.30190613366E+02  0.11900848311E+02 -0.44399615222E+02  0.54995378571E+02  0.25001275813E+00 0.  0.
    1000022    2    1    0    0    0  0.35609887212E+02 -0.15596862898E+02  0.47905364605E+02  0.62500000747E+02  0.99999967971E+01 0.  0.
    3000022    2    5    5    0    0  0.26312068372E+02 -0.14769553499E+02  0.31655749776E+02  0.43733438513E+02  0.24999531435E+00 0.  0.
        -13    1    4    4    0    0 -0.14235416971E+02  0.56818634876E+01 -0.20998153780E+02  0.25997387488E+02  0.10500000000E+00 0. -1.
         13    1    4    4    0    0 -0.15955196395E+02  0.62189848235E+01 -0.23401461442E+02  0.28997991083E+02  0.10500000000E+00 0.  1.
    3000001    1    5    5    0    0  0.92978188395E+01 -0.82730939913E+00  0.16249614828E+02  0.18766562234E+02  0.10000000000E+01 0. -1.
        -13    1    6    6    0    0  0.16044361960E+02 -0.89787770113E+01  0.19371627535E+02  0.26707882089E+02  0.10500000000E+00 0. -1.
         13    1    6    6    0    0  0.10267706413E+02 -0.57907764879E+01  0.12284122241E+02  0.17025556424E+02  0.10500000000E+00 0.  1.
</event>
<event>
11    0  0.3515428E-009  0.9118800E+02  0.7816531E-02  0.1126479E+00
         25   -1    0    0    0    0  0.00000000000E+00  0.00000000000E+00  0.99999998245E-14  0.12500000000E+03  0.12500000000E+03 0.  0.
    3000001    1    3    3    0    0 -0.13924650267E+02 -0.42833800824E+02 -0.30199610104E+02  0.54236950768E+02  0.10000000000E+01 0. -1.
    1000022    2    1    0    0    0 -0.18657944573E+02 -0.46672885820E+02 -0.35773913356E+02  0.62500001342E+02  0.10000006225E+02 0.  0.
    3000022    2    3    3    0    0 -0.47332943057E+01 -0.38390849960E+01 -0.55743032517E+01  0.82630505746E+01  0.24999893300E+00 0.  0.
    1000022    2    1    0    0    0  0.18657944573E+02  0.46672885820E+02  0.35773913356E+02  0.62499998658E+02  0.99999894477E+01 0.  0.
    3000022    2    5    5    0    0  0.52249142575E+01  0.26259815688E+02  0.19488889429E+02  0.33117321109E+02  0.24999449635E+00 0.  0.
        -13    1    4    4    0    0 -0.13567544335E+01 -0.10515846755E+01 -0.15533480938E+01  0.23174400150E+01  0.10500000000E+00 0.  1.
         13    1    4    4    0    0 -0.33765398722E+01 -0.27875003205E+01 -0.40209551578E+01  0.59456105596E+01  0.10500000000E+00 0. -1.
    3000001    1    5    5    0    0  0.13433030315E+02  0.20413070132E+02  0.16285023927E+02  0.29382677549E+02  0.10000000000E+01 0. -1.
        -13    1    6    6    0    0  0.24068799238E+01  0.11802314504E+02  0.88093655593E+01  0.14923258531E+02  0.10500000000E+00 0. -1.
         13    1    6    6    0    0  0.28180343337E+01  0.14457501185E+02  0.10679523870E+02  0.18194062578E+02  0.10500000000E+00 0.  1.
</event>
<event>
11    0  0.3515428E-009  0.9118800E+02  0.7816531E-02  0.1126479E+00
         25   -1    0    0    0    0  0.00000000000E+00  0.00000000000E+00  0.99999998245E-14  0.12500000000E+03  0.12500000000E+03 0.  0.
    3000001    1    3    3    0    0  0.88776414925E+01 -0.48744851110E+01 -0.90140566450E+01  0.13595085170E+02  0.10000000000E+01 0. -1.
    1000022    2    1    0    0    0  0.36915570033E+02 -0.37780182498E+02 -0.31877081311E+02  0.62500000637E+02  0.10000013319E+02 0.  0.
    3000022    2    3    3    0    0  0.28037928540E+02 -0.32905697387E+02 -0.22863024666E+02  0.48904915468E+02  0.25000544229E+00 0.  0.
    1000022    2    1    0    0    0 -0.36915570033E+02  0.37780182498E+02  0.31877081311E+02  0.62499999363E+02  0.10000005351E+02 0.  0.
    3000022    2    5    5    0    0 -0.31259330375E+02  0.30943143290E+02  0.21984246543E+02  0.49173096799E+02  0.25000113630E+00 0.  0.
        -13    1    4    4    0    0  0.12117214605E+02 -0.14279873206E+02 -0.99650450808E+01  0.21214495446E+02  0.10500000000E+00 0.  1.
         13    1    4    4    0    0  0.15920713936E+02 -0.18625824181E+02 -0.12897979585E+02  0.27690420022E+02  0.10500000000E+00 0. -1.
    3000001    1    5    5    0    0 -0.56562396577E+01  0.68370392079E+01  0.98928347683E+01  0.13326902564E+02  0.10000000000E+01 0.  1.
        -13    1    6    6    0    0 -0.16435258174E+02  0.16179261618E+02  0.11502254374E+02  0.25772060423E+02  0.10500000000E+00 0.  1.
         13    1    6    6    0    0 -0.14824072201E+02  0.14763881671E+02  0.10481992168E+02  0.23401036375E+02  0.10500000000E+00 0. -1.
</event>
<event>
11    0  0.3515428E-009  0.9118800E+02  0.7816531E-02  0.1126479E+00
         25   -1    0    0    0    0  0.00000000000E+00  0.00000000000E+00  0.99999998245E-14  0.12500000000E+03  0.12500000000E+03 0.  0.
    3000001    1    3    3    0    0  0.40030280435E+01 -0.15516265202E+02  0.39461892282E+02  0.42603047565E+02  0.10000000000E+01 0.  1.
    1000022    2    1    0    0    0  0.51165690917E-01 -0.25720351172E+02  0.56077719627E+02  0.62500002210E+02  0.10000027769E+02 0.  0.
    3000022    2    3    3    0    0 -0.39518623526E+01 -0.10204085970E+02  0.16615827344E+02  0.19896954645E+02  0.24999852949E+00 0.  0.
    1000022    2    1    0    0    0 -0.51165690917E-01  0.25720351172E+02 -0.56077719627E+02  0.62499997790E+02  0.10000000142E+02 0.  0.
    3000022    2    5    5    0    0 -0.49320363294E+01  0.13833556550E+02 -0.28718693216E+02  0.32257062900E+02  0.24999549876E+00 0.  0.
        -13    1    4    4    0    0 -0.29442972703E+01 -0.75473837414E+01  0.12255029267E+02  0.14691108028E+02  0.10500000000E+00 0.  1.
         13    1    4    4    0    0 -0.10075650823E+01 -0.26567022289E+01  0.43607980778E+01  0.52058466174E+01  0.10500000000E+00 0. -1.
    3000001    1    5    5    0    0  0.48808706385E+01  0.11886794622E+02 -0.27359026411E+02  0.30242934889E+02  0.10000000000E+01 0.  1.
        -13    1    6    6    0    0 -0.17687639280E+01  0.48567031262E+01 -0.10010041702E+02  0.11266234995E+02  0.10500000000E+00 0.  1.
         13    1    6    6    0    0 -0.31632724014E+01  0.89768534241E+01 -0.18708651514E+02  0.20990827906E+02  0.10500000000E+00 0. -1.
</event>
<event>
11    0  0.3515428E-009  0.9118800E+02  0.7816531E-02  0.1126479E+00
         25   -1    0    0    0    0  0.00000000000E+00  0.00000000000E+00  0.99999998245E-14  0.12500000000E+03  0.12500000000E+03 0.  0.
    3000001    1    3    3    0    0  0.74410718781E+01  0.53270904123E+01  0.27236551745E+01  0.96002989779E+01  0.10000000000E+01 0. -1.
    1000022    2    1    0    0    0  0.52456232781E+02  0.32167228966E+02 -0.44567652097E+01  0.62500002987E+02  0.10000032019E+02 0.  0.
    3000022    2    3    3    0    0  0.45015160903E+02  0.26840138553E+02 -0.71804203842E+01  0.52899704009E+02  0.24999744564E+00 0.  0.
    1000022    2    1    0    0    0 -0.52456232781E+02 -0.32167228966E+02  0.44567652097E+01  0.62499997013E+02  0.99999946802E+01 0.  0.
    3000022    2    5    5    0    0 -0.27746832571E+02 -0.22592988790E+02  0.36663985600E+01  0.35969915726E+02  0.24999745101E+00 0.  0.
        -13    1    4    4    0    0  0.20902579731E+02  0.12396383881E+02 -0.32940588746E+01  0.24524478009E+02  0.10500000000E+00 0.  1.
         13    1    4    4    0    0  0.24112581171E+02  0.14443754673E+02 -0.38863615096E+01  0.28375226000E+02  0.10500000000E+00 0. -1.
    3000001    1    5    5    0    0 -0.24709400210E+02 -0.95742401758E+01  0.79036664972E+00  0.26530081287E+02  0.10000000000E+01 0.  1.
        -13    1    6    6    0    0 -0.17532831288E+02 -0.14351743576E+02  0.23139515750E+01  0.22775823005E+02  0.10500000000E+00 0.  1.
         13    1    6    6    0    0 -0.10214001283E+02 -0.82412452141E+01  0.13524469850E+01  0.13194092721E+02  0.10500000000E+00 0. -1.
</event>
<event>
11    0  0.3515428E-009  0.9118800E+02  0.7816531E-02  0.1126479E+00
         25   -1    0    0    0    0  0.00000000000E+00  0.00000000000E+00  0.99999998245E-14  0.12500000000E+03  0.12500000000E+03 0.  0.
    3000001    1    3    3    0    0  0.33303546991E+01 -0.14952823849E+02  0.37983099707E+02  0.40968208001E+02  0.10000000000E+01 0. -1.
    1000022    2    1    0    0    0 -0.20302255011E+01 -0.23370051193E+02  0.57061098060E+02  0.62500000003E+02  0.99999990090E+01 0.  0.
    3000022    2    3    3    0    0 -0.53605802002E+01 -0.84172273443E+01  0.19077998354E+02  0.21531792002E+02  0.25001878937E+00 0.  0.
    1000022    2    1    0    0    0  0.20302255011E+01  0.23370051193E+02 -0.57061098060E+02  0.62499999997E+02  0.99999989703E+01 0.  0.
    3000022    2    5    5    0    0  0.17454968138E+00  0.24860580102E+01 -0.17844022467E+02  0.18018950975E+02  0.25000881269E+00 0.  0.
        -13    1    4    4    0    0 -0.12443088979E+01 -0.19429521535E+01  0.44300570385E+01  0.49959781894E+01  0.10500000000E+00 0.  1.
         13    1    4    4    0    0 -0.41162713023E+01 -0.64742751908E+01  0.14647941315E+02  0.16535813813E+02  0.10500000000E+00 0. -1.
    3000001    1    5    5    0    0  0.18556758197E+01  0.20883993183E+02 -0.39217075593E+02  0.44481049022E+02  0.10000000000E+01 0. -1.
        -13    1    6    6    0    0  0.51271995928E-01  0.14787064420E+01 -0.10831473554E+02  0.10932568130E+02  0.10500000000E+00 0.  1.
         13    1    6    6    0    0  0.12327768545E+00  0.10073515682E+01 -0.70125489136E+01  0.70863828456E+01  0.10500000000E+00 0. -1.
</event>
<event>
11    0  0.3515428E-009  0.9118800E+02  0.7816531E-02  0.1126479E+00
         25   -1    0    0    0    0  0.00000000000E+00  0.00000000000E+00  0.99999998245E-14  0.12500000000E+03  0.12500000000E+03 0.  0.
    3000001    1    3    3    0    0  0.15320468381E+02 -0.46540077934E+01  0.41411938339E+02  0.44410867780E+02  0.10000000000E+01 0.  1.
    1000022    2    1    0    0    0  0.17911630268E+02 -0.14304714283E+01  0.59020147085E+02  0.62500003270E+02  0.99999949731E+01 0.  0.
    3000022    2    3    3    0    0  0.25911618876E+01  0.32235363651E+01  0.17608208745E+02  0.18089135490E+02  0.25000185818E+00 0.  0.
    1000022    2    1    0    0    0 -0.17911630268E+02  0.14304714283E+01 -0.59020147085E+02  0.62499996730E+02  0.99999540998E+01 0.  0.
    3000022    2    5    5    0    0 -0.10529780221E+02  0.14064264340E+00 -0.47958285986E+02  0.49101484150E+02  0.24999817501E+00 0.  0.
        -13    1    4    4    0    0  0.16497071204E+01  0.20442900125E+01  0.10919295448E+02  0.11231326427E+02  0.10500000000E+00 0. -1.
         13    1    4    4    0    0  0.94145476720E+00  0.11792463526E+01  0.66889132975E+01  0.68578090627E+01  0.10500000000E+00 0.  1.
    3000001    1    5    5    0    0 -0.73818500471E+01  0.12898287849E+01 -0.11061861098E+02  0.13398512581E+02  0.10000000000E+01 0. -1.
        -13    1    6    6    0    0 -0.72902312972E+01  0.12327542092E+00 -0.33387472517E+02  0.34174508267E+02  0.10500000000E+00 0.  1.
         13    1    6    6    0    0 -0.32395489238E+01  0.17367222478E-01 -0.14570813469E+02  0.14926975883E+02  0.10500000000E+00 0. -1.
</event>
<event>
11    0  0.3515428E-009  0.9118800E+02  0.7816531E-02  0.1126479E+00
         25   -1    0    0    0    0  0.00000000000E+00  0.00000000000E+00  0.99999998245E-14  0.12500000000E+03  0.12500000000E+03 0.  0.
    3000001    1    3    3    0    0  0.39387002888E+01 -0.39166715951E+02 -0.34264797511E+02  0.52197905579E+02  0.10000000000E+01 0. -1.
    1000022    2    1    0    0    0  0.77730874868E+00 -0.45178452632E+02 -0.42006585297E+02  0.62500000076E+02  0.10000000503E+02 0.  0.
    3000022    2    3    3    0    0 -0.31613915401E+01 -0.60117366806E+01 -0.77417877864E+01  0.10302094497E+02  0.24999701845E+00 0.  0.
    1000022    2    1    0    0    0 -0.77730874868E+00  0.45178452632E+02  0.42006585297E+02  0.62499999924E+02  0.99999995552E+01 0.  0.
    3000022    2    5    5    0    0 -0.30962850243E+01  0.38188598733E+02  0.38375995605E+02  0.54228549627E+02  0.25000381294E+00 0.  0.
        -13    1    4    4    0    0 -0.10772440944E+01 -0.19975522989E+01 -0.25153536769E+01  0.33894983619E+01  0.10500000000E+00 0. -1.
         13    1    4    4    0    0 -0.20841474457E+01 -0.40141843818E+01 -0.52264341095E+01  0.69125961351E+01  0.10500000000E+00 0.  1.
    3000001    1    5    5    0    0  0.23189762756E+01  0.69898538993E+01  0.36305896921E+01  0.82714502968E+01  0.10000000000E+01 0. -1.
        -13    1    6    6    0    0 -0.89167242281E+00  0.11573813398E+02  0.11623711413E+02  0.16427718292E+02  0.10500000000E+00 0.  1.
         13    1    6    6    0    0 -0.22046126015E+01  0.26614785335E+02  0.26752284192E+02  0.37800831335E+02  0.10500000000E+00 0. -1.
</event>
<event>
11    0  0.3515428E-009  0.9118800E+02  0.7816531E-02  0.1126479E+00
         25   -1    0    0    0    0  0.00000000000E+00  0.00000000000E+00  0.99999998245E-14  0.12500000000E+03  0.12500000000E+03 0.  0.
    3000001    1    3    3    0    0  0.22416635834E+02  0.41753612550E+02 -0.13188917943E+02  0.49201801589E+02  0.10000000000E+01 0.  1.
    1000022    2    1    0    0    0  0.24626169858E+02  0.52844172214E+02 -0.20181558888E+02  0.62499999870E+02  0.99999942838E+01 0.  0.
    3000022    2    3    3    0    0  0.22095340239E+01  0.11090559664E+02 -0.69926409454E+01  0.13298198281E+02  0.24999171078E+00 0.  0.
    1000022    2    1    0    0    0 -0.24626169858E+02 -0.52844172214E+02  0.20181558888E+02  0.62500000130E+02  0.99999959130E+01 0.  0.
    3000022    2    5    5    0    0 -0.21000023507E+02 -0.47728443988E+02  0.14875154083E+02  0.54224884144E+02  0.24999713158E+00 0.  0.
        -13    1    4    4    0    0  0.15138620108E+01  0.78262287605E+01 -0.49275049478E+01  0.93719242853E+01  0.10500000000E+00 0. -1.
         13    1    4    4    0    0  0.69567201318E+00  0.32643309038E+01 -0.20651359977E+01  0.39262739955E+01  0.10500000000E+00 0.  1.
    3000001    1    5    5    0    0 -0.36261463513E+01 -0.51157282260E+01  0.53064048045E+01  0.82751159866E+01  0.10000000000E+01 0. -1.
        -13    1    6    6    0    0 -0.11643238341E+02 -0.26625937308E+02  0.82817468683E+01  0.30217608985E+02  0.10500000000E+00 0. -1.
         13    1    6    6    0    0 -0.93567851652E+01 -0.21102506681E+02  0.65934072152E+01  0.24007275159E+02  0.10500000000E+00 0.  1.
</event>
<event>
11    0  0.3515428E-009  0.9118800E+02  0.7816531E-02  0.1126479E+00
         25   -1    0    0    0    0  0.00000000000E+00  0.00000000000E+00  0.99999998245E-14  0.12500000000E+03  0.12500000000E+03 0.  0.
    3000001    1    3    3    0    0  0.43599895532E+01 -0.18221873477E+02  0.22393082665E+02  0.29214659559E+02  0.10000000000E+01 0.  1.
    1000022    2    1    0    0    0  0.34464344868E+00 -0.34493608563E+02  0.51149986275E+02  0.62500007295E+02  0.10000100260E+02 0.  0.
    3000022    2    3    3    0    0 -0.40153461045E+01 -0.16271735086E+02  0.28756903609E+02  0.33285347736E+02  0.25000331461E+00 0.  0.
    1000022    2    1    0    0    0 -0.34464344868E+00  0.34493608563E+02 -0.51149986275E+02  0.62499992705E+02  0.10000009067E+02 0.  0.
    3000022    2    5    5    0    0  0.44522826913E+01  0.20258273568E+02 -0.27121264738E+02  0.34144486687E+02  0.25000203503E+00 0.  0.
        -13    1    4    4    0    0 -0.15246501207E+01 -0.59982486289E+01  0.10538670257E+02  0.12222035035E+02  0.10500000000E+00 0. -1.
         13    1    4    4    0    0 -0.24906959838E+01 -0.10273486457E+02  0.18218233353E+02  0.21063312702E+02  0.10500000000E+00 0.  1.
    3000001    1    5    5    0    0 -0.47969261400E+01  0.14235334996E+02 -0.24028721537E+02  0.28355506018E+02  0.10000000000E+01 0. -1.
        -13    1    6    6    0    0  0.28916040456E+01  0.13389912405E+02 -0.17874518022E+02  0.22520225303E+02  0.10500000000E+00 0. -1.
         13    1    6    6    0    0  0.15606786457E+01  0.68683611622E+01 -0.92467467156E+01  0.11624261384E+02  0.10500000000E+00 0.  1.
</event>
<event>
11    0  0.3515428E-009  0.9118800E+02  0.7816531E-02  0.1126479E+00
         25   -1    0    0    0    0  0.00000000000E+00  0.00000000000E+00  0.99999998245E-14  0.12500000000E+03  0.12500000000E+03 0.  0.
    3000001    1    3    3    0    0  0.48714768969E+01  0.11128847051E+02  0.68624653787E+01  0.13988422174E+02  0.10000000000E+01 0.  1.
    1000022    2    1    0    0    0  0.35288083265E+02  0.46984236020E+02  0.18801134792E+02  0.62500000100E+02  0.10000004407E+02 0.  0.
    3000022    2    3    3    0    0  0.30416606368E+02  0.35855388969E+02  0.11938669413E+02  0.48511577926E+02  0.25000892267E+00 0.  0.
    1000022    2    1    0    0    0 -0.35288083265E+02 -0.46984236020E+02 -0.18801134792E+02  0.62499999900E+02  0.10000003155E+02 0.  0.
    3000022    2    5    5    0    0 -0.11662738209E+02 -0.85031971228E+01 -0.48537195160E+01  0.15229737826E+02  0.24999454993E+00 0.  0.
        -13    1    4    4    0    0  0.13760673940E+02  0.16197542378E+02  0.54636100327E+01  0.21944898860E+02  0.10500000000E+00 0. -1.
         13    1    4    4    0    0  0.16655932428E+02  0.19657846591E+02  0.64750593806E+01  0.26566679066E+02  0.10500000000E+00 0.  1.
    3000001    1    5    5    0    0 -0.23625345056E+02 -0.38481038897E+02 -0.13947415276E+02  0.47270262074E+02  0.10000000000E+01 0. -1.
        -13    1    6    6    0    0 -0.70268545833E+01 -0.51638909289E+01 -0.29885306261E+01  0.92187198224E+01  0.10500000000E+00 0. -1.
         13    1    6    6    0    0 -0.46358836257E+01 -0.33393061939E+01 -0.18651888899E+01  0.60110180039E+01  0.10500000000E+00 0.  1.
</event>
<event>
11    0  0.3515428E-009  0.9118800E+02  0.7816531E-02  0.1126479E+00
         25   -1    0    0    0    0  0.00000000000E+00  0.00000000000E+00  0.99999998245E-14  0.12500000000E+03  0.12500000000E+03 0.  0.
    3000001    1    3    3    0    0  0.66448661538E+01  0.83707153030E+01 -0.13537674264E+02  0.17276913653E+02  0.10000000000E+01 0.  1.
    1000022    2    1    0    0    0  0.37200482669E+02  0.28188310202E+02 -0.40345915922E+02  0.62499995021E+02  0.99999851590E+01 0.  0.
    3000022    2    3    3    0    0  0.30555616515E+02  0.19817594899E+02 -0.26808241658E+02  0.45223081368E+02  0.24999885817E+00 0.  0.
    1000022    2    1    0    0    0 -0.37200482669E+02 -0.28188310202E+02  0.40345915922E+02  0.62500004979E+02  0.10000047399E+02 0.  0.
    3000022    2    5    5    0    0 -0.23957809841E+02 -0.23736879357E+02  0.28568132057E+02  0.44199736867E+02  0.24995183326E+00 0.  0.
        -13    1    4    4    0    0  0.10303867159E+02  0.67001127569E+01 -0.91123000740E+01  0.15300530285E+02  0.10500000000E+00 0.  1.
         13    1    4    4    0    0  0.20251749357E+02  0.13117482142E+02 -0.17695941584E+02  0.29922551082E+02  0.10500000000E+00 0. -1.
    3000001    1    5    5    0    0 -0.13242672828E+02 -0.44514308447E+01  0.11777783865E+02  0.18300268112E+02  0.10000000000E+01 0.  1.
        -13    1    6    6    0    0 -0.18024365582E+02 -0.17878764865E+02  0.21530595433E+02  0.33288219424E+02  0.10500000000E+00 0. -1.
         13    1    6    6    0    0 -0.59334442585E+01 -0.58581144927E+01  0.70375366236E+01  0.10911517443E+02  0.10500000000E+00 0.  1.
</event>
<event>
11    0  0.3515428E-009  0.9118800E+02  0.7816531E-02  0.1126479E+00
         25   -1    0    0    0    0  0.00000000000E+00  0.00000000000E+00  0.99999998245E-14  0.12500000000E+03  0.12500000000E+03 0.  0.
    3000001    1    3    3    0    0 -0.20393944247E+02  0.18552506479E+02  0.19670067633E+02  0.33882444116E+02  0.10000000000E+01 0. -1.
    1000022    2    1    0    0    0 -0.31454218265E+02  0.31774364781E+02  0.42512020066E+02  0.62499999713E+02  0.10000000509E+02 0.  0.
    3000022    2    3    3    0    0 -0.11060274018E+02  0.13221858302E+02  0.22841952433E+02  0.28617555597E+02  0.24999816978E+00 0.  0.
    1000022    2    1    0    0    0  0.31454218265E+02 -0.31774364781E+02 -0.42512020066E+02  0.62500000287E+02  0.10000004092E+02 0.  0.
    3000022    2    5    5    0    0  0.26996542287E+02 -0.26918965108E+02 -0.30751279618E+02  0.48981095117E+02  0.25000551920E+00 0.  0.
        -13    1    4    4    0    0 -0.46962882013E+01  0.56069968641E+01  0.97998633435E+01  0.12228731874E+02  0.10500000000E+00 0. -1.
         13    1    4    4    0    0 -0.63639858168E+01  0.76148614378E+01  0.13042089090E+02  0.16388823723E+02  0.10500000000E+00 0.  1.
    3000001    1    5    5    0    0  0.44576759781E+01 -0.48553996729E+01 -0.11760740447E+02  0.13518905169E+02  0.10000000000E+01 0. -1.
        -13    1    6    6    0    0  0.15421756192E+02 -0.15373890597E+02 -0.17480503495E+02  0.27924292356E+02  0.10500000000E+00 0.  1.
         13    1    6    6    0    0  0.11574786095E+02 -0.11545074511E+02 -0.13270776123E+02  0.21056802761E+02  0.10500000000E+00 0. -1.
</event>
<event>
11    0  0.3515428E-009  0.9118800E+02  0.7816531E-02  0.1126479E+00
         25   -1    0    0    0    0  0.00000000000E+00  0.00000000000E+00  0.99999998245E-14  0.12500000000E+03  0.12500000000E+03 0.  0.
    3000001    1    3    3    0    0 -0.20219069057E+01  0.10689083483E-01 -0.28720650782E+00  0.22739193851E+01  0.10000000000E+01 0.  1.
    1000022    2    1    0    0    0 -0.50338783482E+02  0.41794699241E+01  0.35423002317E+02  0.62500000222E+02  0.99999921652E+01 0.  0.
    3000022    2    3    3    0    0 -0.48316876577E+02  0.41687808406E+01  0.35710208825E+02  0.60226080837E+02  0.25000574296E+00 0.  0.
    1000022    2    1    0    0    0  0.50338783482E+02 -0.41794699241E+01 -0.35423002317E+02  0.62499999778E+02  0.99999893868E+01 0.  0.
    3000022    2    5    5    0    0  0.11868655125E+02  0.91378140437E+00 -0.40106080574E+01  0.12563735420E+02  0.24999954082E+00 0.  0.
        -13    1    4    4    0    0 -0.19300837282E+02  0.16487890274E+01  0.14188456765E+02  0.24011750361E+02  0.10500000000E+00 0. -1.
         13    1    4    4    0    0 -0.29016039295E+02  0.25199918132E+01  0.21521752060E+02  0.36214330476E+02  0.10500000000E+00 0.  1.
    3000001    1    5    5    0    0  0.38470128357E+02 -0.50932513285E+01 -0.31412394259E+02  0.49936264358E+02  0.10000000000E+01 0.  1.
        -13    1    6    6    0    0  0.38610805769E+01  0.30826955929E+00 -0.12517689409E+01  0.40719680529E+01  0.10500000000E+00 0.  1.
         13    1    6    6    0    0  0.80075745485E+01  0.60551184508E+00 -0.27588391165E+01  0.84917673670E+01  0.10500000000E+00 0. -1.
</event>
<event>
11    0  0.3515428E-009  0.9118800E+02  0.7816531E-02  0.1126479E+00
         25   -1    0    0    0    0  0.00000000000E+00  0.00000000000E+00  0.99999998245E-14  0.12500000000E+03  0.12500000000E+03 0.  0.
    3000001    1    3    3    0    0 -0.52419312289E+01 -0.11010257518E+02 -0.15324907074E+02  0.19610109394E+02  0.10000000000E+01 0. -1.
    1000022    2    1    0    0    0 -0.28273844499E+02 -0.26303978256E+02 -0.48113827849E+02  0.62500000348E+02  0.10000002920E+02 0.  0.
    3000022    2    3    3    0    0 -0.23031913270E+02 -0.15293720738E+02 -0.32788920776E+02  0.42889890955E+02  0.24999517551E+00 0.  0.
    1000022    2    1    0    0    0  0.28273844499E+02  0.26303978256E+02  0.48113827849E+02  0.62499999652E+02  0.99999985647E+01 0.  0.
    3000022    2    5    5    0    0  0.16342658488E+02  0.96296864005E+01  0.18753768742E+02  0.26675451095E+02  0.25000490258E+00 0.  0.
        -13    1    4    4    0    0 -0.15796718754E+02 -0.10429776578E+02 -0.22446707587E+02  0.29362940408E+02  0.10500000000E+00 0.  1.
         13    1    4    4    0    0 -0.72351945156E+01 -0.48639441602E+01 -0.10342213188E+02  0.13526950547E+02  0.10500000000E+00 0. -1.
    3000001    1    5    5    0    0  0.11931186010E+02  0.16674291855E+02  0.29360059107E+02  0.35824548556E+02  0.10000000000E+01 0.  1.
        -13    1    6    6    0    0  0.72441437840E+01  0.42451953461E+01  0.83902294837E+01  0.11870395043E+02  0.10500000000E+00 0. -1.
         13    1    6    6    0    0  0.90985147045E+01  0.53844910544E+01  0.10363539259E+02  0.14805056052E+02  0.10500000000E+00 0.  1.
</event>
<event>
11    0  0.3515428E-009  0.9118800E+02  0.7816531E-02  0.1126479E+00
         25   -1    0    0    0    0  0.00000000000E+00  0.00000000000E+00  0.99999998245E-14  0.12500000000E+03  0.12500000000E+03 0.  0.
    3000001    1    3    3    0    0 -0.13981783782E+02 -0.23793238518E+02 -0.12800174290E+01  0.27645016215E+02  0.10000000000E+01 0.  1.
    1000022    2    1    0    0    0 -0.39063737572E+02 -0.47681327632E+02  0.26009968113E+01  0.62500001194E+02  0.10000018349E+02 0.  0.
    3000022    2    3    3    0    0 -0.25081953790E+02 -0.23888089114E+02  0.38810142403E+01  0.34854984979E+02  0.24999783478E+00 0.  0.
    1000022    2    1    0    0    0  0.39063737572E+02  0.47681327632E+02 -0.26009968113E+01  0.62499998806E+02  0.10000003424E+02 0.  0.
    3000022    2    5    5    0    0  0.15342122618E+02  0.15475650283E+02  0.33476271596E+01  0.22048709621E+02  0.25002052070E+00 0.  0.
        -13    1    4    4    0    0 -0.15791168555E+02 -0.15101976811E+02  0.24870009555E+01  0.21991518971E+02  0.10500000000E+00 0.  1.
         13    1    4    4    0    0 -0.92907852351E+01 -0.87861123036E+01  0.13940132848E+01  0.12863466008E+02  0.10500000000E+00 0. -1.
    3000001    1    5    5    0    0  0.23721614954E+02  0.32205677349E+02 -0.59486239709E+01  0.40451289185E+02  0.10000000000E+01 0.  1.
        -13    1    6    6    0    0  0.35350094257E+01  0.35772676155E+01  0.77542353855E+00  0.50897388829E+01  0.10500000000E+00 0.  1.
         13    1    6    6    0    0  0.11807113192E+02  0.11898382667E+02  0.25722036211E+01  0.16958970738E+02  0.10500000000E+00 0. -1.
</event>
<event>
11    0  0.3515428E-009  0.9118800E+02  0.7816531E-02  0.1126479E+00
         25   -1    0    0    0    0  0.00000000000E+00  0.00000000000E+00  0.99999998245E-14  0.12500000000E+03  0.12500000000E+03 0.  0.
    3000001    1    3    3    0    0 -0.20372012840E+02  0.11182911820E+02 -0.36761332084E+02  0.43502551196E+02  0.10000000000E+01 0. -1.
    1000022    2    1    0    0    0 -0.23183762961E+02  0.15238544746E+02 -0.55104899081E+02  0.62500000192E+02  0.10000000512E+02 0.  0.
    3000022    2    3    3    0    0 -0.28117501206E+01  0.40556329255E+01 -0.18343566997E+02  0.18997448996E+02  0.25004202691E+00 0.  0.
    1000022    2    1    0    0    0  0.23183762961E+02 -0.15238544746E+02  0.55104899081E+02  0.62499999808E+02  0.99999981140E+01 0.  0.
    3000022    2    5    5    0    0  0.15729976603E+02 -0.71686855241E+01  0.41688029156E+02  0.45130660226E+02  0.25000291228E+00 0.  0.
        -13    1    4    4    0    0 -0.13689468705E+01  0.20665402420E+01 -0.93774847267E+01  0.97001468496E+01  0.10500000000E+00 0.  1.
         13    1    4    4    0    0 -0.14428032501E+01  0.19890926835E+01 -0.89660822704E+01  0.92973021464E+01  0.10500000000E+00 0. -1.
    3000001    1    5    5    0    0  0.74537863583E+01 -0.80698592215E+01  0.13416869925E+02  0.17369339582E+02  0.10000000000E+01 0.  1.
        -13    1    6    6    0    0  0.40276108521E+01 -0.18313305386E+01  0.10748753904E+02  0.11624205616E+02  0.10500000000E+00 0.  1.
         13    1    6    6    0    0  0.11702365750E+02 -0.53373549854E+01  0.30939275253E+02  0.33506454611E+02  0.10500000000E+00 0. -1.
</event>
<event>
11    0  0.3515428E-009  0.9118800E+02  0.7816531E-02  0.1126479E+00
         25   -1    0    0    0    0  0.00000000000E+00  0.00000000000E+00  0.99999998245E-14  0.12500000000E+03  0.12500000000E+03 0.  0.
    3000001    1    3    3    0    0 -0.95077375619E+01  0.11160286810E+02 -0.15562598460E+02  0.21404288030E+02  0.10000000000E+01 0. -1.
    1000022    2    1    0    0    0 -0.24876466254E+02  0.42780504182E+02 -0.36840734945E+02  0.62500000020E+02  0.10000006994E+02 0.  0.
    3000022    2    3    3    0    0 -0.15368728692E+02  0.31620217373E+02 -0.21278136485E+02  0.41095711991E+02  0.24996690556E+00 0.  0.
    1000022    2    1    0    0    0  0.24876466254E+02 -0.42780504182E+02  0.36840734945E+02  0.62499999980E+02  0.10000006738E+02 0.  0.
    3000022    2    5    5    0    0  0.17808407302E+02 -0.22214736630E+02  0.17803038309E+02  0.33580419319E+02  0.24998886617E+00 0.  0.
        -13    1    4    4    0    0 -0.51146561997E+01  0.10565692485E+02 -0.70459177432E+01  0.13691221551E+02  0.10500000000E+00 0. -1.
         13    1    4    4    0    0 -0.10254072492E+02  0.21054524888E+02 -0.14232218742E+02  0.27404490439E+02  0.10500000000E+00 0.  1.
    3000001    1    5    5    0    0  0.70680589514E+01 -0.20565767553E+02  0.19037696636E+02  0.28919580661E+02  0.10000000000E+01 0.  1.
        -13    1    6    6    0    0  0.74409041180E+01 -0.92021538511E+01  0.74478622743E+01  0.13983145821E+02  0.10500000000E+00 0.  1.
         13    1    6    6    0    0  0.10367503184E+02 -0.13012582778E+02  0.10355176035E+02  0.19597273498E+02  0.10500000000E+00 0. -1.
</event>
<event>
11    0  0.3515428E-009  0.9118800E+02  0.7816531E-02  0.1126479E+00
         25   -1    0    0    0    0  0.00000000000E+00  0.00000000000E+00  0.99999998245E-14  0.12500000000E+03  0.12500000000E+03 0.  0.
    3000001    1    3    3    0    0  0.24409877353E+02  0.25947576679E+02 -0.88427481145E+01  0.36719382376E+02  0.10000000000E+01 0.  1.
    1000022    2    1    0    0    0  0.35749363885E+02  0.48943512931E+02 -0.11522403080E+02  0.62499996665E+02  0.99999667132E+01 0.  0.
    3000022    2    3    3    0    0  0.11339486532E+02  0.22995936252E+02 -0.26796549654E+01  0.25780614289E+02  0.24996695469E+00 0.  0.
    1000022    2    1    0    0    0 -0.35749363885E+02 -0.48943512931E+02  0.11522403080E+02  0.62500003335E+02  0.10000008397E+02 0.  0.
    3000022    2    5    5    0    0 -0.18949775034E+01 -0.49064514484E-01 -0.14895820379E-01  0.19120851571E+01  0.25000139496E+00 0.  0.
        -13    1    4    4    0    0  0.49904808987E+01  0.99819202050E+01 -0.11905550521E+01  0.11223728298E+02  0.10500000000E+00 0.  1.
         13    1    4    4    0    0  0.63490056337E+01  0.13014016047E+02 -0.14890999133E+01  0.14556885991E+02  0.10500000000E+00 0. -1.
    3000001    1    5    5    0    0 -0.33854386382E+02 -0.48894448416E+02  0.11537298900E+02  0.60587918178E+02  0.10000000000E+01 0. -1.
        -13    1    6    6    0    0 -0.43329953336E+00 -0.26713766797E-02 -0.39164408010E-02  0.44586540611E+00  0.10500000000E+00 0. -1.
         13    1    6    6    0    0 -0.14616779700E+01 -0.46393137804E-01 -0.10979379578E-01  0.14662197510E+01  0.10500000000E+00 0.  1.
</event>
<event>
11    0  0.3515428E-009  0.9118800E+02  0.7816531E-02  0.1126479E+00
         25   -1    0    0    0    0  0.00000000000E+00  0.00000000000E+00  0.99999998245E-14  0.12500000000E+03  0.12500000000E+03 0.  0.
    3000001    1    3    3    0    0  0.19607924728E+02  0.16409375306E+02 -0.48440782940E+01  0.26042338692E+02  0.10000000000E+01 0. -1.
    1000022    2    1    0    0    0  0.52665557434E+02  0.31780864983E+02 -0.47503291046E+01  0.62499999918E+02  0.10000002209E+02 0.  0.
    3000022    2    3    3    0    0  0.33057632707E+02  0.15371489677E+02  0.93749189379E-01  0.36457661225E+02  0.24999607307E+00 0.  0.
    1000022    2    1    0    0    0 -0.52665557434E+02 -0.31780864983E+02  0.47503291046E+01  0.62500000082E+02  0.10000003239E+02 0.  0.
    3000022    2    5    5    0    0 -0.33576469482E+02 -0.15632142744E+02  0.56176432697E+01  0.37461494882E+02  0.24998655704E+00 0.  0.
        -13    1    4    4    0    0  0.13744637534E+02  0.64211153910E+01  0.97496660253E-01  0.15171233121E+02  0.10500000000E+00 0. -1.
         13    1    4    4    0    0  0.19312995173E+02  0.89503742856E+01 -0.37474708739E-02  0.21286428104E+02  0.10500000000E+00 0.  1.
    3000001    1    5    5    0    0 -0.19089087953E+02 -0.16148722238E+02 -0.86731416513E+00  0.25038505200E+02  0.10000000000E+01 0. -1.
        -13    1    6    6    0    0 -0.83979268747E+01 -0.39320914914E+01  0.13891345334E+01  0.93769525456E+01  0.10500000000E+00 0.  1.
         13    1    6    6    0    0 -0.25178542607E+02 -0.11700051253E+02  0.42285087363E+01  0.28084542337E+02  0.10500000000E+00 0. -1.
</event>
<event>
11    0  0.3515428E-009  0.9118800E+02  0.7816531E-02  0.1126479E+00
         25   -1    0    0    0    0  0.00000000000E+00  0.00000000000E+00  0.99999998245E-14  0.12500000000E+03  0.12500000000E+03 0.  0.
    3000001    1    3    3    0    0 -0.70003945119E+01 -0.13187589682E+02 -0.16293149401E+01  0.15052332448E+02  0.10000000000E+01 0. -1.
    1000022    2    1    0    0    0 -0.27719147928E+02 -0.54099129271E+02  0.10544338452E+02  0.62499999924E+02  0.99999983665E+01 0.  0.
    3000022    2    3    3    0    0 -0.20718753416E+02 -0.40911539589E+02  0.12173653392E+02  0.47447667476E+02  0.24999466424E+00 0.  0.
    1000022    2    1    0    0    0  0.27719147928E+02  0.54099129271E+02 -0.10544338452E+02  0.62500000076E+02  0.99999993219E+01 0.  0.
    3000022    2    5    5    0    0  0.40413072574E+01  0.41341696401E+01 -0.34739983233E+01  0.67494212520E+01  0.24999984822E+00 0.  0.
        -13    1    4    4    0    0 -0.14615444707E+02 -0.28847157143E+02  0.86299872241E+01  0.33470246544E+02  0.10500000000E+00 0. -1.
         13    1    4    4    0    0 -0.61033087087E+01 -0.12064382446E+02  0.35436661684E+01  0.13977420932E+02  0.10500000000E+00 0.  1.
    3000001    1    5    5    0    0  0.23677840670E+02  0.49964959631E+02 -0.70703401290E+01  0.55750578824E+02  0.10000000000E+01 0.  1.
        -13    1    6    6    0    0  0.26053386980E+01  0.27437959560E+01 -0.22837282653E+01  0.44207064786E+01  0.10500000000E+00 0. -1.
         13    1    6    6    0    0  0.14359685594E+01  0.13903736841E+01 -0.11902700580E+01  0.23287147734E+01  0.10500000000E+00 0.  1.
</event>
<event>
11    0  0.3515428E-009  0.9118800E+02  0.7816531E-02  0.1126479E+00
         25   -1    0    0    0    0  0.00000000000E+00  0.00000000000E+00  0.99999998245E-14  0.12500000000E+03  0.12500000000E+03 0.  0.
    3000001    1    3    3    0    0  0.23389181371E+02 -0.26359803590E+02  0.35918911195E+02  0.50329526443E+02  0.10000000000E+01 0.  1.
    1000022    2    1    0    0    0  0.32353300936E+02 -0.32816203137E+02  0.41019640050E+02  0.62500001659E+02  0.10000003390E+02 0.  0.
    3000022    2    3    3    0    0  0.89641195651E+01 -0.64563995464E+01  0.51007288555E+01  0.12170475217E+02  0.24999492461E+00 0.  0.
    1000022    2    1    0    0    0 -0.32353300936E+02  0.32816203137E+02 -0.41019640050E+02  0.62499998341E+02  0.99999826466E+01 0.  0.
    3000022    2    5    5    0    0 -0.25683537413E+02  0.30442853452E+02 -0.32731150324E+02  0.51553875917E+02  0.25000024302E+00 0.  0.
        -13    1    4    4    0    0  0.41730914152E+01 -0.29897338717E+01  0.22976708966E+01  0.56252570726E+01  0.10500000000E+00 0. -1.
         13    1    4    4    0    0  0.47910281499E+01 -0.34666656747E+01  0.28030579589E+01  0.65452181442E+01  0.10500000000E+00 0.  1.
    3000001    1    5    5    0    0 -0.66697635227E+01  0.23733496844E+01 -0.82884897261E+01  0.10946122424E+02  0.10000000000E+01 0. -1.
        -13    1    6    6    0    0 -0.79660010464E+01  0.94093979823E+01 -0.10075340904E+02  0.15922231702E+02  0.10500000000E+00 0. -1.
         13    1    6    6    0    0 -0.17717536367E+02  0.21033455470E+02 -0.22655809420E+02  0.35631644214E+02  0.10500000000E+00 0.  1.
</event>
<event>
11    0  0.3515428E-009  0.9118800E+02  0.7816531E-02  0.1126479E+00
         25   -1    0    0    0    0  0.00000000000E+00  0.00000000000E+00  0.99999998245E-14  0.12500000000E+03  0.12500000000E+03 0.  0.
    3000001    1    3    3    0    0 -0.44375127980E+02  0.24516524962E+02  0.28526992479E+02  0.58180763826E+02  0.10000000000E+01 0. -1.
    1000022    2    1    0    0    0 -0.45369037682E+02  0.27134550574E+02  0.31805921070E+02  0.62499998616E+02  0.99999898432E+01 0.  0.
    3000022    2    3    3    0    0 -0.99390970228E+00  0.26180256116E+01  0.32789285902E+01  0.43192347900E+01  0.25000374445E+00 0.  0.
    1000022    2    1    0    0    0  0.45369037682E+02 -0.27134550574E+02 -0.31805921070E+02  0.62500001384E+02  0.10000007146E+02 0.  0.
    3000022    2    5    5    0    0  0.16471859382E+02 -0.84993290094E+01 -0.59556752564E+01  0.19470318547E+02  0.24998291631E+00 0.  0.
        -13    1    4    4    0    0 -0.72071962996E+00  0.18843186828E+01  0.24172412739E+01  0.31502657126E+01  0.10500000000E+00 0.  1.
         13    1    4    4    0    0 -0.27319007231E+00  0.73370692881E+00  0.86168731626E+00  0.11689690774E+01  0.10500000000E+00 0. -1.
    3000001    1    5    5    0    0  0.28897178300E+02 -0.18635221564E+02 -0.25850245813E+02  0.43029682837E+02  0.10000000000E+01 0. -1.
        -13    1    6    6    0    0  0.84470009092E+01 -0.43825778273E+01 -0.31251898376E+01  0.10016818322E+02  0.10500000000E+00 0.  1.
         13    1    6    6    0    0  0.80248584728E+01 -0.41167511821E+01 -0.28304854188E+01  0.94535002253E+01  0.10500000000E+00 0. -1.
</event>
<event>
11    0  0.3515428E-009  0.9118800E+02  0.7816531E-02  0.1126479E+00
         25   -1    0    0    0    0  0.00000000000E+00  0.00000000000E+00  0.99999998245E-14  0.12500000000E+03  0.12500000000E+03 0.  0.
    3000001    1    3    3    0    0 -0.70485481589E+00 -0.21691268675E+02 -0.93579022668E+01  0.23655407244E+02  0.10000000000E+01 0. -1.
    1000022    2    1    0    0    0 -0.61572175872E+01 -0.59964143150E+02 -0.13139263898E+02  0.62499999871E+02  0.99999968028E+01 0.  0.
    3000022    2    3    3    0    0 -0.54523627713E+01 -0.38272874474E+02 -0.37813616316E+01  0.38844592627E+02  0.25000053950E+00 0.  0.
    1000022    2    1    0    0    0  0.61572175872E+01  0.59964143150E+02  0.13139263898E+02  0.62500000129E+02  0.99999984097E+01 0.  0.
    3000022    2    5    5    0    0  0.30004347077E+01  0.84378036788E+01  0.49085546055E+01  0.10215456400E+02  0.25000358642E+00 0.  0.
        -13    1    4    4    0    0 -0.23050882959E+01 -0.16242015068E+02 -0.15397408370E+01  0.16477205842E+02  0.10500000000E+00 0. -1.
         13    1    4    4    0    0 -0.31472744754E+01 -0.22030859407E+02 -0.22416207946E+01  0.22367386785E+02  0.10500000000E+00 0.  1.
    3000001    1    5    5    0    0  0.31567828795E+01  0.51526339471E+02  0.82307092928E+01  0.52284543728E+02  0.10000000000E+01 0. -1.
        -13    1    6    6    0    0  0.91181894999E+00  0.26512168151E+01  0.14921841291E+01  0.31777354946E+01  0.10500000000E+00 0.  1.
         13    1    6    6    0    0  0.20886157577E+01  0.57865868637E+01  0.34163704764E+01  0.70377209057E+01  0.10500000000E+00 0. -1.
</event>
<event>
11    0  0.3515428E-009  0.9118800E+02  0.7816531E-02  0.1126479E+00
         25   -1    0    0    0    0  0.00000000000E+00  0.00000000000E+00  0.99999998245E-14  0.12500000000E+03  0.12500000000E+03 0.  0.
    3000001    1    3    3    0    0 -0.52472518611E+02 -0.70354688902E+00  0.23608305164E+02  0.57551822390E+02  0.10000000000E+01 0. -1.
    1000022    2    1    0    0    0 -0.55068940730E+02 -0.11240468534E+01  0.27792046107E+02  0.62499994985E+02  0.99999915920E+01 0.  0.
    3000022    2    3    3    0    0 -0.25964221192E+01 -0.42049996436E+00  0.41837409430E+01  0.49481725957E+01  0.24999143632E+00 0.  0.
    1000022    2    1    0    0    0  0.55068940730E+02  0.11240468534E+01 -0.27792046107E+02  0.62500005015E+02  0.10000054276E+02 0.  0.
    3000022    2    5    5    0    0  0.12168839080E+02 -0.25619642550E+01 -0.29638149910E+01  0.12786360410E+02  0.25001567630E+00 0.  0.
        -13    1    4    4    0    0 -0.11355825967E+01 -0.14034158730E+00  0.19145465944E+01  0.22328809321E+01  0.10500000000E+00 0. -1.
         13    1    4    4    0    0 -0.14608395225E+01 -0.28015837707E+00  0.22691943486E+01  0.27152916636E+01  0.10500000000E+00 0.  1.
    3000001    1    5    5    0    0  0.42900101650E+02  0.36860111084E+01 -0.24828231116E+02  0.49713644604E+02  0.10000000000E+01 0. -1.
        -13    1    6    6    0    0  0.44710524992E+01 -0.99844322192E+00 -0.11123235719E+01  0.47154520511E+01  0.10500000000E+00 0.  1.
         13    1    6    6    0    0  0.76977865810E+01 -0.15635210331E+01 -0.18514914191E+01  0.80709083592E+01  0.10500000000E+00 0. -1.
</event>
<event>
11    0  0.3515428E-009  0.9118800E+02  0.7816531E-02  0.1126479E+00
         25   -1    0    0    0    0  0.00000000000E+00  0.00000000000E+00  0.99999998245E-14  0.12500000000E+03  0.12500000000E+03 0.  0.
    3000001    1    3    3    0    0 -0.66943760106E+00 -0.22391855314E+01  0.59272622535E+00  0.26102534214E+01  0.10000000000E+01 0.  1.
    1000022    2    1    0    0    0  0.24963327670E+02 -0.56029042190E+02  0.66203144423E+01  0.62499999267E+02  0.10000002399E+02 0.  0.
    3000022    2    3    3    0    0  0.25632765271E+02 -0.53789856659E+02  0.60275882170E+01  0.59889745846E+02  0.25000588960E+00 0.  0.
    1000022    2    1    0    0    0 -0.24963327670E+02  0.56029042190E+02 -0.66203144423E+01  0.62500000733E+02  0.10000011561E+02 0.  0.
    3000022    2    5    5    0    0  0.53469563684E+00  0.10353196609E+01  0.78019474496E+00  0.14244225828E+01  0.24997925877E+00 0.  0.
        -13    1    4    4    0    0  0.19406971207E+02 -0.40773625905E+02  0.45712085599E+01  0.45387510106E+02  0.10500000000E+00 0. -1.
         13    1    4    4    0    0  0.62257940635E+01 -0.13016230753E+02  0.14563796571E+01  0.14502235740E+02  0.10500000000E+00 0.  1.
    3000001    1    5    5    0    0 -0.25498023307E+02  0.54993722529E+02 -0.74005091873E+01  0.61075578150E+02  0.10000000000E+01 0. -1.
        -13    1    6    6    0    0  0.32003542774E+00  0.52143654361E+00  0.46786186202E+00  0.77732777253E+00  0.10500000000E+00 0. -1.
         13    1    6    6    0    0  0.21466020910E+00  0.51388311734E+00  0.31233288294E+00  0.64709481023E+00  0.10500000000E+00 0.  1.
</event>
<event>
11    0  0.3515428E-009  0.9118800E+02  0.7816531E-02  0.1126479E+00
         25   -1    0    0    0    0  0.00000000000E+00  0.00000000000E+00  0.99999998245E-14  0.12500000000E+03  0.12500000000E+03 0.  0.
    3000001    1    3    3    0    0  0.45042375762E+02  0.24164304217E+02 -0.23133730879E+02  0.56115048935E+02  0.10000000000E+01 0.  1.
    1000022    2    1    0    0    0  0.51374461457E+02  0.24443083393E+02 -0.23863157979E+02  0.62499999257E+02  0.99999991323E+01 0.  0.
    3000022    2    3    3    0    0  0.63320856949E+01  0.27877917656E+00 -0.72942709976E+00  0.63849503223E+01  0.24999929422E+00 0.  0.
    1000022    2    1    0    0    0 -0.51374461457E+02 -0.24443083393E+02  0.23863157979E+02  0.62500000743E+02  0.10000008421E+02 0.  0.
    3000022    2    5    5    0    0 -0.44940137455E+01 -0.47707486809E+01  0.61670035601E+00  0.65877934656E+01  0.25000178999E+00 0.  0.
        -13    1    4    4    0    0  0.20510419601E+01  0.89344386301E-01 -0.28841888881E+00  0.20758049034E+01  0.10500000000E+00 0. -1.
         13    1    4    4    0    0  0.42810437348E+01  0.18943479026E+00 -0.44100821095E+00  0.43091454188E+01  0.10500000000E+00 0.  1.
    3000001    1    5    5    0    0 -0.46880447711E+02 -0.19672334713E+02  0.23246457623E+02  0.55912207278E+02  0.10000000000E+01 0.  1.
        -13    1    6    6    0    0 -0.27682046650E+01 -0.28556365418E+01  0.34852803647E+00  0.39937593716E+01  0.10500000000E+00 0. -1.
         13    1    6    6    0    0 -0.17258090805E+01 -0.19151121391E+01  0.26817231954E+00  0.25940340939E+01  0.10500000000E+00 0.  1.
</event>
<event>
11    0  0.3515428E-009  0.9118800E+02  0.7816531E-02  0.1126479E+00
         25   -1    0    0    0    0  0.00000000000E+00  0.00000000000E+00  0.99999998245E-14  0.12500000000E+03  0.12500000000E+03 0.  0.
    3000001    1    3    3    0    0  0.41861440247E+00  0.35329313283E+01 -0.25536157421E+01  0.44919700741E+01  0.10000000000E+01 0. -1.
    1000022    2    1    0    0    0 -0.19195088801E+02  0.31893555653E+02 -0.49199589106E+02  0.62500001396E+02  0.10000014006E+02 0.  0.
    3000022    2    3    3    0    0 -0.19613703203E+02  0.28360624324E+02 -0.46645973364E+02  0.58008031322E+02  0.25000282342E+00 0.  0.
    1000022    2    1    0    0    0  0.19195088801E+02 -0.31893555653E+02  0.49199589106E+02  0.62499998604E+02  0.99999965534E+01 0.  0.
    3000022    2    5    5    0    0  0.29513044559E+01 -0.12140091355E+02  0.20835535206E+02  0.24295555992E+02  0.24999515612E+00 0.  0.
        -13    1    4    4    0    0 -0.13718213792E+02  0.19902352489E+02 -0.32655575211E+02  0.40628692344E+02  0.10500000000E+00 0. -1.
         13    1    4    4    0    0 -0.58954894108E+01  0.84582718357E+01 -0.13990398152E+02  0.17379338978E+02  0.10500000000E+00 0.  1.
    3000001    1    5    5    0    0  0.16243784345E+02 -0.19753464298E+02  0.28364053900E+02  0.38204442612E+02  0.10000000000E+01 0. -1.
        -13    1    6    6    0    0  0.11403551032E+01 -0.47010991435E+01  0.81880836484E+01  0.95108612519E+01  0.10500000000E+00 0. -1.
         13    1    6    6    0    0  0.18109493528E+01 -0.74389922111E+01  0.12647451557E+02  0.14784694740E+02  0.10500000000E+00 0.  1.
</event>
<event>
11    0  0.3515428E-009  0.9118800E+02  0.7816531E-02  0.1126479E+00
         25   -1    0    0    0    0  0.00000000000E+00  0.00000000000E+00  0.99999998245E-14  0.12500000000E+03  0.12500000000E+03 0.  0.
    3000001    1    3    3    0    0  0.86823809327E+01  0.31364747001E+01  0.54190509192E+01  0.10751154592E+02  0.10000000000E+01 0. -1.
    1000022    2    1    0    0    0  0.58201893572E+02  0.16771810080E+02  0.11725870307E+02  0.62499999787E+02  0.99999955138E+01 0.  0.
    3000022    2    3    3    0    0  0.49519512639E+02  0.13635335380E+02  0.63068193882E+01  0.51748845195E+02  0.25001060057E+00 0.  0.
    1000022    2    1    0    0    0 -0.58201893572E+02 -0.16771810080E+02 -0.11725870307E+02  0.62500000213E+02  0.99999981721E+01 0.  0.
    3000022    2    5    5    0    0 -0.12901534719E+01  0.40874290909E+00 -0.17269203677E+01  0.22082382375E+01  0.24999081979E+00 0.  0.
        -13    1    4    4    0    0  0.19839105944E+02  0.53980782754E+01  0.25342835075E+01  0.20716249459E+02  0.10500000000E+00 0.  1.
         13    1    4    4    0    0  0.29680406695E+02  0.82372571045E+01  0.37725358806E+01  0.31032595736E+02  0.10500000000E+00 0. -1.
    3000001    1    5    5    0    0 -0.56911740100E+02 -0.17180552989E+02 -0.99989499396E+01  0.60291761975E+02  0.10000000000E+01 0.  1.
        -13    1    6    6    0    0 -0.63052476293E+00  0.16226765629E+00 -0.92279711034E+00  0.11342273916E+01  0.10500000000E+00 0. -1.
         13    1    6    6    0    0 -0.65962870900E+00  0.24647525280E+00 -0.80412325741E+00  0.10740108459E+01  0.10500000000E+00 0.  1.
</event>
<event>
11    0  0.3515428E-009  0.9118800E+02  0.7816531E-02  0.1126479E+00
         25   -1    0    0    0    0  0.00000000000E+00  0.00000000000E+00  0.99999998245E-14  0.12500000000E+03  0.12500000000E+03 0.  0.
    3000001    1    3    3    0    0 -0.13528247729E+02  0.10547754083E+01  0.12487042337E+02  0.18467600389E+02  0.10000000000E+01 0. -1.
    1000022    2    1    0    0    0 -0.51133615390E+02  0.13249351857E+02  0.31875659796E+02  0.62500001717E+02  0.10000028984E+02 0.  0.
    3000022    2    3    3    0    0 -0.37605367661E+02  0.12194576449E+02  0.19388617459E+02  0.44032401328E+02  0.25001617356E+00 0.  0.
    1000022    2    1    0    0    0  0.51133615390E+02 -0.13249351857E+02 -0.31875659796E+02  0.62499998283E+02  0.10000007521E+02 0.  0.
    3000022    2    5    5    0    0  0.50940767487E+02 -0.13523127366E+02 -0.31230163830E+02  0.61263548371E+02  0.24992031387E+00 0.  0.
        -13    1    4    4    0    0 -0.25035682258E+02  0.80721051321E+01  0.12866558464E+02  0.29283162724E+02  0.10500000000E+00 0. -1.
         13    1    4    4    0    0 -0.12569685403E+02  0.41224713166E+01  0.65220589947E+01  0.14749238605E+02  0.10500000000E+00 0.  1.
    3000001    1    5    5    0    0  0.19284790279E+00  0.27377550898E+00 -0.64549596644E+00  0.12364499123E+01  0.10000000000E+01 0.  1.
        -13    1    6    6    0    0  0.30862694233E+02 -0.81706416194E+01 -0.18849452748E+02  0.37075304095E+02  0.10500000000E+00 0. -1.
         13    1    6    6    0    0  0.20078073254E+02 -0.53524857466E+01 -0.12380711082E+02  0.24188244276E+02  0.10500000000E+00 0.  1.
</event>
<event>
11    0  0.3515428E-009  0.9118800E+02  0.7816531E-02  0.1126479E+00
         25   -1    0    0    0    0  0.00000000000E+00  0.00000000000E+00  0.99999998245E-14  0.12500000000E+03  0.12500000000E+03 0.  0.
    3000001    1    3    3    0    0  0.98779968041E+01 -0.49001420062E+01  0.55148269754E+02  0.56248714380E+02  0.10000000000E+01 0. -1.
    1000022    2    1    0    0    0  0.13147990829E+02 -0.32030042405E+01  0.60192366473E+02  0.62499998353E+02  0.99999956771E+01 0.  0.
    3000022    2    3    3    0    0  0.32699940250E+01  0.16971377657E+01  0.50440967186E+01  0.62512839730E+01  0.25000416948E+00 0.  0.
    1000022    2    1    0    0    0 -0.13147990829E+02  0.32030042405E+01 -0.60192366473E+02  0.62500001647E+02  0.10000016261E+02 0.  0.
    3000022    2    5    5    0    0 -0.99671672395E+01 -0.24439262719E+01 -0.37314150717E+02  0.38700459233E+02  0.25000544506E+00 0.  0.
        -13    1    4    4    0    0  0.22447385367E+01  0.11265197592E+01  0.34969890190E+01  0.43067220789E+01  0.10500000000E+00 0.  1.
         13    1    4    4    0    0  0.10252554882E+01  0.57061800650E+00  0.15471076997E+01  0.19445618941E+01  0.10500000000E+00 0. -1.
    3000001    1    5    5    0    0 -0.31808235896E+01  0.56469305124E+01 -0.22878215756E+02  0.23799542414E+02  0.10000000000E+01 0. -1.
        -13    1    6    6    0    0 -0.69668211735E+01 -0.17553124873E+01 -0.26105604518E+02  0.27076398051E+02  0.10500000000E+00 0. -1.
         13    1    6    6    0    0 -0.30003460660E+01 -0.68861378467E+00 -0.11208546199E+02  0.11624061182E+02  0.10500000000E+00 0.  1.
</event>
<event>
11    0  0.3515428E-009  0.9118800E+02  0.7816531E-02  0.1126479E+00
         25   -1    0    0    0    0  0.00000000000E+00  0.00000000000E+00  0.99999998245E-14  0.12500000000E+03  0.12500000000E+03 0.  0.
    3000001    1    3    3    0    0  0.13884023120E+02  0.12053192379E+02 -0.31701990528E+02  0.36661447707E+02  0.10000000000E+01 0. -1.
    1000022    2    1    0    0    0  0.30186296474E+02  0.22021711533E+02 -0.49092584664E+02  0.62499999395E+02  0.99999890854E+01 0.  0.
    3000022    2    3    3    0    0  0.16302273354E+02  0.99685191534E+01 -0.17390594136E+02  0.25838551688E+02  0.24999660595E+00 0.  0.
    1000022    2    1    0    0    0 -0.30186296474E+02 -0.22021711533E+02  0.49092584664E+02  0.62500000605E+02  0.99999966515E+01 0.  0.
    3000022    2    5    5    0    0 -0.18488271660E+02 -0.13015354326E+02  0.37125246374E+02  0.43469093102E+02  0.24999901734E+00 0.  0.
        -13    1    4    4    0    0  0.68105328835E+01  0.42295184761E+01 -0.73415263468E+01  0.10871118562E+02  0.10500000000E+00 0.  1.
         13    1    4    4    0    0  0.94917404703E+01  0.57390006773E+01 -0.10049067789E+02  0.14967433125E+02  0.10500000000E+00 0. -1.
    3000001    1    5    5    0    0 -0.11698024813E+02 -0.90063572068E+01  0.11967338290E+02  0.19030907504E+02  0.10000000000E+01 0. -1.
        -13    1    6    6    0    0 -0.65811215535E+01 -0.45865036182E+01  0.13089490031E+02  0.15352294637E+02  0.10500000000E+00 0. -1.
         13    1    6    6    0    0 -0.11907150107E+02 -0.84288507076E+01  0.24035756343E+02  0.28116798465E+02  0.10500000000E+00 0.  1.
</event>
<event>
11    0  0.3515428E-009  0.9118800E+02  0.7816531E-02  0.1126479E+00
         25   -1    0    0    0    0  0.00000000000E+00  0.00000000000E+00  0.99999998245E-14  0.12500000000E+03  0.12500000000E+03 0.  0.
    3000001    1    3    3    0    0 -0.40167611541E+02  0.14000328887E+02 -0.33531519396E+02  0.54173877643E+02  0.10000000000E+01 0.  1.
    1000022    2    1    0    0    0 -0.46965357519E+02  0.12367559494E+02 -0.38046663533E+02  0.62499999878E+02  0.10000002197E+02 0.  0.
    3000022    2    3    3    0    0 -0.67977459780E+01 -0.16327693931E+01 -0.45151441372E+01  0.83261222347E+01  0.24999722906E+00 0.  0.
    1000022    2    1    0    0    0  0.46965357519E+02 -0.12367559494E+02  0.38046663533E+02  0.62500000122E+02  0.10000003728E+02 0.  0.
    3000022    2    5    5    0    0  0.16254833351E+02 -0.47825307574E+01  0.19430434719E+02  0.25781708620E+02  0.24999653588E+00 0.  0.
        -13    1    4    4    0    0 -0.42542292336E+01 -0.98860157109E+00 -0.27594702729E+01  0.51673494778E+01  0.10500000000E+00 0. -1.
         13    1    4    4    0    0 -0.25435167444E+01 -0.64416782199E+00 -0.17556738643E+01  0.31587727569E+01  0.10500000000E+00 0.  1.
    3000001    1    5    5    0    0  0.30710524168E+02 -0.75850287361E+01  0.18616228814E+02  0.36718291503E+02  0.10000000000E+01 0.  1.
        -13    1    6    6    0    0  0.94253633991E+01 -0.27815167020E+01  0.11171266930E+02  0.14878929403E+02  0.10500000000E+00 0. -1.
         13    1    6    6    0    0  0.68294699519E+01 -0.20010140555E+01  0.82591677887E+01  0.10902779216E+02  0.10500000000E+00 0.  1.
</event>
<event>
11    0  0.3515428E-009  0.9118800E+02  0.7816531E-02  0.1126479E+00
         25   -1    0    0    0    0  0.00000000000E+00  0.00000000000E+00  0.99999998245E-14  0.12500000000E+03  0.12500000000E+03 0.  0.
    3000001    1    3    3    0    0  0.15952639783E+02  0.36569507820E+01 -0.23338571917E+02  0.28522779391E+02  0.10000000000E+01 0.  1.
    1000022    2    1    0    0    0  0.26927731902E+02  0.14824505242E+02 -0.53491887214E+02  0.62500004785E+02  0.99999949663E+01 0.  0.
    3000022    2    3    3    0    0  0.10975092119E+02  0.11167554460E+02 -0.30153315297E+02  0.33977225394E+02  0.25000482533E+00 0.  0.
    1000022    2    1    0    0    0 -0.26927731902E+02 -0.14824505242E+02  0.53491887214E+02  0.62499995215E+02  0.99999351539E+01 0.  0.
    3000022    2    5    5    0    0 -0.53711102235E+01  0.29414270655E+00  0.14243145996E+02  0.15227115662E+02  0.24999713638E+00 0.  0.
        -13    1    4    4    0    0  0.33666982544E+01  0.34412675814E+01 -0.91716100216E+01  0.10358881942E+02  0.10500000000E+00 0.  1.
         13    1    4    4    0    0  0.76083938646E+01  0.77262868786E+01 -0.20981705275E+02  0.23618343452E+02  0.10500000000E+00 0. -1.
    3000001    1    5    5    0    0 -0.21556621679E+02 -0.15118647949E+02  0.39248741218E+02  0.47272879553E+02  0.10000000000E+01 0. -1.
        -13    1    6    6    0    0 -0.37371014570E+01  0.24544908426E+00  0.98442303136E+01  0.10533093943E+02  0.10500000000E+00 0.  1.
         13    1    6    6    0    0 -0.16340087665E+01  0.48693622292E-01  0.43989156821E+01  0.46940217188E+01  0.10500000000E+00 0. -1.
</event>
<event>
11    0  0.3515428E-009  0.9118800E+02  0.7816531E-02  0.1126479E+00
         25   -1    0    0    0    0  0.00000000000E+00  0.00000000000E+00  0.99999998245E-14  0.12500000000E+03  0.12500000000E+03 0.  0.
    3000001    1    3    3    0    0 -0.19291693330E+02 -0.30927336082E+02  0.21848154389E+02  0.42508956690E+02  0.10000000000E+01 0.  1.
    1000022    2    1    0    0    0 -0.23364970326E+02 -0.49054957626E+02  0.29222237031E+02  0.62500001868E+02  0.10000019522E+02 0.  0.
    3000022    2    3    3    0    0 -0.40732769953E+01 -0.18127621544E+02  0.73740826418E+01  0.19991045178E+02  0.25008833561E+00 0.  0.
    1000022    2    1    0    0    0  0.23364970326E+02  0.49054957626E+02 -0.29222237031E+02  0.62499998132E+02  0.99999961692E+01 0.  0.
    3000022    2    5    5    0    0 -0.50078584423E+00 -0.77502486416E-01 -0.60304027670E+00  0.82641077784E+00  0.25000820230E+00 0.  0.
        -13    1    4    4    0    0 -0.26905832750E+01 -0.12169403465E+02  0.49130847721E+01  0.13397128275E+02  0.10500000000E+00 0.  1.
         13    1    4    4    0    0 -0.13826937203E+01 -0.59582180796E+01  0.24609978696E+01  0.65939169030E+01  0.10500000000E+00 0. -1.
    3000001    1    5    5    0    0  0.23865756170E+02  0.49132460112E+02 -0.28619196754E+02  0.61673587354E+02  0.10000000000E+01 0.  1.
        -13    1    6    6    0    0 -0.10051548175E+00 -0.15604788937E-01 -0.17091726884E+00  0.22491016939E+00  0.10500000000E+00 0.  1.
         13    1    6    6    0    0 -0.40027036248E+00 -0.61897697479E-01 -0.43212300787E+00  0.60150060844E+00  0.10500000000E+00 0. -1.
</event>
<event>
11    0  0.3515428E-009  0.9118800E+02  0.7816531E-02  0.1126479E+00
         25   -1    0    0    0    0  0.00000000000E+00  0.00000000000E+00  0.99999998245E-14  0.12500000000E+03  0.12500000000E+03 0.  0.
    3000001    1    3    3    0    0 -0.20574325344E+02 -0.25746961089E+02  0.44763265220E+01  0.33275311686E+02  0.10000000000E+01 0.  1.
    1000022    2    1    0    0    0 -0.30612742783E+02 -0.52538566608E+02  0.10431152118E+02  0.62499999890E+02  0.10000002495E+02 0.  0.
    3000022    2    3    3    0    0 -0.10038417439E+02 -0.26791605519E+02  0.59548255963E+01  0.29224688204E+02  0.25000361371E+00 0.  0.
    1000022    2    1    0    0    0  0.30612742783E+02  0.52538566608E+02 -0.10431152118E+02  0.62500000110E+02  0.10000003867E+02 0.  0.
    3000022    2    5    5    0    0  0.16646510019E+02  0.34110671851E+02 -0.10401419691E+02  0.39356019320E+02  0.24999041115E+00 0.  0.
        -13    1    4    4    0    0 -0.73144855743E+01 -0.19610212482E+02  0.43388872842E+01  0.21375198260E+02  0.10500000000E+00 0.  1.
         13    1    4    4    0    0 -0.27239318645E+01 -0.71813930370E+01  0.16159383121E+01  0.78494899441E+01  0.10500000000E+00 0. -1.
    3000001    1    5    5    0    0  0.13966232764E+02  0.18427894757E+02 -0.29732427630E-01  0.23143980790E+02  0.10000000000E+01 0. -1.
        -13    1    6    6    0    0  0.77446366820E+01  0.15736072808E+02 -0.47722758796E+01  0.18176606581E+02  0.10500000000E+00 0.  1.
         13    1    6    6    0    0  0.89018733366E+01  0.18374599043E+02 -0.56291438111E+01  0.21179412738E+02  0.10500000000E+00 0. -1.
</event>
<event>
11    0  0.3515428E-009  0.9118800E+02  0.7816531E-02  0.1126479E+00
         25   -1    0    0    0    0  0.00000000000E+00  0.00000000000E+00  0.99999998245E-14  0.12500000000E+03  0.12500000000E+03 0.  0.
    3000001    1    3    3    0    0 -0.60182802430E+02  0.14520430358E+02  0.48451146659E-01  0.61917808049E+02  0.10000000000E+01 0. -1.
    1000022    2    1    0    0    0 -0.59988444068E+02  0.14400151412E+02  0.52196030456E+00  0.62500002787E+02  0.10000006171E+02 0.  0.
    3000022    2    3    3    0    0  0.19435836135E+00 -0.12027894604E+00  0.47350915790E+00  0.58219473835E+00  0.24999518646E+00 0.  0.
    1000022    2    1    0    0    0  0.59988444068E+02 -0.14400151412E+02 -0.52196030456E+00  0.62499997213E+02  0.99999713287E+01 0.  0.
    3000022    2    5    5    0    0  0.57384421779E+02 -0.15263284309E+02 -0.15611484662E+01  0.59400667847E+02  0.24989065964E+00 0.  0.
        -13    1    4    4    0    0  0.16652530639E+00 -0.11867637096E+00  0.33134753986E+00  0.40327527926E+00  0.10500000000E+00 0. -1.
         13    1    4    4    0    0  0.27833054957E-01 -0.16025750883E-02  0.14216161804E+00  0.17891945909E+00  0.10500000000E+00 0.  1.
    3000001    1    5    5    0    0  0.26040222892E+01  0.86313289653E+00  0.10391881617E+01  0.30993293654E+01  0.10000000000E+01 0.  1.
        -13    1    6    6    0    0  0.22769077894E+02 -0.59981904757E+01 -0.64691626678E+00  0.23555014811E+02  0.10500000000E+00 0.  1.
         13    1    6    6    0    0  0.34615343886E+02 -0.92650938332E+01 -0.91423219945E+00  0.35845653036E+02  0.10500000000E+00 0. -1.
</event>
<event>
11    0  0.3515428E-009  0.9118800E+02  0.7816531E-02  0.1126479E+00
         25   -1    0    0    0    0  0.00000000000E+00  0.00000000000E+00  0.99999998245E-14  0.12500000000E+03  0.12500000000E+03 0.  0.
    3000001    1    3    3    0    0  0.32645971105E+02 -0.49908819696E+02 -0.86345329187E+01  0.60267776394E+02  0.10000000000E+01 0.  1.
    1000022    2    1    0    0    0  0.34846671010E+02 -0.50149676253E+02 -0.87732223953E+01  0.62500000751E+02  0.10000007696E+02 0.  0.
    3000022    2    3    3    0    0  0.22006999051E+01 -0.24085655745E+00 -0.13868947659E+00  0.22322243567E+01  0.24999770849E+00 0.  0.
    1000022    2    1    0    0    0 -0.34846671010E+02  0.50149676253E+02  0.87732223953E+01  0.62499999249E+02  0.99999983068E+01 0.  0.
    3000022    2    5    5    0    0 -0.16812224506E+02  0.30521070064E+02  0.83022146059E+01  0.35821444379E+02  0.24999859939E+00 0.  0.
        -13    1    4    4    0    0  0.15823929134E+01 -0.13182397293E+00 -0.97325959538E-01  0.15943156007E+01  0.10500000000E+00 0.  1.
         13    1    4    4    0    0  0.61830699167E+00 -0.10903258452E+00 -0.41363517053E-01  0.63790875599E+00  0.10500000000E+00 0. -1.
    3000001    1    5    5    0    0 -0.18034446504E+02  0.19628606189E+02  0.47100778942E+00  0.26678554870E+02  0.10000000000E+01 0.  1.
        -13    1    6    6    0    0 -0.58066439291E+01  0.10506691946E+02  0.28057811605E+01  0.12328467962E+02  0.10500000000E+00 0.  1.
         13    1    6    6    0    0 -0.11005580577E+02  0.20014378119E+02  0.54964334454E+01  0.23492976417E+02  0.10500000000E+00 0. -1.
</event>
<event>
11    0  0.3515428E-009  0.9118800E+02  0.7816531E-02  0.1126479E+00
         25   -1    0    0    0    0  0.00000000000E+00  0.00000000000E+00  0.99999998245E-14  0.12500000000E+03  0.12500000000E+03 0.  0.
    3000001    1    3    3    0    0  0.22445550681E+01 -0.35310747484E+02  0.39930364991E+01  0.35620657711E+02  0.10000000000E+01 0.  1.
    1000022    2    1    0    0    0 -0.42621665987E+01 -0.60832339159E+02  0.93547054949E+01  0.62500000354E+02  0.99999988833E+01 0.  0.
    3000022    2    3    3    0    0 -0.65067216668E+01 -0.25521591675E+02  0.53616689958E+01  0.26879342643E+02  0.24999595793E+00 0.  0.
    1000022    2    1    0    0    0  0.42621665987E+01  0.60832339159E+02 -0.93547054949E+01  0.62499999646E+02  0.99999944599E+01 0.  0.
    3000022    2    5    5    0    0  0.67521100013E+01  0.37866733199E+02 -0.83240535566E+01  0.39355213653E+02  0.25000281951E+00 0.  0.
        -13    1    4    4    0    0 -0.48943916976E+01 -0.19210197249E+02  0.40104684844E+01  0.20225766510E+02  0.10500000000E+00 0.  1.
         13    1    4    4    0    0 -0.16123299692E+01 -0.63113944262E+01  0.13512005114E+01  0.66535761328E+01  0.10500000000E+00 0. -1.
    3000001    1    5    5    0    0 -0.24899434026E+01  0.22965605960E+02 -0.10306519382E+01  0.23144785993E+02  0.10000000000E+01 0. -1.
        -13    1    6    6    0    0  0.39191954136E+01  0.21669160863E+02 -0.48024802271E+01  0.22538577296E+02  0.10500000000E+00 0. -1.
         13    1    6    6    0    0  0.28329145877E+01  0.16197572336E+02 -0.35215733295E+01  0.16816636356E+02  0.10500000000E+00 0.  1.
</event>
<event>
11    0  0.3515428E-009  0.9118800E+02  0.7816531E-02  0.1126479E+00
         25   -1    0    0    0    0  0.00000000000E+00  0.00000000000E+00  0.99999998245E-14  0.12500000000E+03  0.12500000000E+03 0.  0.
    3000001    1    3    3    0    0 -0.18297023132E+01  0.20899795117E+02  0.37128970322E+02  0.42658055319E+02  0.10000000000E+01 0. -1.
    1000022    2    1    0    0    0  0.20931640135E+01  0.34250176574E+02  0.51271766939E+02  0.62499999764E+02  0.99999977257E+01 0.  0.
    3000022    2    3    3    0    0  0.39228663267E+01  0.13350381457E+02  0.14142796617E+02  0.19841944444E+02  0.24999584006E+00 0.  0.
    1000022    2    1    0    0    0 -0.20931640135E+01 -0.34250176574E+02 -0.51271766939E+02  0.62500000236E+02  0.10000000678E+02 0.  0.
    3000022    2    5    5    0    0 -0.56033485182E+01 -0.20626128069E+02 -0.27115489902E+02  0.34527481343E+02  0.25000313177E+00 0.  0.
        -13    1    4    4    0    0  0.15749658992E+01  0.55890593185E+01  0.59026505947E+01  0.82807252516E+01  0.10500000000E+00 0.  1.
         13    1    4    4    0    0  0.23479004275E+01  0.77613221381E+01  0.82401460226E+01  0.11561219193E+02  0.10500000000E+00 0. -1.
    3000001    1    5    5    0    0  0.35101845047E+01 -0.13624048505E+02 -0.24156277037E+02  0.27972518893E+02  0.10000000000E+01 0.  1.
        -13    1    6    6    0    0 -0.34882749519E+01 -0.12762813232E+02 -0.16877605800E+02  0.21445793673E+02  0.10500000000E+00 0.  1.
         13    1    6    6    0    0 -0.21150735663E+01 -0.78633148365E+01 -0.10237884102E+02  0.13081687670E+02  0.10500000000E+00 0. -1.
</event>
<event>
11    0  0.3515428E-009  0.9118800E+02  0.7816531E-02  0.1126479E+00
         25   -1    0    0    0    0  0.00000000000E+00  0.00000000000E+00  0.99999998245E-14  0.12500000000E+03  0.12500000000E+03 0.  0.
    3000001    1    3    3    0    0 -0.32249241516E+02 -0.78110332814E+01  0.10774275416E+02  0.34901444526E+02  0.10000000000E+01 0.  1.
    1000022    2    1    0    0    0 -0.53186467963E+02 -0.17210490255E+02  0.26100740400E+02  0.62500000088E+02  0.10000000619E+02 0.  0.
    3000022    2    3    3    0    0 -0.20937226447E+02 -0.93994569737E+01  0.15326464984E+02  0.27598555562E+02  0.24999501698E+00 0.  0.
    1000022    2    1    0    0    0  0.53186467963E+02  0.17210490255E+02 -0.26100740400E+02  0.62499999912E+02  0.99999995180E+01 0.  0.
    3000022    2    5    5    0    0  0.44366137261E+02  0.17819813976E+02 -0.20775551860E+02  0.52130470411E+02  0.24996912956E+00 0.  0.
        -13    1    4    4    0    0 -0.13191993927E+02 -0.59028251613E+01  0.95828803351E+01  0.17341126526E+02  0.10500000000E+00 0.  1.
         13    1    4    4    0    0 -0.77452325200E+01 -0.34966318124E+01  0.57435846485E+01  0.10257429036E+02  0.10500000000E+00 0. -1.
    3000001    1    5    5    0    0  0.88203307021E+01 -0.60932372061E+00 -0.53251885400E+01  0.10369529501E+02  0.10000000000E+01 0. -1.
        -13    1    6    6    0    0  0.31571183001E+02  0.12643387110E+02 -0.14804737030E+02  0.37091590653E+02  0.10500000000E+00 0. -1.
         13    1    6    6    0    0  0.12794954260E+02  0.51764268662E+01 -0.59708148302E+01  0.15038879757E+02  0.10500000000E+00 0.  1.
</event>
<event>
11    0  0.3515428E-009  0.9118800E+02  0.7816531E-02  0.1126479E+00
         25   -1    0    0    0    0  0.00000000000E+00  0.00000000000E+00  0.99999998245E-14  0.12500000000E+03  0.12500000000E+03 0.  0.
    3000001    1    3    3    0    0 -0.44768557054E+01  0.25160298640E+02  0.22908177457E+02  0.34334639347E+02  0.10000000000E+01 0. -1.
    1000022    2    1    0    0    0 -0.77802776462E+01  0.50738906438E+02  0.34223977194E+02  0.62500001025E+02  0.10000008321E+02 0.  0.
    3000022    2    3    3    0    0 -0.33034219409E+01  0.25578607797E+02  0.11315799737E+02  0.28165361678E+02  0.25000282573E+00 0.  0.
    1000022    2    1    0    0    0  0.77802776462E+01 -0.50738906438E+02 -0.34223977194E+02  0.62499998975E+02  0.99999955114E+01 0.  0.
    3000022    2    5    5    0    0  0.48554446571E+01 -0.47014930711E+02 -0.29380657469E+02  0.55653073447E+02  0.24999654727E+00 0.  0.
        -13    1    4    4    0    0 -0.14851278161E+01  0.11159398719E+02  0.48853094781E+01  0.12272532668E+02  0.10500000000E+00 0.  1.
         13    1    4    4    0    0 -0.18182941248E+01  0.14419209078E+02  0.64304902590E+01  0.15892829010E+02  0.10500000000E+00 0. -1.
    3000001    1    5    5    0    0  0.29248329891E+01 -0.37239757267E+01 -0.48433197250E+01  0.68469255280E+01  0.10000000000E+01 0.  1.
        -13    1    6    6    0    0  0.23771551672E+01 -0.22627584372E+02 -0.14207237504E+02  0.26823777954E+02  0.10500000000E+00 0. -1.
         13    1    6    6    0    0  0.24782894899E+01 -0.24387346339E+02 -0.15173419965E+02  0.28829295494E+02  0.10500000000E+00 0.  1.
</event>
<event>
11    0  0.3515428E-009  0.9118800E+02  0.7816531E-02  0.1126479E+00
         25   -1    0    0    0    0  0.00000000000E+00  0.00000000000E+00  0.99999998245E-14  0.12500000000E+03  0.12500000000E+03 0.  0.
    3000001    1    3    3    0    0 -0.90646575043E+01  0.37954569856E+01 -0.11517636989E+02  0.15173314444E+02  0.10000000000E+01 0. -1.
    1000022    2    1    0    0    0 -0.28348893332E+02  0.27901324273E+01 -0.54724814821E+02  0.62499999800E+02  0.10000001286E+02 0.  0.
    3000022    2    3    3    0    0 -0.19284235828E+02 -0.10053245583E+01 -0.43207177831E+02  0.47326685356E+02  0.25000340424E+00 0.  0.
    1000022    2    1    0    0    0  0.28348893332E+02 -0.27901324273E+01  0.54724814821E+02  0.62500000200E+02  0.10000003787E+02 0.  0.
    3000022    2    5    5    0    0  0.19013075245E+02 -0.39743230153E+01  0.27435952465E+02  0.33616755656E+02  0.24999897046E+00 0.  0.
        -13    1    4    4    0    0 -0.12322965938E+02 -0.59865953563E+00 -0.27509607248E+02  0.30149683227E+02  0.10500000000E+00 0. -1.
         13    1    4    4    0    0 -0.69612698901E+01 -0.40666502263E+00 -0.15697570583E+02  0.17177002129E+02  0.10500000000E+00 0.  1.
    3000001    1    5    5    0    0  0.93358180866E+01  0.11841905880E+01  0.27288862356E+02  0.28883244544E+02  0.10000000000E+01 0. -1.
        -13    1    6    6    0    0  0.12541795977E+02 -0.25959543748E+01  0.18005276122E+02  0.22096076997E+02  0.10500000000E+00 0. -1.
         13    1    6    6    0    0  0.64712792688E+01 -0.13783686405E+01  0.94306763426E+01  0.11520678659E+02  0.10500000000E+00 0.  1.
</event>
<event>
11    0  0.3515428E-009  0.9118800E+02  0.7816531E-02  0.1126479E+00
         25   -1    0    0    0    0  0.00000000000E+00  0.00000000000E+00  0.99999998245E-14  0.12500000000E+03  0.12500000000E+03 0.  0.
    3000001    1    3    3    0    0 -0.27431322886E+02  0.69559201414E+01 -0.56099352819E+01  0.28867519362E+02  0.10000000000E+01 0. -1.
    1000022    2    1    0    0    0 -0.61054700866E+02  0.64151292937E+01 -0.61171574178E+01  0.62500000342E+02  0.10000002314E+02 0.  0.
    3000022    2    3    3    0    0 -0.33623377980E+02 -0.54079084768E+00 -0.50722213587E+00  0.33632480980E+02  0.25000209112E+00 0.  0.
    1000022    2    1    0    0    0  0.61054700866E+02 -0.64151292937E+01  0.61171574178E+01  0.62499999658E+02  0.99999980336E+01 0.  0.
    3000022    2    5    5    0    0  0.39238718337E+02  0.34293335965E+00  0.55567967480E+01  0.39632500700E+02  0.25000315188E+00 0.  0.
        -13    1    4    4    0    0 -0.22967984131E+02 -0.41544450000E+00 -0.36613979464E+00  0.22974898749E+02  0.10500000000E+00 0. -1.
         13    1    4    4    0    0 -0.10655393849E+02 -0.12534634769E+00 -0.14108234123E+00  0.10657582231E+02  0.10500000000E+00 0.  1.
    3000001    1    5    5    0    0  0.21815982528E+02 -0.67580626533E+01  0.56036066976E+00  0.22867498958E+02  0.10000000000E+01 0.  1.
        -13    1    6    6    0    0  0.26718019769E+02  0.19166448608E+00  0.37549371571E+01  0.26981473157E+02  0.10500000000E+00 0. -1.
         13    1    6    6    0    0  0.12520698568E+02  0.15126887358E+00  0.18018595909E+01  0.12651027543E+02  0.10500000000E+00 0.  1.
</event>
<event>
11    0  0.3515428E-009  0.9118800E+02  0.7816531E-02  0.1126479E+00
         25   -1    0    0    0    0  0.00000000000E+00  0.00000000000E+00  0.99999998245E-14  0.12500000000E+03  0.12500000000E+03 0.  0.
    3000001    1    3    3    0    0  0.24541817081E+02 -0.29592553249E+02  0.13071075318E+02  0.40618628773E+02  0.10000000000E+01 0.  1.
    1000022    2    1    0    0    0  0.35737818286E+02 -0.42731840665E+02  0.26515054132E+02  0.62499999504E+02  0.99999989942E+01 0.  0.
    3000022    2    3    3    0    0  0.11196001205E+02 -0.13139287415E+02  0.13443978814E+02  0.21881370731E+02  0.25000383726E+00 0.  0.
    1000022    2    1    0    0    0 -0.35737818286E+02  0.42731840665E+02 -0.26515054132E+02  0.62500000496E+02  0.10000005198E+02 0.  0.
    3000022    2    5    5    0    0 -0.15871816339E+02  0.25461066050E+02 -0.11183011965E+02  0.32020348166E+02  0.25000352068E+00 0.  0.
        -13    1    4    4    0    0  0.53201346168E+01 -0.63475274908E+01  0.64434429908E+01  0.10493994481E+02  0.10500000000E+00 0. -1.
         13    1    4    4    0    0  0.58758665887E+01 -0.67917599246E+01  0.70005358233E+01  0.11387376250E+02  0.10500000000E+00 0.  1.
    3000001    1    5    5    0    0 -0.19866001948E+02  0.17270774614E+02 -0.15332042167E+02  0.30479652330E+02  0.10000000000E+01 0. -1.
        -13    1    6    6    0    0 -0.10404104252E+02  0.16767998865E+02 -0.73160515924E+01  0.21046301507E+02  0.10500000000E+00 0. -1.
         13    1    6    6    0    0 -0.54677120872E+01  0.86930671856E+01 -0.38669603725E+01  0.10974046659E+02  0.10500000000E+00 0.  1.
</event>
<event>
11    0  0.3515428E-009  0.9118800E+02  0.7816531E-02  0.1126479E+00
         25   -1    0    0    0    0  0.00000000000E+00  0.00000000000E+00  0.99999998245E-14  0.12500000000E+03  0.12500000000E+03 0.  0.
    3000001    1    3    3    0    0  0.42702855375E+01 -0.34722141937E+01  0.35949612504E+01  0.66494628633E+01  0.10000000000E+01 0. -1.
    1000022    2    1    0    0    0  0.46194978465E+02 -0.65505610741E+01  0.40365383149E+02  0.62500000165E+02  0.99999989027E+01 0.  0.
    3000022    2    3    3    0    0  0.41924692928E+02 -0.30783468804E+01  0.36770421899E+02  0.55850537302E+02  0.24998733599E+00 0.  0.
    1000022    2    1    0    0    0 -0.46194978465E+02  0.65505610741E+01 -0.40365383149E+02  0.62499999835E+02  0.99999968411E+01 0.  0.
    3000022    2    5    5    0    0 -0.37234850305E+02  0.12620583216E+01 -0.31970035551E+02  0.49093508150E+02  0.25000177557E+00 0.  0.
        -13    1    4    4    0    0  0.16393351031E+02 -0.12556344753E+01  0.14426921434E+02  0.21873857982E+02  0.10500000000E+00 0. -1.
         13    1    4    4    0    0  0.25531341896E+02 -0.18227124051E+01  0.22343500465E+02  0.33976679319E+02  0.10500000000E+00 0.  1.
    3000001    1    5    5    0    0 -0.89601281599E+01  0.52885027526E+01 -0.83953475985E+01  0.13406491685E+02  0.10000000000E+01 0.  1.
        -13    1    6    6    0    0 -0.23242155314E+02  0.77653608715E+00 -0.19877263145E+02  0.30592767235E+02  0.10500000000E+00 0.  1.
         13    1    6    6    0    0 -0.13992694991E+02  0.48552223441E+00 -0.12092772405E+02  0.18500740915E+02  0.10500000000E+00 0. -1.
</event>
<event>
11    0  0.3515428E-009  0.9118800E+02  0.7816531E-02  0.1126479E+00
         25   -1    0    0    0    0  0.00000000000E+00  0.00000000000E+00  0.99999998245E-14  0.12500000000E+03  0.12500000000E+03 0.  0.
    3000001    1    3    3    0    0  0.16551059753E+02 -0.14350814313E+02  0.21315271518E+01  0.22032404734E+02  0.10000000000E+01 0.  1.
    1000022    2    1    0    0    0  0.52621636263E+02 -0.30013507477E+02  0.11679167270E+02  0.62500001404E+02  0.99999996681E+01 0.  0.
    3000022    2    3    3    0    0  0.36070576510E+02 -0.15662693165E+02  0.95476401178E+01  0.40467596670E+02  0.25000298950E+00 0.  0.
    1000022    2    1    0    0    0 -0.52621636263E+02  0.30013507477E+02 -0.11679167270E+02  0.62499998596E+02  0.99999821171E+01 0.  0.
    3000022    2    5    5    0    0 -0.28473018335E+02  0.10730101292E+02 -0.45199988456E+01  0.30762651599E+02  0.24999393191E+00 0.  0.
        -13    1    4    4    0    0  0.26397780522E+02 -0.11454722080E+02  0.70219997847E+01  0.29620482447E+02  0.10500000000E+00 0.  1.
         13    1    4    4    0    0  0.96727959877E+01 -0.42079710850E+01  0.25256403332E+01  0.10847114223E+02  0.10500000000E+00 0. -1.
    3000001    1    5    5    0    0 -0.24148617927E+02  0.19283406185E+02 -0.71591684240E+01  0.31737346997E+02  0.10000000000E+01 0. -1.
        -13    1    6    6    0    0 -0.16816451716E+02  0.62782671493E+01 -0.26990670608E+01  0.18152291170E+02  0.10500000000E+00 0.  1.
         13    1    6    6    0    0 -0.11656566619E+02  0.44518341432E+01 -0.18209317848E+01  0.12610360429E+02  0.10500000000E+00 0. -1.
</event>
<event>
11    0  0.3515428E-009  0.9118800E+02  0.7816531E-02  0.1126479E+00
         25   -1    0    0    0    0  0.00000000000E+00  0.00000000000E+00  0.99999998245E-14  0.12500000000E+03  0.12500000000E+03 0.  0.
    3000001    1    3    3    0    0  0.44547703462E+01 -0.43680002543E+01  0.59759994885E+01  0.86969520492E+01  0.10000000000E+01 0.  1.
    1000022    2    1    0    0    0  0.16179836631E+02 -0.19360861902E+02  0.56299378052E+02  0.62500000371E+02  0.99999995166E+01 0.  0.
    3000022    2    3    3    0    0  0.11725066285E+02 -0.14992861648E+02  0.50323378563E+02  0.53803048322E+02  0.24999779964E+00 0.  0.
    1000022    2    1    0    0    0 -0.16179836631E+02  0.19360861902E+02 -0.56299378052E+02  0.62499999629E+02  0.99999948807E+01 0.  0.
    3000022    2    5    5    0    0 -0.23077785122E+01 -0.66512841808E+00 -0.85696055302E+01  0.89033069165E+01  0.24999526631E+00 0.  0.
        -13    1    4    4    0    0  0.86903913595E+01 -0.11065147264E+02  0.37160720936E+02  0.39735256277E+02  0.10500000000E+00 0.  1.
         13    1    4    4    0    0  0.30346749252E+01 -0.39277143842E+01  0.13162657628E+02  0.14067792044E+02  0.10500000000E+00 0. -1.
    3000001    1    5    5    0    0 -0.13872058119E+02  0.20025990320E+02 -0.47729772522E+02  0.53596692713E+02  0.10000000000E+01 0. -1.
        -13    1    6    6    0    0 -0.66752787919E+00 -0.16633053986E+00 -0.25975540337E+01  0.26891580980E+01  0.10500000000E+00 0.  1.
         13    1    6    6    0    0 -0.16402506330E+01 -0.49879787822E+00 -0.59720514965E+01  0.62141488185E+01  0.10500000000E+00 0. -1.
</event>
<event>
11    0  0.3515428E-009  0.9118800E+02  0.7816531E-02  0.1126479E+00
         25   -1    0    0    0    0  0.00000000000E+00  0.00000000000E+00  0.99999998245E-14  0.12500000000E+03  0.12500000000E+03 0.  0.
    3000001    1    3    3    0    0 -0.74606107888E+01 -0.11472748280E+02 -0.70053544695E+00  0.13739556629E+02  0.10000000000E+01 0. -1.
    1000022    2    1    0    0    0 -0.27859802551E+02 -0.51080248279E+02 -0.20515605544E+02  0.62499997432E+02  0.99999622872E+01 0.  0.
    3000022    2    3    3    0    0 -0.20399191763E+02 -0.39607499999E+02 -0.19815070097E+02  0.48760440803E+02  0.25000734601E+00 0.  0.
    1000022    2    1    0    0    0  0.27859802551E+02  0.51080248279E+02  0.20515605544E+02  0.62500002568E+02  0.99999943864E+01 0.  0.
    3000022    2    5    5    0    0  0.21746636148E+02  0.35892778345E+02  0.18872844027E+02  0.46015806747E+02  0.25001563886E+00 0.  0.
        -13    1    4    4    0    0 -0.76376060610E+01 -0.14736218393E+02 -0.74281831271E+01  0.18184556317E+02  0.10500000000E+00 0. -1.
         13    1    4    4    0    0 -0.12761585702E+02 -0.24871281606E+02 -0.12386886970E+02  0.30575884486E+02  0.10500000000E+00 0.  1.
    3000001    1    5    5    0    0  0.61131664037E+01  0.15187469934E+02  0.16427615169E+01  0.16484195821E+02  0.10000000000E+01 0.  1.
        -13    1    6    6    0    0  0.71233103134E+01  0.11850243416E+02  0.61946905956E+01  0.15151073738E+02  0.10500000000E+00 0. -1.
         13    1    6    6    0    0  0.14623325834E+02  0.24042534929E+02  0.12678153432E+02  0.30864733009E+02  0.10500000000E+00 0.  1.
</event>
<event>
11    0  0.3515428E-009  0.9118800E+02  0.7816531E-02  0.1126479E+00
         25   -1    0    0    0    0  0.00000000000E+00  0.00000000000E+00  0.99999998245E-14  0.12500000000E+03  0.12500000000E+03 0.  0.
    3000001    1    3    3    0    0  0.23256852189E+02 -0.19686902882E+02  0.20266026868E+01  0.30554253997E+02  0.10000000000E+01 0. -1.
    1000022    2    1    0    0    0  0.52429988885E+02 -0.31801102702E+02  0.67850094627E+01  0.62499999849E+02  0.99999880075E+01 0.  0.
    3000022    2    3    3    0    0  0.29173136696E+02 -0.12114199819E+02  0.47584067759E+01  0.31945745852E+02  0.25000210316E+00 0.  0.
    1000022    2    1    0    0    0 -0.52429988885E+02  0.31801102702E+02 -0.67850094627E+01  0.62500000151E+02  0.99999898930E+01 0.  0.
    3000022    2    5    5    0    0 -0.52390202243E+01  0.32803997662E+01  0.23147999385E+01  0.66052369770E+01  0.25000246053E+00 0.  0.
        -13    1    4    4    0    0  0.20987622554E+02 -0.87577630852E+01  0.34202808451E+01  0.22997566410E+02  0.10500000000E+00 0. -1.
         13    1    4    4    0    0  0.81855141426E+01 -0.33564367343E+01  0.13381259307E+01  0.89481794426E+01  0.10500000000E+00 0.  1.
    3000001    1    5    5    0    0 -0.47190968661E+02  0.28520702936E+02 -0.90998094012E+01  0.55894763174E+02  0.10000000000E+01 0. -1.
        -13    1    6    6    0    0 -0.37091406753E+01  0.22695687387E+01  0.16304585611E+01  0.46452219461E+01  0.10500000000E+00 0.  1.
         13    1    6    6    0    0 -0.15298795490E+01  0.10108310274E+01  0.68434137733E+00  0.19600150308E+01  0.10500000000E+00 0. -1.
</event>
<event>
11    0  0.3515428E-009  0.9118800E+02  0.7816531E-02  0.1126479E+00
         25   -1    0    0    0    0  0.00000000000E+00  0.00000000000E+00  0.99999998245E-14  0.12500000000E+03  0.12500000000E+03 0.  0.
    3000001    1    3    3    0    0  0.33157249577E+01 -0.16936830587E+02 -0.22818766280E+02  0.28627720078E+02  0.10000000000E+01 0. -1.
    1000022    2    1    0    0    0  0.13790816004E+02 -0.42061351019E+02 -0.42975646820E+02  0.62500000696E+02  0.10000000585E+02 0.  0.
    3000022    2    3    3    0    0  0.10475091046E+02 -0.25124520432E+02 -0.20156880540E+02  0.33872280617E+02  0.25000346155E+00 0.  0.
    1000022    2    1    0    0    0 -0.13790816004E+02  0.42061351019E+02  0.42975646820E+02  0.62499999304E+02  0.99999918901E+01 0.  0.
    3000022    2    5    5    0    0 -0.72414810618E+01  0.32254174155E+02  0.35463624417E+02  0.48481975663E+02  0.25001793818E+00 0.  0.
        -13    1    4    4    0    0  0.26934477814E+01 -0.64168464994E+01 -0.51839066248E+01  0.86783922959E+01  0.10500000000E+00 0. -1.
         13    1    4    4    0    0  0.77816432650E+01 -0.18707673933E+02 -0.14972973915E+02  0.25193888321E+02  0.10500000000E+00 0.  1.
    3000001    1    5    5    0    0 -0.65493349423E+01  0.98071768645E+01  0.75120224031E+01  0.14018023642E+02  0.10000000000E+01 0. -1.
        -13    1    6    6    0    0 -0.33103630813E+01  0.15041796160E+02  0.16497849387E+02  0.22569984378E+02  0.10500000000E+00 0. -1.
         13    1    6    6    0    0 -0.39311179805E+01  0.17212377995E+02  0.18965775030E+02  0.25911991284E+02  0.10500000000E+00 0.  1.
</event>
<event>
11    0  0.3515428E-009  0.9118800E+02  0.7816531E-02  0.1126479E+00
         25   -1    0    0    0    0  0.00000000000E+00  0.00000000000E+00  0.99999998245E-14  0.12500000000E+03  0.12500000000E+03 0.  0.
    3000001    1    3    3    0    0 -0.18850564053E+02  0.11464378700E+01  0.77925297452E+01  0.20454378620E+02  0.10000000000E+01 0. -1.
    1000022    2    1    0    0    0 -0.50105397932E+02  0.61967122162E+01  0.35458425454E+02  0.62499999165E+02  0.99999907880E+01 0.  0.
    3000022    2    3    3    0    0 -0.31254833880E+02  0.50502743462E+01  0.27665895709E+02  0.42045620546E+02  0.25001976523E+00 0.  0.
    1000022    2    1    0    0    0  0.50105397932E+02 -0.61967122162E+01 -0.35458425454E+02  0.62500000835E+02  0.10000001221E+02 0.  0.
    3000022    2    5    5    0    0  0.15323237634E+02 -0.16440760847E+01 -0.16632478294E+02  0.22676120345E+02  0.25000391371E+00 0.  0.
        -13    1    4    4    0    0 -0.21438765177E+02  0.34172839350E+01  0.18993360142E+02  0.28845402342E+02  0.10500000000E+00 0. -1.
         13    1    4    4    0    0 -0.98160687026E+01  0.16329904112E+01  0.86725355670E+01  0.13200218203E+02  0.10500000000E+00 0.  1.
    3000001    1    5    5    0    0  0.34782160298E+02 -0.45526361315E+01 -0.18825947160E+02  0.39823880490E+02  0.10000000000E+01 0.  1.
        -13    1    6    6    0    0  0.52604656703E+01 -0.51393592234E+00 -0.57390092708E+01  0.78028124168E+01  0.10500000000E+00 0. -1.
         13    1    6    6    0    0  0.10062771964E+02 -0.11301401624E+01 -0.10893469023E+02  0.14873307928E+02  0.10500000000E+00 0.  1.
</event>
<event>
11    0  0.3515428E-009  0.9118800E+02  0.7816531E-02  0.1126479E+00
         25   -1    0    0    0    0  0.00000000000E+00  0.00000000000E+00  0.99999998245E-14  0.12500000000E+03  0.12500000000E+03 0.  0.
    3000001    1    3    3    0    0 -0.30031558335E+02  0.10793863889E+02  0.31754648052E+02  0.45030652522E+02  0.10000000000E+01 0.  1.
    1000022    2    1    0    0    0 -0.39323898727E+02  0.98182882840E+01  0.46513247763E+02  0.62500000463E+02  0.10000002227E+02 0.  0.
    3000022    2    3    3    0    0 -0.92923403922E+01 -0.97557560467E+00  0.14758599711E+02  0.17469347941E+02  0.25002867053E+00 0.  0.
    1000022    2    1    0    0    0  0.39323898727E+02 -0.98182882840E+01 -0.46513247763E+02  0.62499999537E+02  0.99999964363E+01 0.  0.
    3000022    2    5    5    0    0  0.24349357047E+02 -0.88341556229E+01 -0.23303463728E+02  0.34843183188E+02  0.24999752193E+00 0.  0.
        -13    1    4    4    0    0 -0.40052463541E+01 -0.43398201486E+00  0.62442178824E+01  0.74317979459E+01  0.10500000000E+00 0. -1.
         13    1    4    4    0    0 -0.52870940381E+01 -0.54159358981E+00  0.85143818287E+01  0.10037549995E+02  0.10500000000E+00 0.  1.
    3000001    1    5    5    0    0  0.14974541680E+02 -0.98413266106E+00 -0.23209784034E+02  0.27656816349E+02  0.10000000000E+01 0.  1.
        -13    1    6    6    0    0  0.74034042747E+01 -0.26898711860E+01 -0.70240853111E+01  0.10554364088E+02  0.10500000000E+00 0.  1.
         13    1    6    6    0    0  0.16945952772E+02 -0.61442844369E+01 -0.16279378417E+02  0.24288819100E+02  0.10500000000E+00 0. -1.
</event>
<event>
11    0  0.3515428E-009  0.9118800E+02  0.7816531E-02  0.1126479E+00
         25   -1    0    0    0    0  0.00000000000E+00  0.00000000000E+00  0.99999998245E-14  0.12500000000E+03  0.12500000000E+03 0.  0.
    3000001    1    3    3    0    0  0.12479801508E+02 -0.15073066297E+02 -0.46586059090E+02  0.50539130135E+02  0.10000000000E+01 0.  1.
    1000022    2    1    0    0    0  0.18812745081E+02 -0.15309569155E+02 -0.56726956478E+02  0.62500000477E+02  0.10000009159E+02 0.  0.
    3000022    2    3    3    0    0  0.63329435736E+01 -0.23650285741E+00 -0.10140897387E+02  0.11960870342E+02  0.25002319039E+00 0.  0.
    1000022    2    1    0    0    0 -0.18812745081E+02  0.15309569155E+02  0.56726956478E+02  0.62499999523E+02  0.10000003200E+02 0.  0.
    3000022    2    5    5    0    0 -0.84862023621E+01  0.93932588263E+01  0.39933779854E+02  0.41892937784E+02  0.25004159287E+00 0.  0.
        -13    1    4    4    0    0  0.38359925856E+01 -0.81964039166E-01 -0.61134647219E+01  0.72185201479E+01  0.10500000000E+00 0.  1.
         13    1    4    4    0    0  0.24969509880E+01 -0.15453881825E+00 -0.40274326655E+01  0.47423501936E+01  0.10500000000E+00 0. -1.
    3000001    1    5    5    0    0 -0.10326542719E+02  0.59163103283E+01  0.16793176624E+02  0.20607061740E+02  0.10000000000E+01 0. -1.
        -13    1    6    6    0    0 -0.41267047865E+01  0.45874826926E+01  0.19245447157E+02  0.20210713771E+02  0.10500000000E+00 0. -1.
         13    1    6    6    0    0 -0.43594975756E+01  0.48057761337E+01  0.20688332697E+02  0.21682224013E+02  0.10500000000E+00 0.  1.
</event>
<event>
11    0  0.3515428E-009  0.9118800E+02  0.7816531E-02  0.1126479E+00
         25   -1    0    0    0    0  0.00000000000E+00  0.00000000000E+00  0.99999998245E-14  0.12500000000E+03  0.12500000000E+03 0.  0.
    3000001    1    3    3    0    0  0.48862601985E+02 -0.91271903371E+01  0.32884881290E+02  0.59609352401E+02  0.10000000000E+01 0.  1.
    1000022    2    1    0    0    0  0.50540191627E+02 -0.11385409302E+02  0.33500916697E+02  0.62500002783E+02  0.10000020682E+02 0.  0.
    3000022    2    3    3    0    0  0.16775896417E+01 -0.22582189653E+01  0.61603540768E+00  0.28906503820E+01  0.25000021328E+00 0.  0.
    1000022    2    1    0    0    0 -0.50540191627E+02  0.11385409302E+02 -0.33500916697E+02  0.62499997217E+02  0.99999858970E+01 0.  0.
    3000022    2    5    5    0    0 -0.16865032140E+02 -0.79857733760E+00 -0.94519336487E+01  0.19351190946E+02  0.25001301776E+00 0.  0.
        -13    1    4    4    0    0  0.85924210799E+00 -0.10751667760E+01  0.34961655688E+00  0.14239161960E+01  0.10500000000E+00 0.  1.
         13    1    4    4    0    0  0.81834753370E+00 -0.11830521893E+01  0.26641885081E+00  0.14667341861E+01  0.10500000000E+00 0. -1.
    3000001    1    5    5    0    0 -0.33675159487E+02  0.12183986640E+02 -0.24048983049E+02  0.43148806271E+02  0.10000000000E+01 0.  1.
        -13    1    6    6    0    0 -0.98169483899E+01 -0.45574349107E+00 -0.54280912330E+01  0.11227438588E+02  0.10500000000E+00 0.  1.
         13    1    6    6    0    0 -0.70480837497E+01 -0.34283384653E+00 -0.40238424157E+01  0.81237523581E+01  0.10500000000E+00 0. -1.
</event>
<event>
11    0  0.3515428E-009  0.9118800E+02  0.7816531E-02  0.1126479E+00
         25   -1    0    0    0    0  0.00000000000E+00  0.00000000000E+00  0.99999998245E-14  0.12500000000E+03  0.12500000000E+03 0.  0.
    3000001    1    3    3    0    0 -0.47955970907E+01  0.50006495688E+02 -0.26594552581E+02  0.56849956811E+02  0.10000000000E+01 0.  1.
    1000022    2    1    0    0    0 -0.22300150560E+01  0.54602562439E+02 -0.28632798603E+02  0.62499999579E+02  0.99999999766E+01 0.  0.
    3000022    2    3    3    0    0  0.25655820347E+01  0.45960667504E+01 -0.20382460222E+01  0.56500427678E+01  0.24999135989E+00 0.  0.
    1000022    2    1    0    0    0  0.22300150560E+01 -0.54602562439E+02  0.28632798603E+02  0.62500000421E+02  0.10000005235E+02 0.  0.
    3000022    2    5    5    0    0 -0.24659444752E+01 -0.23475889847E+02  0.16248201771E+02  0.28657718859E+02  0.25000636314E+00 0.  0.
        -13    1    4    4    0    0  0.13130186818E+01  0.22919557511E+01 -0.10883090458E+01  0.28587621102E+01  0.10500000000E+00 0.  1.
         13    1    4    4    0    0  0.12525633529E+01  0.23041109994E+01 -0.94993697636E+00  0.27912806576E+01  0.10500000000E+00 0. -1.
    3000001    1    5    5    0    0  0.46959595312E+01 -0.31126672592E+02  0.12384596832E+02  0.33842281561E+02  0.10000000000E+01 0.  1.
        -13    1    6    6    0    0 -0.17863383228E+01 -0.16934541506E+02  0.11767652688E+02  0.20699236107E+02  0.10500000000E+00 0. -1.
         13    1    6    6    0    0 -0.67960615244E+00 -0.65413483402E+01  0.44805490836E+01  0.79584827524E+01  0.10500000000E+00 0.  1.
</event>
<event>
11    0  0.3515428E-009  0.9118800E+02  0.7816531E-02  0.1126479E+00
         25   -1    0    0    0    0  0.00000000000E+00  0.00000000000E+00  0.99999998245E-14  0.12500000000E+03  0.12500000000E+03 0.  0.
    3000001    1    3    3    0    0 -0.15716765121E+02  0.26195975297E+02  0.23718205630E+01  0.30657321481E+02  0.10000000000E+01 0. -1.
    1000022    2    1    0    0    0 -0.23588140488E+02  0.57003326694E+02  0.68594910507E+00  0.62499999025E+02  0.99999863042E+01 0.  0.
    3000022    2    3    3    0    0 -0.78713753671E+01  0.30807351397E+02 -0.16858714580E+01  0.31842677544E+02  0.25000060789E+00 0.  0.
    1000022    2    1    0    0    0  0.23588140488E+02 -0.57003326694E+02 -0.68594910507E+00  0.62500000975E+02  0.99999984919E+01 0.  0.
    3000022    2    5    5    0    0  0.21548607265E+02 -0.54550923032E+02 -0.24810648526E+01  0.58705739514E+02  0.24998070856E+00 0.  0.
        -13    1    4    4    0    0 -0.26919149646E+01  0.10754096261E+02 -0.60350184874E+00  0.11102802892E+02  0.10500000000E+00 0. -1.
         13    1    4    4    0    0 -0.51794604025E+01  0.20053255136E+02 -0.10823696092E+01  0.20739874652E+02  0.10500000000E+00 0.  1.
    3000001    1    5    5    0    0  0.20395332229E+01 -0.24524036619E+01  0.17951157475E+01  0.37942614611E+01  0.10000000000E+01 0.  1.
        -13    1    6    6    0    0  0.12465647948E+02 -0.31631617627E+02 -0.14970064881E+01  0.34032391422E+02  0.10500000000E+00 0. -1.
         13    1    6    6    0    0  0.90829593174E+01 -0.22919305405E+02 -0.98405836448E+00  0.24673348092E+02  0.10500000000E+00 0.  1.
</event>
<event>
11    0  0.3515428E-009  0.9118800E+02  0.7816531E-02  0.1126479E+00
         25   -1    0    0    0    0  0.00000000000E+00  0.00000000000E+00  0.99999998245E-14  0.12500000000E+03  0.12500000000E+03 0.  0.
    3000001    1    3    3    0    0  0.80177323997E+01 -0.14810525555E+02 -0.13167398582E+02  0.21401310368E+02  0.10000000000E+01 0. -1.
    1000022    2    1    0    0    0  0.10711844979E+02 -0.48069803827E+02 -0.37159113084E+02  0.62500004941E+02  0.10000063483E+02 0.  0.
    3000022    2    3    3    0    0  0.26941125791E+01 -0.33259278272E+02 -0.23991714502E+02  0.41098694573E+02  0.24999425524E+00 0.  0.
    1000022    2    1    0    0    0 -0.10711844979E+02  0.48069803827E+02  0.37159113084E+02  0.62499995059E+02  0.10000001720E+02 0.  0.
    3000022    2    5    5    0    0 -0.11470567537E+02  0.32542324918E+02  0.27933297918E+02  0.44394914925E+02  0.25001589883E+00 0.  0.
        -13    1    4    4    0    0  0.10402524306E+01 -0.12170625185E+02 -0.88112640298E+01  0.15061727700E+02  0.10500000000E+00 0.  1.
         13    1    4    4    0    0  0.16538601485E+01 -0.21088653087E+02 -0.15180450473E+02  0.26036966874E+02  0.10500000000E+00 0. -1.
    3000001    1    5    5    0    0  0.75872255805E+00  0.15527478908E+02  0.92258151666E+01  0.18105080134E+02  0.10000000000E+01 0. -1.
        -13    1    6    6    0    0 -0.76155552303E+01  0.21443243140E+02  0.18408430548E+02  0.29269279084E+02  0.10500000000E+00 0. -1.
         13    1    6    6    0    0 -0.38550123065E+01  0.11099081778E+02  0.95248673692E+01  0.15125635841E+02  0.10500000000E+00 0.  1.
</event>
<event>
11    0  0.3515428E-009  0.9118800E+02  0.7816531E-02  0.1126479E+00
         25   -1    0    0    0    0  0.00000000000E+00  0.00000000000E+00  0.99999998245E-14  0.12500000000E+03  0.12500000000E+03 0.  0.
    3000001    1    3    3    0    0 -0.24560689446E+02 -0.16076828652E+02 -0.19547564698E+02  0.35281711568E+02  0.10000000000E+01 0. -1.
    1000022    2    1    0    0    0 -0.38827546265E+02 -0.24852901664E+02 -0.41000066892E+02  0.62499996231E+02  0.99999486803E+01 0.  0.
    3000022    2    3    3    0    0 -0.14266856819E+02 -0.87760730121E+01 -0.21452502194E+02  0.27218284663E+02  0.25001716291E+00 0.  0.
    1000022    2    1    0    0    0  0.38827546265E+02  0.24852901664E+02  0.41000066892E+02  0.62500003769E+02  0.99999957944E+01 0.  0.
    3000022    2    5    5    0    0  0.25838933732E+01  0.43430858383E+01  0.20138688031E+01  0.54458316027E+01  0.25002945028E+00 0.  0.
        -13    1    4    4    0    0 -0.51712622374E+01 -0.32457333923E+01 -0.78530942963E+01  0.99478064622E+01  0.10500000000E+00 0.  1.
         13    1    4    4    0    0 -0.90955945821E+01 -0.55303396198E+01 -0.13599407897E+02  0.17270478200E+02  0.10500000000E+00 0. -1.
    3000001    1    5    5    0    0  0.36243652892E+02  0.20509815826E+02  0.38986198089E+02  0.57054172166E+02  0.10000000000E+01 0. -1.
        -13    1    6    6    0    0  0.10506796498E+01  0.18855733290E+01  0.83532479343E+00  0.23169175679E+01  0.10500000000E+00 0. -1.
         13    1    6    6    0    0  0.15332137234E+01  0.24575125093E+01  0.11785440096E+01  0.31289140348E+01  0.10500000000E+00 0.  1.
</event>
<event>
11    0  0.3515428E-009  0.9118800E+02  0.7816531E-02  0.1126479E+00
         25   -1    0    0    0    0  0.00000000000E+00  0.00000000000E+00  0.99999998245E-14  0.12500000000E+03  0.12500000000E+03 0.  0.
    3000001    1    3    3    0    0 -0.21319697975E+02  0.34788932537E+02 -0.77359213748E+01  0.41540869373E+02  0.10000000000E+01 0. -1.
    1000022    2    1    0    0    0 -0.36769523798E+02  0.48949248852E+02 -0.76304204959E+01  0.62500003482E+02  0.10000013741E+02 0.  0.
    3000022    2    3    3    0    0 -0.15449825823E+02  0.14160316315E+02  0.10550087888E+00  0.20959134109E+02  0.24999207568E+00 0.  0.
    1000022    2    1    0    0    0  0.36769523798E+02 -0.48949248852E+02  0.76304204959E+01  0.62499996518E+02  0.99999702167E+01 0.  0.
    3000022    2    5    5    0    0  0.30892385761E+01 -0.59622943502E+01 -0.20591053315E+01  0.70281407648E+01  0.24999789236E+00 0.  0.
        -13    1    4    4    0    0 -0.37285292956E+01  0.33905839094E+01  0.26529824236E-01  0.50408053708E+01  0.10500000000E+00 0.  1.
         13    1    4    4    0    0 -0.11721296527E+02  0.10769732406E+02  0.78971054644E-01  0.15918328738E+02  0.10500000000E+00 0. -1.
    3000001    1    5    5    0    0  0.33680285222E+02 -0.42986954502E+02  0.96895258274E+01  0.55471855753E+02  0.10000000000E+01 0. -1.
        -13    1    6    6    0    0  0.19372424579E+01 -0.36081397162E+01 -0.12395552400E+01  0.42800820956E+01  0.10500000000E+00 0. -1.
         13    1    6    6    0    0  0.11519961182E+01 -0.23541546340E+01 -0.81955009147E+00  0.27480586692E+01  0.10500000000E+00 0.  1.
</event>
<event>
11    0  0.3515428E-009  0.9118800E+02  0.7816531E-02  0.1126479E+00
         25   -1    0    0    0    0  0.00000000000E+00  0.00000000000E+00  0.99999998245E-14  0.12500000000E+03  0.12500000000E+03 0.  0.
    3000001    1    3    3    0    0 -0.13008507937E+01  0.84330799898E+01  0.28606469044E+02  0.29868698031E+02  0.10000000000E+01 0.  1.
    1000022    2    1    0    0    0  0.26211993464E+01  0.88719836800E+01  0.60997273788E+02  0.62499999687E+02  0.99999885478E+01 0.  0.
    3000022    2    3    3    0    0  0.39220501400E+01  0.43890369016E+00  0.32390804744E+02  0.32631301657E+02  0.25000418521E+00 0.  0.
    1000022    2    1    0    0    0 -0.26211993464E+01 -0.88719836800E+01 -0.60997273788E+02  0.62500000313E+02  0.99999924563E+01 0.  0.
    3000022    2    5    5    0    0  0.33726872058E+01 -0.57204575477E+01 -0.34396812568E+02  0.35032868499E+02  0.25001379396E+00 0.  0.
        -13    1    4    4    0    0  0.27560844197E+01  0.29508232229E+00  0.23080550995E+02  0.23246632748E+02  0.10500000000E+00 0.  1.
         13    1    4    4    0    0  0.11659657203E+01  0.14382136788E+00  0.93102537491E+01  0.93846689084E+01  0.10500000000E+00 0. -1.
    3000001    1    5    5    0    0 -0.59938865522E+01 -0.31515261323E+01 -0.26600461220E+02  0.27467131814E+02  0.10000000000E+01 0.  1.
        -13    1    6    6    0    0  0.17916819832E+01 -0.31035209521E+01 -0.18867731009E+02  0.19205318665E+02  0.10500000000E+00 0.  1.
         13    1    6    6    0    0  0.15810052226E+01 -0.26169365955E+01 -0.15529081559E+02  0.15827549833E+02  0.10500000000E+00 0. -1.
</event>
<event>
11    0  0.3515428E-009  0.9118800E+02  0.7816531E-02  0.1126479E+00
         25   -1    0    0    0    0  0.00000000000E+00  0.00000000000E+00  0.99999998245E-14  0.12500000000E+03  0.12500000000E+03 0.  0.
    3000001    1    3    3    0    0  0.22662198901E+02 -0.92197648577E+01 -0.17191717291E+02  0.29918797879E+02  0.10000000000E+01 0.  1.
    1000022    2    1    0    0    0  0.51615317115E+02 -0.20787578362E+02 -0.26645553273E+02  0.62500002278E+02  0.10000020021E+02 0.  0.
    3000022    2    3    3    0    0  0.28953118214E+02 -0.11567813505E+02 -0.94538359819E+01  0.32581204399E+02  0.25000349973E+00 0.  0.
    1000022    2    1    0    0    0 -0.51615317115E+02  0.20787578362E+02  0.26645553273E+02  0.62499997722E+02  0.99999915497E+01 0.  0.
    3000022    2    5    5    0    0 -0.51300686271E+02  0.19520009980E+02  0.25803146200E+02  0.60651925254E+02  0.24996325159E+00 0.  0.
        -13    1    4    4    0    0  0.93926167361E+01 -0.37009830389E+01 -0.30808623841E+01  0.10555627060E+02  0.10500000000E+00 0.  1.
         13    1    4    4    0    0  0.19560501478E+02 -0.78668304658E+01 -0.63729735978E+01  0.22025577339E+02  0.10500000000E+00 0. -1.
    3000001    1    5    5    0    0 -0.31463084357E+00  0.12675683826E+01  0.84240707304E+00  0.18480724685E+01  0.10000000000E+01 0. -1.
        -13    1    6    6    0    0 -0.22042923007E+02  0.84194440969E+01  0.11156852180E+02  0.26101031956E+02  0.10500000000E+00 0.  1.
         13    1    6    6    0    0 -0.29257763264E+02  0.11100565883E+02  0.14646294021E+02  0.34550893298E+02  0.10500000000E+00 0. -1.
</event>
<event>
11    0  0.3515428E-009  0.9118800E+02  0.7816531E-02  0.1126479E+00
         25   -1    0    0    0    0  0.00000000000E+00  0.00000000000E+00  0.99999998245E-14  0.12500000000E+03  0.12500000000E+03 0.  0.
    3000001    1    3    3    0    0  0.29536956868E+01  0.19418687171E+02 -0.49828099263E+01  0.20288867007E+02  0.10000000000E+01 0.  1.
    1000022    2    1    0    0    0  0.11994177470E+02  0.53733467418E+02 -0.27840694071E+02  0.62500000847E+02  0.10000002277E+02 0.  0.
    3000022    2    3    3    0    0  0.90404817830E+01  0.34314780247E+02 -0.22857884145E+02  0.42211133840E+02  0.24999641038E+00 0.  0.
    1000022    2    1    0    0    0 -0.11994177470E+02 -0.53733467418E+02  0.27840694071E+02  0.62499999153E+02  0.99999916920E+01 0.  0.
    3000022    2    5    5    0    0 -0.13073377954E+02 -0.52061619807E+02  0.27232813969E+02  0.60191478775E+02  0.24998468191E+00 0.  0.
        -13    1    4    4    0    0  0.36096714031E+01  0.13826200167E+02 -0.91395877336E+01  0.16962801291E+02  0.10500000000E+00 0. -1.
         13    1    4    4    0    0  0.54308103800E+01  0.20488580079E+02 -0.13718296411E+02  0.25248332548E+02  0.10500000000E+00 0.  1.
    3000001    1    5    5    0    0  0.10792004842E+01 -0.16718476109E+01  0.60788010198E+00  0.23085203784E+01  0.10000000000E+01 0.  1.
        -13    1    6    6    0    0 -0.49265188413E+01 -0.19454798164E+02  0.10232014704E+02  0.22526981808E+02  0.10500000000E+00 0.  1.
         13    1    6    6    0    0 -0.81468591128E+01 -0.32606821643E+02  0.17000799265E+02  0.37664496966E+02  0.10500000000E+00 0. -1.
</event>
<event>
11    0  0.3515428E-009  0.9118800E+02  0.7816531E-02  0.1126479E+00
         25   -1    0    0    0    0  0.00000000000E+00  0.00000000000E+00  0.99999998245E-14  0.12500000000E+03  0.12500000000E+03 0.  0.
    3000001    1    3    3    0    0  0.12794047469E+01  0.20195216149E+01 -0.12880816424E+01  0.28938725572E+01  0.10000000000E+01 0. -1.
    1000022    2    1    0    0    0  0.53525194660E+02  0.30680640881E+02  0.32975759645E-01  0.62499996489E+02  0.10000014271E+02 0.  0.
    3000022    2    3    3    0    0  0.52245789913E+02  0.28661119266E+02  0.13210574020E+01  0.59606123932E+02  0.24999249744E+00 0.  0.
    1000022    2    1    0    0    0 -0.53525194660E+02 -0.30680640881E+02 -0.32975759645E-01  0.62500003511E+02  0.10000058161E+02 0.  0.
    3000022    2    5    5    0    0 -0.30400535606E+02 -0.12443072737E+02  0.23663931933E+01  0.32934555442E+02  0.25000228055E+00 0.  0.
        -13    1    4    4    0    0  0.26277767718E+02  0.14454439819E+02  0.72347476314E+00  0.29999772457E+02  0.10500000000E+00 0. -1.
         13    1    4    4    0    0  0.25968022195E+02  0.14206679447E+02  0.59758263890E+00  0.29606351475E+02  0.10500000000E+00 0.  1.
    3000001    1    5    5    0    0 -0.23124659055E+02 -0.18237568143E+02 -0.23993689530E+01  0.29565448070E+02  0.10000000000E+01 0.  1.
        -13    1    6    6    0    0 -0.13642849730E+02 -0.55190233029E+01  0.10317249445E+01  0.14753387690E+02  0.10500000000E+00 0. -1.
         13    1    6    6    0    0 -0.16757685875E+02 -0.69240494346E+01  0.13346682488E+01  0.18181167751E+02  0.10500000000E+00 0.  1.
</event>
<event>
11    0  0.3515428E-009  0.9118800E+02  0.7816531E-02  0.1126479E+00
         25   -1    0    0    0    0  0.00000000000E+00  0.00000000000E+00  0.99999998245E-14  0.12500000000E+03  0.12500000000E+03 0.  0.
    3000001    1    3    3    0    0 -0.69357529611E+01 -0.26100917171E+02  0.24105264313E+02  0.36213620558E+02  0.10000000000E+01 0. -1.
    1000022    2    1    0    0    0 -0.41218890065E+01 -0.47267005392E+02  0.39434643913E+02  0.62499995383E+02  0.99999257306E+01 0.  0.
    3000022    2    3    3    0    0  0.28138639546E+01 -0.21166088222E+02  0.15329379600E+02  0.26286374826E+02  0.25000318647E+00 0.  0.
    1000022    2    1    0    0    0  0.41218890065E+01  0.47267005392E+02 -0.39434643913E+02  0.62500004617E+02  0.99999834396E+01 0.  0.
    3000022    2    5    5    0    0  0.14761529236E+01  0.91738250704E+00 -0.31835343591E+00  0.17845070751E+01  0.24999694529E+00 0.  0.
        -13    1    4    4    0    0  0.11477809042E+01 -0.91257302325E+01  0.66152686654E+01  0.11330011377E+02  0.10500000000E+00 0. -1.
         13    1    4    4    0    0  0.16660830503E+01 -0.12040357989E+02  0.87141109348E+01  0.14956363449E+02  0.10500000000E+00 0.  1.
    3000001    1    5    5    0    0  0.26457360829E+01  0.46349622885E+02 -0.39116290477E+02  0.60715497542E+02  0.10000000000E+01 0. -1.
        -13    1    6    6    0    0  0.41634972087E+00  0.27932118574E+00 -0.53134494513E-01  0.51499096048E+00  0.10500000000E+00 0. -1.
         13    1    6    6    0    0  0.10598032028E+01  0.63806132130E+00 -0.26521894140E+00  0.12695161146E+01  0.10500000000E+00 0.  1.
</event>
<event>
11    0  0.3515428E-009  0.9118800E+02  0.7816531E-02  0.1126479E+00
         25   -1    0    0    0    0  0.00000000000E+00  0.00000000000E+00  0.99999998245E-14  0.12500000000E+03  0.12500000000E+03 0.  0.
    3000001    1    3    3    0    0 -0.40100338954E+02 -0.28060165553E+00 -0.30120047428E+02  0.50163065881E+02  0.10000000000E+01 0. -1.
    1000022    2    1    0    0    0 -0.46683178618E+02  0.20729894348E+01 -0.40281939480E+02  0.62499990946E+02  0.99998884457E+01 0.  0.
    3000022    2    3    3    0    0 -0.65828396642E+01  0.23535910903E+01 -0.10161892052E+02  0.12336925065E+02  0.25000185299E+00 0.  0.
    1000022    2    1    0    0    0  0.46683178618E+02 -0.20729894348E+01  0.40281939480E+02  0.62500009054E+02  0.10000001617E+02 0.  0.
    3000022    2    5    5    0    0  0.44270023703E+02 -0.34752894317E+00  0.39354127030E+02  0.59234834251E+02  0.24999870122E+00 0.  0.
        -13    1    4    4    0    0 -0.33478752979E+01  0.12298289816E+01 -0.52903969853E+01  0.63812282200E+01  0.10500000000E+00 0. -1.
         13    1    4    4    0    0 -0.32349643663E+01  0.11237621087E+01 -0.48714950668E+01  0.59556968454E+01  0.10500000000E+00 0.  1.
    3000001    1    5    5    0    0  0.24131549150E+01 -0.17254604916E+01  0.92781244973E+00  0.32651748030E+01  0.10000000000E+01 0. -1.
        -13    1    6    6    0    0  0.21492415673E+02 -0.17826673478E+00  0.19016198877E+02  0.28698128079E+02  0.10500000000E+00 0. -1.
         13    1    6    6    0    0  0.22777608030E+02 -0.16926220840E+00  0.20337928153E+02  0.30536706172E+02  0.10500000000E+00 0.  1.
</event>
<event>
11    0  0.3515428E-009  0.9118800E+02  0.7816531E-02  0.1126479E+00
         25   -1    0    0    0    0  0.00000000000E+00  0.00000000000E+00  0.99999998245E-14  0.12500000000E+03  0.12500000000E+03 0.  0.
    3000001    1    3    3    0    0 -0.19679533352E+02 -0.14294779205E+02  0.68649831206E+01  0.25293333879E+02  0.10000000000E+01 0. -1.
    1000022    2    1    0    0    0 -0.40461073365E+02 -0.39519986781E+02  0.24643903416E+02  0.62500000079E+02  0.10000011067E+02 0.  0.
    3000022    2    3    3    0    0 -0.20781540012E+02 -0.25225207576E+02  0.17778920296E+02  0.37206666200E+02  0.25000061513E+00 0.  0.
    1000022    2    1    0    0    0  0.40461073365E+02  0.39519986781E+02 -0.24643903416E+02  0.62499999921E+02  0.10000010076E+02 0.  0.
    3000022    2    5    5    0    0  0.25414668205E+02  0.29340345284E+02 -0.13174201676E+02  0.40992478742E+02  0.25000457251E+00 0.  0.
        -13    1    4    4    0    0 -0.74666116189E+01 -0.90541965592E+01  0.64498287968E+01  0.13391791550E+02  0.10500000000E+00 0. -1.
         13    1    4    4    0    0 -0.13314928393E+02 -0.16171011017E+02  0.11329091499E+02  0.23814874650E+02  0.10500000000E+00 0.  1.
    3000001    1    5    5    0    0  0.15046405159E+02  0.10179641497E+02 -0.11469701740E+02  0.21507521178E+02  0.10000000000E+01 0. -1.
        -13    1    6    6    0    0  0.10708518544E+02  0.12373166212E+02 -0.54855470031E+01  0.17258906757E+02  0.10500000000E+00 0.  1.
         13    1    6    6    0    0  0.14706149662E+02  0.16967179071E+02 -0.76886546731E+01  0.23733571986E+02  0.10500000000E+00 0. -1.
</event>
<event>
11    0  0.3515428E-009  0.9118800E+02  0.7816531E-02  0.1126479E+00
         25   -1    0    0    0    0  0.00000000000E+00  0.00000000000E+00  0.99999998245E-14  0.12500000000E+03  0.12500000000E+03 0.  0.
    3000001    1    3    3    0    0 -0.38408371015E+02  0.33149219211E+02  0.14748061349E+02  0.52844857952E+02  0.10000000000E+01 0.  1.
    1000022    2    1    0    0    0 -0.41954309661E+02  0.41627238891E+02  0.17699125637E+02  0.62500000489E+02  0.99999948002E+01 0.  0.
    3000022    2    3    3    0    0 -0.35459386454E+01  0.84780196792E+01  0.29510642882E+01  0.96551425370E+01  0.24999683927E+00 0.  0.
    1000022    2    1    0    0    0  0.41954309661E+02 -0.41627238891E+02 -0.17699125637E+02  0.62499999511E+02  0.99999886928E+01 0.  0.
    3000022    2    5    5    0    0  0.12333142786E+02 -0.17483808874E+02 -0.32980917074E+01  0.21650170647E+02  0.24999285671E+00 0.  0.
        -13    1    4    4    0    0 -0.22081582505E+01  0.54263203816E+01  0.18656775640E+01  0.61492026732E+01  0.10500000000E+00 0.  1.
         13    1    4    4    0    0 -0.13377803948E+01  0.30516992976E+01  0.10853867243E+01  0.35059398638E+01  0.10500000000E+00 0. -1.
    3000001    1    5    5    0    0  0.29621166875E+02 -0.24143430017E+02 -0.14401033929E+02  0.40849828865E+02  0.10000000000E+01 0.  1.
        -13    1    6    6    0    0  0.66114897980E+01 -0.93736268061E+01 -0.18361379269E+01  0.11617190036E+02  0.10500000000E+00 0. -1.
         13    1    6    6    0    0  0.57216529876E+01 -0.81101820675E+01 -0.14619537806E+01  0.10032980611E+02  0.10500000000E+00 0.  1.
</event>
<event>
11    0  0.3515428E-009  0.9118800E+02  0.7816531E-02  0.1126479E+00
         25   -1    0    0    0    0  0.00000000000E+00  0.00000000000E+00  0.99999998245E-14  0.12500000000E+03  0.12500000000E+03 0.  0.
    3000001    1    3    3    0    0 -0.76164747677E+01 -0.53365797275E+00  0.19815989673E+02  0.21259560800E+02  0.10000000000E+01 0.  1.
    1000022    2    1    0    0    0 -0.31507932583E+02 -0.97838025357E+01  0.52132304994E+02  0.62499998096E+02  0.99999965166E+01 0.  0.
    3000022    2    3    3    0    0 -0.23891457815E+02 -0.92501445629E+01  0.32316315321E+02  0.41240437296E+02  0.25000286864E+00 0.  0.
    1000022    2    1    0    0    0  0.31507932583E+02  0.97838025357E+01 -0.52132304994E+02  0.62500001904E+02  0.10000020317E+02 0.  0.
    3000022    2    5    5    0    0  0.28999263583E+01  0.31164124056E+01 -0.28843395067E+01  0.51481561106E+01  0.24999556870E+00 0.  0.
        -13    1    4    4    0    0 -0.12592349825E+02 -0.48161266117E+01  0.16943383132E+02  0.21652981472E+02  0.10500000000E+00 0. -1.
         13    1    4    4    0    0 -0.11299107990E+02 -0.44340179512E+01  0.15372932189E+02  0.19587455824E+02  0.10500000000E+00 0.  1.
    3000001    1    5    5    0    0  0.28608006224E+02  0.66673901301E+01 -0.49247965487E+02  0.57351845793E+02  0.10000000000E+01 0. -1.
        -13    1    6    6    0    0  0.71413953391E+00  0.77455225092E+00 -0.68664213345E+00  0.12619147684E+01  0.10500000000E+00 0. -1.
         13    1    6    6    0    0  0.21857868244E+01  0.23418601546E+01 -0.21976973732E+01  0.38862413422E+01  0.10500000000E+00 0.  1.
</event>
<event>
11    0  0.3515428E-009  0.9118800E+02  0.7816531E-02  0.1126479E+00
         25   -1    0    0    0    0  0.00000000000E+00  0.00000000000E+00  0.99999998245E-14  0.12500000000E+03  0.12500000000E+03 0.  0.
    3000001    1    3    3    0    0 -0.24039868680E+02 -0.17521740338E+02  0.15454101981E+02  0.33537381213E+02  0.10000000000E+01 0.  1.
    1000022    2    1    0    0    0 -0.38580706120E+02 -0.32437448939E+02  0.35575146584E+02  0.62499999376E+02  0.99999944578E+01 0.  0.
    3000022    2    3    3    0    0 -0.14540837440E+02 -0.14915708600E+02  0.20121044603E+02  0.28962618162E+02  0.24999677586E+00 0.  0.
    1000022    2    1    0    0    0  0.38580706120E+02  0.32437448939E+02 -0.35575146584E+02  0.62500000624E+02  0.10000002259E+02 0.  0.
    3000022    2    5    5    0    0  0.33188912786E+02  0.22694835314E+02 -0.27909754181E+02  0.48944625444E+02  0.24999899917E+00 0.  0.
        -13    1    4    4    0    0 -0.11161629120E+02 -0.11444668861E+02  0.15456168389E+02  0.22236604422E+02  0.10500000000E+00 0. -1.
         13    1    4    4    0    0 -0.33792083197E+01 -0.34710397387E+01  0.46648762149E+01  0.67260137404E+01  0.10500000000E+00 0.  1.
    3000001    1    5    5    0    0  0.53917933334E+01  0.97426136244E+01 -0.76653924031E+01  0.13555375180E+02  0.10000000000E+01 0.  1.
        -13    1    6    6    0    0  0.13941306078E+02  0.94557682450E+01 -0.11680912198E+02  0.20499422018E+02  0.10500000000E+00 0. -1.
         13    1    6    6    0    0  0.19247606708E+02  0.13239067069E+02 -0.16228841983E+02  0.28445203426E+02  0.10500000000E+00 0.  1.
</event>
<event>
11    0  0.3515428E-009  0.9118800E+02  0.7816531E-02  0.1126479E+00
         25   -1    0    0    0    0  0.00000000000E+00  0.00000000000E+00  0.99999998245E-14  0.12500000000E+03  0.12500000000E+03 0.  0.
    3000001    1    3    3    0    0  0.42682997368E+01 -0.45052686773E+01 -0.11086215616E+02  0.12744410743E+02  0.10000000000E+01 0. -1.
    1000022    2    1    0    0    0  0.19478785355E+02 -0.38385409957E+02 -0.44197140815E+02  0.62500000400E+02  0.10000000865E+02 0.  0.
    3000022    2    3    3    0    0  0.15210485618E+02 -0.33880141279E+02 -0.33110925199E+02  0.49755589657E+02  0.24997741832E+00 0.  0.
    1000022    2    1    0    0    0 -0.19478785355E+02  0.38385409957E+02  0.44197140815E+02  0.62499999600E+02  0.99999958693E+01 0.  0.
    3000022    2    5    5    0    0 -0.19849890013E+02  0.31819017345E+02  0.36623680489E+02  0.52419695443E+02  0.24999884218E+00 0.  0.
        -13    1    4    4    0    0  0.81567250635E+01 -0.18263213082E+02 -0.17906325639E+02  0.26846315180E+02  0.10500000000E+00 0.  1.
         13    1    4    4    0    0  0.70537605543E+01 -0.15616928197E+02 -0.15204599559E+02  0.22909274476E+02  0.10500000000E+00 0. -1.
    3000001    1    5    5    0    0  0.37110465862E+00  0.65663926117E+01  0.75734603255E+01  0.10080304157E+02  0.10000000000E+01 0. -1.
        -13    1    6    6    0    0 -0.89384963488E+01  0.14289351773E+02  0.16548242432E+02  0.23620703708E+02  0.10500000000E+00 0. -1.
         13    1    6    6    0    0 -0.10911393664E+02  0.17529665572E+02  0.20075438057E+02  0.28798991735E+02  0.10500000000E+00 0.  1.
</event>
<event>
11    0  0.3515428E-009  0.9118800E+02  0.7816531E-02  0.1126479E+00
         25   -1    0    0    0    0  0.00000000000E+00  0.00000000000E+00  0.99999998245E-14  0.12500000000E+03  0.12500000000E+03 0.  0.
    3000001    1    3    3    0    0 -0.60533639262E+01 -0.88977609646E+01  0.47234007102E+00  0.10818339528E+02  0.10000000000E+01 0.  1.
    1000022    2    1    0    0    0 -0.49608616851E+02 -0.36647396883E+02 -0.14844310319E+01  0.62499997828E+02  0.99999814420E+01 0.  0.
    3000022    2    3    3    0    0 -0.43555252925E+02 -0.27749635918E+02 -0.19567711029E+01  0.51681658300E+02  0.25000101795E+00 0.  0.
    1000022    2    1    0    0    0  0.49608616851E+02  0.36647396883E+02  0.14844310319E+01  0.62500002172E+02  0.10000008593E+02 0.  0.
    3000022    2    5    5    0    0  0.48921325274E+02  0.36514576907E+02  0.70278631515E+00  0.61050526639E+02  0.25000205378E+00 0.  0.
        -13    1    4    4    0    0 -0.15194084349E+02 -0.96137286148E+01 -0.67998624766E+00  0.17993259387E+02  0.10500000000E+00 0.  1.
         13    1    4    4    0    0 -0.28361168576E+02 -0.18135907303E+02 -0.12767848553E+01  0.33688398912E+02  0.10500000000E+00 0. -1.
    3000001    1    5    5    0    0  0.68729157704E+00  0.13281997580E+00  0.78164471676E+00  0.14494755331E+01  0.10000000000E+01 0.  1.
        -13    1    6    6    0    0  0.17019059800E+02  0.12768792103E+02  0.26443545748E+00  0.21278425679E+02  0.10500000000E+00 0.  1.
         13    1    6    6    0    0  0.31902265474E+02  0.23745784804E+02  0.43835085767E+00  0.39772100960E+02  0.10500000000E+00 0. -1.
</event>
<event>
11    0  0.3515428E-009  0.9118800E+02  0.7816531E-02  0.1126479E+00
         25   -1    0    0    0    0  0.00000000000E+00  0.00000000000E+00  0.99999998245E-14  0.12500000000E+03  0.12500000000E+03 0.  0.
    3000001    1    3    3    0    0 -0.14882848223E+02  0.10656103678E+02 -0.53408188492E+02  0.56466683229E+02  0.10000000000E+01 0. -1.
    1000022    2    1    0    0    0 -0.16446302229E+02  0.85663310235E+01 -0.58842052429E+02  0.62500000294E+02  0.10000000924E+02 0.  0.
    3000022    2    3    3    0    0 -0.15634540055E+01 -0.20897726549E+01 -0.54338639365E+01  0.60333170648E+01  0.24999869557E+00 0.  0.
    1000022    2    1    0    0    0  0.16446302229E+02 -0.85663310235E+01  0.58842052429E+02  0.62499999706E+02  0.99999972541E+01 0.  0.
    3000022    2    5    5    0    0  0.11911832602E+02 -0.92161878148E+01  0.33539586876E+02  0.36766782035E+02  0.24999934303E+00 0.  0.
        -13    1    4    4    0    0 -0.62400504479E+00 -0.73646740260E+00 -0.19871630885E+01  0.22116981420E+01  0.10500000000E+00 0. -1.
         13    1    4    4    0    0 -0.93944896066E+00 -0.13533052523E+01 -0.34467008481E+01  0.38216189228E+01  0.10500000000E+00 0.  1.
    3000001    1    5    5    0    0  0.45344696270E+01  0.64985679136E+00  0.25302465553E+02  0.25733217671E+02  0.10000000000E+01 0. -1.
        -13    1    6    6    0    0  0.78367000836E+01 -0.59966150182E+01  0.21929714891E+02  0.24047799901E+02  0.10500000000E+00 0. -1.
         13    1    6    6    0    0  0.40751325182E+01 -0.32195727966E+01  0.11609871984E+02  0.12718982134E+02  0.10500000000E+00 0.  1.
</event>
<event>
11    0  0.3515428E-009  0.9118800E+02  0.7816531E-02  0.1126479E+00
         25   -1    0    0    0    0  0.00000000000E+00  0.00000000000E+00  0.99999998245E-14  0.12500000000E+03  0.12500000000E+03 0.  0.
    3000001    1    3    3    0    0 -0.27282084840E+02 -0.15753425688E+02 -0.11136851574E+02  0.33429209340E+02  0.10000000000E+01 0. -1.
    1000022    2    1    0    0    0 -0.44733600812E+02 -0.33285812075E+02 -0.26404734819E+02  0.62499997767E+02  0.99999686409E+01 0.  0.
    3000022    2    3    3    0    0 -0.17451515972E+02 -0.17532386387E+02 -0.15267883246E+02  0.29070788426E+02  0.24999756187E+00 0.  0.
    1000022    2    1    0    0    0  0.44733600812E+02  0.33285812075E+02  0.26404734819E+02  0.62500002233E+02  0.99999965548E+01 0.  0.
    3000022    2    5    5    0    0  0.23393958658E+02  0.12055863186E+02  0.96281213387E+01  0.28024709385E+02  0.24995342470E+00 0.  0.
        -13    1    4    4    0    0 -0.10345029040E+02 -0.10304729913E+02 -0.90291165114E+01  0.17168082432E+02  0.10500000000E+00 0.  1.
         13    1    4    4    0    0 -0.71064869317E+01 -0.72276564739E+01 -0.62387667342E+01  0.11902705994E+02  0.10500000000E+00 0. -1.
    3000001    1    5    5    0    0  0.21339642154E+02  0.21229948889E+02  0.16776613481E+02  0.34475292849E+02  0.10000000000E+01 0. -1.
        -13    1    6    6    0    0  0.12462230008E+02  0.64543330628E+01  0.50694575767E+01  0.14922332833E+02  0.10500000000E+00 0. -1.
         13    1    6    6    0    0  0.10931728651E+02  0.56015301232E+01  0.45586637620E+01  0.13102376552E+02  0.10500000000E+00 0.  1.
</event>
<event>
11    0  0.3515428E-009  0.9118800E+02  0.7816531E-02  0.1126479E+00
         25   -1    0    0    0    0  0.00000000000E+00  0.00000000000E+00  0.99999998245E-14  0.12500000000E+03  0.12500000000E+03 0.  0.
    3000001    1    3    3    0    0 -0.92622703912E+01 -0.40716297838E+02  0.94550495229E+01  0.42825279029E+02  0.10000000000E+01 0.  1.
    1000022    2    1    0    0    0 -0.83918269804E+01 -0.58402839748E+02  0.18025968765E+02  0.62499998633E+02  0.99999914233E+01 0.  0.
    3000022    2    3    3    0    0  0.87044341085E+00 -0.17686541910E+02  0.85709192419E+01  0.19674719604E+02  0.24999672623E+00 0.  0.
    1000022    2    1    0    0    0  0.83918269804E+01  0.58402839748E+02 -0.18025968765E+02  0.62500001367E+02  0.10000008516E+02 0.  0.
    3000022    2    5    5    0    0  0.51414843901E+01  0.20587771344E+02 -0.20922340470E+01  0.21324425750E+02  0.24999924585E+00 0.  0.
        -13    1    4    4    0    0  0.42365834610E+00 -0.99202438115E+01  0.48218402013E+01  0.11038654429E+02  0.10500000000E+00 0. -1.
         13    1    4    4    0    0  0.44678506475E+00 -0.77662980988E+01  0.37490790406E+01  0.86360651750E+01  0.10500000000E+00 0.  1.
    3000001    1    5    5    0    0  0.32503425903E+01  0.37815068404E+02 -0.15933734718E+02  0.41175575617E+02  0.10000000000E+01 0.  1.
        -13    1    6    6    0    0  0.28731278768E+01  0.11482232545E+02 -0.12333626178E+01  0.11900787216E+02  0.10500000000E+00 0.  1.
         13    1    6    6    0    0  0.22683565133E+01  0.91055387985E+01 -0.85887142921E+00  0.94236385337E+01  0.10500000000E+00 0. -1.
</event>
<event>
11    0  0.3515428E-009  0.9118800E+02  0.7816531E-02  0.1126479E+00
         25   -1    0    0    0    0  0.00000000000E+00  0.00000000000E+00  0.99999998245E-14  0.12500000000E+03  0.12500000000E+03 0.  0.
    3000001    1    3    3    0    0  0.47380449769E+00  0.71378795273E-01 -0.56535498065E-01  0.11103071183E+01  0.10000000000E+01 0. -1.
    1000022    2    1    0    0    0  0.31233590651E+02  0.52830564424E+02 -0.62963805722E+01  0.62499999110E+02  0.99999879125E+01 0.  0.
    3000022    2    3    3    0    0  0.30759786153E+02  0.52759185628E+02 -0.62398450741E+01  0.61389691992E+02  0.25000800463E+00 0.  0.
    1000022    2    1    0    0    0 -0.31233590651E+02 -0.52830564424E+02  0.62963805722E+01  0.62500000890E+02  0.99999990314E+01 0.  0.
    3000022    2    5    5    0    0 -0.23232982081E+02 -0.36589869289E+02  0.87043261980E+01  0.44208797592E+02  0.24999798192E+00 0.  0.
        -13    1    4    4    0    0  0.19625350458E+02  0.33640488790E+02 -0.40370680887E+01  0.39155405890E+02  0.10500000000E+00 0. -1.
         13    1    4    4    0    0  0.11134435695E+02  0.19118696839E+02 -0.22027769854E+01  0.22234286102E+02  0.10500000000E+00 0.  1.
    3000001    1    5    5    0    0 -0.80006085697E+01 -0.16240695135E+02 -0.24079456258E+01  0.18291203298E+02  0.10000000000E+01 0. -1.
        -13    1    6    6    0    0 -0.71916492937E+01 -0.11365339602E+02  0.26564829706E+01  0.13709802720E+02  0.10500000000E+00 0.  1.
         13    1    6    6    0    0 -0.16041332787E+02 -0.25224529687E+02  0.60478432274E+01  0.30498994872E+02  0.10500000000E+00 0. -1.
</event>
<event>
11    0  0.3515428E-009  0.9118800E+02  0.7816531E-02  0.1126479E+00
         25   -1    0    0    0    0  0.00000000000E+00  0.00000000000E+00  0.99999998245E-14  0.12500000000E+03  0.12500000000E+03 0.  0.
    3000001    1    3    3    0    0  0.35592994603E+01  0.31764628466E+00  0.26666622673E+00  0.37202987362E+01  0.10000000000E+01 0.  1.
    1000022    2    1    0    0    0  0.49061358364E+02 -0.74042300503E+01  0.36666199109E+02  0.62499999588E+02  0.10000014212E+02 0.  0.
    3000022    2    3    3    0    0  0.45502058904E+02 -0.77218763349E+01  0.36399532883E+02  0.58779700852E+02  0.24999912041E+00 0.  0.
    1000022    2    1    0    0    0 -0.49061358364E+02  0.74042300503E+01 -0.36666199109E+02  0.62500000412E+02  0.10000019357E+02 0.  0.
    3000022    2    5    5    0    0 -0.12104877323E+02  0.26404128462E+01 -0.14727827848E+02  0.19247629622E+02  0.24999588407E+00 0.  0.
        -13    1    4    4    0    0  0.17153236615E+02 -0.29701318198E+01  0.13750078306E+02  0.22184023256E+02  0.10500000000E+00 0. -1.
         13    1    4    4    0    0  0.28348822288E+02 -0.47517445152E+01  0.22649454577E+02  0.36595677596E+02  0.10500000000E+00 0.  1.
    3000001    1    5    5    0    0 -0.36956481041E+02  0.47638172041E+01 -0.21938371261E+02  0.43252370789E+02  0.10000000000E+01 0. -1.
        -13    1    6    6    0    0 -0.72594100585E+01  0.15325844549E+01 -0.88794175858E+01  0.11571643408E+02  0.10500000000E+00 0.  1.
         13    1    6    6    0    0 -0.48454672644E+01  0.11078283912E+01 -0.58484102625E+01  0.76759862137E+01  0.10500000000E+00 0. -1.
</event>
<event>
11    0  0.3515428E-009  0.9118800E+02  0.7816531E-02  0.1126479E+00
         25   -1    0    0    0    0  0.00000000000E+00  0.00000000000E+00  0.99999998245E-14  0.12500000000E+03  0.12500000000E+03 0.  0.
    3000001    1    3    3    0    0 -0.33477628915E+00 -0.11192041818E+00 -0.30134285123E+01  0.31945817789E+01  0.10000000000E+01 0.  1.
    1000022    2    1    0    0    0 -0.96345344041E+01 -0.38789036106E+02 -0.46998260780E+02  0.62500001031E+02  0.10000001867E+02 0.  0.
    3000022    2    3    3    0    0 -0.92997581149E+01 -0.38677115687E+02 -0.43984832267E+02  0.59305419252E+02  0.25000830255E+00 0.  0.
    1000022    2    1    0    0    0  0.96345344041E+01  0.38789036106E+02  0.46998260780E+02  0.62499998969E+02  0.99999889825E+01 0.  0.
    3000022    2    5    5    0    0 -0.70405830187E+00  0.16225598591E+02  0.20916375803E+02  0.26482504115E+02  0.24999950904E+00 0.  0.
        -13    1    4    4    0    0 -0.46103238194E+01 -0.19292882015E+02 -0.21840836043E+02  0.29504296742E+02  0.10500000000E+00 0. -1.
         13    1    4    4    0    0 -0.46894342955E+01 -0.19384233673E+02 -0.22143996224E+02  0.29801122510E+02  0.10500000000E+00 0.  1.
    3000001    1    5    5    0    0  0.10338592706E+02  0.22563437514E+02  0.26081884977E+02  0.36017494854E+02  0.10000000000E+01 0. -1.
        -13    1    6    6    0    0 -0.41375310643E+00  0.90055261062E+01  0.11711606860E+02  0.14779832622E+02  0.10500000000E+00 0.  1.
         13    1    6    6    0    0 -0.29030519544E+00  0.72200724850E+01  0.92047689430E+01  0.11702671494E+02  0.10500000000E+00 0. -1.
</event>
<event>
11    0  0.3515428E-009  0.9118800E+02  0.7816531E-02  0.1126479E+00
         25   -1    0    0    0    0  0.00000000000E+00  0.00000000000E+00  0.99999998245E-14  0.12500000000E+03  0.12500000000E+03 0.  0.
    3000001    1    3    3    0    0  0.15519617278E+02  0.13444013254E+02  0.38042093388E+01  0.20906267517E+02  0.10000000000E+01 0.  1.
    1000022    2    1    0    0    0  0.38443789754E+02  0.48144553530E+02  0.32291046708E+01  0.62499998154E+02  0.99999823533E+01 0.  0.
    3000022    2    3    3    0    0  0.22924172476E+02  0.34700540276E+02 -0.57510466800E+00  0.41593730637E+02  0.25000747516E+00 0.  0.
    1000022    2    1    0    0    0 -0.38443789754E+02 -0.48144553530E+02 -0.32291046708E+01  0.62500001846E+02  0.10000005424E+02 0.  0.
    3000022    2    5    5    0    0 -0.94126544884E+01 -0.82353369578E+01  0.26586414618E+01  0.12788655689E+02  0.25000115214E+00 0.  0.
        -13    1    4    4    0    0  0.62876734639E+01  0.95068550598E+01 -0.12054088853E+00  0.11399152855E+02  0.10500000000E+00 0. -1.
         13    1    4    4    0    0  0.16636499012E+02  0.25193685216E+02 -0.45456377947E+00  0.30194577781E+02  0.10500000000E+00 0.  1.
    3000001    1    5    5    0    0 -0.29031135266E+02 -0.39909216572E+02 -0.58877461326E+01  0.49711346157E+02  0.10000000000E+01 0.  1.
        -13    1    6    6    0    0 -0.51761646032E+01 -0.45365869476E+01  0.13952050492E+01  0.70235976011E+01  0.10500000000E+00 0. -1.
         13    1    6    6    0    0 -0.42364898852E+01 -0.36987500102E+01  0.12634364126E+01  0.57650580876E+01  0.10500000000E+00 0.  1.
</event>
<event>
11    0  0.3515428E-009  0.9118800E+02  0.7816531E-02  0.1126479E+00
         25   -1    0    0    0    0  0.00000000000E+00  0.00000000000E+00  0.99999998245E-14  0.12500000000E+03  0.12500000000E+03 0.  0.
    3000001    1    3    3    0    0  0.38894271199E+01 -0.74925664521E+01  0.57716536062E+02  0.58339221201E+02  0.10000000000E+01 0.  1.
    1000022    2    1    0    0    0  0.45565763098E+01 -0.10357848513E+02  0.60648192713E+02  0.62499995029E+02  0.99999342949E+01 0.  0.
    3000022    2    3    3    0    0  0.66714918986E+00 -0.28652820609E+01  0.29316566503E+01  0.41607738281E+01  0.24999760640E+00 0.  0.
    1000022    2    1    0    0    0 -0.45565763098E+01  0.10357848513E+02 -0.60648192713E+02  0.62500004971E+02  0.99999964266E+01 0.  0.
    3000022    2    5    5    0    0 -0.75842490942E+01  0.84261511500E+01 -0.47377293012E+02  0.48715410814E+02  0.25000026064E+00 0.  0.
        -13    1    4    4    0    0  0.31791201891E+00 -0.16537651136E+01  0.16740068512E+01  0.23768321440E+01  0.10500000000E+00 0. -1.
         13    1    4    4    0    0  0.34923717095E+00 -0.12115169473E+01  0.12576497991E+01  0.17839416841E+01  0.10500000000E+00 0.  1.
    3000001    1    5    5    0    0  0.30276727844E+01  0.19316973629E+01 -0.13270899701E+02  0.13784594157E+02  0.10000000000E+01 0. -1.
        -13    1    6    6    0    0 -0.32161105890E+01  0.35032564372E+01 -0.19682621239E+02  0.20249266081E+02  0.10500000000E+00 0.  1.
         13    1    6    6    0    0 -0.43681385052E+01  0.49228947128E+01 -0.27694671772E+02  0.28466144733E+02  0.10500000000E+00 0. -1.
</event>
<event>
11    0  0.3515428E-009  0.9118800E+02  0.7816531E-02  0.1126479E+00
         25   -1    0    0    0    0  0.00000000000E+00  0.00000000000E+00  0.99999998245E-14  0.12500000000E+03  0.12500000000E+03 0.  0.
    3000001    1    3    3    0    0 -0.73348266959E+01  0.35574192155E+02  0.40689449129E+02  0.54552306097E+02  0.10000000000E+01 0. -1.
    1000022    2    1    0    0    0 -0.53656850312E+01  0.42085992391E+02  0.44790944758E+02  0.62499999406E+02  0.99999931063E+01 0.  0.
    3000022    2    3    3    0    0  0.19691416647E+01  0.65118002360E+01  0.41014956291E+01  0.79476933091E+01  0.25000266298E+00 0.  0.
    1000022    2    1    0    0    0  0.53656850312E+01 -0.42085992391E+02 -0.44790944758E+02  0.62500000594E+02  0.10000000526E+02 0.  0.
    3000022    2    5    5    0    0  0.64267405493E+01 -0.38100450469E+02 -0.43221922343E+02  0.57975377453E+02  0.24999965279E+00 0.  0.
        -13    1    4    4    0    0  0.14744519705E+01  0.49236436705E+01  0.30758894644E+01  0.59906924979E+01  0.10500000000E+00 0. -1.
         13    1    4    4    0    0  0.49468969421E+00  0.15881565654E+01  0.10256061647E+01  0.19570008112E+01  0.10500000000E+00 0.  1.
    3000001    1    5    5    0    0 -0.10610555181E+01 -0.39855419221E+01 -0.15690224156E+01  0.45246231407E+01  0.10000000000E+01 0.  1.
        -13    1    6    6    0    0  0.46139063716E+01 -0.27106099463E+02 -0.30741199643E+02  0.41243922469E+02  0.10500000000E+00 0. -1.
         13    1    6    6    0    0  0.18128341776E+01 -0.10994351005E+02 -0.12480722699E+02  0.16731454984E+02  0.10500000000E+00 0.  1.
</event>
<event>
11    0  0.3515428E-009  0.9118800E+02  0.7816531E-02  0.1126479E+00
         25   -1    0    0    0    0  0.00000000000E+00  0.00000000000E+00  0.99999998245E-14  0.12500000000E+03  0.12500000000E+03 0.  0.
    3000001    1    3    3    0    0 -0.36928158689E+02 -0.14788124258E+02  0.25902535365E+02  0.47479667875E+02  0.10000000000E+01 0.  1.
    1000022    2    1    0    0    0 -0.44657512834E+02 -0.23012439475E+02  0.35810391522E+02  0.62500000485E+02  0.10000004828E+02 0.  0.
    3000022    2    3    3    0    0 -0.77293541451E+01 -0.82243152170E+01  0.99078561570E+01  0.15020332610E+02  0.25000357165E+00 0.  0.
    1000022    2    1    0    0    0  0.44657512834E+02  0.23012439475E+02 -0.35810391522E+02  0.62499999515E+02  0.99999987710E+01 0.  0.
    3000022    2    5    5    0    0  0.43893957755E+02  0.22284162251E+02 -0.36064277588E+02  0.61024241335E+02  0.24999589376E+00 0.  0.
        -13    1    4    4    0    0 -0.23455736629E+01 -0.25254103345E+01  0.29697741625E+01  0.45508237432E+01  0.10500000000E+00 0.  1.
         13    1    4    4    0    0 -0.53837804822E+01 -0.56989048824E+01  0.69380819945E+01  0.10469508866E+02  0.10500000000E+00 0. -1.
    3000001    1    5    5    0    0  0.76355507852E+00  0.72827722332E+00  0.25388606608E+00  0.14757581802E+01  0.10000000000E+01 0.  1.
        -13    1    6    6    0    0  0.23084936525E+02  0.11644119109E+02 -0.18944934664E+02  0.32053414461E+02  0.10500000000E+00 0.  1.
         13    1    6    6    0    0  0.20809021230E+02  0.10640043142E+02 -0.17119342924E+02  0.28970826874E+02  0.10500000000E+00 0. -1.
</event>
<event>
11    0  0.3515428E-009  0.9118800E+02  0.7816531E-02  0.1126479E+00
         25   -1    0    0    0    0  0.00000000000E+00  0.00000000000E+00  0.99999998245E-14  0.12500000000E+03  0.12500000000E+03 0.  0.
    3000001    1    3    3    0    0 -0.15387121646E+02  0.23721621819E+02  0.56064204326E+01  0.28842864011E+02  0.10000000000E+01 0. -1.
    1000022    2    1    0    0    0 -0.41207359329E+02  0.44187175714E+02  0.12477858508E+02  0.62499998957E+02  0.99999978110E+01 0.  0.
    3000022    2    3    3    0    0 -0.25820237683E+02  0.20465553895E+02  0.68714380750E+01  0.33657134946E+02  0.25000265348E+00 0.  0.
    1000022    2    1    0    0    0  0.41207359329E+02 -0.44187175714E+02 -0.12477858508E+02  0.62500001043E+02  0.10000010845E+02 0.  0.
    3000022    2    5    5    0    0  0.19733991053E+01 -0.64364482782E+01 -0.21670430947E+01  0.70767751235E+01  0.24999981664E+00 0.  0.
        -13    1    4    4    0    0 -0.14226655288E+02  0.11320820143E+02  0.38497479446E+01  0.18584678465E+02  0.10500000000E+00 0.  1.
         13    1    4    4    0    0 -0.11593582395E+02  0.91447337526E+01  0.30216901304E+01  0.15072456482E+02  0.10500000000E+00 0. -1.
    3000001    1    5    5    0    0  0.39233960224E+02 -0.37750727436E+02 -0.10310815413E+02  0.55423225919E+02  0.10000000000E+01 0. -1.
        -13    1    6    6    0    0  0.61179508802E+00 -0.21547436997E+01 -0.74857080374E+00  0.23640213386E+01  0.10500000000E+00 0. -1.
         13    1    6    6    0    0  0.13616040172E+01 -0.42817045785E+01 -0.14184722909E+01  0.47127537849E+01  0.10500000000E+00 0.  1.
</event>
<event>
11    0  0.3515428E-009  0.9118800E+02  0.7816531E-02  0.1126479E+00
         25   -1    0    0    0    0  0.00000000000E+00  0.00000000000E+00  0.99999998245E-14  0.12500000000E+03  0.12500000000E+03 0.  0.
    3000001    1    3    3    0    0  0.79573599796E+01 -0.16399752595E+02 -0.18335800655E+02  0.25874177257E+02  0.10000000000E+01 0. -1.
    1000022    2    1    0    0    0  0.28995249812E+02 -0.33195910018E+02 -0.43168936824E+02  0.62499999631E+02  0.99999946903E+01 0.  0.
    3000022    2    3    3    0    0  0.21037889832E+02 -0.16796157423E+02 -0.24833136169E+02  0.36625822375E+02  0.24999976283E+00 0.  0.
    1000022    2    1    0    0    0 -0.28995249812E+02  0.33195910018E+02  0.43168936824E+02  0.62500000369E+02  0.99999992972E+01 0.  0.
    3000022    2    5    5    0    0 -0.10347217910E+02  0.12620798130E+02  0.22832686786E+02  0.28066769491E+02  0.24999978888E+00 0.  0.
        -13    1    4    4    0    0  0.13474656220E+02 -0.10829526335E+02 -0.15965651994E+02  0.23532064709E+02  0.10500000000E+00 0.  1.
         13    1    4    4    0    0  0.75632336126E+01 -0.59666310877E+01 -0.88674841754E+01  0.13093757666E+02  0.10500000000E+00 0. -1.
    3000001    1    5    5    0    0 -0.18648031902E+02  0.20575111888E+02  0.20336250038E+02  0.34433230877E+02  0.10000000000E+01 0. -1.
        -13    1    6    6    0    0 -0.51017158714E+01  0.61545131581E+01  0.11273720948E+02  0.13820757796E+02  0.10500000000E+00 0.  1.
         13    1    6    6    0    0 -0.52455020384E+01  0.64662849721E+01  0.11558965838E+02  0.14246011695E+02  0.10500000000E+00 0. -1.
</event>
<event>
11    0  0.3515428E-009  0.9118800E+02  0.7816531E-02  0.1126479E+00
         25   -1    0    0    0    0  0.00000000000E+00  0.00000000000E+00  0.99999998245E-14  0.12500000000E+03  0.12500000000E+03 0.  0.
    3000001    1    3    3    0    0  0.16639699013E+01 -0.10621630032E+02  0.39377130056E+01  0.11493189466E+02  0.10000000000E+01 0. -1.
    1000022    2    1    0    0    0  0.25327319297E+02 -0.55499357509E+02  0.91977278698E+01  0.62500000621E+02  0.10000004649E+02 0.  0.
    3000022    2    3    3    0    0  0.23663349395E+02 -0.44877727477E+02  0.52600148642E+01  0.51006811155E+02  0.24999959701E+00 0.  0.
    1000022    2    1    0    0    0 -0.25327319297E+02  0.55499357509E+02 -0.91977278698E+01  0.62499999379E+02  0.99999968866E+01 0.  0.
    3000022    2    5    5    0    0 -0.68063040363E+01  0.79700237272E+01  0.78192572862E+00  0.10512894613E+02  0.24998489734E+00 0.  0.
        -13    1    4    4    0    0  0.96257679815E+01 -0.18373019498E+02  0.21176143999E+01  0.20849905766E+02  0.10500000000E+00 0.  1.
         13    1    4    4    0    0  0.14037581414E+02 -0.26504707978E+02  0.31424004644E+01  0.30156905389E+02  0.10500000000E+00 0. -1.
    3000001    1    5    5    0    0 -0.18521015260E+02  0.47529333782E+02 -0.99796535984E+01  0.51987104766E+02  0.10000000000E+01 0.  1.
        -13    1    6    6    0    0 -0.17466520268E+01  0.20681833100E+01  0.22912092734E+00  0.27187675343E+01  0.10500000000E+00 0. -1.
         13    1    6    6    0    0 -0.50596520095E+01  0.59018404173E+01  0.55280480127E+00  0.77941270785E+01  0.10500000000E+00 0.  1.
</event>
<event>
11    0  0.3515428E-009  0.9118800E+02  0.7816531E-02  0.1126479E+00
         25   -1    0    0    0    0  0.00000000000E+00  0.00000000000E+00  0.99999998245E-14  0.12500000000E+03  0.12500000000E+03 0.  0.
    3000001    1    3    3    0    0 -0.29421386177E+01 -0.17554641253E+02 -0.64381387131E+01  0.18954451700E+02  0.10000000000E+01 0.  1.
    1000022    2    1    0    0    0  0.48211445599E+01 -0.56519326093E+02 -0.24260513234E+02  0.62499999828E+02  0.99999909603E+01 0.  0.
    3000022    2    3    3    0    0  0.77632831776E+01 -0.38964684840E+02 -0.17822374521E+02  0.43545548127E+02  0.24999555453E+00 0.  0.
    1000022    2    1    0    0    0 -0.48211445599E+01  0.56519326093E+02  0.24260513234E+02  0.62500000172E+02  0.99999931138E+01 0.  0.
    3000022    2    5    5    0    0 -0.42750576478E+01  0.51603251087E+02  0.18859221213E+02  0.55108115441E+02  0.25004413447E+00 0.  0.
        -13    1    4    4    0    0  0.40152760204E+01 -0.20486478526E+02 -0.93451936104E+01  0.22872732949E+02  0.10500000000E+00 0. -1.
         13    1    4    4    0    0  0.37480071572E+01 -0.18478206314E+02 -0.84771809106E+01  0.20672815179E+02  0.10500000000E+00 0.  1.
    3000001    1    5    5    0    0 -0.54608691214E+00  0.49160750061E+01  0.54012920214E+01  0.73918847313E+01  0.10000000000E+01 0.  1.
        -13    1    6    6    0    0 -0.32806091170E+01  0.39692285421E+02  0.14510217101E+02  0.42388646398E+02  0.10500000000E+00 0. -1.
         13    1    6    6    0    0 -0.99444853075E+00  0.11910965665E+02  0.43490041117E+01  0.12719469043E+02  0.10500000000E+00 0.  1.
</event>
<event>
11    0  0.3515428E-009  0.9118800E+02  0.7816531E-02  0.1126479E+00
         25   -1    0    0    0    0  0.00000000000E+00  0.00000000000E+00  0.99999998245E-14  0.12500000000E+03  0.12500000000E+03 0.  0.
    3000001    1    3    3    0    0  0.48104102250E+02  0.55853159534E+01 -0.75560565830E+00  0.48443486120E+02  0.10000000000E+01 0. -1.
    1000022    2    1    0    0    0  0.61613043326E+02  0.20756609939E+01 -0.24030048157E+01  0.62500000255E+02  0.10000006164E+02 0.  0.
    3000022    2    3    3    0    0  0.13508941076E+02 -0.35096549595E+01 -0.16473991574E+01  0.14056514134E+02  0.24999741107E+00 0.  0.
    1000022    2    1    0    0    0 -0.61613043326E+02 -0.20756609939E+01  0.24030048157E+01  0.62499999745E+02  0.10000002980E+02 0.  0.
    3000022    2    5    5    0    0 -0.19592428830E+02  0.14446277885E+01 -0.33468452764E+01  0.19930230522E+02  0.24999684284E+00 0.  0.
        -13    1    4    4    0    0  0.39420200824E+01 -0.10262951964E+01 -0.52465442250E+00  0.41084171433E+01  0.10500000000E+00 0.  1.
         13    1    4    4    0    0  0.95669209932E+01 -0.24833597632E+01 -0.11227447349E+01  0.99480969910E+01  0.10500000000E+00 0. -1.
    3000001    1    5    5    0    0 -0.42020614495E+02 -0.35202887824E+01  0.57498500920E+01  0.42569769224E+02  0.10000000000E+01 0. -1.
        -13    1    6    6    0    0 -0.14423175270E+02  0.10756318760E+01 -0.24323075761E+01  0.14666700854E+02  0.10500000000E+00 0. -1.
         13    1    6    6    0    0 -0.51692535603E+01  0.36899591248E+00 -0.91453770030E+00  0.52635296674E+01  0.10500000000E+00 0.  1.
</event>
<event>
11    0  0.3515428E-009  0.9118800E+02  0.7816531E-02  0.1126479E+00
         25   -1    0    0    0    0  0.00000000000E+00  0.00000000000E+00  0.99999998245E-14  0.12500000000E+03  0.12500000000E+03 0.  0.
    3000001    1    3    3    0    0  0.12873064813E+02  0.95483155718E+01  0.66787861249E+01  0.17392306116E+02  0.10000000000E+01 0. -1.
    1000022    2    1    0    0    0  0.51832793574E+02  0.19820754563E+02  0.26958285856E+02  0.62500000362E+02  0.10000003389E+02 0.  0.
    3000022    2    3    3    0    0  0.38959728761E+02  0.10272438991E+02  0.20279499731E+02  0.45107694246E+02  0.25000566320E+00 0.  0.
    1000022    2    1    0    0    0 -0.51832793574E+02 -0.19820754563E+02 -0.26958285856E+02  0.62499999638E+02  0.99999988658E+01 0.  0.
    3000022    2    5    5    0    0 -0.43509222625E+02 -0.13305816319E+02 -0.19374065686E+02  0.49452139689E+02  0.24999451409E+00 0.  0.
        -13    1    4    4    0    0  0.17980347288E+02  0.48052303883E+01  0.93956952464E+01  0.20848818716E+02  0.10500000000E+00 0. -1.
         13    1    4    4    0    0  0.20979381473E+02  0.54672086026E+01  0.10883804484E+02  0.24258875529E+02  0.10500000000E+00 0.  1.
    3000001    1    5    5    0    0 -0.83235709494E+01 -0.65149382440E+01 -0.75842201696E+01  0.13047859949E+02  0.10000000000E+01 0.  1.
        -13    1    6    6    0    0 -0.28622293930E+02 -0.87561369597E+01 -0.12805262531E+02  0.32555973611E+02  0.10500000000E+00 0.  1.
         13    1    6    6    0    0 -0.14886928695E+02 -0.45496793590E+01 -0.65688031554E+01  0.16896166078E+02  0.10500000000E+00 0. -1.
</event>
<event>
11    0  0.3515428E-009  0.9118800E+02  0.7816531E-02  0.1126479E+00
         25   -1    0    0    0    0  0.00000000000E+00  0.00000000000E+00  0.99999998245E-14  0.12500000000E+03  0.12500000000E+03 0.  0.
    3000001    1    3    3    0    0 -0.39018772901E+01  0.12313040781E+02 -0.12046583427E+02  0.17690556575E+02  0.10000000000E+01 0.  1.
    1000022    2    1    0    0    0 -0.17113416096E+01  0.36573386557E+02 -0.49655902715E+02  0.62500000006E+02  0.10000001598E+02 0.  0.
    3000022    2    3    3    0    0  0.21905356805E+01  0.24260345776E+02 -0.37609319287E+02  0.44809443430E+02  0.24999914758E+00 0.  0.
    1000022    2    1    0    0    0  0.17113416096E+01 -0.36573386557E+02  0.49655902715E+02  0.62499999994E+02  0.10000001527E+02 0.  0.
    3000022    2    5    5    0    0 -0.41246683143E+01 -0.14315120280E+02  0.18459964644E+02  0.23722738854E+02  0.24997342613E+00 0.  0.
        -13    1    4    4    0    0  0.14486784917E+01  0.16521676350E+02 -0.25556741979E+02  0.30466744893E+02  0.10500000000E+00 0.  1.
         13    1    4    4    0    0  0.74185718877E+00  0.77386694257E+01 -0.12052577308E+02  0.14342698537E+02  0.10500000000E+00 0. -1.
    3000001    1    5    5    0    0  0.58360099239E+01 -0.22258266277E+02  0.31195938070E+02  0.38777261141E+02  0.10000000000E+01 0. -1.
        -13    1    6    6    0    0 -0.23256224021E+01 -0.80954904580E+01  0.10332534613E+02  0.13331083296E+02  0.10500000000E+00 0. -1.
         13    1    6    6    0    0 -0.17990459122E+01 -0.62196298220E+01  0.81274300310E+01  0.10391655558E+02  0.10500000000E+00 0.  1.
</event>
<event>
11    0  0.3515428E-009  0.9118800E+02  0.7816531E-02  0.1126479E+00
         25   -1    0    0    0    0  0.00000000000E+00  0.00000000000E+00  0.99999998245E-14  0.12500000000E+03  0.12500000000E+03 0.  0.
    3000001    1    3    3    0    0  0.17331002754E+02  0.27699795560E+02 -0.12483199062E+02  0.34992464751E+02  0.10000000000E+01 0. -1.
    1000022    2    1    0    0    0  0.36191013490E+02  0.47488632092E+02 -0.15533499528E+02  0.62500006426E+02  0.10000078010E+02 0.  0.
    3000022    2    3    3    0    0  0.18860010736E+02  0.19788836533E+02 -0.30503004659E+01  0.27507541675E+02  0.24991959666E+00 0.  0.
    1000022    2    1    0    0    0 -0.36191013490E+02 -0.47488632092E+02  0.15533499528E+02  0.62499993574E+02  0.99999976909E+01 0.  0.
    3000022    2    5    5    0    0 -0.36226791054E+01 -0.11101893115E+02  0.24567428048E+01  0.11936244264E+02  0.25001455230E+00 0.  0.
        -13    1    4    4    0    0  0.60364174675E+01  0.64024063919E+01 -0.10010251878E+01  0.88567612520E+01  0.10500000000E+00 0.  1.
         13    1    4    4    0    0  0.12823593268E+02  0.13386430141E+02 -0.20492752781E+01  0.18650780423E+02  0.10500000000E+00 0. -1.
    3000001    1    5    5    0    0 -0.32568334384E+02 -0.36386738977E+02  0.13076756723E+02  0.50563749311E+02  0.10000000000E+01 0. -1.
        -13    1    6    6    0    0 -0.25707893528E+01 -0.77316424464E+01  0.17041725660E+01  0.83248112261E+01  0.10500000000E+00 0.  1.
         13    1    6    6    0    0 -0.10518897526E+01 -0.33702506685E+01  0.75257023878E+00  0.36114330375E+01  0.10500000000E+00 0. -1.
</event>
<event>
11    0  0.3515428E-009  0.9118800E+02  0.7816531E-02  0.1126479E+00
         25   -1    0    0    0    0  0.00000000000E+00  0.00000000000E+00  0.99999998245E-14  0.12500000000E+03  0.12500000000E+03 0.  0.
    3000001    1    3    3    0    0 -0.35838941614E+02  0.13697796726E+02 -0.84293834323E+01  0.39295214419E+02  0.10000000000E+01 0.  1.
    1000022    2    1    0    0    0 -0.52813318107E+02  0.27623796901E+02 -0.15935157478E+02  0.62500000192E+02  0.10000002767E+02 0.  0.
    3000022    2    3    3    0    0 -0.16974376493E+02  0.13926000175E+02 -0.75057740458E+01  0.23204785773E+02  0.25000104789E+00 0.  0.
    1000022    2    1    0    0    0  0.52813318107E+02 -0.27623796901E+02  0.15935157478E+02  0.62499999808E+02  0.10000000373E+02 0.  0.
    3000022    2    5    5    0    0  0.51273405148E+02 -0.28124588763E+02  0.14972253319E+02  0.60367088926E+02  0.24997489579E+00 0.  0.
        -13    1    4    4    0    0 -0.66639013283E+01  0.54192403118E+01 -0.28836608601E+01  0.90610303733E+01  0.10500000000E+00 0. -1.
         13    1    4    4    0    0 -0.10310475165E+02  0.85067598632E+01 -0.46221131856E+01  0.14143755399E+02  0.10500000000E+00 0.  1.
    3000001    1    5    5    0    0  0.15399129598E+01  0.50079186188E+00  0.96290415869E+00  0.21329108822E+01  0.10000000000E+01 0.  1.
        -13    1    6    6    0    0  0.36689949840E+02 -0.20087552301E+02  0.10683585888E+02  0.43171891424E+02  0.10500000000E+00 0. -1.
         13    1    6    6    0    0  0.14583455308E+02 -0.80370364618E+01  0.42886674310E+01  0.17195197502E+02  0.10500000000E+00 0.  1.
</event>
<event>
11    0  0.3515428E-009  0.9118800E+02  0.7816531E-02  0.1126479E+00
         25   -1    0    0    0    0  0.00000000000E+00  0.00000000000E+00  0.99999998245E-14  0.12500000000E+03  0.12500000000E+03 0.  0.
    3000001    1    3    3    0    0  0.38451578487E+02 -0.15425039783E+02  0.35750876711E+02  0.54731900442E+02  0.10000000000E+01 0. -1.
    1000022    2    1    0    0    0  0.45776238547E+02 -0.17201035326E+02  0.37615293494E+02  0.62499999179E+02  0.99999980485E+01 0.  0.
    3000022    2    3    3    0    0  0.73246600600E+01 -0.17759955434E+01  0.18644167825E+01  0.77680987365E+01  0.25000575340E+00 0.  0.
    1000022    2    1    0    0    0 -0.45776238547E+02  0.17201035326E+02 -0.37615293494E+02  0.62500000821E+02  0.10000008311E+02 0.  0.
    3000022    2    5    5    0    0 -0.36162458066E+02  0.16304311763E+02 -0.26318357491E+02  0.47605382621E+02  0.25011598703E+00 0.  0.
        -13    1    4    4    0    0  0.44730966462E+01 -0.10229104041E+01  0.11516860366E+01  0.47320550533E+01  0.10500000000E+00 0.  1.
         13    1    4    4    0    0  0.28515634138E+01 -0.75308513931E+00  0.71273074595E+00  0.30360436832E+01  0.10500000000E+00 0. -1.
    3000001    1    5    5    0    0 -0.96137804805E+01  0.89672356334E+00 -0.11296936002E+02  0.14894618200E+02  0.10000000000E+01 0.  1.
        -13    1    6    6    0    0 -0.13500603767E+02  0.60561208503E+01 -0.97535214484E+01  0.17722446430E+02  0.10500000000E+00 0. -1.
         13    1    6    6    0    0 -0.22661854299E+02  0.10248190913E+02 -0.16564836043E+02  0.29882936191E+02  0.10500000000E+00 0.  1.
</event>
<event>
11    0  0.3515428E-009  0.9118800E+02  0.7816531E-02  0.1126479E+00
         25   -1    0    0    0    0  0.00000000000E+00  0.00000000000E+00  0.99999998245E-14  0.12500000000E+03  0.12500000000E+03 0.  0.
    3000001    1    3    3    0    0 -0.69083066023E-01 -0.10211005062E+01  0.29847377940E+01  0.33099967391E+01  0.10000000000E+01 0. -1.
    1000022    2    1    0    0    0  0.32081550133E+02 -0.13577736654E+01  0.52679981524E+02  0.62499998711E+02  0.99999988596E+01 0.  0.
    3000022    2    3    3    0    0  0.32150633199E+02 -0.33667315913E+00  0.49695243730E+02  0.59190001972E+02  0.25004017261E+00 0.  0.
    1000022    2    1    0    0    0 -0.32081550133E+02  0.13577736654E+01 -0.52679981524E+02  0.62500001289E+02  0.10000014975E+02 0.  0.
    3000022    2    5    5    0    0 -0.59366681881E+01  0.30943580683E+00 -0.38343963096E+01  0.70784796651E+01  0.24999923253E+00 0.  0.
        -13    1    4    4    0    0  0.17984732070E+02 -0.16844135284E+00  0.27682239375E+02  0.33012063885E+02  0.10500000000E+00 0. -1.
         13    1    4    4    0    0  0.14165901128E+02 -0.16823180629E+00  0.22013004356E+02  0.26177938087E+02  0.10500000000E+00 0.  1.
    3000001    1    5    5    0    0 -0.26144881945E+02  0.10483378585E+01 -0.48845585215E+02  0.55421521624E+02  0.10000000000E+01 0. -1.
        -13    1    6    6    0    0 -0.16864782431E+01  0.10575876267E+00 -0.11354819459E+01  0.20385627363E+01  0.10500000000E+00 0. -1.
         13    1    6    6    0    0 -0.42501899450E+01  0.20367704416E+00 -0.26989143638E+01  0.50399169288E+01  0.10500000000E+00 0.  1.
</event>
<event>
11    0  0.3515428E-009  0.9118800E+02  0.7816531E-02  0.1126479E+00
         25   -1    0    0    0    0  0.00000000000E+00  0.00000000000E+00  0.99999998245E-14  0.12500000000E+03  0.12500000000E+03 0.  0.
    3000001    1    3    3    0    0  0.26895137495E+02  0.43345985848E+02 -0.54939088740E+01  0.51316721882E+02  0.10000000000E+01 0. -1.
    1000022    2    1    0    0    0  0.34409795552E+02  0.50191818500E+02 -0.10148766292E+02  0.62499999801E+02  0.99999921814E+01 0.  0.
    3000022    2    3    3    0    0  0.75146580563E+01  0.68458326527E+01 -0.46548574182E+01  0.11183277919E+02  0.24999404814E+00 0.  0.
    1000022    2    1    0    0    0 -0.34409795552E+02 -0.50191818500E+02  0.10148766292E+02  0.62500000199E+02  0.99999946639E+01 0.  0.
    3000022    2    5    5    0    0 -0.22456213432E+02 -0.38881189789E+02  0.47490111899E+01  0.45151346000E+02  0.24999442784E+00 0.  0.
        -13    1    4    4    0    0  0.23321003776E+01  0.20792232097E+01 -0.14685954448E+01  0.34539338308E+01  0.10500000000E+00 0.  1.
         13    1    4    4    0    0  0.51825576788E+01  0.47666094430E+01 -0.31862619733E+01  0.77293440885E+01  0.10500000000E+00 0. -1.
    3000001    1    5    5    0    0 -0.11953582120E+02 -0.11310628712E+02  0.53997551022E+01  0.17348654199E+02  0.10000000000E+01 0. -1.
        -13    1    6    6    0    0 -0.68282574334E+01 -0.11822962266E+02  0.13969240020E+01  0.13724793550E+02  0.10500000000E+00 0.  1.
         13    1    6    6    0    0 -0.15627955998E+02 -0.27058227523E+02  0.33520871879E+01  0.31426552450E+02  0.10500000000E+00 0. -1.
</event>
<event>
11    0  0.3515428E-009  0.9118800E+02  0.7816531E-02  0.1126479E+00
         25   -1    0    0    0    0  0.00000000000E+00  0.00000000000E+00  0.99999998245E-14  0.12500000000E+03  0.12500000000E+03 0.  0.
    3000001    1    3    3    0    0  0.38551688643E+02 -0.10924146080E+01 -0.30549340815E+02  0.49210652212E+02  0.10000000000E+01 0.  1.
    1000022    2    1    0    0    0  0.47557306407E+02 -0.63480323176E+01 -0.38784727702E+02  0.62499999831E+02  0.99999984489E+01 0.  0.
    3000022    2    3    3    0    0  0.90056177640E+01 -0.52556177096E+01 -0.82353868872E+01  0.13289347619E+02  0.24998828392E+00 0.  0.
    1000022    2    1    0    0    0 -0.47557306407E+02  0.63480323176E+01  0.38784727702E+02  0.62500000169E+02  0.10000000561E+02 0.  0.
    3000022    2    5    5    0    0 -0.40006606867E+02  0.46157022579E+01  0.36524261065E+02  0.54368349635E+02  0.24999084235E+00 0.  0.
        -13    1    4    4    0    0  0.66005089424E+01 -0.38137353310E+01 -0.60362839058E+01  0.97241474621E+01  0.10500000000E+00 0.  1.
         13    1    4    4    0    0  0.24051088216E+01 -0.14418823785E+01 -0.21991029814E+01  0.35652001571E+01  0.10500000000E+00 0. -1.
    3000001    1    5    5    0    0 -0.75506995404E+01  0.17323300597E+01  0.22604666370E+01  0.81316505337E+01  0.10000000000E+01 0.  1.
        -13    1    6    6    0    0 -0.17592082724E+02  0.19729621863E+01  0.16008253867E+02  0.23867324342E+02  0.10500000000E+00 0. -1.
         13    1    6    6    0    0 -0.22414524143E+02  0.26427400716E+01  0.20516007198E+02  0.30501025294E+02  0.10500000000E+00 0.  1.
</event>
<event>
11    0  0.3515428E-009  0.9118800E+02  0.7816531E-02  0.1126479E+00
         25   -1    0    0    0    0  0.00000000000E+00  0.00000000000E+00  0.99999998245E-14  0.12500000000E+03  0.12500000000E+03 0.  0.
    3000001    1    3    3    0    0  0.94775678584E+01  0.15062638171E+02 -0.63700695802E+01  0.18928421689E+02  0.10000000000E+01 0.  1.
    1000022    2    1    0    0    0  0.20261255443E+02  0.56628996243E+02 -0.13743664342E+02  0.62499999989E+02  0.10000000072E+02 0.  0.
    3000022    2    3    3    0    0  0.10783687584E+02  0.41566358072E+02 -0.73735947613E+01  0.43571578300E+02  0.24998904975E+00 0.  0.
    1000022    2    1    0    0    0 -0.20261255443E+02 -0.56628996243E+02  0.13743664342E+02  0.62500000011E+02  0.10000000212E+02 0.  0.
    3000022    2    5    5    0    0 -0.10848121032E+02 -0.22458822347E+02  0.14977102558E+01  0.24987718356E+02  0.25000294068E+00 0.  0.
        -13    1    4    4    0    0  0.36769046237E+01  0.13990854415E+02 -0.24544328964E+01  0.14673067188E+02  0.10500000000E+00 0.  1.
         13    1    4    4    0    0  0.71067829608E+01  0.27575503657E+02 -0.49191618649E+01  0.28898511112E+02  0.10500000000E+00 0. -1.
    3000001    1    5    5    0    0 -0.94131344104E+01 -0.34170173896E+02  0.12245954086E+02  0.37512281655E+02  0.10000000000E+01 0. -1.
        -13    1    6    6    0    0 -0.72800890375E+01 -0.15181390687E+02  0.10315066586E+01  0.16868590652E+02  0.10500000000E+00 0.  1.
         13    1    6    6    0    0 -0.35680319949E+01 -0.72774316606E+01  0.46620359718E+00  0.81191277047E+01  0.10500000000E+00 0. -1.
</event>
<event>
11    0  0.3515428E-009  0.9118800E+02  0.7816531E-02  0.1126479E+00
         25   -1    0    0    0    0  0.00000000000E+00  0.00000000000E+00  0.99999998245E-14  0.12500000000E+03  0.12500000000E+03 0.  0.
    3000001    1    3    3    0    0  0.21183201288E+02  0.12942857764E+02 -0.39053592351E+02  0.46286376607E+02  0.10000000000E+01 0.  1.
    1000022    2    1    0    0    0  0.32697247053E+02  0.13960583467E+02 -0.50420653101E+02  0.62500000047E+02  0.99999945603E+01 0.  0.
    3000022    2    3    3    0    0  0.11514045765E+02  0.10177257027E+01 -0.11367060750E+02  0.16213623440E+02  0.24999896258E+00 0.  0.
    1000022    2    1    0    0    0 -0.32697247053E+02 -0.13960583467E+02  0.50420653101E+02  0.62499999953E+02  0.99999939683E+01 0.  0.
    3000022    2    5    5    0    0 -0.60764506555E+01  0.61887766111E+00  0.51831662140E+01  0.80146100993E+01  0.25000182626E+00 0.  0.
        -13    1    4    4    0    0  0.36301910602E+01  0.28540898820E+00 -0.36306283376E+01  0.51431733930E+01  0.10500000000E+00 0. -1.
         13    1    4    4    0    0  0.78838547044E+01  0.73231671452E+00 -0.77364324127E+01  0.11070450047E+02  0.10500000000E+00 0.  1.
    3000001    1    5    5    0    0 -0.26620796397E+02 -0.14579461128E+02  0.45237486887E+02  0.54485389853E+02  0.10000000000E+01 0.  1.
        -13    1    6    6    0    0 -0.18581721918E+01  0.17787281027E+00  0.16459983733E+01  0.24909392357E+01  0.10500000000E+00 0.  1.
         13    1    6    6    0    0 -0.42182784637E+01  0.44100485084E+00  0.35371678407E+01  0.55236708636E+01  0.10500000000E+00 0. -1.
</event>
<event>
11    0  0.3515428E-009  0.9118800E+02  0.7816531E-02  0.1126479E+00
         25   -1    0    0    0    0  0.00000000000E+00  0.00000000000E+00  0.99999998245E-14  0.12500000000E+03  0.12500000000E+03 0.  0.
    3000001    1    3    3    0    0 -0.22515687362E+02  0.38998376878E+02 -0.33122958259E+02  0.55910284746E+02  0.10000000000E+01 0. -1.
    1000022    2    1    0    0    0 -0.27522301251E+02  0.42997195112E+02 -0.34641219512E+02  0.62500000151E+02  0.10000003797E+02 0.  0.
    3000022    2    3    3    0    0 -0.50066138894E+01  0.39988182341E+01 -0.15182612531E+01  0.65897154056E+01  0.25000397600E+00 0.  0.
    1000022    2    1    0    0    0  0.27522301251E+02 -0.42997195112E+02  0.34641219512E+02  0.62499999849E+02  0.10000001906E+02 0.  0.
    3000022    2    5    5    0    0  0.81814835503E+01 -0.10257750343E+02  0.14128347375E+02  0.19282915305E+02  0.25001586319E+00 0.  0.
        -13    1    4    4    0    0 -0.29824934941E+01  0.24226562218E+01 -0.85412217049E+00  0.39376490820E+01  0.10500000000E+00 0. -1.
         13    1    4    4    0    0 -0.20241203953E+01  0.15761620123E+01 -0.66413908262E+00  0.26520663236E+01  0.10500000000E+00 0.  1.
    3000001    1    5    5    0    0  0.19340817701E+02 -0.32739444769E+02  0.20512872138E+02  0.43217084544E+02  0.10000000000E+01 0. -1.
        -13    1    6    6    0    0  0.30984251811E+01 -0.38846030649E+01  0.54402549232E+01  0.73687026133E+01  0.10500000000E+00 0.  1.
         13    1    6    6    0    0  0.50830583692E+01 -0.63731472780E+01  0.86880924516E+01  0.11914212692E+02  0.10500000000E+00 0. -1.
</event>
<event>
11    0  0.3515428E-009  0.9118800E+02  0.7816531E-02  0.1126479E+00
         25   -1    0    0    0    0  0.00000000000E+00  0.00000000000E+00  0.99999998245E-14  0.12500000000E+03  0.12500000000E+03 0.  0.
    3000001    1    3    3    0    0 -0.10562250960E+02  0.43106369098E+02  0.14523473554E+02  0.46708152246E+02  0.10000000000E+01 0.  1.
    1000022    2    1    0    0    0 -0.12848878188E+02  0.55161470644E+02  0.24461573503E+02  0.62500000410E+02  0.99999979336E+01 0.  0.
    3000022    2    3    3    0    0 -0.22866272289E+01  0.12055101546E+02  0.99380999489E+01  0.15791848163E+02  0.25000093688E+00 0.  0.
    1000022    2    1    0    0    0  0.12848878188E+02 -0.55161470644E+02 -0.24461573503E+02  0.62499999590E+02  0.99999928112E+01 0.  0.
    3000022    2    5    5    0    0  0.84357912377E+01 -0.24068305917E+02 -0.65506113687E+01  0.26332848835E+02  0.24998988205E+00 0.  0.
        -13    1    4    4    0    0 -0.10336087334E+01  0.55419377364E+01  0.46496050273E+01  0.73083016356E+01  0.10500000000E+00 0. -1.
         13    1    4    4    0    0 -0.12530184954E+01  0.65131638091E+01  0.52884949216E+01  0.84835465278E+01  0.10500000000E+00 0.  1.
    3000001    1    5    5    0    0  0.44130869507E+01 -0.31093164727E+02 -0.17910962134E+02  0.36167150755E+02  0.10000000000E+01 0.  1.
        -13    1    6    6    0    0  0.24938621879E+01 -0.70757133756E+01 -0.19706452219E+01  0.77575470334E+01  0.10500000000E+00 0.  1.
         13    1    6    6    0    0  0.59419290499E+01 -0.16992592541E+02 -0.45799661468E+01  0.18575301802E+02  0.10500000000E+00 0. -1.
</event>
<event>
11    0  0.3515428E-009  0.9118800E+02  0.7816531E-02  0.1126479E+00
         25   -1    0    0    0    0  0.00000000000E+00  0.00000000000E+00  0.99999998245E-14  0.12500000000E+03  0.12500000000E+03 0.  0.
    3000001    1    3    3    0    0 -0.26852302053E+02  0.13653106855E+02 -0.53397004038E+01  0.30609897954E+02  0.10000000000E+01 0.  1.
    1000022    2    1    0    0    0 -0.55637783210E+02  0.20194781790E+02 -0.17402810540E+02  0.62499999302E+02  0.99999982986E+01 0.  0.
    3000022    2    3    3    0    0 -0.28785481157E+02  0.65416749351E+01 -0.12063110136E+02  0.31890101348E+02  0.25000287476E+00 0.  0.
    1000022    2    1    0    0    0  0.55637783210E+02 -0.20194781790E+02  0.17402810540E+02  0.62500000698E+02  0.10000007025E+02 0.  0.
    3000022    2    5    5    0    0  0.16259475761E+02 -0.43675489208E+01  0.94546280179E+01  0.19310580660E+02  0.24999772427E+00 0.  0.
        -13    1    4    4    0    0 -0.84880386230E+01  0.19192397549E+01 -0.36031999923E+01  0.94193607048E+01  0.10500000000E+00 0. -1.
         13    1    4    4    0    0 -0.20297442534E+02  0.46224351802E+01 -0.84599101434E+01  0.22470740643E+02  0.10500000000E+00 0.  1.
    3000001    1    5    5    0    0  0.39378307449E+02 -0.15827232870E+02  0.79481825216E+01  0.43189420038E+02  0.10000000000E+01 0. -1.
        -13    1    6    6    0    0  0.57388804399E+01 -0.15842134873E+01  0.32982433369E+01  0.68069020256E+01  0.10500000000E+00 0.  1.
         13    1    6    6    0    0  0.10520595322E+02 -0.27833354335E+01  0.61563846810E+01  0.12503678635E+02  0.10500000000E+00 0. -1.
</event>
<event>
11    0  0.3515428E-009  0.9118800E+02  0.7816531E-02  0.1126479E+00
         25   -1    0    0    0    0  0.00000000000E+00  0.00000000000E+00  0.99999998245E-14  0.12500000000E+03  0.12500000000E+03 0.  0.
    3000001    1    3    3    0    0 -0.17832742060E+02 -0.21825424975E+02 -0.10113933426E+02  0.29960766247E+02  0.10000000000E+01 0. -1.
    1000022    2    1    0    0    0 -0.31510907395E+02 -0.44039124722E+02 -0.29561260535E+02  0.62499999435E+02  0.10000000688E+02 0.  0.
    3000022    2    3    3    0    0 -0.13678165335E+02 -0.22213699747E+02 -0.19447327109E+02  0.32539233188E+02  0.25000282696E+00 0.  0.
    1000022    2    1    0    0    0  0.31510907395E+02  0.44039124722E+02  0.29561260535E+02  0.62500000565E+02  0.10000007752E+02 0.  0.
    3000022    2    5    5    0    0  0.39999466444E+01  0.66042371064E+01  0.84888636198E+01  0.11477753613E+02  0.25000308145E+00 0.  0.
        -13    1    4    4    0    0 -0.50498777775E+01 -0.81796608749E+01 -0.70937634790E+01  0.11947410719E+02  0.10500000000E+00 0. -1.
         13    1    4    4    0    0 -0.86282875575E+01 -0.14034038872E+02 -0.12353563630E+02  0.20591822469E+02  0.10500000000E+00 0.  1.
    3000001    1    5    5    0    0  0.27510960750E+02  0.37434887616E+02  0.21072396916E+02  0.51022246952E+02  0.10000000000E+01 0.  1.
        -13    1    6    6    0    0  0.24300501909E+01  0.41178057819E+01  0.52952815372E+01  0.71352995694E+01  0.10500000000E+00 0. -1.
         13    1    6    6    0    0  0.15698964535E+01  0.24864313246E+01  0.31935820826E+01  0.43424540440E+01  0.10500000000E+00 0.  1.
</event>
<event>
11    0  0.3515428E-009  0.9118800E+02  0.7816531E-02  0.1126479E+00
         25   -1    0    0    0    0  0.00000000000E+00  0.00000000000E+00  0.99999998245E-14  0.12500000000E+03  0.12500000000E+03 0.  0.
    3000001    1    3    3    0    0 -0.17255958992E+02 -0.15425959237E+02 -0.51405092844E+02  0.56384500614E+02  0.10000000000E+01 0. -1.
    1000022    2    1    0    0    0 -0.17647643320E+02 -0.14217172335E+02 -0.57381902105E+02  0.62499999725E+02  0.99999986277E+01 0.  0.
    3000022    2    3    3    0    0 -0.39168432810E+00  0.12087869027E+01 -0.59768092607E+01  0.61154991118E+01  0.24999611693E+00 0.  0.
    1000022    2    1    0    0    0  0.17647643320E+02  0.14217172335E+02  0.57381902105E+02  0.62500000275E+02  0.10000002061E+02 0.  0.
    3000022    2    5    5    0    0 -0.11444635989E+01  0.60130596409E+00  0.55056755098E+01  0.56609469291E+01  0.24998304540E+00 0.  0.
        -13    1    4    4    0    0 -0.19793382345E+00  0.74100289673E+00 -0.33506949837E+01  0.34389598667E+01  0.10500000000E+00 0. -1.
         13    1    4    4    0    0 -0.19375050465E+00  0.46778400602E+00 -0.26261142770E+01  0.26765392450E+01  0.10500000000E+00 0.  1.
    3000001    1    5    5    0    0  0.18792106919E+02  0.13615866371E+02  0.51876226595E+02  0.56839053346E+02  0.10000000000E+01 0. -1.
        -13    1    6    6    0    0 -0.45023594502E+00  0.17325982946E+00  0.19750467348E+01  0.20358207140E+01  0.10500000000E+00 0.  1.
         13    1    6    6    0    0 -0.69422765392E+00  0.42804613464E+00  0.35306287750E+01  0.36251262151E+01  0.10500000000E+00 0. -1.
</event>
<event>
11    0  0.3515428E-009  0.9118800E+02  0.7816531E-02  0.1126479E+00
         25   -1    0    0    0    0  0.00000000000E+00  0.00000000000E+00  0.99999998245E-14  0.12500000000E+03  0.12500000000E+03 0.  0.
    3000001    1    3    3    0    0 -0.16090327593E+02  0.42742436888E+02  0.28637935018E+02  0.53916100334E+02  0.10000000000E+01 0. -1.
    1000022    2    1    0    0    0 -0.15766000494E+02  0.51008169249E+02  0.30916821785E+02  0.62500000148E+02  0.10000002378E+02 0.  0.
    3000022    2    3    3    0    0  0.32432709938E+00  0.82657323608E+01  0.22788867668E+01  0.85838998137E+01  0.24998317453E+00 0.  0.
    1000022    2    1    0    0    0  0.15766000494E+02 -0.51008169249E+02 -0.30916821785E+02  0.62499999852E+02  0.10000000526E+02 0.  0.
    3000022    2    5    5    0    0  0.15759996262E+02 -0.41277001069E+02 -0.27930859938E+02  0.52272016749E+02  0.24999750724E+00 0.  0.
        -13    1    4    4    0    0  0.14918921385E+00  0.49303434440E+01  0.13115228762E+01  0.51050623064E+01  0.10500000000E+00 0.  1.
         13    1    4    4    0    0  0.17513788553E+00  0.33353889169E+01  0.96736389061E+00  0.34788375073E+01  0.10500000000E+00 0. -1.
    3000001    1    5    5    0    0  0.60042323624E-02 -0.97311681801E+01 -0.29859618468E+01  0.10227983103E+02  0.10000000000E+01 0. -1.
        -13    1    6    6    0    0  0.50917253321E+01 -0.13227690774E+02 -0.89995966027E+01  0.16789914654E+02  0.10500000000E+00 0.  1.
         13    1    6    6    0    0  0.10668270929E+02 -0.28049310295E+02 -0.18931263335E+02  0.35482102095E+02  0.10500000000E+00 0. -1.
</event>
<event>
11    0  0.3515428E-009  0.9118800E+02  0.7816531E-02  0.1126479E+00
         25   -1    0    0    0    0  0.00000000000E+00  0.00000000000E+00  0.99999998245E-14  0.12500000000E+03  0.12500000000E+03 0.  0.
    3000001    1    3    3    0    0  0.93787093246E+01 -0.13810394796E+02 -0.16802148948E+02  0.23706526576E+02  0.10000000000E+01 0.  1.
    1000022    2    1    0    0    0  0.21839933247E+02 -0.26344555798E+02 -0.51334508769E+02  0.62500001132E+02  0.10000002322E+02 0.  0.
    3000022    2    3    3    0    0  0.12461223923E+02 -0.12534161002E+02 -0.34532359821E+02  0.38793474556E+02  0.24999926396E+00 0.  0.
    1000022    2    1    0    0    0 -0.21839933247E+02  0.26344555798E+02  0.51334508769E+02  0.62499998868E+02  0.99999881742E+01 0.  0.
    3000022    2    5    5    0    0 -0.12353209559E+02  0.11942190117E+02  0.33618881323E+02  0.37755918376E+02  0.24999972659E+00 0.  0.
        -13    1    4    4    0    0  0.34959006442E+01 -0.35645509834E+01 -0.97075310509E+01  0.10916708713E+02  0.10500000000E+00 0. -1.
         13    1    4    4    0    0  0.89653232783E+01 -0.89696100188E+01 -0.24824828770E+02  0.27876765842E+02  0.10500000000E+00 0.  1.
    3000001    1    5    5    0    0 -0.94867236884E+01  0.14402365681E+02  0.17715627447E+02  0.24744080492E+02  0.10000000000E+01 0. -1.
        -13    1    6    6    0    0 -0.41777786915E+01  0.40499915063E+01  0.11504587277E+02  0.12892742897E+02  0.10500000000E+00 0. -1.
         13    1    6    6    0    0 -0.81754308673E+01  0.78921986108E+01  0.22114294046E+02  0.24863175479E+02  0.10500000000E+00 0.  1.
</event>
<event>
11    0  0.3515428E-009  0.9118800E+02  0.7816531E-02  0.1126479E+00
         25   -1    0    0    0    0  0.00000000000E+00  0.00000000000E+00  0.99999998245E-14  0.12500000000E+03  0.12500000000E+03 0.  0.
    3000001    1    3    3    0    0  0.30216954287E+02 -0.39464652836E+01 -0.91435221151E+01  0.31831476737E+02  0.10000000000E+01 0.  1.
    1000022    2    1    0    0    0  0.54914579055E+02 -0.12469720999E+02 -0.25202080326E+02  0.62500000532E+02  0.10000013963E+02 0.  0.
    3000022    2    3    3    0    0  0.24697624768E+02 -0.85232557151E+01 -0.16058558211E+02  0.30668523795E+02  0.25000560520E+00 0.  0.
    1000022    2    1    0    0    0 -0.54914579055E+02  0.12469720999E+02  0.25202080326E+02  0.62499999468E+02  0.10000007311E+02 0.  0.
    3000022    2    5    5    0    0 -0.42427457149E+02  0.98920477127E+01  0.14790232892E+02  0.46008208176E+02  0.25000482894E+00 0.  0.
        -13    1    4    4    0    0  0.10328751632E+02 -0.35724974035E+01 -0.66421468487E+01  0.12789643769E+02  0.10500000000E+00 0. -1.
         13    1    4    4    0    0  0.14368873136E+02 -0.49507583115E+01 -0.94164113619E+01  0.17878880026E+02  0.10500000000E+00 0.  1.
    3000001    1    5    5    0    0 -0.12487121905E+02  0.25776732859E+01  0.10411847434E+02  0.16491791292E+02  0.10000000000E+01 0.  1.
        -13    1    6    6    0    0 -0.12868822310E+02  0.30423124949E+01  0.44652912208E+01  0.13957510654E+02  0.10500000000E+00 0.  1.
         13    1    6    6    0    0 -0.29558634839E+02  0.68497352178E+01  0.10324941671E+02  0.32050697522E+02  0.10500000000E+00 0. -1.
</event>
<event>
11    0  0.3515428E-009  0.9118800E+02  0.7816531E-02  0.1126479E+00
         25   -1    0    0    0    0  0.00000000000E+00  0.00000000000E+00  0.99999998245E-14  0.12500000000E+03  0.12500000000E+03 0.  0.
    3000001    1    3    3    0    0  0.35540376851E+01 -0.11308721593E+01 -0.19656638415E+02  0.20032311137E+02  0.10000000000E+01 0. -1.
    1000022    2    1    0    0    0  0.19975340938E+02  0.71793397949E+01 -0.57928343167E+02  0.62500001186E+02  0.10000002033E+02 0.  0.
    3000022    2    3    3    0    0  0.16421303253E+02  0.83102119542E+01 -0.38271704752E+02  0.42467690048E+02  0.24998040779E+00 0.  0.
    1000022    2    1    0    0    0 -0.19975340938E+02 -0.71793397949E+01  0.57928343167E+02  0.62499998814E+02  0.99999872123E+01 0.  0.
    3000022    2    5    5    0    0 -0.10885213643E+02 -0.13306290909E+01  0.40571022275E+02  0.42027714631E+02  0.24999767413E+00 0.  0.
        -13    1    4    4    0    0  0.96547351620E+01  0.48226728088E+01 -0.22370417991E+02  0.24837848340E+02  0.10500000000E+00 0.  1.
         13    1    4    4    0    0  0.67665680907E+01  0.34875391453E+01 -0.15901286761E+02  0.17629841709E+02  0.10500000000E+00 0. -1.
    3000001    1    5    5    0    0 -0.90901272950E+01 -0.58487107040E+01  0.17357320892E+02  0.20472284184E+02  0.10000000000E+01 0. -1.
        -13    1    6    6    0    0 -0.45623037975E+01 -0.54625475063E+00  0.17245196179E+02  0.17847151775E+02  0.10500000000E+00 0. -1.
         13    1    6    6    0    0 -0.63229098452E+01 -0.78437434030E+00  0.23325826095E+02  0.24180562856E+02  0.10500000000E+00 0.  1.
</event>
<event>
11    0  0.3515428E-009  0.9118800E+02  0.7816531E-02  0.1126479E+00
         25   -1    0    0    0    0  0.00000000000E+00  0.00000000000E+00  0.99999998245E-14  0.12500000000E+03  0.12500000000E+03 0.  0.
    3000001    1    3    3    0    0 -0.10690564833E+02  0.42111366844E+01 -0.27262892968E+02  0.29602148260E+02  0.10000000000E+01 0. -1.
    1000022    2    1    0    0    0 -0.26558851107E+02  0.17330131407E+02 -0.52920168228E+02  0.62500002426E+02  0.10000003567E+02 0.  0.
    3000022    2    3    3    0    0 -0.15868286274E+02  0.13118994722E+02 -0.25657275260E+02  0.32897854166E+02  0.25000638882E+00 0.  0.
    1000022    2    1    0    0    0  0.26558851107E+02 -0.17330131407E+02  0.52920168228E+02  0.62499997574E+02  0.99999732412E+01 0.  0.
    3000022    2    5    5    0    0  0.60549293791E+01 -0.23562143109E+01  0.47951217042E+01  0.80789620980E+01  0.25004151040E+00 0.  0.
        -13    1    4    4    0    0 -0.10885767512E+02  0.90621659203E+01 -0.17664066638E+02  0.22641843138E+02  0.10500000000E+00 0.  1.
         13    1    4    4    0    0 -0.49825187612E+01  0.40568288020E+01 -0.79932086220E+01  0.10256011028E+02  0.10500000000E+00 0. -1.
    3000001    1    5    5    0    0  0.20503921728E+02 -0.14973917096E+02  0.48125046523E+02  0.54421035476E+02  0.10000000000E+01 0.  1.
        -13    1    6    6    0    0  0.44325887695E+01 -0.16861876267E+01  0.35008837124E+01  0.58956156319E+01  0.10500000000E+00 0. -1.
         13    1    6    6    0    0  0.16223406096E+01 -0.67002668417E+00  0.12942379919E+01  0.21833464660E+01  0.10500000000E+00 0.  1.
</event>
<event>
11    0  0.3515428E-009  0.9118800E+02  0.7816531E-02  0.1126479E+00
         25   -1    0    0    0    0  0.00000000000E+00  0.00000000000E+00  0.99999998245E-14  0.12500000000E+03  0.12500000000E+03 0.  0.
    3000001    1    3    3    0    0 -0.15310394253E+02 -0.15163194307E+02  0.13420295242E+02  0.25405411986E+02  0.10000000000E+01 0.  1.
    1000022    2    1    0    0    0 -0.45617695126E+02 -0.32983714645E+02  0.25245800299E+02  0.62500000208E+02  0.10000002643E+02 0.  0.
    3000022    2    3    3    0    0 -0.30307300872E+02 -0.17820520338E+02  0.11825505057E+02  0.37094588222E+02  0.24994845203E+00 0.  0.
    1000022    2    1    0    0    0  0.45617695126E+02  0.32983714645E+02 -0.25245800299E+02  0.62499999792E+02  0.10000000045E+02 0.  0.
    3000022    2    5    5    0    0  0.28233015911E+02  0.15005221459E+02 -0.16552045068E+02  0.36004062960E+02  0.24999032568E+00 0.  0.
        -13    1    4    4    0    0 -0.72710887103E+01 -0.42805255327E+01  0.28183732852E+01  0.88963971834E+01  0.10500000000E+00 0.  1.
         13    1    4    4    0    0 -0.23036212162E+02 -0.13539994806E+02  0.90071317721E+01  0.28198191039E+02  0.10500000000E+00 0. -1.
    3000001    1    5    5    0    0  0.17384679214E+02  0.17978493186E+02 -0.86937552310E+01  0.26495936832E+02  0.10000000000E+01 0. -1.
        -13    1    6    6    0    0  0.69309367171E+01  0.36955670975E+01 -0.40427565893E+01  0.88345914331E+01  0.10500000000E+00 0.  1.
         13    1    6    6    0    0  0.21302079194E+02  0.11309654362E+02 -0.12509288479E+02  0.27169471527E+02  0.10500000000E+00 0. -1.
</event>
<event>
11    0  0.3515428E-009  0.9118800E+02  0.7816531E-02  0.1126479E+00
         25   -1    0    0    0    0  0.00000000000E+00  0.00000000000E+00  0.99999998245E-14  0.12500000000E+03  0.12500000000E+03 0.  0.
    3000001    1    3    3    0    0 -0.11004406163E+02  0.61909066355E+01  0.12054021209E+02  0.17484956599E+02  0.10000000000E+01 0. -1.
    1000022    2    1    0    0    0 -0.44742337320E+02  0.73914558415E+01  0.41829889191E+02  0.62499999965E+02  0.99999998795E+01 0.  0.
    3000022    2    3    3    0    0 -0.33737931157E+02  0.12005492060E+01  0.29775867982E+02  0.45015043366E+02  0.24999599181E+00 0.  0.
    1000022    2    1    0    0    0  0.44742337320E+02 -0.73914558415E+01 -0.41829889191E+02  0.62500000035E+02  0.10000000314E+02 0.  0.
    3000022    2    5    5    0    0  0.15088308261E+02 -0.26186982831E+01 -0.81058553678E+01  0.17328647260E+02  0.24999550975E+00 0.  0.
        -13    1    4    4    0    0 -0.15955798841E+02  0.63527107550E+00  0.14081286591E+02  0.21290484801E+02  0.10500000000E+00 0. -1.
         13    1    4    4    0    0 -0.17782132316E+02  0.56527813046E+00  0.15694581391E+02  0.23724558565E+02  0.10500000000E+00 0.  1.
    3000001    1    5    5    0    0  0.29654029059E+02 -0.47727575584E+01 -0.33724033823E+02  0.45171352774E+02  0.10000000000E+01 0. -1.
        -13    1    6    6    0    0  0.10027718679E+02 -0.17915914617E+01 -0.54126135148E+01  0.11535699023E+02  0.10500000000E+00 0. -1.
         13    1    6    6    0    0  0.50605895815E+01 -0.82710682134E+00 -0.26932418530E+01  0.57929482377E+01  0.10500000000E+00 0.  1.
</event>
<event>
11    0  0.3515428E-009  0.9118800E+02  0.7816531E-02  0.1126479E+00
         25   -1    0    0    0    0  0.00000000000E+00  0.00000000000E+00  0.99999998245E-14  0.12500000000E+03  0.12500000000E+03 0.  0.
    3000001    1    3    3    0    0 -0.60067144680E+01  0.46763981549E+02  0.30879940918E+02  0.56369507184E+02  0.10000000000E+01 0.  1.
    1000022    2    1    0    0    0 -0.94508705774E+01  0.51541019191E+02  0.32564618170E+02  0.62499999350E+02  0.99999974145E+01 0.  0.
    3000022    2    3    3    0    0 -0.34441561094E+01  0.47770376424E+01  0.16846772514E+01  0.61304921666E+01  0.24999364103E+00 0.  0.
    1000022    2    1    0    0    0  0.94508705774E+01 -0.51541019191E+02 -0.32564618170E+02  0.62500000650E+02  0.10000005537E+02 0.  0.
    3000022    2    5    5    0    0 -0.15003678813E+00 -0.23285417990E+02 -0.11602364813E+02  0.26017505021E+02  0.24999254904E+00 0.  0.
        -13    1    4    4    0    0 -0.15357723422E+01  0.20530825727E+01  0.78350188530E+00  0.26830290609E+01  0.10500000000E+00 0.  1.
         13    1    4    4    0    0 -0.19083837671E+01  0.27239550698E+01  0.90117536606E+00  0.34474631057E+01  0.10500000000E+00 0. -1.
    3000001    1    5    5    0    0  0.96009073655E+01 -0.28255601201E+02 -0.20962253357E+02  0.36482495629E+02  0.10000000000E+01 0. -1.
        -13    1    6    6    0    0 -0.12692615932E+00 -0.17128184068E+02 -0.85668557822E+01  0.19151836536E+02  0.10500000000E+00 0.  1.
         13    1    6    6    0    0 -0.23110628811E-01 -0.61572339223E+01 -0.30355090305E+01  0.68656684853E+01  0.10500000000E+00 0. -1.
</event>
<event>
11    0  0.3515428E-009  0.9118800E+02  0.7816531E-02  0.1126479E+00
         25   -1    0    0    0    0  0.00000000000E+00  0.00000000000E+00  0.99999998245E-14  0.12500000000E+03  0.12500000000E+03 0.  0.
    3000001    1    3    3    0    0  0.27316958088E+02  0.22129739498E+02  0.28969853041E+02  0.45565271366E+02  0.10000000000E+01 0. -1.
    1000022    2    1    0    0    0  0.35822201624E+02  0.34909272211E+02  0.36115961341E+02  0.62499998647E+02  0.99999875897E+01 0.  0.
    3000022    2    3    3    0    0  0.85052435361E+01  0.12779532712E+02  0.71461083002E+01  0.16934727281E+02  0.25000057250E+00 0.  0.
    1000022    2    1    0    0    0 -0.35822201624E+02 -0.34909272211E+02 -0.36115961341E+02  0.62500001353E+02  0.10000004507E+02 0.  0.
    3000022    2    5    5    0    0 -0.18086927025E+02 -0.11635721960E+02 -0.18203211694E+02  0.28177054128E+02  0.25001719434E+00 0.  0.
        -13    1    4    4    0    0  0.49950110140E+01  0.74067547020E+01  0.41202306294E+01  0.98385708152E+01  0.10500000000E+00 0. -1.
         13    1    4    4    0    0  0.35102325221E+01  0.53727780102E+01  0.30258776707E+01  0.70961564656E+01  0.10500000000E+00 0.  1.
    3000001    1    5    5    0    0 -0.17735274599E+02 -0.23273550250E+02 -0.17912749648E+02  0.34322947226E+02  0.10000000000E+01 0. -1.
        -13    1    6    6    0    0 -0.73821742679E+01 -0.47452172081E+01 -0.75115828021E+01  0.11551990498E+02  0.10500000000E+00 0. -1.
         13    1    6    6    0    0 -0.10704752757E+02 -0.68905047524E+01 -0.10691628891E+02  0.16625063630E+02  0.10500000000E+00 0.  1.
</event>
<event>
11    0  0.3515428E-009  0.9118800E+02  0.7816531E-02  0.1126479E+00
         25   -1    0    0    0    0  0.00000000000E+00  0.00000000000E+00  0.99999998245E-14  0.12500000000E+03  0.12500000000E+03 0.  0.
    3000001    1    3    3    0    0  0.20955496710E+02 -0.27752982513E+01 -0.10505728719E+02  0.23626372101E+02  0.10000000000E+01 0. -1.
    1000022    2    1    0    0    0  0.51128833781E+02 -0.19201697426E+02 -0.28694724503E+02  0.62499999772E+02  0.99999964634E+01 0.  0.
    3000022    2    3    3    0    0  0.30173337071E+02 -0.16426399175E+02 -0.18188995784E+02  0.38873627670E+02  0.25000152680E+00 0.  0.
    1000022    2    1    0    0    0 -0.51128833781E+02  0.19201697426E+02  0.28694724503E+02  0.62500000228E+02  0.99999993183E+01 0.  0.
    3000022    2    5    5    0    0 -0.33962996666E+02  0.87012445990E+01  0.21381713622E+02  0.41066251102E+02  0.25000421458E+00 0.  0.
        -13    1    4    4    0    0  0.10085980722E+02 -0.54321233927E+01 -0.60816591712E+01  0.12970450068E+02  0.10500000000E+00 0.  1.
         13    1    4    4    0    0  0.20087356349E+02 -0.10994275782E+02 -0.12107336612E+02  0.25903177602E+02  0.10500000000E+00 0. -1.
    3000001    1    5    5    0    0 -0.17165837115E+02  0.10500452827E+02  0.73130108813E+01  0.21433749126E+02  0.10000000000E+01 0.  1.
        -13    1    6    6    0    0 -0.25869107255E+02  0.66432385116E+01  0.16277239479E+02  0.31277833655E+02  0.10500000000E+00 0. -1.
         13    1    6    6    0    0 -0.80938894105E+01  0.20580060874E+01  0.51044741429E+01  0.97884174472E+01  0.10500000000E+00 0.  1.
</event>
<event>
11    0  0.3515428E-009  0.9118800E+02  0.7816531E-02  0.1126479E+00
         25   -1    0    0    0    0  0.00000000000E+00  0.00000000000E+00  0.99999998245E-14  0.12500000000E+03  0.12500000000E+03 0.  0.
    3000001    1    3    3    0    0 -0.41093038055E+02 -0.87960203078E+01 -0.22361590876E+00  0.42036386071E+02  0.10000000000E+01 0.  1.
    1000022    2    1    0    0    0 -0.61157288376E+02 -0.73274392915E+01  0.35135166552E+01  0.62500000345E+02  0.99999977864E+01 0.  0.
    3000022    2    3    3    0    0 -0.20064250321E+02  0.14685810163E+01  0.37371325639E+01  0.20463614273E+02  0.24995638323E+00 0.  0.
    1000022    2    1    0    0    0  0.61157288376E+02  0.73274392915E+01 -0.35135166552E+01  0.62499999655E+02  0.99999934788E+01 0.  0.
    3000022    2    5    5    0    0  0.88755213957E+01 -0.24307846203E+01 -0.37221076685E+00  0.92132855967E+01  0.24999343311E+00 0.  0.
        -13    1    4    4    0    0 -0.10915743753E+02  0.74655128941E+00  0.20748599127E+01  0.11136735122E+02  0.10500000000E+00 0.  1.
         13    1    4    4    0    0 -0.91485065672E+01  0.72202972688E+00  0.16622726513E+01  0.93268791514E+01  0.10500000000E+00 0. -1.
    3000001    1    5    5    0    0  0.52281766980E+02  0.97582239118E+01 -0.31413058883E+01  0.53286714059E+02  0.10000000000E+01 0.  1.
        -13    1    6    6    0    0  0.36437203410E+01 -0.95922092630E+00 -0.10047682198E+00  0.37706661614E+01  0.10500000000E+00 0.  1.
         13    1    6    6    0    0  0.52318010546E+01 -0.14715636940E+01 -0.27173394487E+00  0.54426194353E+01  0.10500000000E+00 0. -1.
</event>
<event>
11    0  0.3515428E-009  0.9118800E+02  0.7816531E-02  0.1126479E+00
         25   -1    0    0    0    0  0.00000000000E+00  0.00000000000E+00  0.99999998245E-14  0.12500000000E+03  0.12500000000E+03 0.  0.
    3000001    1    3    3    0    0  0.54928427565E+01  0.90871561269E+00 -0.65087079931E+01  0.86232456391E+01  0.10000000000E+01 0. -1.
    1000022    2    1    0    0    0  0.51526107954E+02 -0.87373825210E+01 -0.32786710595E+02  0.62499999755E+02  0.99999961751E+01 0.  0.
    3000022    2    3    3    0    0  0.46033265198E+02 -0.96460981337E+01 -0.26278002602E+02  0.53876754116E+02  0.24999870070E+00 0.  0.
    1000022    2    1    0    0    0 -0.51526107954E+02  0.87373825210E+01  0.32786710595E+02  0.62500000245E+02  0.99999992399E+01 0.  0.
    3000022    2    5    5    0    0 -0.33467386332E+02  0.66492729345E+01  0.15812465785E+02  0.37608182008E+02  0.25000262233E+00 0.  0.
        -13    1    4    4    0    0  0.24347472562E+02 -0.51578900047E+01 -0.13950140439E+02  0.28531047873E+02  0.10500000000E+00 0. -1.
         13    1    4    4    0    0  0.21685792635E+02 -0.44882081291E+01 -0.12327862163E+02  0.25345706243E+02  0.10500000000E+00 0.  1.
    3000001    1    5    5    0    0 -0.18058721622E+02  0.20881095866E+01  0.16974244810E+02  0.24891818237E+02  0.10000000000E+01 0.  1.
        -13    1    6    6    0    0 -0.19880178266E+02  0.40046963137E+01  0.94350009429E+01  0.22367148862E+02  0.10500000000E+00 0.  1.
         13    1    6    6    0    0 -0.13587208066E+02  0.26445766208E+01  0.63774648417E+01  0.15241033145E+02  0.10500000000E+00 0. -1.
</event>
<event>
11    0  0.3515428E-009  0.9118800E+02  0.7816531E-02  0.1126479E+00
         25   -1    0    0    0    0  0.00000000000E+00  0.00000000000E+00  0.99999998245E-14  0.12500000000E+03  0.12500000000E+03 0.  0.
    3000001    1    3    3    0    0 -0.28198373917E+02 -0.17911339868E+02  0.68818612469E+01  0.34122198078E+02  0.10000000000E+01 0.  1.
    1000022    2    1    0    0    0 -0.54870202733E+02 -0.24487351233E+02  0.13995715565E+02  0.62500002675E+02  0.10000038092E+02 0.  0.
    3000022    2    3    3    0    0 -0.26671828816E+02 -0.65760113647E+01  0.71138543181E+01  0.28377804597E+02  0.24998527618E+00 0.  0.
    1000022    2    1    0    0    0  0.54870202733E+02  0.24487351233E+02 -0.13995715565E+02  0.62499997325E+02  0.10000004655E+02 0.  0.
    3000022    2    5    5    0    0  0.45471370297E+02  0.21289054160E+02 -0.15175532452E+02  0.52452155606E+02  0.24999757652E+00 0.  0.
        -13    1    4    4    0    0 -0.66404177149E+01 -0.16616254813E+01  0.17833752483E+01  0.70744327649E+01  0.10500000000E+00 0.  1.
         13    1    4    4    0    0 -0.20031411101E+02 -0.49143858833E+01  0.53304790698E+01  0.21303371832E+02  0.10500000000E+00 0. -1.
    3000001    1    5    5    0    0  0.93988324360E+01  0.31982970727E+01  0.11798168872E+01  0.10047841719E+02  0.10000000000E+01 0.  1.
        -13    1    6    6    0    0  0.17056981116E+02  0.80513872725E+01 -0.56900876765E+01  0.19701613248E+02  0.10500000000E+00 0.  1.
         13    1    6    6    0    0  0.28414389180E+02  0.13237666888E+02 -0.94854447756E+01  0.32750542358E+02  0.10500000000E+00 0. -1.
</event>
<event>
11    0  0.3515428E-009  0.9118800E+02  0.7816531E-02  0.1126479E+00
         25   -1    0    0    0    0  0.00000000000E+00  0.00000000000E+00  0.99999998245E-14  0.12500000000E+03  0.12500000000E+03 0.  0.
    3000001    1    3    3    0    0  0.27611469666E+02 -0.14297426642E+02  0.94480612598E+01  0.32512697939E+02  0.10000000000E+01 0. -1.
    1000022    2    1    0    0    0  0.47091256189E+02 -0.34735138637E+02  0.19548239881E+02  0.62499999606E+02  0.10000000134E+02 0.  0.
    3000022    2    3    3    0    0  0.19479786523E+02 -0.20437711996E+02  0.10100178621E+02  0.29987301667E+02  0.24999698456E+00 0.  0.
    1000022    2    1    0    0    0 -0.47091256189E+02  0.34735138637E+02 -0.19548239881E+02  0.62500000394E+02  0.10000005063E+02 0.  0.
    3000022    2    5    5    0    0 -0.17934842883E+02  0.18539628818E+02 -0.11077942879E+02  0.28074182953E+02  0.25000826599E+00 0.  0.
        -13    1    4    4    0    0  0.10610071318E+02 -0.11035627870E+02  0.54860206259E+01  0.16262415047E+02  0.10500000000E+00 0.  1.
         13    1    4    4    0    0  0.88697152049E+01 -0.94020841256E+01  0.46141579956E+01  0.13724886620E+02  0.10500000000E+00 0. -1.
    3000001    1    5    5    0    0 -0.29156413306E+02  0.16195509819E+02 -0.84702970025E+01  0.34425817441E+02  0.10000000000E+01 0.  1.
        -13    1    6    6    0    0 -0.46018200785E+01  0.47388347806E+01 -0.28663503725E+01  0.72014090684E+01  0.10500000000E+00 0. -1.
         13    1    6    6    0    0 -0.13333022804E+02  0.13800794037E+02 -0.82115925062E+01  0.20872773885E+02  0.10500000000E+00 0.  1.
</event>
<event>
11    0  0.3515428E-009  0.9118800E+02  0.7816531E-02  0.1126479E+00
         25   -1    0    0    0    0  0.00000000000E+00  0.00000000000E+00  0.99999998245E-14  0.12500000000E+03  0.12500000000E+03 0.  0.
    3000001    1    3    3    0    0  0.20674290613E+02 -0.17471766352E+02  0.34608726806E+02  0.43948297839E+02  0.10000000000E+01 0.  1.
    1000022    2    1    0    0    0  0.23907532813E+02 -0.22984033067E+02  0.52023207898E+02  0.62499998848E+02  0.99999897358E+01 0.  0.
    3000022    2    3    3    0    0  0.32332421997E+01 -0.55122667152E+01  0.17414481092E+02  0.18551701009E+02  0.25003828712E+00 0.  0.
    1000022    2    1    0    0    0 -0.23907532813E+02  0.22984033067E+02 -0.52023207898E+02  0.62500001152E+02  0.10000004141E+02 0.  0.
    3000022    2    5    5    0    0 -0.12812432943E+01  0.70456915181E+00 -0.84239074144E+01  0.85535231173E+01  0.25007903293E+00 0.  0.
        -13    1    4    4    0    0  0.16666845344E+01 -0.27646420912E+01  0.89574183187E+01  0.95219457657E+01  0.10500000000E+00 0.  1.
         13    1    4    4    0    0  0.15665576653E+01 -0.27476246240E+01  0.84570627735E+01  0.90297552430E+01  0.10500000000E+00 0. -1.
    3000001    1    5    5    0    0 -0.22626289518E+02  0.22279463916E+02 -0.43599300483E+02  0.53946478035E+02  0.10000000000E+01 0. -1.
        -13    1    6    6    0    0 -0.47069841132E+00  0.32177060606E+00 -0.31322514038E+01  0.31854539981E+01  0.10500000000E+00 0.  1.
         13    1    6    6    0    0 -0.81054488300E+00  0.38279854575E+00 -0.52916560107E+01  0.53680691193E+01  0.10500000000E+00 0. -1.
</event>
<event>
11    0  0.3515428E-009  0.9118800E+02  0.7816531E-02  0.1126479E+00
         25   -1    0    0    0    0  0.00000000000E+00  0.00000000000E+00  0.99999998245E-14  0.12500000000E+03  0.12500000000E+03 0.  0.
    3000001    1    3    3    0    0 -0.17419444449E+01 -0.69718494991E+01  0.24951535928E+02  0.25984999540E+02  0.10000000000E+01 0.  1.
    1000022    2    1    0    0    0  0.66545181802E+01 -0.20566310180E+02  0.57784031786E+02  0.62499999610E+02  0.99999947582E+01 0.  0.
    3000022    2    3    3    0    0  0.83964626252E+01 -0.13594460681E+02  0.32832495857E+02  0.36515000070E+02  0.25000014747E+00 0.  0.
    1000022    2    1    0    0    0 -0.66545181802E+01  0.20566310180E+02 -0.57784031786E+02  0.62500000390E+02  0.99999996389E+01 0.  0.
    3000022    2    5    5    0    0 -0.83478360839E+01  0.18153512463E+02 -0.43345748486E+02  0.47729998935E+02  0.25000905302E+00 0.  0.
        -13    1    4    4    0    0  0.25975512571E+01 -0.42966579246E+01  0.10346194781E+02  0.11500578825E+02  0.10500000000E+00 0. -1.
         13    1    4    4    0    0  0.57989113681E+01 -0.92978027566E+01  0.22486301076E+02  0.25014421245E+02  0.10500000000E+00 0.  1.
    3000001    1    5    5    0    0  0.16933179037E+01  0.24127977172E+01 -0.14438283299E+02  0.14770001455E+02  0.10000000000E+01 0. -1.
        -13    1    6    6    0    0 -0.20606528125E+01  0.44360044874E+01 -0.10580974144E+02  0.11657292338E+02  0.10500000000E+00 0. -1.
         13    1    6    6    0    0 -0.62871832714E+01  0.13717507976E+02 -0.32764774342E+02  0.36072706597E+02  0.10500000000E+00 0.  1.
</event>
<event>
11    0  0.3515428E-009  0.9118800E+02  0.7816531E-02  0.1126479E+00
         25   -1    0    0    0    0  0.00000000000E+00  0.00000000000E+00  0.99999998245E-14  0.12500000000E+03  0.12500000000E+03 0.  0.
    3000001    1    3    3    0    0 -0.44399180814E+02  0.66357089778E+01 -0.39635154720E+02  0.59893784153E+02  0.10000000000E+01 0. -1.
    1000022    2    1    0    0    0 -0.46577853523E+02  0.53088242604E+01 -0.40106980252E+02  0.62499999247E+02  0.99999993514E+01 0.  0.
    3000022    2    3    3    0    0 -0.21786727094E+01 -0.13268847173E+01 -0.47182553278E+00  0.26062150933E+01  0.24999990333E+00 0.  0.
    1000022    2    1    0    0    0  0.46577853523E+02 -0.53088242604E+01  0.40106980252E+02  0.62500000753E+02  0.10000008767E+02 0.  0.
    3000022    2    5    5    0    0  0.22818217060E+00  0.71861088582E+00 -0.14622356708E+00  0.80768010745E+00  0.24999423232E+00 0.  0.
        -13    1    4    4    0    0 -0.96585708460E+00 -0.61473810464E+00 -0.14824818068E+00  0.11592175673E+01  0.10500000000E+00 0.  1.
         13    1    4    4    0    0 -0.12128156248E+01 -0.71214661268E+00 -0.32357735210E+00  0.14469975261E+01  0.10500000000E+00 0. -1.
    3000001    1    5    5    0    0  0.46349671353E+02 -0.60274351463E+01  0.40253203819E+02  0.61692320646E+02  0.10000000000E+01 0. -1.
        -13    1    6    6    0    0  0.14949054622E+00  0.41484411337E+00 -0.20641105669E-01  0.45375556972E+00  0.10500000000E+00 0.  1.
         13    1    6    6    0    0  0.78691624384E-01  0.30376677245E+00 -0.12558246141E+00  0.35392453773E+00  0.10500000000E+00 0. -1.
</event>
<event>
11    0  0.3515428E-009  0.9118800E+02  0.7816531E-02  0.1126479E+00
         25   -1    0    0    0    0  0.00000000000E+00  0.00000000000E+00  0.99999998245E-14  0.12500000000E+03  0.12500000000E+03 0.  0.
    3000001    1    3    3    0    0  0.18699405777E+02  0.46635536915E+02 -0.10322612899E+02  0.51303970771E+02  0.10000000000E+01 0.  1.
    1000022    2    1    0    0    0  0.26508041423E+02  0.54635052722E+02 -0.10889658030E+02  0.62500000410E+02  0.10000007661E+02 0.  0.
    3000022    2    3    3    0    0  0.78086356461E+01  0.79995158065E+01 -0.56704513137E+00  0.11196029639E+02  0.24999141604E+00 0.  0.
    1000022    2    1    0    0    0 -0.26508041423E+02 -0.54635052722E+02  0.10889658030E+02  0.62499999590E+02  0.10000002534E+02 0.  0.
    3000022    2    5    5    0    0 -0.18016937644E+02 -0.40296716435E+02  0.12076482358E+02  0.45763952181E+02  0.24999122438E+00 0.  0.
        -13    1    4    4    0    0  0.28064647268E+01  0.29587265346E+01 -0.21333169300E+00  0.40849531674E+01  0.10500000000E+00 0.  1.
         13    1    4    4    0    0  0.50021709194E+01  0.50407892719E+01 -0.35371343837E+00  0.71110764717E+01  0.10500000000E+00 0. -1.
    3000001    1    5    5    0    0 -0.84911037792E+01 -0.14338336287E+02 -0.11868243279E+01  0.16736047408E+02  0.10000000000E+01 0. -1.
        -13    1    6    6    0    0 -0.75173947084E+01 -0.16969846919E+02  0.50895818538E+01  0.19245825420E+02  0.10500000000E+00 0.  1.
         13    1    6    6    0    0 -0.10499542936E+02 -0.23326869516E+02  0.69869005046E+01  0.26518126761E+02  0.10500000000E+00 0. -1.
</event>
<event>
11    0  0.3515428E-009  0.9118800E+02  0.7816531E-02  0.1126479E+00
         25   -1    0    0    0    0  0.00000000000E+00  0.00000000000E+00  0.99999998245E-14  0.12500000000E+03  0.12500000000E+03 0.  0.
    3000001    1    3    3    0    0  0.87170370346E+01 -0.10828178199E+02  0.40744520060E+01  0.14520238873E+02  0.10000000000E+01 0.  1.
    1000022    2    1    0    0    0  0.43064953769E+02 -0.33758277077E+02  0.28496289614E+02  0.62499999916E+02  0.99999976694E+01 0.  0.
    3000022    2    3    3    0    0  0.34347916734E+02 -0.22930098878E+02  0.24421837608E+02  0.47979761043E+02  0.24999810298E+00 0.  0.
    1000022    2    1    0    0    0 -0.43064953769E+02  0.33758277077E+02 -0.28496289614E+02  0.62500000084E+02  0.99999987223E+01 0.  0.
    3000022    2    5    5    0    0 -0.27007561711E+02  0.18682710232E+02 -0.21949558739E+02  0.39500603558E+02  0.25000294452E+00 0.  0.
        -13    1    4    4    0    0  0.20691186627E+02 -0.13743974552E+02  0.14718589524E+02  0.28873343123E+02  0.10500000000E+00 0. -1.
         13    1    4    4    0    0  0.13656730107E+02 -0.91861243261E+01  0.97032480831E+01  0.19106417919E+02  0.10500000000E+00 0.  1.
    3000001    1    5    5    0    0 -0.16057392058E+02  0.15075566845E+02 -0.65467308750E+01  0.22999396526E+02  0.10000000000E+01 0. -1.
        -13    1    6    6    0    0 -0.13030005967E+02  0.90170616707E+01 -0.10672405203E+02  0.19104965702E+02  0.10500000000E+00 0. -1.
         13    1    6    6    0    0 -0.13977555744E+02  0.96656485617E+01 -0.11277153536E+02  0.20395637856E+02  0.10500000000E+00 0.  1.
</event>
<event>
11    0  0.3515428E-009  0.9118800E+02  0.7816531E-02  0.1126479E+00
         25   -1    0    0    0    0  0.00000000000E+00  0.00000000000E+00  0.99999998245E-14  0.12500000000E+03  0.12500000000E+03 0.  0.
    3000001    1    3    3    0    0 -0.42189698007E+01  0.95077755797E+01  0.21790848663E+02  0.24166890327E+02  0.10000000000E+01 0. -1.
    1000022    2    1    0    0    0 -0.11671613912E+01  0.17415050631E+02  0.59174350599E+02  0.62499999386E+02  0.99999950126E+01 0.  0.
    3000022    2    3    3    0    0  0.30518084096E+01  0.79072750514E+01  0.37383501936E+02  0.38333109059E+02  0.24999956418E+00 0.  0.
    1000022    2    1    0    0    0  0.11671613912E+01 -0.17415050631E+02 -0.59174350599E+02  0.62500000614E+02  0.10000002684E+02 0.  0.
    3000022    2    5    5    0    0 -0.18920506327E+01 -0.24183360188E+01 -0.23039947311E+02  0.23244996749E+02  0.24999420428E+00 0.  0.
        -13    1    4    4    0    0  0.10858923282E+01  0.26781317212E+01  0.12864191972E+02  0.13185219443E+02  0.10500000000E+00 0. -1.
         13    1    4    4    0    0  0.19659160814E+01  0.52291433302E+01  0.24519309964E+02  0.25147889616E+02  0.10500000000E+00 0.  1.
    3000001    1    5    5    0    0  0.30592120239E+01 -0.14996714612E+02 -0.36134403288E+02  0.39255003864E+02  0.10000000000E+01 0.  1.
        -13    1    6    6    0    0 -0.97306608007E+00 -0.11467167799E+01 -0.11036704879E+02  0.11139196405E+02  0.10500000000E+00 0.  1.
         13    1    6    6    0    0 -0.91898455264E+00 -0.12716192390E+01 -0.12003242432E+02  0.12105800345E+02  0.10500000000E+00 0. -1.
</event>
<event>
11    0  0.3515428E-009  0.9118800E+02  0.7816531E-02  0.1126479E+00
         25   -1    0    0    0    0  0.00000000000E+00  0.00000000000E+00  0.99999998245E-14  0.12500000000E+03  0.12500000000E+03 0.  0.
    3000001    1    3    3    0    0 -0.71701402811E+00 -0.32377127364E+02  0.14208112107E+02  0.35378848697E+02  0.10000000000E+01 0.  1.
    1000022    2    1    0    0    0  0.54793702906E+01 -0.58193031828E+02  0.19743292630E+02  0.62499999566E+02  0.99999944860E+01 0.  0.
    3000022    2    3    3    0    0  0.61963843187E+01 -0.25815904464E+02  0.55351805230E+01  0.27121150869E+02  0.24999822954E+00 0.  0.
    1000022    2    1    0    0    0 -0.54793702906E+01  0.58193031828E+02 -0.19743292630E+02  0.62500000434E+02  0.99999999142E+01 0.  0.
    3000022    2    5    5    0    0  0.43052435666E+00  0.35628211007E+02 -0.87305310876E+01  0.36685684441E+02  0.24999804645E+00 0.  0.
        -13    1    4    4    0    0  0.33338383161E+01 -0.14167110910E+02  0.30508775199E+01  0.14870789760E+02  0.10500000000E+00 0. -1.
         13    1    4    4    0    0  0.28625460026E+01 -0.11648793554E+02  0.24843030031E+01  0.12250361109E+02  0.10500000000E+00 0.  1.
    3000001    1    5    5    0    0 -0.59098946472E+01  0.22564820821E+02 -0.11012761542E+02  0.25814315993E+02  0.10000000000E+01 0. -1.
        -13    1    6    6    0    0  0.34356481411E+00  0.26373733185E+02 -0.64826411620E+01  0.27161139525E+02  0.10500000000E+00 0. -1.
         13    1    6    6    0    0  0.86959542557E-01  0.92544778227E+01 -0.22478899255E+01  0.95245449156E+01  0.10500000000E+00 0.  1.
</event>
<event>
11    0  0.3515428E-009  0.9118800E+02  0.7816531E-02  0.1126479E+00
         25   -1    0    0    0    0  0.00000000000E+00  0.00000000000E+00  0.99999998245E-14  0.12500000000E+03  0.12500000000E+03 0.  0.
    3000001    1    3    3    0    0  0.59282464584E+00  0.17186107964E+00  0.41229359948E+01  0.42871410647E+01  0.10000000000E+01 0.  1.
    1000022    2    1    0    0    0  0.32234690348E+02  0.23344782098E+02  0.47140172224E+02  0.62500000861E+02  0.10000007859E+02 0.  0.
    3000022    2    3    3    0    0  0.31641865703E+02  0.23172921018E+02  0.43017236229E+02  0.58212859796E+02  0.24999827241E+00 0.  0.
    1000022    2    1    0    0    0 -0.32234690348E+02 -0.23344782098E+02 -0.47140172224E+02  0.62499999139E+02  0.99999971016E+01 0.  0.
    3000022    2    5    5    0    0 -0.53411729753E+00 -0.29284447477E+01 -0.16736405296E+01  0.34241270181E+01  0.25000657107E+00 0.  0.
        -13    1    4    4    0    0  0.15515250923E+02  0.11289633109E+02  0.20995937902E+02  0.28443263884E+02  0.10500000000E+00 0.  1.
         13    1    4    4    0    0  0.16126614779E+02  0.11883287909E+02  0.22021298327E+02  0.29769595912E+02  0.10500000000E+00 0. -1.
    3000001    1    5    5    0    0 -0.31700573051E+02 -0.20416337350E+02 -0.45466531695E+02  0.59075872121E+02  0.10000000000E+01 0. -1.
        -13    1    6    6    0    0 -0.20113398545E+00 -0.14326192256E+01 -0.85061796473E+00  0.16814959552E+01  0.10500000000E+00 0. -1.
         13    1    6    6    0    0 -0.33298331209E+00 -0.14958255222E+01 -0.82302256487E+00  0.17426310628E+01  0.10500000000E+00 0.  1.
</event>
<event>
11    0  0.3515428E-009  0.9118800E+02  0.7816531E-02  0.1126479E+00
         25   -1    0    0    0    0  0.00000000000E+00  0.00000000000E+00  0.99999998245E-14  0.12500000000E+03  0.12500000000E+03 0.  0.
    3000001    1    3    3    0    0 -0.24788241487E+02 -0.18259138612E+02  0.33692456301E+02  0.45651228576E+02  0.10000000000E+01 0. -1.
    1000022    2    1    0    0    0 -0.28548925795E+02 -0.27418249403E+02  0.47322808955E+02  0.62499999435E+02  0.10000005880E+02 0.  0.
    3000022    2    3    3    0    0 -0.37606843079E+01 -0.91591107911E+01  0.13630352654E+02  0.16848770859E+02  0.25001810368E+00 0.  0.
    1000022    2    1    0    0    0  0.28548925795E+02  0.27418249403E+02 -0.47322808955E+02  0.62500000565E+02  0.10000012947E+02 0.  0.
    3000022    2    5    5    0    0  0.12972442805E+01  0.40884764391E+01 -0.91372711107E+01  0.10097064080E+02  0.24999471921E+00 0.  0.
        -13    1    4    4    0    0 -0.21432347785E+01 -0.53639179176E+01  0.80090442731E+01  0.98752663716E+01  0.10500000000E+00 0. -1.
         13    1    4    4    0    0 -0.16174495295E+01 -0.37951928735E+01  0.56213083805E+01  0.69735044874E+01  0.10500000000E+00 0.  1.
    3000001    1    5    5    0    0  0.27251681514E+02  0.23329772964E+02 -0.38185537844E+02  0.52402936486E+02  0.10000000000E+01 0. -1.
        -13    1    6    6    0    0  0.50862535845E+00  0.16132992475E+01 -0.34600454577E+01  0.38528397043E+01  0.10500000000E+00 0.  1.
         13    1    6    6    0    0  0.78861892202E+00  0.24751771916E+01 -0.56772256530E+01  0.62442243753E+01  0.10500000000E+00 0. -1.
</event>
<event>
11    0  0.3515428E-009  0.9118800E+02  0.7816531E-02  0.1126479E+00
         25   -1    0    0    0    0  0.00000000000E+00  0.00000000000E+00  0.99999998245E-14  0.12500000000E+03  0.12500000000E+03 0.  0.
    3000001    1    3    3    0    0  0.11404626825E+01  0.15885737799E+01  0.21675775644E+01  0.30858733419E+01  0.10000000000E+01 0.  1.
    1000022    2    1    0    0    0 -0.90190548064E+01  0.51564938875E+02  0.32649096565E+02  0.62499999289E+02  0.10000006694E+02 0.  0.
    3000022    2    3    3    0    0 -0.10159517489E+02  0.49976365095E+02  0.30481519000E+02  0.59414125947E+02  0.24999560506E+00 0.  0.
    1000022    2    1    0    0    0  0.90190548064E+01 -0.51564938875E+02 -0.32649096565E+02  0.62500000711E+02  0.10000015578E+02 0.  0.
    3000022    2    5    5    0    0  0.33734483892E+01 -0.37152106316E+02 -0.26748226388E+02  0.45904131253E+02  0.24998700189E+00 0.  0.
        -13    1    4    4    0    0 -0.38529483156E+01  0.18839723944E+02  0.11428225724E+02  0.22369527872E+02  0.10500000000E+00 0.  1.
         13    1    4    4    0    0 -0.63065691733E+01  0.31136641151E+02  0.19053293277E+02  0.37044598076E+02  0.10500000000E+00 0. -1.
    3000001    1    5    5    0    0  0.56456064172E+01 -0.14412832559E+02 -0.59008701769E+01  0.16595869457E+02  0.10000000000E+01 0.  1.
        -13    1    6    6    0    0  0.19901191934E+01 -0.21212586233E+02 -0.15294656744E+02  0.26227312844E+02  0.10500000000E+00 0.  1.
         13    1    6    6    0    0  0.13833291957E+01 -0.15939520083E+02 -0.11453569644E+02  0.19676818409E+02  0.10500000000E+00 0. -1.
</event>
<event>
11    0  0.3515428E-009  0.9118800E+02  0.7816531E-02  0.1126479E+00
         25   -1    0    0    0    0  0.00000000000E+00  0.00000000000E+00  0.99999998245E-14  0.12500000000E+03  0.12500000000E+03 0.  0.
    3000001    1    3    3    0    0  0.51449117939E+02  0.22577480976E+02  0.20959898317E+02  0.59975592714E+02  0.10000000000E+01 0. -1.
    1000022    2    1    0    0    0  0.52817469270E+02  0.24580335538E+02  0.20306950965E+02  0.62500001051E+02  0.99999959307E+01 0.  0.
    3000022    2    3    3    0    0  0.13683513316E+01  0.20028545618E+01 -0.65294735162E+00  0.25244083375E+01  0.24997089463E+00 0.  0.
    1000022    2    1    0    0    0 -0.52817469270E+02 -0.24580335538E+02 -0.20306950965E+02  0.62499998949E+02  0.99999827914E+01 0.  0.
    3000022    2    5    5    0    0 -0.46694508727E+02 -0.21584427502E+02 -0.14387050842E+02  0.53416424309E+02  0.24999630404E+00 0.  0.
        -13    1    4    4    0    0  0.56155830076E+00  0.78502408906E+00 -0.19906434956E+00  0.99109139882E+00  0.10500000000E+00 0. -1.
         13    1    4    4    0    0  0.80679303080E+00  0.12178304727E+01 -0.45388300206E+00  0.15333169387E+01  0.10500000000E+00 0.  1.
    3000001    1    5    5    0    0 -0.61229605434E+01 -0.29959080356E+01 -0.59199001232E+01  0.90835746401E+01  0.10000000000E+01 0.  1.
        -13    1    6    6    0    0 -0.30687723976E+02 -0.14139786413E+02 -0.94880015919E+01  0.35095628814E+02  0.10500000000E+00 0.  1.
         13    1    6    6    0    0 -0.16006784751E+02 -0.74446410890E+01 -0.48990492499E+01  0.18320795495E+02  0.10500000000E+00 0. -1.
</event>
<event>
11    0  0.3515428E-009  0.9118800E+02  0.7816531E-02  0.1126479E+00
         25   -1    0    0    0    0  0.00000000000E+00  0.00000000000E+00  0.99999998245E-14  0.12500000000E+03  0.12500000000E+03 0.  0.
    3000001    1    3    3    0    0 -0.13147984392E+02  0.10408602270E+02  0.61229410656E+01  0.17880125896E+02  0.10000000000E+01 0. -1.
    1000022    2    1    0    0    0 -0.51615879797E+02  0.32981750083E+02  0.73658088314E+01  0.62500000456E+02  0.10000001572E+02 0.  0.
    3000022    2    3    3    0    0 -0.38467895405E+02  0.22573147813E+02  0.12428677659E+01  0.44619874559E+02  0.25001257240E+00 0.  0.
    1000022    2    1    0    0    0  0.51615879797E+02 -0.32981750083E+02 -0.73658088314E+01  0.62499999544E+02  0.99999958769E+01 0.  0.
    3000022    2    5    5    0    0  0.37634142991E+02 -0.28679731315E+02 -0.42318854109E+01  0.47506073921E+02  0.24999660201E+00 0.  0.
        -13    1    4    4    0    0 -0.18421262012E+02  0.10886336419E+02  0.61060053179E+00  0.21406519399E+02  0.10500000000E+00 0. -1.
         13    1    4    4    0    0 -0.20046633393E+02  0.11686811394E+02  0.63226723406E+00  0.23213355161E+02  0.10500000000E+00 0.  1.
    3000001    1    5    5    0    0  0.13981736806E+02 -0.43020187688E+01 -0.31339234205E+01  0.14993925624E+02  0.10000000000E+01 0. -1.
        -13    1    6    6    0    0  0.21811129736E+02 -0.16575796159E+02 -0.25040673644E+01  0.27509339814E+02  0.10500000000E+00 0. -1.
         13    1    6    6    0    0  0.15823013255E+02 -0.12103935156E+02 -0.17278180465E+01  0.19996734106E+02  0.10500000000E+00 0.  1.
</event>
<event>
11    0  0.3515428E-009  0.9118800E+02  0.7816531E-02  0.1126479E+00
         25   -1    0    0    0    0  0.00000000000E+00  0.00000000000E+00  0.99999998245E-14  0.12500000000E+03  0.12500000000E+03 0.  0.
    3000001    1    3    3    0    0 -0.21840188996E+01  0.11552226395E+01  0.50814258466E+00  0.27134271295E+01  0.10000000000E+01 0. -1.
    1000022    2    1    0    0    0 -0.29809224958E+02  0.25911183646E+02  0.47394838458E+02  0.62500000575E+02  0.10000001445E+02 0.  0.
    3000022    2    3    3    0    0 -0.27625206059E+02  0.24755961007E+02  0.46886695873E+02  0.59786573446E+02  0.24999868374E+00 0.  0.
    1000022    2    1    0    0    0  0.29809224958E+02 -0.25911183646E+02 -0.47394838458E+02  0.62499999425E+02  0.99999942551E+01 0.  0.
    3000022    2    5    5    0    0  0.65850214811E+01 -0.78009836721E+01 -0.65389460348E+01  0.12125929548E+02  0.24999600771E+00 0.  0.
        -13    1    4    4    0    0 -0.18356161220E+02  0.16431919677E+02  0.31223975423E+02  0.39773160614E+02  0.10500000000E+00 0.  1.
         13    1    4    4    0    0 -0.92690448386E+01  0.83240413292E+01  0.15662720450E+02  0.20013412832E+02  0.10500000000E+00 0. -1.
    3000001    1    5    5    0    0  0.23224203477E+02 -0.18110199974E+02 -0.40855892423E+02  0.50374069877E+02  0.10000000000E+01 0.  1.
        -13    1    6    6    0    0  0.21897790192E+01 -0.25139481935E+01 -0.21438383781E+01  0.39651148362E+01  0.10500000000E+00 0. -1.
         13    1    6    6    0    0  0.43952424618E+01 -0.52870354785E+01 -0.43951076568E+01  0.81608147120E+01  0.10500000000E+00 0.  1.
</event>
<event>
11    0  0.3515428E-009  0.9118800E+02  0.7816531E-02  0.1126479E+00
         25   -1    0    0    0    0  0.00000000000E+00  0.00000000000E+00  0.99999998245E-14  0.12500000000E+03  0.12500000000E+03 0.  0.
    3000001    1    3    3    0    0 -0.74484887091E+01 -0.23581197862E+02  0.49322113507E+02  0.55183546076E+02  0.10000000000E+01 0. -1.
    1000022    2    1    0    0    0 -0.48669625181E+01 -0.26848330147E+02  0.55332900238E+02  0.62499999480E+02  0.99999965184E+01 0.  0.
    3000022    2    3    3    0    0  0.25815261910E+01 -0.32671322851E+01  0.60107867308E+01  0.73164534041E+01  0.25000489581E+00 0.  0.
    1000022    2    1    0    0    0  0.48669625181E+01  0.26848330147E+02 -0.55332900238E+02  0.62500000520E+02  0.10000003019E+02 0.  0.
    3000022    2    5    5    0    0 -0.17028404856E+01  0.11320284345E+01 -0.17819088845E+01  0.27237580799E+01  0.25000941775E+00 0.  0.
        -13    1    4    4    0    0  0.18575941847E+01 -0.22856589106E+01  0.42170599855E+01  0.51448530331E+01  0.10500000000E+00 0.  1.
         13    1    4    4    0    0  0.72393200632E+00 -0.98147337452E+00  0.17937267453E+01  0.21716003711E+01  0.10500000000E+00 0. -1.
    3000001    1    5    5    0    0  0.65698030037E+01  0.25716301713E+02 -0.53550991354E+02  0.59776242440E+02  0.10000000000E+01 0. -1.
        -13    1    6    6    0    0 -0.93730713588E+00  0.70166573308E+00 -0.10197949167E+01  0.15562410289E+01  0.10500000000E+00 0.  1.
         13    1    6    6    0    0 -0.76553334974E+00  0.43036270146E+00 -0.76211396779E+00  0.11675170510E+01  0.10500000000E+00 0. -1.
</event>
<event>
11    0  0.3515428E-009  0.9118800E+02  0.7816531E-02  0.1126479E+00
         25   -1    0    0    0    0  0.00000000000E+00  0.00000000000E+00  0.99999998245E-14  0.12500000000E+03  0.12500000000E+03 0.  0.
    3000001    1    3    3    0    0 -0.45157913136E+02 -0.53925813366E+01 -0.36475872937E+02  0.58307858465E+02  0.10000000000E+01 0.  1.
    1000022    2    1    0    0    0 -0.46332151852E+02 -0.70895570456E+01 -0.40116333823E+02  0.62499996352E+02  0.99999595120E+01 0.  0.
    3000022    2    3    3    0    0 -0.11742387164E+01 -0.16969757090E+01 -0.36404608853E+01  0.41921378866E+01  0.25000296598E+00 0.  0.
    1000022    2    1    0    0    0  0.46332151852E+02  0.70895570456E+01  0.40116333823E+02  0.62500003648E+02  0.10000005116E+02 0.  0.
    3000022    2    5    5    0    0 -0.39411033636E+00 -0.79157089560E-02 -0.47177755705E-01  0.46916164276E+00  0.25000258146E+00 0.  0.
        -13    1    4    4    0    0 -0.64827677082E+00 -0.81769060501E+00 -0.18374378628E+01  0.21156756833E+01  0.10500000000E+00 0. -1.
         13    1    4    4    0    0 -0.52596194560E+00 -0.87928510399E+00 -0.18030230224E+01  0.20764622033E+01  0.10500000000E+00 0.  1.
    3000001    1    5    5    0    0  0.46726262188E+02  0.70974727545E+01  0.40163511578E+02  0.62030842006E+02  0.10000000000E+01 0. -1.
        -13    1    6    6    0    0 -0.22059223098E+00 -0.70525972652E-01 -0.33238036844E-01  0.25644611965E+00  0.10500000000E+00 0. -1.
         13    1    6    6    0    0 -0.17351810538E+00  0.62610263696E-01 -0.13939718861E-01  0.21271552312E+00  0.10500000000E+00 0.  1.
</event>
<event>
11    0  0.3515428E-009  0.9118800E+02  0.7816531E-02  0.1126479E+00
         25   -1    0    0    0    0  0.00000000000E+00  0.00000000000E+00  0.99999998245E-14  0.12500000000E+03  0.12500000000E+03 0.  0.
    3000001    1    3    3    0    0 -0.25140214516E+01  0.35442102990E+01 -0.12565469147E+01  0.46325630758E+01  0.10000000000E+01 0. -1.
    1000022    2    1    0    0    0 -0.73341266308E+01  0.61183356780E+02 -0.30095564200E+01  0.62499999212E+02  0.99999955664E+01 0.  0.
    3000022    2    3    3    0    0 -0.48201051791E+01  0.57639146481E+02 -0.17530095053E+01  0.57867436136E+02  0.25000326163E+00 0.  0.
    1000022    2    1    0    0    0  0.73341266308E+01 -0.61183356780E+02  0.30095564200E+01  0.62500000788E+02  0.10000005422E+02 0.  0.
    3000022    2    5    5    0    0  0.83132534183E+01 -0.60047017604E+02  0.27971594759E+01  0.60684768448E+02  0.25002985287E+00 0.  0.
        -13    1    4    4    0    0 -0.23081784750E+01  0.27037405124E+02 -0.87073826944E+00  0.27149920329E+02  0.10500000000E+00 0.  1.
         13    1    4    4    0    0 -0.25119267041E+01  0.30601741357E+02 -0.88227123589E+00  0.30717515807E+02  0.10500000000E+00 0. -1.
    3000001    1    5    5    0    0 -0.97912678750E+00 -0.11363391760E+01  0.21239694413E+00  0.18152323407E+01  0.10000000000E+01 0. -1.
        -13    1    6    6    0    0  0.31626899818E+01 -0.23073874890E+02  0.10219280899E+01  0.23312264420E+02  0.10500000000E+00 0. -1.
         13    1    6    6    0    0  0.51505634364E+01 -0.36973142714E+02  0.17752313860E+01  0.37372504028E+02  0.10500000000E+00 0.  1.
</event>
<event>
11    0  0.3515428E-009  0.9118800E+02  0.7816531E-02  0.1126479E+00
         25   -1    0    0    0    0  0.00000000000E+00  0.00000000000E+00  0.99999998245E-14  0.12500000000E+03  0.12500000000E+03 0.  0.
    3000001    1    3    3    0    0  0.42987550049E+02 -0.48251994851E+01 -0.14557559536E+02  0.45652322492E+02  0.10000000000E+01 0.  1.
    1000022    2    1    0    0    0  0.59555794437E+02 -0.21238625766E+01 -0.15963911616E+02  0.62500001156E+02  0.10000011360E+02 0.  0.
    3000022    2    3    3    0    0  0.16568244387E+02  0.27013369085E+01 -0.14063520802E+01  0.16847678664E+02  0.25001401887E+00 0.  0.
    1000022    2    1    0    0    0 -0.59555794437E+02  0.21238625766E+01  0.15963911616E+02  0.62499998844E+02  0.99999969106E+01 0.  0.
    3000022    2    5    5    0    0 -0.55827575244E+02  0.56857358305E+00  0.16697152339E+02  0.58274341006E+02  0.24997998013E+00 0.  0.
        -13    1    4    4    0    0  0.55287826874E+01  0.84942392395E+00 -0.45347854320E+00  0.56129873326E+01  0.10500000000E+00 0.  1.
         13    1    4    4    0    0  0.11039461700E+02  0.18519129845E+01 -0.95287353696E+00  0.11234691331E+02  0.10500000000E+00 0. -1.
    3000001    1    5    5    0    0 -0.37282191930E+01  0.15552889936E+01 -0.73324072292E+00  0.42256578378E+01  0.10000000000E+01 0. -1.
        -13    1    6    6    0    0 -0.40744950832E+02  0.40433673204E+00  0.12150156439E+02  0.42520016851E+02  0.10500000000E+00 0. -1.
         13    1    6    6    0    0 -0.15082624411E+02  0.16423685101E+00  0.45469959000E+01  0.15754324155E+02  0.10500000000E+00 0.  1.
</event>
<event>
11    0  0.3515428E-009  0.9118800E+02  0.7816531E-02  0.1126479E+00
         25   -1    0    0    0    0  0.00000000000E+00  0.00000000000E+00  0.99999998245E-14  0.12500000000E+03  0.12500000000E+03 0.  0.
    3000001    1    3    3    0    0 -0.45584139175E+01 -0.75172549140E+01  0.58575977782E+00  0.88674333041E+01  0.10000000000E+01 0.  1.
    1000022    2    1    0    0    0 -0.12100534881E+02 -0.60166196483E+02 -0.63131454734E+01  0.62499998332E+02  0.99999921029E+01 0.  0.
    3000022    2    3    3    0    0 -0.75421209636E+01 -0.52648941569E+02 -0.68989052512E+01  0.53632565028E+02  0.25000162620E+00 0.  0.
    1000022    2    1    0    0    0  0.12100534881E+02  0.60166196483E+02  0.63131454734E+01  0.62500001668E+02  0.10000012955E+02 0.  0.
    3000022    2    5    5    0    0 -0.19857417577E+00  0.14858684539E+01  0.18157623098E+01  0.23678518936E+01  0.24998611636E+00 0.  0.
        -13    1    4    4    0    0 -0.35979809784E+01 -0.24788717339E+02 -0.31997830537E+01  0.25252239723E+02  0.10500000000E+00 0. -1.
         13    1    4    4    0    0 -0.39441399852E+01 -0.27860224230E+02 -0.36991221975E+01  0.28380325304E+02  0.10500000000E+00 0.  1.
    3000001    1    5    5    0    0  0.12299109057E+02  0.58680328029E+02  0.44973831636E+01  0.60132149775E+02  0.10000000000E+01 0. -1.
        -13    1    6    6    0    0 -0.91164876619E-01  0.89690416772E+00  0.99877459861E+00  0.13495643073E+01  0.10500000000E+00 0. -1.
         13    1    6    6    0    0 -0.10740929915E+00  0.58896428620E+00  0.81698771123E+00  0.10182875862E+01  0.10500000000E+00 0.  1.
</event>
<event>
11    0  0.3515428E-009  0.9118800E+02  0.7816531E-02  0.1126479E+00
         25   -1    0    0    0    0  0.00000000000E+00  0.00000000000E+00  0.99999998245E-14  0.12500000000E+03  0.12500000000E+03 0.  0.
    3000001    1    3    3    0    0  0.75378463091E+01 -0.30709770044E+02  0.26234356219E+02  0.41099276750E+02  0.10000000000E+01 0.  1.
    1000022    2    1    0    0    0  0.16865833028E+02 -0.42329478439E+02  0.41593376165E+02  0.62499999813E+02  0.99999983558E+01 0.  0.
    3000022    2    3    3    0    0  0.93279867188E+01 -0.11619708395E+02  0.15359019947E+02  0.21400723063E+02  0.24998897732E+00 0.  0.
    1000022    2    1    0    0    0 -0.16865833028E+02  0.42329478439E+02 -0.41593376165E+02  0.62500000187E+02  0.10000000699E+02 0.  0.
    3000022    2    5    5    0    0 -0.29259072618E+00  0.10102554334E+02 -0.12084547991E+02  0.15755824744E+02  0.24999964748E+00 0.  0.
        -13    1    4    4    0    0  0.26452565040E+01 -0.32979386979E+01  0.42999879913E+01  0.60311444479E+01  0.10500000000E+00 0.  1.
         13    1    4    4    0    0  0.66827302148E+01 -0.83217696969E+01  0.11059031955E+02  0.15369578615E+02  0.10500000000E+00 0. -1.
    3000001    1    5    5    0    0 -0.16573242302E+02  0.32226924105E+02 -0.29508828175E+02  0.46744175443E+02  0.10000000000E+01 0.  1.
        -13    1    6    6    0    0 -0.69902330426E-01  0.46935587065E+01 -0.56323190195E+01  0.73326954256E+01  0.10500000000E+00 0. -1.
         13    1    6    6    0    0 -0.22268839575E+00  0.54089956276E+01 -0.64522289710E+01  0.84231293184E+01  0.10500000000E+00 0.  1.
</event>
<event>
11    0  0.3515428E-009  0.9118800E+02  0.7816531E-02  0.1126479E+00
         25   -1    0    0    0    0  0.00000000000E+00  0.00000000000E+00  0.99999998245E-14  0.12500000000E+03  0.12500000000E+03 0.  0.
    3000001    1    3    3    0    0 -0.44570941224E+01 -0.70988120094E+01 -0.13810098209E+02  0.16185723107E+02  0.10000000000E+01 0.  1.
    1000022    2    1    0    0    0 -0.69960693943E+01 -0.38993171813E+02 -0.47295210380E+02  0.62499995439E+02  0.10000003501E+02 0.  0.
    3000022    2    3    3    0    0 -0.25389752719E+01 -0.31894359803E+02 -0.33485112172E+02  0.46314272332E+02  0.25000369471E+00 0.  0.
    1000022    2    1    0    0    0  0.69960693943E+01  0.38993171813E+02  0.47295210380E+02  0.62500004561E+02  0.10000060508E+02 0.  0.
    3000022    2    5    5    0    0  0.26210215677E+01  0.22760931059E+02  0.19929713369E+02  0.30367511504E+02  0.25008643061E+00 0.  0.
        -13    1    4    4    0    0 -0.10526923693E+01 -0.12574274427E+02 -0.13154832623E+02  0.18228581539E+02  0.10500000000E+00 0. -1.
         13    1    4    4    0    0 -0.14862829026E+01 -0.19320085377E+02 -0.20330279549E+02  0.28085690794E+02  0.10500000000E+00 0.  1.
    3000001    1    5    5    0    0  0.43750478266E+01  0.16232240753E+02  0.27365497011E+02  0.32132493057E+02  0.10000000000E+01 0. -1.
        -13    1    6    6    0    0  0.10107959504E+01  0.86120331659E+01  0.74665202182E+01  0.11443285056E+02  0.10500000000E+00 0. -1.
         13    1    6    6    0    0  0.16102256173E+01  0.14148897893E+02  0.12463193151E+02  0.18924226448E+02  0.10500000000E+00 0.  1.
</event>
<event>
11    0  0.3515428E-009  0.9118800E+02  0.7816531E-02  0.1126479E+00
         25   -1    0    0    0    0  0.00000000000E+00  0.00000000000E+00  0.99999998245E-14  0.12500000000E+03  0.12500000000E+03 0.  0.
    3000001    1    3    3    0    0 -0.61816150929E+01 -0.39666912704E+02  0.48632934984E+01  0.40451550678E+02  0.10000000000E+01 0.  1.
    1000022    2    1    0    0    0 -0.66324954960E+01 -0.61332017010E+02  0.80230669759E+00  0.62500000564E+02  0.10000003368E+02 0.  0.
    3000022    2    3    3    0    0 -0.45088040316E+00 -0.21665104306E+02 -0.40609868008E+01  0.22048449885E+02  0.24998161750E+00 0.  0.
    1000022    2    1    0    0    0  0.66324954960E+01  0.61332017010E+02 -0.80230669759E+00  0.62499999436E+02  0.99999963226E+01 0.  0.
    3000022    2    5    5    0    0 -0.13524270291E+01  0.13084606226E+01 -0.39012679385E+00  0.19379964854E+01  0.25000678397E+00 0.  0.
        -13    1    4    4    0    0 -0.17067690651E+00 -0.93334212273E+01 -0.16871888367E+01  0.94868073440E+01  0.10500000000E+00 0.  1.
         13    1    4    4    0    0 -0.28020349665E+00 -0.12331683079E+02 -0.23737979641E+01  0.12561642541E+02  0.10500000000E+00 0. -1.
    3000001    1    5    5    0    0  0.79849225252E+01  0.60023556388E+02 -0.41217990373E+00  0.60562002951E+02  0.10000000000E+01 0.  1.
        -13    1    6    6    0    0 -0.10141899444E+01  0.97036105998E+00 -0.25998081779E+00  0.14313618885E+01  0.10500000000E+00 0.  1.
         13    1    6    6    0    0 -0.33823708470E+00  0.33809956262E+00 -0.13014597606E+00  0.50663459692E+00  0.10500000000E+00 0. -1.
</event>
<event>
11    0  0.3515428E-009  0.9118800E+02  0.7816531E-02  0.1126479E+00
         25   -1    0    0    0    0  0.00000000000E+00  0.00000000000E+00  0.99999998245E-14  0.12500000000E+03  0.12500000000E+03 0.  0.
    3000001    1    3    3    0    0 -0.36831004051E+01 -0.25570719063E+02 -0.23963434144E+01  0.25964771591E+02  0.10000000000E+01 0. -1.
    1000022    2    1    0    0    0 -0.12690590920E+02 -0.60150045282E+02  0.52125811719E+01  0.62500000082E+02  0.99999981221E+01 0.  0.
    3000022    2    3    3    0    0 -0.90074905149E+01 -0.34579326219E+02  0.76089245863E+01  0.36535228491E+02  0.25000083236E+00 0.  0.
    1000022    2    1    0    0    0  0.12690590920E+02  0.60150045282E+02 -0.52125811719E+01  0.62499999918E+02  0.99999970939E+01 0.  0.
    3000022    2    5    5    0    0  0.19388147455E+01  0.50308607876E+01  0.22343737272E+01  0.58415289929E+01  0.24994427432E+00 0.  0.
        -13    1    4    4    0    0 -0.52046727533E+01 -0.20206448502E+02  0.44121528604E+01  0.21327618184E+02  0.10500000000E+00 0. -1.
         13    1    4    4    0    0 -0.38028177616E+01 -0.14372877717E+02  0.31967717259E+01  0.15207610308E+02  0.10500000000E+00 0.  1.
    3000001    1    5    5    0    0  0.10751776175E+02  0.55119184495E+02 -0.74469548992E+01  0.56658470925E+02  0.10000000000E+01 0.  1.
        -13    1    6    6    0    0  0.68016604719E+00  0.16205695727E+01  0.73197175681E+00  0.19067457210E+01  0.10500000000E+00 0. -1.
         13    1    6    6    0    0  0.12586486983E+01  0.34102912149E+01  0.15024019704E+01  0.39347832719E+01  0.10500000000E+00 0.  1.
</event>
<event>
11    0  0.3515428E-009  0.9118800E+02  0.7816531E-02  0.1126479E+00
         25   -1    0    0    0    0  0.00000000000E+00  0.00000000000E+00  0.99999998245E-14  0.12500000000E+03  0.12500000000E+03 0.  0.
    3000001    1    3    3    0    0  0.54211710622E+02  0.56627900670E+01  0.66076548626E+01  0.54914823707E+02  0.10000000000E+01 0. -1.
    1000022    2    1    0    0    0  0.61371988183E+02  0.36532296192E+01  0.51364365252E+01  0.62499999762E+02  0.99999984935E+01 0.  0.
    3000022    2    3    3    0    0  0.71602775609E+01 -0.20095604478E+01 -0.14712183374E+01  0.75851760555E+01  0.25000890760E+00 0.  0.
    1000022    2    1    0    0    0 -0.61371988183E+02 -0.36532296192E+01 -0.51364365252E+01  0.62500000238E+02  0.10000001465E+02 0.  0.
    3000022    2    5    5    0    0 -0.21520010577E+02 -0.45917298297E+00 -0.64943464107E+01  0.22484677720E+02  0.25000361735E+00 0.  0.
        -13    1    4    4    0    0  0.37817939743E+01 -0.11170567854E+01 -0.73831024969E+00  0.40132167336E+01  0.10500000000E+00 0. -1.
         13    1    4    4    0    0  0.33784835867E+01 -0.89250366241E+00 -0.73290808769E+00  0.35719593220E+01  0.10500000000E+00 0.  1.
    3000001    1    5    5    0    0 -0.39851977606E+02 -0.31940566362E+01  0.13579098855E+01  0.40015322518E+02  0.10000000000E+01 0.  1.
        -13    1    6    6    0    0 -0.13746505205E+02 -0.32046745037E+00 -0.40946345533E+01  0.14347339888E+02  0.10500000000E+00 0. -1.
         13    1    6    6    0    0 -0.77735053716E+01 -0.13870553260E+00 -0.23997118574E+01  0.81373378316E+01  0.10500000000E+00 0.  1.
</event>
<event>
11    0  0.3515428E-009  0.9118800E+02  0.7816531E-02  0.1126479E+00
         25   -1    0    0    0    0  0.00000000000E+00  0.00000000000E+00  0.99999998245E-14  0.12500000000E+03  0.12500000000E+03 0.  0.
    3000001    1    3    3    0    0 -0.12750656790E+02 -0.13795350220E+02 -0.34932517280E+02  0.39675832691E+02  0.10000000000E+01 0. -1.
    1000022    2    1    0    0    0 -0.25109446014E+02 -0.25012984803E+02 -0.50498674376E+02  0.62500002874E+02  0.10000027880E+02 0.  0.
    3000022    2    3    3    0    0 -0.12358789225E+02 -0.11217634583E+02 -0.15566157096E+02  0.22824170182E+02  0.25000205630E+00 0.  0.
    1000022    2    1    0    0    0  0.25109446014E+02  0.25012984803E+02  0.50498674376E+02  0.62499997126E+02  0.99999919557E+01 0.  0.
    3000022    2    5    5    0    0  0.11916512467E+02  0.18642276608E+02  0.31198157629E+02  0.38248206157E+02  0.24997657716E+00 0.  0.
        -13    1    4    4    0    0 -0.82569569619E+01 -0.75138470654E+01 -0.10341414326E+02  0.15218117862E+02  0.10500000000E+00 0. -1.
         13    1    4    4    0    0 -0.41018322631E+01 -0.37037875177E+01 -0.52247427697E+01  0.76060523204E+01  0.10500000000E+00 0.  1.
    3000001    1    5    5    0    0  0.13192933548E+02  0.63707081949E+01  0.19300516747E+02  0.24251790969E+02  0.10000000000E+01 0.  1.
        -13    1    6    6    0    0  0.53659280177E+01  0.85177995483E+01  0.14208414646E+02  0.17413677509E+02  0.10500000000E+00 0. -1.
         13    1    6    6    0    0  0.65505844490E+01  0.10124477060E+02  0.16989742983E+02  0.20834528648E+02  0.10500000000E+00 0.  1.
</event>
<event>
11    0  0.3515428E-009  0.9118800E+02  0.7816531E-02  0.1126479E+00
         25   -1    0    0    0    0  0.00000000000E+00  0.00000000000E+00  0.99999998245E-14  0.12500000000E+03  0.12500000000E+03 0.  0.
    3000001    1    3    3    0    0  0.43038153007E+02  0.10866500889E+02 -0.18838097537E+02  0.48231083075E+02  0.10000000000E+01 0. -1.
    1000022    2    1    0    0    0  0.55766369232E+02  0.17203594613E+02 -0.20009953121E+02  0.62500000015E+02  0.10000008649E+02 0.  0.
    3000022    2    3    3    0    0  0.12728216226E+02  0.63370937238E+01 -0.11718555845E+01  0.14268916940E+02  0.24999993682E+00 0.  0.
    1000022    2    1    0    0    0 -0.55766369232E+02 -0.17203594613E+02  0.20009953121E+02  0.62499999985E+02  0.10000008466E+02 0.  0.
    3000022    2    5    5    0    0 -0.40073623901E+02 -0.81536287672E+01  0.16035116262E+02  0.43926807855E+02  0.25000040863E+00 0.  0.
        -13    1    4    4    0    0  0.68205730761E+01  0.34365018748E+01 -0.68607901073E+00  0.76688650810E+01  0.10500000000E+00 0.  1.
         13    1    4    4    0    0  0.59076431494E+01  0.29005918490E+01 -0.48577657377E+00  0.66000518585E+01  0.10500000000E+00 0. -1.
    3000001    1    5    5    0    0 -0.15692745331E+02 -0.90499658457E+01  0.39748368592E+01  0.18573192130E+02  0.10000000000E+01 0.  1.
        -13    1    6    6    0    0 -0.16155479863E+02 -0.32291405716E+01  0.64901025088E+01  0.17707606671E+02  0.10500000000E+00 0.  1.
         13    1    6    6    0    0 -0.23918144037E+02 -0.49244881956E+01  0.95450137532E+01  0.26219201184E+02  0.10500000000E+00 0. -1.
</event>
<event>
11    0  0.3515428E-009  0.9118800E+02  0.7816531E-02  0.1126479E+00
         25   -1    0    0    0    0  0.00000000000E+00  0.00000000000E+00  0.99999998245E-14  0.12500000000E+03  0.12500000000E+03 0.  0.
    3000001    1    3    3    0    0 -0.42995246663E+02  0.20052091595E+02  0.10469555548E+02  0.48593098340E+02  0.10000000000E+01 0.  1.
    1000022    2    1    0    0    0 -0.52192565499E+02  0.28108333527E+02  0.17091167622E+02  0.62500001413E+02  0.99999929495E+01 0.  0.
    3000022    2    3    3    0    0 -0.91973188355E+01  0.80562419318E+01  0.66216120734E+01  0.13906903073E+02  0.24999759060E+00 0.  0.
    1000022    2    1    0    0    0  0.52192565499E+02 -0.28108333527E+02 -0.17091167622E+02  0.62499998587E+02  0.99999752854E+01 0.  0.
    3000022    2    5    5    0    0  0.24208511358E+02 -0.82511677976E+01 -0.99028826222E+01  0.27427420151E+02  0.24999937715E+00 0.  0.
        -13    1    4    4    0    0 -0.44658280676E+01  0.38382587406E+01  0.32333403277E+01  0.67187324075E+01  0.10500000000E+00 0. -1.
         13    1    4    4    0    0 -0.47314907680E+01  0.42179831912E+01  0.33882717457E+01  0.71881706651E+01  0.10500000000E+00 0.  1.
    3000001    1    5    5    0    0  0.27984054140E+02 -0.19857165729E+02 -0.71882849996E+01  0.35072578436E+02  0.10000000000E+01 0.  1.
        -13    1    6    6    0    0  0.85667552618E+01 -0.28599330834E+01 -0.34908622414E+01  0.96832668632E+01  0.10500000000E+00 0.  1.
         13    1    6    6    0    0  0.15641756096E+02 -0.53912347142E+01 -0.64120203808E+01  0.17744153287E+02  0.10500000000E+00 0. -1.
</event>
<event>
11    0  0.3515428E-009  0.9118800E+02  0.7816531E-02  0.1126479E+00
         25   -1    0    0    0    0  0.00000000000E+00  0.00000000000E+00  0.99999998245E-14  0.12500000000E+03  0.12500000000E+03 0.  0.
    3000001    1    3    3    0    0 -0.40625458275E+02  0.11596405346E+02  0.38916718868E+01  0.42438774571E+02  0.10000000000E+01 0. -1.
    1000022    2    1    0    0    0 -0.59175344701E+02  0.17419338400E+02 -0.10464882709E+01  0.62499999892E+02  0.10000003905E+02 0.  0.
    3000022    2    3    3    0    0 -0.18549886426E+02  0.58229330533E+01 -0.49381601577E+01  0.20061225322E+02  0.24999979642E+00 0.  0.
    1000022    2    1    0    0    0  0.59175344701E+02 -0.17419338400E+02  0.10464882709E+01  0.62500000108E+02  0.10000005252E+02 0.  0.
    3000022    2    5    5    0    0  0.18900582714E+02 -0.11366888622E+01  0.19571406639E+01  0.19037252647E+02  0.25000055107E+00 0.  0.
        -13    1    4    4    0    0 -0.96246125523E+01  0.29588153099E+01 -0.25242294151E+01  0.10381257822E+02  0.10500000000E+00 0. -1.
         13    1    4    4    0    0 -0.89252738737E+01  0.28641177434E+01 -0.24139307426E+01  0.96799674999E+01  0.10500000000E+00 0.  1.
    3000001    1    5    5    0    0  0.40274761987E+02 -0.16282649537E+02 -0.91065239297E+00  0.43462747461E+02  0.10000000000E+01 0. -1.
        -13    1    6    6    0    0  0.69288510090E+01 -0.46083426264E+00  0.67821908223E+00  0.69779904447E+01  0.10500000000E+00 0.  1.
         13    1    6    6    0    0  0.11971731705E+02 -0.67585459952E+00  0.12789215816E+01  0.12059262203E+02  0.10500000000E+00 0. -1.
</event>
<event>
11    0  0.3515428E-009  0.9118800E+02  0.7816531E-02  0.1126479E+00
         25   -1    0    0    0    0  0.00000000000E+00  0.00000000000E+00  0.99999998245E-14  0.12500000000E+03  0.12500000000E+03 0.  0.
    3000001    1    3    3    0    0  0.13170069239E+02 -0.53319926612E+01  0.62592507350E+00  0.14257371837E+02  0.10000000000E+01 0. -1.
    1000022    2    1    0    0    0  0.51838201741E+02 -0.27353946408E+02  0.19256498312E+02  0.62500005283E+02  0.10000019463E+02 0.  0.
    3000022    2    3    3    0    0  0.38668132502E+02 -0.22021953747E+02  0.18630573238E+02  0.48242633446E+02  0.25000912086E+00 0.  0.
    1000022    2    1    0    0    0 -0.51838201741E+02  0.27353946408E+02 -0.19256498312E+02  0.62499994717E+02  0.99999534256E+01 0.  0.
    3000022    2    5    5    0    0 -0.23138716054E+01  0.39724523812E+01 -0.23848892932E+01  0.51850339369E+01  0.25000051711E+00 0.  0.
        -13    1    4    4    0    0  0.12034017454E+02 -0.67984833437E+01  0.57775595750E+01  0.14980926924E+02  0.10500000000E+00 0. -1.
         13    1    4    4    0    0  0.26634115048E+02 -0.15223470403E+02  0.12853013663E+02  0.33261706522E+02  0.10500000000E+00 0.  1.
    3000001    1    5    5    0    0 -0.49524330136E+02  0.23381494027E+02 -0.16871609019E+02  0.57314960780E+02  0.10000000000E+01 0.  1.
        -13    1    6    6    0    0 -0.75016757382E+00  0.12787196477E+01 -0.82792155937E+00  0.17012802340E+01  0.10500000000E+00 0. -1.
         13    1    6    6    0    0 -0.15637040316E+01  0.26937327336E+01 -0.15569677338E+01  0.34837537029E+01  0.10500000000E+00 0.  1.
</event>
<event>
11    0  0.3515428E-009  0.9118800E+02  0.7816531E-02  0.1126479E+00
         25   -1    0    0    0    0  0.00000000000E+00  0.00000000000E+00  0.99999998245E-14  0.12500000000E+03  0.12500000000E+03 0.  0.
    3000001    1    3    3    0    0  0.98637100631E+01 -0.14085735063E+02 -0.70289907449E+00  0.17239338027E+02  0.10000000000E+01 0. -1.
    1000022    2    1    0    0    0  0.46487403920E+02 -0.40482322022E+02  0.25205610567E+01  0.62500004675E+02  0.10000011840E+02 0.  0.
    3000022    2    3    3    0    0  0.36623693857E+02 -0.26396586958E+02  0.32234601312E+01  0.45260666648E+02  0.24999088118E+00 0.  0.
    1000022    2    1    0    0    0 -0.46487403920E+02  0.40482322022E+02 -0.25205610567E+01  0.62499995325E+02  0.99999534042E+01 0.  0.
    3000022    2    5    5    0    0 -0.33983782880E+02  0.28186678797E+02  0.25254259638E+01  0.44224728804E+02  0.25000200144E+00 0.  0.
        -13    1    4    4    0    0  0.21449297288E+02 -0.15395868363E+02  0.19237033659E+01  0.26472944234E+02  0.10500000000E+00 0. -1.
         13    1    4    4    0    0  0.15174396569E+02 -0.11000718596E+02  0.12997567653E+01  0.18787722414E+02  0.10500000000E+00 0.  1.
    3000001    1    5    5    0    0 -0.12503621040E+02  0.12295643224E+02 -0.50459870205E+01  0.18275266521E+02  0.10000000000E+01 0. -1.
        -13    1    6    6    0    0 -0.15863888306E+02  0.13178454992E+02  0.11141271039E+01  0.20653981029E+02  0.10500000000E+00 0.  1.
         13    1    6    6    0    0 -0.18119894574E+02  0.15008223805E+02  0.14112988598E+01  0.23570747774E+02  0.10500000000E+00 0. -1.
</event>
<event>
11    0  0.3515428E-009  0.9118800E+02  0.7816531E-02  0.1126479E+00
         25   -1    0    0    0    0  0.00000000000E+00  0.00000000000E+00  0.99999998245E-14  0.12500000000E+03  0.12500000000E+03 0.  0.
    3000001    1    3    3    0    0  0.22684904807E+02 -0.67187095849E+01  0.21190231814E+02  0.31776908108E+02  0.10000000000E+01 0.  1.
    1000022    2    1    0    0    0  0.45031670677E+02 -0.35003497076E+01  0.42025535685E+02  0.62499996712E+02  0.10000006367E+02 0.  0.
    3000022    2    3    3    0    0  0.22346765870E+02  0.32183598773E+01  0.20835303871E+02  0.30723088604E+02  0.25000160573E+00 0.  0.
    1000022    2    1    0    0    0 -0.45031670677E+02  0.35003497076E+01 -0.42025535685E+02  0.62500003288E+02  0.10000047462E+02 0.  0.
    3000022    2    5    5    0    0 -0.31351929981E+02  0.59905816792E+01 -0.32890217209E+02  0.45832951825E+02  0.25000512928E+00 0.  0.
        -13    1    4    4    0    0  0.78489561397E+01  0.11306158935E+01  0.72413077807E+01  0.10739272236E+02  0.10500000000E+00 0. -1.
         13    1    4    4    0    0  0.14497809731E+02  0.20877439838E+01  0.13593996090E+02  0.19983816368E+02  0.10500000000E+00 0.  1.
    3000001    1    5    5    0    0 -0.13679740696E+02 -0.24902319715E+01 -0.91353184763E+01  0.16667051462E+02  0.10000000000E+01 0. -1.
        -13    1    6    6    0    0 -0.14790409822E+02  0.27835001133E+01 -0.15431940924E+02  0.21555971824E+02  0.10500000000E+00 0.  1.
         13    1    6    6    0    0 -0.16561520159E+02  0.32070815658E+01 -0.17458276285E+02  0.24276980002E+02  0.10500000000E+00 0. -1.
</event>
<event>
11    0  0.3515428E-009  0.9118800E+02  0.7816531E-02  0.1126479E+00
         25   -1    0    0    0    0  0.00000000000E+00  0.00000000000E+00  0.99999998245E-14  0.12500000000E+03  0.12500000000E+03 0.  0.
    3000001    1    3    3    0    0 -0.49089461504E+02  0.18964608322E+02  0.18425385242E+02  0.55766714273E+02  0.10000000000E+01 0. -1.
    1000022    2    1    0    0    0 -0.55742153306E+02  0.18247271054E+02  0.19133719993E+02  0.62500001994E+02  0.10000022619E+02 0.  0.
    3000022    2    3    3    0    0 -0.66526918023E+01 -0.71733726800E+00  0.70833475048E+00  0.67332877206E+01  0.25008885694E+00 0.  0.
    1000022    2    1    0    0    0  0.55742153306E+02 -0.18247271054E+02 -0.19133719993E+02  0.62499998006E+02  0.99999976962E+01 0.  0.
    3000022    2    5    5    0    0  0.31000821158E+02 -0.53836535380E+01 -0.80787273059E+01  0.32486350521E+02  0.24999483794E+00 0.  0.
        -13    1    4    4    0    0 -0.23944758610E+01 -0.21391031427E+00  0.29268009633E+00  0.24240377287E+01  0.10500000000E+00 0. -1.
         13    1    4    4    0    0 -0.42582159413E+01 -0.50342695373E+00  0.41565465415E+00  0.43092499919E+01  0.10500000000E+00 0.  1.
    3000001    1    5    5    0    0  0.24741332148E+02 -0.12863617516E+02 -0.11054992687E+02  0.30013647485E+02  0.10000000000E+01 0.  1.
        -13    1    6    6    0    0  0.83687540504E+01 -0.14430138461E+01 -0.22161103100E+01  0.87772719693E+01  0.10500000000E+00 0. -1.
         13    1    6    6    0    0  0.22632067107E+02 -0.39406396919E+01 -0.58626169959E+01  0.23709078552E+02  0.10500000000E+00 0.  1.
</event>
<event>
11    0  0.3515428E-009  0.9118800E+02  0.7816531E-02  0.1126479E+00
         25   -1    0    0    0    0  0.00000000000E+00  0.00000000000E+00  0.99999998245E-14  0.12500000000E+03  0.12500000000E+03 0.  0.
    3000001    1    3    3    0    0  0.45794845996E+02 -0.51250004715E+01  0.37021163313E+02  0.59118525714E+02  0.10000000000E+01 0.  1.
    1000022    2    1    0    0    0  0.48930920979E+02 -0.39354134782E+01  0.37370143024E+02  0.62499999454E+02  0.99999917474E+01 0.  0.
    3000022    2    3    3    0    0  0.31360749835E+01  0.11895869933E+01  0.34897971117E+00  0.33814737392E+01  0.24998858711E+00 0.  0.
    1000022    2    1    0    0    0 -0.48930920979E+02  0.39354134782E+01 -0.37370143024E+02  0.62500000546E+02  0.99999985768E+01 0.  0.
    3000022    2    5    5    0    0 -0.17249146987E+02  0.50564250587E+01 -0.97971278192E+01  0.20473073015E+02  0.24999802092E+00 0.  0.
        -13    1    4    4    0    0  0.14112350104E+01  0.58312829831E+00  0.10888107981E+00  0.15344389713E+01  0.10500000000E+00 0. -1.
         13    1    4    4    0    0  0.17248399730E+01  0.60645869500E+00  0.24009863136E+00  0.18470347680E+01  0.10500000000E+00 0.  1.
    3000001    1    5    5    0    0 -0.31681773993E+02 -0.11210115805E+01 -0.27573015205E+02  0.42026927532E+02  0.10000000000E+01 0.  1.
        -13    1    6    6    0    0 -0.11672606228E+02  0.33695489145E+01 -0.66070115400E+01  0.13829939354E+02  0.10500000000E+00 0.  1.
         13    1    6    6    0    0 -0.55765407588E+01  0.16868761442E+01 -0.31901162792E+01  0.66431336608E+01  0.10500000000E+00 0. -1.
</event>
<event>
11    0  0.3515428E-009  0.9118800E+02  0.7816531E-02  0.1126479E+00
         25   -1    0    0    0    0  0.00000000000E+00  0.00000000000E+00  0.99999998245E-14  0.12500000000E+03  0.12500000000E+03 0.  0.
    3000001    1    3    3    0    0 -0.12894591656E+02  0.26162773425E+02  0.53279050234E+02  0.60748813989E+02  0.10000000000E+01 0.  1.
    1000022    2    1    0    0    0 -0.13088336658E+02  0.27875709323E+02  0.53459239886E+02  0.62500000577E+02  0.10000000808E+02 0.  0.
    3000022    2    3    3    0    0 -0.19374500179E+00  0.17129358978E+01  0.18018965219E+00  0.17511865875E+01  0.24999927562E+00 0.  0.
    1000022    2    1    0    0    0  0.13088336658E+02 -0.27875709323E+02 -0.53459239886E+02  0.62499999423E+02  0.99999935972E+01 0.  0.
    3000022    2    5    5    0    0  0.21101791404E+01 -0.17589685352E+01 -0.11748287445E+02  0.12067791010E+02  0.24999132348E+00 0.  0.
        -13    1    4    4    0    0 -0.92371766307E-01  0.47142051843E+00  0.42412367565E-01  0.49355208168E+00  0.10500000000E+00 0. -1.
         13    1    4    4    0    0 -0.10137323548E+00  0.12415153794E+01  0.13777728463E+00  0.12576345059E+01  0.10500000000E+00 0.  1.
    3000001    1    5    5    0    0  0.10978157518E+02 -0.26116740788E+02 -0.41710952441E+02  0.50432208413E+02  0.10000000000E+01 0.  1.
        -13    1    6    6    0    0  0.80317065164E+00 -0.64626849595E+00 -0.46719408033E+01  0.47854782346E+01  0.10500000000E+00 0. -1.
         13    1    6    6    0    0  0.13070084888E+01 -0.11127000392E+01 -0.70763466415E+01  0.72823127753E+01  0.10500000000E+00 0.  1.
</event>
<event>
11    0  0.3515428E-009  0.9118800E+02  0.7816531E-02  0.1126479E+00
         25   -1    0    0    0    0  0.00000000000E+00  0.00000000000E+00  0.99999998245E-14  0.12500000000E+03  0.12500000000E+03 0.  0.
    3000001    1    3    3    0    0 -0.11409149739E+01 -0.45382418622E+02  0.27688993153E+02  0.53184076083E+02  0.10000000000E+01 0.  1.
    1000022    2    1    0    0    0 -0.29386104003E+01 -0.50578990996E+02  0.35204833338E+02  0.62499999581E+02  0.99999948037E+01 0.  0.
    3000022    2    3    3    0    0 -0.17976954263E+01 -0.51965723736E+01  0.75158401851E+01  0.93159234983E+01  0.25000731959E+00 0.  0.
    1000022    2    1    0    0    0  0.29386104003E+01  0.50578990996E+02 -0.35204833338E+02  0.62500000419E+02  0.10000000039E+02 0.  0.
    3000022    2    5    5    0    0 -0.22417104159E+01  0.31563583853E+01 -0.33793627416E+01  0.51449449649E+01  0.25000461283E+00 0.  0.
        -13    1    4    4    0    0 -0.12892366665E+01 -0.35924574557E+01  0.51831267657E+01  0.64376789157E+01  0.10500000000E+00 0.  1.
         13    1    4    4    0    0 -0.50845875980E+00 -0.16041149179E+01  0.23327134194E+01  0.28782445826E+01  0.10500000000E+00 0. -1.
    3000001    1    5    5    0    0  0.51803208161E+01  0.47422632610E+02 -0.31825470596E+02  0.57355055454E+02  0.10000000000E+01 0.  1.
        -13    1    6    6    0    0 -0.16924118863E+01  0.23431392171E+01 -0.24971285104E+01  0.38211562624E+01  0.10500000000E+00 0.  1.
         13    1    6    6    0    0 -0.54929852954E+00  0.81321916821E+00 -0.88223423121E+00  0.13237887025E+01  0.10500000000E+00 0. -1.
</event>
<event>
11    0  0.3515428E-009  0.9118800E+02  0.7816531E-02  0.1126479E+00
         25   -1    0    0    0    0  0.00000000000E+00  0.00000000000E+00  0.99999998245E-14  0.12500000000E+03  0.12500000000E+03 0.  0.
    3000001    1    3    3    0    0  0.35988361660E+02 -0.14252113288E+02  0.25990962114E+00  0.38721472869E+02  0.10000000000E+01 0. -1.
    1000022    2    1    0    0    0  0.55165109383E+02 -0.26847360785E+02  0.65023238059E+01  0.62499995642E+02  0.99999583001E+01 0.  0.
    3000022    2    3    3    0    0  0.19176747723E+02 -0.12595247497E+02  0.62424141848E+01  0.23778522772E+02  0.24999532187E+00 0.  0.
    1000022    2    1    0    0    0 -0.55165109383E+02  0.26847360785E+02 -0.65023238059E+01  0.62500004358E+02  0.10000012779E+02 0.  0.
    3000022    2    5    5    0    0 -0.15730203768E+02  0.11851229086E+02 -0.47531146475E+01  0.20261923442E+02  0.25000259647E+00 0.  0.
        -13    1    4    4    0    0  0.46768118114E+01 -0.30981303443E+01  0.15205668560E+01  0.58132717908E+01  0.10500000000E+00 0. -1.
         13    1    4    4    0    0  0.14499935911E+02 -0.94971171522E+01  0.47218473287E+01  0.17965250982E+02  0.10500000000E+00 0.  1.
    3000001    1    5    5    0    0 -0.39434905615E+02  0.14996131699E+02 -0.17492091584E+01  0.42238080916E+02  0.10000000000E+01 0.  1.
        -13    1    6    6    0    0 -0.92064726567E+01  0.68654345614E+01 -0.27394394322E+01  0.11807153929E+02  0.10500000000E+00 0.  1.
         13    1    6    6    0    0 -0.65237311111E+01  0.49857945248E+01 -0.20136752153E+01  0.84547695135E+01  0.10500000000E+00 0. -1.
</event>
<event>
11    0  0.3515428E-009  0.9118800E+02  0.7816531E-02  0.1126479E+00
         25   -1    0    0    0    0  0.00000000000E+00  0.00000000000E+00  0.99999998245E-14  0.12500000000E+03  0.12500000000E+03 0.  0.
    3000001    1    3    3    0    0  0.24906949488E+02 -0.15639573677E+02 -0.36283772558E+02  0.46716855081E+02  0.10000000000E+01 0. -1.
    1000022    2    1    0    0    0  0.29315698192E+02 -0.17808509170E+02 -0.51280567984E+02  0.62500001860E+02  0.10000021019E+02 0.  0.
    3000022    2    3    3    0    0  0.44087487036E+01 -0.21689354925E+01 -0.14996795426E+02  0.15783146779E+02  0.25000577649E+00 0.  0.
    1000022    2    1    0    0    0 -0.29315698192E+02  0.17808509170E+02  0.51280567984E+02  0.62499998140E+02  0.99999977746E+01 0.  0.
    3000022    2    5    5    0    0 -0.25617673385E+02  0.13486013202E+02  0.47397508241E+02  0.55540291838E+02  0.24997635888E+00 0.  0.
        -13    1    4    4    0    0  0.31157767723E+01 -0.14887178367E+01 -0.10600877547E+02  0.11149617727E+02  0.10500000000E+00 0.  1.
         13    1    4    4    0    0  0.12929719312E+01 -0.68021765575E+00 -0.43959178791E+01  0.46335290518E+01  0.10500000000E+00 0. -1.
    3000001    1    5    5    0    0 -0.36980248066E+01  0.43224959671E+01  0.38830597430E+01  0.69597063029E+01  0.10000000000E+01 0.  1.
        -13    1    6    6    0    0 -0.17052976851E+02  0.89739927381E+01  0.31445272142E+02  0.36880248511E+02  0.10500000000E+00 0.  1.
         13    1    6    6    0    0 -0.85646965341E+01  0.45120204643E+01  0.15952236099E+02  0.18660043327E+02  0.10500000000E+00 0. -1.
</event>
<event>
11    0  0.3515428E-009  0.9118800E+02  0.7816531E-02  0.1126479E+00
         25   -1    0    0    0    0  0.00000000000E+00  0.00000000000E+00  0.99999998245E-14  0.12500000000E+03  0.12500000000E+03 0.  0.
    3000001    1    3    3    0    0  0.33054773264E+02  0.26576854017E+02  0.28179287997E+02  0.50931517521E+02  0.10000000000E+01 0. -1.
    1000022    2    1    0    0    0  0.39881200232E+02  0.35507109907E+02  0.30902832476E+02  0.62499998365E+02  0.99999877344E+01 0.  0.
    3000022    2    3    3    0    0  0.68264269678E+01  0.89302558908E+01  0.27235444787E+01  0.11568480844E+02  0.24995817748E+00 0.  0.
    1000022    2    1    0    0    0 -0.39881200232E+02 -0.35507109907E+02 -0.30902832476E+02  0.62500001635E+02  0.10000008169E+02 0.  0.
    3000022    2    5    5    0    0 -0.95462687198E+00  0.63876052138E+00 -0.92746464820E+00  0.14973398976E+01  0.25001725311E+00 0.  0.
        -13    1    4    4    0    0  0.38196193501E+01  0.50599400503E+01  0.15910889550E+01  0.65372069231E+01  0.10500000000E+00 0.  1.
         13    1    4    4    0    0  0.30068076176E+01  0.38703158405E+01  0.11324555237E+01  0.50312739210E+01  0.10500000000E+00 0. -1.
    3000001    1    5    5    0    0 -0.38926573360E+02 -0.36145870429E+02 -0.29975367828E+02  0.61002661737E+02  0.10000000000E+01 0. -1.
        -13    1    6    6    0    0 -0.72710820265E+00  0.44739100761E+00 -0.67187806387E+00  0.10914624065E+01  0.10500000000E+00 0. -1.
         13    1    6    6    0    0 -0.22751866933E+00  0.19136951377E+00 -0.25558658433E+00  0.40587749110E+00  0.10500000000E+00 0.  1.
</event>
<event>
11    0  0.3515428E-009  0.9118800E+02  0.7816531E-02  0.1126479E+00
         25   -1    0    0    0    0  0.00000000000E+00  0.00000000000E+00  0.99999998245E-14  0.12500000000E+03  0.12500000000E+03 0.  0.
    3000001    1    3    3    0    0 -0.46935554674E+02  0.24804591822E+02  0.15977098084E+02  0.55448009263E+02  0.10000000000E+01 0.  1.
    1000022    2    1    0    0    0 -0.53909474348E+02  0.24725564805E+02  0.16990144564E+02  0.62499999649E+02  0.99999982196E+01 0.  0.
    3000022    2    3    3    0    0 -0.69739196739E+01 -0.79027017371E-01  0.10130464795E+01  0.70519903857E+01  0.25000868612E+00 0.  0.
    1000022    2    1    0    0    0  0.53909474348E+02 -0.24725564805E+02 -0.16990144564E+02  0.62500000351E+02  0.10000002606E+02 0.  0.
    3000022    2    5    5    0    0  0.49480929512E+01 -0.37803271423E+01  0.93538283503E+00  0.63017407552E+01  0.24999668220E+00 0.  0.
        -13    1    4    4    0    0 -0.17104836830E+01 -0.37275585922E-01  0.26419770472E+00  0.17343498281E+01  0.10500000000E+00 0. -1.
         13    1    4    4    0    0 -0.52634359908E+01 -0.41751431449E-01  0.74884877474E+00  0.53176405575E+01  0.10500000000E+00 0.  1.
    3000001    1    5    5    0    0  0.48961381397E+02 -0.20945237663E+02 -0.17925527399E+02  0.56198259596E+02  0.10000000000E+01 0.  1.
        -13    1    6    6    0    0  0.33743487090E+01 -0.25136145897E+01  0.62411352926E+00  0.42550006126E+01  0.10500000000E+00 0.  1.
         13    1    6    6    0    0  0.15737442422E+01 -0.12667125526E+01  0.31126930577E+00  0.20467401427E+01  0.10500000000E+00 0. -1.
</event>
<event>
11    0  0.3515428E-009  0.9118800E+02  0.7816531E-02  0.1126479E+00
         25   -1    0    0    0    0  0.00000000000E+00  0.00000000000E+00  0.99999998245E-14  0.12500000000E+03  0.12500000000E+03 0.  0.
    3000001    1    3    3    0    0  0.15506805431E+02 -0.22092701313E+02  0.15553386345E+02  0.31168193608E+02  0.10000000000E+01 0.  1.
    1000022    2    1    0    0    0  0.27797170091E+02 -0.38997606785E+02  0.38894137725E+02  0.62499999569E+02  0.99999998390E+01 0.  0.
    3000022    2    3    3    0    0  0.12290364660E+02 -0.16904905472E+02  0.23340751380E+02  0.31331805962E+02  0.24999468153E+00 0.  0.
    1000022    2    1    0    0    0 -0.27797170091E+02  0.38997606785E+02 -0.38894137725E+02  0.62500000431E+02  0.10000005223E+02 0.  0.
    3000022    2    5    5    0    0 -0.10752353719E+02  0.15224551972E+02 -0.21487476786E+02  0.28445988254E+02  0.24999172635E+00 0.  0.
        -13    1    4    4    0    0  0.44771681173E+01 -0.61176532752E+01  0.85465795316E+01  0.11424787203E+02  0.10500000000E+00 0.  1.
         13    1    4    4    0    0  0.78131965426E+01 -0.10787252197E+02  0.14794171848E+02  0.19907018758E+02  0.10500000000E+00 0. -1.
    3000001    1    5    5    0    0 -0.17044816371E+02  0.23773054813E+02 -0.17406660939E+02  0.34054012177E+02  0.10000000000E+01 0. -1.
        -13    1    6    6    0    0 -0.55935738516E+01  0.79077969463E+01 -0.11063880086E+02  0.14705161969E+02  0.10500000000E+00 0.  1.
         13    1    6    6    0    0 -0.51587798676E+01  0.73167550254E+01 -0.10423596700E+02  0.13740826285E+02  0.10500000000E+00 0. -1.
</event>
<event>
11    0  0.3515428E-009  0.9118800E+02  0.7816531E-02  0.1126479E+00
         25   -1    0    0    0    0  0.00000000000E+00  0.00000000000E+00  0.99999998245E-14  0.12500000000E+03  0.12500000000E+03 0.  0.
    3000001    1    3    3    0    0 -0.40940156521E+02 -0.14883751824E+02  0.34624027344E+02  0.55654701094E+02  0.10000000000E+01 0.  1.
    1000022    2    1    0    0    0 -0.45037256773E+02 -0.19664388251E+02  0.37298892192E+02  0.62500000170E+02  0.99999999790E+01 0.  0.
    3000022    2    3    3    0    0 -0.40971002513E+01 -0.47806364267E+01  0.26748648477E+01  0.68452990754E+01  0.25000473058E+00 0.  0.
    1000022    2    1    0    0    0  0.45037256773E+02  0.19664388251E+02 -0.37298892192E+02  0.62499999830E+02  0.99999978567E+01 0.  0.
    3000022    2    5    5    0    0  0.11876218173E+02  0.76659131372E+00 -0.10252851620E+02  0.15710369347E+02  0.25003671642E+00 0.  0.
        -13    1    4    4    0    0 -0.19033359778E+01 -0.23233587481E+01  0.12876830521E+01  0.32695315198E+01  0.10500000000E+00 0. -1.
         13    1    4    4    0    0 -0.21937642735E+01 -0.24572776785E+01  0.13871817956E+01  0.35757675556E+01  0.10500000000E+00 0.  1.
    3000001    1    5    5    0    0  0.33161038600E+02  0.18897796937E+02 -0.27046040572E+02  0.46789630483E+02  0.10000000000E+01 0.  1.
        -13    1    6    6    0    0  0.71878129700E+01  0.52458074300E+00 -0.61873696124E+01  0.94991793313E+01  0.10500000000E+00 0.  1.
         13    1    6    6    0    0  0.46884052026E+01  0.24201057072E+00 -0.40654820072E+01  0.62111900157E+01  0.10500000000E+00 0. -1.
</event>
<event>
11    0  0.3515428E-009  0.9118800E+02  0.7816531E-02  0.1126479E+00
         25   -1    0    0    0    0  0.00000000000E+00  0.00000000000E+00  0.99999998245E-14  0.12500000000E+03  0.12500000000E+03 0.  0.
    3000001    1    3    3    0    0 -0.20477788106E+02  0.40483820000E+02 -0.69092049753E+01  0.45902250499E+02  0.10000000000E+01 0.  1.
    1000022    2    1    0    0    0 -0.32624401642E+02  0.51721798609E+02 -0.81703098475E+01  0.62499999051E+02  0.99999942308E+01 0.  0.
    3000022    2    3    3    0    0 -0.12146613536E+02  0.11237978609E+02 -0.12611048722E+01  0.16597748552E+02  0.24997580840E+00 0.  0.
    1000022    2    1    0    0    0  0.32624401642E+02 -0.51721798609E+02  0.81703098475E+01  0.62500000949E+02  0.10000006087E+02 0.  0.
    3000022    2    5    5    0    0  0.41708402847E+01 -0.13239115424E+02  0.40066450591E+01  0.14449421727E+02  0.24999547929E+00 0.  0.
        -13    1    4    4    0    0 -0.68411842033E+01  0.63799945012E+01 -0.76737186265E+00  0.93864804754E+01  0.10500000000E+00 0. -1.
         13    1    4    4    0    0 -0.53054293324E+01  0.48579841075E+01 -0.49373300958E+00  0.72112680767E+01  0.10500000000E+00 0.  1.
    3000001    1    5    5    0    0  0.28453561357E+02 -0.38482683185E+02  0.41636647884E+01  0.48050579221E+02  0.10000000000E+01 0.  1.
        -13    1    6    6    0    0  0.11235462341E+01 -0.36764308362E+01  0.11306500403E+01  0.40084778093E+01  0.10500000000E+00 0.  1.
         13    1    6    6    0    0  0.30472940506E+01 -0.95626845875E+01  0.28759950189E+01  0.10440943918E+02  0.10500000000E+00 0. -1.
</event>
<event>
11    0  0.3515428E-009  0.9118800E+02  0.7816531E-02  0.1126479E+00
         25   -1    0    0    0    0  0.00000000000E+00  0.00000000000E+00  0.99999998245E-14  0.12500000000E+03  0.12500000000E+03 0.  0.
    3000001    1    3    3    0    0 -0.18870742614E+01 -0.12989877889E+01  0.10274950130E+01  0.27026217911E+01  0.10000000000E+01 0.  1.
    1000022    2    1    0    0    0 -0.42469711563E+02  0.56299503615E+01  0.44394567173E+02  0.62499997020E+02  0.99999645897E+01 0.  0.
    3000022    2    3    3    0    0 -0.40582637301E+02  0.69289381504E+01  0.43367072160E+02  0.59797375229E+02  0.25000476065E+00 0.  0.
    1000022    2    1    0    0    0  0.42469711563E+02 -0.56299503615E+01 -0.44394567173E+02  0.62500002980E+02  0.10000001834E+02 0.  0.
    3000022    2    5    5    0    0  0.23128503781E+02  0.76292513206E+00 -0.28046065299E+02  0.36361435898E+02  0.24999987414E+00 0.  0.
        -13    1    4    4    0    0 -0.14367486059E+02  0.24065217922E+01  0.15394743852E+02  0.21194932556E+02  0.10500000000E+00 0.  1.
         13    1    4    4    0    0 -0.26215151242E+02  0.45224163582E+01  0.27972328308E+02  0.38602442673E+02  0.10500000000E+00 0. -1.
    3000001    1    5    5    0    0  0.19341207782E+02 -0.63928754936E+01 -0.16348501874E+02  0.26138567081E+02  0.10000000000E+01 0. -1.
        -13    1    6    6    0    0  0.14032018469E+02  0.52058724931E+00 -0.17054606180E+02  0.22091608596E+02  0.10500000000E+00 0. -1.
         13    1    6    6    0    0  0.90964853120E+01  0.24233788275E+00 -0.10991459119E+02  0.14269827302E+02  0.10500000000E+00 0.  1.
</event>
<event>
11    0  0.3515428E-009  0.9118800E+02  0.7816531E-02  0.1126479E+00
         25   -1    0    0    0    0  0.00000000000E+00  0.00000000000E+00  0.99999998245E-14  0.12500000000E+03  0.12500000000E+03 0.  0.
    3000001    1    3    3    0    0  0.95461836433E+01  0.33418964239E+02 -0.42506501801E+02  0.54915931097E+02  0.10000000000E+01 0. -1.
    1000022    2    1    0    0    0  0.80857163120E+01  0.35899640334E+02 -0.49518554624E+02  0.62500000571E+02  0.99999917508E+01 0.  0.
    3000022    2    3    3    0    0 -0.14604673313E+01  0.24806760947E+01 -0.70120528232E+01  0.75840694740E+01  0.25001255716E+00 0.  0.
    1000022    2    1    0    0    0 -0.80857163120E+01 -0.35899640334E+02  0.49518554624E+02  0.62499999429E+02  0.99999846099E+01 0.  0.
    3000022    2    5    5    0    0 -0.13446732227E+01 -0.64057689093E+00  0.54326443187E+01  0.56386707051E+01  0.24999639526E+00 0.  0.
        -13    1    4    4    0    0 -0.34783214389E+00  0.60199038465E+00 -0.16530024466E+01  0.17963356345E+01  0.10500000000E+00 0.  1.
         13    1    4    4    0    0 -0.11126351874E+01  0.18786857100E+01 -0.53590503766E+01  0.57877338395E+01  0.10500000000E+00 0. -1.
    3000001    1    5    5    0    0 -0.67410430893E+01 -0.35259063443E+02  0.44085910305E+02  0.56861328724E+02  0.10000000000E+01 0. -1.
        -13    1    6    6    0    0 -0.52563217831E+00 -0.23665546855E+00  0.23450152866E+01  0.24171091602E+01  0.10500000000E+00 0.  1.
         13    1    6    6    0    0 -0.81904104440E+00 -0.40392142239E+00  0.30876290321E+01  0.32215615449E+01  0.10500000000E+00 0. -1.
</event>
<event>
11    0  0.3515428E-009  0.9118800E+02  0.7816531E-02  0.1126479E+00
         25   -1    0    0    0    0  0.00000000000E+00  0.00000000000E+00  0.99999998245E-14  0.12500000000E+03  0.12500000000E+03 0.  0.
    3000001    1    3    3    0    0 -0.47396416505E+02 -0.45801459594E+01 -0.18218096798E+02  0.50993108216E+02  0.10000000000E+01 0.  1.
    1000022    2    1    0    0    0 -0.58634560084E+02 -0.22672395124E+01 -0.19055132254E+02  0.62499999043E+02  0.99999901912E+01 0.  0.
    3000022    2    3    3    0    0 -0.11238143579E+02  0.23129064471E+01 -0.83703545644E+00  0.11506890827E+02  0.25000163309E+00 0.  0.
    1000022    2    1    0    0    0  0.58634560084E+02  0.22672395124E+01  0.19055132254E+02  0.62500000957E+02  0.10000002157E+02 0.  0.
    3000022    2    5    5    0    0  0.12761890680E+02  0.74633273507E+00 -0.19759951619E-01  0.12786155115E+02  0.25001180620E+00 0.  0.
        -13    1    4    4    0    0 -0.38357154890E+01  0.73627010250E+00 -0.26766205662E+00  0.39163088429E+01  0.10500000000E+00 0.  1.
         13    1    4    4    0    0 -0.74024280901E+01  0.15766363446E+01 -0.56937339982E+00  0.75905819843E+01  0.10500000000E+00 0. -1.
    3000001    1    5    5    0    0  0.45872669405E+02  0.15209067773E+01  0.19074892206E+02  0.49713845842E+02  0.10000000000E+01 0. -1.
        -13    1    6    6    0    0  0.63631566707E+01  0.30776604260E+00  0.11906643334E-01  0.63714715350E+01  0.10500000000E+00 0.  1.
         13    1    6    6    0    0  0.63987340091E+01  0.43856669247E+00 -0.31666594953E-01  0.64146835804E+01  0.10500000000E+00 0. -1.
</event>
<event>
11    0  0.3515428E-009  0.9118800E+02  0.7816531E-02  0.1126479E+00
         25   -1    0    0    0    0  0.00000000000E+00  0.00000000000E+00  0.99999998245E-14  0.12500000000E+03  0.12500000000E+03 0.  0.
    3000001    1    3    3    0    0 -0.40908706424E+02  0.38067616933E+02 -0.22555014649E+02  0.60269348810E+02  0.10000000000E+01 0. -1.
    1000022    2    1    0    0    0 -0.40665497858E+02  0.40169213273E+02 -0.23216411253E+02  0.62499999232E+02  0.99999870765E+01 0.  0.
    3000022    2    3    3    0    0  0.24320856558E+00  0.21015963403E+01 -0.66139660396E+00  0.22306504219E+01  0.24999650576E+00 0.  0.
    1000022    2    1    0    0    0  0.40665497858E+02 -0.40169213273E+02  0.23216411253E+02  0.62500000768E+02  0.99999966719E+01 0.  0.
    3000022    2    5    5    0    0  0.16004979070E+02 -0.14245156291E+02  0.13804550393E+02  0.25489447649E+02  0.24999419356E+00 0.  0.
        -13    1    4    4    0    0  0.20044723546E+00  0.15126938846E+01 -0.44271140441E+00  0.15923065880E+01  0.10500000000E+00 0. -1.
         13    1    4    4    0    0  0.42761330125E-01  0.58890245576E+00 -0.21868519956E+00  0.63834383388E+00  0.10500000000E+00 0.  1.
    3000001    1    5    5    0    0  0.24660518788E+02 -0.25924056982E+02  0.94118608598E+01  0.37010553119E+02  0.10000000000E+01 0.  1.
        -13    1    6    6    0    0  0.57215976089E+01 -0.50775909144E+01  0.48615873332E+01  0.90644726869E+01  0.10500000000E+00 0.  1.
         13    1    6    6    0    0  0.10283381461E+02 -0.91675653768E+01  0.89429630599E+01  0.16424974962E+02  0.10500000000E+00 0. -1.
</event>
<event>
11    0  0.3515428E-009  0.9118800E+02  0.7816531E-02  0.1126479E+00
         25   -1    0    0    0    0  0.00000000000E+00  0.00000000000E+00  0.99999998245E-14  0.12500000000E+03  0.12500000000E+03 0.  0.
    3000001    1    3    3    0    0  0.22607485171E+02 -0.51020891411E+02 -0.24341873857E+02  0.60891350527E+02  0.10000000000E+01 0. -1.
    1000022    2    1    0    0    0  0.23872887769E+02 -0.51723467838E+02 -0.23685824277E+02  0.62500001632E+02  0.10000001832E+02 0.  0.
    3000022    2    3    3    0    0  0.12654025979E+01 -0.70257642654E+00  0.65604957927E+00  0.16086511045E+01  0.24999991106E+00 0.  0.
    1000022    2    1    0    0    0 -0.23872887769E+02  0.51723467838E+02  0.23685824277E+02  0.62499998368E+02  0.99999814356E+01 0.  0.
    3000022    2    5    5    0    0 -0.44738054157E+01  0.97350924016E+01  0.89007788786E+01  0.13931020251E+02  0.25000322896E+00 0.  0.
        -13    1    4    4    0    0  0.34874488190E+00 -0.19204215700E+00  0.14192816663E+00  0.43551324572E+00  0.10500000000E+00 0.  1.
         13    1    4    4    0    0  0.91665771603E+00 -0.51053426954E+00  0.51412141264E+00  0.11731378588E+01  0.10500000000E+00 0. -1.
    3000001    1    5    5    0    0 -0.19399082353E+02  0.41988375436E+02  0.14785045399E+02  0.48568978118E+02  0.10000000000E+01 0. -1.
        -13    1    6    6    0    0 -0.23166984748E+01  0.50379257727E+01  0.45186349325E+01  0.71538014068E+01  0.10500000000E+00 0. -1.
         13    1    6    6    0    0 -0.21571069409E+01  0.46971666289E+01  0.43821439461E+01  0.67772188439E+01  0.10500000000E+00 0.  1.
</event>
<event>
11    0  0.3515428E-009  0.9118800E+02  0.7816531E-02  0.1126479E+00
         25   -1    0    0    0    0  0.00000000000E+00  0.00000000000E+00  0.99999998245E-14  0.12500000000E+03  0.12500000000E+03 0.  0.
    3000001    1    3    3    0    0 -0.19926240012E+02  0.97816712923E+00 -0.13882250047E+02  0.24325474678E+02  0.10000000000E+01 0.  1.
    1000022    2    1    0    0    0 -0.56503405137E+02  0.97069982377E-01 -0.24771072301E+02  0.62499998873E+02  0.99999810801E+01 0.  0.
    3000022    2    3    3    0    0 -0.36577165125E+02 -0.88109714685E+00 -0.10888822254E+02  0.38174524195E+02  0.25001340918E+00 0.  0.
    1000022    2    1    0    0    0  0.56503405137E+02 -0.97069982377E-01  0.24771072301E+02  0.62500001127E+02  0.99999951632E+01 0.  0.
    3000022    2    5    5    0    0  0.25786987781E+02  0.30608344146E+01  0.71586148940E+01  0.26937811778E+02  0.24998010990E+00 0.  0.
        -13    1    4    4    0    0 -0.26698996318E+02 -0.67883432998E+00 -0.79533283892E+01  0.27866892147E+02  0.10500000000E+00 0.  1.
         13    1    4    4    0    0 -0.98781688061E+01 -0.20226281686E+00 -0.29354938647E+01  0.10307632048E+02  0.10500000000E+00 0. -1.
    3000001    1    5    5    0    0  0.30716417355E+02 -0.31579043969E+01  0.17612457407E+02  0.35562189348E+02  0.10000000000E+01 0.  1.
        -13    1    6    6    0    0  0.11741434718E+02  0.14600143988E+01  0.32736923049E+01  0.12276848846E+02  0.10500000000E+00 0. -1.
         13    1    6    6    0    0  0.14045553063E+02  0.16008200157E+01  0.38849225891E+01  0.14660962932E+02  0.10500000000E+00 0.  1.
</event>
<event>
11    0  0.3515428E-009  0.9118800E+02  0.7816531E-02  0.1126479E+00
         25   -1    0    0    0    0  0.00000000000E+00  0.00000000000E+00  0.99999998245E-14  0.12500000000E+03  0.12500000000E+03 0.  0.
    3000001    1    3    3    0    0 -0.25854781736E+02  0.14300162162E+02 -0.16234998667E+02  0.33727430352E+02  0.10000000000E+01 0. -1.
    1000022    2    1    0    0    0 -0.51647376593E+02  0.25785274207E+02 -0.21769656644E+02  0.62499999762E+02  0.10000007254E+02 0.  0.
    3000022    2    3    3    0    0 -0.25792594857E+02  0.11485112045E+02 -0.55346579772E+01  0.28772569410E+02  0.25012675914E+00 0.  0.
    1000022    2    1    0    0    0  0.51647376593E+02 -0.25785274207E+02  0.21769656644E+02  0.62500000238E+02  0.10000010225E+02 0.  0.
    3000022    2    5    5    0    0  0.40173508383E+01 -0.53969368570E+01  0.31879280498E+01  0.74492573654E+01  0.25002969642E+00 0.  0.
        -13    1    4    4    0    0 -0.70669571635E+01  0.31696066012E+01 -0.14861960731E+01  0.78872107442E+01  0.10500000000E+00 0. -1.
         13    1    4    4    0    0 -0.18725637693E+02  0.83155054435E+01 -0.40484619041E+01  0.20885358666E+02  0.10500000000E+00 0.  1.
    3000001    1    5    5    0    0  0.47630025754E+02 -0.20388337350E+02  0.18581728594E+02  0.55050742872E+02  0.10000000000E+01 0. -1.
        -13    1    6    6    0    0  0.29625339760E+01 -0.40032881233E+01  0.23273170698E+01  0.54982136281E+01  0.10500000000E+00 0.  1.
         13    1    6    6    0    0  0.10548168623E+01 -0.13936487337E+01  0.86061097999E+00  0.19510437373E+01  0.10500000000E+00 0. -1.
</event>
<event>
11    0  0.3515428E-009  0.9118800E+02  0.7816531E-02  0.1126479E+00
         25   -1    0    0    0    0  0.00000000000E+00  0.00000000000E+00  0.99999998245E-14  0.12500000000E+03  0.12500000000E+03 0.  0.
    3000001    1    3    3    0    0 -0.44620366697E+02  0.19793523105E+02 -0.34380448757E+02  0.59714118413E+02  0.10000000000E+01 0.  1.
    1000022    2    1    0    0    0 -0.47125897508E+02  0.20884599324E+02 -0.33900345035E+02  0.62499999254E+02  0.99999904213E+01 0.  0.
    3000022    2    3    3    0    0 -0.25055308105E+01  0.10910762188E+01  0.48010372198E+00  0.27858808410E+01  0.25000103768E+00 0.  0.
    1000022    2    1    0    0    0  0.47125897508E+02 -0.20884599324E+02  0.33900345035E+02  0.62500000746E+02  0.99999997479E+01 0.  0.
    3000022    2    5    5    0    0  0.21059536935E+02 -0.41643791085E+01  0.12484140488E+02  0.24834701932E+02  0.25001412103E+00 0.  0.
        -13    1    4    4    0    0 -0.11253799562E+01  0.41829391885E+00  0.21702065419E+00  0.12245704605E+01  0.10500000000E+00 0. -1.
         13    1    4    4    0    0 -0.13801508543E+01  0.67278229996E+00  0.26308306779E+00  0.15613103805E+01  0.10500000000E+00 0.  1.
    3000001    1    5    5    0    0  0.26066360573E+02 -0.16720220215E+02  0.21416204547E+02  0.37665298814E+02  0.10000000000E+01 0.  1.
        -13    1    6    6    0    0  0.13705295961E+02 -0.26526055497E+01  0.81206562436E+01  0.16150155925E+02  0.10500000000E+00 0. -1.
         13    1    6    6    0    0  0.73542409733E+01 -0.15117735588E+01  0.43634842443E+01  0.86845460063E+01  0.10500000000E+00 0.  1.
</event>
<event>
11    0  0.3515428E-009  0.9118800E+02  0.7816531E-02  0.1126479E+00
         25   -1    0    0    0    0  0.00000000000E+00  0.00000000000E+00  0.99999998245E-14  0.12500000000E+03  0.12500000000E+03 0.  0.
    3000001    1    3    3    0    0  0.32901233852E+01  0.39915955141E+00 -0.12898537097E+02  0.13355017764E+02  0.10000000000E+01 0.  1.
    1000022    2    1    0    0    0  0.14093493774E+02 -0.16619159926E+02 -0.57718516446E+02  0.62499997782E+02  0.99999769288E+01 0.  0.
    3000022    2    3    3    0    0  0.10803370388E+02 -0.17018319478E+02 -0.44819979349E+02  0.49144980018E+02  0.25000496863E+00 0.  0.
    1000022    2    1    0    0    0 -0.14093493774E+02  0.16619159926E+02  0.57718516446E+02  0.62500002218E+02  0.10000004655E+02 0.  0.
    3000022    2    5    5    0    0  0.16045990163E+00  0.31502730352E+01  0.29824301920E+01  0.43482589262E+01  0.24999652458E+00 0.  0.
        -13    1    4    4    0    0  0.58405727222E+01 -0.91700256171E+01 -0.24331947057E+02  0.26650634741E+02  0.10500000000E+00 0. -1.
         13    1    4    4    0    0  0.49627976662E+01 -0.78482938606E+01 -0.20488032293E+02  0.22494345277E+02  0.10500000000E+00 0.  1.
    3000001    1    5    5    0    0 -0.14253953675E+02  0.13468886891E+02  0.54736086254E+02  0.58151743292E+02  0.10000000000E+01 0. -1.
        -13    1    6    6    0    0  0.14903776701E+00  0.23234125860E+01  0.22129955312E+01  0.32138501088E+01  0.10500000000E+00 0. -1.
         13    1    6    6    0    0  0.11422134625E-01  0.82686044924E+00  0.76943466088E+00  0.11344088174E+01  0.10500000000E+00 0.  1.
</event>
<event>
11    0  0.3515428E-009  0.9118800E+02  0.7816531E-02  0.1126479E+00
         25   -1    0    0    0    0  0.00000000000E+00  0.00000000000E+00  0.99999998245E-14  0.12500000000E+03  0.12500000000E+03 0.  0.
    3000001    1    3    3    0    0 -0.13593467018E+01 -0.18814402010E+01  0.84052053992E+00  0.26634780765E+01  0.10000000000E+01 0. -1.
    1000022    2    1    0    0    0 -0.51814436892E+02 -0.99299494803E+01  0.31982962078E+02  0.62499995220E+02  0.99999886085E+01 0.  0.
    3000022    2    3    3    0    0 -0.50455090190E+02 -0.80485092793E+01  0.31142441538E+02  0.59836517144E+02  0.24998253034E+00 0.  0.
    1000022    2    1    0    0    0  0.51814436892E+02  0.99299494803E+01 -0.31982962078E+02  0.62500004780E+02  0.10000048353E+02 0.  0.
    3000022    2    5    5    0    0  0.40610162881E+02  0.42302449306E+01 -0.21764387662E+02  0.46269119063E+02  0.25001426116E+00 0.  0.
        -13    1    4    4    0    0 -0.28330863333E+02 -0.44718580824E+01  0.17536620442E+02  0.33618141136E+02  0.10500000000E+00 0.  1.
         13    1    4    4    0    0 -0.22124226857E+02 -0.35766511969E+01  0.13605821096E+02  0.26218376008E+02  0.10500000000E+00 0. -1.
    3000001    1    5    5    0    0  0.11204274011E+02  0.56997045496E+01 -0.10218574416E+02  0.16230885717E+02  0.10000000000E+01 0.  1.
        -13    1    6    6    0    0  0.20915578118E+02  0.21796634272E+01 -0.11286166522E+02  0.23866313508E+02  0.10500000000E+00 0. -1.
         13    1    6    6    0    0  0.19694584763E+02  0.20505815035E+01 -0.10478221140E+02  0.22402805555E+02  0.10500000000E+00 0.  1.
</event>
<event>
11    0  0.3515428E-009  0.9118800E+02  0.7816531E-02  0.1126479E+00
         25   -1    0    0    0    0  0.00000000000E+00  0.00000000000E+00  0.99999998245E-14  0.12500000000E+03  0.12500000000E+03 0.  0.
    3000001    1    3    3    0    0 -0.27535156958E+02  0.10261350132E+02 -0.79613559594E+01  0.30460849692E+02  0.10000000000E+01 0. -1.
    1000022    2    1    0    0    0 -0.54042845807E+02  0.16254752676E+02 -0.24927975541E+02  0.62499999531E+02  0.99999904662E+01 0.  0.
    3000022    2    3    3    0    0 -0.26507688849E+02  0.59934025439E+01 -0.16966619581E+02  0.32039149839E+02  0.25000044823E+00 0.  0.
    1000022    2    1    0    0    0  0.54042845807E+02 -0.16254752676E+02  0.24927975541E+02  0.62500000469E+02  0.99999963245E+01 0.  0.
    3000022    2    5    5    0    0  0.53416671300E+02 -0.14994165666E+02  0.23476255578E+02  0.60244193524E+02  0.25000107173E+00 0.  0.
        -13    1    4    4    0    0 -0.10536159523E+02  0.23192759839E+01 -0.67201096155E+01  0.12710648954E+02  0.10500000000E+00 0. -1.
         13    1    4    4    0    0 -0.15971529326E+02  0.36741265600E+01 -0.10246509966E+02  0.19328500885E+02  0.10500000000E+00 0.  1.
    3000001    1    5    5    0    0  0.62617450734E+00 -0.12605870100E+01  0.14517199625E+01  0.22558069450E+01  0.10000000000E+01 0. -1.
        -13    1    6    6    0    0  0.15840864450E+02 -0.44659906641E+01  0.70085853911E+01  0.17888805252E+02  0.10500000000E+00 0. -1.
         13    1    6    6    0    0  0.37575806850E+02 -0.10528175002E+02  0.16467670187E+02  0.42355388272E+02  0.10500000000E+00 0.  1.
</event>
<event>
11    0  0.3515428E-009  0.9118800E+02  0.7816531E-02  0.1126479E+00
         25   -1    0    0    0    0  0.00000000000E+00  0.00000000000E+00  0.99999998245E-14  0.12500000000E+03  0.12500000000E+03 0.  0.
    3000001    1    3    3    0    0 -0.14253093257E+02  0.38273113118E+02 -0.85224779716E+01  0.41732654911E+02  0.10000000000E+01 0. -1.
    1000022    2    1    0    0    0 -0.19758654320E+02  0.58136375848E+02 -0.60006282688E+01  0.62500000436E+02  0.99999948762E+01 0.  0.
    3000022    2    3    3    0    0 -0.55055610636E+01  0.19863262730E+02  0.25218497028E+01  0.20767345525E+02  0.25001062326E+00 0.  0.
    1000022    2    1    0    0    0  0.19758654320E+02 -0.58136375848E+02  0.60006282688E+01  0.62499999564E+02  0.99999894303E+01 0.  0.
    3000022    2    5    5    0    0 -0.20319723960E+00 -0.74536825019E+01 -0.11595461372E+01  0.75502132130E+01  0.25000071898E+00 0.  0.
        -13    1    4    4    0    0 -0.31931583196E+01  0.11654993673E+02  0.15322060259E+01  0.12181700123E+02  0.10500000000E+00 0. -1.
         13    1    4    4    0    0 -0.23124027440E+01  0.82082690568E+01  0.98964367683E+00  0.85856454019E+01  0.10500000000E+00 0.  1.
    3000001    1    5    5    0    0  0.19961851560E+02 -0.50682693346E+02  0.71601744060E+01  0.54949786351E+02  0.10000000000E+01 0.  1.
        -13    1    6    6    0    0 -0.53166704400E-01 -0.31048835742E+01 -0.54000863525E+00  0.31536903833E+01  0.10500000000E+00 0.  1.
         13    1    6    6    0    0 -0.15003053520E+00 -0.43487989277E+01 -0.61953750196E+00  0.43965228296E+01  0.10500000000E+00 0. -1.
</event>
<event>
11    0  0.3515428E-009  0.9118800E+02  0.7816531E-02  0.1126479E+00
         25   -1    0    0    0    0  0.00000000000E+00  0.00000000000E+00  0.99999998245E-14  0.12500000000E+03  0.12500000000E+03 0.  0.
    3000001    1    3    3    0    0 -0.14684247502E+02  0.16889067486E+02  0.23529172953E+02  0.32488301050E+02  0.10000000000E+01 0.  1.
    1000022    2    1    0    0    0 -0.24215827823E+02  0.39697702735E+02  0.40545480731E+02  0.62500000958E+02  0.10000009623E+02 0.  0.
    3000022    2    3    3    0    0 -0.95315803215E+01  0.22808635248E+02  0.17016307777E+02  0.30011699908E+02  0.25007130782E+00 0.  0.
    1000022    2    1    0    0    0  0.24215827823E+02 -0.39697702735E+02 -0.40545480731E+02  0.62499999042E+02  0.99999976523E+01 0.  0.
    3000022    2    5    5    0    0  0.26178813643E+01 -0.11238741310E+02 -0.70999567020E+01  0.13551180322E+02  0.24998772958E+00 0.  0.
        -13    1    4    4    0    0 -0.35533148367E+01  0.84743539658E+01  0.62542592234E+01  0.11116092160E+02  0.10500000000E+00 0. -1.
         13    1    4    4    0    0 -0.59782654848E+01  0.14334281283E+02  0.10762048554E+02  0.18895607748E+02  0.10500000000E+00 0.  1.
    3000001    1    5    5    0    0  0.21597946459E+02 -0.28458961424E+02 -0.33445524029E+02  0.48948818721E+02  0.10000000000E+01 0. -1.
        -13    1    6    6    0    0  0.17372673969E+01 -0.76206684806E+01 -0.48503407521E+01  0.91994302275E+01  0.10500000000E+00 0.  1.
         13    1    6    6    0    0  0.88061396732E+00 -0.36180728297E+01 -0.22496159499E+01  0.43517500942E+01  0.10500000000E+00 0. -1.
</event>
<event>
11    0  0.3515428E-009  0.9118800E+02  0.7816531E-02  0.1126479E+00
         25   -1    0    0    0    0  0.00000000000E+00  0.00000000000E+00  0.99999998245E-14  0.12500000000E+03  0.12500000000E+03 0.  0.
    3000001    1    3    3    0    0 -0.35743067630E+02  0.31136234699E+02  0.38658779153E+02  0.61176247028E+02  0.10000000000E+01 0.  1.
    1000022    2    1    0    0    0 -0.36145838609E+02  0.32276891403E+02  0.38182858062E+02  0.62499999747E+02  0.99999975573E+01 0.  0.
    3000022    2    3    3    0    0 -0.40277097917E+00  0.11406567042E+01 -0.47592109144E+00  0.13237527185E+01  0.24999639158E+00 0.  0.
    1000022    2    1    0    0    0  0.36145838609E+02 -0.32276891403E+02 -0.38182858062E+02  0.62500000253E+02  0.10000000726E+02 0.  0.
    3000022    2    5    5    0    0  0.62716564855E+00  0.10667181466E+00  0.45589487833E+00  0.82160432490E+00  0.24995579577E+00 0.  0.
        -13    1    4    4    0    0 -0.18125439374E+00  0.49251964292E+00 -0.27793145683E+00  0.60307516000E+00  0.10500000000E+00 0. -1.
         13    1    4    4    0    0 -0.22151658543E+00  0.64813706130E+00 -0.19798963460E+00  0.72067755845E+00  0.10500000000E+00 0.  1.
    3000001    1    5    5    0    0  0.35518672960E+02 -0.32383563218E+02 -0.38638752940E+02  0.61678395929E+02  0.10000000000E+01 0.  1.
        -13    1    6    6    0    0  0.30240936685E+00  0.90078771829E-01  0.29229042521E+00  0.44274631897E+00  0.10500000000E+00 0.  1.
         13    1    6    6    0    0  0.32475628170E+00  0.16593042835E-01  0.16360445312E+00  0.37885800593E+00  0.10500000000E+00 0. -1.
</event>
<event>
11    0  0.3515428E-009  0.9118800E+02  0.7816531E-02  0.1126479E+00
         25   -1    0    0    0    0  0.00000000000E+00  0.00000000000E+00  0.99999998245E-14  0.12500000000E+03  0.12500000000E+03 0.  0.
    3000001    1    3    3    0    0  0.22973219528E+02  0.25360238617E+02 -0.63424530127E+01  0.34815761207E+02  0.10000000000E+01 0. -1.
    1000022    2    1    0    0    0  0.46554496929E+02  0.38543776561E+02 -0.12381683038E+02  0.62500000981E+02  0.10000007592E+02 0.  0.
    3000022    2    3    3    0    0  0.23581277402E+02  0.13183537944E+02 -0.60392300256E+01  0.27684239774E+02  0.25003192971E+00 0.  0.
    1000022    2    1    0    0    0 -0.46554496929E+02 -0.38543776561E+02  0.12381683038E+02  0.62499999019E+02  0.99999953277E+01 0.  0.
    3000022    2    5    5    0    0 -0.39634105472E+02 -0.27708041591E+02  0.94283301589E+01  0.49270212040E+02  0.24999908157E+00 0.  0.
        -13    1    4    4    0    0  0.98069940637E+01  0.54300289104E+01 -0.25520761851E+01  0.11497237250E+02  0.10500000000E+00 0. -1.
         13    1    4    4    0    0  0.13774283338E+02  0.77535090334E+01 -0.34871538405E+01  0.16187002524E+02  0.10500000000E+00 0.  1.
    3000001    1    5    5    0    0 -0.69203914577E+01 -0.10835734971E+02  0.29533528794E+01  0.13229786979E+02  0.10000000000E+01 0.  1.
        -13    1    6    6    0    0 -0.17086644777E+02 -0.12019935479E+02  0.40971074356E+01  0.21289189580E+02  0.10500000000E+00 0. -1.
         13    1    6    6    0    0 -0.22547460695E+02 -0.15688106112E+02  0.53312227233E+01  0.27981022460E+02  0.10500000000E+00 0.  1.
</event>
<event>
11    0  0.3515428E-009  0.9118800E+02  0.7816531E-02  0.1126479E+00
         25   -1    0    0    0    0  0.00000000000E+00  0.00000000000E+00  0.99999998245E-14  0.12500000000E+03  0.12500000000E+03 0.  0.
    3000001    1    3    3    0    0  0.15125147880E+02 -0.25785067491E+02 -0.17241180779E+02  0.34523877513E+02  0.10000000000E+01 0. -1.
    1000022    2    1    0    0    0  0.19415521496E+02 -0.46792475788E+02 -0.35210112135E+02  0.62500001228E+02  0.99999945766E+01 0.  0.
    3000022    2    3    3    0    0  0.42903736156E+01 -0.21007408298E+02 -0.17968931357E+02  0.27976123715E+02  0.24998970154E+00 0.  0.
    1000022    2    1    0    0    0 -0.19415521496E+02  0.46792475788E+02  0.35210112135E+02  0.62499998772E+02  0.99999792274E+01 0.  0.
    3000022    2    5    5    0    0 -0.43832962619E+01  0.23439225049E+02  0.16353922456E+02  0.28915805990E+02  0.24999870030E+00 0.  0.
        -13    1    4    4    0    0  0.11108022191E+01 -0.54021249931E+01 -0.45843300034E+01  0.71724432790E+01  0.10500000000E+00 0. -1.
         13    1    4    4    0    0  0.31795713964E+01 -0.15605283305E+02 -0.13384601353E+02  0.20803680436E+02  0.10500000000E+00 0.  1.
    3000001    1    5    5    0    0 -0.15032225234E+02  0.23353250740E+02  0.18856189679E+02  0.33584192782E+02  0.10000000000E+01 0.  1.
        -13    1    6    6    0    0 -0.15047476716E+01  0.77587880652E+01  0.54268595446E+01  0.95877467276E+01  0.10500000000E+00 0.  1.
         13    1    6    6    0    0 -0.28785485903E+01  0.15680436983E+02  0.10927062911E+02  0.19328059262E+02  0.10500000000E+00 0. -1.
</event>
<event>
11    0  0.3515428E-009  0.9118800E+02  0.7816531E-02  0.1126479E+00
         25   -1    0    0    0    0  0.00000000000E+00  0.00000000000E+00  0.99999998245E-14  0.12500000000E+03  0.12500000000E+03 0.  0.
    3000001    1    3    3    0    0  0.84858927496E+01  0.12832509366E+02  0.23037608396E+02  0.27720300738E+02  0.10000000000E+01 0.  1.
    1000022    2    1    0    0    0  0.28850047982E+02  0.28160243892E+02  0.46700379521E+02  0.62500000372E+02  0.99999997255E+01 0.  0.
    3000022    2    3    3    0    0  0.20364155233E+02  0.15327734527E+02  0.23662771125E+02  0.34779699635E+02  0.25001063934E+00 0.  0.
    1000022    2    1    0    0    0 -0.28850047982E+02 -0.28160243892E+02 -0.46700379521E+02  0.62499999628E+02  0.99999950705E+01 0.  0.
    3000022    2    5    5    0    0 -0.12845507437E+02 -0.60740193241E+01 -0.17164383674E+02  0.22284061439E+02  0.25011045312E+00 0.  0.
        -13    1    4    4    0    0  0.90534024257E+01  0.67625502693E+01  0.10561860388E+02  0.15468034830E+02  0.10500000000E+00 0. -1.
         13    1    4    4    0    0  0.11310752807E+02  0.85651842573E+01  0.13100910736E+02  0.19311664805E+02  0.10500000000E+00 0.  1.
    3000001    1    5    5    0    0 -0.16004540546E+02 -0.22086224568E+02 -0.29535995847E+02  0.40215938189E+02  0.10000000000E+01 0. -1.
        -13    1    6    6    0    0 -0.60558334500E+01 -0.27893357969E+01 -0.80418316986E+01  0.10446798315E+02  0.10500000000E+00 0.  1.
         13    1    6    6    0    0 -0.67896739867E+01 -0.32846835272E+01 -0.91225519754E+01  0.11837263124E+02  0.10500000000E+00 0. -1.
</event>
<event>
11    0  0.3515428E-009  0.9118800E+02  0.7816531E-02  0.1126479E+00
         25   -1    0    0    0    0  0.00000000000E+00  0.00000000000E+00  0.99999998245E-14  0.12500000000E+03  0.12500000000E+03 0.  0.
    3000001    1    3    3    0    0 -0.12548217743E+02 -0.45439158245E+01 -0.25674146712E+02  0.28952836630E+02  0.10000000000E+01 0.  1.
    1000022    2    1    0    0    0 -0.35433395597E+02 -0.11761328041E+02 -0.49116144346E+02  0.62499999874E+02  0.99999994012E+01 0.  0.
    3000022    2    3    3    0    0 -0.22885177854E+02 -0.72174122163E+01 -0.23441997634E+02  0.33547163244E+02  0.25000824719E+00 0.  0.
    1000022    2    1    0    0    0  0.35433395597E+02  0.11761328041E+02  0.49116144346E+02  0.62500000126E+02  0.10000000973E+02 0.  0.
    3000022    2    5    5    0    0  0.12304019100E+02  0.27143561804E+01  0.97081309553E+01  0.15908077259E+02  0.24999990508E+00 0.  0.
        -13    1    4    4    0    0 -0.60696600350E+01 -0.19353469104E+01 -0.61856605482E+01  0.88803019105E+01  0.10500000000E+00 0.  1.
         13    1    4    4    0    0 -0.16815517819E+02 -0.52820653059E+01 -0.17256337086E+02  0.24666861334E+02  0.10500000000E+00 0. -1.
    3000001    1    5    5    0    0  0.23129376497E+02  0.90469718604E+01  0.39408013391E+02  0.46591922867E+02  0.10000000000E+01 0. -1.
        -13    1    6    6    0    0  0.67096523137E+01  0.15220904975E+01  0.53675592113E+01  0.87268499781E+01  0.10500000000E+00 0.  1.
         13    1    6    6    0    0  0.55943667862E+01  0.11922656829E+01  0.43405717440E+01  0.71812272810E+01  0.10500000000E+00 0. -1.
</event>
<event>
11    0  0.3515428E-009  0.9118800E+02  0.7816531E-02  0.1126479E+00
         25   -1    0    0    0    0  0.00000000000E+00  0.00000000000E+00  0.99999998245E-14  0.12500000000E+03  0.12500000000E+03 0.  0.
    3000001    1    3    3    0    0  0.48487489886E+01 -0.37266939871E+01 -0.22012878546E+02  0.22868437566E+02  0.10000000000E+01 0. -1.
    1000022    2    1    0    0    0  0.22429735818E+02 -0.14195159421E+01 -0.57455564958E+02  0.62499999094E+02  0.99999933865E+01 0.  0.
    3000022    2    3    3    0    0  0.17580986830E+02  0.23071780450E+01 -0.35442686412E+02  0.39631561528E+02  0.24996124241E+00 0.  0.
    1000022    2    1    0    0    0 -0.22429735818E+02  0.14195159421E+01  0.57455564958E+02  0.62500000906E+02  0.10000004716E+02 0.  0.
    3000022    2    5    5    0    0 -0.38231987157E+01  0.24483798165E+01  0.46929866789E+01  0.65343735050E+01  0.25000197751E+00 0.  0.
        -13    1    4    4    0    0  0.82049946336E+01  0.10885129404E+01 -0.16396210568E+02  0.18367186593E+02  0.10500000000E+00 0. -1.
         13    1    4    4    0    0  0.93759921960E+01  0.12186651046E+01 -0.19046475844E+02  0.21264374935E+02  0.10500000000E+00 0.  1.
    3000001    1    5    5    0    0 -0.18606537102E+02 -0.10288638744E+01  0.52762578279E+02  0.55965627401E+02  0.10000000000E+01 0. -1.
        -13    1    6    6    0    0 -0.29203384615E+01  0.18499107241E+01  0.35595836159E+01  0.49630844175E+01  0.10500000000E+00 0.  1.
         13    1    6    6    0    0 -0.90286025424E+00  0.59846909235E+00  0.11334030630E+01  0.15712890875E+01  0.10500000000E+00 0. -1.
</event>
<event>
11    0  0.3515428E-009  0.9118800E+02  0.7816531E-02  0.1126479E+00
         25   -1    0    0    0    0  0.00000000000E+00  0.00000000000E+00  0.99999998245E-14  0.12500000000E+03  0.12500000000E+03 0.  0.
    3000001    1    3    3    0    0  0.15150609409E+02  0.56868719804E+01  0.34180049626E+02  0.37830639312E+02  0.10000000000E+01 0. -1.
    1000022    2    1    0    0    0  0.17862123324E+02  0.12745840327E+02  0.57660541475E+02  0.62499999596E+02  0.10000000554E+02 0.  0.
    3000022    2    3    3    0    0  0.27115139149E+01  0.70589683463E+01  0.23480491849E+02  0.24669360284E+02  0.24999499426E+00 0.  0.
    1000022    2    1    0    0    0 -0.17862123324E+02 -0.12745840327E+02 -0.57660541475E+02  0.62500000404E+02  0.10000005602E+02 0.  0.
    3000022    2    5    5    0    0 -0.25365111594E+01  0.94008659975E+00 -0.27633267998E+01  0.38750640446E+01  0.24998933992E+00 0.  0.
        -13    1    4    4    0    0  0.18013403437E+01  0.46616611233E+01  0.15338928005E+02  0.16132874784E+02  0.10500000000E+00 0.  1.
         13    1    4    4    0    0  0.91017357125E+00  0.23973072230E+01  0.81415638447E+01  0.85364854998E+01  0.10500000000E+00 0. -1.
    3000001    1    5    5    0    0 -0.15325612165E+02 -0.13685926926E+02 -0.54897214675E+02  0.58624936359E+02  0.10000000000E+01 0. -1.
        -13    1    6    6    0    0 -0.18149186313E+01  0.63231917690E+00 -0.19874524600E+01  0.27667217895E+01  0.10500000000E+00 0. -1.
         13    1    6    6    0    0 -0.72159252804E+00  0.30776742284E+00 -0.77587433987E+00  0.11083422551E+01  0.10500000000E+00 0.  1.
</event>
<event>
11    0  0.3515428E-009  0.9118800E+02  0.7816531E-02  0.1126479E+00
         25   -1    0    0    0    0  0.00000000000E+00  0.00000000000E+00  0.99999998245E-14  0.12500000000E+03  0.12500000000E+03 0.  0.
    3000001    1    3    3    0    0  0.20962984499E+02 -0.24835418338E+02 -0.24769112392E+02  0.40874853539E+02  0.10000000000E+01 0.  1.
    1000022    2    1    0    0    0  0.25735997308E+02 -0.41449862346E+02 -0.37759996842E+02  0.62500000395E+02  0.10000002096E+02 0.  0.
    3000022    2    3    3    0    0  0.47730128089E+01 -0.16614444008E+02 -0.12990884449E+02  0.21625146856E+02  0.24999357950E+00 0.  0.
    1000022    2    1    0    0    0 -0.25735997308E+02  0.41449862346E+02  0.37759996842E+02  0.62499999605E+02  0.99999971605E+01 0.  0.
    3000022    2    5    5    0    0 -0.50501310563E+01  0.35847356688E+01  0.21941353600E+01  0.65750196427E+01  0.24999964491E+00 0.  0.
        -13    1    4    4    0    0  0.32134293181E+01 -0.11071456028E+02 -0.87171675430E+01  0.14453487521E+02  0.10500000000E+00 0.  1.
         13    1    4    4    0    0  0.15595834908E+01 -0.55429879800E+01 -0.42737169064E+01  0.71716593343E+01  0.10500000000E+00 0. -1.
    3000001    1    5    5    0    0 -0.20685866252E+02  0.37865126677E+02  0.35565861481E+02  0.55924979962E+02  0.10000000000E+01 0. -1.
        -13    1    6    6    0    0 -0.22157495409E+01  0.15121481388E+01  0.90455743426E+00  0.28329114306E+01  0.10500000000E+00 0. -1.
         13    1    6    6    0    0 -0.28343815154E+01  0.20725875300E+01  0.12895779258E+01  0.37421082121E+01  0.10500000000E+00 0.  1.
</event>
<event>
11    0  0.3515428E-009  0.9118800E+02  0.7816531E-02  0.1126479E+00
         25   -1    0    0    0    0  0.00000000000E+00  0.00000000000E+00  0.99999998245E-14  0.12500000000E+03  0.12500000000E+03 0.  0.
    3000001    1    3    3    0    0 -0.18216448300E+02  0.11451601466E+01 -0.30133219051E+02  0.35244308346E+02  0.10000000000E+01 0. -1.
    1000022    2    1    0    0    0 -0.24317237035E+02  0.82627212652E+00 -0.56694260120E+02  0.62499999431E+02  0.10000002789E+02 0.  0.
    3000022    2    3    3    0    0 -0.61007887352E+01 -0.31888802007E+00 -0.26561041069E+02  0.27255691086E+02  0.24996225575E+00 0.  0.
    1000022    2    1    0    0    0  0.24317237035E+02 -0.82627212652E+00  0.56694260120E+02  0.62500000569E+02  0.10000009897E+02 0.  0.
    3000022    2    5    5    0    0  0.14187956676E+02  0.23930820438E+01  0.22775187158E+02  0.26940612604E+02  0.25000217300E+00 0.  0.
        -13    1    4    4    0    0 -0.35634511382E+01 -0.23708325483E+00 -0.15698841643E+02  0.16100280942E+02  0.10500000000E+00 0.  1.
         13    1    4    4    0    0 -0.25373375970E+01 -0.81804765241E-01 -0.10862199426E+02  0.11155410143E+02  0.10500000000E+00 0. -1.
    3000001    1    5    5    0    0  0.10129280359E+02 -0.32193541703E+01  0.33919072961E+02  0.35559387964E+02  0.10000000000E+01 0. -1.
        -13    1    6    6    0    0  0.55439686479E+01  0.98281882710E+00  0.88367534352E+01  0.10478585663E+02  0.10500000000E+00 0. -1.
         13    1    6    6    0    0  0.86439880277E+01  0.14102632167E+01  0.13938433723E+02  0.16462026941E+02  0.10500000000E+00 0.  1.
</event>
<event>
11    0  0.3515428E-009  0.9118800E+02  0.7816531E-02  0.1126479E+00
         25   -1    0    0    0    0  0.00000000000E+00  0.00000000000E+00  0.99999998245E-14  0.12500000000E+03  0.12500000000E+03 0.  0.
    3000001    1    3    3    0    0 -0.32885723371E+02 -0.28632875106E+02  0.24610049971E+01  0.43684881642E+02  0.10000000000E+01 0.  1.
    1000022    2    1    0    0    0 -0.46344066580E+02 -0.39520695277E+02  0.98281298244E+01  0.62499999498E+02  0.99999969508E+01 0.  0.
    3000022    2    3    3    0    0 -0.13458343209E+02 -0.10887820171E+02  0.73671248273E+01  0.18815117856E+02  0.25000339778E+00 0.  0.
    1000022    2    1    0    0    0  0.46344066580E+02  0.39520695277E+02 -0.98281298244E+01  0.62500000502E+02  0.10000003231E+02 0.  0.
    3000022    2    5    5    0    0  0.13512295348E+02  0.99240788470E+01 -0.70802840304E+01  0.18200614922E+02  0.24999008319E+00 0.  0.
        -13    1    4    4    0    0 -0.77713999784E+01 -0.62269221469E+01  0.41885436811E+01  0.10803894678E+02  0.10500000000E+00 0.  1.
         13    1    4    4    0    0 -0.56869432305E+01 -0.46608980240E+01  0.31785811462E+01  0.80112231775E+01  0.10500000000E+00 0. -1.
    3000001    1    5    5    0    0  0.32831771232E+02  0.29596616430E+02 -0.27478457940E+01  0.44299385581E+02  0.10000000000E+01 0. -1.
        -13    1    6    6    0    0  0.52330186589E+01  0.38794801715E+01 -0.26920216860E+01  0.70493160267E+01  0.10500000000E+00 0. -1.
         13    1    6    6    0    0  0.82792766890E+01  0.60445986755E+01 -0.43882623444E+01  0.11151298895E+02  0.10500000000E+00 0.  1.
</event>
<event>
11    0  0.3515428E-009  0.9118800E+02  0.7816531E-02  0.1126479E+00
         25   -1    0    0    0    0  0.00000000000E+00  0.00000000000E+00  0.99999998245E-14  0.12500000000E+03  0.12500000000E+03 0.  0.
    3000001    1    3    3    0    0  0.22306957796E+02  0.38354337676E+02 -0.14454954513E+02  0.46675489228E+02  0.10000000000E+01 0.  1.
    1000022    2    1    0    0    0  0.34180210855E+02  0.47515299148E+02 -0.19500264453E+02  0.62499995585E+02  0.99999333558E+01 0.  0.
    3000022    2    3    3    0    0  0.11873253059E+02  0.91609614722E+01 -0.50453099400E+01  0.15824506357E+02  0.24999151261E+00 0.  0.
    1000022    2    1    0    0    0 -0.34180210855E+02 -0.47515299148E+02  0.19500264453E+02  0.62500004415E+02  0.99999885491E+01 0.  0.
    3000022    2    5    5    0    0 -0.49001073062E+00 -0.54440892214E+01  0.17057472585E+01  0.57315172832E+01  0.24999738047E+00 0.  0.
        -13    1    4    4    0    0  0.56459638165E+01  0.42770559398E+01 -0.23565792712E+01  0.74655613179E+01  0.10500000000E+00 0.  1.
         13    1    4    4    0    0  0.62272892422E+01  0.48839055324E+01 -0.26887306688E+01  0.83589450390E+01  0.10500000000E+00 0. -1.
    3000001    1    5    5    0    0 -0.33690200124E+02 -0.42071209926E+02  0.17794517195E+02  0.56768487132E+02  0.10000000000E+01 0.  1.
        -13    1    6    6    0    0 -0.16803161300E+00 -0.25201159660E+01  0.75367490661E+00  0.26378532881E+01  0.10500000000E+00 0.  1.
         13    1    6    6    0    0 -0.32197911761E+00 -0.29239732555E+01  0.95207235189E+00  0.30936639950E+01  0.10500000000E+00 0. -1.
</event>
<event>
11    0  0.3515428E-009  0.9118800E+02  0.7816531E-02  0.1126479E+00
         25   -1    0    0    0    0  0.00000000000E+00  0.00000000000E+00  0.99999998245E-14  0.12500000000E+03  0.12500000000E+03 0.  0.
    3000001    1    3    3    0    0 -0.17045133772E+02  0.16211114692E+02  0.13664770104E+02  0.27222468052E+02  0.10000000000E+01 0. -1.
    1000022    2    1    0    0    0 -0.29978736279E+02  0.38470423642E+02  0.37782956701E+02  0.62500001028E+02  0.10000009366E+02 0.  0.
    3000022    2    3    3    0    0 -0.12933602507E+02  0.22259308951E+02  0.24118186597E+02  0.35277532976E+02  0.24999871978E+00 0.  0.
    1000022    2    1    0    0    0  0.29978736279E+02 -0.38470423642E+02 -0.37782956701E+02  0.62499998972E+02  0.99999965156E+01 0.  0.
    3000022    2    5    5    0    0  0.52468603179E+01 -0.69223408973E+01 -0.23825345682E+01  0.90104009118E+01  0.25001385955E+00 0.  0.
        -13    1    4    4    0    0 -0.33576470271E+01  0.57954669049E+01  0.63172745497E+01  0.92076171152E+01  0.10500000000E+00 0. -1.
         13    1    4    4    0    0 -0.95759554796E+01  0.16463842046E+02  0.17800912048E+02  0.26069915861E+02  0.10500000000E+00 0.  1.
    3000001    1    5    5    0    0  0.24731875961E+02 -0.31548082745E+02 -0.35400422133E+02  0.53489598060E+02  0.10000000000E+01 0. -1.
        -13    1    6    6    0    0  0.20436351778E+01 -0.26948139012E+01 -0.86367227726E+00  0.34921943681E+01  0.10500000000E+00 0. -1.
         13    1    6    6    0    0  0.32032251401E+01 -0.42275269961E+01 -0.15188622910E+01  0.55182065438E+01  0.10500000000E+00 0.  1.
</event>
<event>
11    0  0.3515428E-009  0.9118800E+02  0.7816531E-02  0.1126479E+00
         25   -1    0    0    0    0  0.00000000000E+00  0.00000000000E+00  0.99999998245E-14  0.12500000000E+03  0.12500000000E+03 0.  0.
    3000001    1    3    3    0    0 -0.29218871894E+01  0.22356285701E+02 -0.44581467614E+02  0.49968471956E+02  0.10000000000E+01 0.  1.
    1000022    2    1    0    0    0 -0.56918057950E+01  0.23538691216E+02 -0.56743141095E+02  0.62500005541E+02  0.99999996925E+01 0.  0.
    3000022    2    3    3    0    0 -0.27699186056E+01  0.11824055150E+01 -0.12161673482E+02  0.12531533584E+02  0.25000042060E+00 0.  0.
    1000022    2    1    0    0    0  0.56918057950E+01 -0.23538691216E+02  0.56743141095E+02  0.62499994459E+02  0.99999304356E+01 0.  0.
    3000022    2    5    5    0    0  0.15731617778E+01 -0.17244814741E+02  0.47394671814E+02  0.50459646146E+02  0.24999869511E+00 0.  0.
        -13    1    4    4    0    0 -0.18036044092E+01  0.82967349729E+00 -0.79866183222E+01  0.82303368219E+01  0.10500000000E+00 0.  1.
         13    1    4    4    0    0 -0.96631419639E+00  0.35273201767E+00 -0.41750551596E+01  0.43011967623E+01  0.10500000000E+00 0. -1.
    3000001    1    5    5    0    0  0.41186440171E+01 -0.62938764743E+01  0.93484692814E+01  0.12040348314E+02  0.10000000000E+01 0. -1.
        -13    1    6    6    0    0  0.99084955540E+00 -0.10782905946E+02  0.29809701014E+02  0.31715645083E+02  0.10500000000E+00 0.  1.
         13    1    6    6    0    0  0.58231222242E+00 -0.64619087952E+01  0.17584970800E+02  0.18744001063E+02  0.10500000000E+00 0. -1.
</event>
<event>
11    0  0.3515428E-009  0.9118800E+02  0.7816531E-02  0.1126479E+00
         25   -1    0    0    0    0  0.00000000000E+00  0.00000000000E+00  0.99999998245E-14  0.12500000000E+03  0.12500000000E+03 0.  0.
    3000001    1    3    3    0    0 -0.46385059747E+02  0.60717165946E+01  0.26722984109E+02  0.53884667484E+02  0.10000000000E+01 0.  1.
    1000022    2    1    0    0    0 -0.51590632259E+02  0.10065720929E+02  0.32300742770E+02  0.62499999688E+02  0.99999951409E+01 0.  0.
    3000022    2    3    3    0    0 -0.52055725116E+01  0.39940043342E+01  0.55777586607E+01  0.86153322039E+01  0.25000302414E+00 0.  0.
    1000022    2    1    0    0    0  0.51590632259E+02 -0.10065720929E+02 -0.32300742770E+02  0.62500000312E+02  0.99999990455E+01 0.  0.
    3000022    2    5    5    0    0  0.14689103989E+02 -0.57029849902E+01 -0.55697869722E+01  0.16714628725E+02  0.24994542876E+00 0.  0.
        -13    1    4    4    0    0 -0.37305565443E+01  0.29088070323E+01  0.40014249900E+01  0.61968247863E+01  0.10500000000E+00 0.  1.
         13    1    4    4    0    0 -0.14750159673E+01  0.10851973019E+01  0.15763336707E+01  0.24185074176E+01  0.10500000000E+00 0. -1.
    3000001    1    5    5    0    0  0.36901528270E+02 -0.43627359386E+01 -0.26730955797E+02  0.45785371587E+02  0.10000000000E+01 0.  1.
        -13    1    6    6    0    0  0.35015319691E+01 -0.13780431779E+01 -0.13364368272E+01  0.39945985435E+01  0.10500000000E+00 0. -1.
         13    1    6    6    0    0  0.11187572019E+02 -0.43249418123E+01 -0.42333501450E+01  0.12720030182E+02  0.10500000000E+00 0.  1.
</event>
<event>
11    0  0.3515428E-009  0.9118800E+02  0.7816531E-02  0.1126479E+00
         25   -1    0    0    0    0  0.00000000000E+00  0.00000000000E+00  0.99999998245E-14  0.12500000000E+03  0.12500000000E+03 0.  0.
    3000001    1    3    3    0    0 -0.21229907163E+01 -0.29856593941E+01 -0.68383538131E+00  0.38586114637E+01  0.10000000000E+01 0. -1.
    1000022    2    1    0    0    0 -0.20566577193E+01 -0.57048599251E+02 -0.23398237202E+02  0.62499999749E+02  0.99999973487E+01 0.  0.
    3000022    2    3    3    0    0  0.66332997015E-01 -0.54062939857E+02 -0.22714401820E+02  0.58641388285E+02  0.25000781104E+00 0.  0.
    1000022    2    1    0    0    0  0.20566577193E+01  0.57048599251E+02  0.23398237202E+02  0.62500000251E+02  0.10000000492E+02 0.  0.
    3000022    2    5    5    0    0  0.31534079800E+01  0.32146852768E+02  0.17992474630E+02  0.36975069145E+02  0.24994032790E+00 0.  0.
        -13    1    4    4    0    0  0.22995581142E-01 -0.12510348109E+02 -0.52500622711E+01  0.13567738111E+02  0.10500000000E+00 0.  1.
         13    1    4    4    0    0  0.43337415874E-01 -0.41552591747E+02 -0.17464339549E+02  0.45073650173E+02  0.10500000000E+00 0. -1.
    3000001    1    5    5    0    0 -0.10967502608E+01  0.24901746483E+02  0.54057625718E+01  0.25524931107E+02  0.10000000000E+01 0.  1.
        -13    1    6    6    0    0  0.22030794654E+01  0.22864939677E+02  0.12777431580E+02  0.26285600779E+02  0.10500000000E+00 0.  1.
         13    1    6    6    0    0  0.95032851467E+00  0.92819130912E+01  0.52150430503E+01  0.10689468365E+02  0.10500000000E+00 0. -1.
</event>
<event>
11    0  0.3515428E-009  0.9118800E+02  0.7816531E-02  0.1126479E+00
         25   -1    0    0    0    0  0.00000000000E+00  0.00000000000E+00  0.99999998245E-14  0.12500000000E+03  0.12500000000E+03 0.  0.
    3000001    1    3    3    0    0 -0.12451006489E-01  0.11124298640E+01 -0.19581133146E+01  0.24641150506E+01  0.10000000000E+01 0.  1.
    1000022    2    1    0    0    0  0.23082600387E+02 -0.66862290439E+01 -0.56821987618E+02  0.62500001674E+02  0.99999916459E+01 0.  0.
    3000022    2    3    3    0    0  0.23095051394E+02 -0.77986589079E+01 -0.54863874303E+02  0.60035886623E+02  0.24999886026E+00 0.  0.
    1000022    2    1    0    0    0 -0.23082600387E+02  0.66862290439E+01  0.56821987618E+02  0.62499998326E+02  0.99999707251E+01 0.  0.
    3000022    2    5    5    0    0 -0.61648336010E+01 -0.14164178069E+01  0.80865372627E+01  0.10269663842E+02  0.24999559786E+00 0.  0.
        -13    1    4    4    0    0  0.14218219236E+02 -0.47889438666E+01 -0.33618457899E+02  0.36814446595E+02  0.10500000000E+00 0. -1.
         13    1    4    4    0    0  0.88768321579E+01 -0.30097150413E+01 -0.21245416404E+02  0.23221440028E+02  0.10500000000E+00 0.  1.
    3000001    1    5    5    0    0 -0.16917766786E+02  0.81026468508E+01  0.48735450355E+02  0.52230334484E+02  0.10000000000E+01 0.  1.
        -13    1    6    6    0    0 -0.17951037113E+01 -0.44658669101E+00  0.24130200032E+01  0.30422898518E+01  0.10500000000E+00 0.  1.
         13    1    6    6    0    0 -0.43697298897E+01 -0.96983111585E+00  0.56735172596E+01  0.72273739904E+01  0.10500000000E+00 0. -1.
</event>
<event>
11    0  0.3515428E-009  0.9118800E+02  0.7816531E-02  0.1126479E+00
         25   -1    0    0    0    0  0.00000000000E+00  0.00000000000E+00  0.99999998245E-14  0.12500000000E+03  0.12500000000E+03 0.  0.
    3000001    1    3    3    0    0 -0.13730863071E+02 -0.87400237742E+00  0.68006191139E+01  0.15380146331E+02  0.10000000000E+01 0. -1.
    1000022    2    1    0    0    0 -0.59534945771E+02 -0.10414649358E+02  0.12384502944E+02  0.62499995613E+02  0.99999424615E+01 0.  0.
    3000022    2    3    3    0    0 -0.45804082700E+02 -0.95406469802E+01  0.55838838298E+01  0.47119849282E+02  0.25000184649E+00 0.  0.
    1000022    2    1    0    0    0  0.59534945771E+02  0.10414649358E+02 -0.12384502944E+02  0.62500004387E+02  0.99999973039E+01 0.  0.
    3000022    2    5    5    0    0  0.90610468323E+01 -0.10813139902E+01  0.50780354138E+00  0.91428753992E+01  0.24999297198E+00 0.  0.
        -13    1    4    4    0    0 -0.27559238403E+02 -0.56943159594E+01  0.33143937856E+01  0.28336073947E+02  0.10500000000E+00 0. -1.
         13    1    4    4    0    0 -0.18244844297E+02 -0.38463310208E+01  0.22694900443E+01  0.18783775334E+02  0.10500000000E+00 0.  1.
    3000001    1    5    5    0    0  0.50473898939E+02  0.11495963348E+02 -0.12892306485E+02  0.53357128988E+02  0.10000000000E+01 0.  1.
        -13    1    6    6    0    0  0.42931402348E+01 -0.49033690879E+00  0.17650158999E+00  0.43259289373E+01  0.10500000000E+00 0. -1.
         13    1    6    6    0    0  0.47679065975E+01 -0.59097708145E+00  0.33130195139E+00  0.48169464619E+01  0.10500000000E+00 0.  1.
</event>
<event>
11    0  0.3515428E-009  0.9118800E+02  0.7816531E-02  0.1126479E+00
         25   -1    0    0    0    0  0.00000000000E+00  0.00000000000E+00  0.99999998245E-14  0.12500000000E+03  0.12500000000E+03 0.  0.
    3000001    1    3    3    0    0 -0.28548681766E+02 -0.32944250232E+02 -0.40447682189E+02  0.59475758493E+02  0.10000000000E+01 0. -1.
    1000022    2    1    0    0    0 -0.31372918333E+02 -0.33202632707E+02 -0.41467746102E+02  0.62500010433E+02  0.10000125696E+02 0.  0.
    3000022    2    3    3    0    0 -0.28242365667E+01 -0.25838247530E+00 -0.10200639134E+01  0.30242519397E+01  0.24999143787E+00 0.  0.
    1000022    2    1    0    0    0  0.31372918333E+02  0.33202632707E+02  0.41467746102E+02  0.62499989567E+02  0.99999952839E+01 0.  0.
    3000022    2    5    5    0    0  0.25897883306E+02  0.30226295581E+02  0.38991631735E+02  0.55720186208E+02  0.25000276117E+00 0.  0.
        -13    1    4    4    0    0 -0.16575629250E+01 -0.10827416138E+00 -0.54586757238E+00  0.17516376768E+01  0.10500000000E+00 0. -1.
         13    1    4    4    0    0 -0.11666736418E+01 -0.15010831391E+00 -0.47419634103E+00  0.12726142629E+01  0.10500000000E+00 0.  1.
    3000001    1    5    5    0    0  0.54750350265E+01  0.29763371260E+01  0.24761143672E+01  0.67798033592E+01  0.10000000000E+01 0. -1.
        -13    1    6    6    0    0  0.96556448666E+01  0.11316244201E+02  0.14500060575E+02  0.20773821081E+02  0.10500000000E+00 0. -1.
         13    1    6    6    0    0  0.16242238440E+02  0.18910051380E+02  0.24491571160E+02  0.34946365127E+02  0.10500000000E+00 0.  1.
</event>
<event>
11    0  0.3515428E-009  0.9118800E+02  0.7816531E-02  0.1126479E+00
         25   -1    0    0    0    0  0.00000000000E+00  0.00000000000E+00  0.99999998245E-14  0.12500000000E+03  0.12500000000E+03 0.  0.
    3000001    1    3    3    0    0  0.33486500962E+02 -0.18320717888E+02  0.23293930494E+02  0.44728085679E+02  0.10000000000E+01 0.  1.
    1000022    2    1    0    0    0  0.49965686027E+02 -0.23333647494E+02  0.27662624342E+02  0.62500001450E+02  0.10000025514E+02 0.  0.
    3000022    2    3    3    0    0  0.16479185065E+02 -0.50129296061E+01  0.43686938475E+01  0.17771915771E+02  0.25000124170E+00 0.  0.
    1000022    2    1    0    0    0 -0.49965686027E+02  0.23333647494E+02 -0.27662624342E+02  0.62499998550E+02  0.10000007385E+02 0.  0.
    3000022    2    5    5    0    0 -0.43719181202E+02  0.17852926900E+02 -0.26192420788E+02  0.54001844677E+02  0.25003570845E+00 0.  0.
        -13    1    4    4    0    0  0.41351434839E+01 -0.12550331728E+01  0.10686795106E+01  0.44528216665E+01  0.10500000000E+00 0.  1.
         13    1    4    4    0    0  0.12344041581E+02 -0.37578964333E+01  0.33000143370E+01  0.13319094105E+02  0.10500000000E+00 0. -1.
    3000001    1    5    5    0    0 -0.62465048247E+01  0.54807205944E+01 -0.14702035535E+01  0.84981538729E+01  0.10000000000E+01 0.  1.
        -13    1    6    6    0    0 -0.22728995170E+02  0.93381558739E+01 -0.13677812354E+02  0.28122979080E+02  0.10500000000E+00 0.  1.
         13    1    6    6    0    0 -0.20990186033E+02  0.85147710258E+01 -0.12514608434E+02  0.25878865596E+02  0.10500000000E+00 0. -1.
</event>
<event>
11    0  0.3515428E-009  0.9118800E+02  0.7816531E-02  0.1126479E+00
         25   -1    0    0    0    0  0.00000000000E+00  0.00000000000E+00  0.99999998245E-14  0.12500000000E+03  0.12500000000E+03 0.  0.
    3000001    1    3    3    0    0 -0.93430118815E+00 -0.30808755198E+02 -0.13999406873E+02  0.33867915618E+02  0.10000000000E+01 0.  1.
    1000022    2    1    0    0    0 -0.32231564902E+01 -0.51845054401E+02 -0.33285905895E+02  0.62500000313E+02  0.10000005215E+02 0.  0.
    3000022    2    3    3    0    0 -0.22888553021E+01 -0.21036299203E+02 -0.19286499022E+02  0.28632084695E+02  0.24997335829E+00 0.  0.
    1000022    2    1    0    0    0  0.32231564902E+01  0.51845054401E+02  0.33285905895E+02  0.62499999687E+02  0.10000001302E+02 0.  0.
    3000022    2    5    5    0    0  0.40431782038E+01  0.25331368045E+02  0.21434134629E+02  0.33429181296E+02  0.25007557596E+00 0.  0.
        -13    1    4    4    0    0 -0.15813574182E+01 -0.14450974257E+02 -0.13314657779E+02  0.19713510216E+02  0.10500000000E+00 0.  1.
         13    1    4    4    0    0 -0.70749788383E+00 -0.65853249464E+01 -0.59718412434E+01  0.89185744792E+01  0.10500000000E+00 0. -1.
    3000001    1    5    5    0    0 -0.82002171360E+00  0.26513686356E+02  0.11851771265E+02  0.29070818391E+02  0.10000000000E+01 0. -1.
        -13    1    6    6    0    0  0.18050272355E+01  0.11642826173E+02  0.98989233824E+01  0.15388737237E+02  0.10500000000E+00 0. -1.
         13    1    6    6    0    0  0.22381509683E+01  0.13688541872E+02  0.11535211247E+02  0.18040444059E+02  0.10500000000E+00 0.  1.
</event>
<event>
11    0  0.3515428E-009  0.9118800E+02  0.7816531E-02  0.1126479E+00
         25   -1    0    0    0    0  0.00000000000E+00  0.00000000000E+00  0.99999998245E-14  0.12500000000E+03  0.12500000000E+03 0.  0.
    3000001    1    3    3    0    0  0.22520523515E+02 -0.20928687746E+02 -0.17218409554E+02  0.35251348594E+02  0.10000000000E+01 0. -1.
    1000022    2    1    0    0    0  0.41020669010E+02 -0.29805299553E+02 -0.35145398931E+02  0.62500001278E+02  0.99999963141E+01 0.  0.
    3000022    2    3    3    0    0  0.18500145495E+02 -0.88766118067E+01 -0.17926989377E+02  0.27248652684E+02  0.25000889184E+00 0.  0.
    1000022    2    1    0    0    0 -0.41020669010E+02  0.29805299553E+02  0.35145398931E+02  0.62499998722E+02  0.99999803372E+01 0.  0.
    3000022    2    5    5    0    0 -0.28152294667E+02  0.21340971537E+02  0.18800027959E+02  0.40018649581E+02  0.25000367358E+00 0.  0.
        -13    1    4    4    0    0  0.51097039614E+01 -0.24944110004E+01 -0.49729904052E+01  0.75546554774E+01  0.10500000000E+00 0.  1.
         13    1    4    4    0    0  0.13390441534E+02 -0.63822008063E+01 -0.12953998972E+02  0.19693997206E+02  0.10500000000E+00 0. -1.
    3000001    1    5    5    0    0 -0.12868374343E+02  0.84643280156E+01  0.16345370972E+02  0.22481349141E+02  0.10000000000E+01 0. -1.
        -13    1    6    6    0    0 -0.18424671854E+02  0.13922338704E+02  0.12240585747E+02  0.26137004656E+02  0.10500000000E+00 0.  1.
         13    1    6    6    0    0 -0.97276228128E+01  0.74186328327E+01  0.65594422117E+01  0.13881644925E+02  0.10500000000E+00 0. -1.
</event>
<event>
11    0  0.3515428E-009  0.9118800E+02  0.7816531E-02  0.1126479E+00
         25   -1    0    0    0    0  0.00000000000E+00  0.00000000000E+00  0.99999998245E-14  0.12500000000E+03  0.12500000000E+03 0.  0.
    3000001    1    3    3    0    0 -0.21615664216E+02 -0.22632175684E+02 -0.32023141195E+02  0.44787653295E+02  0.10000000000E+01 0.  1.
    1000022    2    1    0    0    0 -0.25285364697E+02 -0.29463654393E+02 -0.47945731680E+02  0.62499998952E+02  0.10000004232E+02 0.  0.
    3000022    2    3    3    0    0 -0.36697004813E+01 -0.68314787090E+01 -0.15922590484E+02  0.17712345657E+02  0.24999591118E+00 0.  0.
    1000022    2    1    0    0    0  0.25285364697E+02  0.29463654393E+02  0.47945731680E+02  0.62500001048E+02  0.10000017331E+02 0.  0.
    3000022    2    5    5    0    0  0.90350361847E+01  0.65167123728E+01  0.83429646126E+01  0.13920020766E+02  0.25000116508E+00 0.  0.
        -13    1    4    4    0    0 -0.18101273116E+01 -0.33454494458E+01 -0.76577957107E+01  0.85511082923E+01  0.10500000000E+00 0. -1.
         13    1    4    4    0    0 -0.18595731697E+01 -0.34860292631E+01 -0.82647947736E+01  0.91612373644E+01  0.10500000000E+00 0.  1.
    3000001    1    5    5    0    0  0.16250328512E+02  0.22946942021E+02  0.39602767067E+02  0.48579980282E+02  0.10000000000E+01 0.  1.
        -13    1    6    6    0    0  0.35155220071E+01  0.24912485359E+01  0.32897578140E+01  0.54220610218E+01  0.10500000000E+00 0. -1.
         13    1    6    6    0    0  0.55195141777E+01  0.40254638370E+01  0.50532067986E+01  0.84979597439E+01  0.10500000000E+00 0.  1.
</event>
<event>
11    0  0.3515428E-009  0.9118800E+02  0.7816531E-02  0.1126479E+00
         25   -1    0    0    0    0  0.00000000000E+00  0.00000000000E+00  0.99999998245E-14  0.12500000000E+03  0.12500000000E+03 0.  0.
    3000001    1    3    3    0    0 -0.24847384548E+02 -0.12136804909E+02  0.44208498052E+01  0.28022106724E+02  0.10000000000E+01 0. -1.
    1000022    2    1    0    0    0 -0.49981930378E+02 -0.35693617647E+02  0.58328665142E+01  0.62499999866E+02  0.99999973239E+01 0.  0.
    3000022    2    3    3    0    0 -0.25134545830E+02 -0.23556812738E+02  0.14120167090E+01  0.34477893142E+02  0.25000773332E+00 0.  0.
    1000022    2    1    0    0    0  0.49981930378E+02  0.35693617647E+02 -0.58328665142E+01  0.62500000134E+02  0.99999989939E+01 0.  0.
    3000022    2    5    5    0    0  0.48928573826E+02  0.35158033512E+02 -0.68632395080E+01  0.60640409077E+02  0.24999882430E+00 0.  0.
        -13    1    4    4    0    0 -0.11582380257E+02 -0.10766839661E+02  0.66629445253E+00  0.15828181892E+02  0.10500000000E+00 0. -1.
         13    1    4    4    0    0 -0.13552165573E+02 -0.12789973077E+02  0.74572225650E+00  0.18649711250E+02  0.10500000000E+00 0.  1.
    3000001    1    5    5    0    0  0.10533565513E+01  0.53558413589E+00  0.10303729938E+01  0.18595910564E+01  0.10000000000E+01 0.  1.
        -13    1    6    6    0    0  0.19861541125E+02  0.14237285149E+02 -0.27262239982E+01  0.24589111951E+02  0.10500000000E+00 0.  1.
         13    1    6    6    0    0  0.29067032702E+02  0.20920748362E+02 -0.41370155097E+01  0.36051297126E+02  0.10500000000E+00 0. -1.
</event>
<event>
11    0  0.3515428E-009  0.9118800E+02  0.7816531E-02  0.1126479E+00
         25   -1    0    0    0    0  0.00000000000E+00  0.00000000000E+00  0.99999998245E-14  0.12500000000E+03  0.12500000000E+03 0.  0.
    3000001    1    3    3    0    0 -0.21840201810E+01 -0.26403111453E+01 -0.84253997541E+01  0.91503304919E+01  0.10000000000E+01 0.  1.
    1000022    2    1    0    0    0 -0.27244406408E+02 -0.32899453532E+02 -0.44515373733E+02  0.62500001310E+02  0.99999970944E+01 0.  0.
    3000022    2    3    3    0    0 -0.25060386227E+02 -0.30259142387E+02 -0.36089973979E+02  0.53349670818E+02  0.24999746664E+00 0.  0.
    1000022    2    1    0    0    0  0.27244406408E+02  0.32899453532E+02  0.44515373733E+02  0.62499998690E+02  0.99999807214E+01 0.  0.
    3000022    2    5    5    0    0  0.17817421907E+02  0.27232152457E+02  0.30012349327E+02  0.44270241282E+02  0.25000024725E+00 0.  0.
        -13    1    4    4    0    0 -0.13731621592E+02 -0.16604619254E+02 -0.19880484898E+02  0.29317495065E+02  0.10500000000E+00 0. -1.
         13    1    4    4    0    0 -0.11328764635E+02 -0.13654523133E+02 -0.16209489081E+02  0.24032175753E+02  0.10500000000E+00 0.  1.
    3000001    1    5    5    0    0  0.94269845008E+01  0.56673010748E+01  0.14503024406E+02  0.18229757409E+02  0.10000000000E+01 0.  1.
        -13    1    6    6    0    0  0.99852307622E+01  0.15140998531E+02  0.16735798518E+02  0.24678992016E+02  0.10500000000E+00 0.  1.
         13    1    6    6    0    0  0.78321911452E+01  0.12091153926E+02  0.13276550809E+02  0.19591249265E+02  0.10500000000E+00 0. -1.
</event>
<event>
11    0  0.3515428E-009  0.9118800E+02  0.7816531E-02  0.1126479E+00
         25   -1    0    0    0    0  0.00000000000E+00  0.00000000000E+00  0.99999998245E-14  0.12500000000E+03  0.12500000000E+03 0.  0.
    3000001    1    3    3    0    0 -0.56309474013E+01 -0.77271226625E+01  0.90248681918E+01  0.13185758953E+02  0.10000000000E+01 0.  1.
    1000022    2    1    0    0    0 -0.38613752536E+02 -0.38891331331E+02  0.28331823369E+02  0.62499999891E+02  0.10000011668E+02 0.  0.
    3000022    2    3    3    0    0 -0.32982805135E+02 -0.31164208668E+02  0.19306955177E+02  0.49314240938E+02  0.25000925388E+00 0.  0.
    1000022    2    1    0    0    0  0.38613752536E+02  0.38891331331E+02 -0.28331823369E+02  0.62500000109E+02  0.10000013031E+02 0.  0.
    3000022    2    5    5    0    0  0.85602112592E+00  0.31842272468E+01 -0.87482020670E-02  0.33067559825E+01  0.24996653691E+00 0.  0.
        -13    1    4    4    0    0 -0.19241080347E+02 -0.18175296243E+02  0.11331618280E+02  0.28791963537E+02  0.10500000000E+00 0. -1.
         13    1    4    4    0    0 -0.13741724787E+02 -0.12988912425E+02  0.79753368975E+01  0.20522277402E+02  0.10500000000E+00 0.  1.
    3000001    1    5    5    0    0  0.37757731410E+02  0.35707104084E+02 -0.28323075167E+02  0.59193244127E+02  0.10000000000E+01 0. -1.
        -13    1    6    6    0    0  0.39025527310E+00  0.13579554640E+01 -0.64462639444E-01  0.14182815843E+01  0.10500000000E+00 0.  1.
         13    1    6    6    0    0  0.46576585282E+00  0.18262717827E+01  0.55714437377E-01  0.18884743982E+01  0.10500000000E+00 0. -1.
</event>
<event>
11    0  0.3515428E-009  0.9118800E+02  0.7816531E-02  0.1126479E+00
         25   -1    0    0    0    0  0.00000000000E+00  0.00000000000E+00  0.99999998245E-14  0.12500000000E+03  0.12500000000E+03 0.  0.
    3000001    1    3    3    0    0  0.28206908524E+02 -0.16687134484E+02 -0.41931079591E+02  0.53228804058E+02  0.10000000000E+01 0. -1.
    1000022    2    1    0    0    0  0.29771736452E+02 -0.22026294071E+02 -0.49343045776E+02  0.62499999146E+02  0.99999902444E+01 0.  0.
    3000022    2    3    3    0    0  0.15648279284E+01 -0.53391595875E+01 -0.74119661846E+01  0.92711950879E+01  0.25000817743E+00 0.  0.
    1000022    2    1    0    0    0 -0.29771736452E+02  0.22026294071E+02  0.49343045776E+02  0.62500000854E+02  0.10000000923E+02 0.  0.
    3000022    2    5    5    0    0 -0.48951259103E+01  0.19255156463E+01  0.13288921489E+02  0.14294327708E+02  0.25000423534E+00 0.  0.
        -13    1    4    4    0    0  0.62834812628E+00 -0.21949767780E+01 -0.31467288595E+01  0.38891736833E+01  0.10500000000E+00 0.  1.
         13    1    4    4    0    0  0.93647980216E+00 -0.31441828095E+01 -0.42652373251E+01  0.53820214046E+01  0.10500000000E+00 0. -1.
    3000001    1    5    5    0    0 -0.24876610542E+02  0.20100778425E+02  0.36054124287E+02  0.48205673146E+02  0.10000000000E+01 0. -1.
        -13    1    6    6    0    0 -0.24927786655E+01  0.90890727993E+00  0.66670120752E+01  0.71763593088E+01  0.10500000000E+00 0.  1.
         13    1    6    6    0    0 -0.24023472448E+01  0.10166083664E+01  0.66219094136E+01  0.71179683996E+01  0.10500000000E+00 0. -1.
</event>
<event>
11    0  0.3515428E-009  0.9118800E+02  0.7816531E-02  0.1126479E+00
         25   -1    0    0    0    0  0.00000000000E+00  0.00000000000E+00  0.99999998245E-14  0.12500000000E+03  0.12500000000E+03 0.  0.
    3000001    1    3    3    0    0  0.61920146188E+01  0.18450203259E+02 -0.21625742251E+02  0.29110544022E+02  0.10000000000E+01 0.  1.
    1000022    2    1    0    0    0  0.29392516949E+01  0.41599091305E+02 -0.45465662736E+02  0.62500000428E+02  0.99999983779E+01 0.  0.
    3000022    2    3    3    0    0 -0.32527629239E+01  0.23148888045E+02 -0.23839920484E+02  0.33389456405E+02  0.25001194217E+00 0.  0.
    1000022    2    1    0    0    0 -0.29392516949E+01 -0.41599091305E+02  0.45465662736E+02  0.62499999572E+02  0.99999930340E+01 0.  0.
    3000022    2    5    5    0    0 -0.25389353138E+01 -0.15086822905E+02  0.23556405423E+02  0.28089591483E+02  0.24999065397E+00 0.  0.
        -13    1    4    4    0    0 -0.12639049484E+01  0.89735217792E+01 -0.93302173443E+01  0.13007133794E+02  0.10500000000E+00 0.  1.
         13    1    4    4    0    0 -0.19888579755E+01  0.14175366266E+02 -0.14509703140E+02  0.20382322611E+02  0.10500000000E+00 0. -1.
    3000001    1    5    5    0    0 -0.40031638111E+00 -0.26512268400E+02  0.21909257312E+02  0.34410408090E+02  0.10000000000E+01 0.  1.
        -13    1    6    6    0    0 -0.12978806469E+01 -0.80614344520E+01  0.12509023180E+02  0.14938470655E+02  0.10500000000E+00 0.  1.
         13    1    6    6    0    0 -0.12410546668E+01 -0.70253884529E+01  0.11047382244E+02  0.13151120828E+02  0.10500000000E+00 0. -1.
</event>
<event>
11    0  0.3515428E-009  0.9118800E+02  0.7816531E-02  0.1126479E+00
         25   -1    0    0    0    0  0.00000000000E+00  0.00000000000E+00  0.99999998245E-14  0.12500000000E+03  0.12500000000E+03 0.  0.
    3000001    1    3    3    0    0 -0.25247422485E+02 -0.31234665058E+02  0.47647041292E+01  0.40456631705E+02  0.10000000000E+01 0.  1.
    1000022    2    1    0    0    0 -0.32659428887E+02 -0.51591405348E+02  0.88282988313E+01  0.62499998374E+02  0.99999767729E+01 0.  0.
    3000022    2    3    3    0    0 -0.74120064016E+01 -0.20356740290E+02  0.40635947021E+01  0.22043366669E+02  0.24999615792E+00 0.  0.
    1000022    2    1    0    0    0  0.32659428887E+02  0.51591405348E+02 -0.88282988313E+01  0.62500001626E+02  0.99999970993E+01 0.  0.
    3000022    2    5    5    0    0  0.38965624089E+01  0.12456359266E+02  0.36654858719E+00  0.13059132510E+02  0.24999856285E+00 0.  0.
        -13    1    4    4    0    0 -0.29403444234E+01 -0.79041313113E+01  0.15616649420E+01  0.85773387193E+01  0.10500000000E+00 0. -1.
         13    1    4    4    0    0 -0.44716619782E+01 -0.12452608979E+02  0.25019297601E+01  0.13466027950E+02  0.10500000000E+00 0.  1.
    3000001    1    5    5    0    0  0.28762866478E+02  0.39135046082E+02 -0.91948474185E+01  0.49440869116E+02  0.10000000000E+01 0.  1.
        -13    1    6    6    0    0  0.22537720682E+01  0.74069708183E+01  0.23774248017E+00  0.77466284102E+01  0.10500000000E+00 0.  1.
         13    1    6    6    0    0  0.16427903407E+01  0.50493884479E+01  0.12880610702E+00  0.53125041002E+01  0.10500000000E+00 0. -1.
</event>
<event>
11    0  0.3515428E-009  0.9118800E+02  0.7816531E-02  0.1126479E+00
         25   -1    0    0    0    0  0.00000000000E+00  0.00000000000E+00  0.99999998245E-14  0.12500000000E+03  0.12500000000E+03 0.  0.
    3000001    1    3    3    0    0  0.86750175966E+01 -0.10399445877E+02 -0.40497962248E+02  0.42714041615E+02  0.10000000000E+01 0.  1.
    1000022    2    1    0    0    0  0.14158168469E+02 -0.21068759544E+02 -0.56230808123E+02  0.62499999606E+02  0.99999902757E+01 0.  0.
    3000022    2    3    3    0    0  0.54831508721E+01 -0.10669313667E+02 -0.15732845875E+02  0.19785957991E+02  0.24999338999E+00 0.  0.
    1000022    2    1    0    0    0 -0.14158168469E+02  0.21068759544E+02  0.56230808123E+02  0.62500000394E+02  0.99999951987E+01 0.  0.
    3000022    2    5    5    0    0 -0.14516414473E+02  0.19994607250E+02  0.55636054707E+02  0.60876462598E+02  0.25001364881E+00 0.  0.
        -13    1    4    4    0    0  0.21770458515E+01 -0.41168759221E+01 -0.61561449655E+01  0.77199314656E+01  0.10500000000E+00 0.  1.
         13    1    4    4    0    0  0.33061050206E+01 -0.65524377448E+01 -0.95767009091E+01  0.12066026525E+02  0.10500000000E+00 0. -1.
    3000001    1    5    5    0    0  0.35824600416E+00  0.10741522937E+01  0.59475341590E+00  0.16235377961E+01  0.10000000000E+01 0.  1.
        -13    1    6    6    0    0 -0.10819850945E+02  0.14906880454E+02  0.41403104031E+02  0.45315696042E+02  0.10500000000E+00 0. -1.
         13    1    6    6    0    0 -0.36965635274E+01  0.50877267959E+01  0.14232950676E+02  0.15560766556E+02  0.10500000000E+00 0.  1.
</event>
<event>
11    0  0.3515428E-009  0.9118800E+02  0.7816531E-02  0.1126479E+00
         25   -1    0    0    0    0  0.00000000000E+00  0.00000000000E+00  0.99999998245E-14  0.12500000000E+03  0.12500000000E+03 0.  0.
    3000001    1    3    3    0    0 -0.41275288883E+02 -0.48805879635E+01  0.34428021766E+01  0.41717172700E+02  0.10000000000E+01 0.  1.
    1000022    2    1    0    0    0 -0.59765811278E+02 -0.13862462207E+02  0.64907433544E+01  0.62500000349E+02  0.10000011908E+02 0.  0.
    3000022    2    3    3    0    0 -0.18490522395E+02 -0.89818742433E+01  0.30479411778E+01  0.20782827649E+02  0.24999259693E+00 0.  0.
    1000022    2    1    0    0    0  0.59765811278E+02  0.13862462207E+02 -0.64907433544E+01  0.62499999651E+02  0.10000007543E+02 0.  0.
    3000022    2    5    5    0    0  0.53335131246E+02  0.10777418283E+02 -0.29996592360E+01  0.54496324869E+02  0.24999764052E+00 0.  0.
        -13    1    4    4    0    0 -0.85615140067E+01 -0.41944127635E+01  0.13538546967E+01  0.96299827651E+01  0.10500000000E+00 0. -1.
         13    1    4    4    0    0 -0.99290083887E+01 -0.47874614798E+01  0.16940864811E+01  0.11152844884E+02  0.10500000000E+00 0.  1.
    3000001    1    5    5    0    0  0.64306800322E+01  0.30850439240E+01 -0.34910841184E+01  0.80036747817E+01  0.10000000000E+01 0. -1.
        -13    1    6    6    0    0  0.22638223981E+02  0.45262804407E+01 -0.13175622509E+01  0.23124086899E+02  0.10500000000E+00 0.  1.
         13    1    6    6    0    0  0.30696907265E+02  0.62511378421E+01 -0.16820969851E+01  0.31372237970E+02  0.10500000000E+00 0. -1.
</event>
<event>
11    0  0.3515428E-009  0.9118800E+02  0.7816531E-02  0.1126479E+00
         25   -1    0    0    0    0  0.00000000000E+00  0.00000000000E+00  0.99999998245E-14  0.12500000000E+03  0.12500000000E+03 0.  0.
    3000001    1    3    3    0    0 -0.52044365769E+02 -0.10181555286E+02  0.31937040623E+02  0.61913283228E+02  0.10000000000E+01 0.  1.
    1000022    2    1    0    0    0 -0.52129272950E+02 -0.10016903518E+02  0.31439633978E+02  0.62499999434E+02  0.99999945086E+01 0.  0.
    3000022    2    3    3    0    0 -0.84907181580E-01  0.16465176778E+00 -0.49740664535E+00  0.58671620596E+00  0.25000620269E+00 0.  0.
    1000022    2    1    0    0    0  0.52129272950E+02  0.10016903518E+02 -0.31439633978E+02  0.62500000566E+02  0.10000001585E+02 0.  0.
    3000022    2    5    5    0    0  0.10601593585E+02  0.47801115366E+01 -0.10575465275E+02  0.15720884720E+02  0.24999547629E+00 0.  0.
        -13    1    4    4    0    0  0.13204441659E-01  0.11429730301E+00 -0.29294204312E+00  0.33178045660E+00  0.10500000000E+00 0. -1.
         13    1    4    4    0    0 -0.98111623238E-01  0.50354464763E-01 -0.20446460223E+00  0.25493574936E+00  0.10500000000E+00 0.  1.
    3000001    1    5    5    0    0  0.41527679365E+02  0.52367919817E+01 -0.20864168702E+02  0.46779115846E+02  0.10000000000E+01 0.  1.
        -13    1    6    6    0    0  0.68891230910E+01  0.30798213012E+01 -0.69309419201E+01  0.10246672490E+02  0.10500000000E+00 0.  1.
         13    1    6    6    0    0  0.37124704938E+01  0.17002902354E+01 -0.36445233551E+01  0.54742122299E+01  0.10500000000E+00 0. -1.
</event>
<event>
11    0  0.3515428E-009  0.9118800E+02  0.7816531E-02  0.1126479E+00
         25   -1    0    0    0    0  0.00000000000E+00  0.00000000000E+00  0.99999998245E-14  0.12500000000E+03  0.12500000000E+03 0.  0.
    3000001    1    3    3    0    0 -0.20455219927E+02  0.69304059807E+01  0.55197555144E+02  0.59280828631E+02  0.10000000000E+01 0.  1.
    1000022    2    1    0    0    0 -0.20898136956E+02  0.51340592081E+01  0.57820057838E+02  0.62499998792E+02  0.10000003420E+02 0.  0.
    3000022    2    3    3    0    0 -0.44291702934E+00 -0.17963467726E+01  0.26225026936E+01  0.32191701604E+01  0.24999784274E+00 0.  0.
    1000022    2    1    0    0    0  0.20898136956E+02 -0.51340592081E+01 -0.57820057838E+02  0.62500001208E+02  0.10000018524E+02 0.  0.
    3000022    2    5    5    0    0  0.10668686770E+02  0.16498261427E+00 -0.16991527052E+02  0.20065458422E+02  0.25006694131E+00 0.  0.
        -13    1    4    4    0    0 -0.30665355643E+00 -0.12673781974E+01  0.17616530825E+01  0.21942494120E+01  0.10500000000E+00 0. -1.
         13    1    4    4    0    0 -0.13626347291E+00 -0.52896857518E+00  0.86084961112E+00  0.10249207484E+01  0.10500000000E+00 0.  1.
    3000001    1    5    5    0    0  0.10229450186E+02 -0.52990418223E+01 -0.40828530786E+02  0.42434542786E+02  0.10000000000E+01 0. -1.
        -13    1    6    6    0    0  0.75547866731E+01  0.86968271605E-01 -0.12089257351E+02  0.14256350636E+02  0.10500000000E+00 0.  1.
         13    1    6    6    0    0  0.31139000964E+01  0.78014342662E-01 -0.49022697018E+01  0.58091077867E+01  0.10500000000E+00 0. -1.
</event>
<event>
11    0  0.3515428E-009  0.9118800E+02  0.7816531E-02  0.1126479E+00
         25   -1    0    0    0    0  0.00000000000E+00  0.00000000000E+00  0.99999998245E-14  0.12500000000E+03  0.12500000000E+03 0.  0.
    3000001    1    3    3    0    0  0.39154242751E+01  0.37588178365E+02  0.24513447241E+01  0.37884175997E+02  0.10000000000E+01 0. -1.
    1000022    2    1    0    0    0  0.13500560475E+02  0.60195007605E+02  0.73882945993E+00  0.62499999654E+02  0.10000000708E+02 0.  0.
    3000022    2    3    3    0    0  0.95851361996E+01  0.22606829240E+02 -0.17125152641E+01  0.24615823657E+02  0.25000306642E+00 0.  0.
    1000022    2    1    0    0    0 -0.13500560475E+02 -0.60195007605E+02 -0.73882945993E+00  0.62500000346E+02  0.10000005031E+02 0.  0.
    3000022    2    5    5    0    0 -0.11486061293E+01 -0.59393725168E+01 -0.30899178169E+01  0.67974660105E+01  0.25002022782E+00 0.  0.
        -13    1    4    4    0    0  0.64473202080E+01  0.15212863895E+02 -0.12046334475E+01  0.16566874554E+02  0.10500000000E+00 0.  1.
         13    1    4    4    0    0  0.31378159916E+01  0.73939653449E+01 -0.50788181667E+00  0.80489491028E+01  0.10500000000E+00 0. -1.
    3000001    1    5    5    0    0 -0.12351954345E+02 -0.54255635088E+02  0.23510883570E+01  0.55702534335E+02  0.10000000000E+01 0. -1.
        -13    1    6    6    0    0 -0.67276759412E+00 -0.37422664342E+01 -0.19045334299E+01  0.42538743383E+01  0.10500000000E+00 0. -1.
         13    1    6    6    0    0 -0.47583853515E+00 -0.21971060826E+01 -0.11853843870E+01  0.25435916722E+01  0.10500000000E+00 0.  1.
</event>
<event>
11    0  0.3515428E-009  0.9118800E+02  0.7816531E-02  0.1126479E+00
         25   -1    0    0    0    0  0.00000000000E+00  0.00000000000E+00  0.99999998245E-14  0.12500000000E+03  0.12500000000E+03 0.  0.
    3000001    1    3    3    0    0  0.13647068779E+02  0.16351628464E+02  0.41298331159E+00  0.21325777709E+02  0.10000000000E+01 0.  1.
    1000022    2    1    0    0    0  0.28409176563E+02  0.54612690862E+02  0.40770646434E+01  0.62500001657E+02  0.10000021747E+02 0.  0.
    3000022    2    3    3    0    0  0.14762107784E+02  0.38261062398E+02  0.36640813318E+01  0.41174223948E+02  0.25000743999E+00 0.  0.
    1000022    2    1    0    0    0 -0.28409176563E+02 -0.54612690862E+02 -0.40770646434E+01  0.62499998343E+02  0.10000001030E+02 0.  0.
    3000022    2    5    5    0    0 -0.13647765701E+01 -0.36747422179E+01  0.21604978267E+01  0.44829200935E+01  0.24995249772E+00 0.  0.
        -13    1    4    4    0    0  0.11262993342E+02  0.29198706168E+02  0.28125318261E+01  0.31421979905E+02  0.10500000000E+00 0. -1.
         13    1    4    4    0    0  0.34991144421E+01  0.90623562295E+01  0.85154950570E+00  0.97522440428E+01  0.10500000000E+00 0.  1.
    3000001    1    5    5    0    0 -0.27044399993E+02 -0.50937948644E+02 -0.62375624700E+01  0.58017078249E+02  0.10000000000E+01 0.  1.
        -13    1    6    6    0    0 -0.86194437049E+00 -0.21367057772E+01  0.12654322329E+01  0.26307419889E+01  0.10500000000E+00 0. -1.
         13    1    6    6    0    0 -0.50283219965E+00 -0.15380364408E+01  0.89506559373E+00  0.18521781046E+01  0.10500000000E+00 0.  1.
</event>
<event>
11    0  0.3515428E-009  0.9118800E+02  0.7816531E-02  0.1126479E+00
         25   -1    0    0    0    0  0.00000000000E+00  0.00000000000E+00  0.99999998245E-14  0.12500000000E+03  0.12500000000E+03 0.  0.
    3000001    1    3    3    0    0  0.31890075925E+01 -0.16983044159E+01  0.89993955176E+00  0.38553726812E+01  0.10000000000E+01 0.  1.
    1000022    2    1    0    0    0  0.43032815664E+02 -0.83565952112E+01  0.43411913506E+02  0.62499999687E+02  0.99999909530E+01 0.  0.
    3000022    2    3    3    0    0  0.39843808071E+02 -0.66582907953E+01  0.42511973955E+02  0.58644627005E+02  0.24993828373E+00 0.  0.
    1000022    2    1    0    0    0 -0.43032815664E+02  0.83565952112E+01 -0.43411913506E+02  0.62500000313E+02  0.99999948700E+01 0.  0.
    3000022    2    5    5    0    0 -0.15689014233E+02  0.34549976788E+01 -0.95541422073E+01  0.18692948228E+02  0.25000715935E+00 0.  0.
        -13    1    4    4    0    0  0.21300609175E+02 -0.35111140205E+01  0.22787222135E+02  0.31389686053E+02  0.10500000000E+00 0.  1.
         13    1    4    4    0    0  0.18543198897E+02 -0.31471767748E+01  0.19724751819E+02  0.27254940952E+02  0.10500000000E+00 0. -1.
    3000001    1    5    5    0    0 -0.27343801431E+02  0.49015975324E+01 -0.33857771299E+02  0.43807052085E+02  0.10000000000E+01 0.  1.
        -13    1    6    6    0    0 -0.94694833711E+01  0.20852901338E+01 -0.56934451211E+01  0.11244816255E+02  0.10500000000E+00 0.  1.
         13    1    6    6    0    0 -0.62195308616E+01  0.13697075451E+01 -0.38606970862E+01  0.74481319731E+01  0.10500000000E+00 0. -1.
</event>
<event>
11    0  0.3515428E-009  0.9118800E+02  0.7816531E-02  0.1126479E+00
         25   -1    0    0    0    0  0.00000000000E+00  0.00000000000E+00  0.99999998245E-14  0.12500000000E+03  0.12500000000E+03 0.  0.
    3000001    1    3    3    0    0  0.95990221136E+01  0.13930305820E+02 -0.18050981813E+02  0.24759494950E+02  0.10000000000E+01 0.  1.
    1000022    2    1    0    0    0  0.17421362943E+02  0.43605559523E+02 -0.40016263033E+02  0.62500000737E+02  0.10000003844E+02 0.  0.
    3000022    2    3    3    0    0  0.78223408298E+01  0.29675253702E+02 -0.21965281220E+02  0.37740505787E+02  0.24999916560E+00 0.  0.
    1000022    2    1    0    0    0 -0.17421362943E+02 -0.43605559523E+02  0.40016263033E+02  0.62499999263E+02  0.99999946313E+01 0.  0.
    3000022    2    5    5    0    0 -0.17312404629E+02 -0.42339465624E+02  0.36129414748E+02  0.58290194604E+02  0.24994710763E+00 0.  0.
        -13    1    4    4    0    0  0.41229280849E+01  0.15375616444E+02 -0.11391249537E+02  0.19574976578E+02  0.10500000000E+00 0.  1.
         13    1    4    4    0    0  0.36994127449E+01  0.14299637259E+02 -0.10574031683E+02  0.18165529208E+02  0.10500000000E+00 0. -1.
    3000001    1    5    5    0    0 -0.10895831408E+00 -0.12660938987E+01  0.38868482852E+01  0.42098046590E+01  0.10000000000E+01 0. -1.
        -13    1    6    6    0    0 -0.83495593619E+01 -0.20412935588E+02  0.17505884520E+02  0.28157949120E+02  0.10500000000E+00 0. -1.
         13    1    6    6    0    0 -0.89628452674E+01 -0.21926530037E+02  0.18623530228E+02  0.30132245484E+02  0.10500000000E+00 0.  1.
</event>
<event>
11    0  0.3515428E-009  0.9118800E+02  0.7816531E-02  0.1126479E+00
         25   -1    0    0    0    0  0.00000000000E+00  0.00000000000E+00  0.99999998245E-14  0.12500000000E+03  0.12500000000E+03 0.  0.
    3000001    1    3    3    0    0 -0.71773994489E+01  0.14007155199E+02  0.20627966118E+02  0.25965909300E+02  0.10000000000E+01 0. -1.
    1000022    2    1    0    0    0 -0.23454756082E+02  0.23994747302E+02  0.51772353599E+02  0.62499999263E+02  0.99999914874E+01 0.  0.
    3000022    2    3    3    0    0 -0.16277356634E+02  0.99875921037E+01  0.31144387481E+02  0.36534089963E+02  0.25004575974E+00 0.  0.
    1000022    2    1    0    0    0  0.23454756082E+02 -0.23994747302E+02 -0.51772353599E+02  0.62500000737E+02  0.10000000697E+02 0.  0.
    3000022    2    5    5    0    0  0.14600418855E+02 -0.12176150733E+02 -0.20847024539E+02  0.28215098957E+02  0.24999918880E+00 0.  0.
        -13    1    4    4    0    0 -0.97849092527E+01  0.60579271385E+01  0.18849317542E+02  0.22085079286E+02  0.10500000000E+00 0. -1.
         13    1    4    4    0    0 -0.64924473809E+01  0.39296649653E+01  0.12295069939E+02  0.14449010677E+02  0.10500000000E+00 0.  1.
    3000001    1    5    5    0    0  0.88543372277E+01 -0.11818596569E+02 -0.30925329060E+02  0.34284901780E+02  0.10000000000E+01 0.  1.
        -13    1    6    6    0    0  0.96273702404E+01 -0.79613316681E+01 -0.13726893118E+02  0.18560918063E+02  0.10500000000E+00 0.  1.
         13    1    6    6    0    0  0.49730486144E+01 -0.42148190652E+01 -0.71201314210E+01  0.96541808936E+01  0.10500000000E+00 0. -1.
</event>
<event>
11    0  0.3515428E-009  0.9118800E+02  0.7816531E-02  0.1126479E+00
         25   -1    0    0    0    0  0.00000000000E+00  0.00000000000E+00  0.99999998245E-14  0.12500000000E+03  0.12500000000E+03 0.  0.
    3000001    1    3    3    0    0 -0.40181537185E+01  0.10601031380E+02  0.10028170768E+01  0.11425106902E+02  0.10000000000E+01 0. -1.
    1000022    2    1    0    0    0 -0.96472133978E+01  0.59965632538E+02 -0.10830699938E+02  0.62500000816E+02  0.10000011440E+02 0.  0.
    3000022    2    3    3    0    0 -0.56290596793E+01  0.49364601159E+02 -0.11833517014E+02  0.51074893915E+02  0.25000608030E+00 0.  0.
    1000022    2    1    0    0    0  0.96472133978E+01 -0.59965632538E+02  0.10830699938E+02  0.62499999184E+02  0.10000001238E+02 0.  0.
    3000022    2    5    5    0    0  0.68120309003E+01 -0.52249831816E+02  0.63197739420E+01  0.53070243412E+02  0.25000664943E+00 0.  0.
        -13    1    4    4    0    0 -0.16799872958E+01  0.15008716612E+02 -0.36329809415E+01  0.15533625050E+02  0.10500000000E+00 0. -1.
         13    1    4    4    0    0 -0.39490723836E+01  0.34355884546E+02 -0.82005360730E+01  0.35541268865E+02  0.10500000000E+00 0.  1.
    3000001    1    5    5    0    0  0.28351824975E+01 -0.77158007225E+01  0.45109259957E+01  0.94297557721E+01  0.10000000000E+01 0. -1.
        -13    1    6    6    0    0  0.35263067213E+01 -0.26987080657E+02  0.33320206097E+01  0.27419896933E+02  0.10500000000E+00 0. -1.
         13    1    6    6    0    0  0.32857241790E+01 -0.25262751159E+02  0.29877533323E+01  0.25650346478E+02  0.10500000000E+00 0.  1.
</event>
<event>
11    0  0.3515428E-009  0.9118800E+02  0.7816531E-02  0.1126479E+00
         25   -1    0    0    0    0  0.00000000000E+00  0.00000000000E+00  0.99999998245E-14  0.12500000000E+03  0.12500000000E+03 0.  0.
    3000001    1    3    3    0    0 -0.40452063474E+02 -0.23042851715E+02 -0.28779675124E+02  0.54741320359E+02  0.10000000000E+01 0.  1.
    1000022    2    1    0    0    0 -0.44512360856E+02 -0.24043559874E+02 -0.35310154797E+02  0.62499998958E+02  0.99999898837E+01 0.  0.
    3000022    2    3    3    0    0 -0.40602973822E+01 -0.10007081590E+01 -0.65304796730E+01  0.77586785994E+01  0.24999439646E+00 0.  0.
    1000022    2    1    0    0    0  0.44512360856E+02  0.24043559874E+02  0.35310154797E+02  0.62500001042E+02  0.10000002904E+02 0.  0.
    3000022    2    5    5    0    0  0.26319119670E+02  0.11960568743E+02  0.25449647303E+02  0.38516208440E+02  0.24999979972E+00 0.  0.
        -13    1    4    4    0    0 -0.25073543807E+01 -0.65420093611E+00 -0.41355833458E+01  0.48814833263E+01  0.10500000000E+00 0.  1.
         13    1    4    4    0    0 -0.15529430016E+01 -0.34650722289E+00 -0.23948963271E+01  0.28771952731E+01  0.10500000000E+00 0.  1.
    3000001    1    5    5    0    0  0.18193241186E+02  0.12082991131E+02  0.98605074935E+01  0.23983792602E+02  0.10000000000E+01 0.  1.
        -13    1    6    6    0    0  0.15968935338E+02  0.73231607406E+01  0.15486179112E+02  0.23419401093E+02  0.10500000000E+00 0. -1.
         13    1    6    6    0    0  0.10350184332E+02  0.46374080021E+01  0.99634681915E+01  0.15096807347E+02  0.10500000000E+00 0.  1.
</event>
<event>
11    0  0.3515428E-009  0.9118800E+02  0.7816531E-02  0.1126479E+00
         25   -1    0    0    0    0  0.00000000000E+00  0.00000000000E+00  0.99999998245E-14  0.12500000000E+03  0.12500000000E+03 0.  0.
    3000001    1    3    3    0    0  0.19414469059E+02 -0.15432967630E+02  0.15883751108E+01  0.24872093483E+02  0.10000000000E+01 0. -1.
    1000022    2    1    0    0    0  0.54410869517E+02 -0.29073973123E+02 -0.64137239467E+00  0.62500000046E+02  0.10000000620E+02 0.  0.
    3000022    2    3    3    0    0  0.34996400458E+02 -0.13641005493E+02 -0.22297475054E+01  0.37627906563E+02  0.25000498151E+00 0.  0.
    1000022    2    1    0    0    0 -0.54410869517E+02  0.29073973123E+02  0.64137239467E+00  0.62499999954E+02  0.10000000048E+02 0.  0.
    3000022    2    5    5    0    0 -0.50227402058E+01  0.86890210694E+00 -0.21735845359E+01  0.55470603425E+01  0.24999732536E+00 0.  0.
        -13    1    4    4    0    0  0.23951625885E+02 -0.93247689090E+01 -0.15745494527E+01  0.25751153930E+02  0.10500000000E+00 0.  1.
         13    1    4    4    0    0  0.11044774573E+02 -0.43162365835E+01 -0.65519805270E+00  0.11876752633E+02  0.10500000000E+00 0. -1.
    3000001    1    5    5    0    0 -0.49388129311E+02  0.28205071016E+02  0.28149569306E+01  0.56952939612E+02  0.10000000000E+01 0.  1.
        -13    1    6    6    0    0 -0.32352007693E+01  0.50588651419E+00 -0.13703922718E+01  0.35512596584E+01  0.10500000000E+00 0. -1.
         13    1    6    6    0    0 -0.17875394365E+01  0.36301559275E+00 -0.80319226412E+00  0.19958006841E+01  0.10500000000E+00 0.  1.
</event>
<event>
11    0  0.3515428E-009  0.9118800E+02  0.7816531E-02  0.1126479E+00
         25   -1    0    0    0    0  0.00000000000E+00  0.00000000000E+00  0.99999998245E-14  0.12500000000E+03  0.12500000000E+03 0.  0.
    3000001    1    3    3    0    0  0.28515177734E+02  0.79309019804E+01  0.16394011290E+02  0.33849345246E+02  0.10000000000E+01 0.  1.
    1000022    2    1    0    0    0  0.50486402312E+02  0.22895096909E+02  0.27077440431E+02  0.62499999645E+02  0.99999947209E+01 0.  0.
    3000022    2    3    3    0    0  0.21971224578E+02  0.14964194928E+02  0.10683429142E+02  0.28650654399E+02  0.24999987465E+00 0.  0.
    1000022    2    1    0    0    0 -0.50486402312E+02 -0.22895096909E+02 -0.27077440431E+02  0.62500000355E+02  0.99999991588E+01 0.  0.
    3000022    2    5    5    0    0 -0.14864103188E+02 -0.11671860056E+02 -0.76633788543E+01  0.20395190329E+02  0.25006472367E+00 0.  0.
        -13    1    4    4    0    0  0.14187188168E+02  0.96327044105E+01  0.69472784861E+01  0.18502459451E+02  0.10500000000E+00 0.  1.
         13    1    4    4    0    0  0.77840364099E+01  0.53314905178E+01  0.37361506555E+01  0.10148194947E+02  0.10500000000E+00 0. -1.
    3000001    1    5    5    0    0 -0.35622299125E+02 -0.11223236852E+02 -0.19414061577E+02  0.42104810026E+02  0.10000000000E+01 0. -1.
        -13    1    6    6    0    0 -0.70462771128E+01 -0.55971198077E+01 -0.36002718801E+01  0.96928197086E+01  0.10500000000E+00 0.  1.
         13    1    6    6    0    0 -0.78178260748E+01 -0.60747402486E+01 -0.40631069742E+01  0.10702370621E+02  0.10500000000E+00 0. -1.
</event>
<event>
11    0  0.3515428E-009  0.9118800E+02  0.7816531E-02  0.1126479E+00
         25   -1    0    0    0    0  0.00000000000E+00  0.00000000000E+00  0.99999998245E-14  0.12500000000E+03  0.12500000000E+03 0.  0.
    3000001    1    3    3    0    0  0.12326202383E+02  0.30310223542E+02  0.43343750678E+02  0.54316900125E+02  0.10000000000E+01 0. -1.
    1000022    2    1    0    0    0  0.10472655681E+02  0.33999072991E+02  0.50404726999E+02  0.62500000172E+02  0.10000001823E+02 0.  0.
    3000022    2    3    3    0    0 -0.18535467022E+01  0.36888494494E+01  0.70609763208E+01  0.81831000476E+01  0.24998829543E+00 0.  0.
    1000022    2    1    0    0    0 -0.10472655681E+02 -0.33999072991E+02 -0.50404726999E+02  0.62499999828E+02  0.99999996678E+01 0.  0.
    3000022    2    5    5    0    0 -0.86903940296E+01 -0.15323841643E+02 -0.19052669796E+02  0.25950140548E+02  0.24999404562E+00 0.  0.
        -13    1    4    4    0    0 -0.89892258719E+00  0.17878087059E+01  0.35569239543E+01  0.40825304412E+01  0.10500000000E+00 0.  1.
         13    1    4    4    0    0 -0.95462411497E+00  0.19010407435E+01  0.35040523665E+01  0.41005696064E+01  0.10500000000E+00 0. -1.
    3000001    1    5    5    0    0 -0.17822616513E+01 -0.18675231348E+02 -0.31352057203E+02  0.36549859279E+02  0.10000000000E+01 0. -1.
        -13    1    6    6    0    0 -0.65386605316E+01 -0.11576270599E+02 -0.14371981982E+02  0.19578789892E+02  0.10500000000E+00 0.  1.
         13    1    6    6    0    0 -0.21517334980E+01 -0.37475710440E+01 -0.46806878141E+01  0.63713506566E+01  0.10500000000E+00 0. -1.
</event>
<event>
11    0  0.3515428E-009  0.9118800E+02  0.7816531E-02  0.1126479E+00
         25   -1    0    0    0    0  0.00000000000E+00  0.00000000000E+00  0.99999998245E-14  0.12500000000E+03  0.12500000000E+03 0.  0.
    3000001    1    3    3    0    0  0.11540498760E+02  0.45384856644E+02  0.36618128751E+02  0.59454652278E+02  0.10000000000E+01 0.  1.
    1000022    2    1    0    0    0  0.11950401382E+02  0.45774128506E+02  0.39600090529E+02  0.62500000076E+02  0.99999952981E+01 0.  0.
    3000022    2    3    3    0    0  0.40990262197E+00  0.38927186166E+00  0.29819617779E+01  0.30453477984E+01  0.24998885298E+00 0.  0.
    1000022    2    1    0    0    0 -0.11950401382E+02 -0.45774128506E+02 -0.39600090529E+02  0.62499999924E+02  0.99999943431E+01 0.  0.
    3000022    2    5    5    0    0 -0.92971324864E+01 -0.42766445917E+02 -0.38324367497E+02  0.58174094279E+02  0.25006461161E+00 0.  0.
        -13    1    4    4    0    0  0.22465496045E+00  0.18903171821E+00  0.18589428920E+01  0.18849128673E+01  0.10500000000E+00 0.  1.
         13    1    4    4    0    0  0.18524766152E+00  0.20024014346E+00  0.11230188859E+01  0.11604349311E+01  0.10500000000E+00 0. -1.
    3000001    1    5    5    0    0 -0.26532688959E+01 -0.30076825888E+01 -0.12757230319E+01  0.43259056442E+01  0.10000000000E+01 0. -1.
        -13    1    6    6    0    0 -0.66852952178E+01 -0.30763813511E+02 -0.27620744435E+02  0.41881045140E+02  0.10500000000E+00 0.  1.
         13    1    6    6    0    0 -0.26118372687E+01 -0.12002632407E+02 -0.10703623062E+02  0.16293049140E+02  0.10500000000E+00 0. -1.
</event>
<event>
11    0  0.3515428E-009  0.9118800E+02  0.7816531E-02  0.1126479E+00
         25   -1    0    0    0    0  0.00000000000E+00  0.00000000000E+00  0.99999998245E-14  0.12500000000E+03  0.12500000000E+03 0.  0.
    3000001    1    3    3    0    0 -0.74207934722E+01 -0.18382161014E+01 -0.92147507152E+00  0.77650711844E+01  0.10000000000E+01 0.  1.
    1000022    2    1    0    0    0 -0.48238929019E+02 -0.29377617063E+02 -0.24823596558E+02  0.62500002480E+02  0.10000035336E+02 0.  0.
    3000022    2    3    3    0    0 -0.40818135547E+02 -0.27539400962E+02 -0.23902121487E+02  0.54734931296E+02  0.24999505954E+00 0.  0.
    1000022    2    1    0    0    0  0.48238929019E+02  0.29377617063E+02  0.24823596558E+02  0.62499997520E+02  0.10000004336E+02 0.  0.
    3000022    2    5    5    0    0  0.44440313486E+01  0.26135086042E+01  0.57725669516E+01  0.77436984064E+01  0.24998789477E+00 0.  0.
        -13    1    4    4    0    0 -0.18763806357E+02 -0.12589816163E+02 -0.11006243633E+02  0.25134285826E+02  0.10500000000E+00 0.  1.
         13    1    4    4    0    0 -0.22054329189E+02 -0.14949584798E+02 -0.12895877853E+02  0.29600645470E+02  0.10500000000E+00 0. -1.
    3000001    1    5    5    0    0  0.43794897670E+02  0.26764108459E+02  0.19051029607E+02  0.54756299114E+02  0.10000000000E+01 0. -1.
        -13    1    6    6    0    0  0.14235700815E+01  0.79775429037E+00  0.17742772841E+01  0.24128921579E+01  0.10500000000E+00 0. -1.
         13    1    6    6    0    0  0.30204612671E+01  0.18157543139E+01  0.39982896675E+01  0.53308062485E+01  0.10500000000E+00 0.  1.
</event>
<event>
11    0  0.3515428E-009  0.9118800E+02  0.7816531E-02  0.1126479E+00
         25   -1    0    0    0    0  0.00000000000E+00  0.00000000000E+00  0.99999998245E-14  0.12500000000E+03  0.12500000000E+03 0.  0.
    3000001    1    3    3    0    0 -0.36751292807E+02 -0.10234018858E+02  0.18324578564E+02  0.42334180569E+02  0.10000000000E+01 0.  1.
    1000022    2    1    0    0    0 -0.56510084271E+02 -0.10709066190E+02  0.22319861564E+02  0.62500000625E+02  0.10000006744E+02 0.  0.
    3000022    2    3    3    0    0 -0.19758791464E+02 -0.47504733189E+00  0.39952829998E+01  0.20165820055E+02  0.25000429834E+00 0.  0.
    1000022    2    1    0    0    0  0.56510084271E+02  0.10709066190E+02 -0.22319861564E+02  0.62499999375E+02  0.99999989369E+01 0.  0.
    3000022    2    5    5    0    0  0.53110366752E+02  0.11756152626E+02 -0.19270412405E+02  0.57709006849E+02  0.24999228477E+00 0.  0.
        -13    1    4    4    0    0 -0.74845429560E+01 -0.24017061725E+00  0.15059506920E+01  0.76390429814E+01  0.10500000000E+00 0. -1.
         13    1    4    4    0    0 -0.12274248508E+02 -0.23487671464E+00  0.24893323079E+01  0.12526777074E+02  0.10500000000E+00 0.  1.
    3000001    1    5    5    0    0  0.33997175188E+01 -0.10470864367E+01 -0.30494491591E+01  0.47909925263E+01  0.10000000000E+01 0. -1.
        -13    1    6    6    0    0  0.33805197476E+02  0.75414864707E+01 -0.12283520457E+02  0.36749983597E+02  0.10500000000E+00 0. -1.
         13    1    6    6    0    0  0.19305169276E+02  0.42146661555E+01 -0.69868919481E+01  0.20959023252E+02  0.10500000000E+00 0.  1.
</event>
<event>
11    0  0.3515428E-009  0.9118800E+02  0.7816531E-02  0.1126479E+00
         25   -1    0    0    0    0  0.00000000000E+00  0.00000000000E+00  0.99999998245E-14  0.12500000000E+03  0.12500000000E+03 0.  0.
    3000001    1    3    3    0    0  0.10723151165E+02 -0.38792396755E+02 -0.30718647189E+00  0.40260779680E+02  0.10000000000E+01 0. -1.
    1000022    2    1    0    0    0  0.14162180479E+02 -0.59700994371E+02  0.64399379238E+01  0.62499992060E+02  0.10000006109E+02 0.  0.
    3000022    2    3    3    0    0  0.34390293145E+01 -0.20908597616E+02  0.67471243957E+01  0.22239212380E+02  0.25000553897E+00 0.  0.
    1000022    2    1    0    0    0 -0.14162180479E+02  0.59700994371E+02 -0.64399379238E+01  0.62500007940E+02  0.10000105363E+02 0.  0.
    3000022    2    5    5    0    0 -0.69544167407E+01  0.17947093043E+02 -0.58294420335E+01  0.20112358331E+02  0.25000459292E+00 0.  0.
        -13    1    4    4    0    0  0.24884886516E+01 -0.14875459233E+02  0.48126033727E+01  0.15831741514E+02  0.10500000000E+00 0. -1.
         13    1    4    4    0    0  0.95054066294E+00 -0.60331383837E+01  0.19345210229E+01  0.64074708659E+01  0.10500000000E+00 0.  1.
    3000001    1    5    5    0    0 -0.72077637384E+01  0.41753901328E+02 -0.61049589023E+00  0.42387649610E+02  0.10000000000E+01 0. -1.
        -13    1    6    6    0    0 -0.49702083997E+01  0.12724417047E+02 -0.41140157906E+01  0.14267091913E+02  0.10500000000E+00 0. -1.
         13    1    6    6    0    0 -0.19842083410E+01  0.52226759962E+01 -0.17154262429E+01  0.58452664179E+01  0.10500000000E+00 0.  1.
</event>
<event>
11    0  0.3515428E-009  0.9118800E+02  0.7816531E-02  0.1126479E+00
         25   -1    0    0    0    0  0.00000000000E+00  0.00000000000E+00  0.99999998245E-14  0.12500000000E+03  0.12500000000E+03 0.  0.
    3000001    1    3    3    0    0  0.30294334051E+02 -0.25568641608E+02 -0.39185441978E+02  0.55749448179E+02  0.10000000000E+01 0.  1.
    1000022    2    1    0    0    0  0.34277322124E+02 -0.25299628396E+02 -0.44623345999E+02  0.62499991690E+02  0.99999972098E+01 0.  0.
    3000022    2    3    3    0    0  0.39829880721E+01  0.26901321245E+00 -0.54379040212E+01  0.67505435108E+01  0.24995090707E+00 0.  0.
    1000022    2    1    0    0    0 -0.34277322124E+02  0.25299628396E+02  0.44623345999E+02  0.62500008310E+02  0.10000101082E+02 0.  0.
    3000022    2    5    5    0    0 -0.58967344303E+01  0.67522561043E+01  0.14950751100E+02  0.17434215686E+02  0.24995741026E+00 0.  0.
        -13    1    4    4    0    0  0.23131241647E+01  0.17782398454E+00 -0.32612655908E+01  0.40036287321E+01  0.10500000000E+00 0. -1.
         13    1    4    4    0    0  0.16698639073E+01  0.91189227906E-01 -0.21766384305E+01  0.27469147787E+01  0.10500000000E+00 0.  1.
    3000001    1    5    5    0    0 -0.28380587693E+02  0.18547372291E+02  0.29672594899E+02  0.45065792624E+02  0.10000000000E+01 0. -1.
        -13    1    6    6    0    0 -0.26034054640E+01  0.30726857684E+01  0.67715453443E+01  0.78793381189E+01  0.10500000000E+00 0.  1.
         13    1    6    6    0    0 -0.32933289663E+01  0.36795703358E+01  0.81792057555E+01  0.95548775673E+01  0.10500000000E+00 0. -1.
</event>
<event>
11    0  0.3515428E-009  0.9118800E+02  0.7816531E-02  0.1126479E+00
         25   -1    0    0    0    0  0.00000000000E+00  0.00000000000E+00  0.99999998245E-14  0.12500000000E+03  0.12500000000E+03 0.  0.
    3000001    1    3    3    0    0  0.19413100634E+02  0.86658850611E+01 -0.73475317868E+01  0.22515600447E+02  0.10000000000E+01 0. -1.
    1000022    2    1    0    0    0  0.58276445390E+02  0.17754424592E+02 -0.97409756976E+01  0.62499999585E+02  0.99999830384E+01 0.  0.
    3000022    2    3    3    0    0  0.38863344756E+02  0.90885395304E+01 -0.23934439108E+01  0.39984399138E+02  0.24996862172E+00 0.  0.
    1000022    2    1    0    0    0 -0.58276445390E+02 -0.17754424592E+02  0.97409756976E+01  0.62500000415E+02  0.99999882233E+01 0.  0.
    3000022    2    5    5    0    0 -0.41948100167E+02 -0.12983720989E+02  0.24950598872E+01  0.43983041525E+02  0.24999930229E+00 0.  0.
        -13    1    4    4    0    0  0.24269710110E+02  0.57344828557E+01 -0.14768626712E+01  0.24981898863E+02  0.10500000000E+00 0. -1.
         13    1    4    4    0    0  0.14593634646E+02  0.33540566747E+01 -0.91658123953E+00  0.15002500275E+02  0.10500000000E+00 0.  1.
    3000001    1    5    5    0    0 -0.16328345223E+02 -0.47707036024E+01  0.72459158104E+01  0.18516958889E+02  0.10000000000E+01 0.  1.
        -13    1    6    6    0    0 -0.11492111090E+02 -0.35380889558E+01  0.65039360695E+00  0.12042455215E+02  0.10500000000E+00 0.  1.
         13    1    6    6    0    0 -0.30455989077E+02 -0.94456320333E+01  0.18446662802E+01  0.31940586311E+02  0.10500000000E+00 0. -1.
</event>
<event>
11    0  0.3515428E-009  0.9118800E+02  0.7816531E-02  0.1126479E+00
         25   -1    0    0    0    0  0.00000000000E+00  0.00000000000E+00  0.99999998245E-14  0.12500000000E+03  0.12500000000E+03 0.  0.
    3000001    1    3    3    0    0 -0.32110241530E+02  0.48054824182E+02 -0.50479538614E+01  0.58024267134E+02  0.10000000000E+01 0. -1.
    1000022    2    1    0    0    0 -0.35002187264E+02  0.50221059953E+02 -0.76773525111E+01  0.62499997277E+02  0.99999970968E+01 0.  0.
    3000022    2    3    3    0    0 -0.28919457342E+01  0.21662357710E+01 -0.26293986496E+01  0.44757301425E+01  0.24999100985E+00 0.  0.
    1000022    2    1    0    0    0  0.35002187264E+02 -0.50221059953E+02  0.76773525111E+01  0.62500002723E+02  0.10000031137E+02 0.  0.
    3000022    2    5    5    0    0  0.31598134711E+02 -0.45365985898E+02  0.39544415923E+01  0.55427564418E+02  0.24999071436E+00 0.  0.
        -13    1    4    4    0    0 -0.10285230309E+01  0.82727750489E+00 -0.10078146340E+01  0.16640201416E+01  0.10500000000E+00 0. -1.
         13    1    4    4    0    0 -0.18634227032E+01  0.13389582661E+01 -0.16215840157E+01  0.28117100009E+01  0.10500000000E+00 0.  1.
    3000001    1    5    5    0    0  0.34040525531E+01 -0.48550740552E+01  0.37229109187E+01  0.70724383047E+01  0.10000000000E+01 0. -1.
        -13    1    6    6    0    0  0.15662393569E+02 -0.22458665445E+02  0.20245101098E+01  0.27455634978E+02  0.10500000000E+00 0. -1.
         13    1    6    6    0    0  0.15935741142E+02 -0.22907320453E+02  0.19299314825E+01  0.27971929440E+02  0.10500000000E+00 0.  1.
</event>
<event>
11    0  0.3515428E-009  0.9118800E+02  0.7816531E-02  0.1126479E+00
         25   -1    0    0    0    0  0.00000000000E+00  0.00000000000E+00  0.99999998245E-14  0.12500000000E+03  0.12500000000E+03 0.  0.
    3000001    1    3    3    0    0  0.39962868648E+02 -0.16854458330E+02  0.40699794873E+02  0.59485939001E+02  0.10000000000E+01 0.  1.
    1000022    2    1    0    0    0  0.39902868998E+02 -0.18091221530E+02  0.43436381819E+02  0.62500004280E+02  0.10000000933E+02 0.  0.
    3000022    2    3    3    0    0 -0.59999649053E-01 -0.12367632000E+01  0.27365869461E+01  0.30140652785E+01  0.24999643799E+00 0.  0.
    1000022    2    1    0    0    0 -0.39902868998E+02  0.18091221530E+02 -0.43436381819E+02  0.62499995720E+02  0.99999474377E+01 0.  0.
    3000022    2    5    5    0    0 -0.23890224874E+02  0.12268732041E+02 -0.19900376326E+02  0.33426817183E+02  0.24999726966E+00 0.  0.
        -13    1    4    4    0    0 -0.60366046127E-01 -0.61615052622E+00  0.12220782903E+01  0.13739672042E+01  0.10500000000E+00 0.  1.
         13    1    4    4    0    0  0.36639707390E-03 -0.62061267374E+00  0.15145086558E+01  0.16400980744E+01  0.10500000000E+00 0. -1.
    3000001    1    5    5    0    0 -0.16012644125E+02  0.58224894892E+01 -0.23536005493E+02  0.29073178538E+02  0.10000000000E+01 0.  1.
        -13    1    6    6    0    0 -0.16934798953E+02  0.86838172035E+01 -0.14049799601E+02  0.23655950428E+02  0.10500000000E+00 0. -1.
         13    1    6    6    0    0 -0.69554259205E+01  0.35849148375E+01 -0.58505767250E+01  0.97708667550E+01  0.10500000000E+00 0.  1.
</event>
<event>
11    0  0.3515428E-009  0.9118800E+02  0.7816531E-02  0.1126479E+00
         25   -1    0    0    0    0  0.00000000000E+00  0.00000000000E+00  0.99999998245E-14  0.12500000000E+03  0.12500000000E+03 0.  0.
    3000001    1    3    3    0    0  0.37011950833E+01 -0.92266516857E+01 -0.31522207574E+01  0.10476948128E+02  0.10000000000E+01 0.  1.
    1000022    2    1    0    0    0  0.17094431823E+02 -0.45773360205E+02 -0.37667356092E+02  0.62499998421E+02  0.99999991924E+01 0.  0.
    3000022    2    3    3    0    0  0.13393236740E+02 -0.36546708519E+02 -0.34515135334E+02  0.52023050293E+02  0.25000131495E+00 0.  0.
    1000022    2    1    0    0    0 -0.17094431823E+02  0.45773360205E+02  0.37667356092E+02  0.62500001579E+02  0.10000018934E+02 0.  0.
    3000022    2    5    5    0    0 -0.16287849614E+02  0.43587813086E+02  0.32543346185E+02  0.56783125807E+02  0.25000172710E+00 0.  0.
        -13    1    4    4    0    0  0.86198528311E+01 -0.23358590895E+02 -0.22098995967E+02  0.33291174194E+02  0.10500000000E+00 0.  1.
         13    1    4    4    0    0  0.47733839088E+01 -0.13188117624E+02 -0.12416139367E+02  0.18731876099E+02  0.10500000000E+00 0. -1.
    3000001    1    5    5    0    0 -0.80658220915E+00  0.21855471188E+01  0.51240099067E+01  0.57168757720E+01  0.10000000000E+01 0.  1.
        -13    1    6    6    0    0 -0.60104671802E+01  0.15923739987E+02  0.11882449602E+02  0.20758006755E+02  0.10500000000E+00 0.  1.
         13    1    6    6    0    0 -0.10277382434E+02  0.27664073099E+02  0.20660896583E+02  0.36025119052E+02  0.10500000000E+00 0. -1.
</event>
<event>
11    0  0.3515428E-009  0.9118800E+02  0.7816531E-02  0.1126479E+00
         25   -1    0    0    0    0  0.00000000000E+00  0.00000000000E+00  0.99999998245E-14  0.12500000000E+03  0.12500000000E+03 0.  0.
    3000001    1    3    3    0    0  0.75567316649E+01 -0.78895002824E+01 -0.85787396969E+00  0.11003833691E+02  0.10000000000E+01 0. -1.
    1000022    2    1    0    0    0  0.53346795210E+02 -0.28306186984E+02 -0.12614645820E+02  0.62500000587E+02  0.10000000173E+02 0.  0.
    3000022    2    3    3    0    0  0.45790063545E+02 -0.20416686702E+02 -0.11756771851E+02  0.51496166896E+02  0.25001052522E+00 0.  0.
    1000022    2    1    0    0    0 -0.53346795210E+02  0.28306186984E+02  0.12614645820E+02  0.62499999413E+02  0.99999928347E+01 0.  0.
    3000022    2    5    5    0    0 -0.42403149970E+02  0.20914991707E+02  0.13660392754E+02  0.49215168762E+02  0.25000126503E+00 0.  0.
        -13    1    4    4    0    0  0.31457728809E+02 -0.14023676448E+02 -0.80261608294E+01  0.35364989546E+02  0.10500000000E+00 0. -1.
         13    1    4    4    0    0  0.14332334736E+02 -0.63930102542E+01 -0.37306110213E+01  0.16131177350E+02  0.10500000000E+00 0.  1.
    3000001    1    5    5    0    0 -0.10943645240E+02  0.73911952771E+01 -0.10457469340E+01  0.13284830651E+02  0.10000000000E+01 0.  1.
        -13    1    6    6    0    0 -0.25014340329E+02  0.12382905715E+02  0.80123931773E+01  0.29038991812E+02  0.10500000000E+00 0.  1.
         13    1    6    6    0    0 -0.17388809641E+02  0.85320859921E+01  0.56479995771E+01  0.20176176950E+02  0.10500000000E+00 0. -1.
</event>
<event>
11    0  0.3515428E-009  0.9118800E+02  0.7816531E-02  0.1126479E+00
         25   -1    0    0    0    0  0.00000000000E+00  0.00000000000E+00  0.99999998245E-14  0.12500000000E+03  0.12500000000E+03 0.  0.
    3000001    1    3    3    0    0  0.36689117916E+02 -0.58506804268E+01 -0.24451472400E+02  0.44488159519E+02  0.10000000000E+01 0. -1.
    1000022    2    1    0    0    0  0.51050683598E+02 -0.13933195167E+02 -0.31716621026E+02  0.62500002830E+02  0.10000004053E+02 0.  0.
    3000022    2    3    3    0    0  0.14361565682E+02 -0.80825147402E+01 -0.72651486267E+01  0.18011843311E+02  0.25000304749E+00 0.  0.
    1000022    2    1    0    0    0 -0.51050683598E+02  0.13933195167E+02  0.31716621026E+02  0.62499997170E+02  0.99999686754E+01 0.  0.
    3000022    2    5    5    0    0 -0.39015565054E+02  0.14670553241E+02  0.25908503250E+02  0.49079043127E+02  0.24996957333E+00 0.  0.
        -13    1    4    4    0    0  0.74145429291E+01 -0.41973539707E+01 -0.38262939340E+01  0.93404912864E+01  0.10500000000E+00 0. -1.
         13    1    4    4    0    0  0.69470227529E+01 -0.38851607696E+01 -0.34388546927E+01  0.86713520245E+01  0.10500000000E+00 0.  1.
    3000001    1    5    5    0    0 -0.12035118544E+02 -0.73735807392E+00  0.58081177763E+01  0.13420954042E+02  0.10000000000E+01 0.  1.
        -13    1    6    6    0    0 -0.16658158653E+02  0.62684982506E+01  0.10986344886E+02  0.20916479603E+02  0.10500000000E+00 0. -1.
         13    1    6    6    0    0 -0.22357406401E+02  0.84020549903E+01  0.14922158364E+02  0.28162563525E+02  0.10500000000E+00 0.  1.
</event>
<event>
11    0  0.3515428E-009  0.9118800E+02  0.7816531E-02  0.1126479E+00
         25   -1    0    0    0    0  0.00000000000E+00  0.00000000000E+00  0.99999998245E-14  0.12500000000E+03  0.12500000000E+03 0.  0.
    3000001    1    3    3    0    0 -0.69524292310E+00 -0.26959838732E+02 -0.98370806943E+01  0.28724282824E+02  0.10000000000E+01 0. -1.
    1000022    2    1    0    0    0 -0.12010443964E+02 -0.57173003990E+02 -0.19830449386E+02  0.62499999548E+02  0.10000003559E+02 0.  0.
    3000022    2    3    3    0    0 -0.11315201041E+02 -0.30213165258E+02 -0.99933686917E+01  0.33775716724E+02  0.24998578038E+00 0.  0.
    1000022    2    1    0    0    0  0.12010443964E+02  0.57173003990E+02  0.19830449386E+02  0.62500000452E+02  0.10000009214E+02 0.  0.
    3000022    2    5    5    0    0 -0.33060095447E+00  0.83769813643E+01 -0.14886805651E-01  0.83872424162E+01  0.24999992309E+00 0.  0.
        -13    1    4    4    0    0 -0.43096965481E+01 -0.11522060350E+02 -0.37469319680E+01  0.12860088772E+02  0.10500000000E+00 0.  1.
         13    1    4    4    0    0 -0.70055044926E+01 -0.18691104908E+02 -0.62464367236E+01  0.20915627952E+02  0.10500000000E+00 0. -1.
    3000001    1    5    5    0    0  0.12341044918E+02  0.48796022625E+02  0.19845336192E+02  0.54112758036E+02  0.10000000000E+01 0. -1.
        -13    1    6    6    0    0 -0.23795350042E+00  0.45371258545E+01 -0.40117768100E-01  0.45447516239E+01  0.10500000000E+00 0.  1.
         13    1    6    6    0    0 -0.92647454050E-01  0.38398555098E+01  0.25230962449E-01  0.38424907922E+01  0.10500000000E+00 0. -1.
</event>
<event>
11    0  0.3515428E-009  0.9118800E+02  0.7816531E-02  0.1126479E+00
         25   -1    0    0    0    0  0.00000000000E+00  0.00000000000E+00  0.99999998245E-14  0.12500000000E+03  0.12500000000E+03 0.  0.
    3000001    1    3    3    0    0  0.20627791114E+02  0.26267288414E+02 -0.48719552158E+02  0.59076822607E+02  0.10000000000E+01 0.  1.
    1000022    2    1    0    0    0  0.23362047190E+02  0.28036848579E+02 -0.49743340499E+02  0.62500000212E+02  0.99999987669E+01 0.  0.
    3000022    2    3    3    0    0  0.27342560762E+01  0.17695601648E+01 -0.10237883415E+01  0.34231776052E+01  0.25000576331E+00 0.  0.
    1000022    2    1    0    0    0 -0.23362047190E+02 -0.28036848579E+02  0.49743340499E+02  0.62499999788E+02  0.99999961171E+01 0.  0.
    3000022    2    5    5    0    0 -0.15798610702E+02 -0.25080163920E+02  0.39701604220E+02  0.49546852557E+02  0.24999667794E+00 0.  0.
        -13    1    4    4    0    0  0.12889418239E+01  0.76672672439E+00 -0.43362077235E+00  0.15647021664E+01  0.10500000000E+00 0. -1.
         13    1    4    4    0    0  0.14453142523E+01  0.10028334404E+01 -0.59016756912E+00  0.18584754388E+01  0.10500000000E+00 0.  1.
    3000001    1    5    5    0    0 -0.75634364875E+01 -0.29566846589E+01  0.10041736279E+02  0.12953147231E+02  0.10000000000E+01 0. -1.
        -13    1    6    6    0    0 -0.70427851117E+01 -0.11131959992E+02  0.17745917543E+02  0.22100904276E+02  0.10500000000E+00 0. -1.
         13    1    6    6    0    0 -0.87558255907E+01 -0.13948203928E+02  0.21955686677E+02  0.27445948281E+02  0.10500000000E+00 0.  1.
</event>
<event>
11    0  0.3515428E-009  0.9118800E+02  0.7816531E-02  0.1126479E+00
         25   -1    0    0    0    0  0.00000000000E+00  0.00000000000E+00  0.99999998245E-14  0.12500000000E+03  0.12500000000E+03 0.  0.
    3000001    1    3    3    0    0 -0.23111413227E+02  0.19765636715E+02 -0.14586475845E+02  0.33742896937E+02  0.10000000000E+01 0.  1.
    1000022    2    1    0    0    0 -0.35848240739E+02  0.42525921285E+02 -0.26696436252E+02  0.62499999973E+02  0.99999971438E+01 0.  0.
    3000022    2    3    3    0    0 -0.12736827512E+02  0.22760284570E+02 -0.12109960407E+02  0.28757103037E+02  0.25001044076E+00 0.  0.
    1000022    2    1    0    0    0  0.35848240739E+02 -0.42525921285E+02  0.26696436252E+02  0.62500000027E+02  0.99999974770E+01 0.  0.
    3000022    2    5    5    0    0  0.12177825754E+02 -0.88020085256E+01  0.98945625951E+01  0.17992766954E+02  0.24999909205E+00 0.  0.
        -13    1    4    4    0    0 -0.57624932049E+01  0.10431723209E+02 -0.55482107071E+01  0.13146134188E+02  0.10500000000E+00 0.  1.
         13    1    4    4    0    0 -0.69743343073E+01  0.12328561361E+02 -0.65617497001E+01  0.15610968848E+02  0.10500000000E+00 0. -1.
    3000001    1    5    5    0    0  0.23670414986E+02 -0.33723912759E+02  0.16801873657E+02  0.44507233073E+02  0.10000000000E+01 0.  1.
        -13    1    6    6    0    0  0.77305891206E+01 -0.55145002048E+01  0.62505920777E+01  0.11368933414E+02  0.10500000000E+00 0.  1.
         13    1    6    6    0    0  0.44472366330E+01 -0.32875083208E+01  0.36439705174E+01  0.66238335397E+01  0.10500000000E+00 0. -1.
</event>
<event>
11    0  0.3515428E-009  0.9118800E+02  0.7816531E-02  0.1126479E+00
         25   -1    0    0    0    0  0.00000000000E+00  0.00000000000E+00  0.99999998245E-14  0.12500000000E+03  0.12500000000E+03 0.  0.
    3000001    1    3    3    0    0 -0.17475205246E+02  0.12036792152E+02  0.27323914266E+02  0.34610164034E+02  0.10000000000E+01 0. -1.
    1000022    2    1    0    0    0 -0.29777556686E+02  0.29451032400E+02  0.45301036201E+02  0.62500001400E+02  0.10000005126E+02 0.  0.
    3000022    2    3    3    0    0 -0.12302351441E+02  0.17414240248E+02  0.17977121935E+02  0.27889837366E+02  0.25000166565E+00 0.  0.
    1000022    2    1    0    0    0  0.29777556686E+02 -0.29451032400E+02 -0.45301036201E+02  0.62499998600E+02  0.99999876263E+01 0.  0.
    3000022    2    5    5    0    0  0.57692796530E+01 -0.68395893098E+01 -0.44747520176E+01  0.10007520997E+02  0.25000248309E+00 0.  0.
        -13    1    4    4    0    0 -0.79396362500E+01  0.11201677206E+02  0.11506321357E+02  0.17914291842E+02  0.10500000000E+00 0.  1.
         13    1    4    4    0    0 -0.43627151907E+01  0.62125630417E+01  0.64708005780E+01  0.99755455240E+01  0.10500000000E+00 0. -1.
    3000001    1    5    5    0    0  0.24008277033E+02 -0.22611443090E+02 -0.40826284183E+02  0.52492477603E+02  0.10000000000E+01 0.  1.
        -13    1    6    6    0    0  0.18088845656E+01 -0.21635322888E+01 -0.13571367745E+01  0.31314182987E+01  0.10500000000E+00 0.  1.
         13    1    6    6    0    0  0.39603950874E+01 -0.46760570210E+01 -0.31176152431E+01  0.68761026982E+01  0.10500000000E+00 0. -1.
</event>
<event>
11    0  0.3515428E-009  0.9118800E+02  0.7816531E-02  0.1126479E+00
         25   -1    0    0    0    0  0.00000000000E+00  0.00000000000E+00  0.99999998245E-14  0.12500000000E+03  0.12500000000E+03 0.  0.
    3000001    1    3    3    0    0 -0.10888041550E+02 -0.38435557002E+01 -0.23018320653E+02  0.25771407702E+02  0.10000000000E+01 0. -1.
    1000022    2    1    0    0    0 -0.16520658669E+02 -0.15550628891E+02 -0.57371560233E+02  0.62500000156E+02  0.99999937065E+01 0.  0.
    3000022    2    3    3    0    0 -0.56326171192E+01 -0.11707073191E+02 -0.34353239580E+02  0.36728592454E+02  0.24999149650E+00 0.  0.
    1000022    2    1    0    0    0  0.16520658669E+02  0.15550628891E+02  0.57371560233E+02  0.62499999844E+02  0.99999917560E+01 0.  0.
    3000022    2    5    5    0    0  0.13314766066E+02  0.14963564893E+02  0.54423854505E+02  0.57993187158E+02  0.25009576955E+00 0.  0.
        -13    1    4    4    0    0 -0.31611728148E+01 -0.66651065285E+01 -0.19360185478E+02  0.20718215786E+02  0.10500000000E+00 0.  1.
         13    1    4    4    0    0 -0.24714443044E+01 -0.50419666621E+01 -0.14993054102E+02  0.16010376668E+02  0.10500000000E+00 0. -1.
    3000001    1    5    5    0    0  0.32058926037E+01  0.58706399818E+00  0.29477057282E+01  0.45068126858E+01  0.10000000000E+01 0.  1.
        -13    1    6    6    0    0  0.80215637183E+01  0.89205785232E+01  0.32571638412E+02  0.34710875234E+02  0.10500000000E+00 0.  1.
         13    1    6    6    0    0  0.52932023473E+01  0.60429863695E+01  0.21852216093E+02  0.23282311924E+02  0.10500000000E+00 0. -1.
</event>
<event>
11    0  0.3515428E-009  0.9118800E+02  0.7816531E-02  0.1126479E+00
         25   -1    0    0    0    0  0.00000000000E+00  0.00000000000E+00  0.99999998245E-14  0.12500000000E+03  0.12500000000E+03 0.  0.
    3000001    1    3    3    0    0 -0.30532581616E+01 -0.53055045104E+01  0.38894764404E+01  0.73211194835E+01  0.10000000000E+01 0. -1.
    1000022    2    1    0    0    0 -0.36226121816E+02 -0.49065296508E+02  0.93013258588E+01  0.62500000359E+02  0.10000007944E+02 0.  0.
    3000022    2    3    3    0    0 -0.33172863654E+02 -0.43759791997E+02  0.54118494185E+01  0.55178880875E+02  0.25000365652E+00 0.  0.
    1000022    2    1    0    0    0  0.36226121816E+02  0.49065296508E+02 -0.93013258588E+01  0.62499999641E+02  0.10000003460E+02 0.  0.
    3000022    2    5    5    0    0  0.92317295757E+01  0.20150987887E+02 -0.19338978661E+01  0.22250608954E+02  0.24998821048E+00 0.  0.
        -13    1    4    4    0    0 -0.13662568596E+02 -0.18112822065E+02  0.22704859406E+01  0.22801452480E+02  0.10500000000E+00 0. -1.
         13    1    4    4    0    0 -0.19510295058E+02 -0.25646969933E+02  0.31413634779E+01  0.32377428395E+02  0.10500000000E+00 0.  1.
    3000001    1    5    5    0    0  0.26994392240E+02  0.28914308621E+02 -0.73674279927E+01  0.40249390687E+02  0.10000000000E+01 0.  1.
        -13    1    6    6    0    0  0.21228948192E+01  0.46368614028E+01 -0.45170676656E+00  0.51207645996E+01  0.10500000000E+00 0. -1.
         13    1    6    6    0    0  0.71088347565E+01  0.15514126484E+02 -0.14821910995E+01  0.17129844354E+02  0.10500000000E+00 0.  1.
</event>
<event>
11    0  0.3515428E-009  0.9118800E+02  0.7816531E-02  0.1126479E+00
         25   -1    0    0    0    0  0.00000000000E+00  0.00000000000E+00  0.99999998245E-14  0.12500000000E+03  0.12500000000E+03 0.  0.
    3000001    1    3    3    0    0  0.53475358923E+01 -0.34763131806E+01  0.76475418686E+01  0.10008286071E+02  0.10000000000E+01 0. -1.
    1000022    2    1    0    0    0  0.34704175338E+02 -0.38549293106E+02  0.33403924601E+02  0.62499999236E+02  0.99999970448E+01 0.  0.
    3000022    2    3    3    0    0  0.29356639445E+02 -0.35072979926E+02  0.25756382733E+02  0.52491713165E+02  0.24999828413E+00 0.  0.
    1000022    2    1    0    0    0 -0.34704175338E+02  0.38549293106E+02 -0.33403924601E+02  0.62500000764E+02  0.10000006592E+02 0.  0.
    3000022    2    5    5    0    0 -0.34768674613E+02  0.35980353774E+02 -0.32125899825E+02  0.59460764547E+02  0.24997793926E+00 0.  0.
        -13    1    4    4    0    0  0.17178853799E+02 -0.20427422026E+02  0.15051060534E+02  0.30642095827E+02  0.10500000000E+00 0. -1.
         13    1    4    4    0    0  0.12177785646E+02 -0.14645557899E+02  0.10705322199E+02  0.21849617338E+02  0.10500000000E+00 0.  1.
    3000001    1    5    5    0    0  0.64499275168E-01  0.25689393325E+01 -0.12780247764E+01  0.30392362165E+01  0.10000000000E+01 0. -1.
        -13    1    6    6    0    0 -0.15332233639E+02  0.15771618624E+02 -0.14118144388E+02  0.26137221894E+02  0.10500000000E+00 0.  1.
         13    1    6    6    0    0 -0.19436440974E+02  0.20208735150E+02 -0.18007755437E+02  0.33323542653E+02  0.10500000000E+00 0. -1.
</event>
<event>
11    0  0.3515428E-009  0.9118800E+02  0.7816531E-02  0.1126479E+00
         25   -1    0    0    0    0  0.00000000000E+00  0.00000000000E+00  0.99999998245E-14  0.12500000000E+03  0.12500000000E+03 0.  0.
    3000001    1    3    3    0    0 -0.49510169488E+01  0.81789158631E+00  0.91931020324E+01  0.10521152050E+02  0.10000000000E+01 0.  1.
    1000022    2    1    0    0    0 -0.21199442940E+02  0.24660698838E+02  0.52427892645E+02  0.62499997911E+02  0.99999681734E+01 0.  0.
    3000022    2    3    3    0    0 -0.16248425991E+02  0.23842807251E+02  0.43234790613E+02  0.51978845861E+02  0.24998574947E+00 0.  0.
    1000022    2    1    0    0    0  0.21199442940E+02 -0.24660698838E+02 -0.52427892645E+02  0.62500002089E+02  0.99999942917E+01 0.  0.
    3000022    2    5    5    0    0  0.19070480672E+02 -0.18886368424E+02 -0.35822440388E+02  0.44762572267E+02  0.24999046886E+00 0.  0.
        -13    1    4    4    0    0 -0.67239220500E+01  0.99797114596E+01  0.18012572399E+02  0.21662630449E+02  0.10500000000E+00 0.  1.
         13    1    4    4    0    0 -0.95245039414E+01  0.13863095792E+02  0.25222218214E+02  0.30316215411E+02  0.10500000000E+00 0. -1.
    3000001    1    5    5    0    0  0.21289622678E+01 -0.57743304140E+01 -0.16605452257E+02  0.17737429823E+02  0.10000000000E+01 0. -1.
        -13    1    6    6    0    0  0.10384121323E+02 -0.10377370121E+02 -0.19604929308E+02  0.24492530789E+02  0.10500000000E+00 0. -1.
         13    1    6    6    0    0  0.86863593492E+01 -0.85089983022E+01 -0.16217511081E+02  0.20270041477E+02  0.10500000000E+00 0.  1.
</event>
<event>
11    0  0.3515428E-009  0.9118800E+02  0.7816531E-02  0.1126479E+00
         25   -1    0    0    0    0  0.00000000000E+00  0.00000000000E+00  0.99999998245E-14  0.12500000000E+03  0.12500000000E+03 0.  0.
    3000001    1    3    3    0    0  0.72403815183E+01 -0.22465272020E+02 -0.11824354302E+02  0.26418306648E+02  0.10000000000E+01 0.  1.
    1000022    2    1    0    0    0  0.25630349140E+02 -0.52354060218E+02 -0.20208601180E+02  0.62500000932E+02  0.10000006820E+02 0.  0.
    3000022    2    3    3    0    0  0.18389967622E+02 -0.29888788198E+02 -0.83842468780E+01  0.36081694284E+02  0.24999517765E+00 0.  0.
    1000022    2    1    0    0    0 -0.25630349140E+02  0.52354060218E+02  0.20208601180E+02  0.62499999068E+02  0.99999951733E+01 0.  0.
    3000022    2    5    5    0    0  0.37986240520E-02  0.54755984810E+01  0.35272868704E+01  0.65181631429E+01  0.25000987350E+00 0.  0.
        -13    1    4    4    0    0  0.85898660313E+01 -0.14089073044E+02 -0.39364045987E+01  0.16964494801E+02  0.10500000000E+00 0.  1.
         13    1    4    4    0    0  0.98001015908E+01 -0.15799715154E+02 -0.44478422793E+01  0.19117199483E+02  0.10500000000E+00 0. -1.
    3000001    1    5    5    0    0 -0.25634147765E+02  0.46878461737E+02  0.16681314310E+02  0.55981835925E+02  0.10000000000E+01 0.  1.
        -13    1    6    6    0    0  0.34336154246E-01  0.18264274825E+01  0.12279572040E+01  0.22036152602E+01  0.10500000000E+00 0. -1.
         13    1    6    6    0    0 -0.30537530194E-01  0.36491709985E+01  0.22993296663E+01  0.43145478826E+01  0.10500000000E+00 0.  1.
</event>
<event>
11    0  0.3515428E-009  0.9118800E+02  0.7816531E-02  0.1126479E+00
         25   -1    0    0    0    0  0.00000000000E+00  0.00000000000E+00  0.99999998245E-14  0.12500000000E+03  0.12500000000E+03 0.  0.
    3000001    1    3    3    0    0  0.11767560227E+02 -0.13136943612E+02  0.48038123969E+00  0.17671602284E+02  0.10000000000E+01 0. -1.
    1000022    2    1    0    0    0  0.39972872424E+02 -0.44929788591E+02 -0.13774376498E+02  0.62499999961E+02  0.10000005730E+02 0.  0.
    3000022    2    3    3    0    0  0.28205312196E+02 -0.31792844979E+02 -0.14254757737E+02  0.44828397677E+02  0.24998428284E+00 0.  0.
    1000022    2    1    0    0    0 -0.39972872424E+02  0.44929788591E+02  0.13774376498E+02  0.62500000039E+02  0.10000006221E+02 0.  0.
    3000022    2    5    5    0    0 -0.30415170060E+02  0.39561483093E+02  0.10273056777E+02  0.50948912724E+02  0.24999576825E+00 0.  0.
        -13    1    4    4    0    0  0.14152142366E+02 -0.15875351608E+02 -0.71802393934E+01  0.22447199936E+02  0.10500000000E+00 0. -1.
         13    1    4    4    0    0  0.14053169830E+02 -0.15917493371E+02 -0.70745183438E+01  0.22381197740E+02  0.10500000000E+00 0.  1.
    3000001    1    5    5    0    0 -0.95577023633E+01  0.53683054975E+01  0.35013197204E+01  0.11551087315E+02  0.10000000000E+01 0. -1.
        -13    1    6    6    0    0 -0.12907381440E+02  0.16783310152E+02  0.44251292200E+01  0.21630367285E+02  0.10500000000E+00 0.  1.
         13    1    6    6    0    0 -0.17507788621E+02  0.22778172941E+02  0.58479275572E+01  0.29318545439E+02  0.10500000000E+00 0. -1.
</event>
<event>
11    0  0.3515428E-009  0.9118800E+02  0.7816531E-02  0.1126479E+00
         25   -1    0    0    0    0  0.00000000000E+00  0.00000000000E+00  0.99999998245E-14  0.12500000000E+03  0.12500000000E+03 0.  0.
    3000001    1    3    3    0    0  0.10826884571E+02 -0.11955067866E+02 -0.33775103689E+02  0.37441991218E+02  0.10000000000E+01 0.  1.
    1000022    2    1    0    0    0  0.19162887049E+02 -0.11989599788E+02 -0.57404558825E+02  0.62499999510E+02  0.99999910891E+01 0.  0.
    3000022    2    3    3    0    0  0.83360024775E+01 -0.34531921877E-01 -0.23629455136E+02  0.25058008292E+02  0.24999954965E+00 0.  0.
    1000022    2    1    0    0    0 -0.19162887049E+02  0.11989599788E+02  0.57404558825E+02  0.62500000490E+02  0.99999972121E+01 0.  0.
    3000022    2    5    5    0    0 -0.75958283270E+01  0.23633828204E+01  0.31826815181E+02  0.32806872152E+02  0.25001901316E+00 0.  0.
        -13    1    4    4    0    0  0.62776691716E+01 -0.24470751628E-01 -0.17862941873E+02  0.18934240054E+02  0.10500000000E+00 0. -1.
         13    1    4    4    0    0  0.20583333059E+01 -0.10061170249E-01 -0.57665132630E+01  0.61237682384E+01  0.10500000000E+00 0.  1.
    3000001    1    5    5    0    0 -0.11567058722E+02  0.96262169672E+01  0.25577743644E+02  0.29693128338E+02  0.10000000000E+01 0. -1.
        -13    1    6    6    0    0 -0.48023162698E+01  0.15320566352E+01  0.19970201957E+02  0.20596830589E+02  0.10500000000E+00 0. -1.
         13    1    6    6    0    0 -0.27935120572E+01  0.83132618520E+00  0.11856613223E+02  0.12210041563E+02  0.10500000000E+00 0.  1.
</event>
<event>
11    0  0.3515428E-009  0.9118800E+02  0.7816531E-02  0.1126479E+00
         25   -1    0    0    0    0  0.00000000000E+00  0.00000000000E+00  0.99999998245E-14  0.12500000000E+03  0.12500000000E+03 0.  0.
    3000001    1    3    3    0    0 -0.92667243448E+01  0.36594482416E+02 -0.20266718113E+02  0.42857533602E+02  0.10000000000E+01 0.  1.
    1000022    2    1    0    0    0 -0.90852346735E+01  0.55642603670E+02 -0.25052129683E+02  0.62500000970E+02  0.10000004371E+02 0.  0.
    3000022    2    3    3    0    0  0.18148967128E+00  0.19048121253E+02 -0.47854115694E+01  0.19642467368E+02  0.24999723442E+00 0.  0.
    1000022    2    1    0    0    0  0.90852346735E+01 -0.55642603670E+02  0.25052129683E+02  0.62499999030E+02  0.99999922428E+01 0.  0.
    3000022    2    5    5    0    0  0.85517900375E+01 -0.25416067516E+02  0.14345479191E+02  0.30413235157E+02  0.24999741292E+00 0.  0.
        -13    1    4    4    0    0  0.91455349055E-01  0.11875943740E+02 -0.29252990520E+01  0.12231713017E+02  0.10500000000E+00 0.  1.
         13    1    4    4    0    0  0.90034322229E-01  0.71721775138E+01 -0.18601125174E+01  0.74107543507E+01  0.10500000000E+00 0. -1.
    3000001    1    5    5    0    0  0.53344463592E+00 -0.30226536154E+02  0.10706650492E+02  0.32086763873E+02  0.10000000000E+01 0.  1.
        -13    1    6    6    0    0  0.37639279202E+01 -0.10981090825E+02  0.62037928090E+01  0.13162430601E+02  0.10500000000E+00 0. -1.
         13    1    6    6    0    0  0.47878621174E+01 -0.14434976691E+02  0.81416863820E+01  0.17250804557E+02  0.10500000000E+00 0.  1.
</event>
<event>
11    0  0.3515428E-009  0.9118800E+02  0.7816531E-02  0.1126479E+00
         25   -1    0    0    0    0  0.00000000000E+00  0.00000000000E+00  0.99999998245E-14  0.12500000000E+03  0.12500000000E+03 0.  0.
    3000001    1    3    3    0    0 -0.48975892593E+02  0.13755974113E+02 -0.84563277331E+01  0.51578816949E+02  0.10000000000E+01 0. -1.
    1000022    2    1    0    0    0 -0.57281815662E+02  0.20715313996E+02 -0.97938421109E+01  0.62499998563E+02  0.99999918829E+01 0.  0.
    3000022    2    3    3    0    0 -0.83059230681E+01  0.69593398835E+01 -0.13375143777E+01  0.10921181614E+02  0.24998703004E+00 0.  0.
    1000022    2    1    0    0    0  0.57281815662E+02 -0.20715313996E+02  0.97938421109E+01  0.62500001437E+02  0.10000009843E+02 0.  0.
    3000022    2    5    5    0    0  0.19085093769E+01 -0.14947581948E+01  0.23867098963E+01  0.34110987404E+01  0.25000077013E+00 0.  0.
        -13    1    4    4    0    0 -0.43963360723E+01  0.37386187181E+01 -0.65942163333E+00  0.58095527082E+01  0.10500000000E+00 0. -1.
         13    1    4    4    0    0 -0.39095869958E+01  0.32207211654E+01 -0.67809274441E+00  0.51116289060E+01  0.10500000000E+00 0.  1.
    3000001    1    5    5    0    0  0.55373306285E+02 -0.19220555802E+02  0.74071322145E+01  0.59088902696E+02  0.10000000000E+01 0. -1.
        -13    1    6    6    0    0  0.71419118144E+00 -0.55687457609E+00  0.97888058329E+00  0.13376885039E+01  0.10500000000E+00 0.  1.
         13    1    6    6    0    0  0.11943181955E+01 -0.93788361869E+00  0.14078293130E+01  0.20734102365E+01  0.10500000000E+00 0. -1.
</event>
<event>
11    0  0.3515428E-009  0.9118800E+02  0.7816531E-02  0.1126479E+00
         25   -1    0    0    0    0  0.00000000000E+00  0.00000000000E+00  0.99999998245E-14  0.12500000000E+03  0.12500000000E+03 0.  0.
    3000001    1    3    3    0    0 -0.18160321575E+02 -0.19764454279E+02  0.34802529967E+02  0.43961881497E+02  0.10000000000E+01 0.  1.
    1000022    2    1    0    0    0 -0.31049871543E+02 -0.25386664866E+02  0.46879338465E+02  0.62499992796E+02  0.99999724338E+01 0.  0.
    3000022    2    3    3    0    0 -0.12889549967E+02 -0.56222105867E+01  0.12076808499E+02  0.18538111299E+02  0.25003353566E+00 0.  0.
    1000022    2    1    0    0    0  0.31049871543E+02  0.25386664866E+02 -0.46879338465E+02  0.62500007204E+02  0.10000062489E+02 0.  0.
    3000022    2    5    5    0    0  0.22026481145E+02  0.16053772730E+02 -0.24712234645E+02  0.36791935677E+02  0.24999839444E+00 0.  0.
        -13    1    4    4    0    0 -0.68858009247E+01 -0.30654819004E+01  0.65201683559E+01  0.99666972487E+01  0.10500000000E+00 0. -1.
         13    1    4    4    0    0 -0.60037490425E+01 -0.25567286863E+01  0.55566401430E+01  0.85714140501E+01  0.10500000000E+00 0.  1.
    3000001    1    5    5    0    0  0.90233903971E+01  0.93328921360E+01 -0.22167103820E+02  0.25708071527E+02  0.10000000000E+01 0. -1.
        -13    1    6    6    0    0  0.77140124269E+01  0.55546000071E+01 -0.86368307285E+01  0.12843887223E+02  0.10500000000E+00 0.  1.
         13    1    6    6    0    0  0.14312468719E+02  0.10499172722E+02 -0.16075403917E+02  0.23948048454E+02  0.10500000000E+00 0. -1.
</event>
<event>
11    0  0.3515428E-009  0.9118800E+02  0.7816531E-02  0.1126479E+00
         25   -1    0    0    0    0  0.00000000000E+00  0.00000000000E+00  0.99999998245E-14  0.12500000000E+03  0.12500000000E+03 0.  0.
    3000001    1    3    3    0    0 -0.11933262770E+02  0.15835452757E+02 -0.50791791769E+01  0.20492983811E+02  0.10000000000E+01 0. -1.
    1000022    2    1    0    0    0 -0.42821954703E+02  0.44265666144E+02 -0.36167694694E+01  0.62500000659E+02  0.10000002857E+02 0.  0.
    3000022    2    3    3    0    0 -0.30888691933E+02  0.28430213386E+02  0.14624097075E+01  0.42007016847E+02  0.24999944257E+00 0.  0.
    1000022    2    1    0    0    0  0.42821954703E+02 -0.44265666144E+02  0.36167694694E+01  0.62499999341E+02  0.99999946255E+01 0.  0.
    3000022    2    5    5    0    0  0.35942590574E+02 -0.31741268895E+02  0.44024400176E+01  0.48154147834E+02  0.25001452184E+00 0.  0.
        -13    1    4    4    0    0 -0.98839537769E+01  0.90310513678E+01  0.47968685929E+00  0.13397520500E+02  0.10500000000E+00 0. -1.
         13    1    4    4    0    0 -0.21004738156E+02  0.19399162019E+02  0.98272284818E+00  0.28609496347E+02  0.10500000000E+00 0.  1.
    3000001    1    5    5    0    0  0.68793641298E+01 -0.12524397249E+02 -0.78567054819E+00  0.14345851508E+02  0.10000000000E+01 0.  1.
        -13    1    6    6    0    0  0.27307878197E+02 -0.24108598228E+02  0.33633339884E+01  0.36582342197E+02  0.10500000000E+00 0. -1.
         13    1    6    6    0    0  0.86347123769E+01 -0.76326706668E+01  0.10391060292E+01  0.11571805636E+02  0.10500000000E+00 0.  1.
</event>
<event>
11    0  0.3515428E-009  0.9118800E+02  0.7816531E-02  0.1126479E+00
         25   -1    0    0    0    0  0.00000000000E+00  0.00000000000E+00  0.99999998245E-14  0.12500000000E+03  0.12500000000E+03 0.  0.
    3000001    1    3    3    0    0 -0.70449307304E-01 -0.45928796227E+01 -0.60129523720E+01  0.76325030339E+01  0.10000000000E+01 0. -1.
    1000022    2    1    0    0    0 -0.21641181189E+02 -0.44829292601E+02 -0.36445079146E+02  0.62500000192E+02  0.10000001586E+02 0.  0.
    3000022    2    3    3    0    0 -0.21570731882E+02 -0.40236412978E+02 -0.30432126773E+02  0.54867497158E+02  0.25000233267E+00 0.  0.
    1000022    2    1    0    0    0  0.21641181189E+02  0.44829292601E+02  0.36445079146E+02  0.62499999808E+02  0.99999991852E+01 0.  0.
    3000022    2    5    5    0    0  0.18723903396E+01  0.10755304604E+02  0.46603121370E+01  0.11872801945E+02  0.24998819882E+00 0.  0.
        -13    1    4    4    0    0 -0.10039096471E+02 -0.18830805110E+02 -0.14279662621E+02  0.25676885882E+02  0.10500000000E+00 0. -1.
         13    1    4    4    0    0 -0.11531635411E+02 -0.21405607869E+02 -0.16152464152E+02  0.29190611276E+02  0.10500000000E+00 0.  1.
    3000001    1    5    5    0    0  0.19768790849E+02  0.34073987997E+02  0.31784767008E+02  0.50627197863E+02  0.10000000000E+01 0. -1.
        -13    1    6    6    0    0  0.97612843069E+00  0.53186352404E+01  0.22578511521E+01  0.58608552583E+01  0.10500000000E+00 0.  1.
         13    1    6    6    0    0  0.89626190895E+00  0.54366693641E+01  0.24024609849E+01  0.60119466871E+01  0.10500000000E+00 0. -1.
</event>
<event>
11    0  0.3515428E-009  0.9118800E+02  0.7816531E-02  0.1126479E+00
         25   -1    0    0    0    0  0.00000000000E+00  0.00000000000E+00  0.99999998245E-14  0.12500000000E+03  0.12500000000E+03 0.  0.
    3000001    1    3    3    0    0 -0.21799712625E+02  0.27628495031E+02  0.28062437562E+02  0.45022900951E+02  0.10000000000E+01 0. -1.
    1000022    2    1    0    0    0 -0.25807632017E+02  0.42135285953E+02  0.36943657788E+02  0.62499999532E+02  0.99999949070E+01 0.  0.
    3000022    2    3    3    0    0 -0.40079193920E+01  0.14506790922E+02  0.88812202261E+01  0.17477098581E+02  0.25000276327E+00 0.  0.
    1000022    2    1    0    0    0  0.25807632017E+02 -0.42135285953E+02 -0.36943657788E+02  0.62500000468E+02  0.10000000754E+02 0.  0.
    3000022    2    5    5    0    0  0.21545531687E+02 -0.36429806383E+02 -0.26909995432E+02  0.50155269745E+02  0.25000056009E+00 0.  0.
        -13    1    4    4    0    0 -0.26541382695E+01  0.97803585038E+01  0.59515973617E+01  0.11752974031E+02  0.10500000000E+00 0.  1.
         13    1    4    4    0    0 -0.13537811225E+01  0.47264324186E+01  0.29296228645E+01  0.57241245500E+01  0.10500000000E+00 0. -1.
    3000001    1    5    5    0    0  0.42621003297E+01 -0.57054795702E+01 -0.10033662356E+02  0.12344730723E+02  0.10000000000E+01 0. -1.
        -13    1    6    6    0    0  0.84825309086E+01 -0.14233861138E+02 -0.10568805859E+02  0.19653671814E+02  0.10500000000E+00 0.  1.
         13    1    6    6    0    0  0.13063000778E+02 -0.22195945245E+02 -0.16341189573E+02  0.30501597930E+02  0.10500000000E+00 0. -1.
</event>
<event>
11    0  0.3515428E-009  0.9118800E+02  0.7816531E-02  0.1126479E+00
         25   -1    0    0    0    0  0.00000000000E+00  0.00000000000E+00  0.99999998245E-14  0.12500000000E+03  0.12500000000E+03 0.  0.
    3000001    1    3    3    0    0  0.27218645537E+02 -0.15563359703E+02 -0.10771326469E+02  0.33167669560E+02  0.10000000000E+01 0.  1.
    1000022    2    1    0    0    0  0.45222086942E+02 -0.36354677561E+02 -0.20965455661E+02  0.62499999391E+02  0.99999932402E+01 0.  0.
    3000022    2    3    3    0    0  0.18003441405E+02 -0.20791317858E+02 -0.10194129192E+02  0.29332329831E+02  0.25000527515E+00 0.  0.
    1000022    2    1    0    0    0 -0.45222086942E+02  0.36354677561E+02  0.20965455661E+02  0.62500000609E+02  0.10000000851E+02 0.  0.
    3000022    2    5    5    0    0 -0.35429840108E+01  0.41280013151E+01  0.51201647552E+01  0.74747379839E+01  0.24998049597E+00 0.  0.
        -13    1    4    4    0    0  0.12159792217E+02 -0.13970734034E+02 -0.68411508026E+01  0.19744729057E+02  0.10500000000E+00 0. -1.
         13    1    4    4    0    0  0.58436491880E+01 -0.68205838245E+01 -0.33529783890E+01  0.95876007747E+01  0.10500000000E+00 0.  1.
    3000001    1    5    5    0    0 -0.41679102932E+02  0.32226676246E+02  0.15845290905E+02  0.55025262625E+02  0.10000000000E+01 0.  1.
        -13    1    6    6    0    0 -0.15011533128E+01  0.17256082371E+01  0.20670490246E+01  0.30846234335E+01  0.10500000000E+00 0. -1.
         13    1    6    6    0    0 -0.20418306980E+01  0.24023930781E+01  0.30531157307E+01  0.43901145504E+01  0.10500000000E+00 0.  1.
</event>
<event>
11    0  0.3515428E-009  0.9118800E+02  0.7816531E-02  0.1126479E+00
         25   -1    0    0    0    0  0.00000000000E+00  0.00000000000E+00  0.99999998245E-14  0.12500000000E+03  0.12500000000E+03 0.  0.
    3000001    1    3    3    0    0  0.12276699240E+02 -0.32813750684E+00  0.11540732953E+02  0.16882343900E+02  0.10000000000E+01 0.  1.
    1000022    2    1    0    0    0  0.54306404106E+02 -0.11864483734E+01  0.29251613256E+02  0.62500000239E+02  0.99999982546E+01 0.  0.
    3000022    2    3    3    0    0  0.42029704866E+02 -0.85831086658E+00  0.17710880303E+02  0.45617656339E+02  0.25000018958E+00 0.  0.
    1000022    2    1    0    0    0 -0.54306404106E+02  0.11864483734E+01 -0.29251613256E+02  0.62499999761E+02  0.99999952678E+01 0.  0.
    3000022    2    5    5    0    0 -0.47785789362E+02 -0.14834487675E+00 -0.28709520455E+02  0.55747670217E+02  0.24999746427E+00 0.  0.
        -13    1    4    4    0    0  0.22572745323E+02 -0.52809601436E+00  0.95159022634E+01  0.24502472073E+02  0.10500000000E+00 0. -1.
         13    1    4    4    0    0  0.19456959543E+02 -0.33021485222E+00  0.81949780397E+01  0.21115184266E+02  0.10500000000E+00 0.  1.
    3000001    1    5    5    0    0 -0.65206147440E+01  0.13347932502E+01 -0.54209280086E+00  0.67523295436E+01  0.10000000000E+01 0.  1.
        -13    1    6    6    0    0 -0.23618502299E+02 -0.14099566509E+00 -0.14194953148E+02  0.27556510130E+02  0.10500000000E+00 0. -1.
         13    1    6    6    0    0 -0.24167287063E+02 -0.73492116575E-02 -0.14514567307E+02  0.28191160088E+02  0.10500000000E+00 0.  1.
</event>
<event>
11    0  0.3515428E-009  0.9118800E+02  0.7816531E-02  0.1126479E+00
         25   -1    0    0    0    0  0.00000000000E+00  0.00000000000E+00  0.99999998245E-14  0.12500000000E+03  0.12500000000E+03 0.  0.
    3000001    1    3    3    0    0  0.59883741590E+00 -0.88957418330E+00  0.16003062595E+01  0.21704673696E+01  0.10000000000E+01 0.  1.
    1000022    2    1    0    0    0 -0.21914568064E+02 -0.44484575154E+02  0.36703189992E+02  0.62499999955E+02  0.10000005936E+02 0.  0.
    3000022    2    3    3    0    0 -0.22513405480E+02 -0.43595000971E+02  0.35102883732E+02  0.60329532585E+02  0.25003939359E+00 0.  0.
    1000022    2    1    0    0    0  0.21914568064E+02  0.44484575154E+02 -0.36703189992E+02  0.62500000045E+02  0.10000006503E+02 0.  0.
    3000022    2    5    5    0    0  0.17663965000E+02  0.38882186889E+02 -0.34946247611E+02  0.55182812935E+02  0.25000903391E+00 0.  0.
        -13    1    4    4    0    0 -0.80833305764E+01 -0.15545369861E+02  0.12572565544E+02  0.21565694672E+02  0.10500000000E+00 0.  1.
         13    1    4    4    0    0 -0.14430074904E+02 -0.28049631110E+02  0.22530318188E+02  0.38763837913E+02  0.10500000000E+00 0. -1.
    3000001    1    5    5    0    0  0.42506030644E+01  0.56023882652E+01 -0.17569423804E+01  0.73171871107E+01  0.10000000000E+01 0.  1.
        -13    1    6    6    0    0  0.13394998727E+02  0.29532024929E+02 -0.26541424389E+02  0.41904948645E+02  0.10500000000E+00 0. -1.
         13    1    6    6    0    0  0.42689662724E+01  0.93501619596E+01 -0.84048232219E+01  0.13277864290E+02  0.10500000000E+00 0.  1.
</event>
<event>
11    0  0.3515428E-009  0.9118800E+02  0.7816531E-02  0.1126479E+00
         25   -1    0    0    0    0  0.00000000000E+00  0.00000000000E+00  0.99999998245E-14  0.12500000000E+03  0.12500000000E+03 0.  0.
    3000001    1    3    3    0    0 -0.14124468918E+01  0.84873590267E+00  0.10456765637E+00  0.19303609117E+01  0.10000000000E+01 0.  1.
    1000022    2    1    0    0    0 -0.20718473231E+02  0.43452096205E+02  0.38586389452E+02  0.62500007529E+02  0.10000084628E+02 0.  0.
    3000022    2    3    3    0    0 -0.19306026339E+02  0.42603360302E+02  0.38481821795E+02  0.60569646617E+02  0.25004116972E+00 0.  0.
    1000022    2    1    0    0    0  0.20718473231E+02 -0.43452096205E+02 -0.38586389452E+02  0.62499992471E+02  0.99999905169E+01 0.  0.
    3000022    2    5    5    0    0  0.71630838961E+01 -0.12306496573E+02 -0.17272638377E+02  0.22386741028E+02  0.25001709181E+00 0.  0.
        -13    1    4    4    0    0 -0.78963026984E+01  0.17317713388E+02  0.15718321165E+02  0.24684639729E+02  0.10500000000E+00 0.  1.
         13    1    4    4    0    0 -0.11409723640E+02  0.25285646915E+02  0.22763500630E+02  0.35885006889E+02  0.10500000000E+00 0. -1.
    3000001    1    5    5    0    0  0.13555389335E+02 -0.31145599632E+02 -0.21313751075E+02  0.40113251443E+02  0.10000000000E+01 0. -1.
        -13    1    6    6    0    0  0.44534424783E+01 -0.76145053790E+01 -0.10790889007E+02  0.13938011072E+02  0.10500000000E+00 0. -1.
         13    1    6    6    0    0  0.27096414178E+01 -0.46919911937E+01 -0.64817493697E+01  0.84487299558E+01  0.10500000000E+00 0.  1.
</event>
<event>
11    0  0.3515428E-009  0.9118800E+02  0.7816531E-02  0.1126479E+00
         25   -1    0    0    0    0  0.00000000000E+00  0.00000000000E+00  0.99999998245E-14  0.12500000000E+03  0.12500000000E+03 0.  0.
    3000001    1    3    3    0    0  0.33868821063E+02  0.93442784642E+01  0.50784822172E+01  0.35513427909E+02  0.10000000000E+01 0.  1.
    1000022    2    1    0    0    0  0.57665576662E+02  0.13905200174E+02  0.16958087140E+02  0.62500000442E+02  0.10000000608E+02 0.  0.
    3000022    2    3    3    0    0  0.23796755600E+02  0.45609217096E+01  0.11879604923E+02  0.26986572534E+02  0.25000016568E+00 0.  0.
    1000022    2    1    0    0    0 -0.57665576662E+02 -0.13905200174E+02 -0.16958087140E+02  0.62499999558E+02  0.99999950794E+01 0.  0.
    3000022    2    5    5    0    0 -0.45298014345E+02 -0.14605503671E+02 -0.15107771310E+02  0.49935339143E+02  0.25000061020E+00 0.  0.
        -13    1    4    4    0    0  0.94427894949E+01  0.17571228323E+01  0.46698251901E+01  0.10680451601E+02  0.10500000000E+00 0.  1.
         13    1    4    4    0    0  0.14353966105E+02  0.28037988772E+01  0.72097797325E+01  0.16306120933E+02  0.10500000000E+00 0. -1.
    3000001    1    5    5    0    0 -0.12367562318E+02  0.70030349705E+00 -0.18503158300E+01  0.12564660415E+02  0.10000000000E+01 0. -1.
        -13    1    6    6    0    0 -0.27011743265E+02 -0.86854691267E+01 -0.89444818647E+01  0.29750402165E+02  0.10500000000E+00 0. -1.
         13    1    6    6    0    0 -0.18286271080E+02 -0.59200345441E+01 -0.61632894451E+01  0.20184936978E+02  0.10500000000E+00 0.  1.
</event>
<event>
11    0  0.3515428E-009  0.9118800E+02  0.7816531E-02  0.1126479E+00
         25   -1    0    0    0    0  0.00000000000E+00  0.00000000000E+00  0.99999998245E-14  0.12500000000E+03  0.12500000000E+03 0.  0.
    3000001    1    3    3    0    0  0.39498350460E+02 -0.40166214005E+02 -0.41627191565E+01  0.56495775659E+02  0.10000000000E+01 0. -1.
    1000022    2    1    0    0    0  0.45294079916E+02 -0.41627365912E+02 -0.46753328759E+01  0.62500000545E+02  0.10000003120E+02 0.  0.
    3000022    2    3    3    0    0  0.57957294564E+01 -0.14611519067E+01 -0.51261371943E+00  0.60042248858E+01  0.24999765518E+00 0.  0.
    1000022    2    1    0    0    0 -0.45294079916E+02  0.41627365912E+02  0.46753328759E+01  0.62499999455E+02  0.99999963080E+01 0.  0.
    3000022    2    5    5    0    0 -0.14455419084E+01  0.33295209124E+01  0.21323418506E+01  0.42171887783E+01  0.24999701810E+00 0.  0.
        -13    1    4    4    0    0  0.22568252990E+01 -0.52182983935E+00 -0.15708807667E+00  0.23240629241E+01  0.10500000000E+00 0. -1.
         13    1    4    4    0    0  0.35389041574E+01 -0.93932206737E+00 -0.35552564276E+00  0.36801619616E+01  0.10500000000E+00 0.  1.
    3000001    1    5    5    0    0 -0.43848538008E+02  0.38297845000E+02  0.25429910253E+01  0.58282810677E+02  0.10000000000E+01 0. -1.
        -13    1    6    6    0    0 -0.46736380163E+00  0.10351723074E+01  0.61528444678E+00  0.12959979087E+01  0.10500000000E+00 0. -1.
         13    1    6    6    0    0 -0.97817810677E+00  0.22943486050E+01  0.15170574038E+01  0.29211908695E+01  0.10500000000E+00 0.  1.
</event>
<event>
11    0  0.3515428E-009  0.9118800E+02  0.7816531E-02  0.1126479E+00
         25   -1    0    0    0    0  0.00000000000E+00  0.00000000000E+00  0.99999998245E-14  0.12500000000E+03  0.12500000000E+03 0.  0.
    3000001    1    3    3    0    0  0.78873441296E+01  0.41428674084E+02 -0.35924972493E+02  0.55408924212E+02  0.10000000000E+01 0.  1.
    1000022    2    1    0    0    0  0.53767541963E+01  0.46306742345E+02 -0.40410734851E+02  0.62499991196E+02  0.99998767982E+01 0.  0.
    3000022    2    3    3    0    0 -0.25105899333E+01  0.48780682619E+01 -0.44857623580E+01  0.70910669838E+01  0.25011048664E+00 0.  0.
    1000022    2    1    0    0    0 -0.53767541963E+01 -0.46306742345E+02  0.40410734851E+02  0.62500008804E+02  0.99999868456E+01 0.  0.
    3000022    2    5    5    0    0 -0.66440353031E+01 -0.32339159116E+02  0.32679802697E+02  0.46454240058E+02  0.24999518111E+00 0.  0.
        -13    1    4    4    0    0 -0.17460846877E+01  0.34515076792E+01 -0.32065874561E+01  0.50254298433E+01  0.10500000000E+00 0. -1.
         13    1    4    4    0    0 -0.76450524556E+00  0.14265605827E+01 -0.12791749019E+01  0.20656371405E+01  0.10500000000E+00 0.  1.
    3000001    1    5    5    0    0  0.12672811067E+01 -0.13967583229E+02  0.77309321541E+01  0.16045768746E+02  0.10000000000E+01 0.  1.
        -13    1    6    6    0    0 -0.39864475902E+01 -0.19360448222E+02  0.19477926505E+02  0.27751024588E+02  0.10500000000E+00 0. -1.
         13    1    6    6    0    0 -0.26575877128E+01 -0.12978710894E+02  0.13201876192E+02  0.18703215470E+02  0.10500000000E+00 0.  1.
</event>
<event>
11    0  0.3515428E-009  0.9118800E+02  0.7816531E-02  0.1126479E+00
         25   -1    0    0    0    0  0.00000000000E+00  0.00000000000E+00  0.99999998245E-14  0.12500000000E+03  0.12500000000E+03 0.  0.
    3000001    1    3    3    0    0  0.34675236152E+01 -0.15288741363E+02 -0.11018364722E+01  0.15747487930E+02  0.10000000000E+01 0.  1.
    1000022    2    1    0    0    0  0.59626345804E+01 -0.60485395891E+02  0.10593109614E+02  0.62500000385E+02  0.99999974851E+01 0.  0.
    3000022    2    3    3    0    0  0.24951109653E+01 -0.45196654527E+02  0.11694946086E+02  0.46752512455E+02  0.24999548254E+00 0.  0.
    1000022    2    1    0    0    0 -0.59626345804E+01  0.60485395891E+02 -0.10593109614E+02  0.62499999615E+02  0.99999926679E+01 0.  0.
    3000022    2    5    5    0    0  0.13319997458E+01  0.28134204767E+01  0.86759598535E+00  0.32411082065E+01  0.25000302166E+00 0.  0.
        -13    1    4    4    0    0  0.12354536484E+01 -0.22306130655E+02  0.57020220536E+01  0.23056753696E+02  0.10500000000E+00 0.  1.
         13    1    4    4    0    0  0.12596573169E+01 -0.22890523873E+02  0.59929240327E+01  0.23695758759E+02  0.10500000000E+00 0. -1.
    3000001    1    5    5    0    0 -0.72946343262E+01  0.57671975414E+02 -0.11460705599E+02  0.59258891408E+02  0.10000000000E+01 0.  1.
        -13    1    6    6    0    0  0.92686403675E+00  0.18484301096E+01  0.60353191316E+00  0.21566285223E+01  0.10500000000E+00 0.  1.
         13    1    6    6    0    0  0.40513570903E+00  0.96499036709E+00  0.26406407219E+00  0.10844796842E+01  0.10500000000E+00 0. -1.
</event>
<event>
11    0  0.3515428E-009  0.9118800E+02  0.7816531E-02  0.1126479E+00
         25   -1    0    0    0    0  0.00000000000E+00  0.00000000000E+00  0.99999998245E-14  0.12500000000E+03  0.12500000000E+03 0.  0.
    3000001    1    3    3    0    0 -0.60731702620E+01 -0.46598008132E+01  0.44668507598E+01  0.89190748602E+01  0.10000000000E+01 0. -1.
    1000022    2    1    0    0    0 -0.50624994106E+02 -0.34056354444E+02  0.91391885017E+01  0.62500000813E+02  0.10000001443E+02 0.  0.
    3000022    2    3    3    0    0 -0.44551823844E+02 -0.29396553631E+02  0.46723377418E+01  0.53580925953E+02  0.25002549924E+00 0.  0.
    1000022    2    1    0    0    0  0.50624994106E+02  0.34056354444E+02 -0.91391885017E+01  0.62499999187E+02  0.99999912839E+01 0.  0.
    3000022    2    5    5    0    0  0.66329874947E+01  0.13465785305E+01  0.64956951953E+00  0.68039861378E+01  0.24997991723E+00 0.  0.
        -13    1    4    4    0    0 -0.25304762289E+02 -0.16735665611E+02  0.25983835658E+01  0.30449566830E+02  0.10500000000E+00 0. -1.
         13    1    4    4    0    0 -0.19247061555E+02 -0.12660888020E+02  0.20739541760E+01  0.23131359123E+02  0.10500000000E+00 0.  1.
    3000001    1    5    5    0    0  0.43992006612E+02  0.32709775913E+02 -0.97887580212E+01  0.55696013050E+02  0.10000000000E+01 0.  1.
        -13    1    6    6    0    0  0.29217049183E+01  0.52711248907E+00  0.27164941158E+00  0.29831234652E+01  0.10500000000E+00 0.  1.
         13    1    6    6    0    0  0.37112825763E+01  0.81946604147E+00  0.37792010794E+00  0.38208626726E+01  0.10500000000E+00 0. -1.
</event>
<event>
11    0  0.3515428E-009  0.9118800E+02  0.7816531E-02  0.1126479E+00
         25   -1    0    0    0    0  0.00000000000E+00  0.00000000000E+00  0.99999998245E-14  0.12500000000E+03  0.12500000000E+03 0.  0.
    3000001    1    3    3    0    0  0.38169200642E+02  0.14336325896E+02  0.17872365688E+02  0.44529086821E+02  0.10000000000E+01 0. -1.
    1000022    2    1    0    0    0  0.54211855948E+02  0.22319047568E+02  0.19214191173E+02  0.62499997435E+02  0.99999663616E+01 0.  0.
    3000022    2    3    3    0    0  0.16042655306E+02  0.79827216729E+01  0.13418254857E+01  0.17970910614E+02  0.24999617732E+00 0.  0.
    1000022    2    1    0    0    0 -0.54211855948E+02 -0.22319047568E+02 -0.19214191173E+02  0.62500002565E+02  0.99999984229E+01 0.  0.
    3000022    2    5    5    0    0 -0.75390445684E+01 -0.44431121287E+00 -0.48612995879E+01  0.89849494529E+01  0.24995505435E+00 0.  0.
        -13    1    4    4    0    0  0.78881560660E+01  0.38959246157E+01  0.59607933777E+00  0.88185923088E+01  0.10500000000E+00 0.  1.
         13    1    4    4    0    0  0.81544992404E+01  0.40867970571E+01  0.74574614796E+00  0.91523183055E+01  0.10500000000E+00 0. -1.
    3000001    1    5    5    0    0 -0.46672811380E+02 -0.21874736356E+02 -0.14352891585E+02  0.53515053112E+02  0.10000000000E+01 0. -1.
        -13    1    6    6    0    0 -0.31442592393E+01 -0.12165156218E+00 -0.20123640093E+01  0.37365490994E+01  0.10500000000E+00 0.  1.
         13    1    6    6    0    0 -0.43947853291E+01 -0.32265965069E+00 -0.28489355786E+01  0.52484003534E+01  0.10500000000E+00 0. -1.
</event>
<event>
11    0  0.3515428E-009  0.9118800E+02  0.7816531E-02  0.1126479E+00
         25   -1    0    0    0    0  0.00000000000E+00  0.00000000000E+00  0.99999998245E-14  0.12500000000E+03  0.12500000000E+03 0.  0.
    3000001    1    3    3    0    0 -0.24267692132E+02 -0.36847718338E+02 -0.10850119828E+02  0.45446675659E+02  0.10000000000E+01 0. -1.
    1000022    2    1    0    0    0 -0.34711186028E+02 -0.50201074459E+02 -0.90130898955E+01  0.62499999885E+02  0.99999941910E+01 0.  0.
    3000022    2    3    3    0    0 -0.10443493895E+02 -0.13353356121E+02  0.18370299322E+01  0.17053324226E+02  0.25000749331E+00 0.  0.
    1000022    2    1    0    0    0  0.34711186028E+02  0.50201074459E+02  0.90130898955E+01  0.62500000115E+02  0.99999956332E+01 0.  0.
    3000022    2    5    5    0    0  0.27556263803E+02  0.40060709873E+02  0.11102488396E+02  0.49875203401E+02  0.25003082681E+00 0.  0.
        -13    1    4    4    0    0 -0.40160628657E+01 -0.50562392560E+01  0.66270250518E+00  0.64918807726E+01  0.10500000000E+00 0.  1.
         13    1    4    4    0    0 -0.64274310296E+01 -0.82971168651E+01  0.11743274270E+01  0.10561443453E+02  0.10500000000E+00 0. -1.
    3000001    1    5    5    0    0  0.71549222250E+01  0.10140364586E+02 -0.20893985007E+01  0.12624796714E+02  0.10000000000E+01 0. -1.
        -13    1    6    6    0    0  0.18942290889E+02  0.27561632519E+02  0.76846144703E+01  0.34314986460E+02  0.10500000000E+00 0.  1.
         13    1    6    6    0    0  0.86139729139E+01  0.12499077355E+02  0.34178739258E+01  0.15560216941E+02  0.10500000000E+00 0. -1.
</event>
<event>
11    0  0.3515428E-009  0.9118800E+02  0.7816531E-02  0.1126479E+00
         25   -1    0    0    0    0  0.00000000000E+00  0.00000000000E+00  0.99999998245E-14  0.12500000000E+03  0.12500000000E+03 0.  0.
    3000001    1    3    3    0    0 -0.43476176577E+02 -0.13785529714E+01  0.30999282878E+02  0.53423158620E+02  0.10000000000E+01 0. -1.
    1000022    2    1    0    0    0 -0.50658484343E+02  0.23117784942E+01  0.35137211401E+02  0.62499999262E+02  0.99999963513E+01 0.  0.
    3000022    2    3    3    0    0 -0.71823077662E+01  0.36903314657E+01  0.41379285228E+01  0.90768406419E+01  0.24998480643E+00 0.  0.
    1000022    2    1    0    0    0  0.50658484343E+02 -0.23117784942E+01 -0.35137211401E+02  0.62500000738E+02  0.10000005572E+02 0.  0.
    3000022    2    5    5    0    0  0.13925973373E+02 -0.12152531471E+01 -0.46296570632E+01  0.14727722148E+02  0.25000108338E+00 0.  0.
        -13    1    4    4    0    0 -0.38916249192E+01  0.20661419357E+01  0.22226770039E+01  0.49360920853E+01  0.10500000000E+00 0.  1.
         13    1    4    4    0    0 -0.32906828470E+01  0.16241895300E+01  0.19152515189E+01  0.41407485566E+01  0.10500000000E+00 0. -1.
    3000001    1    5    5    0    0  0.36732510970E+02 -0.10965253471E+01 -0.30507554338E+02  0.47772278590E+02  0.10000000000E+01 0. -1.
        -13    1    6    6    0    0  0.69686204171E+01 -0.56406692830E+00 -0.22609579585E+01  0.73486595993E+01  0.10500000000E+00 0.  1.
         13    1    6    6    0    0  0.69573529563E+01 -0.65118621884E+00 -0.23686991046E+01  0.73790625487E+01  0.10500000000E+00 0. -1.
</event>
<event>
11    0  0.3515428E-009  0.9118800E+02  0.7816531E-02  0.1126479E+00
         25   -1    0    0    0    0  0.00000000000E+00  0.00000000000E+00  0.99999998245E-14  0.12500000000E+03  0.12500000000E+03 0.  0.
    3000001    1    3    3    0    0  0.98030516309E+01  0.38578272378E+02 -0.14398689620E+02  0.42340349358E+02  0.10000000000E+01 0. -1.
    1000022    2    1    0    0    0  0.14016912696E+02  0.53576024516E+02 -0.27191649252E+02  0.62499999936E+02  0.99999979247E+01 0.  0.
    3000022    2    3    3    0    0  0.42138610653E+01  0.14997752138E+02 -0.12792959632E+02  0.20159650579E+02  0.25000206716E+00 0.  0.
    1000022    2    1    0    0    0 -0.14016912696E+02 -0.53576024516E+02  0.27191649252E+02  0.62500000064E+02  0.99999987197E+01 0.  0.
    3000022    2    5    5    0    0 -0.12203178156E+02 -0.35745906118E+02  0.22426255001E+02  0.43928200542E+02  0.25005647128E+00 0.  0.
        -13    1    4    4    0    0  0.20134833140E+01  0.70774327203E+01 -0.61242040739E+01  0.95739787709E+01  0.10500000000E+00 0.  1.
         13    1    4    4    0    0  0.22003777514E+01  0.79203194181E+01 -0.66687555580E+01  0.10585671808E+02  0.10500000000E+00 0. -1.
    3000001    1    5    5    0    0 -0.18137345408E+01 -0.17830118398E+02  0.47653942509E+01  0.18571799521E+02  0.10000000000E+01 0.  1.
        -13    1    6    6    0    0 -0.58781433737E+01 -0.17423142391E+02  0.10900208516E+02  0.21376249226E+02  0.10500000000E+00 0.  1.
         13    1    6    6    0    0 -0.63250347818E+01 -0.18322763727E+02  0.11526046485E+02  0.22551951316E+02  0.10500000000E+00 0. -1.
</event>
<event>
11    0  0.3515428E-009  0.9118800E+02  0.7816531E-02  0.1126479E+00
         25   -1    0    0    0    0  0.00000000000E+00  0.00000000000E+00  0.99999998245E-14  0.12500000000E+03  0.12500000000E+03 0.  0.
    3000001    1    3    3    0    0  0.11601999896E+02  0.88044249978E+01  0.22093272238E+02  0.26480879504E+02  0.10000000000E+01 0.  1.
    1000022    2    1    0    0    0  0.16393957309E+02  0.22826401824E+02  0.54922158013E+02  0.62499998483E+02  0.99999956518E+01 0.  0.
    3000022    2    3    3    0    0  0.47919574135E+01  0.14021976826E+02  0.32828885775E+02  0.36019118979E+02  0.25000159711E+00 0.  0.
    1000022    2    1    0    0    0 -0.16393957309E+02 -0.22826401824E+02 -0.54922158013E+02  0.62500001517E+02  0.10000014616E+02 0.  0.
    3000022    2    5    5    0    0 -0.63683520700E+01 -0.15042115580E+02 -0.23732837224E+02  0.28811997658E+02  0.24999421919E+00 0.  0.
        -13    1    4    4    0    0  0.26455640088E+01  0.79444595149E+01  0.18560442117E+02  0.20362084434E+02  0.10500000000E+00 0. -1.
         13    1    4    4    0    0  0.21463934047E+01  0.60775173113E+01  0.14268443658E+02  0.15657034545E+02  0.10500000000E+00 0.  1.
    3000001    1    5    5    0    0 -0.10025605239E+02 -0.77842862438E+01 -0.31189320789E+02  0.33688003859E+02  0.10000000000E+01 0. -1.
        -13    1    6    6    0    0 -0.34086446882E+01 -0.81578573352E+01 -0.12938090020E+02  0.15670822993E+02  0.10500000000E+00 0.  1.
         13    1    6    6    0    0 -0.29597073818E+01 -0.68842582450E+01 -0.10794747204E+02  0.13141174665E+02  0.10500000000E+00 0. -1.
</event>
<event>
11    0  0.3515428E-009  0.9118800E+02  0.7816531E-02  0.1126479E+00
         25   -1    0    0    0    0  0.00000000000E+00  0.00000000000E+00  0.99999998245E-14  0.12500000000E+03  0.12500000000E+03 0.  0.
    3000001    1    3    3    0    0 -0.19603102746E+02  0.14886529583E+01  0.42469788039E+02  0.46810048290E+02  0.10000000000E+01 0. -1.
    1000022    2    1    0    0    0 -0.23338946326E+02 -0.29968346148E+01  0.57031242096E+02  0.62499999725E+02  0.99999978682E+01 0.  0.
    3000022    2    3    3    0    0 -0.37358435800E+01 -0.44854875731E+01  0.14561454057E+02  0.15689951435E+02  0.25001150077E+00 0.  0.
    1000022    2    1    0    0    0  0.23338946326E+02  0.29968346148E+01 -0.57031242096E+02  0.62500000275E+02  0.10000001302E+02 0.  0.
    3000022    2    5    5    0    0  0.21169248881E+02  0.37010718288E+01 -0.55641286096E+02  0.59647717902E+02  0.25000321901E+00 0.  0.
        -13    1    4    4    0    0 -0.23534377956E+01 -0.27360441752E+01  0.90544681098E+01  0.97477702546E+01  0.10500000000E+00 0. -1.
         13    1    4    4    0    0 -0.13824057844E+01 -0.17494433980E+01  0.55069859474E+01  0.59421811804E+01  0.10500000000E+00 0.  1.
    3000001    1    5    5    0    0  0.21696974443E+01 -0.70423721395E+00 -0.13899560003E+01  0.28522823732E+01  0.10000000000E+01 0.  1.
        -13    1    6    6    0    0  0.75033545062E+01  0.12991374257E+01 -0.19562285189E+02  0.20992429914E+02  0.10500000000E+00 0. -1.
         13    1    6    6    0    0  0.13665894375E+02  0.24019344031E+01 -0.36079000907E+02  0.38655287987E+02  0.10500000000E+00 0.  1.
</event>
<event>
11    0  0.3515428E-009  0.9118800E+02  0.7816531E-02  0.1126479E+00
         25   -1    0    0    0    0  0.00000000000E+00  0.00000000000E+00  0.99999998245E-14  0.12500000000E+03  0.12500000000E+03 0.  0.
    3000001    1    3    3    0    0  0.23734247832E+02  0.31872944725E+02 -0.43603955157E+02  0.59004271294E+02  0.10000000000E+01 0. -1.
    1000022    2    1    0    0    0  0.25100301624E+02  0.35035059594E+02 -0.44144862318E+02  0.62500004631E+02  0.10000058370E+02 0.  0.
    3000022    2    3    3    0    0  0.13660537924E+01  0.31621148684E+01 -0.54090716081E+00  0.34957333366E+01  0.24999519779E+00 0.  0.
    1000022    2    1    0    0    0 -0.25100301624E+02 -0.35035059594E+02  0.44144862318E+02  0.62499995369E+02  0.10000000487E+02 0.  0.
    3000022    2    5    5    0    0 -0.19055388377E+02 -0.18455259748E+02  0.27772186045E+02  0.38406525976E+02  0.24996247804E+00 0.  0.
        -13    1    4    4    0    0  0.36984036966E+00  0.84022913860E+00 -0.17944434347E+00  0.94127157440E+00  0.10500000000E+00 0. -1.
         13    1    4    4    0    0  0.99621342273E+00  0.23218857298E+01 -0.36146281734E+00  0.25544617622E+01  0.10500000000E+00 0.  1.
    3000001    1    5    5    0    0 -0.60449132474E+01 -0.16579799845E+02  0.16372676273E+02  0.24093469393E+02  0.10000000000E+01 0.  1.
        -13    1    6    6    0    0 -0.97267473005E+01 -0.93600309404E+01  0.14056847777E+02  0.19489119700E+02  0.10500000000E+00 0. -1.
         13    1    6    6    0    0 -0.93286410764E+01 -0.90952288077E+01  0.13715338268E+02  0.18917406276E+02  0.10500000000E+00 0.  1.
</event>
<event>
11    0  0.3515428E-009  0.9118800E+02  0.7816531E-02  0.1126479E+00
         25   -1    0    0    0    0  0.00000000000E+00  0.00000000000E+00  0.99999998245E-14  0.12500000000E+03  0.12500000000E+03 0.  0.
    3000001    1    3    3    0    0 -0.67818711175E+01  0.74701440679E+00  0.93873334810E-01  0.68964207079E+01  0.10000000000E+01 0.  1.
    1000022    2    1    0    0    0 -0.52847371051E+02  0.30709738821E+02 -0.83855292013E+01  0.62499998913E+02  0.10000003932E+02 0.  0.
    3000022    2    3    3    0    0 -0.46065499934E+02  0.29962724414E+02 -0.84794025361E+01  0.55603578205E+02  0.25000670335E+00 0.  0.
    1000022    2    1    0    0    0  0.52847371051E+02 -0.30709738821E+02  0.83855292013E+01  0.62500001087E+02  0.10000017523E+02 0.  0.
    3000022    2    5    5    0    0  0.22763216716E+02 -0.81165365195E+01  0.52590230757E+01  0.24733823456E+02  0.24999745984E+00 0.  0.
        -13    1    4    4    0    0 -0.16176020096E+02  0.10454093767E+02 -0.29754052590E+01  0.19488862565E+02  0.10500000000E+00 0.  1.
         13    1    4    4    0    0 -0.29889479838E+02  0.19508630647E+02 -0.55039972771E+01  0.36114715639E+02  0.10500000000E+00 0. -1.
    3000001    1    5    5    0    0  0.30084154335E+02 -0.22593202302E+02  0.31265061256E+01  0.37766177631E+02  0.10000000000E+01 0.  1.
        -13    1    6    6    0    0  0.77351341766E+01 -0.27438737500E+01  0.17318312577E+01  0.83887667980E+01  0.10500000000E+00 0.  1.
         13    1    6    6    0    0  0.15028082539E+02 -0.53726627694E+01  0.35271918180E+01  0.16345056658E+02  0.10500000000E+00 0. -1.
</event>
<event>
11    0  0.3515428E-009  0.9118800E+02  0.7816531E-02  0.1126479E+00
         25   -1    0    0    0    0  0.00000000000E+00  0.00000000000E+00  0.99999998245E-14  0.12500000000E+03  0.12500000000E+03 0.  0.
    3000001    1    3    3    0    0 -0.17964440160E+02 -0.24480289414E+01 -0.23827849568E+02  0.29957976750E+02  0.10000000000E+01 0. -1.
    1000022    2    1    0    0    0 -0.42171845634E+02 -0.11817867196E+02 -0.43452540261E+02  0.62500000914E+02  0.10000015493E+02 0.  0.
    3000022    2    3    3    0    0 -0.24207405475E+02 -0.93698382550E+01 -0.19624690693E+02  0.32542024164E+02  0.25000627135E+00 0.  0.
    1000022    2    1    0    0    0  0.42171845634E+02  0.11817867196E+02  0.43452540261E+02  0.62499999086E+02  0.10000004067E+02 0.  0.
    3000022    2    5    5    0    0  0.30009686605E+02  0.59204754780E+01  0.24453837098E+02  0.39162302902E+02  0.24999937370E+00 0.  0.
        -13    1    4    4    0    0 -0.13746576593E+02 -0.53305484921E+01 -0.11228264918E+02  0.18532891661E+02  0.10500000000E+00 0. -1.
         13    1    4    4    0    0 -0.10460828881E+02 -0.40392897629E+01 -0.83964257752E+01  0.14009132503E+02  0.10500000000E+00 0.  1.
    3000001    1    5    5    0    0  0.12162159029E+02  0.58973917184E+01  0.18998703163E+02  0.23337696184E+02  0.10000000000E+01 0.  1.
        -13    1    6    6    0    0  0.10132836908E+02  0.19858194182E+01  0.83226386748E+01  0.13262548853E+02  0.10500000000E+00 0. -1.
         13    1    6    6    0    0  0.19876849698E+02  0.39346560598E+01  0.16131198423E+02  0.25899754049E+02  0.10500000000E+00 0.  1.
</event>
<event>
11    0  0.3515428E-009  0.9118800E+02  0.7816531E-02  0.1126479E+00
         25   -1    0    0    0    0  0.00000000000E+00  0.00000000000E+00  0.99999998245E-14  0.12500000000E+03  0.12500000000E+03 0.  0.
    3000001    1    3    3    0    0  0.24598312812E+02 -0.37442681776E+02  0.31319731298E+02  0.54671354294E+02  0.10000000000E+01 0. -1.
    1000022    2    1    0    0    0  0.29509292219E+02 -0.43441858140E+02  0.32376791520E+02  0.62499999847E+02  0.99999992915E+01 0.  0.
    3000022    2    3    3    0    0  0.49109794067E+01 -0.59991763637E+01  0.10570602220E+01  0.78286455526E+01  0.24995819348E+00 0.  0.
    1000022    2    1    0    0    0 -0.29509292219E+02  0.43441858140E+02 -0.32376791520E+02  0.62500000153E+02  0.10000001205E+02 0.  0.
    3000022    2    5    5    0    0 -0.44392152745E+01  0.28520586850E+01 -0.59352700281E+01  0.79454894634E+01  0.25000302100E+00 0.  0.
        -13    1    4    4    0    0  0.29105633897E+01 -0.36260143744E+01  0.58891265608E+00  0.46879849195E+01  0.10500000000E+00 0.  1.
         13    1    4    4    0    0  0.20004160170E+01 -0.23731619893E+01  0.46814756587E+00  0.31406606331E+01  0.10500000000E+00 0. -1.
    3000001    1    5    5    0    0 -0.25070076944E+02  0.40589799455E+02 -0.26441521492E+02  0.54554510690E+02  0.10000000000E+01 0. -1.
        -13    1    6    6    0    0 -0.28448960363E+01  0.18951927387E+01 -0.38359733078E+01  0.51391541320E+01  0.10500000000E+00 0.  1.
         13    1    6    6    0    0 -0.15943192382E+01  0.95686594637E+00 -0.20992967203E+01  0.28063353314E+01  0.10500000000E+00 0. -1.
</event>
<event>
11    0  0.3515428E-009  0.9118800E+02  0.7816531E-02  0.1126479E+00
         25   -1    0    0    0    0  0.00000000000E+00  0.00000000000E+00  0.99999998245E-14  0.12500000000E+03  0.12500000000E+03 0.  0.
    3000001    1    3    3    0    0 -0.38235718561E+01  0.30904769123E+02 -0.14795013718E+02  0.34490823231E+02  0.10000000000E+01 0. -1.
    1000022    2    1    0    0    0 -0.15491167553E+02  0.54210560043E+02 -0.25049720267E+02  0.62500003728E+02  0.10000044410E+02 0.  0.
    3000022    2    3    3    0    0 -0.11667595697E+02  0.23305790921E+02 -0.10254706549E+02  0.28009180497E+02  0.25001180883E+00 0.  0.
    1000022    2    1    0    0    0  0.15491167553E+02 -0.54210560043E+02  0.25049720267E+02  0.62499996272E+02  0.99999978076E+01 0.  0.
    3000022    2    5    5    0    0  0.50224087744E+01 -0.27434973831E+02  0.78177565592E+01  0.28966915581E+02  0.25000332716E+00 0.  0.
        -13    1    4    4    0    0 -0.51474073183E+01  0.10172423060E+02 -0.44381011011E+01  0.12234449697E+02  0.10500000000E+00 0.  1.
         13    1    4    4    0    0 -0.65201883789E+01  0.13133367861E+02 -0.58166054480E+01  0.15774730800E+02  0.10500000000E+00 0. -1.
    3000001    1    5    5    0    0  0.10468758779E+02 -0.26775586213E+02  0.17231963708E+02  0.33533080691E+02  0.10000000000E+01 0.  1.
        -13    1    6    6    0    0  0.22979733845E+01 -0.12194066714E+02  0.34942015681E+01  0.12891718826E+02  0.10500000000E+00 0. -1.
         13    1    6    6    0    0  0.27244353899E+01 -0.15240907117E+02  0.43235549911E+01  0.16075196754E+02  0.10500000000E+00 0.  1.
</event>
<event>
11    0  0.3515428E-009  0.9118800E+02  0.7816531E-02  0.1126479E+00
         25   -1    0    0    0    0  0.00000000000E+00  0.00000000000E+00  0.99999998245E-14  0.12500000000E+03  0.12500000000E+03 0.  0.
    3000001    1    3    3    0    0 -0.68508124237E+01  0.27302086001E+02 -0.16316433407E+02  0.32550937467E+02  0.10000000000E+01 0.  1.
    1000022    2    1    0    0    0 -0.20707054716E+02  0.52182239532E+02 -0.25582837885E+02  0.62499998196E+02  0.99999971333E+01 0.  0.
    3000022    2    3    3    0    0 -0.13856242292E+02  0.24880153531E+02 -0.92664044780E+01  0.29949060728E+02  0.24999279093E+00 0.  0.
    1000022    2    1    0    0    0  0.20707054716E+02 -0.52182239532E+02  0.25582837885E+02  0.62500001804E+02  0.10000019687E+02 0.  0.
    3000022    2    5    5    0    0  0.95965117738E+01 -0.28707628188E+02  0.86557043188E+01  0.31483403135E+02  0.25000267949E+00 0.  0.
        -13    1    4    4    0    0 -0.89233888640E+01  0.16091668720E+02 -0.59383689852E+01  0.19335043889E+02  0.10500000000E+00 0. -1.
         13    1    4    4    0    0 -0.49328534284E+01  0.87884848110E+01 -0.33280354928E+01  0.10614016839E+02  0.10500000000E+00 0.  1.
    3000001    1    5    5    0    0  0.11110542942E+02 -0.23474611344E+02  0.16927133566E+02  0.31016598669E+02  0.10000000000E+01 0.  1.
        -13    1    6    6    0    0  0.33327117789E+01 -0.97972423234E+01  0.29520525037E+01  0.10761903360E+02  0.10500000000E+00 0.  1.
         13    1    6    6    0    0  0.62637999949E+01 -0.18910385864E+02  0.57036518151E+01  0.20721499775E+02  0.10500000000E+00 0. -1.
</event>
<event>
11    0  0.3515428E-009  0.9118800E+02  0.7816531E-02  0.1126479E+00
         25   -1    0    0    0    0  0.00000000000E+00  0.00000000000E+00  0.99999998245E-14  0.12500000000E+03  0.12500000000E+03 0.  0.
    3000001    1    3    3    0    0 -0.14260674374E+02 -0.70013759425E+01 -0.70490493464E+01  0.17409054983E+02  0.10000000000E+01 0.  1.
    1000022    2    1    0    0    0 -0.57403840404E+02 -0.11966755726E+02 -0.19179306383E+02  0.62500000978E+02  0.10000009661E+02 0.  0.
    3000022    2    3    3    0    0 -0.43143166030E+02 -0.49653797833E+01 -0.12130257036E+02  0.45090945996E+02  0.25000710431E+00 0.  0.
    1000022    2    1    0    0    0  0.57403840404E+02  0.11966755726E+02  0.19179306383E+02  0.62499999022E+02  0.99999974318E+01 0.  0.
    3000022    2    5    5    0    0  0.11175577372E+02 -0.10029409967E+01  0.58730051603E+01  0.12667048193E+02  0.25000015304E+00 0.  0.
        -13    1    4    4    0    0 -0.22315685889E+02 -0.25242379838E+01 -0.63265163309E+01  0.23332326245E+02  0.10500000000E+00 0. -1.
         13    1    4    4    0    0 -0.20827480140E+02 -0.24411417994E+01 -0.58037407054E+01  0.21758619751E+02  0.10500000000E+00 0.  1.
    3000001    1    5    5    0    0  0.46228263032E+02  0.12969696723E+02  0.13306301222E+02  0.49832950829E+02  0.10000000000E+01 0. -1.
        -13    1    6    6    0    0  0.83738210396E+01 -0.77782415070E+00  0.44066207688E+01  0.94950103114E+01  0.10500000000E+00 0. -1.
         13    1    6    6    0    0  0.28017563323E+01 -0.22511684603E+00  0.14663843914E+01  0.31720378818E+01  0.10500000000E+00 0.  1.
</event>
<event>
11    0  0.3515428E-009  0.9118800E+02  0.7816531E-02  0.1126479E+00
         25   -1    0    0    0    0  0.00000000000E+00  0.00000000000E+00  0.99999998245E-14  0.12500000000E+03  0.12500000000E+03 0.  0.
    3000001    1    3    3    0    0 -0.20551846247E+02 -0.52163319385E+01  0.49082074073E+01  0.21787129297E+02  0.10000000000E+01 0.  1.
    1000022    2    1    0    0    0 -0.57268742683E+02 -0.22721741630E+02  0.32036830754E+01  0.62499998912E+02  0.99999923775E+01 0.  0.
    3000022    2    3    3    0    0 -0.36716896436E+02 -0.17505409692E+02 -0.17045243318E+01  0.40712869615E+02  0.24999344386E+00 0.  0.
    1000022    2    1    0    0    0  0.57268742683E+02  0.22721741630E+02 -0.32036830754E+01  0.62500001088E+02  0.10000005975E+02 0.  0.
    3000022    2    5    5    0    0  0.14901889569E+02  0.95729800748E+01 -0.38347098469E+01  0.18123899771E+02  0.24996616009E+00 0.  0.
        -13    1    4    4    0    0 -0.15956783683E+02 -0.75717710860E+01 -0.79743504573E+00  0.17680429592E+02  0.10500000000E+00 0.  1.
         13    1    4    4    0    0 -0.20760112753E+02 -0.99336386056E+01 -0.90708928609E+00  0.23032440023E+02  0.10500000000E+00 0. -1.
    3000001    1    5    5    0    0  0.42366853115E+02  0.13148761555E+02  0.63102677141E+00  0.44376101317E+02  0.10000000000E+01 0.  1.
        -13    1    6    6    0    0  0.11035575089E+02  0.71255302429E+01 -0.28397167545E+01  0.13439944755E+02  0.10500000000E+00 0.  1.
         13    1    6    6    0    0  0.38663144800E+01  0.24474498319E+01 -0.99499309239E+00  0.46839550160E+01  0.10500000000E+00 0. -1.
</event>
<event>
11    0  0.3515428E-009  0.9118800E+02  0.7816531E-02  0.1126479E+00
         25   -1    0    0    0    0  0.00000000000E+00  0.00000000000E+00  0.99999998245E-14  0.12500000000E+03  0.12500000000E+03 0.  0.
    3000001    1    3    3    0    0  0.92643116391E+01 -0.14656450535E+02  0.25153435917E+02  0.30566883237E+02  0.10000000000E+01 0.  1.
    1000022    2    1    0    0    0  0.26689441995E+02 -0.32222326587E+02  0.45339226901E+02  0.62499998037E+02  0.99999806974E+01 0.  0.
    3000022    2    3    3    0    0  0.17425130356E+02 -0.17565876053E+02  0.20185790984E+02  0.31933114800E+02  0.24998748404E+00 0.  0.
    1000022    2    1    0    0    0 -0.26689441995E+02  0.32222326587E+02 -0.45339226901E+02  0.62500001963E+02  0.10000005234E+02 0.  0.
    3000022    2    5    5    0    0 -0.11071941088E+02  0.12871879510E+02 -0.25674531728E+02  0.30781767886E+02  0.24998638471E+00 0.  0.
        -13    1    4    4    0    0  0.12354967250E+02 -0.12456421598E+02  0.14368634548E+02  0.22677661665E+02  0.10500000000E+00 0. -1.
         13    1    4    4    0    0  0.50701631061E+01 -0.51094544543E+01  0.58171564358E+01  0.92554531354E+01  0.10500000000E+00 0.  1.
    3000001    1    5    5    0    0 -0.15617500908E+02  0.19350447077E+02 -0.19664695173E+02  0.31718234076E+02  0.10000000000E+01 0.  1.
        -13    1    6    6    0    0 -0.68725980308E+01  0.79382501481E+01 -0.15969170666E+02  0.19112138966E+02  0.10500000000E+00 0. -1.
         13    1    6    6    0    0 -0.41993430567E+01  0.49336293619E+01 -0.97053610624E+01  0.11669628920E+02  0.10500000000E+00 0.  1.
</event>
<event>
11    0  0.3515428E-009  0.9118800E+02  0.7816531E-02  0.1126479E+00
         25   -1    0    0    0    0  0.00000000000E+00  0.00000000000E+00  0.99999998245E-14  0.12500000000E+03  0.12500000000E+03 0.  0.
    3000001    1    3    3    0    0 -0.90870405428E+01  0.13457778558E+02 -0.72583657791E+01  0.17814880951E+02  0.10000000000E+01 0.  1.
    1000022    2    1    0    0    0 -0.31105917072E+02  0.37648130053E+02 -0.37700012994E+02  0.62500006086E+02  0.10000000381E+02 0.  0.
    3000022    2    3    3    0    0 -0.22018876529E+02  0.24190351496E+02 -0.30441647215E+02  0.44685125135E+02  0.24998811355E+00 0.  0.
    1000022    2    1    0    0    0  0.31105917072E+02 -0.37648130053E+02  0.37700012994E+02  0.62499993914E+02  0.99999243031E+01 0.  0.
    3000022    2    5    5    0    0  0.60584157269E+01 -0.13100139264E+02  0.78324059495E+01  0.16423371577E+02  0.25000227072E+00 0.  0.
        -13    1    4    4    0    0 -0.12710966336E+02  0.13952933633E+02 -0.17476945356E+02  0.25723679094E+02  0.10500000000E+00 0.  1.
         13    1    4    4    0    0 -0.93079101932E+01  0.10237417863E+02 -0.12964701859E+02  0.18961446040E+02  0.10500000000E+00 0. -1.
    3000001    1    5    5    0    0  0.25047501345E+02 -0.24547990790E+02  0.29867607045E+02  0.46076622337E+02  0.10000000000E+01 0.  1.
        -13    1    6    6    0    0  0.26544354639E+01 -0.58614491286E+01  0.34434521300E+01  0.72986985889E+01  0.10500000000E+00 0.  1.
         13    1    6    6    0    0  0.34039802630E+01 -0.72386901351E+01  0.43889538194E+01  0.91246729877E+01  0.10500000000E+00 0. -1.
</event>
<event>
11    0  0.3515428E-009  0.9118800E+02  0.7816531E-02  0.1126479E+00
         25   -1    0    0    0    0  0.00000000000E+00  0.00000000000E+00  0.99999998245E-14  0.12500000000E+03  0.12500000000E+03 0.  0.
    3000001    1    3    3    0    0 -0.17485697962E+02 -0.14866998438E+02 -0.99736839300E+01  0.25044992452E+02  0.10000000000E+01 0.  1.
    1000022    2    1    0    0    0 -0.48474237609E+02 -0.35524921144E+02 -0.13945538702E+02  0.62499998656E+02  0.10000002413E+02 0.  0.
    3000022    2    3    3    0    0 -0.30988539647E+02 -0.20657922706E+02 -0.39718547721E+01  0.37455006204E+02  0.24999890892E+00 0.  0.
    1000022    2    1    0    0    0  0.48474237609E+02  0.35524921144E+02  0.13945538702E+02  0.62500001344E+02  0.10000019211E+02 0.  0.
    3000022    2    5    5    0    0  0.37819580907E+02  0.23969451486E+02  0.71362375654E+01  0.45341412520E+02  0.24999641092E+00 0.  0.
        -13    1    4    4    0    0 -0.83953499203E+01 -0.55713374710E+01 -0.10449732890E+01  0.10130384774E+02  0.10500000000E+00 0. -1.
         13    1    4    4    0    0 -0.22593189727E+02 -0.15086585235E+02 -0.29268814831E+01  0.27324621430E+02  0.10500000000E+00 0.  1.
    3000001    1    5    5    0    0  0.10654656702E+02  0.11555469658E+02  0.68093011367E+01  0.17158588824E+02  0.10000000000E+01 0. -1.
        -13    1    6    6    0    0  0.23619024679E+02  0.15029679381E+02  0.44294281080E+01  0.28343966685E+02  0.10500000000E+00 0. -1.
         13    1    6    6    0    0  0.14200556228E+02  0.89397721048E+01  0.27068094574E+01  0.16997445835E+02  0.10500000000E+00 0.  1.
</event>
<event>
11    0  0.3515428E-009  0.9118800E+02  0.7816531E-02  0.1126479E+00
         25   -1    0    0    0    0  0.00000000000E+00  0.00000000000E+00  0.99999998245E-14  0.12500000000E+03  0.12500000000E+03 0.  0.
    3000001    1    3    3    0    0 -0.26772296935E+02 -0.12532884810E+02  0.18667387744E+02  0.34975712288E+02  0.10000000000E+01 0. -1.
    1000022    2    1    0    0    0 -0.51547814590E+02 -0.22455537489E+02  0.25393345095E+02  0.62499998075E+02  0.99999715714E+01 0.  0.
    3000022    2    3    3    0    0 -0.24775517654E+02 -0.99226526796E+01  0.67259573512E+01  0.27524285788E+02  0.24998921566E+00 0.  0.
    1000022    2    1    0    0    0  0.51547814590E+02  0.22455537489E+02 -0.25393345095E+02  0.62500001925E+02  0.99999956283E+01 0.  0.
    3000022    2    5    5    0    0  0.44150887887E+02  0.15443742697E+02 -0.19434550472E+02  0.50651498888E+02  0.24999566367E+00 0.  0.
        -13    1    4    4    0    0 -0.68023521650E+01 -0.27629417494E+01  0.18375863954E+01  0.75692529914E+01  0.10500000000E+00 0.  1.
         13    1    4    4    0    0 -0.17973165489E+02 -0.71597109302E+01  0.48883709558E+01  0.19955032796E+02  0.10500000000E+00 0. -1.
    3000001    1    5    5    0    0  0.73969267024E+01  0.70117947924E+01 -0.59587946226E+01  0.11848503036E+02  0.10000000000E+01 0.  1.
        -13    1    6    6    0    0  0.10746761874E+02  0.37359704619E+01 -0.47282535344E+01  0.12321435491E+02  0.10500000000E+00 0. -1.
         13    1    6    6    0    0  0.33404126013E+02  0.11707772235E+02 -0.14706296938E+02  0.38330063397E+02  0.10500000000E+00 0.  1.
</event>
<event>
11    0  0.3515428E-009  0.9118800E+02  0.7816531E-02  0.1126479E+00
         25   -1    0    0    0    0  0.00000000000E+00  0.00000000000E+00  0.99999998245E-14  0.12500000000E+03  0.12500000000E+03 0.  0.
    3000001    1    3    3    0    0 -0.30881093181E+01 -0.14153839582E+02  0.85373707420E+01  0.16845007963E+02  0.10000000000E+01 0. -1.
    1000022    2    1    0    0    0 -0.19817555228E+02 -0.41989788441E+02  0.40624772739E+02  0.62499999766E+02  0.99999991099E+01 0.  0.
    3000022    2    3    3    0    0 -0.16729445910E+02 -0.27835948859E+02  0.32087401997E+02  0.45654991804E+02  0.25000074645E+00 0.  0.
    1000022    2    1    0    0    0  0.19817555228E+02  0.41989788441E+02 -0.40624772739E+02  0.62500000234E+02  0.10000002031E+02 0.  0.
    3000022    2    5    5    0    0  0.53492145476E+01  0.20350403278E+02 -0.14149624796E+02  0.25357984525E+02  0.24997495805E+00 0.  0.
        -13    1    4    4    0    0 -0.76100534285E+01 -0.12704850407E+02  0.14721248230E+02  0.20881865613E+02  0.10500000000E+00 0.  1.
         13    1    4    4    0    0 -0.91193924816E+01 -0.15131098452E+02  0.17366153767E+02  0.24773126190E+02  0.10500000000E+00 0. -1.
    3000001    1    5    5    0    0  0.14468340681E+02  0.21639385163E+02 -0.26475147943E+02  0.37142015708E+02  0.10000000000E+01 0. -1.
        -13    1    6    6    0    0  0.33578686784E+01  0.12564637425E+02 -0.87810731712E+01  0.15692790278E+02  0.10500000000E+00 0. -1.
         13    1    6    6    0    0  0.19913458692E+01  0.77857658526E+01 -0.53685516246E+01  0.96651942468E+01  0.10500000000E+00 0.  1.
</event>
<event>
11    0  0.3515428E-009  0.9118800E+02  0.7816531E-02  0.1126479E+00
         25   -1    0    0    0    0  0.00000000000E+00  0.00000000000E+00  0.99999998245E-14  0.12500000000E+03  0.12500000000E+03 0.  0.
    3000001    1    3    3    0    0  0.34272840956E+01 -0.37480040504E+01  0.11991596947E+01  0.53133600111E+01  0.10000000000E+01 0. -1.
    1000022    2    1    0    0    0  0.49861037477E+02 -0.19795295974E+02  0.30467574223E+02  0.62499998509E+02  0.99999966787E+01 0.  0.
    3000022    2    3    3    0    0  0.46433753382E+02 -0.16047291924E+02  0.29268414528E+02  0.57186638498E+02  0.25000499212E+00 0.  0.
    1000022    2    1    0    0    0 -0.49861037477E+02  0.19795295974E+02 -0.30467574223E+02  0.62500001491E+02  0.10000015315E+02 0.  0.
    3000022    2    5    5    0    0 -0.33962920364E+02  0.16412470682E+02 -0.25279186958E+02  0.45408687992E+02  0.24999666177E+00 0.  0.
        -13    1    4    4    0    0  0.21787488228E+02 -0.75382038745E+01  0.13812791290E+02  0.26876074661E+02  0.10500000000E+00 0. -1.
         13    1    4    4    0    0  0.24646265153E+02 -0.85090880491E+01  0.15455623238E+02  0.30310563837E+02  0.10500000000E+00 0.  1.
    3000001    1    5    5    0    0 -0.15898117114E+02  0.33828252917E+01 -0.51883872645E+01  0.17091313499E+02  0.10000000000E+01 0. -1.
        -13    1    6    6    0    0 -0.98133767958E+01  0.47686781230E+01 -0.73549084067E+01  0.13158584949E+02  0.10500000000E+00 0. -1.
         13    1    6    6    0    0 -0.24149543568E+02  0.11643792559E+02 -0.17924278552E+02  0.32250103043E+02  0.10500000000E+00 0.  1.
</event>
<event>
11    0  0.3515428E-009  0.9118800E+02  0.7816531E-02  0.1126479E+00
         25   -1    0    0    0    0  0.00000000000E+00  0.00000000000E+00  0.99999998245E-14  0.12500000000E+03  0.12500000000E+03 0.  0.
    3000001    1    3    3    0    0 -0.11754568192E+02  0.13201711848E+02  0.39875720131E+02  0.43629441036E+02  0.10000000000E+01 0. -1.
    1000022    2    1    0    0    0 -0.19112653720E+02  0.23889857750E+02  0.53574535586E+02  0.62499998286E+02  0.10000004348E+02 0.  0.
    3000022    2    3    3    0    0 -0.73580855280E+01  0.10688145902E+02  0.13698815455E+02  0.18870557251E+02  0.25000124114E+00 0.  0.
    1000022    2    1    0    0    0  0.19112653720E+02 -0.23889857750E+02 -0.53574535586E+02  0.62500001714E+02  0.10000025767E+02 0.  0.
    3000022    2    5    5    0    0 -0.35089949728E+00 -0.46365130693E+01 -0.59179814157E+01  0.75302978698E+01  0.24999614398E+00 0.  0.
        -13    1    4    4    0    0 -0.29539487814E+01  0.42600629594E+01  0.53852150111E+01  0.74756615451E+01  0.10500000000E+00 0.  1.
         13    1    4    4    0    0 -0.44041367466E+01  0.64280829424E+01  0.83136004440E+01  0.11394895706E+02  0.10500000000E+00 0. -1.
    3000001    1    5    5    0    0  0.19463553217E+02 -0.19253344681E+02 -0.47656554171E+02  0.54969703844E+02  0.10000000000E+01 0.  1.
        -13    1    6    6    0    0 -0.11912870686E+00 -0.15449929444E+01 -0.20615792489E+01  0.25811487456E+01  0.10500000000E+00 0.  1.
         13    1    6    6    0    0 -0.23177079042E+00 -0.30915201249E+01 -0.38564021667E+01  0.49491491242E+01  0.10500000000E+00 0. -1.
</event>
<event>
11    0  0.3515428E-009  0.9118800E+02  0.7816531E-02  0.1126479E+00
         25   -1    0    0    0    0  0.00000000000E+00  0.00000000000E+00  0.99999998245E-14  0.12500000000E+03  0.12500000000E+03 0.  0.
    3000001    1    3    3    0    0 -0.54630045713E+01  0.28224363107E+01  0.78436481946E-01  0.62303064094E+01  0.10000000000E+01 0.  1.
    1000022    2    1    0    0    0 -0.45988686424E+02  0.30295659266E+02  0.27811214858E+02  0.62499999539E+02  0.10000001053E+02 0.  0.
    3000022    2    3    3    0    0 -0.40525681853E+02  0.27473222955E+02  0.27732778376E+02  0.56269693129E+02  0.24999840235E+00 0.  0.
    1000022    2    1    0    0    0  0.45988686424E+02 -0.30295659266E+02 -0.27811214858E+02  0.62500000461E+02  0.10000006820E+02 0.  0.
    3000022    2    5    5    0    0  0.40913763004E+02 -0.22774192895E+02 -0.23838459051E+02  0.52544595257E+02  0.24999115138E+00 0.  0.
        -13    1    4    4    0    0 -0.19802771599E+02  0.13480773326E+02  0.13626145965E+02  0.27560186707E+02  0.10500000000E+00 0.  1.
         13    1    4    4    0    0 -0.20722910254E+02  0.13992449629E+02  0.14106632411E+02  0.28709506422E+02  0.10500000000E+00 0. -1.
    3000001    1    5    5    0    0  0.50749234199E+01 -0.75214663706E+01 -0.39727558071E+01  0.99554052045E+01  0.10000000000E+01 0. -1.
        -13    1    6    6    0    0  0.15292330031E+02 -0.85787121123E+01 -0.89089766095E+01  0.19668008249E+02  0.10500000000E+00 0. -1.
         13    1    6    6    0    0  0.25621432974E+02 -0.14195480783E+02 -0.14929482442E+02  0.32876587007E+02  0.10500000000E+00 0.  1.
</event>
<event>
11    0  0.3515428E-009  0.9118800E+02  0.7816531E-02  0.1126479E+00
         25   -1    0    0    0    0  0.00000000000E+00  0.00000000000E+00  0.99999998245E-14  0.12500000000E+03  0.12500000000E+03 0.  0.
    3000001    1    3    3    0    0  0.48028449077E+02  0.82762673302E+01 -0.26397369482E+02  0.55435093913E+02  0.10000000000E+01 0. -1.
    1000022    2    1    0    0    0  0.55076112220E+02  0.79308916888E+01 -0.26645322512E+02  0.62499994957E+02  0.99999488805E+01 0.  0.
    3000022    2    3    3    0    0  0.70476631432E+01 -0.34537564140E+00 -0.24795303012E+00  0.70649010435E+01  0.25001187088E+00 0.  0.
    1000022    2    1    0    0    0 -0.55076112220E+02 -0.79308916888E+01  0.26645322512E+02  0.62500005043E+02  0.10000011922E+02 0.  0.
    3000022    2    5    5    0    0 -0.49749299740E+02 -0.73582513688E+01  0.20561613412E+02  0.54332118870E+02  0.25001393096E+00 0.  0.
        -13    1    4    4    0    0  0.16563317374E+01 -0.85082822506E-01 -0.72645394225E-01  0.16634230563E+01  0.10500000000E+00 0.  1.
         13    1    4    4    0    0  0.53913314058E+01 -0.26029281889E+00 -0.17530763590E+00  0.54014779872E+01  0.10500000000E+00 0. -1.
    3000001    1    5    5    0    0 -0.53268124800E+01 -0.57264031999E+00  0.60837091000E+01  0.81678861737E+01  0.10000000000E+01 0.  1.
        -13    1    6    6    0    0 -0.15452260596E+02 -0.22641832804E+01  0.63380496873E+01  0.16854696150E+02  0.10500000000E+00 0.  1.
         13    1    6    6    0    0 -0.34297039144E+02 -0.50940680884E+01  0.14223563724E+02  0.37477422720E+02  0.10500000000E+00 0. -1.
</event>
<event>
11    0  0.3515428E-009  0.9118800E+02  0.7816531E-02  0.1126479E+00
         25   -1    0    0    0    0  0.00000000000E+00  0.00000000000E+00  0.99999998245E-14  0.12500000000E+03  0.12500000000E+03 0.  0.
    3000001    1    3    3    0    0 -0.23064257092E+02  0.61583014599E+01 -0.29601393310E+02  0.38041124036E+02  0.10000000000E+01 0. -1.
    1000022    2    1    0    0    0 -0.32059234592E+02  0.15187819267E+02 -0.50475593323E+02  0.62499999025E+02  0.99999990059E+01 0.  0.
    3000022    2    3    3    0    0 -0.89949775005E+01  0.90295178073E+01 -0.20874200013E+02  0.24458874989E+02  0.25005493154E+00 0.  0.
    1000022    2    1    0    0    0  0.32059234592E+02 -0.15187819267E+02  0.50475593323E+02  0.62500000975E+02  0.10000011191E+02 0.  0.
    3000022    2    5    5    0    0  0.27516189083E+02 -0.15453122469E+02  0.47297525303E+02  0.56859986380E+02  0.24999131520E+00 0.  0.
        -13    1    4    4    0    0 -0.36617863503E+01  0.36685585637E+01 -0.83681229914E+01  0.98439579748E+01  0.10500000000E+00 0. -1.
         13    1    4    4    0    0 -0.53331911503E+01  0.53609592436E+01 -0.12506077022E+02  0.14614917014E+02  0.10500000000E+00 0.  1.
    3000001    1    5    5    0    0  0.45430455096E+01  0.26530320215E+00  0.31780680199E+01  0.56400145949E+01  0.10000000000E+01 0.  1.
        -13    1    6    6    0    0  0.15582168070E+02 -0.87575863784E+01  0.26670815313E+02  0.32106739096E+02  0.10500000000E+00 0.  1.
         13    1    6    6    0    0  0.11934021012E+02 -0.66955360909E+01  0.20626709990E+02  0.24753247284E+02  0.10500000000E+00 0. -1.
</event>
<event>
11    0  0.3515428E-009  0.9118800E+02  0.7816531E-02  0.1126479E+00
         25   -1    0    0    0    0  0.00000000000E+00  0.00000000000E+00  0.99999998245E-14  0.12500000000E+03  0.12500000000E+03 0.  0.
    3000001    1    3    3    0    0 -0.27926888365E+00  0.53853333000E+01  0.80930879196E+00  0.55438963358E+01  0.10000000000E+01 0.  1.
    1000022    2    1    0    0    0 -0.28695989300E+02  0.50273816760E+02  0.21338542470E+02  0.62500001254E+02  0.10000015428E+02 0.  0.
    3000022    2    3    3    0    0 -0.28416720416E+02  0.44888483460E+02  0.20529233678E+02  0.56956104919E+02  0.25001112239E+00 0.  0.
    1000022    2    1    0    0    0  0.28695989300E+02 -0.50273816760E+02 -0.21338542470E+02  0.62499998746E+02  0.99999997480E+01 0.  0.
    3000022    2    5    5    0    0  0.92991275521E+00 -0.31598578090E+00  0.70322536689E+00  0.12335363687E+01  0.25000262066E+00 0.  0.
        -13    1    4    4    0    0 -0.12674652014E+02  0.20145815718E+02  0.92009741983E+01  0.25518025900E+02  0.10500000000E+00 0.  1.
         13    1    4    4    0    0 -0.15742068402E+02  0.24742667742E+02  0.11328259479E+02  0.31438079019E+02  0.10500000000E+00 0. -1.
    3000001    1    5    5    0    0  0.27766076545E+02 -0.49957830979E+02 -0.22041767836E+02  0.61266462377E+02  0.10000000000E+01 0. -1.
        -13    1    6    6    0    0  0.44869527792E+00 -0.12368761401E+00  0.40901898741E+00  0.62844857415E+00  0.10500000000E+00 0.  1.
         13    1    6    6    0    0  0.48121747729E+00 -0.19229816689E+00  0.29420637948E+00  0.60508779459E+00  0.10500000000E+00 0. -1.
</event>
<event>
11    0  0.3515428E-009  0.9118800E+02  0.7816531E-02  0.1126479E+00
         25   -1    0    0    0    0  0.00000000000E+00  0.00000000000E+00  0.99999998245E-14  0.12500000000E+03  0.12500000000E+03 0.  0.
    3000001    1    3    3    0    0 -0.57759846465E+02 -0.16319167517E+02  0.48824997964E+01  0.60227517767E+02  0.10000000000E+01 0. -1.
    1000022    2    1    0    0    0 -0.59187525368E+02 -0.16101962102E+02  0.66192233426E+01  0.62499995539E+02  0.99999490968E+01 0.  0.
    3000022    2    3    3    0    0 -0.14276789035E+01  0.21720541451E+00  0.17367235462E+01  0.22724777722E+01  0.25000261104E+00 0.  0.
    1000022    2    1    0    0    0  0.59187525368E+02  0.16101962102E+02 -0.66192233426E+01  0.62500004461E+02  0.10000004861E+02 0.  0.
    3000022    2    5    5    0    0  0.57567760850E+02  0.14064772304E+02 -0.55767343284E+01  0.59523334726E+02  0.25000369063E+00 0.  0.
        -13    1    4    4    0    0 -0.41793104703E+00  0.26883463066E-01  0.54977042340E+00  0.69904334566E+00  0.10500000000E+00 0. -1.
         13    1    4    4    0    0 -0.10097478564E+01  0.19032195145E+00  0.11869531228E+01  0.15734344265E+01  0.10500000000E+00 0.  1.
    3000001    1    5    5    0    0  0.16197645178E+01  0.20371897981E+01 -0.10424890142E+01  0.29766697350E+01  0.10000000000E+01 0.  1.
        -13    1    6    6    0    0  0.22205711708E+02  0.54822840009E+01 -0.21792799880E+01  0.22976278127E+02  0.10500000000E+00 0. -1.
         13    1    6    6    0    0  0.35362049143E+02  0.85824883033E+01 -0.33974543404E+01  0.36547056599E+02  0.10500000000E+00 0.  1.
</event>
<event>
11    0  0.3515428E-009  0.9118800E+02  0.7816531E-02  0.1126479E+00
         25   -1    0    0    0    0  0.00000000000E+00  0.00000000000E+00  0.99999998245E-14  0.12500000000E+03  0.12500000000E+03 0.  0.
    3000001    1    3    3    0    0 -0.16781369257E+01  0.40837557726E+02  0.78826765866E+00  0.40891852862E+02  0.10000000000E+01 0.  1.
    1000022    2    1    0    0    0  0.13350870700E+01  0.61264017407E+02  0.71545675048E+01  0.62500000500E+02  0.99999970036E+01 0.  0.
    3000022    2    3    3    0    0  0.30132239956E+01  0.20426459680E+02  0.63662998461E+01  0.21608147638E+02  0.24999341188E+00 0.  0.
    1000022    2    1    0    0    0 -0.13350870700E+01 -0.61264017407E+02 -0.71545675048E+01  0.62499999500E+02  0.99999907497E+01 0.  0.
    3000022    2    5    5    0    0  0.28678364354E+01 -0.40726499555E+02 -0.19363862525E+01  0.40874005393E+02  0.24994673072E+00 0.  0.
        -13    1    4    4    0    0  0.18862859261E+01  0.12744151295E+02  0.40349164288E+01  0.13500483044E+02  0.10500000000E+00 0. -1.
         13    1    4    4    0    0  0.11269380696E+01  0.76823083852E+01  0.23313834173E+01  0.81076645945E+01  0.10500000000E+00 0.  1.
    3000001    1    5    5    0    0 -0.42029235053E+01 -0.20537517852E+02 -0.52181812523E+01  0.21625994107E+02  0.10000000000E+01 0.  1.
        -13    1    6    6    0    0  0.15516482068E+01 -0.22948038178E+02 -0.10756660391E+01  0.23025814879E+02  0.10500000000E+00 0. -1.
         13    1    6    6    0    0  0.13161882285E+01 -0.17778461376E+02 -0.86072021337E+00  0.17848190515E+02  0.10500000000E+00 0.  1.
</event>
<event>
11    0  0.3515428E-009  0.9118800E+02  0.7816531E-02  0.1126479E+00
         25   -1    0    0    0    0  0.00000000000E+00  0.00000000000E+00  0.99999998245E-14  0.12500000000E+03  0.12500000000E+03 0.  0.
    3000001    1    3    3    0    0  0.11137159061E+02 -0.28173725389E+02 -0.16337352451E+02  0.34434055807E+02  0.10000000000E+01 0.  1.
    1000022    2    1    0    0    0  0.18774874927E+02 -0.45873459057E+02 -0.36733907490E+02  0.62500000111E+02  0.99999939971E+01 0.  0.
    3000022    2    3    3    0    0  0.76377158667E+01 -0.17699733668E+02 -0.20396555039E+02  0.28065944304E+02  0.24999317026E+00 0.  0.
    1000022    2    1    0    0    0 -0.18774874927E+02  0.45873459057E+02  0.36733907490E+02  0.62499999889E+02  0.99999926115E+01 0.  0.
    3000022    2    5    5    0    0 -0.14702392645E+02  0.32302883164E+02  0.20732522354E+02  0.41103972962E+02  0.24999970161E+00 0.  0.
        -13    1    4    4    0    0  0.46549204385E+01 -0.10643434758E+02 -0.12329025590E+02  0.16940096952E+02  0.10500000000E+00 0.  1.
         13    1    4    4    0    0  0.29827954282E+01 -0.70562989103E+01 -0.80675294495E+01  0.11125847352E+02  0.10500000000E+00 0. -1.
    3000001    1    5    5    0    0 -0.40724822818E+01  0.13570575893E+02  0.16001385136E+02  0.21396026927E+02  0.10000000000E+01 0.  1.
        -13    1    6    6    0    0 -0.46086078805E+01  0.10049388532E+02  0.64154142507E+01  0.12782724337E+02  0.10500000000E+00 0.  1.
         13    1    6    6    0    0 -0.10093784765E+02  0.22253494633E+02  0.14317108103E+02  0.28321248625E+02  0.10500000000E+00 0. -1.
</event>
<event>
11    0  0.3515428E-009  0.9118800E+02  0.7816531E-02  0.1126479E+00
         25   -1    0    0    0    0  0.00000000000E+00  0.00000000000E+00  0.99999998245E-14  0.12500000000E+03  0.12500000000E+03 0.  0.
    3000001    1    3    3    0    0 -0.15294493641E+01  0.57289840541E+02  0.11310572282E+02  0.58424259430E+02  0.10000000000E+01 0. -1.
    1000022    2    1    0    0    0 -0.11244048569E+01  0.60000019946E+02  0.14317234841E+02  0.62499998931E+02  0.99999986526E+01 0.  0.
    3000022    2    3    3    0    0  0.40504450721E+00  0.27101794057E+01  0.30066625594E+01  0.40757395018E+01  0.24999855256E+00 0.  0.
    1000022    2    1    0    0    0  0.11244048569E+01 -0.60000019946E+02 -0.14317234841E+02  0.62500001069E+02  0.10000012011E+02 0.  0.
    3000022    2    5    5    0    0  0.23798120152E+01 -0.31308834762E+02 -0.27399419894E+01  0.31519460979E+02  0.24999793563E+00 0.  0.
        -13    1    4    4    0    0  0.13401032978E+00  0.13460220655E+01  0.14623894226E+01  0.19948288129E+01  0.10500000000E+00 0.  1.
         13    1    4    4    0    0  0.27103417743E+00  0.13641573402E+01  0.15442731368E+01  0.20809106889E+01  0.10500000000E+00 0. -1.
    3000001    1    5    5    0    0 -0.12554071583E+01 -0.28691185185E+02 -0.11577292852E+02  0.30980540089E+02  0.10000000000E+01 0. -1.
        -13    1    6    6    0    0  0.17012211479E+01 -0.22233689749E+02 -0.19873427570E+01  0.22387310457E+02  0.10500000000E+00 0. -1.
         13    1    6    6    0    0  0.67859086734E+00 -0.90751450126E+01 -0.75259923246E+00  0.91321505227E+01  0.10500000000E+00 0.  1.
</event>
<event>
11    0  0.3515428E-009  0.9118800E+02  0.7816531E-02  0.1126479E+00
         25   -1    0    0    0    0  0.00000000000E+00  0.00000000000E+00  0.99999998245E-14  0.12500000000E+03  0.12500000000E+03 0.  0.
    3000001    1    3    3    0    0  0.30195236294E+01  0.22795740050E+01 -0.35804351429E+01  0.53041018472E+01  0.10000000000E+01 0. -1.
    1000022    2    1    0    0    0  0.19360851147E+02  0.50185504286E+02 -0.30212953713E+02  0.62499999148E+02  0.99999961952E+01 0.  0.
    3000022    2    3    3    0    0  0.16341327518E+02  0.47905930281E+02 -0.26632518570E+02  0.57195897301E+02  0.24996314973E+00 0.  0.
    1000022    2    1    0    0    0 -0.19360851147E+02 -0.50185504286E+02  0.30212953713E+02  0.62500000852E+02  0.10000006848E+02 0.  0.
    3000022    2    5    5    0    0 -0.67762824253E+01 -0.15351978896E+02  0.14781886198E+02  0.22364434261E+02  0.25000140869E+00 0.  0.
        -13    1    4    4    0    0  0.68801076930E+01  0.20370464561E+02 -0.11306222415E+02  0.24292661414E+02  0.10500000000E+00 0. -1.
         13    1    4    4    0    0  0.94612198245E+01  0.27535465720E+02 -0.15326296154E+02  0.32903235886E+02  0.10500000000E+00 0.  1.
    3000001    1    5    5    0    0 -0.12584568722E+02 -0.34833525389E+02  0.15431067514E+02  0.40135566591E+02  0.10000000000E+01 0.  1.
        -13    1    6    6    0    0 -0.23928410547E+01 -0.55235759864E+01  0.53567982790E+01  0.80586532865E+01  0.10500000000E+00 0.  1.
         13    1    6    6    0    0 -0.43834413706E+01 -0.98284029100E+01  0.94250879192E+01  0.14305780975E+02  0.10500000000E+00 0. -1.
</event>
<event>
11    0  0.3515428E-009  0.9118800E+02  0.7816531E-02  0.1126479E+00
         25   -1    0    0    0    0  0.00000000000E+00  0.00000000000E+00  0.99999998245E-14  0.12500000000E+03  0.12500000000E+03 0.  0.
    3000001    1    3    3    0    0  0.15208708510E+02 -0.19746206202E+01  0.43308162891E+01  0.15967464134E+02  0.10000000000E+01 0. -1.
    1000022    2    1    0    0    0  0.53040097885E+02 -0.22141836037E+02  0.22421805174E+02  0.62500001053E+02  0.99999948804E+01 0.  0.
    3000022    2    3    3    0    0  0.37831389375E+02 -0.20167215417E+02  0.18090988884E+02  0.46532536919E+02  0.25002715317E+00 0.  0.
    1000022    2    1    0    0    0 -0.53040097885E+02  0.22141836037E+02 -0.22421805174E+02  0.62499998947E+02  0.99999817157E+01 0.  0.
    3000022    2    5    5    0    0 -0.16691751723E+02  0.11888420732E+02 -0.93052922736E+01  0.22507778393E+02  0.25000162659E+00 0.  0.
        -13    1    4    4    0    0  0.25092936426E+02 -0.13343692545E+02  0.12042585523E+02  0.30866559256E+02  0.10500000000E+00 0. -1.
         13    1    4    4    0    0  0.12738452949E+02 -0.68235228716E+01  0.60484033615E+01  0.15665977663E+02  0.10500000000E+00 0.  1.
    3000001    1    5    5    0    0 -0.36348346162E+02  0.10253415305E+02 -0.13116512900E+02  0.39992220553E+02  0.10000000000E+01 0.  1.
        -13    1    6    6    0    0 -0.12622664471E+02  0.89729557062E+01 -0.70124782861E+01  0.17000925539E+02  0.10500000000E+00 0. -1.
         13    1    6    6    0    0 -0.40690872519E+01  0.29154650257E+01 -0.22928139875E+01  0.55068528545E+01  0.10500000000E+00 0.  1.
</event>
<event>
11    0  0.3515428E-009  0.9118800E+02  0.7816531E-02  0.1126479E+00
         25   -1    0    0    0    0  0.00000000000E+00  0.00000000000E+00  0.99999998245E-14  0.12500000000E+03  0.12500000000E+03 0.  0.
    3000001    1    3    3    0    0 -0.45423333428E+02 -0.15874389624E+02 -0.28564400919E+02  0.55966065303E+02  0.10000000000E+01 0. -1.
    1000022    2    1    0    0    0 -0.51803580001E+02 -0.15281845089E+02 -0.29817852538E+02  0.62500000370E+02  0.10000001300E+02 0.  0.
    3000022    2    3    3    0    0 -0.63802465728E+01  0.59254453501E+00 -0.12534516186E+01  0.65339350664E+01  0.25002227242E+00 0.  0.
    1000022    2    1    0    0    0  0.51803580001E+02  0.15281845089E+02  0.29817852538E+02  0.62499999630E+02  0.99999966788E+01 0.  0.
    3000022    2    5    5    0    0  0.35659960818E+02  0.12412075167E+02  0.15902731138E+02  0.40971353056E+02  0.24999627329E+00 0.  0.
        -13    1    4    4    0    0 -0.32724591909E+01  0.36994582575E+00 -0.62737236873E+00  0.33541720527E+01  0.10500000000E+00 0. -1.
         13    1    4    4    0    0 -0.31077873819E+01  0.22259870926E+00 -0.62607924989E+00  0.31797630137E+01  0.10500000000E+00 0.  1.
    3000001    1    5    5    0    0  0.16143619183E+02  0.28697699219E+01  0.13915121400E+02  0.21528646574E+02  0.10000000000E+01 0.  1.
        -13    1    6    6    0    0  0.22497657551E+02  0.77715216811E+01  0.10002600619E+02  0.25818679065E+02  0.10500000000E+00 0.  1.
         13    1    6    6    0    0  0.13162303267E+02  0.46405534860E+01  0.59001305191E+01  0.15152673992E+02  0.10500000000E+00 0. -1.
</event>
<event>
11    0  0.3515428E-009  0.9118800E+02  0.7816531E-02  0.1126479E+00
         25   -1    0    0    0    0  0.00000000000E+00  0.00000000000E+00  0.99999998245E-14  0.12500000000E+03  0.12500000000E+03 0.  0.
    3000001    1    3    3    0    0 -0.51188353463E+02 -0.33330836400E+02  0.13372676961E+01  0.61106304669E+02  0.10000000000E+01 0. -1.
    1000022    2    1    0    0    0 -0.51256859167E+02 -0.34256045281E+02  0.23468104804E+01  0.62499998216E+02  0.10000000382E+02 0.  0.
    3000022    2    3    3    0    0 -0.68505703447E-01 -0.92520888067E+00  0.10095427843E+01  0.13936935469E+01  0.25000113011E+00 0.  0.
    1000022    2    1    0    0    0  0.51256859167E+02  0.34256045281E+02 -0.23468104804E+01  0.62500001784E+02  0.10000022683E+02 0.  0.
    3000022    2    5    5    0    0  0.12010961852E+02  0.41194102709E+01 -0.28032714619E+01  0.13005905344E+02  0.24999469517E+00 0.  0.
        -13    1    4    4    0    0 -0.72808677805E-01 -0.63355237556E+00  0.61740089823E+00  0.89381126938E+00  0.10500000000E+00 0.  1.
         13    1    4    4    0    0  0.43029743581E-02 -0.29165650512E+00  0.39214188610E+00  0.49988227754E+00  0.10500000000E+00 0. -1.
    3000001    1    5    5    0    0  0.39245897315E+02  0.30136635010E+02  0.45646098156E+00  0.49494096440E+02  0.10000000000E+01 0. -1.
        -13    1    6    6    0    0  0.32166416638E+01  0.10891313714E+01 -0.78306295492E+00  0.34867181316E+01  0.10500000000E+00 0.  1.
         13    1    6    6    0    0  0.87943201877E+01  0.30302788994E+01 -0.20202085070E+01  0.95191872124E+01  0.10500000000E+00 0. -1.
</event>
<event>
11    0  0.3515428E-009  0.9118800E+02  0.7816531E-02  0.1126479E+00
         25   -1    0    0    0    0  0.00000000000E+00  0.00000000000E+00  0.99999998245E-14  0.12500000000E+03  0.12500000000E+03 0.  0.
    3000001    1    3    3    0    0  0.24762126450E+01 -0.38846485279E+01 -0.47901644696E+02  0.48133041539E+02  0.10000000000E+01 0.  1.
    1000022    2    1    0    0    0  0.44940275947E+01 -0.10092780266E+02 -0.60697524888E+02  0.62500000681E+02  0.10000003004E+02 0.  0.
    3000022    2    3    3    0    0  0.20178149496E+01 -0.62081317377E+01 -0.12795880192E+02  0.14366959142E+02  0.24997649207E+00 0.  0.
    1000022    2    1    0    0    0 -0.44940275947E+01  0.10092780266E+02  0.60697524888E+02  0.62499999319E+02  0.99999944943E+01 0.  0.
    3000022    2    5    5    0    0 -0.35332426035E+01 -0.28286465045E+00  0.26472769819E+02  0.26710182684E+02  0.25000289478E+00 0.  0.
        -13    1    4    4    0    0  0.10785627457E+01 -0.32207020698E+01 -0.67902488756E+01  0.75930708024E+01  0.10500000000E+00 0.  1.
         13    1    4    4    0    0  0.93925220392E+00 -0.29874296679E+01 -0.60056313164E+01  0.67738883392E+01  0.10500000000E+00 0. -1.
    3000001    1    5    5    0    0 -0.96078499120E+00  0.10375644916E+02  0.34224755069E+02  0.35789816635E+02  0.10000000000E+01 0.  1.
        -13    1    6    6    0    0 -0.15925097377E+01 -0.77785929939E-01  0.11573736344E+02  0.11683515562E+02  0.10500000000E+00 0.  1.
         13    1    6    6    0    0 -0.19407328658E+01 -0.20507872052E+00  0.14899033474E+02  0.15026667123E+02  0.10500000000E+00 0. -1.
</event>
<event>
11    0  0.3515428E-009  0.9118800E+02  0.7816531E-02  0.1126479E+00
         25   -1    0    0    0    0  0.00000000000E+00  0.00000000000E+00  0.99999998245E-14  0.12500000000E+03  0.12500000000E+03 0.  0.
    3000001    1    3    3    0    0  0.99736397763E+01 -0.84006272623E+01 -0.96644975249E+01  0.16261812359E+02  0.10000000000E+01 0. -1.
    1000022    2    1    0    0    0  0.49029799752E+02 -0.21472557755E+02 -0.30679931257E+02  0.62499999538E+02  0.99999880038E+01 0.  0.
    3000022    2    3    3    0    0  0.39056159975E+02 -0.13071930492E+02 -0.21015433732E+02  0.46238187179E+02  0.24999964813E+00 0.  0.
    1000022    2    1    0    0    0 -0.49029799752E+02  0.21472557755E+02  0.30679931257E+02  0.62500000462E+02  0.99999937839E+01 0.  0.
    3000022    2    5    5    0    0 -0.32126094718E+02  0.17083200710E+02  0.24844574139E+02  0.44059471950E+02  0.24999205051E+00 0.  0.
        -13    1    4    4    0    0  0.16062455421E+02 -0.54172737266E+01 -0.87067192772E+01  0.19056949240E+02  0.10500000000E+00 0.  1.
         13    1    4    4    0    0  0.22993704555E+02 -0.76546567659E+01 -0.12308714454E+02  0.27181237938E+02  0.10500000000E+00 0. -1.
    3000001    1    5    5    0    0 -0.16903705034E+02  0.43893570443E+01  0.58353571178E+01  0.18440528513E+02  0.10000000000E+01 0. -1.
        -13    1    6    6    0    0 -0.16247203478E+02  0.86633051473E+01  0.12650380024E+02  0.22339821321E+02  0.10500000000E+00 0. -1.
         13    1    6    6    0    0 -0.15878891240E+02  0.84198955631E+01  0.12194194115E+02  0.21719650628E+02  0.10500000000E+00 0.  1.
</event>
<event>
11    0  0.3515428E-009  0.9118800E+02  0.7816531E-02  0.1126479E+00
         25   -1    0    0    0    0  0.00000000000E+00  0.00000000000E+00  0.99999998245E-14  0.12500000000E+03  0.12500000000E+03 0.  0.
    3000001    1    3    3    0    0  0.32211460316E+01 -0.16609914268E+02 -0.23240461732E+01  0.17107490300E+02  0.10000000000E+01 0.  1.
    1000022    2    1    0    0    0 -0.36349534553E+01 -0.60257400008E+02 -0.12731178570E+02  0.62500000848E+02  0.10000002792E+02 0.  0.
    3000022    2    3    3    0    0 -0.68560994869E+01 -0.43647485741E+02 -0.10407132397E+02  0.45392510549E+02  0.24999502275E+00 0.  0.
    1000022    2    1    0    0    0  0.36349534553E+01  0.60257400008E+02  0.12731178570E+02  0.62499999152E+02  0.99999921919E+01 0.  0.
    3000022    2    5    5    0    0 -0.13078742506E+01  0.40144083703E+02  0.11246840485E+02  0.41711052616E+02  0.24999605898E+00 0.  0.
        -13    1    4    4    0    0 -0.33962596963E+01 -0.21711286271E+02 -0.51080566219E+01  0.22561422803E+02  0.10500000000E+00 0. -1.
         13    1    4    4    0    0 -0.34598397906E+01 -0.21936199470E+02 -0.52990757748E+01  0.22831087745E+02  0.10500000000E+00 0.  1.
    3000001    1    5    5    0    0  0.49428277059E+01  0.20113316306E+02  0.14843380849E+01  0.20788946536E+02  0.10000000000E+01 0.  1.
        -13    1    6    6    0    0 -0.47384128382E+00  0.13587349853E+02  0.37605863638E+01  0.14106510425E+02  0.10500000000E+00 0. -1.
         13    1    6    6    0    0 -0.83403296676E+00  0.26556733850E+02  0.74862541212E+01  0.27604542191E+02  0.10500000000E+00 0.  1.
</event>
<event>
11    0  0.3515428E-009  0.9118800E+02  0.7816531E-02  0.1126479E+00
         25   -1    0    0    0    0  0.00000000000E+00  0.00000000000E+00  0.99999998245E-14  0.12500000000E+03  0.12500000000E+03 0.  0.
    3000001    1    3    3    0    0  0.95891330607E+01  0.32833116793E+02 -0.14527662962E+02  0.37175502987E+02  0.10000000000E+01 0. -1.
    1000022    2    1    0    0    0  0.23287924567E+02  0.53093038363E+02 -0.21096250873E+02  0.62500000170E+02  0.10000003354E+02 0.  0.
    3000022    2    3    3    0    0  0.13698791506E+02  0.20259921570E+02 -0.65685879112E+01  0.25324497183E+02  0.24999934358E+00 0.  0.
    1000022    2    1    0    0    0 -0.23287924567E+02 -0.53093038363E+02  0.21096250873E+02  0.62499999830E+02  0.10000001232E+02 0.  0.
    3000022    2    5    5    0    0  0.18405748611E+00 -0.47969158223E+01  0.24193642493E-01  0.48070107425E+01  0.24997676191E+00 0.  0.
        -13    1    4    4    0    0  0.85143363567E+01  0.12696334138E+02 -0.40900135177E+01  0.15824982139E+02  0.10500000000E+00 0. -1.
         13    1    4    4    0    0  0.51844551494E+01  0.75635874324E+01 -0.24785743935E+01  0.94995150438E+01  0.10500000000E+00 0.  1.
    3000001    1    5    5    0    0 -0.23471982053E+02 -0.48296122541E+02  0.21072057230E+02  0.57692989088E+02  0.10000000000E+01 0. -1.
        -13    1    6    6    0    0  0.11933939982E+00 -0.33525169759E+01  0.62143241589E-01  0.33568584642E+01  0.10500000000E+00 0.  1.
         13    1    6    6    0    0  0.64718086291E-01 -0.14443988465E+01 -0.37949599096E-01  0.14501522784E+01  0.10500000000E+00 0. -1.
</event>
<event>
11    0  0.3515428E-009  0.9118800E+02  0.7816531E-02  0.1126479E+00
         25   -1    0    0    0    0  0.00000000000E+00  0.00000000000E+00  0.99999998245E-14  0.12500000000E+03  0.12500000000E+03 0.  0.
    3000001    1    3    3    0    0 -0.32672358643E+01 -0.74521808090E+01  0.58451664438E+02  0.59023782534E+02  0.10000000000E+01 0.  1.
    1000022    2    1    0    0    0 -0.24812873976E+01 -0.57617008573E+01  0.61375044174E+02  0.62499999942E+02  0.99999980783E+01 0.  0.
    3000022    2    3    3    0    0  0.78594846665E+00  0.16904799517E+01  0.29233797352E+01  0.34762174084E+01  0.25000186923E+00 0.  0.
    1000022    2    1    0    0    0  0.24812873976E+01  0.57617008573E+01 -0.61375044174E+02  0.62500000058E+02  0.99999987977E+01 0.  0.
    3000022    2    5    5    0    0  0.90656135948E-01  0.27381684344E+01 -0.33338449032E+01  0.43223610637E+01  0.24999683246E+00 0.  0.
        -13    1    4    4    0    0  0.43772973548E+00  0.83151717264E+00  0.15630533602E+01  0.18267974536E+01  0.10500000000E+00 0.  1.
         13    1    4    4    0    0  0.34821873116E+00  0.85896277907E+00  0.13603263750E+01  0.16494199548E+01  0.10500000000E+00 0. -1.
    3000001    1    5    5    0    0  0.23906312617E+01  0.30235324229E+01 -0.58041199271E+02  0.58177638994E+02  0.10000000000E+01 0.  1.
        -13    1    6    6    0    0  0.47325319165E-01  0.15511071552E+01 -0.19896992838E+01  0.25254903153E+01  0.10500000000E+00 0. -1.
         13    1    6    6    0    0  0.43330816782E-01  0.11870612792E+01 -0.13441456193E+01  0.17968707484E+01  0.10500000000E+00 0.  1.
</event>
<event>
11    0  0.3515428E-009  0.9118800E+02  0.7816531E-02  0.1126479E+00
         25   -1    0    0    0    0  0.00000000000E+00  0.00000000000E+00  0.99999998245E-14  0.12500000000E+03  0.12500000000E+03 0.  0.
    3000001    1    3    3    0    0  0.47907928995E+01 -0.31223663013E+02 -0.40875310133E+02  0.51668750779E+02  0.10000000000E+01 0. -1.
    1000022    2    1    0    0    0  0.13351062842E+01 -0.36907805885E+02 -0.49419440926E+02  0.62499998485E+02  0.10000001258E+02 0.  0.
    3000022    2    3    3    0    0 -0.34556866153E+01 -0.56841428720E+01 -0.85441307934E+01  0.10831247707E+02  0.25001139278E+00 0.  0.
    1000022    2    1    0    0    0 -0.13351062842E+01  0.36907805885E+02  0.49419440926E+02  0.62500001515E+02  0.10000020192E+02 0.  0.
    3000022    2    5    5    0    0 -0.46721279352E+01  0.18633356650E+02  0.20338283781E+02  0.27977473953E+02  0.25000429848E+00 0.  0.
        -13    1    4    4    0    0 -0.25307247740E+01 -0.42204519342E+01 -0.63350081847E+01  0.80224769311E+01  0.10500000000E+00 0. -1.
         13    1    4    4    0    0 -0.92496184135E+00 -0.14636909377E+01 -0.22091226087E+01  0.28087707755E+01  0.10500000000E+00 0.  1.
    3000001    1    5    5    0    0  0.33370216510E+01  0.18274449235E+02  0.29081157145E+02  0.34522527562E+02  0.10000000000E+01 0. -1.
        -13    1    6    6    0    0 -0.12763568172E+01  0.50514193032E+01  0.54656392806E+01  0.75518316617E+01  0.10500000000E+00 0.  1.
         13    1    6    6    0    0 -0.33957711180E+01  0.13581937347E+02  0.14872644501E+02  0.20425642292E+02  0.10500000000E+00 0. -1.
</event>
<event>
11    0  0.3515428E-009  0.9118800E+02  0.7816531E-02  0.1126479E+00
         25   -1    0    0    0    0  0.00000000000E+00  0.00000000000E+00  0.99999998245E-14  0.12500000000E+03  0.12500000000E+03 0.  0.
    3000001    1    3    3    0    0  0.13585076710E+01 -0.18336050311E+00  0.14125410989E+01  0.22078126104E+01  0.10000000000E+01 0. -1.
    1000022    2    1    0    0    0  0.54962421065E+02  0.25149980103E+02  0.12363691114E+02  0.62500000096E+02  0.99999962732E+01 0.  0.
    3000022    2    3    3    0    0  0.53603913394E+02  0.25333340606E+02  0.10951150015E+02  0.60292187485E+02  0.25001534817E+00 0.  0.
    1000022    2    1    0    0    0 -0.54962421065E+02 -0.25149980103E+02 -0.12363691114E+02  0.62499999904E+02  0.99999950793E+01 0.  0.
    3000022    2    5    5    0    0 -0.13494568803E+01 -0.21677624112E+01  0.81155665100E+00  0.26909753983E+01  0.24999330700E+00 0.  0.
        -13    1    4    4    0    0  0.28585730835E+02  0.13444909648E+02  0.58686761644E+01  0.32130390407E+02  0.10500000000E+00 0.  1.
         13    1    4    4    0    0  0.25018182559E+02  0.11888430958E+02  0.50824738508E+01  0.28161797078E+02  0.10500000000E+00 0. -1.
    3000001    1    5    5    0    0 -0.53612964185E+02 -0.22982217692E+02 -0.13175247765E+02  0.59809024506E+02  0.10000000000E+01 0.  1.
        -13    1    6    6    0    0 -0.82257183928E+00 -0.14104028416E+01  0.48150591485E+00  0.17055009682E+01  0.10500000000E+00 0.  1.
         13    1    6    6    0    0 -0.52688504103E+00 -0.75735956956E+00  0.33005073616E+00  0.98547443016E+00  0.10500000000E+00 0. -1.
</event>
<event>
11    0  0.3515428E-009  0.9118800E+02  0.7816531E-02  0.1126479E+00
         25   -1    0    0    0    0  0.00000000000E+00  0.00000000000E+00  0.99999998245E-14  0.12500000000E+03  0.12500000000E+03 0.  0.
    3000001    1    3    3    0    0 -0.27603448088E+02 -0.26490796091E+02 -0.30629773017E+01  0.38393937722E+02  0.10000000000E+01 0. -1.
    1000022    2    1    0    0    0 -0.40675675574E+02 -0.44985642703E+02 -0.11315088649E+02  0.62500001569E+02  0.10000016606E+02 0.  0.
    3000022    2    3    3    0    0 -0.13072227486E+02 -0.18494846612E+02 -0.82521113477E+01  0.24106063846E+02  0.24997962324E+00 0.  0.
    1000022    2    1    0    0    0  0.40675675574E+02  0.44985642703E+02  0.11315088649E+02  0.62499998431E+02  0.99999969980E+01 0.  0.
    3000022    2    5    5    0    0  0.18373135499E+02  0.17556104604E+02  0.93500258259E+01  0.27079039579E+02  0.24996927737E+00 0.  0.
        -13    1    4    4    0    0 -0.99665271108E+01 -0.14116488479E+02 -0.62811204455E+01  0.18386691075E+02  0.10500000000E+00 0.  1.
         13    1    4    4    0    0 -0.31057003750E+01 -0.43783581330E+01 -0.19709909022E+01  0.57193727712E+01  0.10500000000E+00 0. -1.
    3000001    1    5    5    0    0  0.22302540074E+02  0.27429538099E+02  0.19650628236E+01  0.35420958852E+02  0.10000000000E+01 0. -1.
        -13    1    6    6    0    0  0.11415129088E+02  0.10830524082E+02  0.58157619080E+01  0.16776159738E+02  0.10500000000E+00 0.  1.
         13    1    6    6    0    0  0.69580064111E+01  0.67255805222E+01  0.35342639179E+01  0.10302879841E+02  0.10500000000E+00 0. -1.
</event>
<event>
11    0  0.3515428E-009  0.9118800E+02  0.7816531E-02  0.1126479E+00
         25   -1    0    0    0    0  0.00000000000E+00  0.00000000000E+00  0.99999998245E-14  0.12500000000E+03  0.12500000000E+03 0.  0.
    3000001    1    3    3    0    0 -0.25980330305E+02 -0.22332596886E+02  0.94166602618E+01  0.35544281353E+02  0.10000000000E+01 0.  1.
    1000022    2    1    0    0    0 -0.49022404331E+02 -0.31920817235E+02  0.19598859111E+02  0.62500000953E+02  0.10000007063E+02 0.  0.
    3000022    2    3    3    0    0 -0.23042074026E+02 -0.95882203494E+01  0.10182198849E+02  0.26955719600E+02  0.25000167000E+00 0.  0.
    1000022    2    1    0    0    0  0.49022404331E+02  0.31920817235E+02 -0.19598859111E+02  0.62499999047E+02  0.99999951528E+01 0.  0.
    3000022    2    5    5    0    0  0.37189039016E+01  0.29873305093E+01 -0.47199605694E+01  0.67152750887E+01  0.25000387957E+00 0.  0.
        -13    1    4    4    0    0 -0.68650461227E+01 -0.28354761835E+01  0.29865514756E+01  0.80062037302E+01  0.10500000000E+00 0. -1.
         13    1    4    4    0    0 -0.16177027904E+02 -0.67527441659E+01  0.71956473734E+01  0.18949515870E+02  0.10500000000E+00 0.  1.
    3000001    1    5    5    0    0  0.45303500430E+02  0.28933486726E+02 -0.14878898541E+02  0.55784723958E+02  0.10000000000E+01 0.  1.
        -13    1    6    6    0    0  0.24941340066E+01  0.20002231846E+01 -0.32355042665E+01  0.45498472601E+01  0.10500000000E+00 0. -1.
         13    1    6    6    0    0  0.12247698950E+01  0.98710732466E+00 -0.14844563029E+01  0.21654278286E+01  0.10500000000E+00 0.  1.
</event>
