<event>
 4    1  0.4863180E-002  0.4175187E+03  0.7818608E-02  0.1037877E+00
         21   -1    0    0  503  502  0.00000000000E+00  0.00000000000E+00  0.43218350544E+03  0.43218350544E+03  0.00000000000E+00 0. -1.
         21   -1    0    0  501  503 -0.00000000000E+00 -0.00000000000E+00 -0.44754338557E+03  0.44754338557E+03  0.00000000000E+00 0. -1.
    9000007    1    1    2  501    0  0.67383893754E+02 -0.98900163460E+02 -0.14590027784E+03  0.44227674882E+03  0.40000000000E+03 0. -1.
   -9000007    1    1    2    0  502 -0.67383893754E+02  0.98900163460E+02  0.13054039772E+03  0.43745014219E+03  0.40000000000E+03 0. -1.
<mgrwt>
<rscale>  2 0.41751866E+03</rscale>
<asrwt>0</asrwt>
<pdfrwt beam="1">  1       21 0.66489770E-01 0.41751866E+03</pdfrwt>
<pdfrwt beam="2">  1       21 0.68852828E-01 0.41751866E+03</pdfrwt>
<totfact> 0.35230498E+03</totfact>
</mgrwt>
</event>
<event>
 4    1  0.4863180E-002  0.4415390E+03  0.7818608E-02  0.1030276E+00
         21   -1    0    0  503  502  0.00000000000E+00  0.00000000000E+00  0.31708977974E+03  0.31708977974E+03  0.00000000000E+00 0.  1.
         21   -1    0    0  501  503 -0.00000000000E+00 -0.00000000000E+00 -0.61532488307E+03  0.61532488307E+03  0.00000000000E+00 0.  1.
    9000007    1    1    2  501    0  0.10899158401E+03  0.15191288870E+03 -0.13591222660E+03  0.46198357598E+03  0.40000000000E+03 0.  1.
   -9000007    1    1    2    0  502 -0.10899158401E+03 -0.15191288870E+03 -0.16232287673E+03  0.47043108682E+03  0.40000000000E+03 0.  1.
<mgrwt>
<rscale>  2 0.44153900E+03</rscale>
<asrwt>0</asrwt>
<pdfrwt beam="1">  1       21 0.48783043E-01 0.44153900E+03</pdfrwt>
<pdfrwt beam="2">  1       21 0.94665366E-01 0.44153900E+03</pdfrwt>
<totfact> 0.32742336E+03</totfact>
</mgrwt>
</event>
<event>
 4    1  0.4863180E-002  0.4229079E+03  0.7818608E-02  0.1036124E+00
         21   -1    0    0  501  502  0.00000000000E+00  0.00000000000E+00  0.16040549085E+03  0.16040549085E+03  0.00000000000E+00 0.  1.
         21   -1    0    0  502  503 -0.00000000000E+00 -0.00000000000E+00 -0.13538475126E+04  0.13538475126E+04  0.00000000000E+00 0.  1.
    9000007    1    1    2  501    0  0.74470223452E+02 -0.11534835333E+03 -0.27870427713E+03  0.50648507469E+03  0.40000000000E+03 0.  1.
   -9000007    1    1    2    0  503 -0.74470223452E+02  0.11534835333E+03 -0.91473774461E+03  0.10077679287E+04  0.40000000000E+03 0.  1.
<mgrwt>
<rscale>  2 0.42290786E+03</rscale>
<asrwt>0</asrwt>
<pdfrwt beam="1">  1       21 0.24677768E-01 0.42290786E+03</pdfrwt>
<pdfrwt beam="2">  1       21 0.20828423E+00 0.42290786E+03</pdfrwt>
<totfact> 0.15696823E+03</totfact>
</mgrwt>
</event>
<event>
 4    1  0.4863180E-002  0.4715550E+03  0.7818608E-02  0.1021482E+00
         21   -1    0    0  503  502  0.00000000000E+00  0.00000000000E+00  0.35741436632E+03  0.35741436632E+03  0.00000000000E+00 0. -1.
         21   -1    0    0  501  503 -0.00000000000E+00 -0.00000000000E+00 -0.65797371383E+03  0.65797371383E+03  0.00000000000E+00 0. -1.
    9000007    1    1    2  501    0 -0.21966524057E+03 -0.11879087345E+03 -0.26874859635E+03  0.54276136337E+03  0.40000000000E+03 0. -1.
   -9000007    1    1    2    0  502  0.21966524057E+03  0.11879087345E+03 -0.31810751163E+02  0.47262671679E+03  0.40000000000E+03 0. -1.
<mgrwt>
<rscale>  2 0.47155497E+03</rscale>
<asrwt>0</asrwt>
<pdfrwt beam="1">  1       21 0.54986826E-01 0.47155497E+03</pdfrwt>
<pdfrwt beam="2">  1       21 0.10122672E+00 0.47155497E+03</pdfrwt>
<totfact> 0.21324515E+03</totfact>
</mgrwt>
</event>
<event>
 4    1  0.4863180E-002  0.4121740E+03  0.7818608E-02  0.1039644E+00
         21   -1    0    0  501  502  0.00000000000E+00  0.00000000000E+00  0.65717728955E+03  0.65717728955E+03  0.00000000000E+00 0.  1.
         21   -1    0    0  502  503 -0.00000000000E+00 -0.00000000000E+00 -0.30699841591E+03  0.30699841591E+03  0.00000000000E+00 0.  1.
    9000007    1    1    2  501    0 -0.50995745573E+02 -0.85362972907E+02 -0.16500942785E+02  0.41250416279E+03  0.40000000000E+03 0.  1.
   -9000007    1    1    2    0  503  0.50995745573E+02  0.85362972907E+02  0.36667981642E+03  0.55167154266E+03  0.40000000000E+03 0.  1.
<mgrwt>
<rscale>  2 0.41217400E+03</rscale>
<asrwt>0</asrwt>
<pdfrwt beam="1">  1       21 0.10110420E+00 0.41217400E+03</pdfrwt>
<pdfrwt beam="2">  1       21 0.47230526E-01 0.41217400E+03</pdfrwt>
<totfact> 0.30242541E+03</totfact>
</mgrwt>
</event>
<event>
 4    1  0.4863180E-002  0.4248979E+03  0.7818608E-02  0.1035484E+00
         21   -1    0    0  501  502  0.00000000000E+00  0.00000000000E+00  0.11154239860E+03  0.11154239860E+03  0.00000000000E+00 0. -1.
         21   -1    0    0  502  503 -0.00000000000E+00 -0.00000000000E+00 -0.17763077930E+04  0.17763077930E+04  0.00000000000E+00 0. -1.
    9000007    1    1    2  501    0  0.72834992539E+02 -0.12342309162E+03 -0.11136753904E+04  0.11919777980E+04  0.40000000000E+03 0. -1.
   -9000007    1    1    2    0  503 -0.72834992539E+02  0.12342309162E+03 -0.55109000397E+03  0.69587239359E+03  0.40000000000E+03 0. -1.
<mgrwt>
<rscale>  2 0.42489787E+03</rscale>
<asrwt>0</asrwt>
<pdfrwt beam="1">  1       21 0.17160369E-01 0.42489787E+03</pdfrwt>
<pdfrwt beam="2">  1       21 0.27327812E+00 0.42489787E+03</pdfrwt>
<totfact> 0.12364397E+03</totfact>
</mgrwt>
</event>
<event>
 4    1  0.4863180E-002  0.5557091E+03  0.7818608E-02  0.1000181E+00
         21   -1    0    0  503  502  0.00000000000E+00  0.00000000000E+00  0.97109830374E+03  0.97109830374E+03  0.00000000000E+00 0.  1.
         21   -1    0    0  501  503 -0.00000000000E+00 -0.00000000000E+00 -0.50435580385E+03  0.50435580385E+03  0.00000000000E+00 0.  1.
    9000007    1    1    2  501    0 -0.38523445337E+03  0.20173654832E+02 -0.21505879283E+03  0.59587150023E+03  0.40000000000E+03 0.  1.
   -9000007    1    1    2    0  502  0.38523445337E+03 -0.20173654832E+02  0.68180129272E+03  0.87958260736E+03  0.40000000000E+03 0.  1.
<mgrwt>
<rscale>  2 0.55570906E+03</rscale>
<asrwt>0</asrwt>
<pdfrwt beam="1">  1       21 0.14939974E+00 0.55570906E+03</pdfrwt>
<pdfrwt beam="2">  1       21 0.77593201E-01 0.55570906E+03</pdfrwt>
<totfact> 0.35208058E+02</totfact>
</mgrwt>
</event>
<event>
 4    1  0.4863180E-002  0.6550202E+03  0.7818608E-02  0.9797405E-01
         21   -1    0    0  501  502  0.00000000000E+00  0.00000000000E+00  0.43902923049E+03  0.43902923049E+03  0.00000000000E+00 0. -1.
         21   -1    0    0  502  503 -0.00000000000E+00 -0.00000000000E+00 -0.97727702179E+03  0.97727702179E+03  0.00000000000E+00 0. -1.
    9000007    1    1    2  501    0 -0.48250448984E+03  0.19037029418E+03 -0.27055294392E+03  0.70869621636E+03  0.40000000000E+03 0. -1.
   -9000007    1    1    2    0  503  0.48250448984E+03 -0.19037029418E+03 -0.26769484738E+03  0.70761003592E+03  0.40000000000E+03 0. -1.
<mgrwt>
<rscale>  2 0.65502018E+03</rscale>
<asrwt>0</asrwt>
<pdfrwt beam="1">  1       21 0.67542958E-01 0.65502018E+03</pdfrwt>
<pdfrwt beam="2">  1       21 0.15035031E+00 0.65502018E+03</pdfrwt>
<totfact> 0.45888577E+02</totfact>
</mgrwt>
</event>
<event>
 4    1  0.4863180E-002  0.6052338E+03  0.7818608E-02  0.9894607E-01
         21   -1    0    0  503  502  0.00000000000E+00  0.00000000000E+00  0.66051952316E+03  0.66051952316E+03  0.00000000000E+00 0.  1.
         21   -1    0    0  501  503 -0.00000000000E+00 -0.00000000000E+00 -0.64181694389E+03  0.64181694389E+03  0.00000000000E+00 0. -1.
    9000007    1    1    2  501    0  0.35098175025E+03  0.28830507069E+03 -0.23072475134E+03  0.64772055215E+03  0.40000000000E+03 0. -1.
   -9000007    1    1    2    0  502 -0.35098175025E+03 -0.28830507069E+03  0.24942733061E+03  0.65461591491E+03  0.40000000000E+03 0.  1.
<mgrwt>
<rscale>  2 0.60523384E+03</rscale>
<asrwt>0</asrwt>
<pdfrwt beam="1">  1       21 0.10161839E+00 0.60523384E+03</pdfrwt>
<pdfrwt beam="2">  1       21 0.98741069E-01 0.60523384E+03</pdfrwt>
<totfact> 0.52876890E+02</totfact>
</mgrwt>
</event>
<event>
 4    1  0.4863180E-002  0.5822591E+03  0.7818608E-02  0.9942912E-01
         21   -1    0    0  503  502  0.00000000000E+00  0.00000000000E+00  0.53402756566E+03  0.53402756566E+03  0.00000000000E+00 0. -1.
         21   -1    0    0  501  503 -0.00000000000E+00 -0.00000000000E+00 -0.64329958242E+03  0.64329958242E+03  0.00000000000E+00 0.  1.
    9000007    1    1    2  501    0  0.66704934559E+02  0.41782307433E+03  0.12841867672E+02  0.58240070682E+03  0.40000000000E+03 0. -1.
   -9000007    1    1    2    0  502 -0.66704934559E+02 -0.41782307433E+03 -0.12211388443E+03  0.59492644126E+03  0.40000000000E+03 0.  1.
<mgrwt>
<rscale>  2 0.58225911E+03</rscale>
<asrwt>0</asrwt>
<pdfrwt beam="1">  1       21 0.82158087E-01 0.58225911E+03</pdfrwt>
<pdfrwt beam="2">  1       21 0.98969166E-01 0.58225911E+03</pdfrwt>
<totfact> 0.88127318E+02</totfact>
</mgrwt>
</event>
<event>
 4    1  0.4863180E-002  0.4616844E+03  0.7818608E-02  0.1024294E+00
         21   -1    0    0  501  502  0.00000000000E+00  0.00000000000E+00  0.44219936774E+03  0.44219936774E+03  0.00000000000E+00 0. -1.
         21   -1    0    0  502  503 -0.00000000000E+00 -0.00000000000E+00 -0.68605157033E+03  0.68605157033E+03  0.00000000000E+00 0. -1.
    9000007    1    1    2  501    0 -0.14624152250E+03 -0.17823001675E+03  0.18571006436E+03  0.49763515730E+03  0.40000000000E+03 0. -1.
   -9000007    1    1    2    0  503  0.14624152250E+03  0.17823001675E+03 -0.42956226694E+03  0.63061578077E+03  0.40000000000E+03 0. -1.
<mgrwt>
<rscale>  2 0.46168444E+03</rscale>
<asrwt>0</asrwt>
<pdfrwt beam="1">  1       21 0.68030672E-01 0.46168444E+03</pdfrwt>
<pdfrwt beam="2">  1       21 0.10554639E+00 0.46168444E+03</pdfrwt>
<totfact> 0.12090945E+03</totfact>
</mgrwt>
</event>
<event>
 4    1  0.4863180E-002  0.5013382E+03  0.7818608E-02  0.1013430E+00
         21   -1    0    0  501  502  0.00000000000E+00  0.00000000000E+00  0.55472686786E+03  0.55472686786E+03  0.00000000000E+00 0. -1.
         21   -1    0    0  502  503 -0.00000000000E+00 -0.00000000000E+00 -0.45511021628E+03  0.45511021628E+03  0.00000000000E+00 0. -1.
    9000007    1    1    2  501    0 -0.17769172838E+03 -0.24447004421E+03  0.83467450311E+02  0.50823888882E+03  0.40000000000E+03 0. -1.
   -9000007    1    1    2    0  503  0.17769172838E+03  0.24447004421E+03  0.16149201274E+02  0.50159819532E+03  0.40000000000E+03 0. -1.
<mgrwt>
<rscale>  2 0.50133816E+03</rscale>
<asrwt>0</asrwt>
<pdfrwt beam="1">  1       21 0.85342595E-01 0.50133816E+03</pdfrwt>
<pdfrwt beam="2">  1       21 0.70016957E-01 0.50133816E+03</pdfrwt>
<totfact> 0.18615425E+03</totfact>
</mgrwt>
</event>
<event>
 4    1  0.4863180E-002  0.4938765E+03  0.7818608E-02  0.1015390E+00
         21   -1    0    0  501  502  0.00000000000E+00  0.00000000000E+00  0.18208641457E+04  0.18208641457E+04  0.00000000000E+00 0.  1.
         21   -1    0    0  502  503 -0.00000000000E+00 -0.00000000000E+00 -0.18436714685E+03  0.18436714685E+03  0.00000000000E+00 0. -1.
    9000007    1    1    2  501    0 -0.13424040228E+03  0.25669729697E+03  0.13425245221E+04  0.14304845614E+04  0.40000000000E+03 0.  1.
   -9000007    1    1    2    0  503  0.13424040228E+03 -0.25669729697E+03  0.29397247668E+03  0.57474673111E+03  0.40000000000E+03 0. -1.
<mgrwt>
<rscale>  2 0.49387649E+03</rscale>
<asrwt>0</asrwt>
<pdfrwt beam="1">  1       21 0.28013293E+00 0.49387649E+03</pdfrwt>
<pdfrwt beam="2">  1       21 0.28364178E-01 0.49387649E+03</pdfrwt>
<totfact> 0.41233545E+02</totfact>
</mgrwt>
</event>
<event>
 4    1  0.4863180E-002  0.4293462E+03  0.7818608E-02  0.1034067E+00
         21   -1    0    0  501  502  0.00000000000E+00  0.00000000000E+00  0.36878680825E+03  0.36878680825E+03  0.00000000000E+00 0. -1.
         21   -1    0    0  502  503 -0.00000000000E+00 -0.00000000000E+00 -0.52635975110E+03  0.52635975110E+03  0.00000000000E+00 0.  1.
    9000007    1    1    2  501    0  0.46562838066E+02  0.14889602060E+03  0.21657719215E+02  0.42989205580E+03  0.40000000000E+03 0.  1.
   -9000007    1    1    2    0  503 -0.46562838066E+02 -0.14889602060E+03 -0.17923066207E+03  0.46525450354E+03  0.40000000000E+03 0.  1.
<mgrwt>
<rscale>  2 0.42934616E+03</rscale>
<asrwt>0</asrwt>
<pdfrwt beam="1">  1       21 0.56736432E-01 0.42934616E+03</pdfrwt>
<pdfrwt beam="2">  1       21 0.80978423E-01 0.42934616E+03</pdfrwt>
<totfact> 0.34361452E+03</totfact>
</mgrwt>
</event>
<event>
 4    1  0.4863180E-002  0.5934094E+03  0.7818608E-02  0.9919175E-01
         21   -1    0    0  503  502  0.00000000000E+00  0.00000000000E+00  0.50473293181E+03  0.50473293181E+03  0.00000000000E+00 0. -1.
         21   -1    0    0  501  503 -0.00000000000E+00 -0.00000000000E+00 -0.96245124344E+03  0.96245124344E+03  0.00000000000E+00 0.  1.
    9000007    1    1    2  501    0  0.42417987095E+03  0.11048134444E+03 -0.61363931566E+03  0.85363218080E+03  0.40000000000E+03 0.  1.
   -9000007    1    1    2    0  502 -0.42417987095E+03 -0.11048134444E+03  0.15592100403E+03  0.61355199444E+03  0.40000000000E+03 0. -1.
<mgrwt>
<rscale>  2 0.59340938E+03</rscale>
<asrwt>0</asrwt>
<pdfrwt beam="1">  1       21 0.77651220E-01 0.59340938E+03</pdfrwt>
<pdfrwt beam="2">  1       21 0.14806942E+00 0.59340938E+03</pdfrwt>
<totfact> 0.35514487E+02</totfact>
</mgrwt>
</event>
<event>
 4    1  0.4863180E-002  0.4576078E+03  0.7818608E-02  0.1025477E+00
         21   -1    0    0  501  502  0.00000000000E+00  0.00000000000E+00  0.58999339042E+03  0.58999339042E+03  0.00000000000E+00 0.  1.
         21   -1    0    0  502  503 -0.00000000000E+00 -0.00000000000E+00 -0.38541531818E+03  0.38541531818E+03  0.00000000000E+00 0.  1.
    9000007    1    1    2  501    0 -0.20800348166E+03 -0.78354554547E+02  0.23945780903E+03  0.51647354909E+03  0.40000000000E+03 0.  1.
   -9000007    1    1    2    0  503  0.20800348166E+03  0.78354554547E+02 -0.34879736787E+02  0.45893515951E+03  0.40000000000E+03 0.  1.
<mgrwt>
<rscale>  2 0.45760778E+03</rscale>
<asrwt>0</asrwt>
<pdfrwt beam="1">  1       21 0.90768214E-01 0.45760778E+03</pdfrwt>
<pdfrwt beam="2">  1       21 0.59294665E-01 0.45760778E+03</pdfrwt>
<totfact> 0.23645746E+03</totfact>
</mgrwt>
</event>
<event>
 4    1  0.4863180E-002  0.4596520E+03  0.7818608E-02  0.1024882E+00
         21   -1    0    0  501  502  0.00000000000E+00  0.00000000000E+00  0.34239142203E+03  0.34239142203E+03  0.00000000000E+00 0.  1.
         21   -1    0    0  502  503 -0.00000000000E+00 -0.00000000000E+00 -0.62549970502E+03  0.62549970502E+03  0.00000000000E+00 0.  1.
    9000007    1    1    2  501    0 -0.17655507008E+03 -0.14180366004E+03 -0.19773027303E+03  0.50037708945E+03  0.40000000000E+03 0.  1.
   -9000007    1    1    2    0  503  0.17655507008E+03  0.14180366004E+03 -0.85378009956E+02  0.46751403760E+03  0.40000000000E+03 0.  1.
<mgrwt>
<rscale>  2 0.45965201E+03</rscale>
<asrwt>0</asrwt>
<pdfrwt beam="1">  1       21 0.52675604E-01 0.45965201E+03</pdfrwt>
<pdfrwt beam="2">  1       21 0.96230722E-01 0.45965201E+03</pdfrwt>
<totfact> 0.26554269E+03</totfact>
</mgrwt>
</event>
<event>
 4    1  0.4863180E-002  0.4224996E+03  0.7818608E-02  0.1036256E+00
         21   -1    0    0  501  502  0.00000000000E+00  0.00000000000E+00  0.44699549262E+03  0.44699549262E+03  0.00000000000E+00 0.  1.
         21   -1    0    0  502  503 -0.00000000000E+00 -0.00000000000E+00 -0.42599866221E+03  0.42599866221E+03  0.00000000000E+00 0.  1.
    9000007    1    1    2  501    0 -0.62658672460E+02  0.12074670658E+03 -0.98682632591E+02  0.43387110800E+03  0.40000000000E+03 0.  1.
   -9000007    1    1    2    0  503  0.62658672460E+02 -0.12074670658E+03  0.11967946300E+03  0.43912304682E+03  0.40000000000E+03 0.  1.
<mgrwt>
<rscale>  2 0.42249956E+03</rscale>
<asrwt>0</asrwt>
<pdfrwt beam="1">  1       21 0.68768537E-01 0.42249956E+03</pdfrwt>
<pdfrwt beam="2">  1       21 0.65538256E-01 0.42249956E+03</pdfrwt>
<totfact> 0.36411829E+03</totfact>
</mgrwt>
</event>
<event>
 4    1  0.4863180E-002  0.4596137E+03  0.7818608E-02  0.1024893E+00
         21   -1    0    0  501  502  0.00000000000E+00  0.00000000000E+00  0.12022680427E+04  0.12022680427E+04  0.00000000000E+00 0. -1.
         21   -1    0    0  502  503 -0.00000000000E+00 -0.00000000000E+00 -0.17593127160E+03  0.17593127160E+03  0.00000000000E+00 0. -1.
    9000007    1    1    2  501    0  0.67642758588E+02 -0.21603065261E+03  0.53786870332E+03  0.70749383578E+03  0.40000000000E+03 0. -1.
   -9000007    1    1    2    0  503 -0.67642758588E+02  0.21603065261E+03  0.48846806775E+03  0.67070547848E+03  0.40000000000E+03 0. -1.
<mgrwt>
<rscale>  2 0.45961374E+03</rscale>
<asrwt>0</asrwt>
<pdfrwt beam="1">  1       21 0.18496431E+00 0.45961374E+03</pdfrwt>
<pdfrwt beam="2">  1       21 0.27066350E-01 0.45961374E+03</pdfrwt>
<totfact> 0.18504914E+03</totfact>
</mgrwt>
</event>
<event>
 4    1  0.4863180E-002  0.4218558E+03  0.7818608E-02  0.1036464E+00
         21   -1    0    0  503  502  0.00000000000E+00  0.00000000000E+00  0.54392658156E+03  0.54392658156E+03  0.00000000000E+00 0.  1.
         21   -1    0    0  501  503 -0.00000000000E+00 -0.00000000000E+00 -0.34430387379E+03  0.34430387379E+03  0.00000000000E+00 0.  1.
    9000007    1    1    2  501    0  0.13285366672E+03 -0.17669570073E+02  0.19885260660E+03  0.46637395899E+03  0.40000000000E+03 0.  1.
   -9000007    1    1    2    0  502 -0.13285366672E+03  0.17669570073E+02  0.77010115885E+00  0.42185649636E+03  0.40000000000E+03 0.  1.
<mgrwt>
<rscale>  2 0.42185579E+03</rscale>
<asrwt>0</asrwt>
<pdfrwt beam="1">  1       21 0.83681013E-01 0.42185579E+03</pdfrwt>
<pdfrwt beam="2">  1       21 0.52969827E-01 0.42185579E+03</pdfrwt>
<totfact> 0.37022056E+03</totfact>
</mgrwt>
</event>
<event>
 4    1  0.4863180E-002  0.5025614E+03  0.7818608E-02  0.1013113E+00
         21   -1    0    0  501  502  0.00000000000E+00  0.00000000000E+00  0.59185020792E+03  0.59185020792E+03  0.00000000000E+00 0.  1.
         21   -1    0    0  502  503 -0.00000000000E+00 -0.00000000000E+00 -0.42891907730E+03  0.42891907730E+03  0.00000000000E+00 0.  1.
    9000007    1    1    2  501    0  0.30419517126E+03 -0.57672510555E+01  0.11781871097E+03  0.51618718704E+03  0.40000000000E+03 0.  1.
   -9000007    1    1    2    0  503 -0.30419517126E+03  0.57672510555E+01  0.45112419642E+02  0.50458209819E+03  0.40000000000E+03 0.  1.
<mgrwt>
<rscale>  2 0.50256140E+03</rscale>
<asrwt>0</asrwt>
<pdfrwt beam="1">  1       21 0.91053879E-01 0.50256140E+03</pdfrwt>
<pdfrwt beam="2">  1       21 0.65987550E-01 0.50256140E+03</pdfrwt>
<totfact> 0.18238121E+03</totfact>
</mgrwt>
</event>
<event>
 4    1  0.4863180E-002  0.4076464E+03  0.7818608E-02  0.1041164E+00
         21   -1    0    0  503  502  0.00000000000E+00  0.00000000000E+00  0.10255574095E+04  0.10255574095E+04  0.00000000000E+00 0. -1.
         21   -1    0    0  501  503 -0.00000000000E+00 -0.00000000000E+00 -0.22119968425E+03  0.22119968425E+03  0.00000000000E+00 0. -1.
    9000007    1    1    2  501    0  0.13399681010E+02  0.77433907132E+02  0.79780265531E+02  0.41537988901E+03  0.40000000000E+03 0. -1.
   -9000007    1    1    2    0  502 -0.13399681010E+02 -0.77433907132E+02  0.72457745973E+03  0.83137720474E+03  0.40000000000E+03 0. -1.
<mgrwt>
<rscale>  2 0.40764637E+03</rscale>
<asrwt>0</asrwt>
<pdfrwt beam="1">  1       21 0.15777806E+00 0.40764637E+03</pdfrwt>
<pdfrwt beam="2">  1       21 0.34030721E-01 0.40764637E+03</pdfrwt>
<totfact> 0.18893685E+03</totfact>
</mgrwt>
</event>
<event>
 4    1  0.4863180E-002  0.5588805E+03  0.7818608E-02  0.9994591E-01
         21   -1    0    0  501  502  0.00000000000E+00  0.00000000000E+00  0.81852361170E+03  0.81852361170E+03  0.00000000000E+00 0. -1.
         21   -1    0    0  502  503 -0.00000000000E+00 -0.00000000000E+00 -0.39079850005E+03  0.39079850005E+03  0.00000000000E+00 0. -1.
    9000007    1    1    2  501    0  0.17701432123E+03  0.34786971548E+03  0.30663707384E+03  0.63747447315E+03  0.40000000000E+03 0. -1.
   -9000007    1    1    2    0  503 -0.17701432123E+03 -0.34786971548E+03  0.12108803781E+03  0.57184763860E+03  0.40000000000E+03 0. -1.
<mgrwt>
<rscale>  2 0.55888050E+03</rscale>
<asrwt>0</asrwt>
<pdfrwt beam="1">  1       21 0.12592671E+00 0.55888050E+03</pdfrwt>
<pdfrwt beam="2">  1       21 0.60122846E-01 0.55888050E+03</pdfrwt>
<totfact> 0.98435652E+02</totfact>
</mgrwt>
</event>
<event>
 4    1  0.4863180E-002  0.4335075E+03  0.7818608E-02  0.1032758E+00
         21   -1    0    0  503  502  0.00000000000E+00  0.00000000000E+00  0.20176953423E+04  0.20176953423E+04  0.00000000000E+00 0.  1.
         21   -1    0    0  501  503 -0.00000000000E+00 -0.00000000000E+00 -0.12707347146E+03  0.12707347146E+03  0.00000000000E+00 0.  1.
    9000007    1    1    2  501    0 -0.13898306949E+03 -0.92803149090E+02  0.39115068783E+03  0.58389003988E+03  0.40000000000E+03 0.  1.
   -9000007    1    1    2    0  502  0.13898306949E+03  0.92803149090E+02  0.14994711830E+04  0.15608787739E+04  0.40000000000E+03 0.  1.
<mgrwt>
<rscale>  2 0.43350746E+03</rscale>
<asrwt>0</asrwt>
<pdfrwt beam="1">  1       21 0.31041464E+00 0.43350746E+03</pdfrwt>
<pdfrwt beam="2">  1       21 0.19549766E-01 0.43350746E+03</pdfrwt>
<totfact> 0.57578784E+02</totfact>
</mgrwt>
</event>
<event>
 4    1  0.4863180E-002  0.4279010E+03  0.7818608E-02  0.1034525E+00
         21   -1    0    0  501  502  0.00000000000E+00  0.00000000000E+00  0.27143663702E+03  0.27143663702E+03  0.00000000000E+00 0. -1.
         21   -1    0    0  502  503 -0.00000000000E+00 -0.00000000000E+00 -0.77181782734E+03  0.77181782734E+03  0.00000000000E+00 0. -1.
    9000007    1    1    2  501    0 -0.13617469056E+03  0.67496137779E+02 -0.65019349163E+02  0.43281265084E+03  0.40000000000E+03 0. -1.
   -9000007    1    1    2    0  503  0.13617469056E+03 -0.67496137779E+02 -0.43536184115E+03  0.61044181352E+03  0.40000000000E+03 0. -1.
<mgrwt>
<rscale>  2 0.42790101E+03</rscale>
<asrwt>0</asrwt>
<pdfrwt beam="1">  1       21 0.41759483E-01 0.42790101E+03</pdfrwt>
<pdfrwt beam="2">  1       21 0.11874120E+00 0.42790101E+03</pdfrwt>
<totfact> 0.26105546E+03</totfact>
</mgrwt>
</event>
<event>
 4    1  0.4863180E-002  0.4146623E+03  0.7818608E-02  0.1038818E+00
         21   -1    0    0  501  502  0.00000000000E+00  0.00000000000E+00  0.69982854851E+03  0.69982854851E+03  0.00000000000E+00 0.  1.
         21   -1    0    0  502  503 -0.00000000000E+00 -0.00000000000E+00 -0.26463560718E+03  0.26463560718E+03  0.00000000000E+00 0.  1.
    9000007    1    1    2  501    0 -0.21972908349E+02 -0.10706065608E+03  0.34660608135E+03  0.54044478757E+03  0.40000000000E+03 0.  1.
   -9000007    1    1    2    0  503  0.21972908349E+02  0.10706065608E+03  0.88586859976E+02  0.42401936812E+03  0.40000000000E+03 0.  1.
<mgrwt>
<rscale>  2 0.41466226E+03</rscale>
<asrwt>0</asrwt>
<pdfrwt beam="1">  1       21 0.10766593E+00 0.41466226E+03</pdfrwt>
<pdfrwt beam="2">  1       21 0.40713171E-01 0.41466226E+03</pdfrwt>
<totfact> 0.35285220E+03</totfact>
</mgrwt>
</event>
<event>
 4    1  0.4863180E-002  0.4240954E+03  0.7818608E-02  0.1035742E+00
         21   -1    0    0  501  502  0.00000000000E+00  0.00000000000E+00  0.84893191312E+02  0.84893191312E+02  0.00000000000E+00 0.  1.
         21   -1    0    0  502  503 -0.00000000000E+00 -0.00000000000E+00 -0.21297227204E+04  0.21297227204E+04  0.00000000000E+00 0.  1.
    9000007    1    1    2  501    0 -0.12643907908E+03 -0.62209913481E+02 -0.94248544443E+03  0.10335065201E+04  0.40000000000E+03 0. -1.
   -9000007    1    1    2    0  503  0.12643907908E+03  0.62209913481E+02 -0.11023440847E+04  0.11811093916E+04  0.40000000000E+03 0. -1.
<mgrwt>
<rscale>  2 0.42409541E+03</rscale>
<asrwt>0</asrwt>
<pdfrwt beam="1">  1       21 0.13060491E-01 0.42409541E+03</pdfrwt>
<pdfrwt beam="2">  1       21 0.32764965E+00 0.42409541E+03</pdfrwt>
<totfact> 0.96681758E+02</totfact>
</mgrwt>
</event>
<event>
 4    1  0.4863180E-002  0.4645346E+03  0.7818608E-02  0.1023474E+00
         21   -1    0    0  501  502  0.00000000000E+00  0.00000000000E+00  0.41547484442E+03  0.41547484442E+03  0.00000000000E+00 0. -1.
         21   -1    0    0  502  503 -0.00000000000E+00 -0.00000000000E+00 -0.64580884226E+03  0.64580884226E+03  0.00000000000E+00 0.  1.
    9000007    1    1    2  501    0 -0.91162148947E+02 -0.21790335122E+03  0.11961231757E+03  0.47968689203E+03  0.40000000000E+03 0. -1.
   -9000007    1    1    2    0  503  0.91162148947E+02  0.21790335122E+03 -0.34994631540E+03  0.58159679464E+03  0.40000000000E+03 0. -1.
<mgrwt>
<rscale>  2 0.46453461E+03</rscale>
<asrwt>0</asrwt>
<pdfrwt beam="1">  1       21 0.63919207E-01 0.46453461E+03</pdfrwt>
<pdfrwt beam="2">  1       21 0.99355206E-01 0.46453461E+03</pdfrwt>
<totfact> 0.16093314E+03</totfact>
</mgrwt>
</event>
<event>
 4    1  0.4863180E-002  0.4046719E+03  0.7818608E-02  0.1042174E+00
         21   -1    0    0  503  502  0.00000000000E+00  0.00000000000E+00  0.31314640036E+03  0.31314640036E+03  0.00000000000E+00 0. -1.
         21   -1    0    0  501  503 -0.00000000000E+00 -0.00000000000E+00 -0.57882576898E+03  0.57882576898E+03  0.00000000000E+00 0. -1.
    9000007    1    1    2  501    0  0.45420978128E+01  0.61145021474E+02 -0.27140870811E+03  0.48725971631E+03  0.40000000000E+03 0. -1.
   -9000007    1    1    2    0  502 -0.45420978128E+01 -0.61145021474E+02  0.57293394961E+01  0.40471245303E+03  0.40000000000E+03 0. -1.
<mgrwt>
<rscale>  2 0.40467190E+03</rscale>
<asrwt>0</asrwt>
<pdfrwt beam="1">  1       21 0.48176370E-01 0.40467190E+03</pdfrwt>
<pdfrwt beam="2">  1       21 0.89050117E-01 0.40467190E+03</pdfrwt>
<totfact> 0.39408900E+03</totfact>
</mgrwt>
</event>
<event>
 4    1  0.4863180E-002  0.5966176E+03  0.7818608E-02  0.9912448E-01
         21   -1    0    0  503  502  0.00000000000E+00  0.00000000000E+00  0.10158774149E+04  0.10158774149E+04  0.00000000000E+00 0.  1.
         21   -1    0    0  501  503 -0.00000000000E+00 -0.00000000000E+00 -0.36557053416E+03  0.36557053416E+03  0.00000000000E+00 0. -1.
    9000007    1    1    2  501    0  0.38870290607E+03  0.21180806897E+03  0.18439577919E+03  0.62446329808E+03  0.40000000000E+03 0. -1.
   -9000007    1    1    2    0  502 -0.38870290607E+03 -0.21180806897E+03  0.46591110156E+03  0.75698465098E+03  0.40000000000E+03 0.  1.
<mgrwt>
<rscale>  2 0.59661764E+03</rscale>
<asrwt>0</asrwt>
<pdfrwt beam="1">  1       21 0.15628883E+00 0.59661764E+03</pdfrwt>
<pdfrwt beam="2">  1       21 0.56241621E-01 0.59661764E+03</pdfrwt>
<totfact> 0.63044782E+02</totfact>
</mgrwt>
</event>
<event>
 4    1  0.4863180E-002  0.5445852E+03  0.7818608E-02  0.1002755E+00
         21   -1    0    0  501  502  0.00000000000E+00  0.00000000000E+00  0.85124430054E+03  0.85124430054E+03  0.00000000000E+00 0.  1.
         21   -1    0    0  502  503 -0.00000000000E+00 -0.00000000000E+00 -0.50232563178E+03  0.50232563178E+03  0.00000000000E+00 0.  1.
    9000007    1    1    2  501    0 -0.35404297687E+03 -0.10595594672E+03  0.54909938668E+03  0.77335840887E+03  0.40000000000E+03 0.  1.
   -9000007    1    1    2    0  503  0.35404297687E+03  0.10595594672E+03 -0.20018071793E+03  0.58021152345E+03  0.40000000000E+03 0.  1.
<mgrwt>
<rscale>  2 0.54458525E+03</rscale>
<asrwt>0</asrwt>
<pdfrwt beam="1">  1       21 0.13096066E+00 0.54458525E+03</pdfrwt>
<pdfrwt beam="2">  1       21 0.77280867E-01 0.54458525E+03</pdfrwt>
<totfact> 0.50751195E+02</totfact>
</mgrwt>
</event>
<event>
 4    1  0.4863180E-002  0.4238650E+03  0.7818608E-02  0.1035816E+00
         21   -1    0    0  501  502  0.00000000000E+00  0.00000000000E+00  0.13336928692E+03  0.13336928692E+03  0.00000000000E+00 0.  1.
         21   -1    0    0  502  503 -0.00000000000E+00 -0.00000000000E+00 -0.13539665337E+04  0.13539665337E+04  0.00000000000E+00 0.  1.
    9000007    1    1    2  501    0  0.34519169126E+02 -0.13590412281E+03 -0.66326571798E+03  0.78713589442E+03  0.40000000000E+03 0.  1.
   -9000007    1    1    2    0  503 -0.34519169126E+02  0.13590412281E+03 -0.55733152876E+03  0.70019992615E+03  0.40000000000E+03 0.  1.
<mgrwt>
<rscale>  2 0.42386496E+03</rscale>
<asrwt>0</asrwt>
<pdfrwt beam="1">  1       21 0.20518353E-01 0.42386496E+03</pdfrwt>
<pdfrwt beam="2">  1       21 0.20830253E+00 0.42386496E+03</pdfrwt>
<totfact> 0.22369316E+03</totfact>
</mgrwt>
</event>
<event>
 4    1  0.4863180E-002  0.4338774E+03  0.7818608E-02  0.1032642E+00
         21   -1    0    0  501  502  0.00000000000E+00  0.00000000000E+00  0.54930362667E+03  0.54930362667E+03  0.00000000000E+00 0. -1.
         21   -1    0    0  502  503 -0.00000000000E+00 -0.00000000000E+00 -0.46098337012E+03  0.46098337012E+03  0.00000000000E+00 0. -1.
    9000007    1    1    2  501    0  0.15510075258E+03  0.64755960523E+02  0.30003238808E+03  0.52751209633E+03  0.40000000000E+03 0. -1.
   -9000007    1    1    2    0  503 -0.15510075258E+03 -0.64755960523E+02 -0.21171213154E+03  0.48277490046E+03  0.40000000000E+03 0. -1.
<mgrwt>
<rscale>  2 0.43387738E+03</rscale>
<asrwt>0</asrwt>
<pdfrwt beam="1">  1       21 0.84508250E-01 0.43387738E+03</pdfrwt>
<pdfrwt beam="2">  1       21 0.70920519E-01 0.43387738E+03</pdfrwt>
<totfact> 0.18966292E+03</totfact>
</mgrwt>
</event>
<event>
 4    1  0.4863180E-002  0.4177363E+03  0.7818608E-02  0.1037806E+00
         21   -1    0    0  501  502  0.00000000000E+00  0.00000000000E+00  0.10993412984E+04  0.10993412984E+04  0.00000000000E+00 0. -1.
         21   -1    0    0  502  503 -0.00000000000E+00 -0.00000000000E+00 -0.47320219097E+03  0.47320219097E+03  0.00000000000E+00 0. -1.
    9000007    1    1    2  501    0  0.43187207141E+02 -0.11242103863E+03  0.95403875944E+03  0.10414862358E+04  0.40000000000E+03 0. -1.
   -9000007    1    1    2    0  503 -0.43187207141E+02  0.11242103863E+03 -0.32789965202E+03  0.53105725358E+03  0.40000000000E+03 0. -1.
<mgrwt>
<rscale>  2 0.41773631E+03</rscale>
<asrwt>0</asrwt>
<pdfrwt beam="1">  1       21 0.16912943E+00 0.41773631E+03</pdfrwt>
<pdfrwt beam="2">  1       21 0.72800338E-01 0.41773631E+03</pdfrwt>
<totfact> 0.30696995E+02</totfact>
</mgrwt>
</event>
<event>
 4    1  0.4863180E-002  0.4227664E+03  0.7818608E-02  0.1036170E+00
         21   -1    0    0  503  502  0.00000000000E+00  0.00000000000E+00  0.65860998166E+03  0.65860998166E+03  0.00000000000E+00 0. -1.
         21   -1    0    0  501  503 -0.00000000000E+00 -0.00000000000E+00 -0.27688132118E+03  0.27688132118E+03  0.00000000000E+00 0. -1.
    9000007    1    1    2  501    0  0.24427602086E+02  0.13466518094E+03  0.12491267015E+03  0.44083397540E+03  0.40000000000E+03 0. -1.
   -9000007    1    1    2    0  502 -0.24427602086E+02 -0.13466518094E+03  0.25681599033E+03  0.49465732744E+03  0.40000000000E+03 0. -1.
<mgrwt>
<rscale>  2 0.42276639E+03</rscale>
<asrwt>0</asrwt>
<pdfrwt beam="1">  1       21 0.10132461E+00 0.42276639E+03</pdfrwt>
<pdfrwt beam="2">  1       21 0.42597127E-01 0.42276639E+03</pdfrwt>
<totfact> 0.37180354E+03</totfact>
</mgrwt>
</event>
<event>
 4    1  0.4863180E-002  0.4571584E+03  0.7818608E-02  0.1025609E+00
         21   -1    0    0  501  502  0.00000000000E+00  0.00000000000E+00  0.19486267061E+03  0.19486267061E+03  0.00000000000E+00 0.  1.
         21   -1    0    0  502  503 -0.00000000000E+00 -0.00000000000E+00 -0.17770723595E+04  0.17770723595E+04  0.00000000000E+00 0. -1.
    9000007    1    1    2  501    0  0.84876432250E+02 -0.20442543063E+03 -0.14119270388E+04  0.14840928975E+04  0.40000000000E+03 0. -1.
   -9000007    1    1    2    0  503 -0.84876432250E+02  0.20442543063E+03 -0.17028265006E+03  0.48784213261E+03  0.40000000000E+03 0.  1.
<mgrwt>
<rscale>  2 0.45715836E+03</rscale>
<asrwt>0</asrwt>
<pdfrwt beam="1">  1       21 0.29978874E-01 0.45715836E+03</pdfrwt>
<pdfrwt beam="2">  1       21 0.27339574E+00 0.45715836E+03</pdfrwt>
<totfact> 0.41387850E+02</totfact>
</mgrwt>
</event>
<event>
 4    1  0.4863180E-002  0.4110730E+03  0.7818608E-02  0.1040012E+00
         21   -1    0    0  503  502  0.00000000000E+00  0.00000000000E+00  0.18375037941E+04  0.18375037941E+04  0.00000000000E+00 0.  1.
         21   -1    0    0  501  503 -0.00000000000E+00 -0.00000000000E+00 -0.11768864826E+03  0.11768864826E+03  0.00000000000E+00 0.  1.
    9000007    1    1    2  501    0  0.63385921518E+02  0.70450287007E+02  0.13169763570E+04  0.13796404397E+04  0.40000000000E+03 0.  1.
   -9000007    1    1    2    0  502 -0.63385921518E+02 -0.70450287007E+02  0.40283878891E+03  0.57555200272E+03  0.40000000000E+03 0.  1.
<mgrwt>
<rscale>  2 0.41107301E+03</rscale>
<asrwt>0</asrwt>
<pdfrwt beam="1">  1       21 0.28269287E+00 0.41107301E+03</pdfrwt>
<pdfrwt beam="2">  1       21 0.18105947E-01 0.41107301E+03</pdfrwt>
<totfact> 0.98888061E+02</totfact>
</mgrwt>
</event>
<event>
 4    1  0.4863180E-002  0.5543878E+03  0.7818608E-02  0.1000483E+00
         21   -1    0    0  501  502  0.00000000000E+00  0.00000000000E+00  0.72764249563E+03  0.72764249563E+03  0.00000000000E+00 0.  1.
         21   -1    0    0  502  503 -0.00000000000E+00 -0.00000000000E+00 -0.49708779449E+03  0.49708779449E+03  0.00000000000E+00 0. -1.
    9000007    1    1    2  501    0 -0.46500950083E+02 -0.38102947329E+03  0.35266616467E+03  0.65705343891E+03  0.40000000000E+03 0.  1.
   -9000007    1    1    2    0  503  0.46500950083E+02  0.38102947329E+03 -0.12211146353E+03  0.56767685121E+03  0.40000000000E+03 0. -1.
<mgrwt>
<rscale>  2 0.55438777E+03</rscale>
<asrwt>0</asrwt>
<pdfrwt beam="1">  1       21 0.11194500E+00 0.55438777E+03</pdfrwt>
<pdfrwt beam="2">  1       21 0.76475046E-01 0.55438777E+03</pdfrwt>
<totfact> 0.77416347E+02</totfact>
</mgrwt>
</event>
<event>
 4    1  0.4863180E-002  0.4823150E+03  0.7818608E-02  0.1018501E+00
         21   -1    0    0  503  502  0.00000000000E+00  0.00000000000E+00  0.38103413499E+03  0.38103413499E+03  0.00000000000E+00 0.  1.
         21   -1    0    0  501  503 -0.00000000000E+00 -0.00000000000E+00 -0.12285494637E+04  0.12285494637E+04  0.00000000000E+00 0.  1.
    9000007    1    1    2  501    0 -0.19299808310E+02 -0.26880341381E+03 -0.99456943173E+03  0.11053488646E+04  0.40000000000E+03 0.  1.
   -9000007    1    1    2    0  502  0.19299808310E+02  0.26880341381E+03  0.14705410302E+03  0.50423473412E+03  0.40000000000E+03 0.  1.
<mgrwt>
<rscale>  2 0.48231500E+03</rscale>
<asrwt>0</asrwt>
<pdfrwt beam="1">  1       21 0.58620635E-01 0.48231500E+03</pdfrwt>
<pdfrwt beam="2">  1       21 0.18900761E+00 0.48231500E+03</pdfrwt>
<totfact> 0.34814442E+02</totfact>
</mgrwt>
</event>
<event>
 4    1  0.4863180E-002  0.4642457E+03  0.7818608E-02  0.1023557E+00
         21   -1    0    0  501  502  0.00000000000E+00  0.00000000000E+00  0.27364296743E+03  0.27364296743E+03  0.00000000000E+00 0. -1.
         21   -1    0    0  502  503 -0.00000000000E+00 -0.00000000000E+00 -0.80472280344E+03  0.80472280344E+03  0.00000000000E+00 0. -1.
    9000007    1    1    2  501    0 -0.88779763313E+02  0.21827098502E+03 -0.18691369416E+03  0.50046058620E+03  0.40000000000E+03 0. -1.
   -9000007    1    1    2    0  503  0.88779763313E+02 -0.21827098502E+03 -0.34416614185E+03  0.57790518467E+03  0.40000000000E+03 0. -1.
<mgrwt>
<rscale>  2 0.46424570E+03</rscale>
<asrwt>0</asrwt>
<pdfrwt beam="1">  1       21 0.42098918E-01 0.46424570E+03</pdfrwt>
<pdfrwt beam="2">  1       21 0.12380351E+00 0.46424570E+03</pdfrwt>
<totfact> 0.22760924E+03</totfact>
</mgrwt>
</event>
<event>
 4    1  0.4863180E-002  0.5825777E+03  0.7818608E-02  0.9942226E-01
         21   -1    0    0  501  502  0.00000000000E+00  0.00000000000E+00  0.15844665114E+04  0.15844665114E+04  0.00000000000E+00 0.  1.
         21   -1    0    0  502  503 -0.00000000000E+00 -0.00000000000E+00 -0.60639687952E+03  0.60639687952E+03  0.00000000000E+00 0. -1.
    9000007    1    1    2  501    0  0.20114502793E+03 -0.37274315449E+03  0.13699974210E+04  0.14887208318E+04  0.40000000000E+03 0.  1.
   -9000007    1    1    2    0  503 -0.20114502793E+03  0.37274315449E+03 -0.39192778910E+03  0.70214255914E+03  0.40000000000E+03 0. -1.
<mgrwt>
<rscale>  2 0.58257770E+03</rscale>
<asrwt>0</asrwt>
<pdfrwt beam="1">  1       21 0.24376408E+00 0.58257770E+03</pdfrwt>
<pdfrwt beam="2">  1       21 0.93291829E-01 0.58257770E+03</pdfrwt>
<totfact> 0.50454804E+01</totfact>
</mgrwt>
</event>
<event>
 4    1  0.4863180E-002  0.4720037E+03  0.7818608E-02  0.1021356E+00
         21   -1    0    0  501  502  0.00000000000E+00  0.00000000000E+00  0.14142192298E+04  0.14142192298E+04  0.00000000000E+00 0. -1.
         21   -1    0    0  502  503 -0.00000000000E+00 -0.00000000000E+00 -0.17246157880E+03  0.17246157880E+03  0.00000000000E+00 0. -1.
    9000007    1    1    2  501    0  0.23775172965E+03 -0.79130050430E+02  0.85428360776E+03  0.97600611285E+03  0.40000000000E+03 0. -1.
   -9000007    1    1    2    0  503 -0.23775172965E+03  0.79130050430E+02  0.38747404320E+03  0.61067469571E+03  0.40000000000E+03 0. -1.
<mgrwt>
<rscale>  2 0.47200365E+03</rscale>
<asrwt>0</asrwt>
<pdfrwt beam="1">  1       21 0.21757218E+00 0.47200365E+03</pdfrwt>
<pdfrwt beam="2">  1       21 0.26532552E-01 0.47200365E+03</pdfrwt>
<totfact> 0.11600060E+03</totfact>
</mgrwt>
</event>
<event>
 4    1  0.4863180E-002  0.6323275E+03  0.7818608E-02  0.9840517E-01
         21   -1    0    0  501  502  0.00000000000E+00  0.00000000000E+00  0.19401500364E+04  0.19401500364E+04  0.00000000000E+00 0. -1.
         21   -1    0    0  502  503 -0.00000000000E+00 -0.00000000000E+00 -0.27759266073E+03  0.27759266073E+03  0.00000000000E+00 0.  1.
    9000007    1    1    2  501    0 -0.34402608285E+03 -0.34854576793E+03  0.13940732501E+04  0.15307770330E+04  0.40000000000E+03 0. -1.
   -9000007    1    1    2    0  503  0.34402608285E+03  0.34854576793E+03  0.26848412552E+03  0.68696566412E+03  0.40000000000E+03 0. -1.
<mgrwt>
<rscale>  2 0.63232752E+03</rscale>
<asrwt>0</asrwt>
<pdfrwt beam="1">  1       21 0.29848461E+00 0.63232752E+03</pdfrwt>
<pdfrwt beam="2">  1       21 0.42706564E-01 0.63232752E+03</pdfrwt>
<totfact> 0.13014145E+02</totfact>
</mgrwt>
</event>
<event>
 4    1  0.4863180E-002  0.4718583E+03  0.7818608E-02  0.1021397E+00
         21   -1    0    0  501  502  0.00000000000E+00  0.00000000000E+00  0.26658117740E+03  0.26658117740E+03  0.00000000000E+00 0.  1.
         21   -1    0    0  502  503 -0.00000000000E+00 -0.00000000000E+00 -0.91704442227E+03  0.91704442227E+03  0.00000000000E+00 0.  1.
    9000007    1    1    2  501    0 -0.13887797174E+03  0.20823832787E+03 -0.14843789119E+03  0.49465553648E+03  0.40000000000E+03 0.  1.
   -9000007    1    1    2    0  503  0.13887797174E+03 -0.20823832787E+03 -0.50202535368E+03  0.68897006318E+03  0.40000000000E+03 0.  1.
<mgrwt>
<rscale>  2 0.47185834E+03</rscale>
<asrwt>0</asrwt>
<pdfrwt beam="1">  1       21 0.41012490E-01 0.47185834E+03</pdfrwt>
<pdfrwt beam="2">  1       21 0.14108375E+00 0.47185834E+03</pdfrwt>
<totfact> 0.17029891E+03</totfact>
</mgrwt>
</event>
<event>
 4    1  0.4863180E-002  0.4218881E+03  0.7818608E-02  0.1036454E+00
         21   -1    0    0  503  502  0.00000000000E+00  0.00000000000E+00  0.82612827687E+03  0.82612827687E+03  0.00000000000E+00 0.  1.
         21   -1    0    0  501  503 -0.00000000000E+00 -0.00000000000E+00 -0.24745840469E+03  0.24745840469E+03  0.00000000000E+00 0.  1.
    9000007    1    1    2  501    0  0.11769599201E+03  0.64321225069E+02  0.96277672133E+02  0.43273427953E+03  0.40000000000E+03 0.  1.
   -9000007    1    1    2    0  502 -0.11769599201E+03 -0.64321225069E+02  0.48239220005E+03  0.64085240204E+03  0.40000000000E+03 0.  1.
<mgrwt>
<rscale>  2 0.42188810E+03</rscale>
<asrwt>0</asrwt>
<pdfrwt beam="1">  1       21 0.12709666E+00 0.42188810E+03</pdfrwt>
<pdfrwt beam="2">  1       21 0.38070524E-01 0.42188810E+03</pdfrwt>
<totfact> 0.26597948E+03</totfact>
</mgrwt>
</event>
<event>
 4    1  0.4863180E-002  0.4320590E+03  0.7818608E-02  0.1033212E+00
         21   -1    0    0  503  502  0.00000000000E+00  0.00000000000E+00  0.79201133836E+03  0.79201133836E+03  0.00000000000E+00 0.  1.
         21   -1    0    0  501  503 -0.00000000000E+00 -0.00000000000E+00 -0.27210983650E+03  0.27210983650E+03  0.00000000000E+00 0.  1.
    9000007    1    1    2  501    0 -0.16274277441E+03 -0.13774648096E+02  0.65318724938E+02  0.43696851990E+03  0.40000000000E+03 0.  1.
   -9000007    1    1    2    0  502  0.16274277441E+03  0.13774648096E+02  0.45458277693E+03  0.62715265497E+03  0.40000000000E+03 0.  1.
<mgrwt>
<rscale>  2 0.43205897E+03</rscale>
<asrwt>0</asrwt>
<pdfrwt beam="1">  1       21 0.12184790E+00 0.43205897E+03</pdfrwt>
<pdfrwt beam="2">  1       21 0.41863052E-01 0.43205897E+03</pdfrwt>
<totfact> 0.24280125E+03</totfact>
</mgrwt>
</event>
<event>
 4    1  0.4863180E-002  0.6103082E+03  0.7818608E-02  0.9884248E-01
         21   -1    0    0  503  502  0.00000000000E+00  0.00000000000E+00  0.92951655400E+03  0.92951655400E+03  0.00000000000E+00 0. -1.
         21   -1    0    0  501  503 -0.00000000000E+00 -0.00000000000E+00 -0.50067977590E+03  0.50067977590E+03  0.00000000000E+00 0. -1.
    9000007    1    1    2  501    0  0.41818016433E+03 -0.19391105774E+03 -0.10510130675E+03  0.61929188016E+03  0.40000000000E+03 0. -1.
   -9000007    1    1    2    0  502 -0.41818016433E+03  0.19391105774E+03  0.53393808485E+03  0.81090444974E+03  0.40000000000E+03 0. -1.
<mgrwt>
<rscale>  2 0.61030824E+03</rscale>
<asrwt>0</asrwt>
<pdfrwt beam="1">  1       21 0.14300255E+00 0.61030824E+03</pdfrwt>
<pdfrwt beam="2">  1       21 0.77027658E-01 0.61030824E+03</pdfrwt>
<totfact> 0.39542444E+02</totfact>
</mgrwt>
</event>
<event>
 4    1  0.4863180E-002  0.4510544E+03  0.7818608E-02  0.1027408E+00
         21   -1    0    0  501  502  0.00000000000E+00  0.00000000000E+00  0.37673881136E+03  0.37673881136E+03  0.00000000000E+00 0.  1.
         21   -1    0    0  502  503 -0.00000000000E+00 -0.00000000000E+00 -0.70043424719E+03  0.70043424719E+03  0.00000000000E+00 0. -1.
    9000007    1    1    2  501    0 -0.20093839082E+03  0.55442240183E+02  0.95891427527E+02  0.46113473603E+03  0.40000000000E+03 0.  1.
   -9000007    1    1    2    0  503  0.20093839082E+03 -0.55442240183E+02 -0.41958686336E+03  0.61603832251E+03  0.40000000000E+03 0. -1.
<mgrwt>
<rscale>  2 0.45105441E+03</rscale>
<asrwt>0</asrwt>
<pdfrwt beam="1">  1       21 0.57959818E-01 0.45105441E+03</pdfrwt>
<pdfrwt beam="2">  1       21 0.10775911E+00 0.45105441E+03</pdfrwt>
<totfact> 0.16435463E+03</totfact>
</mgrwt>
</event>
<event>
 4    1  0.4863180E-002  0.5818030E+03  0.7818608E-02  0.9943895E-01
         21   -1    0    0  503  502  0.00000000000E+00  0.00000000000E+00  0.21935132719E+04  0.21935132719E+04  0.00000000000E+00 0. -1.
         21   -1    0    0  501  503 -0.00000000000E+00 -0.00000000000E+00 -0.16506511180E+03  0.16506511180E+03  0.00000000000E+00 0. -1.
    9000007    1    1    2  501    0 -0.26996219002E+03 -0.32498487373E+03  0.13151598573E+04  0.14381029875E+04  0.40000000000E+03 0. -1.
   -9000007    1    1    2    0  502  0.26996219002E+03  0.32498487373E+03  0.71328830272E+03  0.92047539619E+03  0.40000000000E+03 0. -1.
<mgrwt>
<rscale>  2 0.58180302E+03</rscale>
<asrwt>0</asrwt>
<pdfrwt beam="1">  1       21 0.33746356E+00 0.58180302E+03</pdfrwt>
<pdfrwt beam="2">  1       21 0.25394634E-01 0.58180302E+03</pdfrwt>
<totfact> 0.22009114E+02</totfact>
</mgrwt>
</event>
<event>
 4    1  0.4863180E-002  0.4819698E+03  0.7818608E-02  0.1018595E+00
         21   -1    0    0  503  502  0.00000000000E+00  0.00000000000E+00  0.11803530213E+04  0.11803530213E+04  0.00000000000E+00 0. -1.
         21   -1    0    0  501  503 -0.00000000000E+00 -0.00000000000E+00 -0.26241283416E+03  0.26241283416E+03  0.00000000000E+00 0.  1.
    9000007    1    1    2  501    0  0.19709822258E+03  0.18288578747E+03  0.98255536999E+02  0.49188318852E+03  0.40000000000E+03 0.  1.
   -9000007    1    1    2    0  502 -0.19709822258E+03 -0.18288578747E+03  0.81968465009E+03  0.95088266689E+03  0.40000000000E+03 0. -1.
<mgrwt>
<rscale>  2 0.48196983E+03</rscale>
<asrwt>0</asrwt>
<pdfrwt beam="1">  1       21 0.18159277E+00 0.48196983E+03</pdfrwt>
<pdfrwt beam="2">  1       21 0.40371206E-01 0.48196983E+03</pdfrwt>
<totfact> 0.86552812E+02</totfact>
</mgrwt>
</event>
<event>
 4    1  0.4863180E-002  0.4710575E+03  0.7818608E-02  0.1021622E+00
         21   -1    0    0  501  502  0.00000000000E+00  0.00000000000E+00  0.14121922958E+04  0.14121922958E+04  0.00000000000E+00 0.  1.
         21   -1    0    0  502  503 -0.00000000000E+00 -0.00000000000E+00 -0.18240405023E+03  0.18240405023E+03  0.00000000000E+00 0.  1.
    9000007    1    1    2  501    0 -0.20508872695E+03 -0.14083259207E+03  0.91168912993E+03  0.10261930981E+04  0.40000000000E+03 0.  1.
   -9000007    1    1    2    0  503  0.20508872695E+03  0.14083259207E+03  0.31809911564E+03  0.56840324795E+03  0.40000000000E+03 0.  1.
<mgrwt>
<rscale>  2 0.47105754E+03</rscale>
<asrwt>0</asrwt>
<pdfrwt beam="1">  1       21 0.21726035E+00 0.47105754E+03</pdfrwt>
<pdfrwt beam="2">  1       21 0.28062163E-01 0.47105754E+03</pdfrwt>
<totfact> 0.10441733E+03</totfact>
</mgrwt>
</event>
<event>
 4    1  0.4863180E-002  0.5304615E+03  0.7818608E-02  0.1006120E+00
         21   -1    0    0  501  502  0.00000000000E+00  0.00000000000E+00  0.33068319196E+03  0.33068319196E+03  0.00000000000E+00 0. -1.
         21   -1    0    0  502  503 -0.00000000000E+00 -0.00000000000E+00 -0.13566055310E+04  0.13566055310E+04  0.00000000000E+00 0. -1.
    9000007    1    1    2  501    0  0.29445652767E+03 -0.18623842964E+03  0.21098223621E+01  0.53046569231E+03  0.40000000000E+03 0. -1.
   -9000007    1    1    2    0  503 -0.29445652767E+03  0.18623842964E+03 -0.10280321614E+04  0.11568230307E+04  0.40000000000E+03 0. -1.
<mgrwt>
<rscale>  2 0.53046150E+03</rscale>
<asrwt>0</asrwt>
<pdfrwt beam="1">  1       21 0.50874339E-01 0.53046150E+03</pdfrwt>
<pdfrwt beam="2">  1       21 0.20870854E+00 0.53046150E+03</pdfrwt>
<totfact> 0.34124408E+02</totfact>
</mgrwt>
</event>
<event>
 4    1  0.4863180E-002  0.4096988E+03  0.7818608E-02  0.1040472E+00
         21   -1    0    0  503  502  0.00000000000E+00  0.00000000000E+00  0.11558058717E+04  0.11558058717E+04  0.00000000000E+00 0.  1.
         21   -1    0    0  501  503 -0.00000000000E+00 -0.00000000000E+00 -0.14523074586E+03  0.14523074586E+03  0.00000000000E+00 0.  1.
    9000007    1    1    2  501    0 -0.34211289555E+02  0.81747664935E+02  0.50157891680E+03  0.64763763235E+03  0.40000000000E+03 0.  1.
   -9000007    1    1    2    0  502  0.34211289555E+02 -0.81747664935E+02  0.50899620906E+03  0.65339898522E+03  0.40000000000E+03 0.  1.
<mgrwt>
<rscale>  2 0.40969878E+03</rscale>
<asrwt>0</asrwt>
<pdfrwt beam="1">  1       21 0.17781628E+00 0.40969878E+03</pdfrwt>
<pdfrwt beam="2">  1       21 0.22343192E-01 0.40969878E+03</pdfrwt>
<totfact> 0.30773407E+03</totfact>
</mgrwt>
</event>
<event>
 4    1  0.4863180E-002  0.4169584E+03  0.7818608E-02  0.1038061E+00
         21   -1    0    0  503  502  0.00000000000E+00  0.00000000000E+00  0.39315749444E+03  0.39315749444E+03  0.00000000000E+00 0. -1.
         21   -1    0    0  501  503 -0.00000000000E+00 -0.00000000000E+00 -0.79418131051E+03  0.79418131051E+03  0.00000000000E+00 0. -1.
    9000007    1    1    2  501    0  0.11579058772E+03 -0.21137915721E+02 -0.59573707665E+03  0.72715674801E+03  0.40000000000E+03 0. -1.
   -9000007    1    1    2    0  502 -0.11579058772E+03  0.21137915721E+02  0.19471326058E+03  0.46018205694E+03  0.40000000000E+03 0. -1.
<mgrwt>
<rscale>  2 0.41695836E+03</rscale>
<asrwt>0</asrwt>
<pdfrwt beam="1">  1       21 0.60485768E-01 0.41695836E+03</pdfrwt>
<pdfrwt beam="2">  1       21 0.12218174E+00 0.41695836E+03</pdfrwt>
<totfact> 0.11087092E+03</totfact>
</mgrwt>
</event>
<event>
 4    1  0.4863180E-002  0.6539916E+03  0.7818608E-02  0.9799318E-01
         21   -1    0    0  503  502  0.00000000000E+00  0.00000000000E+00  0.62335401787E+03  0.62335401787E+03  0.00000000000E+00 0.  1.
         21   -1    0    0  501  503 -0.00000000000E+00 -0.00000000000E+00 -0.72570705287E+03  0.72570705287E+03  0.00000000000E+00 0.  1.
    9000007    1    1    2  501    0 -0.48486312263E+03 -0.18059017167E+03 -0.20868893745E+03  0.68648097600E+03  0.40000000000E+03 0.  1.
   -9000007    1    1    2    0  502  0.48486312263E+03  0.18059017167E+03  0.10633590245E+03  0.66258009474E+03  0.40000000000E+03 0.  1.
<mgrwt>
<rscale>  2 0.65399163E+03</rscale>
<asrwt>0</asrwt>
<pdfrwt beam="1">  1       21 0.95900619E-01 0.65399163E+03</pdfrwt>
<pdfrwt beam="2">  1       21 0.11164724E+00 0.65399163E+03</pdfrwt>
<totfact> 0.44229677E+02</totfact>
</mgrwt>
</event>
<event>
 4    1  0.4863180E-002  0.6777178E+03  0.7818608E-02  0.9756115E-01
         21   -1    0    0  501  502  0.00000000000E+00  0.00000000000E+00  0.64712886327E+03  0.64712886327E+03  0.00000000000E+00 0.  1.
         21   -1    0    0  502  503 -0.00000000000E+00 -0.00000000000E+00 -0.72541067624E+03  0.72541067624E+03  0.00000000000E+00 0. -1.
    9000007    1    1    2  501    0  0.35887630298E+03  0.41292768055E+03  0.61684608613E+02  0.68051925847E+03  0.40000000000E+03 0.  1.
   -9000007    1    1    2    0  503 -0.35887630298E+03 -0.41292768055E+03 -0.13996642158E+03  0.69202028104E+03  0.40000000000E+03 0. -1.
<mgrwt>
<rscale>  2 0.67771784E+03</rscale>
<asrwt>0</asrwt>
<pdfrwt beam="1">  1       21 0.99558287E-01 0.67771784E+03</pdfrwt>
<pdfrwt beam="2">  1       21 0.11160164E+00 0.67771784E+03</pdfrwt>
<totfact> 0.40127671E+02</totfact>
</mgrwt>
</event>
<event>
 4    1  0.4863180E-002  0.4463289E+03  0.7818608E-02  0.1028822E+00
         21   -1    0    0  501  502  0.00000000000E+00  0.00000000000E+00  0.55269735683E+03  0.55269735683E+03  0.00000000000E+00 0.  1.
         21   -1    0    0  502  503 -0.00000000000E+00 -0.00000000000E+00 -0.40187060064E+03  0.40187060064E+03  0.00000000000E+00 0. -1.
    9000007    1    1    2  501    0 -0.42969507282E+02  0.19329546893E+03 -0.77850246953E+02  0.45306752015E+03  0.40000000000E+03 0.  1.
   -9000007    1    1    2    0  503  0.42969507282E+02 -0.19329546893E+03  0.22867700315E+03  0.50150043732E+03  0.40000000000E+03 0. -1.
<mgrwt>
<rscale>  2 0.44632893E+03</rscale>
<asrwt>0</asrwt>
<pdfrwt beam="1">  1       21 0.85030363E-01 0.44632893E+03</pdfrwt>
<pdfrwt beam="2">  1       21 0.61826246E-01 0.44632893E+03</pdfrwt>
<totfact> 0.25264196E+03</totfact>
</mgrwt>
</event>
<event>
 4    1  0.4863180E-002  0.4392037E+03  0.7818608E-02  0.1030991E+00
         21   -1    0    0  501  502  0.00000000000E+00  0.00000000000E+00  0.96513563611E+03  0.96513563611E+03  0.00000000000E+00 0. -1.
         21   -1    0    0  502  503 -0.00000000000E+00 -0.00000000000E+00 -0.52506076545E+03  0.52506076545E+03  0.00000000000E+00 0. -1.
    9000007    1    1    2  501    0 -0.15894207546E+03 -0.87391610486E+02  0.80641732378E+03  0.91826400181E+03  0.40000000000E+03 0. -1.
   -9000007    1    1    2    0  503  0.15894207546E+03  0.87391610486E+02 -0.36634245311E+03  0.57193239975E+03  0.40000000000E+03 0. -1.
<mgrwt>
<rscale>  2 0.43920369E+03</rscale>
<asrwt>0</asrwt>
<pdfrwt beam="1">  1       21 0.14848241E+00 0.43920369E+03</pdfrwt>
<pdfrwt beam="2">  1       21 0.80778580E-01 0.43920369E+03</pdfrwt>
<totfact> 0.34318580E+02</totfact>
</mgrwt>
</event>
<event>
 4    1  0.4863180E-002  0.4967241E+03  0.7818608E-02  0.1014638E+00
         21   -1    0    0  501  502  0.00000000000E+00  0.00000000000E+00  0.18011424384E+04  0.18011424384E+04  0.00000000000E+00 0.  1.
         21   -1    0    0  502  503 -0.00000000000E+00 -0.00000000000E+00 -0.14906596772E+03  0.14906596772E+03  0.00000000000E+00 0.  1.
    9000007    1    1    2  501    0  0.88242078224E+02 -0.28097712106E+03  0.11036000009E+04  0.12102345926E+04  0.40000000000E+03 0.  1.
   -9000007    1    1    2    0  503 -0.88242078224E+02  0.28097712106E+03  0.54847646977E+03  0.73997381361E+03  0.40000000000E+03 0.  1.
<mgrwt>
<rscale>  2 0.49672408E+03</rscale>
<asrwt>0</asrwt>
<pdfrwt beam="1">  1       21 0.27709882E+00 0.49672408E+03</pdfrwt>
<pdfrwt beam="2">  1       21 0.22933227E-01 0.49672408E+03</pdfrwt>
<totfact> 0.65076717E+02</totfact>
</mgrwt>
</event>
<event>
 4    1  0.4863180E-002  0.5869304E+03  0.7818608E-02  0.9932898E-01
         21   -1    0    0  503  502  0.00000000000E+00  0.00000000000E+00  0.69483297725E+03  0.69483297725E+03  0.00000000000E+00 0.  1.
         21   -1    0    0  501  503 -0.00000000000E+00 -0.00000000000E+00 -0.77479551230E+03  0.77479551230E+03  0.00000000000E+00 0.  1.
    9000007    1    1    2  501    0 -0.97076914994E+02 -0.41840576811E+03 -0.48093681393E+03  0.75880665074E+03  0.40000000000E+03 0.  1.
   -9000007    1    1    2    0  502  0.97076914994E+02  0.41840576811E+03  0.40097427887E+03  0.71082183881E+03  0.40000000000E+03 0.  1.
<mgrwt>
<rscale>  2 0.58693042E+03</rscale>
<asrwt>0</asrwt>
<pdfrwt beam="1">  1       21 0.10689738E+00 0.58693042E+03</pdfrwt>
<pdfrwt beam="2">  1       21 0.11919931E+00 0.58693042E+03</pdfrwt>
<totfact> 0.29348434E+02</totfact>
</mgrwt>
</event>
<event>
 4    1  0.4863180E-002  0.5757436E+03  0.7818608E-02  0.9957049E-01
         21   -1    0    0  503  502  0.00000000000E+00  0.00000000000E+00  0.21510398467E+03  0.21510398467E+03  0.00000000000E+00 0. -1.
         21   -1    0    0  501  503 -0.00000000000E+00 -0.00000000000E+00 -0.15439562430E+04  0.15439562430E+04  0.00000000000E+00 0.  1.
    9000007    1    1    2  501    0 -0.28396445417E+03 -0.30140487217E+03 -0.70274635472E+03  0.90847847926E+03  0.40000000000E+03 0. -1.
   -9000007    1    1    2    0  502  0.28396445417E+03  0.30140487217E+03 -0.62610590361E+03  0.85058174841E+03  0.40000000000E+03 0. -1.
<mgrwt>
<rscale>  2 0.57574361E+03</rscale>
<asrwt>0</asrwt>
<pdfrwt beam="1">  1       21 0.33092921E-01 0.57574361E+03</pdfrwt>
<pdfrwt beam="2">  1       21 0.23753173E+00 0.57574361E+03</pdfrwt>
<totfact> 0.53423100E+02</totfact>
</mgrwt>
</event>
<event>
 4    1  0.4863180E-002  0.5112025E+03  0.7818608E-02  0.1010896E+00
         21   -1    0    0  503  502  0.00000000000E+00  0.00000000000E+00  0.29656155395E+03  0.29656155395E+03  0.00000000000E+00 0.  1.
         21   -1    0    0  501  503 -0.00000000000E+00 -0.00000000000E+00 -0.93849451335E+03  0.93849451335E+03  0.00000000000E+00 0. -1.
    9000007    1    1    2  501    0  0.27170868180E+03  0.16583836522E+03 -0.47355567461E+03  0.69683782051E+03  0.40000000000E+03 0. -1.
   -9000007    1    1    2    0  502 -0.27170868180E+03 -0.16583836522E+03 -0.16837728479E+03  0.53821824679E+03  0.40000000000E+03 0.  1.
<mgrwt>
<rscale>  2 0.51120248E+03</rscale>
<asrwt>0</asrwt>
<pdfrwt beam="1">  1       21 0.45624855E-01 0.51120248E+03</pdfrwt>
<pdfrwt beam="2">  1       21 0.14438377E+00 0.51120248E+03</pdfrwt>
<totfact> 0.12627200E+03</totfact>
</mgrwt>
</event>
<event>
 4    1  0.4863180E-002  0.4633080E+03  0.7818608E-02  0.1023826E+00
         21   -1    0    0  501  502  0.00000000000E+00  0.00000000000E+00  0.38269755066E+03  0.38269755066E+03  0.00000000000E+00 0.  1.
         21   -1    0    0  502  503 -0.00000000000E+00 -0.00000000000E+00 -0.10184990369E+04  0.10184990369E+04  0.00000000000E+00 0.  1.
    9000007    1    1    2  501    0  0.14332219874E+03 -0.18469727709E+03  0.15170371030E+03  0.48751241270E+03  0.40000000000E+03 0.  1.
   -9000007    1    1    2    0  503 -0.14332219874E+03  0.18469727709E+03 -0.78750519649E+03  0.91368417482E+03  0.40000000000E+03 0.  1.
<mgrwt>
<rscale>  2 0.46330804E+03</rscale>
<asrwt>0</asrwt>
<pdfrwt beam="1">  1       21 0.58876547E-01 0.46330804E+03</pdfrwt>
<pdfrwt beam="2">  1       21 0.15669216E+00 0.46330804E+03</pdfrwt>
<totfact> 0.59625468E+02</totfact>
</mgrwt>
</event>
<event>
 4    1  0.4863180E-002  0.4212691E+03  0.7818608E-02  0.1036654E+00
         21   -1    0    0  501  502  0.00000000000E+00  0.00000000000E+00  0.36122381682E+04  0.36122381682E+04  0.00000000000E+00 0. -1.
         21   -1    0    0  502  503 -0.00000000000E+00 -0.00000000000E+00 -0.52808546486E+02  0.52808546486E+02  0.00000000000E+00 0. -1.
    9000007    1    1    2  501    0 -0.92769247275E+02  0.94135837764E+02  0.22633982571E+04  0.23022683074E+04  0.40000000000E+03 0. -1.
   -9000007    1    1    2    0  503  0.92769247275E+02 -0.94135837764E+02  0.12960313646E+04  0.13627784072E+04  0.40000000000E+03 0. -1.
<mgrwt>
<rscale>  2 0.42126914E+03</rscale>
<asrwt>0</asrwt>
<pdfrwt beam="1">  1       21 0.55572876E+00 0.42126914E+03</pdfrwt>
<pdfrwt beam="2">  1       21 0.81243946E-02 0.42126914E+03</pdfrwt>
<totfact> 0.66695981E+01</totfact>
</mgrwt>
</event>
<event>
 4    1  0.4863180E-002  0.4804393E+03  0.7818608E-02  0.1019015E+00
         21   -1    0    0  503  502  0.00000000000E+00  0.00000000000E+00  0.20613072744E+03  0.20613072744E+03  0.00000000000E+00 0.  1.
         21   -1    0    0  501  503 -0.00000000000E+00 -0.00000000000E+00 -0.16131995901E+04  0.16131995901E+04  0.00000000000E+00 0.  1.
    9000007    1    1    2  501    0  0.14774718044E+03 -0.22134293321E+03 -0.20044653019E+03  0.52057730922E+03  0.40000000000E+03 0.  1.
   -9000007    1    1    2    0  502 -0.14774718044E+03  0.22134293321E+03 -0.12066223325E+04  0.12987530083E+04  0.40000000000E+03 0.  1.
<mgrwt>
<rscale>  2 0.48043930E+03</rscale>
<asrwt>0</asrwt>
<pdfrwt beam="1">  1       21 0.31712420E-01 0.48043930E+03</pdfrwt>
<pdfrwt beam="2">  1       21 0.24818455E+00 0.48043930E+03</pdfrwt>
<totfact> 0.52087303E+02</totfact>
</mgrwt>
</event>
<event>
 4    1  0.4863180E-002  0.7823879E+03  0.7818608E-02  0.9585866E-01
         21   -1    0    0  501  502  0.00000000000E+00  0.00000000000E+00  0.98159291923E+03  0.98159291923E+03  0.00000000000E+00 0.  1.
         21   -1    0    0  502  503 -0.00000000000E+00 -0.00000000000E+00 -0.90706119828E+03  0.90706119828E+03  0.00000000000E+00 0. -1.
    9000007    1    1    2  501    0 -0.51706550183E+03  0.42985359421E+03  0.56515598039E+03  0.96515912046E+03  0.40000000000E+03 0.  1.
   -9000007    1    1    2    0  503  0.51706550183E+03 -0.42985359421E+03 -0.49062425943E+03  0.92349499705E+03  0.40000000000E+03 0.  1.
<mgrwt>
<rscale>  2 0.78238791E+03</rscale>
<asrwt>0</asrwt>
<pdfrwt beam="1">  1       21 0.15101430E+00 0.78238791E+03</pdfrwt>
<pdfrwt beam="2">  1       21 0.13954788E+00 0.78238791E+03</pdfrwt>
<totfact> 0.73619524E+01</totfact>
</mgrwt>
</event>
<event>
 4    1  0.4863180E-002  0.4990172E+03  0.7818608E-02  0.1014036E+00
         21   -1    0    0  503  502  0.00000000000E+00  0.00000000000E+00  0.20039340891E+03  0.20039340891E+03  0.00000000000E+00 0. -1.
         21   -1    0    0  501  503 -0.00000000000E+00 -0.00000000000E+00 -0.15925852204E+04  0.15925852204E+04  0.00000000000E+00 0.  1.
    9000007    1    1    2  501    0 -0.98524020459E+02  0.28162243244E+03 -0.11163285146E+04  0.12227867882E+04  0.40000000000E+03 0.  1.
   -9000007    1    1    2    0  502  0.98524020459E+02 -0.28162243244E+03 -0.27586329696E+03  0.57019184111E+03  0.40000000000E+03 0. -1.
<mgrwt>
<rscale>  2 0.49901721E+03</rscale>
<asrwt>0</asrwt>
<pdfrwt beam="1">  1       21 0.30829756E-01 0.49901721E+03</pdfrwt>
<pdfrwt beam="2">  1       21 0.24501310E+00 0.49901721E+03</pdfrwt>
<totfact> 0.57145919E+02</totfact>
</mgrwt>
</event>
<event>
 4    1  0.4863180E-002  0.4564996E+03  0.7818608E-02  0.1025801E+00
         21   -1    0    0  501  502  0.00000000000E+00  0.00000000000E+00  0.24320313026E+03  0.24320313026E+03  0.00000000000E+00 0. -1.
         21   -1    0    0  502  503 -0.00000000000E+00 -0.00000000000E+00 -0.99682670630E+03  0.99682670630E+03  0.00000000000E+00 0. -1.
    9000007    1    1    2  501    0  0.15019328563E+03 -0.16072927548E+03 -0.14448514984E+03  0.47881925773E+03  0.40000000000E+03 0. -1.
   -9000007    1    1    2    0  503 -0.15019328563E+03  0.16072927548E+03 -0.60913842621E+03  0.76121057883E+03  0.40000000000E+03 0. -1.
<mgrwt>
<rscale>  2 0.45649964E+03</rscale>
<asrwt>0</asrwt>
<pdfrwt beam="1">  1       21 0.37415866E-01 0.45649964E+03</pdfrwt>
<pdfrwt beam="2">  1       21 0.15335795E+00 0.45649964E+03</pdfrwt>
<totfact> 0.16513376E+03</totfact>
</mgrwt>
</event>
<event>
 4    1  0.4863180E-002  0.4228391E+03  0.7818608E-02  0.1036146E+00
         21   -1    0    0  503  502  0.00000000000E+00  0.00000000000E+00  0.90770042566E+03  0.90770042566E+03  0.00000000000E+00 0.  1.
         21   -1    0    0  501  503 -0.00000000000E+00 -0.00000000000E+00 -0.27978396666E+03  0.27978396666E+03  0.00000000000E+00 0. -1.
    9000007    1    1    2  501    0  0.10506975194E+03 -0.88052740030E+02 -0.90615347471E+01  0.42293622358E+03  0.40000000000E+03 0. -1.
   -9000007    1    1    2    0  502 -0.10506975194E+03  0.88052740030E+02  0.63697799375E+03  0.76454816874E+03  0.40000000000E+03 0.  1.
<mgrwt>
<rscale>  2 0.42283914E+03</rscale>
<asrwt>0</asrwt>
<pdfrwt beam="1">  1       21 0.13964622E+00 0.42283914E+03</pdfrwt>
<pdfrwt beam="2">  1       21 0.43043688E-01 0.42283914E+03</pdfrwt>
<totfact> 0.16147147E+03</totfact>
</mgrwt>
</event>
<event>
 4    1  0.4863180E-002  0.4651142E+03  0.7818608E-02  0.1023308E+00
         21   -1    0    0  501  502  0.00000000000E+00  0.00000000000E+00  0.18622160980E+04  0.18622160980E+04  0.00000000000E+00 0. -1.
         21   -1    0    0  502  503 -0.00000000000E+00 -0.00000000000E+00 -0.12068262290E+03  0.12068262290E+03  0.00000000000E+00 0.  1.
    9000007    1    1    2  501    0  0.23515121954E+03  0.32173341430E+02  0.10625122990E+04  0.11598549933E+04  0.40000000000E+03 0.  1.
   -9000007    1    1    2    0  503 -0.23515121954E+03 -0.32173341430E+02  0.67902117607E+03  0.82304372758E+03  0.40000000000E+03 0. -1.
<mgrwt>
<rscale>  2 0.46511420E+03</rscale>
<asrwt>0</asrwt>
<pdfrwt beam="1">  1       21 0.28649476E+00 0.46511420E+03</pdfrwt>
<pdfrwt beam="2">  1       21 0.18566559E-01 0.46511420E+03</pdfrwt>
<totfact> 0.86892763E+02</totfact>
</mgrwt>
</event>
<event>
 4    1  0.4863180E-002  0.4020105E+03  0.7818608E-02  0.1043086E+00
         21   -1    0    0  503  502  0.00000000000E+00  0.00000000000E+00  0.29284489129E+03  0.29284489129E+03  0.00000000000E+00 0. -1.
         21   -1    0    0  501  503 -0.00000000000E+00 -0.00000000000E+00 -0.57415015396E+03  0.57415015396E+03  0.00000000000E+00 0. -1.
    9000007    1    1    2  501    0  0.36359533064E+02  0.17041589843E+02 -0.55258321118E+02  0.40579047978E+03  0.40000000000E+03 0. -1.
   -9000007    1    1    2    0  502 -0.36359533064E+02 -0.17041589843E+02 -0.22604694154E+03  0.46120456547E+03  0.40000000000E+03 0. -1.
<mgrwt>
<rscale>  2 0.40201049E+03</rscale>
<asrwt>0</asrwt>
<pdfrwt beam="1">  1       21 0.45053061E-01 0.40201049E+03</pdfrwt>
<pdfrwt beam="2">  1       21 0.88330792E-01 0.40201049E+03</pdfrwt>
<totfact> 0.46288192E+03</totfact>
</mgrwt>
</event>
<event>
 4    1  0.4863180E-002  0.4486076E+03  0.7818608E-02  0.1028138E+00
         21   -1    0    0  503  502  0.00000000000E+00  0.00000000000E+00  0.25343065106E+04  0.25343065106E+04  0.00000000000E+00 0.  1.
         21   -1    0    0  501  503 -0.00000000000E+00 -0.00000000000E+00 -0.85623748367E+02  0.85623748367E+02  0.00000000000E+00 0.  1.
    9000007    1    1    2  501    0  0.20041372288E+03 -0.32911334957E+02  0.87144610704E+03  0.98013628326E+03  0.40000000000E+03 0.  1.
   -9000007    1    1    2    0  502 -0.20041372288E+03  0.32911334957E+02  0.15772366552E+04  0.16397939757E+04  0.40000000000E+03 0.  1.
<mgrwt>
<rscale>  2 0.44860764E+03</rscale>
<asrwt>0</asrwt>
<pdfrwt beam="1">  1       21 0.38989325E+00 0.44860764E+03</pdfrwt>
<pdfrwt beam="2">  1       21 0.13172886E-01 0.44860764E+03</pdfrwt>
<totfact> 0.38674380E+02</totfact>
</mgrwt>
</event>
<event>
 4    1  0.4863180E-002  0.4002135E+03  0.7818608E-02  0.1043706E+00
         21   -1    0    0  503  502  0.00000000000E+00  0.00000000000E+00  0.10115544013E+04  0.10115544013E+04  0.00000000000E+00 0. -1.
         21   -1    0    0  501  503 -0.00000000000E+00 -0.00000000000E+00 -0.16104856890E+03  0.16104856890E+03  0.00000000000E+00 0. -1.
    9000007    1    1    2  501    0 -0.11960516471E+02  0.52706870351E+01  0.34923628152E+03  0.53116552451E+03  0.40000000000E+03 0. -1.
   -9000007    1    1    2    0  502  0.11960516471E+02 -0.52706870351E+01  0.50126955089E+03  0.64143744570E+03  0.40000000000E+03 0. -1.
<mgrwt>
<rscale>  2 0.40021349E+03</rscale>
<asrwt>0</asrwt>
<pdfrwt beam="1">  1       21 0.15562375E+00 0.40021349E+03</pdfrwt>
<pdfrwt beam="2">  1       21 0.24776704E-01 0.40021349E+03</pdfrwt>
<totfact> 0.36848746E+03</totfact>
</mgrwt>
</event>
<event>
 4    1  0.4863180E-002  0.4693136E+03  0.7818608E-02  0.1022114E+00
         21   -1    0    0  503  502  0.00000000000E+00  0.00000000000E+00  0.34883358800E+03  0.34883358800E+03  0.00000000000E+00 0. -1.
         21   -1    0    0  501  503 -0.00000000000E+00 -0.00000000000E+00 -0.12662914887E+04  0.12662914887E+04  0.00000000000E+00 0. -1.
    9000007    1    1    2  501    0 -0.22954193665E+03 -0.86981091661E+02 -0.10305464239E+04  0.11323785334E+04  0.40000000000E+03 0. -1.
   -9000007    1    1    2    0  502  0.22954193665E+03  0.86981091661E+02  0.11308852325E+03  0.48274654331E+03  0.40000000000E+03 0. -1.
<mgrwt>
<rscale>  2 0.46931355E+03</rscale>
<asrwt>0</asrwt>
<pdfrwt beam="1">  1       21 0.53666706E-01 0.46931355E+03</pdfrwt>
<pdfrwt beam="2">  1       21 0.19481407E+00 0.46931355E+03</pdfrwt>
<totfact> 0.38726152E+02</totfact>
</mgrwt>
</event>
<event>
 4    1  0.4863180E-002  0.4698029E+03  0.7818608E-02  0.1021976E+00
         21   -1    0    0  501  502  0.00000000000E+00  0.00000000000E+00  0.46737958986E+03  0.46737958986E+03  0.00000000000E+00 0. -1.
         21   -1    0    0  502  503 -0.00000000000E+00 -0.00000000000E+00 -0.61968250317E+03  0.61968250317E+03  0.00000000000E+00 0.  1.
    9000007    1    1    2  501    0 -0.15346838721E+03 -0.19277496717E+03  0.18897495201E+03  0.50638549182E+03  0.40000000000E+03 0. -1.
   -9000007    1    1    2    0  503  0.15346838721E+03  0.19277496717E+03 -0.34127786531E+03  0.58067660121E+03  0.40000000000E+03 0.  1.
<mgrwt>
<rscale>  2 0.46980287E+03</rscale>
<asrwt>0</asrwt>
<pdfrwt beam="1">  1       21 0.71904552E-01 0.46980287E+03</pdfrwt>
<pdfrwt beam="2">  1       21 0.95335770E-01 0.46980287E+03</pdfrwt>
<totfact> 0.13629309E+03</totfact>
</mgrwt>
</event>
<event>
 4    1  0.4863180E-002  0.4957781E+03  0.7818608E-02  0.1014887E+00
         21   -1    0    0  503  502  0.00000000000E+00  0.00000000000E+00  0.12893678650E+03  0.12893678650E+03  0.00000000000E+00 0. -1.
         21   -1    0    0  501  503 -0.00000000000E+00 -0.00000000000E+00 -0.22626402892E+04  0.22626402892E+04  0.00000000000E+00 0. -1.
    9000007    1    1    2  501    0  0.35842479043E+02  0.29070810699E+03 -0.15413795386E+04  0.16191500143E+04  0.40000000000E+03 0. -1.
   -9000007    1    1    2    0  502 -0.35842479043E+02 -0.29070810699E+03 -0.59232396413E+03  0.77242706145E+03  0.40000000000E+03 0. -1.
<mgrwt>
<rscale>  2 0.49577806E+03</rscale>
<asrwt>0</asrwt>
<pdfrwt beam="1">  1       21 0.19836431E-01 0.49577806E+03</pdfrwt>
<pdfrwt beam="2">  1       21 0.34809847E+00 0.49577806E+03</pdfrwt>
<totfact> 0.31887885E+02</totfact>
</mgrwt>
</event>
<event>
 4    1  0.4863180E-002  0.4106972E+03  0.7818608E-02  0.1040137E+00
         21   -1    0    0  501  502  0.00000000000E+00  0.00000000000E+00  0.40870515688E+03  0.40870515688E+03  0.00000000000E+00 0.  1.
         21   -1    0    0  502  503 -0.00000000000E+00 -0.00000000000E+00 -0.88978614298E+03  0.88978614298E+03  0.00000000000E+00 0.  1.
    9000007    1    1    2  501    0  0.84740190610E+02 -0.38616808682E+02  0.23486603779E+03  0.47311120630E+03  0.40000000000E+03 0.  1.
   -9000007    1    1    2    0  503 -0.84740190610E+02  0.38616808682E+02 -0.71594702390E+03  0.82538009356E+03  0.40000000000E+03 0.  1.
<mgrwt>
<rscale>  2 0.41069716E+03</rscale>
<asrwt>0</asrwt>
<pdfrwt beam="1">  1       21 0.62877717E-01 0.41069716E+03</pdfrwt>
<pdfrwt beam="2">  1       21 0.13689018E+00 0.41069716E+03</pdfrwt>
<totfact> 0.76104918E+02</totfact>
</mgrwt>
</event>
<event>
 4    1  0.4863180E-002  0.4289579E+03  0.7818608E-02  0.1034190E+00
         21   -1    0    0  501  502  0.00000000000E+00  0.00000000000E+00  0.25790259162E+03  0.25790259162E+03  0.00000000000E+00 0.  1.
         21   -1    0    0  502  503 -0.00000000000E+00 -0.00000000000E+00 -0.71366650386E+03  0.71366650386E+03  0.00000000000E+00 0. -1.
    9000007    1    1    2  501    0 -0.11790195354E+03 -0.10051889544E+03 -0.23600959038E+03  0.48959722808E+03  0.40000000000E+03 0.  1.
   -9000007    1    1    2    0  503  0.11790195354E+03  0.10051889544E+03 -0.21975432186E+03  0.48197186740E+03  0.40000000000E+03 0. -1.
<mgrwt>
<rscale>  2 0.42895795E+03</rscale>
<asrwt>0</asrwt>
<pdfrwt beam="1">  1       21 0.39677322E-01 0.42895795E+03</pdfrwt>
<pdfrwt beam="2">  1       21 0.10979485E+00 0.42895795E+03</pdfrwt>
<totfact> 0.35260902E+03</totfact>
</mgrwt>
</event>
<event>
 4    1  0.4863180E-002  0.4530306E+03  0.7818608E-02  0.1026822E+00
         21   -1    0    0  503  502  0.00000000000E+00  0.00000000000E+00  0.51935598911E+03  0.51935598911E+03  0.00000000000E+00 0.  1.
         21   -1    0    0  501  503 -0.00000000000E+00 -0.00000000000E+00 -0.55481368175E+03  0.55481368175E+03  0.00000000000E+00 0. -1.
    9000007    1    1    2  501    0 -0.16219783613E+02  0.21206995269E+03 -0.30582518468E+03  0.54659472171E+03  0.40000000000E+03 0. -1.
   -9000007    1    1    2    0  502  0.16219783613E+02 -0.21206995269E+03  0.27036749204E+03  0.52757494915E+03  0.40000000000E+03 0.  1.
<mgrwt>
<rscale>  2 0.45303062E+03</rscale>
<asrwt>0</asrwt>
<pdfrwt beam="1">  1       21 0.79900922E-01 0.45303062E+03</pdfrwt>
<pdfrwt beam="2">  1       21 0.85355951E-01 0.45303062E+03</pdfrwt>
<totfact> 0.14009320E+03</totfact>
</mgrwt>
</event>
<event>
 4    1  0.4863180E-002  0.4072579E+03  0.7818608E-02  0.1041295E+00
         21   -1    0    0  501  502  0.00000000000E+00  0.00000000000E+00  0.38813715902E+03  0.38813715902E+03  0.00000000000E+00 0.  1.
         21   -1    0    0  502  503 -0.00000000000E+00 -0.00000000000E+00 -0.44820157264E+03  0.44820157264E+03  0.00000000000E+00 0.  1.
    9000007    1    1    2  501    0  0.75228010920E+02  0.14132567002E+02  0.60226984955E+02  0.41168710545E+03  0.40000000000E+03 0.  1.
   -9000007    1    1    2    0  503 -0.75228010920E+02 -0.14132567002E+02 -0.12029139857E+03  0.42465162622E+03  0.40000000000E+03 0.  1.
<mgrwt>
<rscale>  2 0.40725788E+03</rscale>
<asrwt>0</asrwt>
<pdfrwt beam="1">  1       21 0.59713409E-01 0.40725788E+03</pdfrwt>
<pdfrwt beam="2">  1       21 0.68954088E-01 0.40725788E+03</pdfrwt>
<totfact> 0.44681014E+03</totfact>
</mgrwt>
</event>
<event>
 4    1  0.4863180E-002  0.6543550E+03  0.7818608E-02  0.9798641E-01
         21   -1    0    0  503  502  0.00000000000E+00  0.00000000000E+00  0.10511229675E+04  0.10511229675E+04  0.00000000000E+00 0. -1.
         21   -1    0    0  501  503 -0.00000000000E+00 -0.00000000000E+00 -0.56457400662E+03  0.56457400662E+03  0.00000000000E+00 0.  1.
    9000007    1    1    2  501    0  0.33971640151E+03 -0.39086221063E+03 -0.18303167156E+03  0.67947118698E+03  0.40000000000E+03 0. -1.
   -9000007    1    1    2    0  502 -0.33971640151E+03  0.39086221063E+03  0.66958063241E+03  0.93622578711E+03  0.40000000000E+03 0. -1.
<mgrwt>
<rscale>  2 0.65435503E+03</rscale>
<asrwt>0</asrwt>
<pdfrwt beam="1">  1       21 0.16171123E+00 0.65435503E+03</pdfrwt>
<pdfrwt beam="2">  1       21 0.86857539E-01 0.65435503E+03</pdfrwt>
<totfact> 0.20939984E+02</totfact>
</mgrwt>
</event>
<event>
 4    1  0.4863180E-002  0.4180457E+03  0.7818608E-02  0.1037704E+00
         21   -1    0    0  501  502  0.00000000000E+00  0.00000000000E+00  0.20239846753E+03  0.20239846753E+03  0.00000000000E+00 0.  1.
         21   -1    0    0  502  503 -0.00000000000E+00 -0.00000000000E+00 -0.10431290825E+04  0.10431290825E+04  0.00000000000E+00 0.  1.
    9000007    1    1    2  501    0  0.11095995492E+03 -0.49498178068E+02 -0.67882675066E+03  0.79722514927E+03  0.40000000000E+03 0.  1.
   -9000007    1    1    2    0  503 -0.11095995492E+03  0.49498178068E+02 -0.16190386428E+03  0.44830240073E+03  0.40000000000E+03 0.  1.
<mgrwt>
<rscale>  2 0.41804567E+03</rscale>
<asrwt>0</asrwt>
<pdfrwt beam="1">  1       21 0.31138226E-01 0.41804567E+03</pdfrwt>
<pdfrwt beam="2">  1       21 0.16048139E+00 0.41804567E+03</pdfrwt>
<totfact> 0.21435503E+03</totfact>
</mgrwt>
</event>
<event>
 4    1  0.4863180E-002  0.4307226E+03  0.7818608E-02  0.1033632E+00
         21   -1    0    0  501  502  0.00000000000E+00  0.00000000000E+00  0.14928901262E+03  0.14928901262E+03  0.00000000000E+00 0. -1.
         21   -1    0    0  502  503 -0.00000000000E+00 -0.00000000000E+00 -0.13317790257E+04  0.13317790257E+04  0.00000000000E+00 0.  1.
    9000007    1    1    2  501    0  0.15673397692E+03  0.30926439746E+02 -0.39972769671E+03  0.58762591478E+03  0.40000000000E+03 0. -1.
   -9000007    1    1    2    0  503 -0.15673397692E+03 -0.30926439746E+02 -0.78276231636E+03  0.89344212354E+03  0.40000000000E+03 0.  1.
<mgrwt>
<rscale>  2 0.43072263E+03</rscale>
<asrwt>0</asrwt>
<pdfrwt beam="1">  1       21 0.22967540E-01 0.43072263E+03</pdfrwt>
<pdfrwt beam="2">  1       21 0.20488908E+00 0.43072263E+03</pdfrwt>
<totfact> 0.18915062E+03</totfact>
</mgrwt>
</event>
<event>
 4    1  0.4863180E-002  0.4145221E+03  0.7818608E-02  0.1038864E+00
         21   -1    0    0  501  502  0.00000000000E+00  0.00000000000E+00  0.40689644194E+03  0.40689644194E+03  0.00000000000E+00 0.  1.
         21   -1    0    0  502  503 -0.00000000000E+00 -0.00000000000E+00 -0.42910693675E+03  0.42910693675E+03  0.00000000000E+00 0.  1.
    9000007    1    1    2  501    0  0.56831064181E+02  0.92729945068E+02  0.41577123386E+02  0.41660205203E+03  0.40000000000E+03 0.  1.
   -9000007    1    1    2    0  503 -0.56831064181E+02 -0.92729945068E+02 -0.63787618186E+02  0.41940132666E+03  0.40000000000E+03 0.  1.
<mgrwt>
<rscale>  2 0.41452215E+03</rscale>
<asrwt>0</asrwt>
<pdfrwt beam="1">  1       21 0.62599452E-01 0.41452215E+03</pdfrwt>
<pdfrwt beam="2">  1       21 0.66016452E-01 0.41452215E+03</pdfrwt>
<totfact> 0.44278587E+03</totfact>
</mgrwt>
</event>
<event>
 4    1  0.4863180E-002  0.4408729E+03  0.7818608E-02  0.1030479E+00
         21   -1    0    0  501  502  0.00000000000E+00  0.00000000000E+00  0.45604980194E+03  0.45604980194E+03  0.00000000000E+00 0.  1.
         21   -1    0    0  502  503 -0.00000000000E+00 -0.00000000000E+00 -0.42894688841E+03  0.42894688841E+03  0.00000000000E+00 0.  1.
    9000007    1    1    2  501    0  0.17202384263E+03 -0.69113669680E+02 -0.21852177105E+02  0.44141411329E+03  0.40000000000E+03 0.  1.
   -9000007    1    1    2    0  503 -0.17202384263E+03  0.69113669680E+02  0.48955090633E+02  0.44358257706E+03  0.40000000000E+03 0.  1.
<mgrwt>
<rscale>  2 0.44087289E+03</rscale>
<asrwt>0</asrwt>
<pdfrwt beam="1">  1       21 0.70161508E-01 0.44087289E+03</pdfrwt>
<pdfrwt beam="2">  1       21 0.65991829E-01 0.44087289E+03</pdfrwt>
<totfact> 0.34052207E+03</totfact>
</mgrwt>
</event>
<event>
 4    1  0.4863180E-002  0.4278918E+03  0.7818608E-02  0.1034528E+00
         21   -1    0    0  501  502  0.00000000000E+00  0.00000000000E+00  0.45691224320E+03  0.45691224320E+03  0.00000000000E+00 0.  1.
         21   -1    0    0  502  503 -0.00000000000E+00 -0.00000000000E+00 -0.86620699473E+03  0.86620699473E+03  0.00000000000E+00 0.  1.
    9000007    1    1    2  501    0  0.31311117358E+02  0.14869777152E+03  0.28032213202E+03  0.51153876786E+03  0.40000000000E+03 0.  1.
   -9000007    1    1    2    0  503 -0.31311117358E+02 -0.14869777152E+03 -0.68961688355E+03  0.81158047007E+03  0.40000000000E+03 0.  1.
<mgrwt>
<rscale>  2 0.42789182E+03</rscale>
<asrwt>0</asrwt>
<pdfrwt beam="1">  1       21 0.70294192E-01 0.42789182E+03</pdfrwt>
<pdfrwt beam="2">  1       21 0.13326261E+00 0.42789182E+03</pdfrwt>
<totfact> 0.63169224E+02</totfact>
</mgrwt>
</event>
<event>
 4    1  0.4863180E-002  0.4353312E+03  0.7818608E-02  0.1032189E+00
         21   -1    0    0  503  502  0.00000000000E+00  0.00000000000E+00  0.27823958314E+03  0.27823958314E+03  0.00000000000E+00 0. -1.
         21   -1    0    0  501  503 -0.00000000000E+00 -0.00000000000E+00 -0.77221618440E+03  0.77221618440E+03  0.00000000000E+00 0. -1.
    9000007    1    1    2  501    0 -0.23038527758E+02  0.17024252199E+03 -0.66587206265E+02  0.44039430752E+03  0.40000000000E+03 0. -1.
   -9000007    1    1    2    0  502  0.23038527758E+02 -0.17024252199E+03 -0.42738939499E+03  0.61006146002E+03  0.40000000000E+03 0. -1.
<mgrwt>
<rscale>  2 0.43533124E+03</rscale>
<asrwt>0</asrwt>
<pdfrwt beam="1">  1       21 0.42806090E-01 0.43533124E+03</pdfrwt>
<pdfrwt beam="2">  1       21 0.11880249E+00 0.43533124E+03</pdfrwt>
<totfact> 0.24695270E+03</totfact>
</mgrwt>
</event>
<event>
 4    1  0.4863180E-002  0.5216272E+03  0.7818608E-02  0.1008283E+00
         21   -1    0    0  503  502  0.00000000000E+00  0.00000000000E+00  0.35179302095E+03  0.35179302095E+03  0.00000000000E+00 0. -1.
         21   -1    0    0  501  503 -0.00000000000E+00 -0.00000000000E+00 -0.77970350924E+03  0.77970350924E+03  0.00000000000E+00 0. -1.
    9000007    1    1    2  501    0 -0.19147771674E+03  0.27464750729E+03 -0.16329637346E+03  0.54659004277E+03  0.40000000000E+03 0. -1.
   -9000007    1    1    2    0  502  0.19147771674E+03 -0.27464750729E+03 -0.26461411483E+03  0.58490648743E+03  0.40000000000E+03 0. -1.
<mgrwt>
<rscale>  2 0.52162723E+03</rscale>
<asrwt>0</asrwt>
<pdfrwt beam="1">  1       21 0.54122004E-01 0.52162723E+03</pdfrwt>
<pdfrwt beam="2">  1       21 0.11995438E+00 0.52162723E+03</pdfrwt>
<totfact> 0.14208402E+03</totfact>
</mgrwt>
</event>
<event>
 4    1  0.4863180E-002  0.6370893E+03  0.7818608E-02  0.9831311E-01
         21   -1    0    0  501  502  0.00000000000E+00  0.00000000000E+00  0.64877448649E+03  0.64877448649E+03  0.00000000000E+00 0.  1.
         21   -1    0    0  502  503 -0.00000000000E+00 -0.00000000000E+00 -0.63059738251E+03  0.63059738251E+03  0.00000000000E+00 0.  1.
    9000007    1    1    2  501    0 -0.48190459623E+03 -0.11683621998E+03  0.65951576489E+02  0.64049383495E+03  0.40000000000E+03 0.  1.
   -9000007    1    1    2    0  503  0.48190459623E+03  0.11683621998E+03 -0.47774472513E+02  0.63887803405E+03  0.40000000000E+03 0.  1.
<mgrwt>
<rscale>  2 0.63708927E+03</rscale>
<asrwt>0</asrwt>
<pdfrwt beam="1">  1       21 0.99811459E-01 0.63708927E+03</pdfrwt>
<pdfrwt beam="2">  1       21 0.97014982E-01 0.63708927E+03</pdfrwt>
<totfact> 0.57117678E+02</totfact>
</mgrwt>
</event>
<event>
 4    1  0.4863180E-002  0.4703431E+03  0.7818608E-02  0.1021823E+00
         21   -1    0    0  503  502  0.00000000000E+00  0.00000000000E+00  0.71533568049E+03  0.71533568049E+03  0.00000000000E+00 0. -1.
         21   -1    0    0  501  503 -0.00000000000E+00 -0.00000000000E+00 -0.31553819708E+03  0.31553819708E+03  0.00000000000E+00 0. -1.
    9000007    1    1    2  501    0  0.15524779846E+03  0.19266749033E+03  0.12717651096E+03  0.48723352275E+03  0.40000000000E+03 0. -1.
   -9000007    1    1    2    0  502 -0.15524779846E+03 -0.19266749033E+03  0.27262097245E+03  0.54364035481E+03  0.40000000000E+03 0. -1.
<mgrwt>
<rscale>  2 0.47034311E+03</rscale>
<asrwt>0</asrwt>
<pdfrwt beam="1">  1       21 0.11005164E+00 0.47034311E+03</pdfrwt>
<pdfrwt beam="2">  1       21 0.48544338E-01 0.47034311E+03</pdfrwt>
<totfact> 0.22665435E+03</totfact>
</mgrwt>
</event>
<event>
 4    1  0.4863180E-002  0.5405029E+03  0.7818608E-02  0.1003716E+00
         21   -1    0    0  503  502  0.00000000000E+00  0.00000000000E+00  0.34875392941E+03  0.34875392941E+03  0.00000000000E+00 0.  1.
         21   -1    0    0  501  503 -0.00000000000E+00 -0.00000000000E+00 -0.96526354371E+03  0.96526354371E+03  0.00000000000E+00 0. -1.
    9000007    1    1    2  501    0  0.31226035170E+03 -0.18610975360E+03 -0.54711817101E+03  0.76907844898E+03  0.40000000000E+03 0.  1.
   -9000007    1    1    2    0  502 -0.31226035170E+03  0.18610975360E+03 -0.69391443283E+02  0.54493902414E+03  0.40000000000E+03 0. -1.
<mgrwt>
<rscale>  2 0.54050288E+03</rscale>
<asrwt>0</asrwt>
<pdfrwt beam="1">  1       21 0.53654451E-01 0.54050288E+03</pdfrwt>
<pdfrwt beam="2">  1       21 0.14850208E+00 0.54050288E+03</pdfrwt>
<totfact> 0.81958369E+02</totfact>
</mgrwt>
</event>
<event>
 4    1  0.4863180E-002  0.4069231E+03  0.7818608E-02  0.1041408E+00
         21   -1    0    0  503  502  0.00000000000E+00  0.00000000000E+00  0.47123529350E+03  0.47123529350E+03  0.00000000000E+00 0. -1.
         21   -1    0    0  501  503 -0.00000000000E+00 -0.00000000000E+00 -0.60850754285E+03  0.60850754285E+03  0.00000000000E+00 0. -1.
    9000007    1    1    2  501    0 -0.62589987764E+02 -0.40852225871E+02  0.28229745445E+03  0.49525575586E+03  0.40000000000E+03 0. -1.
   -9000007    1    1    2    0  502  0.62589987764E+02  0.40852225871E+02 -0.41956970379E+03  0.58448708050E+03  0.40000000000E+03 0. -1.
<mgrwt>
<rscale>  2 0.40692310E+03</rscale>
<asrwt>0</asrwt>
<pdfrwt beam="1">  1       21 0.72497738E-01 0.40692310E+03</pdfrwt>
<pdfrwt beam="2">  1       21 0.93616544E-01 0.40692310E+03</pdfrwt>
<totfact> 0.14334717E+03</totfact>
</mgrwt>
</event>
<event>
 4    1  0.4863180E-002  0.6171217E+03  0.7818608E-02  0.9870507E-01
         21   -1    0    0  503  502  0.00000000000E+00  0.00000000000E+00  0.54728506304E+03  0.54728506304E+03  0.00000000000E+00 0. -1.
         21   -1    0    0  501  503 -0.00000000000E+00 -0.00000000000E+00 -0.74024951222E+03  0.74024951222E+03  0.00000000000E+00 0.  1.
    9000007    1    1    2  501    0 -0.35638035109E+03  0.30632053164E+03 -0.25410951372E+03  0.66739109052E+03  0.40000000000E+03 0.  1.
   -9000007    1    1    2    0  502  0.35638035109E+03 -0.30632053164E+03  0.61145064544E+02  0.62014348474E+03  0.40000000000E+03 0. -1.
<mgrwt>
<rscale>  2 0.61712172E+03</rscale>
<asrwt>0</asrwt>
<pdfrwt beam="1">  1       21 0.84197702E-01 0.61712172E+03</pdfrwt>
<pdfrwt beam="2">  1       21 0.11388454E+00 0.61712172E+03</pdfrwt>
<totfact> 0.58071456E+02</totfact>
</mgrwt>
</event>
<event>
 4    1  0.4863180E-002  0.1028216E+04  0.7818608E-02  0.9278128E-01
         21   -1    0    0  501  502  0.00000000000E+00  0.00000000000E+00  0.49806125194E+03  0.49806125194E+03  0.00000000000E+00 0. -1.
         21   -1    0    0  502  503 -0.00000000000E+00 -0.00000000000E+00 -0.30647947466E+04  0.30647947466E+04  0.00000000000E+00 0.  1.
    9000007    1    1    2  501    0  0.93637472334E+03 -0.14293598436E+03 -0.29568328087E+03  0.10698864055E+04  0.40000000000E+03 0. -1.
   -9000007    1    1    2    0  503 -0.93637472334E+03  0.14293598436E+03 -0.22710502138E+04  0.24929695930E+04  0.40000000000E+03 0.  1.
<mgrwt>
<rscale>  2 0.10282161E+04</rscale>
<asrwt>0</asrwt>
<pdfrwt beam="1">  1       21 0.76624806E-01 0.10282161E+04</pdfrwt>
<pdfrwt beam="2">  1       21 0.47150690E+00 0.10282161E+04</pdfrwt>
<totfact> 0.23258921E+00</totfact>
</mgrwt>
</event>
<event>
 4    1  0.4863180E-002  0.4495067E+03  0.7818608E-02  0.1027869E+00
         21   -1    0    0  501  502  0.00000000000E+00  0.00000000000E+00  0.46423166023E+03  0.46423166023E+03  0.00000000000E+00 0. -1.
         21   -1    0    0  502  503 -0.00000000000E+00 -0.00000000000E+00 -0.64529635151E+03  0.64529635151E+03  0.00000000000E+00 0. -1.
    9000007    1    1    2  501    0  0.19657645943E+03 -0.58428877471E+02  0.22597774486E+03  0.50311249169E+03  0.40000000000E+03 0. -1.
   -9000007    1    1    2    0  503 -0.19657645943E+03  0.58428877471E+02 -0.40704243615E+03  0.60641552004E+03  0.40000000000E+03 0. -1.
<mgrwt>
<rscale>  2 0.44950666E+03</rscale>
<asrwt>0</asrwt>
<pdfrwt beam="1">  1       21 0.71420256E-01 0.44950666E+03</pdfrwt>
<pdfrwt beam="2">  1       21 0.99276361E-01 0.44950666E+03</pdfrwt>
<totfact> 0.12651663E+03</totfact>
</mgrwt>
</event>
<event>
 4    1  0.4863180E-002  0.4546579E+03  0.7818608E-02  0.1026342E+00
         21   -1    0    0  503  502  0.00000000000E+00  0.00000000000E+00  0.78223377092E+03  0.78223377092E+03  0.00000000000E+00 0. -1.
         21   -1    0    0  501  503 -0.00000000000E+00 -0.00000000000E+00 -0.56544862493E+03  0.56544862493E+03  0.00000000000E+00 0.  1.
    9000007    1    1    2  501    0 -0.21395088251E+03  0.30640610103E+02 -0.38339731298E+03  0.59473298775E+03  0.40000000000E+03 0.  1.
   -9000007    1    1    2    0  502  0.21395088251E+03 -0.30640610103E+02  0.60018245897E+03  0.75294940810E+03  0.40000000000E+03 0.  1.
<mgrwt>
<rscale>  2 0.45465792E+03</rscale>
<asrwt>0</asrwt>
<pdfrwt beam="1">  1       21 0.12034366E+00 0.45465792E+03</pdfrwt>
<pdfrwt beam="2">  1       21 0.86992097E-01 0.45465792E+03</pdfrwt>
<totfact> 0.49713933E+02</totfact>
</mgrwt>
</event>
<event>
 4    1  0.4863180E-002  0.4557763E+03  0.7818608E-02  0.1026013E+00
         21   -1    0    0  503  502  0.00000000000E+00  0.00000000000E+00  0.37044365164E+03  0.37044365164E+03  0.00000000000E+00 0. -1.
         21   -1    0    0  501  503 -0.00000000000E+00 -0.00000000000E+00 -0.72919496099E+03  0.72919496099E+03  0.00000000000E+00 0.  1.
    9000007    1    1    2  501    0 -0.10375756504E+03  0.19226637304E+03 -0.44362096387E+03  0.63602794757E+03  0.40000000000E+03 0.  1.
   -9000007    1    1    2    0  502  0.10375756504E+03 -0.19226637304E+03  0.84869654516E+02  0.46361066507E+03  0.40000000000E+03 0. -1.
<mgrwt>
<rscale>  2 0.45577625E+03</rscale>
<asrwt>0</asrwt>
<pdfrwt beam="1">  1       21 0.56991331E-01 0.45577625E+03</pdfrwt>
<pdfrwt beam="2">  1       21 0.11218384E+00 0.45577625E+03</pdfrwt>
<totfact> 0.15400561E+03</totfact>
</mgrwt>
</event>
<event>
 4    1  0.4863180E-002  0.4870585E+03  0.7818608E-02  0.1017213E+00
         21   -1    0    0  503  502  0.00000000000E+00  0.00000000000E+00  0.66949869937E+03  0.66949869937E+03  0.00000000000E+00 0.  1.
         21   -1    0    0  501  503 -0.00000000000E+00 -0.00000000000E+00 -0.43318518885E+03  0.43318518885E+03  0.00000000000E+00 0.  1.
    9000007    1    1    2  501    0  0.21914066786E+03 -0.17088991076E+03 -0.11707124006E+03  0.50093080277E+03  0.40000000000E+03 0.  1.
   -9000007    1    1    2    0  502 -0.21914066786E+03  0.17088991076E+03  0.35338475058E+03  0.60175308545E+03  0.40000000000E+03 0.  1.
<mgrwt>
<rscale>  2 0.48705851E+03</rscale>
<asrwt>0</asrwt>
<pdfrwt beam="1">  1       21 0.10299980E+00 0.48705851E+03</pdfrwt>
<pdfrwt beam="2">  1       21 0.66643875E-01 0.48705851E+03</pdfrwt>
<totfact> 0.13316093E+03</totfact>
</mgrwt>
</event>
<event>
 4    1  0.4863180E-002  0.4098977E+03  0.7818608E-02  0.1040405E+00
         21   -1    0    0  501  502  0.00000000000E+00  0.00000000000E+00  0.26877888462E+03  0.26877888462E+03  0.00000000000E+00 0. -1.
         21   -1    0    0  502  503 -0.00000000000E+00 -0.00000000000E+00 -0.19778310130E+04  0.19778310130E+04  0.00000000000E+00 0. -1.
    9000007    1    1    2  501    0  0.87794797112E+02 -0.17556686377E+02  0.74455983664E+02  0.41660515736E+03  0.40000000000E+03 0. -1.
   -9000007    1    1    2    0  503 -0.87794797112E+02  0.17556686377E+02 -0.17835081121E+04  0.18300047403E+04  0.40000000000E+03 0. -1.
<mgrwt>
<rscale>  2 0.40989775E+03</rscale>
<asrwt>0</asrwt>
<pdfrwt beam="1">  1       21 0.41350597E-01 0.40989775E+03</pdfrwt>
<pdfrwt beam="2">  1       21 0.30428170E+00 0.40989775E+03</pdfrwt>
<totfact> 0.14491039E+02</totfact>
</mgrwt>
</event>
<event>
 4    1  0.4863180E-002  0.4057784E+03  0.7818608E-02  0.1041797E+00
         21   -1    0    0  501  502  0.00000000000E+00  0.00000000000E+00  0.10689605325E+04  0.10689605325E+04  0.00000000000E+00 0.  1.
         21   -1    0    0  502  503 -0.00000000000E+00 -0.00000000000E+00 -0.15501841517E+03  0.15501841517E+03  0.00000000000E+00 0.  1.
    9000007    1    1    2  501    0 -0.64734000291E+02 -0.21578714922E+02  0.40819920108E+03  0.57557164584E+03  0.40000000000E+03 0. -1.
   -9000007    1    1    2    0  503  0.64734000291E+02  0.21578714922E+02  0.50574291623E+03  0.64840730182E+03  0.40000000000E+03 0. -1.
<mgrwt>
<rscale>  2 0.40577843E+03</rscale>
<asrwt>0</asrwt>
<pdfrwt beam="1">  1       21 0.16445546E+00 0.40577843E+03</pdfrwt>
<pdfrwt beam="2">  1       21 0.23848988E-01 0.40577843E+03</pdfrwt>
<totfact> 0.33956918E+03</totfact>
</mgrwt>
</event>
<event>
 4    1  0.4863180E-002  0.4952069E+03  0.7818608E-02  0.1015038E+00
         21   -1    0    0  503  502  0.00000000000E+00  0.00000000000E+00  0.52876660808E+03  0.52876660808E+03  0.00000000000E+00 0.  1.
         21   -1    0    0  501  503 -0.00000000000E+00 -0.00000000000E+00 -0.78476562864E+03  0.78476562864E+03  0.00000000000E+00 0. -1.
    9000007    1    1    2  501    0 -0.25416602144E+03  0.14362959104E+03 -0.54803456108E+03  0.73862825969E+03  0.40000000000E+03 0. -1.
   -9000007    1    1    2    0  502  0.25416602144E+03 -0.14362959104E+03  0.29203554053E+03  0.57490397703E+03  0.40000000000E+03 0.  1.
<mgrwt>
<rscale>  2 0.49520685E+03</rscale>
<asrwt>0</asrwt>
<pdfrwt beam="1">  1       21 0.81348709E-01 0.49520685E+03</pdfrwt>
<pdfrwt beam="2">  1       21 0.12073317E+00 0.49520685E+03</pdfrwt>
<totfact> 0.56680604E+02</totfact>
</mgrwt>
</event>
<event>
 4    1  0.4863180E-002  0.4202512E+03  0.7818608E-02  0.1036985E+00
         21   -1    0    0  501  502  0.00000000000E+00  0.00000000000E+00  0.66184303363E+03  0.66184303363E+03  0.00000000000E+00 0. -1.
         21   -1    0    0  502  503 -0.00000000000E+00 -0.00000000000E+00 -0.28806427041E+03  0.28806427041E+03  0.00000000000E+00 0.  1.
    9000007    1    1    2  501    0 -0.12867495870E+03 -0.73368882270E+01  0.31578776523E+03  0.52567384146E+03  0.40000000000E+03 0. -1.
   -9000007    1    1    2    0  503  0.12867495870E+03  0.73368882270E+01  0.57990997985E+02  0.42423346258E+03  0.40000000000E+03 0.  1.
<mgrwt>
<rscale>  2 0.42025120E+03</rscale>
<asrwt>0</asrwt>
<pdfrwt beam="1">  1       21 0.10182200E+00 0.42025120E+03</pdfrwt>
<pdfrwt beam="2">  1       21 0.44317580E-01 0.42025120E+03</pdfrwt>
<totfact> 0.33863873E+03</totfact>
</mgrwt>
</event>
<event>
 4    1  0.4863180E-002  0.6513354E+03  0.7818608E-02  0.9804277E-01
         21   -1    0    0  501  502  0.00000000000E+00  0.00000000000E+00  0.69704713321E+03  0.69704713321E+03  0.00000000000E+00 0.  1.
         21   -1    0    0  502  503 -0.00000000000E+00 -0.00000000000E+00 -0.95499382998E+03  0.95499382998E+03  0.00000000000E+00 0.  1.
    9000007    1    1    2  501    0 -0.17599892559E+03 -0.48297217419E+03  0.36849132402E+03  0.74834724476E+03  0.40000000000E+03 0.  1.
   -9000007    1    1    2    0  503  0.17599892559E+03  0.48297217419E+03 -0.62643802079E+03  0.90369371844E+03  0.40000000000E+03 0.  1.
<mgrwt>
<rscale>  2 0.65133535E+03</rscale>
<asrwt>0</asrwt>
<pdfrwt beam="1">  1       21 0.10723802E+00 0.65133535E+03</pdfrwt>
<pdfrwt beam="2">  1       21 0.14692213E+00 0.65133535E+03</pdfrwt>
<totfact> 0.16388704E+02</totfact>
</mgrwt>
</event>
<event>
 4    1  0.4863180E-002  0.4751671E+03  0.7818608E-02  0.1020472E+00
         21   -1    0    0  501  502  0.00000000000E+00  0.00000000000E+00  0.30759208545E+03  0.30759208545E+03  0.00000000000E+00 0. -1.
         21   -1    0    0  502  503 -0.00000000000E+00 -0.00000000000E+00 -0.86265245424E+03  0.86265245424E+03  0.00000000000E+00 0. -1.
    9000007    1    1    2  501    0 -0.20544778566E+03 -0.15354160377E+03 -0.50346134062E+03  0.69228400113E+03  0.40000000000E+03 0. -1.
   -9000007    1    1    2    0  503  0.20544778566E+03  0.15354160377E+03 -0.51599028168E+02  0.47796053857E+03  0.40000000000E+03 0. -1.
<mgrwt>
<rscale>  2 0.47516715E+03</rscale>
<asrwt>0</asrwt>
<pdfrwt beam="1">  1       21 0.47321860E-01 0.47516715E+03</pdfrwt>
<pdfrwt beam="2">  1       21 0.13271576E+00 0.47516715E+03</pdfrwt>
<totfact> 0.14820013E+03</totfact>
</mgrwt>
</event>
<event>
 4    1  0.4863180E-002  0.4469593E+03  0.7818608E-02  0.1028633E+00
         21   -1    0    0  503  502  0.00000000000E+00  0.00000000000E+00  0.25205438378E+03  0.25205438378E+03  0.00000000000E+00 0.  1.
         21   -1    0    0  501  503 -0.00000000000E+00 -0.00000000000E+00 -0.99466358602E+03  0.99466358602E+03  0.00000000000E+00 0.  1.
    9000007    1    1    2  501    0 -0.19830608441E+03 -0.21150313410E+02 -0.65228000034E+03  0.79072235185E+03  0.40000000000E+03 0.  1.
   -9000007    1    1    2    0  502  0.19830608441E+03  0.21150313410E+02 -0.90329201906E+02  0.45599561795E+03  0.40000000000E+03 0.  1.
<mgrwt>
<rscale>  2 0.44695933E+03</rscale>
<asrwt>0</asrwt>
<pdfrwt beam="1">  1       21 0.38777597E-01 0.44695933E+03</pdfrwt>
<pdfrwt beam="2">  1       21 0.15302517E+00 0.44695933E+03</pdfrwt>
<totfact> 0.15500382E+03</totfact>
</mgrwt>
</event>
<event>
 4    1  0.4863180E-002  0.4653437E+03  0.7818608E-02  0.1023243E+00
         21   -1    0    0  503  502  0.00000000000E+00  0.00000000000E+00  0.78712156338E+03  0.78712156338E+03  0.00000000000E+00 0.  1.
         21   -1    0    0  501  503 -0.00000000000E+00 -0.00000000000E+00 -0.35169712052E+03  0.35169712052E+03  0.00000000000E+00 0. -1.
    9000007    1    1    2  501    0  0.21683578692E+03  0.97606237864E+02 -0.48004601305E+02  0.46781318697E+03  0.40000000000E+03 0. -1.
   -9000007    1    1    2    0  502 -0.21683578692E+03 -0.97606237864E+02  0.48342904416E+03  0.67100549692E+03  0.40000000000E+03 0.  1.
<mgrwt>
<rscale>  2 0.46534368E+03</rscale>
<asrwt>0</asrwt>
<pdfrwt beam="1">  1       21 0.12109562E+00 0.46534368E+03</pdfrwt>
<pdfrwt beam="2">  1       21 0.54107250E-01 0.46534368E+03</pdfrwt>
<totfact> 0.14162935E+03</totfact>
</mgrwt>
</event>
<event>
 4    1  0.4863180E-002  0.4289415E+03  0.7818608E-02  0.1034195E+00
         21   -1    0    0  503  502  0.00000000000E+00  0.00000000000E+00  0.70087882654E+03  0.70087882654E+03  0.00000000000E+00 0.  1.
         21   -1    0    0  501  503 -0.00000000000E+00 -0.00000000000E+00 -0.52761196298E+03  0.52761196298E+03  0.00000000000E+00 0.  1.
    9000007    1    1    2  501    0  0.13986823592E+03  0.66540658088E+02 -0.34876560313E+03  0.55283652966E+03  0.40000000000E+03 0.  1.
   -9000007    1    1    2    0  502 -0.13986823592E+03 -0.66540658088E+02  0.52203246669E+03  0.67565425986E+03  0.40000000000E+03 0.  1.
<mgrwt>
<rscale>  2 0.42894147E+03</rscale>
<asrwt>0</asrwt>
<pdfrwt beam="1">  1       21 0.10782751E+00 0.42894147E+03</pdfrwt>
<pdfrwt beam="2">  1       21 0.81171071E-01 0.42894147E+03</pdfrwt>
<totfact> 0.77783001E+02</totfact>
</mgrwt>
</event>
<event>
 4    1  0.4863180E-002  0.5195752E+03  0.7818608E-02  0.1008792E+00
         21   -1    0    0  501  502  0.00000000000E+00  0.00000000000E+00  0.39557926230E+03  0.39557926230E+03  0.00000000000E+00 0.  1.
         21   -1    0    0  502  503 -0.00000000000E+00 -0.00000000000E+00 -0.88755350267E+03  0.88755350267E+03  0.00000000000E+00 0.  1.
    9000007    1    1    2  501    0 -0.33065656842E+03 -0.24991826695E+02  0.62433546659E+02  0.52331281791E+03  0.40000000000E+03 0.  1.
   -9000007    1    1    2    0  503  0.33065656842E+03  0.24991826695E+02 -0.55440778703E+03  0.75981994706E+03  0.40000000000E+03 0.  1.
<mgrwt>
<rscale>  2 0.51957517E+03</rscale>
<asrwt>0</asrwt>
<pdfrwt beam="1">  1       21 0.60858348E-01 0.51957517E+03</pdfrwt>
<pdfrwt beam="2">  1       21 0.13654669E+00 0.51957517E+03</pdfrwt>
<totfact> 0.78628790E+02</totfact>
</mgrwt>
</event>
<event>
 4    1  0.4863180E-002  0.4268313E+03  0.7818608E-02  0.1034866E+00
         21   -1    0    0  501  502  0.00000000000E+00  0.00000000000E+00  0.25158668785E+03  0.25158668785E+03  0.00000000000E+00 0. -1.
         21   -1    0    0  502  503 -0.00000000000E+00 -0.00000000000E+00 -0.22701494790E+04  0.22701494790E+04  0.00000000000E+00 0. -1.
    9000007    1    1    2  501    0 -0.13096825737E+03  0.70938738765E+02  0.31232631809E+02  0.42797250658E+03  0.40000000000E+03 0. -1.
   -9000007    1    1    2    0  503  0.13096825737E+03 -0.70938738765E+02 -0.20497954229E+04  0.20937636603E+04  0.40000000000E+03 0. -1.
<mgrwt>
<rscale>  2 0.42683134E+03</rscale>
<asrwt>0</asrwt>
<pdfrwt beam="1">  1       21 0.38705644E-01 0.42683134E+03</pdfrwt>
<pdfrwt beam="2">  1       21 0.34925377E+00 0.42683134E+03</pdfrwt>
<totfact> 0.87767576E+01</totfact>
</mgrwt>
</event>
<event>
 4    1  0.4863180E-002  0.4243140E+03  0.7818608E-02  0.1035671E+00
         21   -1    0    0  501  502  0.00000000000E+00  0.00000000000E+00  0.26174423255E+03  0.26174423255E+03  0.00000000000E+00 0.  1.
         21   -1    0    0  502  503 -0.00000000000E+00 -0.00000000000E+00 -0.69831344510E+03  0.69831344510E+03  0.00000000000E+00 0.  1.
    9000007    1    1    2  501    0  0.13452291597E+03 -0.44113054375E+02 -0.15954215097E+03  0.45331674845E+03  0.40000000000E+03 0.  1.
   -9000007    1    1    2    0  503 -0.13452291597E+03  0.44113054375E+02 -0.27702706158E+03  0.50674092921E+03  0.40000000000E+03 0.  1.
<mgrwt>
<rscale>  2 0.42431401E+03</rscale>
<asrwt>0</asrwt>
<pdfrwt beam="1">  1       21 0.40268344E-01 0.42431401E+03</pdfrwt>
<pdfrwt beam="2">  1       21 0.10743284E+00 0.42431401E+03</pdfrwt>
<totfact> 0.36155505E+03</totfact>
</mgrwt>
</event>
<event>
 4    1  0.4863180E-002  0.4724098E+03  0.7818608E-02  0.1021242E+00
         21   -1    0    0  503  502  0.00000000000E+00  0.00000000000E+00  0.22434130227E+03  0.22434130227E+03  0.00000000000E+00 0.  1.
         21   -1    0    0  501  503 -0.00000000000E+00 -0.00000000000E+00 -0.12562770349E+04  0.12562770349E+04  0.00000000000E+00 0.  1.
    9000007    1    1    2  501    0 -0.23627212897E+03  0.85711960923E+02 -0.85372207730E+03  0.97571125054E+03  0.40000000000E+03 0.  1.
   -9000007    1    1    2    0  502  0.23627212897E+03 -0.85711960923E+02 -0.17821365533E+03  0.50490708662E+03  0.40000000000E+03 0.  1.
<mgrwt>
<rscale>  2 0.47240984E+03</rscale>
<asrwt>0</asrwt>
<pdfrwt beam="1">  1       21 0.34514046E-01 0.47240984E+03</pdfrwt>
<pdfrwt beam="2">  1       21 0.19327339E+00 0.47240984E+03</pdfrwt>
<totfact> 0.99422007E+02</totfact>
</mgrwt>
</event>
<event>
 4    1  0.4863180E-002  0.4082975E+03  0.7818608E-02  0.1040944E+00
         21   -1    0    0  501  502  0.00000000000E+00  0.00000000000E+00  0.55051773023E+03  0.55051773023E+03  0.00000000000E+00 0. -1.
         21   -1    0    0  502  503 -0.00000000000E+00 -0.00000000000E+00 -0.41106210775E+03  0.41106210775E+03  0.00000000000E+00 0. -1.
    9000007    1    1    2  501    0  0.78291923424E+02 -0.24026029700E+02 -0.17699144317E+03  0.44500881602E+03  0.40000000000E+03 0. -1.
   -9000007    1    1    2    0  503 -0.78291923424E+02  0.24026029700E+02  0.31644706565E+03  0.51657102197E+03  0.40000000000E+03 0. -1.
<mgrwt>
<rscale>  2 0.40829753E+03</rscale>
<asrwt>0</asrwt>
<pdfrwt beam="1">  1       21 0.84695036E-01 0.40829753E+03</pdfrwt>
<pdfrwt beam="2">  1       21 0.63240324E-01 0.40829753E+03</pdfrwt>
<totfact> 0.24614092E+03</totfact>
</mgrwt>
</event>
<event>
 4    1  0.4863180E-002  0.5453325E+03  0.7818608E-02  0.1002580E+00
         21   -1    0    0  501  502  0.00000000000E+00  0.00000000000E+00  0.19914012564E+04  0.19914012564E+04  0.00000000000E+00 0.  1.
         21   -1    0    0  502  503 -0.00000000000E+00 -0.00000000000E+00 -0.26911833383E+03  0.26911833383E+03  0.00000000000E+00 0.  1.
    9000007    1    1    2  501    0 -0.32779180550E+03  0.17303200098E+03  0.16151970220E+04  0.17047724074E+04  0.40000000000E+03 0.  1.
   -9000007    1    1    2    0  503  0.32779180550E+03 -0.17303200098E+03  0.10708590055E+03  0.55574718282E+03  0.40000000000E+03 0.  1.
<mgrwt>
<rscale>  2 0.54533251E+03</rscale>
<asrwt>0</asrwt>
<pdfrwt beam="1">  1       21 0.30636941E+00 0.54533251E+03</pdfrwt>
<pdfrwt beam="2">  1       21 0.41402822E-01 0.54533251E+03</pdfrwt>
<totfact> 0.12951934E+02</totfact>
</mgrwt>
</event>
<event>
 4    1  0.4863180E-002  0.6390325E+03  0.7818608E-02  0.9827579E-01
         21   -1    0    0  503  502  0.00000000000E+00  0.00000000000E+00  0.41410807581E+03  0.41410807581E+03  0.00000000000E+00 0.  1.
         21   -1    0    0  501  503 -0.00000000000E+00 -0.00000000000E+00 -0.17515047068E+04  0.17515047068E+04  0.00000000000E+00 0.  1.
    9000007    1    1    2  501    0 -0.45096428348E+03  0.21211742377E+03 -0.13844847271E+04  0.15248477124E+04  0.40000000000E+03 0.  1.
   -9000007    1    1    2    0  502  0.45096428348E+03 -0.21211742377E+03  0.47088096085E+02  0.64076507023E+03  0.40000000000E+03 0.  1.
<mgrwt>
<rscale>  2 0.63903254E+03</rscale>
<asrwt>0</asrwt>
<pdfrwt beam="1">  1       21 0.63708935E-01 0.63903254E+03</pdfrwt>
<pdfrwt beam="2">  1       21 0.26946226E+00 0.63903254E+03</pdfrwt>
<totfact> 0.82360820E+01</totfact>
</mgrwt>
</event>
<event>
 4    1  0.4863180E-002  0.4996471E+03  0.7818608E-02  0.1013871E+00
         21   -1    0    0  501  502  0.00000000000E+00  0.00000000000E+00  0.11769481628E+04  0.11769481628E+04  0.00000000000E+00 0. -1.
         21   -1    0    0  502  503 -0.00000000000E+00 -0.00000000000E+00 -0.50955414076E+03  0.50955414076E+03  0.00000000000E+00 0. -1.
    9000007    1    1    2  501    0  0.22051259195E+03 -0.20253756918E+03  0.97795751824E+03  0.10982022480E+04  0.40000000000E+03 0. -1.
   -9000007    1    1    2    0  503 -0.22051259195E+03  0.20253756918E+03 -0.31056349620E+03  0.58830005551E+03  0.40000000000E+03 0. -1.
<mgrwt>
<rscale>  2 0.49964715E+03</rscale>
<asrwt>0</asrwt>
<pdfrwt beam="1">  1       21 0.18106895E+00 0.49964715E+03</pdfrwt>
<pdfrwt beam="2">  1       21 0.78392945E-01 0.49964715E+03</pdfrwt>
<totfact> 0.20426125E+02</totfact>
</mgrwt>
</event>
<event>
 4    1  0.4863180E-002  0.4772866E+03  0.7818608E-02  0.1019884E+00
         21   -1    0    0  501  502  0.00000000000E+00  0.00000000000E+00  0.30664299456E+03  0.30664299456E+03  0.00000000000E+00 0.  1.
         21   -1    0    0  502  503 -0.00000000000E+00 -0.00000000000E+00 -0.95714775961E+03  0.95714775961E+03  0.00000000000E+00 0.  1.
    9000007    1    1    2  501    0  0.25480836585E+03  0.53620465618E+02 -0.26285902135E+02  0.47800983911E+03  0.40000000000E+03 0.  1.
   -9000007    1    1    2    0  503 -0.25480836585E+03 -0.53620465618E+02 -0.62421886291E+03  0.78578091505E+03  0.40000000000E+03 0.  1.
<mgrwt>
<rscale>  2 0.47728656E+03</rscale>
<asrwt>0</asrwt>
<pdfrwt beam="1">  1       21 0.47175846E-01 0.47728656E+03</pdfrwt>
<pdfrwt beam="2">  1       21 0.14725350E+00 0.47728656E+03</pdfrwt>
<totfact> 0.11302835E+03</totfact>
</mgrwt>
</event>
<event>
 4    1  0.4863180E-002  0.5134342E+03  0.7818608E-02  0.1010331E+00
         21   -1    0    0  503  502  0.00000000000E+00  0.00000000000E+00  0.74116857189E+03  0.74116857189E+03  0.00000000000E+00 0. -1.
         21   -1    0    0  501  503 -0.00000000000E+00 -0.00000000000E+00 -0.69415106515E+03  0.69415106515E+03  0.00000000000E+00 0.  1.
    9000007    1    1    2  501    0  0.14461969784E+03  0.28757573732E+03 -0.47762773159E+03  0.70124383183E+03  0.40000000000E+03 0.  1.
   -9000007    1    1    2    0  502 -0.14461969784E+03 -0.28757573732E+03  0.52464523833E+03  0.73407580521E+03  0.40000000000E+03 0. -1.
<mgrwt>
<rscale>  2 0.51343418E+03</rscale>
<asrwt>0</asrwt>
<pdfrwt beam="1">  1       21 0.11402593E+00 0.51343418E+03</pdfrwt>
<pdfrwt beam="2">  1       21 0.10679247E+00 0.51343418E+03</pdfrwt>
<totfact> 0.33856713E+02</totfact>
</mgrwt>
</event>
<event>
 4    1  0.4863180E-002  0.4000823E+03  0.7818608E-02  0.1043751E+00
         21   -1    0    0  501  502  0.00000000000E+00  0.00000000000E+00  0.44189707387E+03  0.44189707387E+03  0.00000000000E+00 0.  1.
         21   -1    0    0  502  503 -0.00000000000E+00 -0.00000000000E+00 -0.71175289617E+03  0.71175289617E+03  0.00000000000E+00 0.  1.
    9000007    1    1    2  501    0 -0.31643936720E+01  0.74718677287E+01  0.26929490268E+03  0.48227127926E+03  0.40000000000E+03 0.  1.
   -9000007    1    1    2    0  503  0.31643936720E+01 -0.74718677287E+01 -0.53915072498E+03  0.67137869078E+03  0.40000000000E+03 0.  1.
<mgrwt>
<rscale>  2 0.40008229E+03</rscale>
<asrwt>0</asrwt>
<pdfrwt beam="1">  1       21 0.67984165E-01 0.40008229E+03</pdfrwt>
<pdfrwt beam="2">  1       21 0.10950045E+00 0.40008229E+03</pdfrwt>
<totfact> 0.11352632E+03</totfact>
</mgrwt>
</event>
<event>
 4    1  0.4863180E-002  0.5443241E+03  0.7818608E-02  0.1002816E+00
         21   -1    0    0  501  502  0.00000000000E+00  0.00000000000E+00  0.57679397438E+03  0.57679397438E+03  0.00000000000E+00 0.  1.
         21   -1    0    0  502  503 -0.00000000000E+00 -0.00000000000E+00 -0.51504938179E+03  0.51504938179E+03  0.00000000000E+00 0.  1.
    9000007    1    1    2  501    0 -0.95269785955E+02  0.35666843316E+03  0.27438965473E+01  0.54433099516E+03  0.40000000000E+03 0.  1.
   -9000007    1    1    2    0  503  0.95269785955E+02 -0.35666843316E+03  0.59000696037E+02  0.54751236101E+03  0.40000000000E+03 0.  1.
<mgrwt>
<rscale>  2 0.54432408E+03</rscale>
<asrwt>0</asrwt>
<pdfrwt beam="1">  1       21 0.88737534E-01 0.54432408E+03</pdfrwt>
<pdfrwt beam="2">  1       21 0.79238367E-01 0.54432408E+03</pdfrwt>
<totfact> 0.12615190E+03</totfact>
</mgrwt>
</event>
<event>
 4    1  0.4863180E-002  0.5158186E+03  0.7818608E-02  0.1009731E+00
         21   -1    0    0  503  502  0.00000000000E+00  0.00000000000E+00  0.39842346142E+03  0.39842346142E+03  0.00000000000E+00 0. -1.
         21   -1    0    0  501  503 -0.00000000000E+00 -0.00000000000E+00 -0.15282928353E+04  0.15282928353E+04  0.00000000000E+00 0.  1.
    9000007    1    1    2  501    0  0.12437503717E+03 -0.30099779269E+03 -0.12877994936E+04  0.13872621802E+04  0.40000000000E+03 0.  1.
   -9000007    1    1    2    0  502 -0.12437503717E+03  0.30099779269E+03  0.15793011970E+03  0.53945411648E+03  0.40000000000E+03 0. -1.
<mgrwt>
<rscale>  2 0.51581859E+03</rscale>
<asrwt>0</asrwt>
<pdfrwt beam="1">  1       21 0.61295916E-01 0.51581859E+03</pdfrwt>
<pdfrwt beam="2">  1       21 0.23512198E+00 0.51581859E+03</pdfrwt>
<totfact> 0.15506449E+02</totfact>
</mgrwt>
</event>
<event>
 4    1  0.4863180E-002  0.5819804E+03  0.7818608E-02  0.9943513E-01
         21   -1    0    0  501  502  0.00000000000E+00  0.00000000000E+00  0.12060043403E+04  0.12060043403E+04  0.00000000000E+00 0. -1.
         21   -1    0    0  502  503 -0.00000000000E+00 -0.00000000000E+00 -0.31082413171E+03  0.31082413171E+03  0.00000000000E+00 0. -1.
    9000007    1    1    2  501    0 -0.41215619794E+03 -0.93960019211E+02  0.68312380989E+03  0.89741816136E+03  0.40000000000E+03 0. -1.
   -9000007    1    1    2    0  503  0.41215619794E+03  0.93960019211E+02  0.21205639873E+03  0.61941031066E+03  0.40000000000E+03 0. -1.
<mgrwt>
<rscale>  2 0.58198043E+03</rscale>
<asrwt>0</asrwt>
<pdfrwt beam="1">  1       21 0.18553913E+00 0.58198043E+03</pdfrwt>
<pdfrwt beam="2">  1       21 0.47819098E-01 0.58198043E+03</pdfrwt>
<totfact> 0.54779245E+02</totfact>
</mgrwt>
</event>
<event>
 4    1  0.4863180E-002  0.4574713E+03  0.7818608E-02  0.1025517E+00
         21   -1    0    0  501  502  0.00000000000E+00  0.00000000000E+00  0.24009724033E+03  0.24009724033E+03  0.00000000000E+00 0. -1.
         21   -1    0    0  502  503 -0.00000000000E+00 -0.00000000000E+00 -0.10703187816E+04  0.10703187816E+04  0.00000000000E+00 0. -1.
    9000007    1    1    2  501    0  0.11523191463E+03 -0.18974087221E+03 -0.13282373673E+03  0.47636345134E+03  0.40000000000E+03 0. -1.
   -9000007    1    1    2    0  503 -0.11523191463E+03  0.18974087221E+03 -0.69739780459E+03  0.83405257064E+03  0.40000000000E+03 0. -1.
<mgrwt>
<rscale>  2 0.45747130E+03</rscale>
<asrwt>0</asrwt>
<pdfrwt beam="1">  1       21 0.36938037E-01 0.45747130E+03</pdfrwt>
<pdfrwt beam="2">  1       21 0.16466443E+00 0.45747130E+03</pdfrwt>
<totfact> 0.13905226E+03</totfact>
</mgrwt>
</event>
<event>
 4    1  0.4863180E-002  0.4405500E+03  0.7818608E-02  0.1030578E+00
         21   -1    0    0  503  502  0.00000000000E+00  0.00000000000E+00  0.12302183272E+03  0.12302183272E+03  0.00000000000E+00 0. -1.
         21   -1    0    0  501  503 -0.00000000000E+00 -0.00000000000E+00 -0.15923922270E+04  0.15923922270E+04  0.00000000000E+00 0. -1.
    9000007    1    1    2  501    0 -0.18167688729E+03  0.32830431026E+02 -0.81723633548E+03  0.92841777051E+03  0.40000000000E+03 0. -1.
   -9000007    1    1    2    0  502  0.18167688729E+03 -0.32830431026E+02 -0.65213405875E+03  0.78699628917E+03  0.40000000000E+03 0. -1.
<mgrwt>
<rscale>  2 0.44055003E+03</rscale>
<asrwt>0</asrwt>
<pdfrwt beam="1">  1       21 0.18926437E-01 0.44055003E+03</pdfrwt>
<pdfrwt beam="2">  1       21 0.24498340E+00 0.44055003E+03</pdfrwt>
<totfact> 0.15166836E+03</totfact>
</mgrwt>
</event>
<event>
 4    1  0.4863180E-002  0.4880764E+03  0.7818608E-02  0.1016939E+00
         21   -1    0    0  503  502  0.00000000000E+00  0.00000000000E+00  0.40401414098E+03  0.40401414098E+03  0.00000000000E+00 0. -1.
         21   -1    0    0  501  503 -0.00000000000E+00 -0.00000000000E+00 -0.63650996458E+03  0.63650996458E+03  0.00000000000E+00 0. -1.
    9000007    1    1    2  501    0  0.23161456087E+03 -0.15675860234E+03 -0.25744201254E+03  0.55181061428E+03  0.40000000000E+03 0. -1.
   -9000007    1    1    2    0  502 -0.23161456087E+03  0.15675860234E+03  0.24946188942E+02  0.48871349128E+03  0.40000000000E+03 0. -1.
<mgrwt>
<rscale>  2 0.48807639E+03</rscale>
<asrwt>0</asrwt>
<pdfrwt beam="1">  1       21 0.62156021E-01 0.48807639E+03</pdfrwt>
<pdfrwt beam="2">  1       21 0.97924610E-01 0.48807639E+03</pdfrwt>
<totfact> 0.17580731E+03</totfact>
</mgrwt>
</event>
<event>
 4    1  0.4863180E-002  0.6385711E+03  0.7818608E-02  0.9828464E-01
         21   -1    0    0  501  502  0.00000000000E+00  0.00000000000E+00  0.82094421373E+03  0.82094421373E+03  0.00000000000E+00 0.  1.
         21   -1    0    0  502  503 -0.00000000000E+00 -0.00000000000E+00 -0.10024829546E+04  0.10024829546E+04  0.00000000000E+00 0.  1.
    9000007    1    1    2  501    0  0.33780452948E+03 -0.36559692049E+03  0.55681563284E+03  0.84724061363E+03  0.40000000000E+03 0.  1.
   -9000007    1    1    2    0  503 -0.33780452948E+03  0.36559692049E+03 -0.73835437372E+03  0.97618655471E+03  0.40000000000E+03 0.  1.
<mgrwt>
<rscale>  2 0.63857107E+03</rscale>
<asrwt>0</asrwt>
<pdfrwt beam="1">  1       21 0.12629911E+00 0.63857107E+03</pdfrwt>
<pdfrwt beam="2">  1       21 0.15422815E+00 0.63857107E+03</pdfrwt>
<totfact> 0.95027311E+01</totfact>
</mgrwt>
</event>
<event>
 4    1  0.4863180E-002  0.4091930E+03  0.7818608E-02  0.1040642E+00
         21   -1    0    0  503  502  0.00000000000E+00  0.00000000000E+00  0.14209129060E+03  0.14209129060E+03  0.00000000000E+00 0.  1.
         21   -1    0    0  501  503 -0.00000000000E+00 -0.00000000000E+00 -0.11806881050E+04  0.11806881050E+04  0.00000000000E+00 0.  1.
    9000007    1    1    2  501    0  0.59216420937E+02 -0.62708402280E+02 -0.49011787631E+03  0.63847823839E+03  0.40000000000E+03 0.  1.
   -9000007    1    1    2    0  502 -0.59216420937E+02  0.62708402280E+02 -0.54847893806E+03  0.68430115718E+03  0.40000000000E+03 0.  1.
<mgrwt>
<rscale>  2 0.40919302E+03</rscale>
<asrwt>0</asrwt>
<pdfrwt beam="1">  1       21 0.21860198E-01 0.40919302E+03</pdfrwt>
<pdfrwt beam="2">  1       21 0.18164433E+00 0.40919302E+03</pdfrwt>
<totfact> 0.30168675E+03</totfact>
</mgrwt>
</event>
<event>
 4    1  0.4863180E-002  0.5000772E+03  0.7818608E-02  0.1013759E+00
         21   -1    0    0  501  502  0.00000000000E+00  0.00000000000E+00  0.33995266362E+03  0.33995266362E+03  0.00000000000E+00 0.  1.
         21   -1    0    0  502  503 -0.00000000000E+00 -0.00000000000E+00 -0.13590909520E+04  0.13590909520E+04  0.00000000000E+00 0.  1.
    9000007    1    1    2  501    0  0.29208844180E+03  0.69004299557E+02  0.65813926285E+02  0.50438945676E+03  0.40000000000E+03 0.  1.
   -9000007    1    1    2    0  503 -0.29208844180E+03 -0.69004299557E+02 -0.10849522147E+04  0.11946541589E+04  0.40000000000E+03 0.  1.
<mgrwt>
<rscale>  2 0.50007725E+03</rscale>
<asrwt>0</asrwt>
<pdfrwt beam="1">  1       21 0.52300409E-01 0.50007725E+03</pdfrwt>
<pdfrwt beam="2">  1       21 0.20909092E+00 0.50007725E+03</pdfrwt>
<totfact> 0.32407366E+02</totfact>
</mgrwt>
</event>
<event>
 4    1  0.4863180E-002  0.4421880E+03  0.7818608E-02  0.1030078E+00
         21   -1    0    0  503  502  0.00000000000E+00  0.00000000000E+00  0.69968688785E+03  0.69968688785E+03  0.00000000000E+00 0.  1.
         21   -1    0    0  501  503 -0.00000000000E+00 -0.00000000000E+00 -0.49044982692E+03  0.49044982692E+03  0.00000000000E+00 0. -1.
    9000007    1    1    2  501    0  0.11294560126E+03  0.15090908690E+03 -0.28568866138E+03  0.52644873691E+03  0.40000000000E+03 0. -1.
   -9000007    1    1    2    0  502 -0.11294560126E+03 -0.15090908690E+03  0.49492572231E+03  0.66368797786E+03  0.40000000000E+03 0.  1.
<mgrwt>
<rscale>  2 0.44218804E+03</rscale>
<asrwt>0</asrwt>
<pdfrwt beam="1">  1       21 0.10764414E+00 0.44218804E+03</pdfrwt>
<pdfrwt beam="2">  1       21 0.75453820E-01 0.44218804E+03</pdfrwt>
<totfact> 0.91855208E+02</totfact>
</mgrwt>
</event>
<event>
 4    1  0.4863180E-002  0.4945481E+03  0.7818608E-02  0.1015212E+00
         21   -1    0    0  503  502  0.00000000000E+00  0.00000000000E+00  0.71422875573E+03  0.71422875573E+03  0.00000000000E+00 0. -1.
         21   -1    0    0  501  503 -0.00000000000E+00 -0.00000000000E+00 -0.35996136185E+03  0.35996136185E+03  0.00000000000E+00 0. -1.
    9000007    1    1    2  501    0 -0.23330903944E+03  0.17362233427E+03  0.58624103721E+02  0.49801065087E+03  0.40000000000E+03 0. -1.
   -9000007    1    1    2    0  502  0.23330903944E+03 -0.17362233427E+03  0.29564329016E+03  0.57617946671E+03  0.40000000000E+03 0. -1.
<mgrwt>
<rscale>  2 0.49454810E+03</rscale>
<asrwt>0</asrwt>
<pdfrwt beam="1">  1       21 0.10988135E+00 0.49454810E+03</pdfrwt>
<pdfrwt beam="2">  1       21 0.55378671E-01 0.49454810E+03</pdfrwt>
<totfact> 0.17010844E+03</totfact>
</mgrwt>
</event>
<event>
 4    1  0.4863180E-002  0.4729226E+03  0.7818608E-02  0.1021099E+00
         21   -1    0    0  501  502  0.00000000000E+00  0.00000000000E+00  0.85133909558E+03  0.85133909558E+03  0.00000000000E+00 0.  1.
         21   -1    0    0  502  503 -0.00000000000E+00 -0.00000000000E+00 -0.33760680245E+03  0.33760680245E+03  0.00000000000E+00 0.  1.
    9000007    1    1    2  501    0 -0.11271330470E+03  0.22572434188E+03  0.53686517722E+03  0.71545788561E+03  0.40000000000E+03 0.  1.
   -9000007    1    1    2    0  503  0.11271330470E+03 -0.22572434188E+03 -0.23132884087E+02  0.47348801242E+03  0.40000000000E+03 0.  1.
<mgrwt>
<rscale>  2 0.47292258E+03</rscale>
<asrwt>0</asrwt>
<pdfrwt beam="1">  1       21 0.13097524E+00 0.47292258E+03</pdfrwt>
<pdfrwt beam="2">  1       21 0.51939508E-01 0.47292258E+03</pdfrwt>
<totfact> 0.12594011E+03</totfact>
</mgrwt>
</event>
<event>
 4    1  0.4863180E-002  0.4399535E+03  0.7818608E-02  0.1030761E+00
         21   -1    0    0  501  502  0.00000000000E+00  0.00000000000E+00  0.79129039327E+03  0.79129039327E+03  0.00000000000E+00 0. -1.
         21   -1    0    0  502  503 -0.00000000000E+00 -0.00000000000E+00 -0.26014993186E+03  0.26014993186E+03  0.00000000000E+00 0. -1.
    9000007    1    1    2  501    0 -0.16931592217E+03 -0.69937269087E+02  0.39405148868E+03  0.59062312759E+03  0.40000000000E+03 0. -1.
   -9000007    1    1    2    0  503  0.16931592217E+03  0.69937269087E+02  0.13708897272E+03  0.46081719754E+03  0.40000000000E+03 0. -1.
<mgrwt>
<rscale>  2 0.43995352E+03</rscale>
<asrwt>0</asrwt>
<pdfrwt beam="1">  1       21 0.12173698E+00 0.43995352E+03</pdfrwt>
<pdfrwt beam="2">  1       21 0.40023067E-01 0.43995352E+03</pdfrwt>
<totfact> 0.26624001E+03</totfact>
</mgrwt>
</event>
<event>
 4    1  0.4863180E-002  0.4167220E+03  0.7818608E-02  0.1038138E+00
         21   -1    0    0  503  502  0.00000000000E+00  0.00000000000E+00  0.10275725175E+03  0.10275725175E+03  0.00000000000E+00 0.  1.
         21   -1    0    0  501  503 -0.00000000000E+00 -0.00000000000E+00 -0.25013249862E+04  0.25013249862E+04  0.00000000000E+00 0.  1.
    9000007    1    1    2  501    0 -0.11670958490E+03 -0.60085382848E+01 -0.19408393375E+04  0.19850729367E+04  0.40000000000E+03 0.  1.
   -9000007    1    1    2    0  502  0.11670958490E+03  0.60085382848E+01 -0.45772839692E+03  0.61900930129E+03  0.40000000000E+03 0.  1.
<mgrwt>
<rscale>  2 0.41672201E+03</rscale>
<asrwt>0</asrwt>
<pdfrwt beam="1">  1       21 0.15808807E-01 0.41672201E+03</pdfrwt>
<pdfrwt beam="2">  1       21 0.38481925E+00 0.41672201E+03</pdfrwt>
<totfact> 0.30360431E+02</totfact>
</mgrwt>
</event>
<event>
 4    1  0.4863180E-002  0.4800771E+03  0.7818608E-02  0.1019114E+00
         21   -1    0    0  501  502  0.00000000000E+00  0.00000000000E+00  0.19176204615E+04  0.19176204615E+04  0.00000000000E+00 0.  1.
         21   -1    0    0  502  503 -0.00000000000E+00 -0.00000000000E+00 -0.12059746958E+03  0.12059746958E+03  0.00000000000E+00 0.  1.
    9000007    1    1    2  501    0 -0.13689632664E+03  0.22744980408E+03  0.95793045213E+03  0.10714965090E+04  0.40000000000E+03 0.  1.
   -9000007    1    1    2    0  503  0.13689632664E+03 -0.22744980408E+03  0.83909253979E+03  0.96672142210E+03  0.40000000000E+03 0.  1.
<mgrwt>
<rscale>  2 0.48007710E+03</rscale>
<asrwt>0</asrwt>
<pdfrwt beam="1">  1       21 0.29501851E+00 0.48007710E+03</pdfrwt>
<pdfrwt beam="2">  1       21 0.18553458E-01 0.48007710E+03</pdfrwt>
<totfact> 0.76699883E+02</totfact>
</mgrwt>
</event>
<event>
 4    1  0.4863180E-002  0.4219618E+03  0.7818608E-02  0.1036430E+00
         21   -1    0    0  503  502  0.00000000000E+00  0.00000000000E+00  0.12254311357E+03  0.12254311357E+03  0.00000000000E+00 0. -1.
         21   -1    0    0  501  503 -0.00000000000E+00 -0.00000000000E+00 -0.15696891713E+04  0.15696891713E+04  0.00000000000E+00 0. -1.
    9000007    1    1    2  501    0  0.11708652109E+03 -0.65897779507E+02 -0.49285068939E+03  0.64880935012E+03  0.40000000000E+03 0. -1.
   -9000007    1    1    2    0  502 -0.11708652109E+03  0.65897779507E+02 -0.95429536838E+03  0.10434229348E+04  0.40000000000E+03 0. -1.
<mgrwt>
<rscale>  2 0.42196181E+03</rscale>
<asrwt>0</asrwt>
<pdfrwt beam="1">  1       21 0.18852787E-01 0.42196181E+03</pdfrwt>
<pdfrwt beam="2">  1       21 0.24149064E+00 0.42196181E+03</pdfrwt>
<totfact> 0.16203113E+03</totfact>
</mgrwt>
</event>
<event>
 4    1  0.4863180E-002  0.4486747E+03  0.7818608E-02  0.1028118E+00
         21   -1    0    0  503  502  0.00000000000E+00  0.00000000000E+00  0.17804240158E+03  0.17804240158E+03  0.00000000000E+00 0. -1.
         21   -1    0    0  501  503 -0.00000000000E+00 -0.00000000000E+00 -0.18415625216E+04  0.18415625216E+04  0.00000000000E+00 0. -1.
    9000007    1    1    2  501    0 -0.98002720871E+02 -0.17805756402E+03 -0.14591564697E+04  0.15265800445E+04  0.40000000000E+03 0. -1.
   -9000007    1    1    2    0  502  0.98002720871E+02  0.17805756402E+03 -0.20436365039E+03  0.49302487868E+03  0.40000000000E+03 0. -1.
<mgrwt>
<rscale>  2 0.44867475E+03</rscale>
<asrwt>0</asrwt>
<pdfrwt beam="1">  1       21 0.27391140E-01 0.44867475E+03</pdfrwt>
<pdfrwt beam="2">  1       21 0.28331730E+00 0.44867475E+03</pdfrwt>
<totfact> 0.43309884E+02</totfact>
</mgrwt>
</event>
<event>
 4    1  0.4863180E-002  0.4575557E+03  0.7818608E-02  0.1025493E+00
         21   -1    0    0  501  502  0.00000000000E+00  0.00000000000E+00  0.59589107365E+03  0.59589107365E+03  0.00000000000E+00 0. -1.
         21   -1    0    0  502  503 -0.00000000000E+00 -0.00000000000E+00 -0.44154999459E+03  0.44154999459E+03  0.00000000000E+00 0. -1.
    9000007    1    1    2  501    0  0.12213977967E+03  0.18557780570E+03  0.31163846356E+03  0.55360254670E+03  0.40000000000E+03 0. -1.
   -9000007    1    1    2    0  503 -0.12213977967E+03 -0.18557780570E+03 -0.15729738450E+03  0.48383852153E+03  0.40000000000E+03 0. -1.
<mgrwt>
<rscale>  2 0.45755573E+03</rscale>
<asrwt>0</asrwt>
<pdfrwt beam="1">  1       21 0.91675550E-01 0.45755573E+03</pdfrwt>
<pdfrwt beam="2">  1       21 0.67930768E-01 0.45755573E+03</pdfrwt>
<totfact> 0.17090499E+03</totfact>
</mgrwt>
</event>
<event>
 4    1  0.4863180E-002  0.4143307E+03  0.7818608E-02  0.1038927E+00
         21   -1    0    0  501  502  0.00000000000E+00  0.00000000000E+00  0.19293721025E+03  0.19293721025E+03  0.00000000000E+00 0.  1.
         21   -1    0    0  502  503 -0.00000000000E+00 -0.00000000000E+00 -0.89044277230E+03  0.89044277230E+03  0.00000000000E+00 0.  1.
    9000007    1    1    2  501    0 -0.47097186945E+02  0.97220386984E+02 -0.36363045785E+03  0.55126859020E+03  0.40000000000E+03 0.  1.
   -9000007    1    1    2    0  503  0.47097186945E+02 -0.97220386984E+02 -0.33387510420E+03  0.53211139235E+03  0.40000000000E+03 0.  1.
<mgrwt>
<rscale>  2 0.41433072E+03</rscale>
<asrwt>0</asrwt>
<pdfrwt beam="1">  1       21 0.29682648E-01 0.41433072E+03</pdfrwt>
<pdfrwt beam="2">  1       21 0.13699120E+00 0.41433072E+03</pdfrwt>
<totfact> 0.36216786E+03</totfact>
</mgrwt>
</event>
<event>
 4    1  0.4863180E-002  0.6589104E+03  0.7818608E-02  0.9790202E-01
         21   -1    0    0  501  502  0.00000000000E+00  0.00000000000E+00  0.24467086642E+03  0.24467086642E+03  0.00000000000E+00 0. -1.
         21   -1    0    0  502  503 -0.00000000000E+00 -0.00000000000E+00 -0.29797045291E+04  0.29797045291E+04  0.00000000000E+00 0. -1.
    9000007    1    1    2  501    0 -0.51471681196E+03  0.96070292180E+02 -0.23928463730E+04  0.24819098820E+04  0.40000000000E+03 0. -1.
   -9000007    1    1    2    0  503  0.51471681196E+03 -0.96070292180E+02 -0.34218728970E+03  0.74246551353E+03  0.40000000000E+03 0. -1.
<mgrwt>
<rscale>  2 0.65891039E+03</rscale>
<asrwt>0</asrwt>
<pdfrwt beam="1">  1       21 0.37641672E-01 0.65891039E+03</pdfrwt>
<pdfrwt beam="2">  1       21 0.45841608E+00 0.65891039E+03</pdfrwt>
<totfact> 0.15807523E+01</totfact>
</mgrwt>
</event>
<event>
 4    1  0.4863180E-002  0.5205231E+03  0.7818608E-02  0.1008557E+00
         21   -1    0    0  501  502  0.00000000000E+00  0.00000000000E+00  0.16107172272E+04  0.16107172272E+04  0.00000000000E+00 0. -1.
         21   -1    0    0  502  503 -0.00000000000E+00 -0.00000000000E+00 -0.16963702402E+03  0.16963702402E+03  0.00000000000E+00 0.  1.
    9000007    1    1    2  501    0  0.29858312782E+03 -0.14762261535E+03  0.63899378800E+03  0.82417072375E+03  0.40000000000E+03 0.  1.
   -9000007    1    1    2    0  503 -0.29858312782E+03  0.14762261535E+03  0.80208641522E+03  0.95618352750E+03  0.40000000000E+03 0. -1.
<mgrwt>
<rscale>  2 0.52052312E+03</rscale>
<asrwt>0</asrwt>
<pdfrwt beam="1">  1       21 0.24780264E+00 0.52052312E+03</pdfrwt>
<pdfrwt beam="2">  1       21 0.26098005E-01 0.52052312E+03</pdfrwt>
<totfact> 0.75647319E+02</totfact>
</mgrwt>
</event>
<event>
 4    1  0.4863180E-002  0.4105472E+03  0.7818608E-02  0.1040188E+00
         21   -1    0    0  503  502  0.00000000000E+00  0.00000000000E+00  0.21936216596E+03  0.21936216596E+03  0.00000000000E+00 0. -1.
         21   -1    0    0  501  503 -0.00000000000E+00 -0.00000000000E+00 -0.76880015961E+03  0.76880015961E+03  0.00000000000E+00 0. -1.
    9000007    1    1    2  501    0  0.54881033597E+02  0.74411441254E+02 -0.28654870427E+03  0.50065871645E+03  0.40000000000E+03 0. -1.
   -9000007    1    1    2    0  502 -0.54881033597E+02 -0.74411441254E+02 -0.26288928937E+03  0.48750360912E+03  0.40000000000E+03 0. -1.
<mgrwt>
<rscale>  2 0.41054718E+03</rscale>
<asrwt>0</asrwt>
<pdfrwt beam="1">  1       21 0.33748025E-01 0.41054718E+03</pdfrwt>
<pdfrwt beam="2">  1       21 0.11827695E+00 0.41054718E+03</pdfrwt>
<totfact> 0.40982833E+03</totfact>
</mgrwt>
</event>
<event>
 4    1  0.4863180E-002  0.5456066E+03  0.7818608E-02  0.1002516E+00
         21   -1    0    0  503  502  0.00000000000E+00  0.00000000000E+00  0.21002481901E+03  0.21002481901E+03  0.00000000000E+00 0.  1.
         21   -1    0    0  501  503 -0.00000000000E+00 -0.00000000000E+00 -0.17384667861E+04  0.17384667861E+04  0.00000000000E+00 0.  1.
    9000007    1    1    2  501    0 -0.13870440545E+03  0.34416224113E+03 -0.11829099013E+04  0.13026750918E+04  0.40000000000E+03 0.  1.
   -9000007    1    1    2    0  502  0.13870440545E+03 -0.34416224113E+03 -0.34553206577E+03  0.64581651325E+03  0.40000000000E+03 0.  1.
<mgrwt>
<rscale>  2 0.54560660E+03</rscale>
<asrwt>0</asrwt>
<pdfrwt beam="1">  1       21 0.32311510E-01 0.54560660E+03</pdfrwt>
<pdfrwt beam="2">  1       21 0.26745644E+00 0.54560660E+03</pdfrwt>
<totfact> 0.37055956E+02</totfact>
</mgrwt>
</event>
<event>
 4    1  0.4863180E-002  0.4253544E+03  0.7818608E-02  0.1035338E+00
         21   -1    0    0  503  502  0.00000000000E+00  0.00000000000E+00  0.65731392777E+03  0.65731392777E+03  0.00000000000E+00 0.  1.
         21   -1    0    0  501  503 -0.00000000000E+00 -0.00000000000E+00 -0.28893394684E+03  0.28893394684E+03  0.00000000000E+00 0.  1.
    9000007    1    1    2  501    0  0.11461325349E+03  0.88261753199E+02  0.28714915196E+03  0.51320655727E+03  0.40000000000E+03 0.  1.
   -9000007    1    1    2    0  502 -0.11461325349E+03 -0.88261753199E+02  0.81230828963E+02  0.43304131734E+03  0.40000000000E+03 0.  1.
<mgrwt>
<rscale>  2 0.42535436E+03</rscale>
<asrwt>0</asrwt>
<pdfrwt beam="1">  1       21 0.10112522E+00 0.42535436E+03</pdfrwt>
<pdfrwt beam="2">  1       21 0.44451377E-01 0.42535436E+03</pdfrwt>
<totfact> 0.34154893E+03</totfact>
</mgrwt>
</event>
<event>
 4    1  0.4863180E-002  0.5712252E+03  0.7818608E-02  0.9966971E-01
         21   -1    0    0  501  502  0.00000000000E+00  0.00000000000E+00  0.87589519640E+03  0.87589519640E+03  0.00000000000E+00 0. -1.
         21   -1    0    0  502  503 -0.00000000000E+00 -0.00000000000E+00 -0.41970091506E+03  0.41970091506E+03  0.00000000000E+00 0. -1.
    9000007    1    1    2  501    0  0.31191628946E+03  0.26269074385E+03  0.44526811603E+03  0.72426645214E+03  0.40000000000E+03 0. -1.
   -9000007    1    1    2    0  503 -0.31191628946E+03 -0.26269074385E+03  0.10926165313E+02  0.57132965932E+03  0.40000000000E+03 0. -1.
<mgrwt>
<rscale>  2 0.57122517E+03</rscale>
<asrwt>0</asrwt>
<pdfrwt beam="1">  1       21 0.13475311E+00 0.57122517E+03</pdfrwt>
<pdfrwt beam="2">  1       21 0.64569372E-01 0.57122517E+03</pdfrwt>
<totfact> 0.70103050E+02</totfact>
</mgrwt>
</event>
<event>
 4    1  0.4863180E-002  0.4733029E+03  0.7818608E-02  0.1020992E+00
         21   -1    0    0  503  502  0.00000000000E+00  0.00000000000E+00  0.83955656006E+03  0.83955656006E+03  0.00000000000E+00 0.  1.
         21   -1    0    0  501  503 -0.00000000000E+00 -0.00000000000E+00 -0.35321641626E+03  0.35321641626E+03  0.00000000000E+00 0.  1.
    9000007    1    1    2  501    0 -0.25001084252E+03 -0.38861041106E+02 -0.51774148084E+02  0.47612620627E+03  0.40000000000E+03 0.  1.
   -9000007    1    1    2    0  502  0.25001084252E+03  0.38861041106E+02  0.53811429188E+03  0.71664677005E+03  0.40000000000E+03 0.  1.
<mgrwt>
<rscale>  2 0.47330286E+03</rscale>
<asrwt>0</asrwt>
<pdfrwt beam="1">  1       21 0.12916255E+00 0.47330286E+03</pdfrwt>
<pdfrwt beam="2">  1       21 0.54340987E-01 0.47330286E+03</pdfrwt>
<totfact> 0.11847772E+03</totfact>
</mgrwt>
</event>
<event>
 4    1  0.4863180E-002  0.5288434E+03  0.7818608E-02  0.1006513E+00
         21   -1    0    0  503  502  0.00000000000E+00  0.00000000000E+00  0.59288429925E+03  0.59288429925E+03  0.00000000000E+00 0.  1.
         21   -1    0    0  501  503 -0.00000000000E+00 -0.00000000000E+00 -0.59984602432E+03  0.59984602432E+03  0.00000000000E+00 0.  1.
    9000007    1    1    2  501    0 -0.33800686246E+03  0.73665838997E+02  0.27213949762E+03  0.59475642163E+03  0.40000000000E+03 0.  1.
   -9000007    1    1    2    0  502  0.33800686246E+03 -0.73665838997E+02 -0.27910122268E+03  0.59797390195E+03  0.40000000000E+03 0.  1.
<mgrwt>
<rscale>  2 0.52884336E+03</rscale>
<asrwt>0</asrwt>
<pdfrwt beam="1">  1       21 0.91212969E-01 0.52884336E+03</pdfrwt>
<pdfrwt beam="2">  1       21 0.92284003E-01 0.52884336E+03</pdfrwt>
<totfact> 0.82983203E+02</totfact>
</mgrwt>
</event>
<event>
 4    1  0.4863180E-002  0.5847034E+03  0.7818608E-02  0.9937660E-01
         21   -1    0    0  503  502  0.00000000000E+00  0.00000000000E+00  0.23624636403E+03  0.23624636403E+03  0.00000000000E+00 0. -1.
         21   -1    0    0  501  503 -0.00000000000E+00 -0.00000000000E+00 -0.23187641519E+04  0.23187641519E+04  0.00000000000E+00 0. -1.
    9000007    1    1    2  501    0  0.40616267362E+03 -0.13003811618E+03 -0.18245131477E+04  0.19159139478E+04  0.40000000000E+03 0. -1.
   -9000007    1    1    2    0  502 -0.40616267362E+03  0.13003811618E+03 -0.25800464019E+03  0.63909656818E+03  0.40000000000E+03 0. -1.
<mgrwt>
<rscale>  2 0.58470337E+03</rscale>
<asrwt>0</asrwt>
<pdfrwt beam="1">  1       21 0.36345596E-01 0.58470337E+03</pdfrwt>
<pdfrwt beam="2">  1       21 0.35673293E+00 0.58470337E+03</pdfrwt>
<totfact> 0.81501646E+01</totfact>
</mgrwt>
</event>
<event>
 4    1  0.4863180E-002  0.4647592E+03  0.7818608E-02  0.1023410E+00
         21   -1    0    0  501  502  0.00000000000E+00  0.00000000000E+00  0.36871504732E+03  0.36871504732E+03  0.00000000000E+00 0. -1.
         21   -1    0    0  502  503 -0.00000000000E+00 -0.00000000000E+00 -0.81866389670E+03  0.81866389670E+03  0.00000000000E+00 0.  1.
    9000007    1    1    2  501    0 -0.10262596826E+03  0.21323477239E+03  0.91645084721E+02  0.47370874920E+03  0.40000000000E+03 0. -1.
   -9000007    1    1    2    0  503  0.10262596826E+03 -0.21323477239E+03 -0.54159393410E+03  0.71367019482E+03  0.40000000000E+03 0.  1.
<mgrwt>
<rscale>  2 0.46475925E+03</rscale>
<asrwt>0</asrwt>
<pdfrwt beam="1">  1       21 0.56725392E-01 0.46475925E+03</pdfrwt>
<pdfrwt beam="2">  1       21 0.12594829E+00 0.46475925E+03</pdfrwt>
<totfact> 0.11562771E+03</totfact>
</mgrwt>
</event>
<event>
 4    1  0.4863180E-002  0.4756750E+03  0.7818608E-02  0.1020331E+00
         21   -1    0    0  501  502  0.00000000000E+00  0.00000000000E+00  0.94424765150E+03  0.94424765150E+03  0.00000000000E+00 0. -1.
         21   -1    0    0  502  503 -0.00000000000E+00 -0.00000000000E+00 -0.51805867363E+03  0.51805867363E+03  0.00000000000E+00 0.  1.
    9000007    1    1    2  501    0  0.13246750210E+03 -0.22072394999E+03  0.74911158990E+03  0.88737527312E+03  0.40000000000E+03 0. -1.
   -9000007    1    1    2    0  503 -0.13246750210E+03  0.22072394999E+03 -0.32292261203E+03  0.57493105201E+03  0.40000000000E+03 0.  1.
<mgrwt>
<rscale>  2 0.47567500E+03</rscale>
<asrwt>0</asrwt>
<pdfrwt beam="1">  1       21 0.14526887E+00 0.47567500E+03</pdfrwt>
<pdfrwt beam="2">  1       21 0.79701335E-01 0.47567500E+03</pdfrwt>
<totfact> 0.36911695E+02</totfact>
</mgrwt>
</event>
<event>
 4    1  0.4863180E-002  0.5087802E+03  0.7818608E-02  0.1011512E+00
         21   -1    0    0  501  502  0.00000000000E+00  0.00000000000E+00  0.26574939030E+04  0.26574939030E+04  0.00000000000E+00 0. -1.
         21   -1    0    0  502  503 -0.00000000000E+00 -0.00000000000E+00 -0.12486571385E+03  0.12486571385E+03  0.00000000000E+00 0. -1.
    9000007    1    1    2  501    0 -0.27264695345E+03 -0.15659171289E+03  0.19187010655E+04  0.19850116132E+04  0.40000000000E+03 0. -1.
   -9000007    1    1    2    0  503  0.27264695345E+03  0.15659171289E+03  0.61392712366E+03  0.79734800366E+03  0.40000000000E+03 0. -1.
<mgrwt>
<rscale>  2 0.50878023E+03</rscale>
<asrwt>0</asrwt>
<pdfrwt beam="1">  1       21 0.40884517E+00 0.50878023E+03</pdfrwt>
<pdfrwt beam="2">  1       21 0.19210112E-01 0.50878023E+03</pdfrwt>
<totfact> 0.13914053E+02</totfact>
</mgrwt>
</event>
<event>
 4    1  0.4863180E-002  0.5193458E+03  0.7818608E-02  0.1008849E+00
         21   -1    0    0  503  502  0.00000000000E+00  0.00000000000E+00  0.14462023600E+04  0.14462023600E+04  0.00000000000E+00 0. -1.
         21   -1    0    0  501  503 -0.00000000000E+00 -0.00000000000E+00 -0.19626417573E+03  0.19626417573E+03  0.00000000000E+00 0. -1.
    9000007    1    1    2  501    0 -0.33074683174E+03 -0.18072344521E+02  0.80812144470E+03  0.96061456668E+03  0.40000000000E+03 0. -1.
   -9000007    1    1    2    0  502  0.33074683174E+03  0.18072344521E+02  0.44181673958E+03  0.68185196906E+03  0.40000000000E+03 0. -1.
<mgrwt>
<rscale>  2 0.51934582E+03</rscale>
<asrwt>0</asrwt>
<pdfrwt beam="1">  1       21 0.22249266E+00 0.51934582E+03</pdfrwt>
<pdfrwt beam="2">  1       21 0.30194489E-01 0.51934582E+03</pdfrwt>
<totfact> 0.81851258E+02</totfact>
</mgrwt>
</event>
<event>
 4    1  0.4863180E-002  0.4557183E+03  0.7818608E-02  0.1026030E+00
         21   -1    0    0  503  502  0.00000000000E+00  0.00000000000E+00  0.58707682091E+03  0.58707682091E+03  0.00000000000E+00 0. -1.
         21   -1    0    0  501  503 -0.00000000000E+00 -0.00000000000E+00 -0.37885930646E+03  0.37885930646E+03  0.00000000000E+00 0. -1.
    9000007    1    1    2  501    0 -0.12306939928E+02 -0.21800844858E+03 -0.20224182029E+02  0.45616681375E+03  0.40000000000E+03 0. -1.
   -9000007    1    1    2    0  502  0.12306939928E+02  0.21800844858E+03  0.22844169648E+03  0.50976931363E+03  0.40000000000E+03 0. -1.
<mgrwt>
<rscale>  2 0.45571827E+03</rscale>
<asrwt>0</asrwt>
<pdfrwt beam="1">  1       21 0.90319511E-01 0.45571827E+03</pdfrwt>
<pdfrwt beam="2">  1       21 0.58286047E-01 0.45571827E+03</pdfrwt>
<totfact> 0.24856316E+03</totfact>
</mgrwt>
</event>
<event>
 4    1  0.4863180E-002  0.4090038E+03  0.7818608E-02  0.1040706E+00
         21   -1    0    0  503  502  0.00000000000E+00  0.00000000000E+00  0.71482718882E+03  0.71482718882E+03  0.00000000000E+00 0. -1.
         21   -1    0    0  501  503 -0.00000000000E+00 -0.00000000000E+00 -0.30519811914E+03  0.30519811914E+03  0.00000000000E+00 0. -1.
    9000007    1    1    2  501    0  0.45359715391E+02  0.72295458194E+02 -0.41484149029E+02  0.41110226426E+03  0.40000000000E+03 0. -1.
   -9000007    1    1    2    0  502 -0.45359715391E+02 -0.72295458194E+02  0.45111321871E+03  0.60892304370E+03  0.40000000000E+03 0. -1.
<mgrwt>
<rscale>  2 0.40900384E+03</rscale>
<asrwt>0</asrwt>
<pdfrwt beam="1">  1       21 0.10997341E+00 0.40900384E+03</pdfrwt>
<pdfrwt beam="2">  1       21 0.46953557E-01 0.40900384E+03</pdfrwt>
<totfact> 0.24936265E+03</totfact>
</mgrwt>
</event>
<event>
 4    1  0.4863180E-002  0.4698160E+03  0.7818608E-02  0.1021972E+00
         21   -1    0    0  503  502  0.00000000000E+00  0.00000000000E+00  0.11056346954E+04  0.11056346954E+04  0.00000000000E+00 0.  1.
         21   -1    0    0  501  503 -0.00000000000E+00 -0.00000000000E+00 -0.52382693055E+03  0.52382693055E+03  0.00000000000E+00 0.  1.
    9000007    1    1    2  501    0 -0.20652988435E+03  0.13443405635E+03 -0.35003862251E+03  0.58587895156E+03  0.40000000000E+03 0.  1.
   -9000007    1    1    2    0  502  0.20652988435E+03 -0.13443405635E+03  0.93184638739E+03  0.10435826744E+04  0.40000000000E+03 0.  1.
<mgrwt>
<rscale>  2 0.46981604E+03</rscale>
<asrwt>0</asrwt>
<pdfrwt beam="1">  1       21 0.17009764E+00 0.46981604E+03</pdfrwt>
<pdfrwt beam="2">  1       21 0.80588759E-01 0.46981604E+03</pdfrwt>
<totfact> 0.23301063E+02</totfact>
</mgrwt>
</event>
<event>
 4    1  0.4863180E-002  0.4052813E+03  0.7818608E-02  0.1041966E+00
         21   -1    0    0  503  502  0.00000000000E+00  0.00000000000E+00  0.46350117324E+03  0.46350117324E+03  0.00000000000E+00 0. -1.
         21   -1    0    0  501  503 -0.00000000000E+00 -0.00000000000E+00 -0.40861758118E+03  0.40861758118E+03  0.00000000000E+00 0. -1.
    9000007    1    1    2  501    0 -0.26292232499E+01 -0.65161227269E+02 -0.13143487416E+03  0.42606105724E+03  0.40000000000E+03 0. -1.
   -9000007    1    1    2    0  502  0.26292232499E+01  0.65161227269E+02  0.18631846622E+03  0.44605769717E+03  0.40000000000E+03 0. -1.
<mgrwt>
<rscale>  2 0.40528126E+03</rscale>
<asrwt>0</asrwt>
<pdfrwt beam="1">  1       21 0.71307873E-01 0.40528126E+03</pdfrwt>
<pdfrwt beam="2">  1       21 0.62864243E-01 0.40528126E+03</pdfrwt>
<totfact> 0.37040880E+03</totfact>
</mgrwt>
</event>
<event>
 4    1  0.4863180E-002  0.6109288E+03  0.7818608E-02  0.9882988E-01
         21   -1    0    0  501  502  0.00000000000E+00  0.00000000000E+00  0.24381858115E+04  0.24381858115E+04  0.00000000000E+00 0. -1.
         21   -1    0    0  502  503 -0.00000000000E+00 -0.00000000000E+00 -0.15407697373E+03  0.15407697373E+03  0.00000000000E+00 0.  1.
    9000007    1    1    2  501    0  0.74969942714E+02 -0.45564626430E+03  0.12463899166E+04  0.13880640601E+04  0.40000000000E+03 0.  1.
   -9000007    1    1    2    0  503 -0.74969942714E+02  0.45564626430E+03  0.10377189211E+04  0.12041987252E+04  0.40000000000E+03 0. -1.
<mgrwt>
<rscale>  2 0.61092881E+03</rscale>
<asrwt>0</asrwt>
<pdfrwt beam="1">  1       21 0.37510548E+00 0.61092881E+03</pdfrwt>
<pdfrwt beam="2">  1       21 0.23704152E-01 0.61092881E+03</pdfrwt>
<totfact> 0.14464704E+02</totfact>
</mgrwt>
</event>
<event>
 4    1  0.4863180E-002  0.4225055E+03  0.7818608E-02  0.1036254E+00
         21   -1    0    0  503  502  0.00000000000E+00  0.00000000000E+00  0.21405830464E+03  0.21405830464E+03  0.00000000000E+00 0. -1.
         21   -1    0    0  501  503 -0.00000000000E+00 -0.00000000000E+00 -0.11331470739E+04  0.11331470739E+04  0.00000000000E+00 0. -1.
    9000007    1    1    2  501    0 -0.13600404232E+03  0.37093844714E+01 -0.80568274418E+03  0.90974476823E+03  0.40000000000E+03 0.  1.
   -9000007    1    1    2    0  502  0.13600404232E+03 -0.37093844714E+01 -0.11340602509E+03  0.43746061033E+03  0.40000000000E+03 0.  1.
<mgrwt>
<rscale>  2 0.42250545E+03</rscale>
<asrwt>0</asrwt>
<pdfrwt beam="1">  1       21 0.32932047E-01 0.42250545E+03</pdfrwt>
<pdfrwt beam="2">  1       21 0.17433032E+00 0.42250545E+03</pdfrwt>
<totfact> 0.15140151E+03</totfact>
</mgrwt>
</event>
<event>
 4    1  0.4863180E-002  0.9378872E+03  0.7818608E-02  0.9379422E-01
         21   -1    0    0  501  502  0.00000000000E+00  0.00000000000E+00  0.73770000900E+03  0.73770000900E+03  0.00000000000E+00 0.  1.
         21   -1    0    0  502  503 -0.00000000000E+00 -0.00000000000E+00 -0.18955414317E+04  0.18955414317E+04  0.00000000000E+00 0. -1.
    9000007    1    1    2  501    0 -0.17219687099E+03  0.83065069858E+03 -0.13808126890E+04  0.16692141946E+04  0.40000000000E+03 0. -1.
   -9000007    1    1    2    0  503  0.17219687099E+03 -0.83065069858E+03  0.22297126637E+03  0.96402724601E+03  0.40000000000E+03 0.  1.
<mgrwt>
<rscale>  2 0.93788717E+03</rscale>
<asrwt>0</asrwt>
<pdfrwt beam="1">  1       21 0.11349231E+00 0.93788717E+03</pdfrwt>
<pdfrwt beam="2">  1       21 0.29162175E+00 0.93788717E+03</pdfrwt>
<totfact> 0.13626819E+01</totfact>
</mgrwt>
</event>
<event>
 4    1  0.4863180E-002  0.5379304E+03  0.7818608E-02  0.1004327E+00
         21   -1    0    0  501  502  0.00000000000E+00  0.00000000000E+00  0.63931851740E+03  0.63931851740E+03  0.00000000000E+00 0. -1.
         21   -1    0    0  502  503 -0.00000000000E+00 -0.00000000000E+00 -0.10810372681E+04  0.10810372681E+04  0.00000000000E+00 0. -1.
    9000007    1    1    2  501    0  0.33912565543E+03 -0.11984516971E+03  0.43497111776E+03  0.69178677940E+03  0.40000000000E+03 0. -1.
   -9000007    1    1    2    0  503 -0.33912565543E+03  0.11984516971E+03 -0.87668986849E+03  0.10285690061E+04  0.40000000000E+03 0. -1.
<mgrwt>
<rscale>  2 0.53793036E+03</rscale>
<asrwt>0</asrwt>
<pdfrwt beam="1">  1       21 0.98356696E-01 0.53793036E+03</pdfrwt>
<pdfrwt beam="2">  1       21 0.16631342E+00 0.53793036E+03</pdfrwt>
<totfact> 0.15010560E+02</totfact>
</mgrwt>
</event>
<event>
 4    1  0.4863180E-002  0.4342111E+03  0.7818608E-02  0.1032538E+00
         21   -1    0    0  503  502  0.00000000000E+00  0.00000000000E+00  0.16937314037E+03  0.16937314037E+03  0.00000000000E+00 0. -1.
         21   -1    0    0  501  503 -0.00000000000E+00 -0.00000000000E+00 -0.20222472890E+04  0.20222472890E+04  0.00000000000E+00 0. -1.
    9000007    1    1    2  501    0 -0.82475890773E+02 -0.14743488704E+03 -0.16611558327E+04  0.17169676814E+04  0.40000000000E+03 0. -1.
   -9000007    1    1    2    0  502  0.82475890773E+02  0.14743488704E+03 -0.19171831590E+03  0.47465274794E+03  0.40000000000E+03 0. -1.
<mgrwt>
<rscale>  2 0.43421115E+03</rscale>
<asrwt>0</asrwt>
<pdfrwt beam="1">  1       21 0.26057405E-01 0.43421115E+03</pdfrwt>
<pdfrwt beam="2">  1       21 0.31111498E+00 0.43421115E+03</pdfrwt>
<totfact> 0.32785576E+02</totfact>
</mgrwt>
</event>
<event>
 4    1  0.4863180E-002  0.4335180E+03  0.7818608E-02  0.1032754E+00
         21   -1    0    0  501  502  0.00000000000E+00  0.00000000000E+00  0.37050624141E+03  0.37050624141E+03  0.00000000000E+00 0.  1.
         21   -1    0    0  502  503 -0.00000000000E+00 -0.00000000000E+00 -0.10141346894E+04  0.10141346894E+04  0.00000000000E+00 0.  1.
    9000007    1    1    2  501    0  0.61222902247E+01 -0.16703403171E+03  0.16764396975E+03  0.46480356150E+03  0.40000000000E+03 0.  1.
   -9000007    1    1    2    0  503 -0.61222902247E+01  0.16703403171E+03 -0.81127241771E+03  0.91983736928E+03  0.40000000000E+03 0.  1.
<mgrwt>
<rscale>  2 0.43351799E+03</rscale>
<asrwt>0</asrwt>
<pdfrwt beam="1">  1       21 0.57000961E-01 0.43351799E+03</pdfrwt>
<pdfrwt beam="2">  1       21 0.15602072E+00 0.43351799E+03</pdfrwt>
<totfact> 0.65635207E+02</totfact>
</mgrwt>
</event>
<event>
 4    1  0.4863180E-002  0.4868387E+03  0.7818608E-02  0.1017272E+00
         21   -1    0    0  503  502  0.00000000000E+00  0.00000000000E+00  0.21882540633E+03  0.21882540633E+03  0.00000000000E+00 0. -1.
         21   -1    0    0  501  503 -0.00000000000E+00 -0.00000000000E+00 -0.14059798009E+04  0.14059798009E+04  0.00000000000E+00 0.  1.
    9000007    1    1    2  501    0 -0.16964449062E+03 -0.21961945556E+03 -0.98288720054E+03  0.10968496740E+04  0.40000000000E+03 0. -1.
   -9000007    1    1    2    0  502  0.16964449062E+03  0.21961945556E+03 -0.20426719401E+03  0.52795553317E+03  0.40000000000E+03 0. -1.
<mgrwt>
<rscale>  2 0.48683874E+03</rscale>
<asrwt>0</asrwt>
<pdfrwt beam="1">  1       21 0.33665446E-01 0.48683874E+03</pdfrwt>
<pdfrwt beam="2">  1       21 0.21630459E+00 0.48683874E+03</pdfrwt>
<totfact> 0.73127209E+02</totfact>
</mgrwt>
</event>
<event>
 4    1  0.4863180E-002  0.5574580E+03  0.7818608E-02  0.9997823E-01
         21   -1    0    0  503  502  0.00000000000E+00  0.00000000000E+00  0.75645804459E+03  0.75645804459E+03  0.00000000000E+00 0. -1.
         21   -1    0    0  501  503 -0.00000000000E+00 -0.00000000000E+00 -0.82783020211E+03  0.82783020211E+03  0.00000000000E+00 0.  1.
    9000007    1    1    2  501    0  0.19284502132E+03 -0.33700173360E+03 -0.59791465545E+03  0.81747251079E+03  0.40000000000E+03 0.  1.
   -9000007    1    1    2    0  502 -0.19284502132E+03  0.33700173360E+03  0.52654249793E+03  0.76681573590E+03  0.40000000000E+03 0. -1.
<mgrwt>
<rscale>  2 0.55745795E+03</rscale>
<asrwt>0</asrwt>
<pdfrwt beam="1">  1       21 0.11637816E+00 0.55745795E+03</pdfrwt>
<pdfrwt beam="2">  1       21 0.12735849E+00 0.55745795E+03</pdfrwt>
<totfact> 0.20224887E+02</totfact>
</mgrwt>
</event>
<event>
 4    1  0.4863180E-002  0.4100101E+03  0.7818608E-02  0.1040368E+00
         21   -1    0    0  501  502  0.00000000000E+00  0.00000000000E+00  0.12740867453E+04  0.12740867453E+04  0.00000000000E+00 0.  1.
         21   -1    0    0  502  503 -0.00000000000E+00 -0.00000000000E+00 -0.18969060199E+03  0.18969060199E+03  0.00000000000E+00 0.  1.
    9000007    1    1    2  501    0  0.89842610571E+02  0.60493728301E+01  0.94601524153E+03  0.10310446774E+04  0.40000000000E+03 0.  1.
   -9000007    1    1    2    0  503 -0.89842610571E+02 -0.60493728301E+01  0.13838090174E+03  0.43273266985E+03  0.40000000000E+03 0.  1.
<mgrwt>
<rscale>  2 0.41001011E+03</rscale>
<asrwt>0</asrwt>
<pdfrwt beam="1">  1       21 0.19601334E+00 0.41001011E+03</pdfrwt>
<pdfrwt beam="2">  1       21 0.29183170E-01 0.41001011E+03</pdfrwt>
<totfact> 0.13709645E+03</totfact>
</mgrwt>
</event>
<event>
 4    1  0.4863180E-002  0.4460750E+03  0.7818608E-02  0.1028899E+00
         21   -1    0    0  503  502  0.00000000000E+00  0.00000000000E+00  0.40880064094E+03  0.40880064094E+03  0.00000000000E+00 0. -1.
         21   -1    0    0  501  503 -0.00000000000E+00 -0.00000000000E+00 -0.78077240897E+03  0.78077240897E+03  0.00000000000E+00 0. -1.
    9000007    1    1    2  501    0  0.15478865235E+03  0.12256990677E+03 -0.55098394602E+03  0.70891904878E+03  0.40000000000E+03 0. -1.
   -9000007    1    1    2    0  502 -0.15478865235E+03 -0.12256990677E+03  0.17901217799E+03  0.48065400114E+03  0.40000000000E+03 0. -1.
<mgrwt>
<rscale>  2 0.44607500E+03</rscale>
<asrwt>0</asrwt>
<pdfrwt beam="1">  1       21 0.62892406E-01 0.44607500E+03</pdfrwt>
<pdfrwt beam="2">  1       21 0.12011883E+00 0.44607500E+03</pdfrwt>
<totfact> 0.10494188E+03</totfact>
</mgrwt>
</event>
<event>
 4    1  0.4863180E-002  0.4018942E+03  0.7818608E-02  0.1043126E+00
         21   -1    0    0  503  502  0.00000000000E+00  0.00000000000E+00  0.18076682521E+04  0.18076682521E+04  0.00000000000E+00 0. -1.
         21   -1    0    0  501  503 -0.00000000000E+00 -0.00000000000E+00 -0.25769446688E+03  0.25769446688E+03  0.00000000000E+00 0. -1.
    9000007    1    1    2  501    0 -0.37694680161E+02  0.99040867691E+01 -0.59674810893E+02  0.40630045890E+03  0.40000000000E+03 0. -1.
   -9000007    1    1    2    0  502  0.37694680161E+02 -0.99040867691E+01  0.16096485961E+04  0.16590622601E+04  0.40000000000E+03 0. -1.
<mgrwt>
<rscale>  2 0.40189424E+03</rscale>
<asrwt>0</asrwt>
<pdfrwt beam="1">  1       21 0.27810280E+00 0.40189424E+03</pdfrwt>
<pdfrwt beam="2">  1       21 0.39645304E-01 0.40189424E+03</pdfrwt>
<totfact> 0.22802249E+02</totfact>
</mgrwt>
</event>
<event>
 4    1  0.4863180E-002  0.6971858E+03  0.7818608E-02  0.9722057E-01
         21   -1    0    0  503  502  0.00000000000E+00  0.00000000000E+00  0.35001480325E+03  0.35001480325E+03  0.00000000000E+00 0. -1.
         21   -1    0    0  501  503 -0.00000000000E+00 -0.00000000000E+00 -0.14036269394E+04  0.14036269394E+04  0.00000000000E+00 0. -1.
    9000007    1    1    2  501    0  0.50006436004E+03 -0.27568751691E+03 -0.61720640890E+03  0.93113464244E+03  0.40000000000E+03 0. -1.
   -9000007    1    1    2    0  502 -0.50006436004E+03  0.27568751691E+03 -0.43640572729E+03  0.82250710026E+03  0.40000000000E+03 0. -1.
<mgrwt>
<rscale>  2 0.69718575E+03</rscale>
<asrwt>0</asrwt>
<pdfrwt beam="1">  1       21 0.53848430E-01 0.69718575E+03</pdfrwt>
<pdfrwt beam="2">  1       21 0.21594261E+00 0.69718575E+03</pdfrwt>
<totfact> 0.25410266E+02</totfact>
</mgrwt>
</event>
<event>
 4    1  0.4863180E-002  0.4886525E+03  0.7818608E-02  0.1016784E+00
         21   -1    0    0  501  502  0.00000000000E+00  0.00000000000E+00  0.67476563993E+03  0.67476563993E+03  0.00000000000E+00 0. -1.
         21   -1    0    0  502  503 -0.00000000000E+00 -0.00000000000E+00 -0.39055166820E+03  0.39055166820E+03  0.00000000000E+00 0. -1.
    9000007    1    1    2  501    0 -0.20619260131E+02 -0.27992164111E+03 -0.21129435050E+02  0.48910912083E+03  0.40000000000E+03 0. -1.
   -9000007    1    1    2    0  503  0.20619260131E+02  0.27992164111E+03  0.30534340679E+03  0.57620818731E+03  0.40000000000E+03 0. -1.
<mgrwt>
<rscale>  2 0.48865251E+03</rscale>
<asrwt>0</asrwt>
<pdfrwt beam="1">  1       21 0.10381010E+00 0.48865251E+03</pdfrwt>
<pdfrwt beam="2">  1       21 0.60084872E-01 0.48865251E+03</pdfrwt>
<totfact> 0.16423547E+03</totfact>
</mgrwt>
</event>
<event>
 4    1  0.4863180E-002  0.5181386E+03  0.7818608E-02  0.1009150E+00
         21   -1    0    0  503  502  0.00000000000E+00  0.00000000000E+00  0.24543065653E+03  0.24543065653E+03  0.00000000000E+00 0. -1.
         21   -1    0    0  501  503 -0.00000000000E+00 -0.00000000000E+00 -0.13234986095E+04  0.13234986095E+04  0.00000000000E+00 0.  1.
    9000007    1    1    2  501    0 -0.26656522170E+03 -0.19341822830E+03 -0.86579541638E+03  0.10089942178E+04  0.40000000000E+03 0.  1.
   -9000007    1    1    2    0  502  0.26656522170E+03  0.19341822830E+03 -0.21227253655E+03  0.55993504823E+03  0.40000000000E+03 0. -1.
<mgrwt>
<rscale>  2 0.51813862E+03</rscale>
<asrwt>0</asrwt>
<pdfrwt beam="1">  1       21 0.37758563E-01 0.51813862E+03</pdfrwt>
<pdfrwt beam="2">  1       21 0.20361517E+00 0.51813862E+03</pdfrwt>
<totfact> 0.69205269E+02</totfact>
</mgrwt>
</event>
<event>
 4    1  0.4863180E-002  0.4094040E+03  0.7818608E-02  0.1040571E+00
         21   -1    0    0  503  502  0.00000000000E+00  0.00000000000E+00  0.26125737257E+03  0.26125737257E+03  0.00000000000E+00 0. -1.
         21   -1    0    0  501  503 -0.00000000000E+00 -0.00000000000E+00 -0.15724155104E+04  0.15724155104E+04  0.00000000000E+00 0. -1.
    9000007    1    1    2  501    0 -0.87174489755E+02  0.34991646604E+01 -0.13610025626E+04  0.14212457955E+04  0.40000000000E+03 0. -1.
   -9000007    1    1    2    0  502  0.87174489755E+02 -0.34991646604E+01  0.49844424747E+02  0.41242708749E+03  0.40000000000E+03 0. -1.
<mgrwt>
<rscale>  2 0.40940400E+03</rscale>
<asrwt>0</asrwt>
<pdfrwt beam="1">  1       21 0.40193443E-01 0.40940400E+03</pdfrwt>
<pdfrwt beam="2">  1       21 0.24191007E+00 0.40940400E+03</pdfrwt>
<totfact> 0.36580404E+02</totfact>
</mgrwt>
</event>
<event>
 4    1  0.4863180E-002  0.5607739E+03  0.7818608E-02  0.9990305E-01
         21   -1    0    0  501  502  0.00000000000E+00  0.00000000000E+00  0.15529275248E+04  0.15529275248E+04  0.00000000000E+00 0.  1.
         21   -1    0    0  502  503 -0.00000000000E+00 -0.00000000000E+00 -0.33744700087E+03  0.33744700087E+03  0.00000000000E+00 0.  1.
    9000007    1    1    2  501    0  0.22720329125E+03  0.32069613872E+03  0.12054594320E+04  0.13295111098E+04  0.40000000000E+03 0.  1.
   -9000007    1    1    2    0  503 -0.22720329125E+03 -0.32069613872E+03  0.10021091916E+02  0.56086341584E+03  0.40000000000E+03 0.  1.
<mgrwt>
<rscale>  2 0.56077388E+03</rscale>
<asrwt>0</asrwt>
<pdfrwt beam="1">  1       21 0.23891192E+00 0.56077388E+03</pdfrwt>
<pdfrwt beam="2">  1       21 0.51914924E-01 0.56077388E+03</pdfrwt>
<totfact> 0.20637956E+02</totfact>
</mgrwt>
</event>
<event>
 4    1  0.4863180E-002  0.5962525E+03  0.7818608E-02  0.9913211E-01
         21   -1    0    0  503  502  0.00000000000E+00  0.00000000000E+00  0.18693610423E+04  0.18693610423E+04  0.00000000000E+00 0.  1.
         21   -1    0    0  501  503 -0.00000000000E+00 -0.00000000000E+00 -0.55140738782E+03  0.55140738782E+03  0.00000000000E+00 0. -1.
    9000007    1    1    2  501    0  0.29524687531E+03 -0.32916011170E+03 -0.32068604406E+03  0.67702040986E+03  0.40000000000E+03 0. -1.
   -9000007    1    1    2    0  502 -0.29524687531E+03  0.32916011170E+03  0.16386396986E+04  0.17437480203E+04  0.40000000000E+03 0.  1.
<mgrwt>
<rscale>  2 0.59625254E+03</rscale>
<asrwt>0</asrwt>
<pdfrwt beam="1">  1       21 0.28759400E+00 0.59625254E+03</pdfrwt>
<pdfrwt beam="2">  1       21 0.84831907E-01 0.59625254E+03</pdfrwt>
<totfact> 0.33761474E+01</totfact>
</mgrwt>
</event>
<event>
 4    1  0.4863180E-002  0.4328706E+03  0.7818608E-02  0.1032957E+00
         21   -1    0    0  503  502  0.00000000000E+00  0.00000000000E+00  0.15006302963E+04  0.15006302963E+04  0.00000000000E+00 0.  1.
         21   -1    0    0  501  503 -0.00000000000E+00 -0.00000000000E+00 -0.34977517574E+03  0.34977517574E+03  0.00000000000E+00 0.  1.
    9000007    1    1    2  501    0  0.66083386110E+02  0.15169014721E+03 -0.16647438629E+03  0.46377864976E+03  0.40000000000E+03 0.  1.
   -9000007    1    1    2    0  502 -0.66083386110E+02 -0.15169014721E+03  0.13173295069E+04  0.13866268223E+04  0.40000000000E+03 0.  1.
<mgrwt>
<rscale>  2 0.43287055E+03</rscale>
<asrwt>0</asrwt>
<pdfrwt beam="1">  1       21 0.23086620E+00 0.43287055E+03</pdfrwt>
<pdfrwt beam="2">  1       21 0.53811566E-01 0.43287055E+03</pdfrwt>
<totfact> 0.22889612E+02</totfact>
</mgrwt>
</event>
<event>
 4    1  0.4863180E-002  0.4035522E+03  0.7818608E-02  0.1042557E+00
         21   -1    0    0  501  502  0.00000000000E+00  0.00000000000E+00  0.15385162546E+03  0.15385162546E+03  0.00000000000E+00 0. -1.
         21   -1    0    0  502  503 -0.00000000000E+00 -0.00000000000E+00 -0.11476118045E+04  0.11476118045E+04  0.00000000000E+00 0. -1.
    9000007    1    1    2  501    0 -0.42333519012E+02 -0.32592628463E+02 -0.67819482957E+03  0.78917845454E+03  0.40000000000E+03 0. -1.
   -9000007    1    1    2    0  503  0.42333519012E+02  0.32592628463E+02 -0.31556534950E+03  0.51228497544E+03  0.40000000000E+03 0. -1.
<mgrwt>
<rscale>  2 0.40355223E+03</rscale>
<asrwt>0</asrwt>
<pdfrwt beam="1">  1       21 0.23669482E-01 0.40355223E+03</pdfrwt>
<pdfrwt beam="2">  1       21 0.17655566E+00 0.40355223E+03</pdfrwt>
<totfact> 0.28189631E+03</totfact>
</mgrwt>
</event>
<event>
 4    1  0.4863180E-002  0.4008708E+03  0.7818608E-02  0.1043479E+00
         21   -1    0    0  501  502  0.00000000000E+00  0.00000000000E+00  0.82531177520E+03  0.82531177520E+03  0.00000000000E+00 0. -1.
         21   -1    0    0  502  503 -0.00000000000E+00 -0.00000000000E+00 -0.30327549710E+03  0.30327549710E+03  0.00000000000E+00 0. -1.
    9000007    1    1    2  501    0  0.19879992501E+02 -0.17383632417E+02  0.59863964565E+03  0.72046292765E+03  0.40000000000E+03 0. -1.
   -9000007    1    1    2    0  503 -0.19879992501E+02  0.17383632417E+02 -0.76603367552E+02  0.40812434465E+03  0.40000000000E+03 0. -1.
<mgrwt>
<rscale>  2 0.40087081E+03</rscale>
<asrwt>0</asrwt>
<pdfrwt beam="1">  1       21 0.12697104E+00 0.40087081E+03</pdfrwt>
<pdfrwt beam="2">  1       21 0.46657769E-01 0.40087081E+03</pdfrwt>
<totfact> 0.17652483E+03</totfact>
</mgrwt>
</event>
<event>
 4    1  0.4863180E-002  0.5033776E+03  0.7818608E-02  0.1012901E+00
         21   -1    0    0  503  502  0.00000000000E+00  0.00000000000E+00  0.59651602744E+03  0.59651602744E+03  0.00000000000E+00 0.  1.
         21   -1    0    0  501  503 -0.00000000000E+00 -0.00000000000E+00 -0.80592218359E+03  0.80592218359E+03  0.00000000000E+00 0. -1.
    9000007    1    1    2  501    0 -0.25716320625E+03  0.16509420175E+03 -0.58692816949E+03  0.77322292144E+03  0.40000000000E+03 0. -1.
   -9000007    1    1    2    0  502  0.25716320625E+03 -0.16509420175E+03  0.37752201333E+03  0.62921528959E+03  0.40000000000E+03 0.  1.
<mgrwt>
<rscale>  2 0.50337760E+03</rscale>
<asrwt>0</asrwt>
<pdfrwt beam="1">  1       21 0.91771697E-01 0.50337760E+03</pdfrwt>
<pdfrwt beam="2">  1       21 0.12398803E+00 0.50337760E+03</pdfrwt>
<totfact> 0.39727074E+02</totfact>
</mgrwt>
</event>
<event>
 4    1  0.4863180E-002  0.5137425E+03  0.7818608E-02  0.1010253E+00
         21   -1    0    0  501  502  0.00000000000E+00  0.00000000000E+00  0.19400411638E+04  0.19400411638E+04  0.00000000000E+00 0.  1.
         21   -1    0    0  502  503 -0.00000000000E+00 -0.00000000000E+00 -0.15852750070E+03  0.15852750070E+03  0.00000000000E+00 0. -1.
    9000007    1    1    2  501    0  0.15357946898E+03  0.28345134332E+03  0.12859150961E+04  0.13847414747E+04  0.40000000000E+03 0.  1.
   -9000007    1    1    2    0  503 -0.15357946898E+03 -0.28345134332E+03  0.49559856704E+03  0.71382718986E+03  0.40000000000E+03 0. -1.
<mgrwt>
<rscale>  2 0.51374246E+03</rscale>
<asrwt>0</asrwt>
<pdfrwt beam="1">  1       21 0.29846785E+00 0.51374246E+03</pdfrwt>
<pdfrwt beam="2">  1       21 0.24388848E-01 0.51374246E+03</pdfrwt>
<totfact> 0.42533703E+02</totfact>
</mgrwt>
</event>
<event>
 4    1  0.4863180E-002  0.6376637E+03  0.7818608E-02  0.9830207E-01
         21   -1    0    0  501  502  0.00000000000E+00  0.00000000000E+00  0.55971809994E+03  0.55971809994E+03  0.00000000000E+00 0. -1.
         21   -1    0    0  502  503 -0.00000000000E+00 -0.00000000000E+00 -0.75025086379E+03  0.75025086379E+03  0.00000000000E+00 0.  1.
    9000007    1    1    2  501    0 -0.27439363208E+03 -0.41391192047E+03 -0.21189310918E+03  0.67194764153E+03  0.40000000000E+03 0.  1.
   -9000007    1    1    2    0  503  0.27439363208E+03  0.41391192047E+03  0.21360345336E+02  0.63802132220E+03  0.40000000000E+03 0.  1.
<mgrwt>
<rscale>  2 0.63766366E+03</rscale>
<asrwt>0</asrwt>
<pdfrwt beam="1">  1       21 0.86110477E-01 0.63766366E+03</pdfrwt>
<pdfrwt beam="2">  1       21 0.11542321E+00 0.63766366E+03</pdfrwt>
<totfact> 0.52904060E+02</totfact>
</mgrwt>
</event>
<event>
 4    1  0.4863180E-002  0.5980599E+03  0.7818608E-02  0.9909439E-01
         21   -1    0    0  503  502  0.00000000000E+00  0.00000000000E+00  0.72079756605E+03  0.72079756605E+03  0.00000000000E+00 0. -1.
         21   -1    0    0  501  503 -0.00000000000E+00 -0.00000000000E+00 -0.67372239926E+03  0.67372239926E+03  0.00000000000E+00 0.  1.
    9000007    1    1    2  501    0 -0.22284965223E+03 -0.38472538039E+03  0.38143120245E+03  0.70934148900E+03  0.40000000000E+03 0. -1.
   -9000007    1    1    2    0  502  0.22284965223E+03  0.38472538039E+03 -0.33435603565E+03  0.68517847631E+03  0.40000000000E+03 0.  1.
<mgrwt>
<rscale>  2 0.59805985E+03</rscale>
<asrwt>0</asrwt>
<pdfrwt beam="1">  1       21 0.11089193E+00 0.59805985E+03</pdfrwt>
<pdfrwt beam="2">  1       21 0.10364960E+00 0.59805985E+03</pdfrwt>
<totfact> 0.37865277E+02</totfact>
</mgrwt>
</event>
<event>
 4    1  0.4863180E-002  0.5624758E+03  0.7818608E-02  0.9986468E-01
         21   -1    0    0  501  502  0.00000000000E+00  0.00000000000E+00  0.53697598180E+03  0.53697598180E+03  0.00000000000E+00 0. -1.
         21   -1    0    0  502  503 -0.00000000000E+00 -0.00000000000E+00 -0.65115364599E+03  0.65115364599E+03  0.00000000000E+00 0. -1.
    9000007    1    1    2  501    0  0.34039502278E+03  0.20127163230E+03  0.12617322771E+03  0.57645357566E+03  0.40000000000E+03 0. -1.
   -9000007    1    1    2    0  503 -0.34039502278E+03 -0.20127163230E+03 -0.24035089191E+03  0.61167605213E+03  0.40000000000E+03 0. -1.
<mgrwt>
<rscale>  2 0.56247581E+03</rscale>
<asrwt>0</asrwt>
<pdfrwt beam="1">  1       21 0.82611689E-01 0.56247581E+03</pdfrwt>
<pdfrwt beam="2">  1       21 0.10017748E+00 0.56247581E+03</pdfrwt>
<totfact> 0.85009593E+02</totfact>
</mgrwt>
</event>
<event>
 4    1  0.4863180E-002  0.4237896E+03  0.7818608E-02  0.1035840E+00
         21   -1    0    0  501  502  0.00000000000E+00  0.00000000000E+00  0.20236699505E+03  0.20236699505E+03  0.00000000000E+00 0. -1.
         21   -1    0    0  502  503 -0.00000000000E+00 -0.00000000000E+00 -0.89373557915E+03  0.89373557915E+03  0.00000000000E+00 0. -1.
    9000007    1    1    2  501    0  0.68940259952E+02 -0.12183938765E+03 -0.29985005702E+03  0.51914126451E+03  0.40000000000E+03 0. -1.
   -9000007    1    1    2    0  503 -0.68940259952E+02  0.12183938765E+03 -0.39151852708E+03  0.57696130969E+03  0.40000000000E+03 0. -1.
<mgrwt>
<rscale>  2 0.42378957E+03</rscale>
<asrwt>0</asrwt>
<pdfrwt beam="1">  1       21 0.31133383E-01 0.42378957E+03</pdfrwt>
<pdfrwt beam="2">  1       21 0.13749778E+00 0.42378957E+03</pdfrwt>
<totfact> 0.32501028E+03</totfact>
</mgrwt>
</event>
<event>
 4    1  0.4863180E-002  0.4295322E+03  0.7818608E-02  0.1034008E+00
         21   -1    0    0  503  502  0.00000000000E+00  0.00000000000E+00  0.44746584837E+03  0.44746584837E+03  0.00000000000E+00 0.  1.
         21   -1    0    0  501  503 -0.00000000000E+00 -0.00000000000E+00 -0.53832793350E+03  0.53832793350E+03  0.00000000000E+00 0. -1.
    9000007    1    1    2  501    0 -0.15334191623E+03 -0.31370878875E+02 -0.28390247129E+03  0.51487715867E+03  0.40000000000E+03 0. -1.
   -9000007    1    1    2    0  502  0.15334191623E+03  0.31370878875E+02  0.19304038616E+03  0.47091662320E+03  0.40000000000E+03 0.  1.
<mgrwt>
<rscale>  2 0.42953216E+03</rscale>
<asrwt>0</asrwt>
<pdfrwt beam="1">  1       21 0.68840900E-01 0.42953216E+03</pdfrwt>
<pdfrwt beam="2">  1       21 0.82819682E-01 0.42953216E+03</pdfrwt>
<totfact> 0.21291657E+03</totfact>
</mgrwt>
</event>
<event>
 4    1  0.4863180E-002  0.4597870E+03  0.7818608E-02  0.1024843E+00
         21   -1    0    0  501  502  0.00000000000E+00  0.00000000000E+00  0.65779123356E+03  0.65779123356E+03  0.00000000000E+00 0. -1.
         21   -1    0    0  502  503 -0.00000000000E+00 -0.00000000000E+00 -0.37586775393E+03  0.37586775393E+03  0.00000000000E+00 0. -1.
    9000007    1    1    2  501    0  0.19427935514E+03 -0.11687437586E+03 -0.55808845652E+02  0.46316165085E+03  0.40000000000E+03 0. -1.
   -9000007    1    1    2    0  503 -0.19427935514E+03  0.11687437586E+03  0.33773232528E+03  0.57049733664E+03  0.40000000000E+03 0. -1.
<mgrwt>
<rscale>  2 0.45978700E+03</rscale>
<asrwt>0</asrwt>
<pdfrwt beam="1">  1       21 0.10119865E+00 0.45978700E+03</pdfrwt>
<pdfrwt beam="2">  1       21 0.57825808E-01 0.45978700E+03</pdfrwt>
<totfact> 0.19213757E+03</totfact>
</mgrwt>
</event>
<event>
 4    1  0.4863180E-002  0.4109318E+03  0.7818608E-02  0.1040059E+00
         21   -1    0    0  501  502  0.00000000000E+00  0.00000000000E+00  0.30953546615E+03  0.30953546615E+03  0.00000000000E+00 0. -1.
         21   -1    0    0  502  503 -0.00000000000E+00 -0.00000000000E+00 -0.63208105333E+03  0.63208105333E+03  0.00000000000E+00 0. -1.
    9000007    1    1    2  501    0  0.71771499757E+02 -0.60941051786E+02 -0.33547787425E+03  0.53048125705E+03  0.40000000000E+03 0.  1.
   -9000007    1    1    2    0  503 -0.71771499757E+02  0.60941051786E+02  0.12932287068E+02  0.41113526244E+03  0.40000000000E+03 0.  1.
<mgrwt>
<rscale>  2 0.41093182E+03</rscale>
<asrwt>0</asrwt>
<pdfrwt beam="1">  1       21 0.47620842E-01 0.41093182E+03</pdfrwt>
<pdfrwt beam="2">  1       21 0.97243238E-01 0.41093182E+03</pdfrwt>
<totfact> 0.32672693E+03</totfact>
</mgrwt>
</event>
<event>
 4    1  0.4863180E-002  0.7006320E+03  0.7818608E-02  0.9716152E-01
         21   -1    0    0  501  502  0.00000000000E+00  0.00000000000E+00  0.70756273710E+03  0.70756273710E+03  0.00000000000E+00 0. -1.
         21   -1    0    0  502  503 -0.00000000000E+00 -0.00000000000E+00 -0.70661602486E+03  0.70661602486E+03  0.00000000000E+00 0.  1.
    9000007    1    1    2  501    0  0.95942503499E+02 -0.56716860700E+03  0.95814742514E+02  0.70715320662E+03  0.40000000000E+03 0.  1.
   -9000007    1    1    2    0  503 -0.95942503499E+02  0.56716860700E+03 -0.94868030271E+02  0.70702555535E+03  0.40000000000E+03 0. -1.
<mgrwt>
<rscale>  2 0.70063200E+03</rscale>
<asrwt>0</asrwt>
<pdfrwt beam="1">  1       21 0.10885581E+00 0.70063200E+03</pdfrwt>
<pdfrwt beam="2">  1       21 0.10871016E+00 0.70063200E+03</pdfrwt>
<totfact> 0.34103992E+02</totfact>
</mgrwt>
</event>
<event>
 4    1  0.4863180E-002  0.4083620E+03  0.7818608E-02  0.1040922E+00
         21   -1    0    0  501  502  0.00000000000E+00  0.00000000000E+00  0.32165510142E+03  0.32165510142E+03  0.00000000000E+00 0.  1.
         21   -1    0    0  502  503 -0.00000000000E+00 -0.00000000000E+00 -0.10911160343E+04  0.10911160343E+04  0.00000000000E+00 0.  1.
    9000007    1    1    2  501    0  0.35703553413E+02 -0.74059191023E+02  0.12702218620E+03  0.42766124829E+03  0.40000000000E+03 0.  1.
   -9000007    1    1    2    0  503 -0.35703553413E+02  0.74059191023E+02 -0.89648311908E+03  0.98510988743E+03  0.40000000000E+03 0.  1.
<mgrwt>
<rscale>  2 0.40836198E+03</rscale>
<asrwt>0</asrwt>
<pdfrwt beam="1">  1       21 0.49485400E-01 0.40836198E+03</pdfrwt>
<pdfrwt beam="2">  1       21 0.16786401E+00 0.40836198E+03</pdfrwt>
<totfact> 0.73345587E+02</totfact>
</mgrwt>
</event>
<event>
 4    1  0.4863180E-002  0.7074606E+03  0.7818608E-02  0.9704558E-01
         21   -1    0    0  501  502  0.00000000000E+00  0.00000000000E+00  0.13925383491E+04  0.13925383491E+04  0.00000000000E+00 0.  1.
         21   -1    0    0  502  503 -0.00000000000E+00 -0.00000000000E+00 -0.35948745677E+03  0.35948745677E+03  0.00000000000E+00 0. -1.
    9000007    1    1    2  501    0  0.35704292450E+03  0.46154181760E+03  0.52888007884E+03  0.88329759262E+03  0.40000000000E+03 0.  1.
   -9000007    1    1    2    0  503 -0.35704292450E+03 -0.46154181760E+03  0.50417081349E+03  0.86872821325E+03  0.40000000000E+03 0. -1.
<mgrwt>
<rscale>  2 0.70746060E+03</rscale>
<asrwt>0</asrwt>
<pdfrwt beam="1">  1       21 0.21423667E+00 0.70746060E+03</pdfrwt>
<pdfrwt beam="2">  1       21 0.55305764E-01 0.70746060E+03</pdfrwt>
<totfact> 0.24519095E+02</totfact>
</mgrwt>
</event>
<event>
 4    1  0.4863180E-002  0.5123400E+03  0.7818608E-02  0.1010607E+00
         21   -1    0    0  501  502  0.00000000000E+00  0.00000000000E+00  0.78724933711E+03  0.78724933711E+03  0.00000000000E+00 0. -1.
         21   -1    0    0  502  503 -0.00000000000E+00 -0.00000000000E+00 -0.36615610527E+03  0.36615610527E+03  0.00000000000E+00 0. -1.
    9000007    1    1    2  501    0  0.12554170145E+03  0.29450220877E+03  0.38295895916E+03  0.63964821126E+03  0.40000000000E+03 0. -1.
   -9000007    1    1    2    0  503 -0.12554170145E+03 -0.29450220877E+03  0.38134272681E+02  0.51375723112E+03  0.40000000000E+03 0. -1.
<mgrwt>
<rscale>  2 0.51233999E+03</rscale>
<asrwt>0</asrwt>
<pdfrwt beam="1">  1       21 0.12111528E+00 0.51233999E+03</pdfrwt>
<pdfrwt beam="2">  1       21 0.56331708E-01 0.51233999E+03</pdfrwt>
<totfact> 0.12751692E+03</totfact>
</mgrwt>
</event>
<event>
 4    1  0.4863180E-002  0.4178687E+03  0.7818608E-02  0.1037762E+00
         21   -1    0    0  503  502  0.00000000000E+00  0.00000000000E+00  0.72474546020E+03  0.72474546020E+03  0.00000000000E+00 0.  1.
         21   -1    0    0  501  503 -0.00000000000E+00 -0.00000000000E+00 -0.34972483144E+03  0.34972483144E+03  0.00000000000E+00 0.  1.
    9000007    1    1    2  501    0 -0.11980333390E+03  0.16169449270E+02 -0.11213090172E+03  0.43265185661E+03  0.40000000000E+03 0.  1.
   -9000007    1    1    2    0  502  0.11980333390E+03 -0.16169449270E+02  0.48715153048E+03  0.64181843504E+03  0.40000000000E+03 0.  1.
<mgrwt>
<rscale>  2 0.41786875E+03</rscale>
<asrwt>0</asrwt>
<pdfrwt beam="1">  1       21 0.11149930E+00 0.41786875E+03</pdfrwt>
<pdfrwt beam="2">  1       21 0.53803820E-01 0.41786875E+03</pdfrwt>
<totfact> 0.17977567E+03</totfact>
</mgrwt>
</event>
<event>
 4    1  0.4863180E-002  0.5008828E+03  0.7818608E-02  0.1013549E+00
         21   -1    0    0  501  502  0.00000000000E+00  0.00000000000E+00  0.14427686840E+04  0.14427686840E+04  0.00000000000E+00 0.  1.
         21   -1    0    0  502  503 -0.00000000000E+00 -0.00000000000E+00 -0.17410145144E+03  0.17410145144E+03  0.00000000000E+00 0.  1.
    9000007    1    1    2  501    0  0.29570472293E+03 -0.58671094790E+02  0.60618423858E+03  0.78634783120E+03  0.40000000000E+03 0.  1.
   -9000007    1    1    2    0  503 -0.29570472293E+03  0.58671094790E+02  0.66248299394E+03  0.83052230421E+03  0.40000000000E+03 0.  1.
<mgrwt>
<rscale>  2 0.50088280E+03</rscale>
<asrwt>0</asrwt>
<pdfrwt beam="1">  1       21 0.22196440E+00 0.50088280E+03</pdfrwt>
<pdfrwt beam="2">  1       21 0.26784840E-01 0.50088280E+03</pdfrwt>
<totfact> 0.10537642E+03</totfact>
</mgrwt>
</event>
<event>
 4    1  0.4863180E-002  0.4765964E+03  0.7818608E-02  0.1020075E+00
         21   -1    0    0  501  502  0.00000000000E+00  0.00000000000E+00  0.12863095431E+03  0.12863095431E+03  0.00000000000E+00 0. -1.
         21   -1    0    0  502  503 -0.00000000000E+00 -0.00000000000E+00 -0.28405714296E+04  0.28405714296E+04  0.00000000000E+00 0.  1.
    9000007    1    1    2  501    0 -0.18692730730E+03 -0.17944995226E+03 -0.44279711095E+03  0.65054852628E+03  0.40000000000E+03 0. -1.
   -9000007    1    1    2    0  503  0.18692730730E+03  0.17944995226E+03 -0.22691433643E+04  0.23186538576E+04  0.40000000000E+03 0.  1.
<mgrwt>
<rscale>  2 0.47659637E+03</rscale>
<asrwt>0</asrwt>
<pdfrwt beam="1">  1       21 0.19789378E-01 0.47659637E+03</pdfrwt>
<pdfrwt beam="2">  1       21 0.43701097E+00 0.47659637E+03</pdfrwt>
<totfact> 0.87550793E+01</totfact>
</mgrwt>
</event>
<event>
 4    1  0.4863180E-002  0.4409016E+03  0.7818608E-02  0.1030471E+00
         21   -1    0    0  503  502  0.00000000000E+00  0.00000000000E+00  0.53218323115E+03  0.53218323115E+03  0.00000000000E+00 0.  1.
         21   -1    0    0  501  503 -0.00000000000E+00 -0.00000000000E+00 -0.37808070095E+03  0.37808070095E+03  0.00000000000E+00 0. -1.
    9000007    1    1    2  501    0  0.14767549395E+03 -0.11218824753E+03  0.16080691473E+03  0.46931132335E+03  0.40000000000E+03 0.  1.
   -9000007    1    1    2    0  502 -0.14767549395E+03  0.11218824753E+03 -0.67043845302E+01  0.44095260876E+03  0.40000000000E+03 0. -1.
<mgrwt>
<rscale>  2 0.44090164E+03</rscale>
<asrwt>0</asrwt>
<pdfrwt beam="1">  1       21 0.81874343E-01 0.44090164E+03</pdfrwt>
<pdfrwt beam="2">  1       21 0.58166262E-01 0.44090164E+03</pdfrwt>
<totfact> 0.31600599E+03</totfact>
</mgrwt>
</event>
<event>
 4    1  0.4863180E-002  0.4965953E+03  0.7818608E-02  0.1014671E+00
         21   -1    0    0  503  502  0.00000000000E+00  0.00000000000E+00  0.25060431165E+03  0.25060431165E+03  0.00000000000E+00 0. -1.
         21   -1    0    0  501  503 -0.00000000000E+00 -0.00000000000E+00 -0.16103167539E+04  0.16103167539E+04  0.00000000000E+00 0. -1.
    9000007    1    1    2  501    0 -0.10761113153E+03  0.27391003063E+03 -0.12601159244E+04  0.13544367846E+04  0.40000000000E+03 0. -1.
   -9000007    1    1    2    0  502  0.10761113153E+03 -0.27391003063E+03 -0.99596517861E+02  0.50648428098E+03  0.40000000000E+03 0. -1.
<mgrwt>
<rscale>  2 0.49659527E+03</rscale>
<asrwt>0</asrwt>
<pdfrwt beam="1">  1       21 0.38554509E-01 0.49659527E+03</pdfrwt>
<pdfrwt beam="2">  1       21 0.24774104E+00 0.49659527E+03</pdfrwt>
<totfact> 0.34993279E+02</totfact>
</mgrwt>
</event>
<event>
 4    1  0.4863180E-002  0.4303162E+03  0.7818608E-02  0.1033760E+00
         21   -1    0    0  503  502  0.00000000000E+00  0.00000000000E+00  0.81795171668E+03  0.81795171668E+03  0.00000000000E+00 0.  1.
         21   -1    0    0  501  503 -0.00000000000E+00 -0.00000000000E+00 -0.23462048591E+03  0.23462048591E+03  0.00000000000E+00 0.  1.
    9000007    1    1    2  501    0  0.79387642547E+02  0.13736680048E+03  0.39026685628E+03  0.58093050770E+03  0.40000000000E+03 0.  1.
   -9000007    1    1    2    0  502 -0.79387642547E+02 -0.13736680048E+03  0.19306437448E+03  0.47164169489E+03  0.40000000000E+03 0.  1.
<mgrwt>
<rscale>  2 0.43031620E+03</rscale>
<asrwt>0</asrwt>
<pdfrwt beam="1">  1       21 0.12583872E+00 0.43031620E+03</pdfrwt>
<pdfrwt beam="2">  1       21 0.36095460E-01 0.43031620E+03</pdfrwt>
<totfact> 0.30314717E+03</totfact>
</mgrwt>
</event>
<event>
 4    1  0.4863180E-002  0.4097101E+03  0.7818608E-02  0.1040468E+00
         21   -1    0    0  501  502  0.00000000000E+00  0.00000000000E+00  0.52516408604E+03  0.52516408604E+03  0.00000000000E+00 0. -1.
         21   -1    0    0  502  503 -0.00000000000E+00 -0.00000000000E+00 -0.72133381368E+03  0.72133381368E+03  0.00000000000E+00 0. -1.
    9000007    1    1    2  501    0 -0.49468205361E+02  0.73588264235E+02  0.36701062467E+03  0.55005375609E+03  0.40000000000E+03 0. -1.
   -9000007    1    1    2    0  503  0.49468205361E+02 -0.73588264235E+02 -0.56318035230E+03  0.69644414363E+03  0.40000000000E+03 0. -1.
<mgrwt>
<rscale>  2 0.40971006E+03</rscale>
<asrwt>0</asrwt>
<pdfrwt beam="1">  1       21 0.80794475E-01 0.40971006E+03</pdfrwt>
<pdfrwt beam="2">  1       21 0.11097443E+00 0.40971006E+03</pdfrwt>
<totfact> 0.73870978E+02</totfact>
</mgrwt>
</event>
<event>
 4    1  0.4863180E-002  0.4175677E+03  0.7818608E-02  0.1037861E+00
         21   -1    0    0  501  502  0.00000000000E+00  0.00000000000E+00  0.32382455288E+03  0.32382455288E+03  0.00000000000E+00 0.  1.
         21   -1    0    0  502  503 -0.00000000000E+00 -0.00000000000E+00 -0.10377501702E+04  0.10377501702E+04  0.00000000000E+00 0. -1.
    9000007    1    1    2  501    0  0.90485715477E+02 -0.78581836263E+02  0.11525970461E+03  0.43318306662E+03  0.40000000000E+03 0.  1.
   -9000007    1    1    2    0  503 -0.90485715477E+02  0.78581836263E+02 -0.82918532193E+03  0.92839165647E+03  0.40000000000E+03 0. -1.
<mgrwt>
<rscale>  2 0.41756768E+03</rscale>
<asrwt>0</asrwt>
<pdfrwt beam="1">  1       21 0.49819162E-01 0.41756768E+03</pdfrwt>
<pdfrwt beam="2">  1       21 0.15965387E+00 0.41756768E+03</pdfrwt>
<totfact> 0.82835609E+02</totfact>
</mgrwt>
</event>
<event>
 4    1  0.4863180E-002  0.8074486E+03  0.7818608E-02  0.9549298E-01
         21   -1    0    0  503  502  0.00000000000E+00  0.00000000000E+00  0.19630627974E+04  0.19630627974E+04  0.00000000000E+00 0. -1.
         21   -1    0    0  501  503 -0.00000000000E+00 -0.00000000000E+00 -0.65609431363E+03  0.65609431363E+03  0.00000000000E+00 0. -1.
    9000007    1    1    2  501    0  0.29575928023E+03 -0.63600295210E+03 -0.26676062386E+03  0.85037317536E+03  0.40000000000E+03 0. -1.
   -9000007    1    1    2    0  502 -0.29575928023E+03  0.63600295210E+03  0.15737291076E+04  0.17687839357E+04  0.40000000000E+03 0. -1.
<mgrwt>
<rscale>  2 0.80744864E+03</rscale>
<asrwt>0</asrwt>
<pdfrwt beam="1">  1       21 0.30200966E+00 0.80744864E+03</pdfrwt>
<pdfrwt beam="2">  1       21 0.10093759E+00 0.80744864E+03</pdfrwt>
<totfact> 0.16523411E+01</totfact>
</mgrwt>
</event>
<event>
 4    1  0.4863180E-002  0.5152546E+03  0.7818608E-02  0.1009872E+00
         21   -1    0    0  503  502  0.00000000000E+00  0.00000000000E+00  0.10563161136E+04  0.10563161136E+04  0.00000000000E+00 0.  1.
         21   -1    0    0  501  503 -0.00000000000E+00 -0.00000000000E+00 -0.27447218013E+03  0.27447218013E+03  0.00000000000E+00 0.  1.
    9000007    1    1    2  501    0  0.32218234643E+03  0.41059433053E+02  0.58411952335E+03  0.77889855498E+03  0.40000000000E+03 0.  1.
   -9000007    1    1    2    0  502 -0.32218234643E+03 -0.41059433053E+02  0.19772441015E+03  0.55188973878E+03  0.40000000000E+03 0.  1.
<mgrwt>
<rscale>  2 0.51525464E+03</rscale>
<asrwt>0</asrwt>
<pdfrwt beam="1">  1       21 0.16251017E+00 0.51525464E+03</pdfrwt>
<pdfrwt beam="2">  1       21 0.42226490E-01 0.51525464E+03</pdfrwt>
<totfact> 0.10707752E+03</totfact>
</mgrwt>
</event>
<event>
 4    1  0.4863180E-002  0.4465595E+03  0.7818608E-02  0.1028753E+00
         21   -1    0    0  501  502  0.00000000000E+00  0.00000000000E+00  0.18416421621E+04  0.18416421621E+04  0.00000000000E+00 0. -1.
         21   -1    0    0  502  503 -0.00000000000E+00 -0.00000000000E+00 -0.13203039333E+03  0.13203039333E+03  0.00000000000E+00 0. -1.
    9000007    1    1    2  501    0  0.17420720795E+03 -0.95221930398E+02  0.12733409639E+04  0.13493748840E+04  0.40000000000E+03 0. -1.
   -9000007    1    1    2    0  503 -0.17420720795E+03  0.95221930398E+02  0.43627080493E+03  0.62429767144E+03  0.40000000000E+03 0. -1.
<mgrwt>
<rscale>  2 0.44655948E+03</rscale>
<asrwt>0</asrwt>
<pdfrwt beam="1">  1       21 0.28332955E+00 0.44655948E+03</pdfrwt>
<pdfrwt beam="2">  1       21 0.20312369E-01 0.44655948E+03</pdfrwt>
<totfact> 0.77307577E+02</totfact>
</mgrwt>
</event>
<event>
 4    1  0.4863180E-002  0.5837219E+03  0.7818608E-02  0.9939766E-01
         21   -1    0    0  503  502  0.00000000000E+00  0.00000000000E+00  0.21769765177E+04  0.21769765177E+04  0.00000000000E+00 0. -1.
         21   -1    0    0  501  503 -0.00000000000E+00 -0.00000000000E+00 -0.24844451783E+03  0.24844451783E+03  0.00000000000E+00 0. -1.
    9000007    1    1    2  501    0  0.15010265830E+03  0.39774412651E+03  0.22658591059E+03  0.62615682786E+03  0.40000000000E+03 0. -1.
   -9000007    1    1    2    0  502 -0.15010265830E+03 -0.39774412651E+03  0.17019460893E+04  0.17992642077E+04  0.40000000000E+03 0. -1.
<mgrwt>
<rscale>  2 0.58372185E+03</rscale>
<asrwt>0</asrwt>
<pdfrwt beam="1">  1       21 0.33491945E+00 0.58372185E+03</pdfrwt>
<pdfrwt beam="2">  1       21 0.38222235E-01 0.58372185E+03</pdfrwt>
<totfact> 0.10033060E+02</totfact>
</mgrwt>
</event>
<event>
 4    1  0.4863180E-002  0.4386744E+03  0.7818608E-02  0.1031154E+00
         21   -1    0    0  501  502  0.00000000000E+00  0.00000000000E+00  0.16653232486E+03  0.16653232486E+03  0.00000000000E+00 0.  1.
         21   -1    0    0  502  503 -0.00000000000E+00 -0.00000000000E+00 -0.13738514388E+04  0.13738514388E+04  0.00000000000E+00 0.  1.
    9000007    1    1    2  501    0 -0.17901576881E+03 -0.19711696662E+02 -0.29664094415E+03  0.52955740597E+03  0.40000000000E+03 0.  1.
   -9000007    1    1    2    0  503  0.17901576881E+03  0.19711696662E+02 -0.91067816982E+03  0.10108263577E+04  0.40000000000E+03 0.  1.
<mgrwt>
<rscale>  2 0.43867436E+03</rscale>
<asrwt>0</asrwt>
<pdfrwt beam="1">  1       21 0.25620359E-01 0.43867436E+03</pdfrwt>
<pdfrwt beam="2">  1       21 0.21136175E+00 0.43867436E+03</pdfrwt>
<totfact> 0.13833197E+03</totfact>
</mgrwt>
</event>
<event>
 4    1  0.4863180E-002  0.4703548E+03  0.7818608E-02  0.1021820E+00
         21   -1    0    0  503  502  0.00000000000E+00  0.00000000000E+00  0.35031495788E+03  0.35031495788E+03  0.00000000000E+00 0. -1.
         21   -1    0    0  501  503 -0.00000000000E+00 -0.00000000000E+00 -0.68583878271E+03  0.68583878271E+03  0.00000000000E+00 0. -1.
    9000007    1    1    2  501    0 -0.20238525188E+03  0.14238611553E+03 -0.31355181791E+03  0.56528606792E+03  0.40000000000E+03 0. -1.
   -9000007    1    1    2    0  502  0.20238525188E+03 -0.14238611553E+03 -0.21972006926E+02  0.47086767267E+03  0.40000000000E+03 0. -1.
<mgrwt>
<rscale>  2 0.47035476E+03</rscale>
<asrwt>0</asrwt>
<pdfrwt beam="1">  1       21 0.53894609E-01 0.47035476E+03</pdfrwt>
<pdfrwt beam="2">  1       21 0.10551366E+00 0.47035476E+03</pdfrwt>
<totfact> 0.20119386E+03</totfact>
</mgrwt>
</event>
<event>
 4    1  0.4863180E-002  0.4843495E+03  0.7818608E-02  0.1017947E+00
         21   -1    0    0  501  502  0.00000000000E+00  0.00000000000E+00  0.92588922198E+03  0.92588922198E+03  0.00000000000E+00 0.  1.
         21   -1    0    0  502  503 -0.00000000000E+00 -0.00000000000E+00 -0.26527900495E+03  0.26527900495E+03  0.00000000000E+00 0. -1.
    9000007    1    1    2  501    0 -0.26983415636E+03  0.42237371614E+02  0.45648544475E+03  0.66556249051E+03  0.40000000000E+03 0.  1.
   -9000007    1    1    2    0  503  0.26983415636E+03 -0.42237371614E+02  0.20412477228E+03  0.52560573642E+03  0.40000000000E+03 0. -1.
<mgrwt>
<rscale>  2 0.48434953E+03</rscale>
<asrwt>0</asrwt>
<pdfrwt beam="1">  1       21 0.14244449E+00 0.48434953E+03</pdfrwt>
<pdfrwt beam="2">  1       21 0.40812155E-01 0.48434953E+03</pdfrwt>
<totfact> 0.16687749E+03</totfact>
</mgrwt>
</event>
<event>
 4    1  0.4863180E-002  0.4133635E+03  0.7818608E-02  0.1039248E+00
         21   -1    0    0  503  502  0.00000000000E+00  0.00000000000E+00  0.11303697133E+03  0.11303697133E+03  0.00000000000E+00 0.  1.
         21   -1    0    0  501  503 -0.00000000000E+00 -0.00000000000E+00 -0.15166503193E+04  0.15166503193E+04  0.00000000000E+00 0.  1.
    9000007    1    1    2  501    0 -0.15314763736E+02  0.10312526416E+03 -0.74871723182E+03  0.85524666344E+03  0.40000000000E+03 0.  1.
   -9000007    1    1    2    0  502  0.15314763736E+02 -0.10312526416E+03 -0.65489611613E+03  0.77444062717E+03  0.40000000000E+03 0.  1.
<mgrwt>
<rscale>  2 0.41336347E+03</rscale>
<asrwt>0</asrwt>
<pdfrwt beam="1">  1       21 0.17390304E-01 0.41336347E+03</pdfrwt>
<pdfrwt beam="2">  1       21 0.23333081E+00 0.41336347E+03</pdfrwt>
<totfact> 0.21285731E+03</totfact>
</mgrwt>
</event>
<event>
 4    1  0.4863180E-002  0.4343808E+03  0.7818608E-02  0.1032485E+00
         21   -1    0    0  503  502  0.00000000000E+00  0.00000000000E+00  0.84924534001E+03  0.84924534001E+03  0.00000000000E+00 0.  1.
         21   -1    0    0  501  503 -0.00000000000E+00 -0.00000000000E+00 -0.35031234595E+03  0.35031234595E+03  0.00000000000E+00 0.  1.
    9000007    1    1    2  501    0  0.86278260949E+02 -0.14574877711E+03 -0.11326910716E+03  0.44890593110E+03  0.40000000000E+03 0.  1.
   -9000007    1    1    2    0  502 -0.86278260949E+02  0.14574877711E+03  0.61220210121E+03  0.75065175486E+03  0.40000000000E+03 0.  1.
<mgrwt>
<rscale>  2 0.43438076E+03</rscale>
<asrwt>0</asrwt>
<pdfrwt beam="1">  1       21 0.13065313E+00 0.43438076E+03</pdfrwt>
<pdfrwt beam="2">  1       21 0.53894207E-01 0.43438076E+03</pdfrwt>
<totfact> 0.11894667E+03</totfact>
</mgrwt>
</event>
<event>
 4    1  0.4863180E-002  0.4090260E+03  0.7818608E-02  0.1040698E+00
         21   -1    0    0  503  502  0.00000000000E+00  0.00000000000E+00  0.28985232868E+03  0.28985232868E+03  0.00000000000E+00 0.  1.
         21   -1    0    0  501  503 -0.00000000000E+00 -0.00000000000E+00 -0.11685644533E+04  0.11685644533E+04  0.00000000000E+00 0.  1.
    9000007    1    1    2  501    0 -0.68509256913E+01 -0.85178442649E+02 -0.95810057378E+03  0.10417576550E+04  0.40000000000E+03 0.  1.
   -9000007    1    1    2    0  502  0.68509256913E+01  0.85178442649E+02  0.79388449112E+02  0.41665912702E+03  0.40000000000E+03 0.  1.
<mgrwt>
<rscale>  2 0.40902604E+03</rscale>
<asrwt>0</asrwt>
<pdfrwt beam="1">  1       21 0.44592666E-01 0.40902604E+03</pdfrwt>
<pdfrwt beam="2">  1       21 0.17977915E+00 0.40902604E+03</pdfrwt>
<totfact> 0.74984689E+02</totfact>
</mgrwt>
</event>
<event>
 4    1  0.4863180E-002  0.5429411E+03  0.7818608E-02  0.1003141E+00
         21   -1    0    0  501  502  0.00000000000E+00  0.00000000000E+00  0.18745947962E+04  0.18745947962E+04  0.00000000000E+00 0. -1.
         21   -1    0    0  502  503 -0.00000000000E+00 -0.00000000000E+00 -0.20960638724E+03  0.20960638724E+03  0.00000000000E+00 0.  1.
    9000007    1    1    2  501    0  0.30720860004E+03 -0.20101732104E+03  0.13533062692E+04  0.14581573802E+04  0.40000000000E+03 0. -1.
   -9000007    1    1    2    0  503 -0.30720860004E+03  0.20101732104E+03  0.31168213979E+03  0.62604380323E+03  0.40000000000E+03 0.  1.
<mgrwt>
<rscale>  2 0.54294115E+03</rscale>
<asrwt>0</asrwt>
<pdfrwt beam="1">  1       21 0.28839919E+00 0.54294115E+03</pdfrwt>
<pdfrwt beam="2">  1       21 0.32247138E-01 0.54294115E+03</pdfrwt>
<totfact> 0.27774933E+02</totfact>
</mgrwt>
</event>
<event>
 4    1  0.4863180E-002  0.4192646E+03  0.7818608E-02  0.1037306E+00
         21   -1    0    0  503  502  0.00000000000E+00  0.00000000000E+00  0.23764512016E+03  0.23764512016E+03  0.00000000000E+00 0.  1.
         21   -1    0    0  501  503 -0.00000000000E+00 -0.00000000000E+00 -0.87618594734E+03  0.87618594734E+03  0.00000000000E+00 0.  1.
    9000007    1    1    2  501    0 -0.10320196241E+03  0.71639229781E+02 -0.53908527811E+03  0.68293173990E+03  0.40000000000E+03 0.  1.
   -9000007    1    1    2    0  502  0.10320196241E+03 -0.71639229781E+02 -0.99455549065E+02  0.43089932760E+03  0.40000000000E+03 0.  1.
<mgrwt>
<rscale>  2 0.41926462E+03</rscale>
<asrwt>0</asrwt>
<pdfrwt beam="1">  1       21 0.36560788E-01 0.41926462E+03</pdfrwt>
<pdfrwt beam="2">  1       21 0.13479784E+00 0.41926462E+03</pdfrwt>
<totfact> 0.24822655E+03</totfact>
</mgrwt>
</event>
<event>
 4    1  0.4863180E-002  0.4727601E+03  0.7818608E-02  0.1021144E+00
         21   -1    0    0  503  502  0.00000000000E+00  0.00000000000E+00  0.10263287945E+04  0.10263287945E+04  0.00000000000E+00 0. -1.
         21   -1    0    0  501  503 -0.00000000000E+00 -0.00000000000E+00 -0.70143010521E+03  0.70143010521E+03  0.00000000000E+00 0. -1.
    9000007    1    1    2  501    0 -0.57513819722E+02  0.24534521973E+03 -0.55490169762E+03  0.72898423188E+03  0.40000000000E+03 0. -1.
   -9000007    1    1    2    0  502  0.57513819722E+02 -0.24534521973E+03  0.87980038689E+03  0.99877466782E+03  0.40000000000E+03 0. -1.
<mgrwt>
<rscale>  2 0.47276010E+03</rscale>
<asrwt>0</asrwt>
<pdfrwt beam="1">  1       21 0.15789674E+00 0.47276010E+03</pdfrwt>
<pdfrwt beam="2">  1       21 0.10791232E+00 0.47276010E+03</pdfrwt>
<totfact> 0.14262854E+02</totfact>
</mgrwt>
</event>
<event>
 4    1  0.4863180E-002  0.4777922E+03  0.7818608E-02  0.1019744E+00
         21   -1    0    0  501  502  0.00000000000E+00  0.00000000000E+00  0.44051805402E+03  0.44051805402E+03  0.00000000000E+00 0.  1.
         21   -1    0    0  502  503 -0.00000000000E+00 -0.00000000000E+00 -0.57926990351E+03  0.57926990351E+03  0.00000000000E+00 0.  1.
    9000007    1    1    2  501    0  0.10915955833E+03 -0.23742283677E+03 -0.23490744665E+03  0.53241611648E+03  0.40000000000E+03 0.  1.
   -9000007    1    1    2    0  503 -0.10915955833E+03  0.23742283677E+03  0.96155597157E+02  0.48737184106E+03  0.40000000000E+03 0.  1.
<mgrwt>
<rscale>  2 0.47779223E+03</rscale>
<asrwt>0</asrwt>
<pdfrwt beam="1">  1       21 0.67772008E-01 0.47779223E+03</pdfrwt>
<pdfrwt beam="2">  1       21 0.89118447E-01 0.47779223E+03</pdfrwt>
<totfact> 0.18236655E+03</totfact>
</mgrwt>
</event>
<event>
 4    1  0.4863180E-002  0.4136897E+03  0.7818608E-02  0.1039140E+00
         21   -1    0    0  503  502  0.00000000000E+00  0.00000000000E+00  0.63406159844E+03  0.63406159844E+03  0.00000000000E+00 0.  1.
         21   -1    0    0  501  503 -0.00000000000E+00 -0.00000000000E+00 -0.60722207325E+03  0.60722207325E+03  0.00000000000E+00 0.  1.
    9000007    1    1    2  501    0  0.64937863164E+02  0.83200111603E+02 -0.44915677592E+03  0.61063982346E+03  0.40000000000E+03 0.  1.
   -9000007    1    1    2    0  502 -0.64937863164E+02 -0.83200111603E+02  0.47599630110E+03  0.63064384823E+03  0.40000000000E+03 0.  1.
<mgrwt>
<rscale>  2 0.41368972E+03</rscale>
<asrwt>0</asrwt>
<pdfrwt beam="1">  1       21 0.97547939E-01 0.41368972E+03</pdfrwt>
<pdfrwt beam="2">  1       21 0.93418780E-01 0.41368972E+03</pdfrwt>
<totfact> 0.71919691E+02</totfact>
</mgrwt>
</event>
<event>
 4    1  0.4863180E-002  0.4889087E+03  0.7818608E-02  0.1016715E+00
         21   -1    0    0  501  502  0.00000000000E+00  0.00000000000E+00  0.15508518740E+03  0.15508518740E+03  0.00000000000E+00 0.  1.
         21   -1    0    0  502  503 -0.00000000000E+00 -0.00000000000E+00 -0.15830405019E+04  0.15830405019E+04  0.00000000000E+00 0.  1.
    9000007    1    1    2  501    0  0.25082716513E+03 -0.12695457874E+03 -0.57284750512E+03  0.75311751802E+03  0.40000000000E+03 0.  1.
   -9000007    1    1    2    0  503 -0.25082716513E+03  0.12695457874E+03 -0.85510780940E+03  0.98500817130E+03  0.40000000000E+03 0.  1.
<mgrwt>
<rscale>  2 0.48890872E+03</rscale>
<asrwt>0</asrwt>
<pdfrwt beam="1">  1       21 0.23859260E-01 0.48890872E+03</pdfrwt>
<pdfrwt beam="2">  1       21 0.24354469E+00 0.48890872E+03</pdfrwt>
<totfact> 0.97085032E+02</totfact>
</mgrwt>
</event>
<event>
 4    1  0.4863180E-002  0.4039982E+03  0.7818608E-02  0.1042404E+00
         21   -1    0    0  501  502  0.00000000000E+00  0.00000000000E+00  0.84101844419E+03  0.84101844419E+03  0.00000000000E+00 0. -1.
         21   -1    0    0  502  503 -0.00000000000E+00 -0.00000000000E+00 -0.30206020483E+03  0.30206020483E+03  0.00000000000E+00 0. -1.
    9000007    1    1    2  501    0  0.11116895368E+02  0.55596674188E+02  0.61121928384E+03  0.73266881228E+03  0.40000000000E+03 0. -1.
   -9000007    1    1    2    0  503 -0.11116895368E+02 -0.55596674188E+02 -0.72261044479E+02  0.41040983674E+03  0.40000000000E+03 0. -1.
<mgrwt>
<rscale>  2 0.40399824E+03</rscale>
<asrwt>0</asrwt>
<pdfrwt beam="1">  1       21 0.12938745E+00 0.40399824E+03</pdfrwt>
<pdfrwt beam="2">  1       21 0.46470801E-01 0.40399824E+03</pdfrwt>
<totfact> 0.16933761E+03</totfact>
</mgrwt>
</event>
<event>
 4    1  0.4863180E-002  0.4366488E+03  0.7818608E-02  0.1031780E+00
         21   -1    0    0  501  502  0.00000000000E+00  0.00000000000E+00  0.27842015108E+03  0.27842015108E+03  0.00000000000E+00 0.  1.
         21   -1    0    0  502  503 -0.00000000000E+00 -0.00000000000E+00 -0.75458406080E+03  0.75458406080E+03  0.00000000000E+00 0. -1.
    9000007    1    1    2  501    0  0.13242318599E+03 -0.11457011059E+03 -0.39515272935E+03  0.58890397344E+03  0.40000000000E+03 0. -1.
   -9000007    1    1    2    0  503 -0.13242318599E+03  0.11457011059E+03 -0.81011180372E+02  0.44410023843E+03  0.40000000000E+03 0. -1.
<mgrwt>
<rscale>  2 0.43664884E+03</rscale>
<asrwt>0</asrwt>
<pdfrwt beam="1">  1       21 0.42833869E-01 0.43664884E+03</pdfrwt>
<pdfrwt beam="2">  1       21 0.11608986E+00 0.43664884E+03</pdfrwt>
<totfact> 0.26122481E+03</totfact>
</mgrwt>
</event>
<event>
 4    1  0.4863180E-002  0.4182943E+03  0.7818608E-02  0.1037623E+00
         21   -1    0    0  503  502  0.00000000000E+00  0.00000000000E+00  0.54557351919E+03  0.54557351919E+03  0.00000000000E+00 0.  1.
         21   -1    0    0  501  503 -0.00000000000E+00 -0.00000000000E+00 -0.62217545479E+03  0.62217545479E+03  0.00000000000E+00 0.  1.
    9000007    1    1    2  501    0 -0.35383528678E+02 -0.11712447298E+03 -0.44472822338E+03  0.61053528067E+03  0.40000000000E+03 0.  1.
   -9000007    1    1    2    0  502  0.35383528678E+02  0.11712447298E+03  0.36812628777E+03  0.55721369332E+03  0.40000000000E+03 0.  1.
<mgrwt>
<rscale>  2 0.41829432E+03</rscale>
<asrwt>0</asrwt>
<pdfrwt beam="1">  1       21 0.83934388E-01 0.41829432E+03</pdfrwt>
<pdfrwt beam="2">  1       21 0.95719300E-01 0.41829432E+03</pdfrwt>
<totfact> 0.96650343E+02</totfact>
</mgrwt>
</event>
<event>
 4    1  0.4863180E-002  0.7440146E+03  0.7818608E-02  0.9644788E-01
         21   -1    0    0  503  502  0.00000000000E+00  0.00000000000E+00  0.37061795893E+04  0.37061795893E+04  0.00000000000E+00 0. -1.
         21   -1    0    0  501  503 -0.00000000000E+00 -0.00000000000E+00 -0.17950997150E+03  0.17950997150E+03  0.00000000000E+00 0. -1.
    9000007    1    1    2  501    0 -0.62098071739E+03 -0.89110155978E+02  0.96711670955E+03  0.12201935917E+04  0.40000000000E+03 0. -1.
   -9000007    1    1    2    0  502  0.62098071739E+03  0.89110155978E+02  0.25595529082E+04  0.26654959691E+04  0.40000000000E+03 0. -1.
<mgrwt>
<rscale>  2 0.74401456E+03</rscale>
<asrwt>0</asrwt>
<pdfrwt beam="1">  1       21 0.57018142E+00 0.74401456E+03</pdfrwt>
<pdfrwt beam="2">  1       21 0.27616921E-01 0.74401456E+03</pdfrwt>
<totfact> 0.43733490E+00</totfact>
</mgrwt>
</event>
<event>
 4    1  0.4863180E-002  0.4082621E+03  0.7818608E-02  0.1040956E+00
         21   -1    0    0  503  502  0.00000000000E+00  0.00000000000E+00  0.32532671090E+03  0.32532671090E+03  0.00000000000E+00 0. -1.
         21   -1    0    0  501  503 -0.00000000000E+00 -0.00000000000E+00 -0.13216652687E+04  0.13216652687E+04  0.00000000000E+00 0. -1.
    9000007    1    1    2  501    0  0.48115772813E+01 -0.81576911983E+02 -0.11425792520E+04  0.12133281876E+04  0.40000000000E+03 0. -1.
   -9000007    1    1    2    0  502 -0.48115772813E+01  0.81576911983E+02  0.14624069417E+03  0.43366379198E+03  0.40000000000E+03 0. -1.
<mgrwt>
<rscale>  2 0.40826210E+03</rscale>
<asrwt>0</asrwt>
<pdfrwt beam="1">  1       21 0.50050264E-01 0.40826210E+03</pdfrwt>
<pdfrwt beam="2">  1       21 0.20333311E+00 0.40826210E+03</pdfrwt>
<totfact> 0.40694930E+02</totfact>
</mgrwt>
</event>
<event>
 4    1  0.4863180E-002  0.4100882E+03  0.7818608E-02  0.1040341E+00
         21   -1    0    0  503  502  0.00000000000E+00  0.00000000000E+00  0.89855657133E+03  0.89855657133E+03  0.00000000000E+00 0.  1.
         21   -1    0    0  501  503 -0.00000000000E+00 -0.00000000000E+00 -0.27355418646E+03  0.27355418646E+03  0.00000000000E+00 0.  1.
    9000007    1    1    2  501    0 -0.89922660579E+02  0.92876339450E+01 -0.16853182711E+02  0.41043437331E+03  0.40000000000E+03 0.  1.
   -9000007    1    1    2    0  502  0.89922660579E+02 -0.92876339450E+01  0.64185556758E+03  0.76167638448E+03  0.40000000000E+03 0.  1.
<mgrwt>
<rscale>  2 0.41008822E+03</rscale>
<asrwt>0</asrwt>
<pdfrwt beam="1">  1       21 0.13823947E+00 0.41008822E+03</pdfrwt>
<pdfrwt beam="2">  1       21 0.42085260E-01 0.41008822E+03</pdfrwt>
<totfact> 0.17474925E+03</totfact>
</mgrwt>
</event>
<event>
 4    1  0.4863180E-002  0.5884809E+03  0.7818608E-02  0.9929597E-01
         21   -1    0    0  503  502  0.00000000000E+00  0.00000000000E+00  0.15393768906E+04  0.15393768906E+04  0.00000000000E+00 0.  1.
         21   -1    0    0  501  503 -0.00000000000E+00 -0.00000000000E+00 -0.25237261805E+03  0.25237261805E+03  0.00000000000E+00 0.  1.
    9000007    1    1    2  501    0  0.16238148167E+02  0.43133063100E+03  0.34828475926E+03  0.68382166113E+03  0.40000000000E+03 0.  1.
   -9000007    1    1    2    0  502 -0.16238148167E+02 -0.43133063100E+03  0.93871951333E+03  0.11079278476E+04  0.40000000000E+03 0.  1.
<mgrwt>
<rscale>  2 0.58848092E+03</rscale>
<asrwt>0</asrwt>
<pdfrwt beam="1">  1       21 0.23682721E+00 0.58848092E+03</pdfrwt>
<pdfrwt beam="2">  1       21 0.38826557E-01 0.58848092E+03</pdfrwt>
<totfact> 0.38755296E+02</totfact>
</mgrwt>
</event>
<event>
 4    1  0.4863180E-002  0.4799638E+03  0.7818608E-02  0.1019145E+00
         21   -1    0    0  503  502  0.00000000000E+00  0.00000000000E+00  0.52679209085E+03  0.52679209085E+03  0.00000000000E+00 0.  1.
         21   -1    0    0  501  503 -0.00000000000E+00 -0.00000000000E+00 -0.43750578501E+03  0.43750578501E+03  0.00000000000E+00 0.  1.
    9000007    1    1    2  501    0 -0.24035568260E+02 -0.26417329632E+03  0.55145238138E+02  0.48312134741E+03  0.40000000000E+03 0.  1.
   -9000007    1    1    2    0  502  0.24035568260E+02  0.26417329632E+03  0.34141067704E+02  0.48117652846E+03  0.40000000000E+03 0.  1.
<mgrwt>
<rscale>  2 0.47996379E+03</rscale>
<asrwt>0</asrwt>
<pdfrwt beam="1">  1       21 0.81044937E-01 0.47996379E+03</pdfrwt>
<pdfrwt beam="2">  1       21 0.67308583E-01 0.47996379E+03</pdfrwt>
<totfact> 0.23117238E+03</totfact>
</mgrwt>
</event>
<event>
 4    1  0.4863180E-002  0.4906226E+03  0.7818608E-02  0.1016256E+00
         21   -1    0    0  503  502  0.00000000000E+00  0.00000000000E+00  0.58093669622E+03  0.58093669622E+03  0.00000000000E+00 0.  1.
         21   -1    0    0  501  503 -0.00000000000E+00 -0.00000000000E+00 -0.56502722755E+03  0.56502722755E+03  0.00000000000E+00 0.  1.
    9000007    1    1    2  501    0 -0.19953984789E+03 -0.20222357654E+03 -0.28793612325E+03  0.56887409580E+03  0.40000000000E+03 0.  1.
   -9000007    1    1    2    0  502  0.19953984789E+03  0.20222357654E+03  0.30384559192E+03  0.57708982796E+03  0.40000000000E+03 0.  1.
<mgrwt>
<rscale>  2 0.49062259E+03</rscale>
<asrwt>0</asrwt>
<pdfrwt beam="1">  1       21 0.89374877E-01 0.49062259E+03</pdfrwt>
<pdfrwt beam="2">  1       21 0.86927266E-01 0.49062259E+03</pdfrwt>
<totfact> 0.10177781E+03</totfact>
</mgrwt>
</event>
<event>
 4    1  0.4863180E-002  0.4122805E+03  0.7818608E-02  0.1039608E+00
         21   -1    0    0  503  502  0.00000000000E+00  0.00000000000E+00  0.25343286988E+03  0.25343286988E+03  0.00000000000E+00 0. -1.
         21   -1    0    0  501  503 -0.00000000000E+00 -0.00000000000E+00 -0.14700893692E+04  0.14700893692E+04  0.00000000000E+00 0. -1.
    9000007    1    1    2  501    0 -0.73348459217E+02 -0.67787847906E+02 -0.12438005275E+04  0.13103491675E+04  0.40000000000E+03 0. -1.
   -9000007    1    1    2    0  502  0.73348459217E+02  0.67787847906E+02  0.27144028120E+02  0.41317307155E+03  0.40000000000E+03 0. -1.
<mgrwt>
<rscale>  2 0.41228047E+03</rscale>
<asrwt>0</asrwt>
<pdfrwt beam="1">  1       21 0.38989672E-01 0.41228047E+03</pdfrwt>
<pdfrwt beam="2">  1       21 0.22616759E+00 0.41228047E+03</pdfrwt>
<totfact> 0.48727560E+02</totfact>
</mgrwt>
</event>
<event>
 4    1  0.4863180E-002  0.4156867E+03  0.7818608E-02  0.1038479E+00
         21   -1    0    0  501  502  0.00000000000E+00  0.00000000000E+00  0.14115209547E+04  0.14115209547E+04  0.00000000000E+00 0. -1.
         21   -1    0    0  502  503 -0.00000000000E+00 -0.00000000000E+00 -0.12439212109E+03  0.12439212109E+03  0.00000000000E+00 0. -1.
    9000007    1    1    2  501    0 -0.93170154442E+02  0.64146197721E+02  0.54681695985E+03  0.68688004771E+03  0.40000000000E+03 0.  1.
   -9000007    1    1    2    0  503  0.93170154442E+02 -0.64146197721E+02  0.74031187378E+03  0.84903302811E+03  0.40000000000E+03 0.  1.
<mgrwt>
<rscale>  2 0.41568668E+03</rscale>
<asrwt>0</asrwt>
<pdfrwt beam="1">  1       21 0.21715706E+00 0.41568668E+03</pdfrwt>
<pdfrwt beam="2">  1       21 0.19137250E-01 0.41568668E+03</pdfrwt>
<totfact> 0.22464238E+03</totfact>
</mgrwt>
</event>
<event>
 4    1  0.4863180E-002  0.4165392E+03  0.7818608E-02  0.1038199E+00
         21   -1    0    0  501  502  0.00000000000E+00  0.00000000000E+00  0.47056248994E+03  0.47056248994E+03  0.00000000000E+00 0.  1.
         21   -1    0    0  502  503 -0.00000000000E+00 -0.00000000000E+00 -0.49604592701E+03  0.49604592701E+03  0.00000000000E+00 0.  1.
    9000007    1    1    2  501    0 -0.54961803537E+02  0.10239205857E+03  0.23212017371E+03  0.47684872711E+03  0.40000000000E+03 0.  1.
   -9000007    1    1    2    0  503  0.54961803537E+02 -0.10239205857E+03 -0.25760361078E+03  0.48975968984E+03  0.40000000000E+03 0.  1.
<mgrwt>
<rscale>  2 0.41653923E+03</rscale>
<asrwt>0</asrwt>
<pdfrwt beam="1">  1       21 0.72394229E-01 0.41653923E+03</pdfrwt>
<pdfrwt beam="2">  1       21 0.76314758E-01 0.41653923E+03</pdfrwt>
<totfact> 0.23069644E+03</totfact>
</mgrwt>
</event>
<event>
 4    1  0.4863180E-002  0.4117821E+03  0.7818608E-02  0.1039775E+00
         21   -1    0    0  503  502  0.00000000000E+00  0.00000000000E+00  0.13561353464E+03  0.13561353464E+03  0.00000000000E+00 0.  1.
         21   -1    0    0  501  503 -0.00000000000E+00 -0.00000000000E+00 -0.14011415231E+04  0.14011415231E+04  0.00000000000E+00 0. -1.
    9000007    1    1    2  501    0  0.97539815102E+02  0.71041720545E+01 -0.88483392204E+03  0.97595878723E+03  0.40000000000E+03 0. -1.
   -9000007    1    1    2    0  502 -0.97539815102E+02 -0.71041720545E+01 -0.38069406637E+03  0.56079627046E+03  0.40000000000E+03 0.  1.
<mgrwt>
<rscale>  2 0.41178208E+03</rscale>
<asrwt>0</asrwt>
<pdfrwt beam="1">  1       21 0.20863619E-01 0.41178208E+03</pdfrwt>
<pdfrwt beam="2">  1       21 0.21556025E+00 0.41178208E+03</pdfrwt>
<totfact> 0.19555225E+03</totfact>
</mgrwt>
</event>
<event>
 4    1  0.4863180E-002  0.4362951E+03  0.7818608E-02  0.1031890E+00
         21   -1    0    0  503  502  0.00000000000E+00  0.00000000000E+00  0.16459825266E+04  0.16459825266E+04  0.00000000000E+00 0. -1.
         21   -1    0    0  501  503 -0.00000000000E+00 -0.00000000000E+00 -0.12957045543E+03  0.12957045543E+03  0.00000000000E+00 0.  1.
    9000007    1    1    2  501    0 -0.75249290423E+02  0.15713361741E+03  0.10492238245E+04  0.11363204052E+04  0.40000000000E+03 0. -1.
   -9000007    1    1    2    0  502  0.75249290423E+02 -0.15713361741E+03  0.46718824670E+03  0.63923257683E+03  0.40000000000E+03 0.  1.
<mgrwt>
<rscale>  2 0.43629512E+03</rscale>
<asrwt>0</asrwt>
<pdfrwt beam="1">  1       21 0.25322807E+00 0.43629512E+03</pdfrwt>
<pdfrwt beam="2">  1       21 0.19933917E-01 0.43629512E+03</pdfrwt>
<totfact> 0.12258507E+03</totfact>
</mgrwt>
</event>
<event>
 4    1  0.4863180E-002  0.5590954E+03  0.7818608E-02  0.9994104E-01
         21   -1    0    0  503  502  0.00000000000E+00  0.00000000000E+00  0.37054246215E+03  0.37054246215E+03  0.00000000000E+00 0. -1.
         21   -1    0    0  501  503 -0.00000000000E+00 -0.00000000000E+00 -0.86008844257E+03  0.86008844257E+03  0.00000000000E+00 0. -1.
    9000007    1    1    2  501    0  0.20072286269E+03 -0.33510892866E+03 -0.15956394232E+03  0.58141922342E+03  0.40000000000E+03 0. -1.
   -9000007    1    1    2    0  502 -0.20072286269E+03  0.33510892866E+03 -0.32998203809E+03  0.64921168130E+03  0.40000000000E+03 0. -1.
<mgrwt>
<rscale>  2 0.55909540E+03</rscale>
<asrwt>0</asrwt>
<pdfrwt beam="1">  1       21 0.57006533E-01 0.55909540E+03</pdfrwt>
<pdfrwt beam="2">  1       21 0.13232130E+00 0.55909540E+03</pdfrwt>
<totfact> 0.97213980E+02</totfact>
</mgrwt>
</event>
<event>
 4    1  0.4863180E-002  0.4383724E+03  0.7818608E-02  0.1031247E+00
         21   -1    0    0  501  502  0.00000000000E+00  0.00000000000E+00  0.24219481231E+03  0.24219481231E+03  0.00000000000E+00 0.  1.
         21   -1    0    0  502  503 -0.00000000000E+00 -0.00000000000E+00 -0.12796842063E+04  0.12796842063E+04  0.00000000000E+00 0.  1.
    9000007    1    1    2  501    0  0.14085779628E+02 -0.17880699205E+03 -0.49693910912E+02  0.44118004757E+03  0.40000000000E+03 0.  1.
   -9000007    1    1    2    0  503 -0.14085779628E+02  0.17880699205E+03 -0.98779548309E+03  0.10806989710E+04  0.40000000000E+03 0.  1.
<mgrwt>
<rscale>  2 0.43837239E+03</rscale>
<asrwt>0</asrwt>
<pdfrwt beam="1">  1       21 0.37260740E-01 0.43837239E+03</pdfrwt>
<pdfrwt beam="2">  1       21 0.19687449E+00 0.43837239E+03</pdfrwt>
<totfact> 0.81726287E+02</totfact>
</mgrwt>
</event>
<event>
 4    1  0.4863180E-002  0.4117441E+03  0.7818608E-02  0.1039787E+00
         21   -1    0    0  503  502  0.00000000000E+00  0.00000000000E+00  0.23220538063E+03  0.23220538063E+03  0.00000000000E+00 0.  1.
         21   -1    0    0  501  503 -0.00000000000E+00 -0.00000000000E+00 -0.12562790662E+04  0.12562790662E+04  0.00000000000E+00 0.  1.
    9000007    1    1    2  501    0 -0.21399609977E+02  0.95264270189E+02 -0.99369385972E+03  0.10756210817E+04  0.40000000000E+03 0.  1.
   -9000007    1    1    2    0  502  0.21399609977E+02 -0.95264270189E+02 -0.30379825856E+02  0.41286336517E+03  0.40000000000E+03 0.  1.
<mgrwt>
<rscale>  2 0.41174413E+03</rscale>
<asrwt>0</asrwt>
<pdfrwt beam="1">  1       21 0.35723905E-01 0.41174413E+03</pdfrwt>
<pdfrwt beam="2">  1       21 0.19327370E+00 0.41174413E+03</pdfrwt>
<totfact> 0.95374340E+02</totfact>
</mgrwt>
</event>
<event>
 4    1  0.4863180E-002  0.4364196E+03  0.7818608E-02  0.1031851E+00
         21   -1    0    0  503  502  0.00000000000E+00  0.00000000000E+00  0.58067749229E+03  0.58067749229E+03  0.00000000000E+00 0. -1.
         21   -1    0    0  501  503 -0.00000000000E+00 -0.00000000000E+00 -0.65453123572E+03  0.65453123572E+03  0.00000000000E+00 0.  1.
    9000007    1    1    2  501    0  0.17356363339E+03 -0.18377016954E+02 -0.47314903367E+03  0.64368630376E+03  0.40000000000E+03 0.  1.
   -9000007    1    1    2    0  502 -0.17356363339E+03  0.18377016954E+02  0.39929529024E+03  0.59152242426E+03  0.40000000000E+03 0. -1.
<mgrwt>
<rscale>  2 0.43641958E+03</rscale>
<asrwt>0</asrwt>
<pdfrwt beam="1">  1       21 0.89334999E-01 0.43641958E+03</pdfrwt>
<pdfrwt beam="2">  1       21 0.10069711E+00 0.43641958E+03</pdfrwt>
<totfact> 0.73289696E+02</totfact>
</mgrwt>
</event>
<event>
 4    1  0.4863180E-002  0.4804079E+03  0.7818608E-02  0.1019023E+00
         21   -1    0    0  501  502  0.00000000000E+00  0.00000000000E+00  0.33560125604E+03  0.33560125604E+03  0.00000000000E+00 0. -1.
         21   -1    0    0  502  503 -0.00000000000E+00 -0.00000000000E+00 -0.70848475220E+03  0.70848475220E+03  0.00000000000E+00 0.  1.
    9000007    1    1    2  501    0  0.25489951804E+03 -0.76275826294E+02 -0.97018310797E+02  0.49010643599E+03  0.40000000000E+03 0. -1.
   -9000007    1    1    2    0  503 -0.25489951804E+03  0.76275826294E+02 -0.27586518536E+03  0.55397957225E+03  0.40000000000E+03 0.  1.
<mgrwt>
<rscale>  2 0.48040792E+03</rscale>
<asrwt>0</asrwt>
<pdfrwt beam="1">  1       21 0.51630963E-01 0.48040792E+03</pdfrwt>
<pdfrwt beam="2">  1       21 0.10899765E+00 0.48040792E+03</pdfrwt>
<totfact> 0.20283715E+03</totfact>
</mgrwt>
</event>
<event>
 4    1  0.4863180E-002  0.4862698E+03  0.7818608E-02  0.1017426E+00
         21   -1    0    0  503  502  0.00000000000E+00  0.00000000000E+00  0.10722632143E+04  0.10722632143E+04  0.00000000000E+00 0. -1.
         21   -1    0    0  501  503 -0.00000000000E+00 -0.00000000000E+00 -0.29777136712E+03  0.29777136712E+03  0.00000000000E+00 0. -1.
    9000007    1    1    2  501    0 -0.27639068663E+03  0.81579098328E+01  0.38342199037E+02  0.48777913791E+03  0.40000000000E+03 0. -1.
   -9000007    1    1    2    0  502  0.27639068663E+03 -0.81579098328E+01  0.73614964809E+03  0.88225544347E+03  0.40000000000E+03 0. -1.
<mgrwt>
<rscale>  2 0.48626985E+03</rscale>
<asrwt>0</asrwt>
<pdfrwt beam="1">  1       21 0.16496357E+00 0.48626985E+03</pdfrwt>
<pdfrwt beam="2">  1       21 0.45810980E-01 0.48626985E+03</pdfrwt>
<totfact> 0.87534659E+02</totfact>
</mgrwt>
</event>
<event>
 4    1  0.4863180E-002  0.4451685E+03  0.7818608E-02  0.1029173E+00
         21   -1    0    0  501  502  0.00000000000E+00  0.00000000000E+00  0.25516542325E+03  0.25516542325E+03  0.00000000000E+00 0.  1.
         21   -1    0    0  502  503 -0.00000000000E+00 -0.00000000000E+00 -0.79244798305E+03  0.79244798305E+03  0.00000000000E+00 0. -1.
    9000007    1    1    2  501    0  0.57301433932E+02 -0.18679276060E+03 -0.19469005964E+03  0.48587982986E+03  0.40000000000E+03 0.  1.
   -9000007    1    1    2    0  503 -0.57301433932E+02  0.18679276060E+03 -0.34259250016E+03  0.56173357645E+03  0.40000000000E+03 0. -1.
<mgrwt>
<rscale>  2 0.44516850E+03</rscale>
<asrwt>0</asrwt>
<pdfrwt beam="1">  1       21 0.39256219E-01 0.44516850E+03</pdfrwt>
<pdfrwt beam="2">  1       21 0.12191507E+00 0.44516850E+03</pdfrwt>
<totfact> 0.27547620E+03</totfact>
</mgrwt>
</event>
<event>
 4    1  0.4863180E-002  0.4157038E+03  0.7818608E-02  0.1038474E+00
         21   -1    0    0  503  502  0.00000000000E+00  0.00000000000E+00  0.31879338730E+03  0.31879338730E+03  0.00000000000E+00 0.  1.
         21   -1    0    0  501  503 -0.00000000000E+00 -0.00000000000E+00 -0.55089190007E+03  0.55089190007E+03  0.00000000000E+00 0.  1.
    9000007    1    1    2  501    0  0.11213422819E+03 -0.15347377072E+02 -0.17106410699E+03  0.44952481112E+03  0.40000000000E+03 0.  1.
   -9000007    1    1    2    0  502 -0.11213422819E+03  0.15347377072E+02 -0.61034405780E+02  0.42016047625E+03  0.40000000000E+03 0.  1.
<mgrwt>
<rscale>  2 0.41570377E+03</rscale>
<asrwt>0</asrwt>
<pdfrwt beam="1">  1       21 0.49045137E-01 0.41570377E+03</pdfrwt>
<pdfrwt beam="2">  1       21 0.84752600E-01 0.41570377E+03</pdfrwt>
<totfact> 0.42439227E+03</totfact>
</mgrwt>
</event>
<event>
 4    1  0.4863180E-002  0.4187000E+03  0.7818608E-02  0.1037490E+00
         21   -1    0    0  503  502  0.00000000000E+00  0.00000000000E+00  0.43730708493E+03  0.43730708493E+03  0.00000000000E+00 0.  1.
         21   -1    0    0  501  503 -0.00000000000E+00 -0.00000000000E+00 -0.69445894681E+03  0.69445894681E+03  0.00000000000E+00 0.  1.
    9000007    1    1    2  501    0 -0.81548469488E+02  0.93056538050E+02 -0.49650358265E+03  0.64948093100E+03  0.40000000000E+03 0.  1.
   -9000007    1    1    2    0  502  0.81548469488E+02 -0.93056538050E+02  0.23935172078E+03  0.48228510073E+03  0.40000000000E+03 0.  1.
<mgrwt>
<rscale>  2 0.41869998E+03</rscale>
<asrwt>0</asrwt>
<pdfrwt beam="1">  1       21 0.67278014E-01 0.41869998E+03</pdfrwt>
<pdfrwt beam="2">  1       21 0.10683984E+00 0.41869998E+03</pdfrwt>
<totfact> 0.12244473E+03</totfact>
</mgrwt>
</event>
<event>
 4    1  0.4863180E-002  0.5595941E+03  0.7818608E-02  0.9992974E-01
         21   -1    0    0  501  502  0.00000000000E+00  0.00000000000E+00  0.18208054501E+03  0.18208054501E+03  0.00000000000E+00 0.  1.
         21   -1    0    0  502  503 -0.00000000000E+00 -0.00000000000E+00 -0.17755845837E+04  0.17755845837E+04  0.00000000000E+00 0.  1.
    9000007    1    1    2  501    0 -0.24167644476E+03  0.30779539100E+03 -0.62328279408E+03  0.83763174968E+03  0.40000000000E+03 0. -1.
   -9000007    1    1    2    0  503  0.24167644476E+03 -0.30779539100E+03 -0.97022124463E+03  0.11200333791E+04  0.40000000000E+03 0. -1.
<mgrwt>
<rscale>  2 0.55959406E+03</rscale>
<asrwt>0</asrwt>
<pdfrwt beam="1">  1       21 0.28012392E-01 0.55959406E+03</pdfrwt>
<pdfrwt beam="2">  1       21 0.27316686E+00 0.55959406E+03</pdfrwt>
<totfact> 0.45189475E+02</totfact>
</mgrwt>
</event>
<event>
 4    1  0.4863180E-002  0.5552010E+03  0.7818608E-02  0.1000297E+00
         21   -1    0    0  501  502  0.00000000000E+00  0.00000000000E+00  0.13350171348E+04  0.13350171348E+04  0.00000000000E+00 0. -1.
         21   -1    0    0  502  503 -0.00000000000E+00 -0.00000000000E+00 -0.24638016317E+03  0.24638016317E+03  0.00000000000E+00 0.  1.
    9000007    1    1    2  501    0  0.64344098156E+02 -0.37961562700E+03  0.74254980024E+03  0.92716147087E+03  0.40000000000E+03 0. -1.
   -9000007    1    1    2    0  503 -0.64344098156E+02  0.37961562700E+03  0.34608717135E+03  0.65423582706E+03  0.40000000000E+03 0. -1.
<mgrwt>
<rscale>  2 0.55520103E+03</rscale>
<asrwt>0</asrwt>
<pdfrwt beam="1">  1       21 0.20538725E+00 0.55520103E+03</pdfrwt>
<pdfrwt beam="2">  1       21 0.37904641E-01 0.55520103E+03</pdfrwt>
<totfact> 0.65849867E+02</totfact>
</mgrwt>
</event>
<event>
 4    1  0.4863180E-002  0.4411013E+03  0.7818608E-02  0.1030409E+00
         21   -1    0    0  503  502  0.00000000000E+00  0.00000000000E+00  0.20098865126E+04  0.20098865126E+04  0.00000000000E+00 0. -1.
         21   -1    0    0  501  503 -0.00000000000E+00 -0.00000000000E+00 -0.21054196720E+03  0.21054196720E+03  0.00000000000E+00 0. -1.
    9000007    1    1    2  501    0 -0.16844443690E+03 -0.78719739445E+02  0.83681630082E+02  0.44896875271E+03  0.40000000000E+03 0. -1.
   -9000007    1    1    2    0  502  0.16844443690E+03  0.78719739445E+02  0.17156629153E+04  0.17714597270E+04  0.40000000000E+03 0. -1.
<mgrwt>
<rscale>  2 0.44110126E+03</rscale>
<asrwt>0</asrwt>
<pdfrwt beam="1">  1       21 0.30921330E+00 0.44110126E+03</pdfrwt>
<pdfrwt beam="2">  1       21 0.32391073E-01 0.44110126E+03</pdfrwt>
<totfact> 0.21792671E+02</totfact>
</mgrwt>
</event>
<event>
 4    1  0.4863180E-002  0.4181004E+03  0.7818608E-02  0.1037686E+00
         21   -1    0    0  501  502  0.00000000000E+00  0.00000000000E+00  0.35246476946E+04  0.35246476946E+04  0.00000000000E+00 0. -1.
         21   -1    0    0  502  503 -0.00000000000E+00 -0.00000000000E+00 -0.63971379970E+02  0.63971379970E+02  0.00000000000E+00 0. -1.
    9000007    1    1    2  501    0 -0.10226334293E+03 -0.65955689806E+02  0.25809202615E+04  0.26145663771E+04  0.40000000000E+03 0. -1.
   -9000007    1    1    2    0  503  0.10226334293E+03  0.65955689806E+02  0.87975605315E+03  0.97405269743E+03  0.40000000000E+03 0. -1.
<mgrwt>
<rscale>  2 0.41810040E+03</rscale>
<asrwt>0</asrwt>
<pdfrwt beam="1">  1       21 0.54225334E+00 0.41810040E+03</pdfrwt>
<pdfrwt beam="2">  1       21 0.98417535E-02 0.41810040E+03</pdfrwt>
<totfact> 0.59906642E+01</totfact>
</mgrwt>
</event>
<event>
 4    1  0.4863180E-002  0.4102504E+03  0.7818608E-02  0.1040287E+00
         21   -1    0    0  501  502  0.00000000000E+00  0.00000000000E+00  0.98249173401E+03  0.98249173401E+03  0.00000000000E+00 0.  1.
         21   -1    0    0  502  503 -0.00000000000E+00 -0.00000000000E+00 -0.21290812112E+03  0.21290812112E+03  0.00000000000E+00 0.  1.
    9000007    1    1    2  501    0 -0.87286280235E+02  0.26201703933E+02  0.64900333238E+03  0.76779603376E+03  0.40000000000E+03 0.  1.
   -9000007    1    1    2    0  503  0.87286280235E+02 -0.26201703933E+02  0.12058028050E+03  0.42760382137E+03  0.40000000000E+03 0.  1.
<mgrwt>
<rscale>  2 0.41025044E+03</rscale>
<asrwt>0</asrwt>
<pdfrwt beam="1">  1       21 0.15115257E+00 0.41025044E+03</pdfrwt>
<pdfrwt beam="2">  1       21 0.32755096E-01 0.41025044E+03</pdfrwt>
<totfact> 0.22914532E+03</totfact>
</mgrwt>
</event>
<event>
 4    1  0.4863180E-002  0.4487621E+03  0.7818608E-02  0.1028092E+00
         21   -1    0    0  503  502  0.00000000000E+00  0.00000000000E+00  0.17714810320E+03  0.17714810320E+03  0.00000000000E+00 0.  1.
         21   -1    0    0  501  503 -0.00000000000E+00 -0.00000000000E+00 -0.11458369934E+04  0.11458369934E+04  0.00000000000E+00 0. -1.
    9000007    1    1    2  501    0 -0.19632319282E+03  0.53334956569E+02 -0.54298998937E+03  0.70443278046E+03  0.40000000000E+03 0. -1.
   -9000007    1    1    2    0  502  0.19632319282E+03 -0.53334956569E+02 -0.42569890085E+03  0.61855231615E+03  0.40000000000E+03 0.  1.
<mgrwt>
<rscale>  2 0.44876209E+03</rscale>
<asrwt>0</asrwt>
<pdfrwt beam="1">  1       21 0.27253556E-01 0.44876209E+03</pdfrwt>
<pdfrwt beam="2">  1       21 0.17628260E+00 0.44876209E+03</pdfrwt>
<totfact> 0.21109121E+03</totfact>
</mgrwt>
</event>
<event>
 4    1  0.4863180E-002  0.4568896E+03  0.7818608E-02  0.1025687E+00
         21   -1    0    0  503  502  0.00000000000E+00  0.00000000000E+00  0.43541989837E+03  0.43541989837E+03  0.00000000000E+00 0. -1.
         21   -1    0    0  501  503 -0.00000000000E+00 -0.00000000000E+00 -0.61028291984E+03  0.61028291984E+03  0.00000000000E+00 0. -1.
    9000007    1    1    2  501    0 -0.20163874857E+03  0.89943748452E+02 -0.32954811763E+03  0.56333828615E+03  0.40000000000E+03 0. -1.
   -9000007    1    1    2    0  502  0.20163874857E+03 -0.89943748452E+02  0.15468509615E+03  0.48236453205E+03  0.40000000000E+03 0. -1.
<mgrwt>
<rscale>  2 0.45688955E+03</rscale>
<asrwt>0</asrwt>
<pdfrwt beam="1">  1       21 0.66987677E-01 0.45688955E+03</pdfrwt>
<pdfrwt beam="2">  1       21 0.93889679E-01 0.45688955E+03</pdfrwt>
<totfact> 0.16662091E+03</totfact>
</mgrwt>
</event>
<event>
 4    1  0.4863180E-002  0.4495974E+03  0.7818608E-02  0.1027842E+00
         21   -1    0    0  503  502  0.00000000000E+00  0.00000000000E+00  0.52296992823E+03  0.52296992823E+03  0.00000000000E+00 0.  1.
         21   -1    0    0  501  503 -0.00000000000E+00 -0.00000000000E+00 -0.63152170205E+03  0.63152170205E+03  0.00000000000E+00 0. -1.
    9000007    1    1    2  501    0 -0.15187417024E+03 -0.13810169445E+03 -0.41381988470E+03  0.61105215700E+03  0.40000000000E+03 0. -1.
   -9000007    1    1    2    0  502  0.15187417024E+03  0.13810169445E+03  0.30526811088E+03  0.54343947328E+03  0.40000000000E+03 0.  1.
<mgrwt>
<rscale>  2 0.44959742E+03</rscale>
<asrwt>0</asrwt>
<pdfrwt beam="1">  1       21 0.80456913E-01 0.44959742E+03</pdfrwt>
<pdfrwt beam="2">  1       21 0.97157184E-01 0.44959742E+03</pdfrwt>
<totfact> 0.10150314E+03</totfact>
</mgrwt>
</event>
<event>
 4    1  0.4863180E-002  0.4281318E+03  0.7818608E-02  0.1034452E+00
         21   -1    0    0  501  502  0.00000000000E+00  0.00000000000E+00  0.28029916718E+03  0.28029916718E+03  0.00000000000E+00 0. -1.
         21   -1    0    0  502  503 -0.00000000000E+00 -0.00000000000E+00 -0.98755992475E+03  0.98755992475E+03  0.00000000000E+00 0. -1.
    9000007    1    1    2  501    0  0.83181139620E+02  0.12797562716E+03  0.14829189678E+02  0.42838857128E+03  0.40000000000E+03 0. -1.
   -9000007    1    1    2    0  503 -0.83181139620E+02 -0.12797562716E+03 -0.72208994724E+03  0.83947052065E+03  0.40000000000E+03 0. -1.
<mgrwt>
<rscale>  2 0.42813183E+03</rscale>
<asrwt>0</asrwt>
<pdfrwt beam="1">  1       21 0.43122949E-01 0.42813183E+03</pdfrwt>
<pdfrwt beam="2">  1       21 0.15193229E+00 0.42813183E+03</pdfrwt>
<totfact> 0.12794590E+03</totfact>
</mgrwt>
</event>
<event>
 4    1  0.4863180E-002  0.4357670E+03  0.7818608E-02  0.1032054E+00
         21   -1    0    0  503  502  0.00000000000E+00  0.00000000000E+00  0.19348029586E+03  0.19348029586E+03  0.00000000000E+00 0.  1.
         21   -1    0    0  501  503 -0.00000000000E+00 -0.00000000000E+00 -0.10169177423E+04  0.10169177423E+04  0.00000000000E+00 0.  1.
    9000007    1    1    2  501    0  0.67859484537E+02  0.15902201137E+03 -0.52472930684E+03  0.68208046094E+03  0.40000000000E+03 0. -1.
   -9000007    1    1    2    0  502 -0.67859484537E+02 -0.15902201137E+03 -0.29870813962E+03  0.52831757723E+03  0.40000000000E+03 0. -1.
<mgrwt>
<rscale>  2 0.43576704E+03</rscale>
<asrwt>0</asrwt>
<pdfrwt beam="1">  1       21 0.29766200E-01 0.43576704E+03</pdfrwt>
<pdfrwt beam="2">  1       21 0.15644888E+00 0.43576704E+03</pdfrwt>
<totfact> 0.24974568E+03</totfact>
</mgrwt>
</event>
<event>
 4    1  0.4863180E-002  0.4044101E+03  0.7818608E-02  0.1042263E+00
         21   -1    0    0  501  502  0.00000000000E+00  0.00000000000E+00  0.15181606646E+03  0.15181606646E+03  0.00000000000E+00 0. -1.
         21   -1    0    0  502  503 -0.00000000000E+00 -0.00000000000E+00 -0.15914883024E+04  0.15914883024E+04  0.00000000000E+00 0. -1.
    9000007    1    1    2  501    0 -0.45479538906E+02  0.38459133005E+02 -0.22437041733E+03  0.46248197537E+03  0.40000000000E+03 0. -1.
   -9000007    1    1    2    0  503  0.45479538906E+02 -0.38459133005E+02 -0.12153018186E+04  0.12808223935E+04  0.40000000000E+03 0. -1.
<mgrwt>
<rscale>  2 0.40441006E+03</rscale>
<asrwt>0</asrwt>
<pdfrwt beam="1">  1       21 0.23356317E-01 0.40441006E+03</pdfrwt>
<pdfrwt beam="2">  1       21 0.24484437E+00 0.40441006E+03</pdfrwt>
<totfact> 0.10359729E+03</totfact>
</mgrwt>
</event>
<event>
 4    1  0.4863180E-002  0.4006805E+03  0.7818608E-02  0.1043544E+00
         21   -1    0    0  503  502  0.00000000000E+00  0.00000000000E+00  0.17537708247E+03  0.17537708247E+03  0.00000000000E+00 0.  1.
         21   -1    0    0  501  503 -0.00000000000E+00 -0.00000000000E+00 -0.10209975483E+04  0.10209975483E+04  0.00000000000E+00 0.  1.
    9000007    1    1    2  501    0 -0.20832710404E+02  0.10527824124E+02 -0.61516243911E+03  0.73414553284E+03  0.40000000000E+03 0. -1.
   -9000007    1    1    2    0  502  0.20832710404E+02 -0.10527824124E+02 -0.23045802674E+03  0.46222909795E+03  0.40000000000E+03 0. -1.
<mgrwt>
<rscale>  2 0.40068047E+03</rscale>
<asrwt>0</asrwt>
<pdfrwt beam="1">  1       21 0.26981089E-01 0.40068047E+03</pdfrwt>
<pdfrwt beam="2">  1       21 0.15707655E+00 0.40068047E+03</pdfrwt>
<totfact> 0.30417157E+03</totfact>
</mgrwt>
</event>
<event>
 4    1  0.4863180E-002  0.5255587E+03  0.7818608E-02  0.1007315E+00
         21   -1    0    0  503  502  0.00000000000E+00  0.00000000000E+00  0.17580244087E+04  0.17580244087E+04  0.00000000000E+00 0.  1.
         21   -1    0    0  501  503 -0.00000000000E+00 -0.00000000000E+00 -0.33494336670E+03  0.33494336670E+03  0.00000000000E+00 0.  1.
    9000007    1    1    2  501    0 -0.29683429454E+03  0.16763443873E+03 -0.50972818575E+02  0.52802474534E+03  0.40000000000E+03 0.  1.
   -9000007    1    1    2    0  502  0.29683429454E+03 -0.16763443873E+03  0.14740538605E+04  0.15649430300E+04  0.40000000000E+03 0.  1.
<mgrwt>
<rscale>  2 0.52555866E+03</rscale>
<asrwt>0</asrwt>
<pdfrwt beam="1">  1       21 0.27046529E+00 0.52555866E+03</pdfrwt>
<pdfrwt beam="2">  1       21 0.51529750E-01 0.52555866E+03</pdfrwt>
<totfact> 0.13616346E+02</totfact>
</mgrwt>
</event>
<event>
 4    1  0.4863180E-002  0.4323823E+03  0.7818608E-02  0.1033110E+00
         21   -1    0    0  501  502  0.00000000000E+00  0.00000000000E+00  0.21958175642E+03  0.21958175642E+03  0.00000000000E+00 0.  1.
         21   -1    0    0  502  503 -0.00000000000E+00 -0.00000000000E+00 -0.12144784306E+04  0.12144784306E+04  0.00000000000E+00 0.  1.
    9000007    1    1    2  501    0 -0.60257530370E+02  0.15272031087E+03 -0.10540349596E+03  0.44504422284E+03  0.40000000000E+03 0.  1.
   -9000007    1    1    2    0  503  0.60257530370E+02 -0.15272031087E+03 -0.88949317825E+03  0.98901596421E+03  0.40000000000E+03 0.  1.
<mgrwt>
<rscale>  2 0.43238231E+03</rscale>
<asrwt>0</asrwt>
<pdfrwt beam="1">  1       21 0.33781809E-01 0.43238231E+03</pdfrwt>
<pdfrwt beam="2">  1       21 0.18684283E+00 0.43238231E+03</pdfrwt>
<totfact> 0.11696033E+03</totfact>
</mgrwt>
</event>
<event>
 4    1  0.4863180E-002  0.4168453E+03  0.7818608E-02  0.1038098E+00
         21   -1    0    0  503  502  0.00000000000E+00  0.00000000000E+00  0.15326328114E+03  0.15326328114E+03  0.00000000000E+00 0.  1.
         21   -1    0    0  501  503 -0.00000000000E+00 -0.00000000000E+00 -0.12079684928E+04  0.12079684928E+04  0.00000000000E+00 0.  1.
    9000007    1    1    2  501    0 -0.72089517826E+02 -0.92536966457E+02 -0.69607526491E+03  0.81134503336E+03  0.40000000000E+03 0.  1.
   -9000007    1    1    2    0  502  0.72089517826E+02  0.92536966457E+02 -0.35862994673E+03  0.54988674055E+03  0.40000000000E+03 0.  1.
<mgrwt>
<rscale>  2 0.41684528E+03</rscale>
<asrwt>0</asrwt>
<pdfrwt beam="1">  1       21 0.23578966E-01 0.41684528E+03</pdfrwt>
<pdfrwt beam="2">  1       21 0.18584131E+00 0.41684528E+03</pdfrwt>
<totfact> 0.24307467E+03</totfact>
</mgrwt>
</event>
<event>
 4    1  0.4863180E-002  0.4428305E+03  0.7818608E-02  0.1029882E+00
         21   -1    0    0  501  502  0.00000000000E+00  0.00000000000E+00  0.10633970121E+03  0.10633970121E+03  0.00000000000E+00 0. -1.
         21   -1    0    0  502  503 -0.00000000000E+00 -0.00000000000E+00 -0.25554615086E+04  0.25554615086E+04  0.00000000000E+00 0.  1.
    9000007    1    1    2  501    0  0.18481975307E+03  0.44051018735E+02 -0.52235823713E+03  0.68480432335E+03  0.40000000000E+03 0. -1.
   -9000007    1    1    2    0  503 -0.18481975307E+03 -0.44051018735E+02 -0.19267635703E+04  0.19769968864E+04  0.40000000000E+03 0.  1.
<mgrwt>
<rscale>  2 0.44283048E+03</rscale>
<asrwt>0</asrwt>
<pdfrwt beam="1">  1       21 0.16359955E-01 0.44283048E+03</pdfrwt>
<pdfrwt beam="2">  1       21 0.39314790E+00 0.44283048E+03</pdfrwt>
<totfact> 0.24781489E+02</totfact>
</mgrwt>
</event>
<event>
 4    1  0.4863180E-002  0.5501177E+03  0.7818608E-02  0.1001467E+00
         21   -1    0    0  501  502  0.00000000000E+00  0.00000000000E+00  0.54047920264E+03  0.54047920264E+03  0.00000000000E+00 0.  1.
         21   -1    0    0  502  503 -0.00000000000E+00 -0.00000000000E+00 -0.56404943484E+03  0.56404943484E+03  0.00000000000E+00 0.  1.
    9000007    1    1    2  501    0  0.14566759138E+02  0.37738222407E+03  0.35421557938E+02  0.55125694579E+03  0.40000000000E+03 0.  1.
   -9000007    1    1    2    0  503 -0.14566759138E+02 -0.37738222407E+03 -0.58991790135E+02  0.55327169169E+03  0.40000000000E+03 0.  1.
<mgrwt>
<rscale>  2 0.55011775E+03</rscale>
<asrwt>0</asrwt>
<pdfrwt beam="1">  1       21 0.83150647E-01 0.55011775E+03</pdfrwt>
<pdfrwt beam="2">  1       21 0.86776836E-01 0.55011775E+03</pdfrwt>
<totfact> 0.11866570E+03</totfact>
</mgrwt>
</event>
<event>
 4    1  0.4863180E-002  0.4127533E+03  0.7818608E-02  0.1039451E+00
         21   -1    0    0  501  502  0.00000000000E+00  0.00000000000E+00  0.15438444662E+04  0.15438444662E+04  0.00000000000E+00 0.  1.
         21   -1    0    0  502  503 -0.00000000000E+00 -0.00000000000E+00 -0.18420686496E+03  0.18420686496E+03  0.00000000000E+00 0.  1.
    9000007    1    1    2  501    0 -0.82548962016E+02  0.59589742358E+02  0.12269170220E+04  0.12944847035E+04  0.40000000000E+03 0.  1.
   -9000007    1    1    2    0  503  0.82548962016E+02 -0.59589742358E+02  0.13272057922E+03  0.43356662772E+03  0.40000000000E+03 0.  1.
<mgrwt>
<rscale>  2 0.41275328E+03</rscale>
<asrwt>0</asrwt>
<pdfrwt beam="1">  1       21 0.23751452E+00 0.41275328E+03</pdfrwt>
<pdfrwt beam="2">  1       21 0.28339519E-01 0.41275328E+03</pdfrwt>
<totfact> 0.78511040E+02</totfact>
</mgrwt>
</event>
<event>
 4    1  0.4863180E-002  0.4667794E+03  0.7818608E-02  0.1022833E+00
         21   -1    0    0  501  502  0.00000000000E+00  0.00000000000E+00  0.33286740195E+03  0.33286740195E+03  0.00000000000E+00 0. -1.
         21   -1    0    0  502  503 -0.00000000000E+00 -0.00000000000E+00 -0.65457210912E+03  0.65457210912E+03  0.00000000000E+00 0. -1.
    9000007    1    1    2  501    0 -0.16646219448E+03 -0.17370482007E+03 -0.15911737387E+03  0.49315450457E+03  0.40000000000E+03 0. -1.
   -9000007    1    1    2    0  503  0.16646219448E+03  0.17370482007E+03 -0.16258733330E+03  0.49428500650E+03  0.40000000000E+03 0. -1.
<mgrwt>
<rscale>  2 0.46677942E+03</rscale>
<asrwt>0</asrwt>
<pdfrwt beam="1">  1       21 0.51210370E-01 0.46677942E+03</pdfrwt>
<pdfrwt beam="2">  1       21 0.10070340E+00 0.46677942E+03</pdfrwt>
<totfact> 0.25206690E+03</totfact>
</mgrwt>
</event>
<event>
 4    1  0.4863180E-002  0.5737304E+03  0.7818608E-02  0.9961458E-01
         21   -1    0    0  501  502  0.00000000000E+00  0.00000000000E+00  0.25879644031E+03  0.25879644031E+03  0.00000000000E+00 0.  1.
         21   -1    0    0  502  503 -0.00000000000E+00 -0.00000000000E+00 -0.13849469836E+04  0.13849469836E+04  0.00000000000E+00 0. -1.
    9000007    1    1    2  501    0  0.28899122640E+03  0.29266132480E+03 -0.32827867213E+03  0.66100943000E+03  0.40000000000E+03 0.  1.
   -9000007    1    1    2    0  503 -0.28899122640E+03 -0.29266132480E+03 -0.79787187112E+03  0.98273399386E+03  0.40000000000E+03 0. -1.
<mgrwt>
<rscale>  2 0.57373041E+03</rscale>
<asrwt>0</asrwt>
<pdfrwt beam="1">  1       21 0.39814837E-01 0.57373041E+03</pdfrwt>
<pdfrwt beam="2">  1       21 0.21306876E+00 0.57373041E+03</pdfrwt>
<totfact> 0.52577995E+02</totfact>
</mgrwt>
</event>
<event>
 4    1  0.4863180E-002  0.4908432E+03  0.7818608E-02  0.1016197E+00
         21   -1    0    0  501  502  0.00000000000E+00  0.00000000000E+00  0.41537685615E+03  0.41537685615E+03  0.00000000000E+00 0.  1.
         21   -1    0    0  502  503 -0.00000000000E+00 -0.00000000000E+00 -0.85248213439E+03  0.85248213439E+03  0.00000000000E+00 0. -1.
    9000007    1    1    2  501    0  0.27441630760E+03 -0.74984704429E+02  0.13983344706E+03  0.51037281343E+03  0.40000000000E+03 0.  1.
   -9000007    1    1    2    0  503 -0.27441630760E+03  0.74984704429E+02 -0.57693872529E+03  0.75748617711E+03  0.40000000000E+03 0. -1.
<mgrwt>
<rscale>  2 0.49084317E+03</rscale>
<asrwt>0</asrwt>
<pdfrwt beam="1">  1       21 0.63904132E-01 0.49084317E+03</pdfrwt>
<pdfrwt beam="2">  1       21 0.13115110E+00 0.49084317E+03</pdfrwt>
<totfact> 0.79305291E+02</totfact>
</mgrwt>
</event>
<event>
 4    1  0.4863180E-002  0.4231131E+03  0.7818608E-02  0.1036058E+00
         21   -1    0    0  501  502  0.00000000000E+00  0.00000000000E+00  0.48937140162E+03  0.48937140162E+03  0.00000000000E+00 0.  1.
         21   -1    0    0  502  503 -0.00000000000E+00 -0.00000000000E+00 -0.40908237682E+03  0.40908237682E+03  0.00000000000E+00 0.  1.
    9000007    1    1    2  501    0  0.12306067134E+03 -0.62296066624E+02  0.18622290404E+03  0.46228097380E+03  0.40000000000E+03 0.  1.
   -9000007    1    1    2    0  503 -0.12306067134E+03  0.62296066624E+02 -0.10593387924E+03  0.43617280465E+03  0.40000000000E+03 0.  1.
<mgrwt>
<rscale>  2 0.42311314E+03</rscale>
<asrwt>0</asrwt>
<pdfrwt beam="1">  1       21 0.75287908E-01 0.42311314E+03</pdfrwt>
<pdfrwt beam="2">  1       21 0.62935751E-01 0.42311314E+03</pdfrwt>
<totfact> 0.32449310E+03</totfact>
</mgrwt>
</event>
<event>
 4    1  0.4863180E-002  0.4281988E+03  0.7818608E-02  0.1034430E+00
         21   -1    0    0  503  502  0.00000000000E+00  0.00000000000E+00  0.73719581335E+03  0.73719581335E+03  0.00000000000E+00 0. -1.
         21   -1    0    0  501  503 -0.00000000000E+00 -0.00000000000E+00 -0.26601130546E+03  0.26601130546E+03  0.00000000000E+00 0. -1.
    9000007    1    1    2  501    0  0.12013878856E+03  0.94450306862E+02  0.10770003972E+03  0.44153537518E+03  0.40000000000E+03 0. -1.
   -9000007    1    1    2    0  502 -0.12013878856E+03 -0.94450306862E+02  0.36348446818E+03  0.56167174363E+03  0.40000000000E+03 0. -1.
<mgrwt>
<rscale>  2 0.42819877E+03</rscale>
<asrwt>0</asrwt>
<pdfrwt beam="1">  1       21 0.11341474E+00 0.42819877E+03</pdfrwt>
<pdfrwt beam="2">  1       21 0.40924817E-01 0.42819877E+03</pdfrwt>
<totfact> 0.30529104E+03</totfact>
</mgrwt>
</event>
<event>
 4    1  0.4863180E-002  0.4409807E+03  0.7818608E-02  0.1030446E+00
         21   -1    0    0  503  502  0.00000000000E+00  0.00000000000E+00  0.42140288747E+03  0.42140288747E+03  0.00000000000E+00 0.  1.
         21   -1    0    0  501  503 -0.00000000000E+00 -0.00000000000E+00 -0.47434109590E+03  0.47434109590E+03  0.00000000000E+00 0. -1.
    9000007    1    1    2  501    0  0.11625625007E+03  0.14473588826E+03  0.47312520553E+02  0.44351151916E+03  0.40000000000E+03 0.  1.
   -9000007    1    1    2    0  502 -0.11625625007E+03 -0.14473588826E+03 -0.10025072898E+03  0.45223246422E+03  0.40000000000E+03 0. -1.
<mgrwt>
<rscale>  2 0.44098072E+03</rscale>
<asrwt>0</asrwt>
<pdfrwt beam="1">  1       21 0.64831214E-01 0.44098072E+03</pdfrwt>
<pdfrwt beam="2">  1       21 0.72975553E-01 0.44098072E+03</pdfrwt>
<totfact> 0.32409068E+03</totfact>
</mgrwt>
</event>
<event>
 4    1  0.4863180E-002  0.5533938E+03  0.7818608E-02  0.1000711E+00
         21   -1    0    0  503  502  0.00000000000E+00  0.00000000000E+00  0.64202972044E+03  0.64202972044E+03  0.00000000000E+00 0. -1.
         21   -1    0    0  501  503 -0.00000000000E+00 -0.00000000000E+00 -0.59380965513E+03  0.59380965513E+03  0.00000000000E+00 0.  1.
    9000007    1    1    2  501    0 -0.69656301264E+02 -0.37602217752E+03 -0.24995769898E+03  0.60722609428E+03  0.40000000000E+03 0.  1.
   -9000007    1    1    2    0  502  0.69656301264E+02  0.37602217752E+03  0.29817776430E+03  0.62861328129E+03  0.40000000000E+03 0. -1.
<mgrwt>
<rscale>  2 0.55339378E+03</rscale>
<asrwt>0</asrwt>
<pdfrwt beam="1">  1       21 0.98773803E-01 0.55339378E+03</pdfrwt>
<pdfrwt beam="2">  1       21 0.91355332E-01 0.55339378E+03</pdfrwt>
<totfact> 0.69579896E+02</totfact>
</mgrwt>
</event>
<event>
 4    1  0.4863180E-002  0.4638843E+03  0.7818608E-02  0.1023661E+00
         21   -1    0    0  503  502  0.00000000000E+00  0.00000000000E+00  0.63359987482E+03  0.63359987482E+03  0.00000000000E+00 0. -1.
         21   -1    0    0  501  503 -0.00000000000E+00 -0.00000000000E+00 -0.37487605980E+03  0.37487605980E+03  0.00000000000E+00 0.  1.
    9000007    1    1    2  501    0 -0.22080434869E+03 -0.80212611175E+02  0.28397837560E+03  0.54390471702E+03  0.40000000000E+03 0. -1.
   -9000007    1    1    2    0  502  0.22080434869E+03  0.80212611175E+02 -0.25254560580E+02  0.46457121760E+03  0.40000000000E+03 0.  1.
<mgrwt>
<rscale>  2 0.46388428E+03</rscale>
<asrwt>0</asrwt>
<pdfrwt beam="1">  1       21 0.97476904E-01 0.46388428E+03</pdfrwt>
<pdfrwt beam="2">  1       21 0.57673240E-01 0.46388428E+03</pdfrwt>
<totfact> 0.21132295E+03</totfact>
</mgrwt>
</event>
<event>
 4    1  0.4863180E-002  0.4346610E+03  0.7818608E-02  0.1032398E+00
         21   -1    0    0  503  502  0.00000000000E+00  0.00000000000E+00  0.10564327211E+04  0.10564327211E+04  0.00000000000E+00 0.  1.
         21   -1    0    0  501  503 -0.00000000000E+00 -0.00000000000E+00 -0.20659104834E+03  0.20659104834E+03  0.00000000000E+00 0.  1.
    9000007    1    1    2  501    0 -0.10683477491E+03  0.13234995014E+03  0.65638413384E+03  0.78725492033E+03  0.40000000000E+03 0.  1.
   -9000007    1    1    2    0  502  0.10683477491E+03 -0.13234995014E+03  0.19345753894E+03  0.47576884913E+03  0.40000000000E+03 0.  1.
<mgrwt>
<rscale>  2 0.43466099E+03</rscale>
<asrwt>0</asrwt>
<pdfrwt beam="1">  1       21 0.16252811E+00 0.43466099E+03</pdfrwt>
<pdfrwt beam="2">  1       21 0.31783239E-01 0.43466099E+03</pdfrwt>
<totfact> 0.19722551E+03</totfact>
</mgrwt>
</event>
<event>
 4    1  0.4863180E-002  0.4735614E+03  0.7818608E-02  0.1020920E+00
         21   -1    0    0  501  502  0.00000000000E+00  0.00000000000E+00  0.53451986963E+03  0.53451986963E+03  0.00000000000E+00 0.  1.
         21   -1    0    0  502  503 -0.00000000000E+00 -0.00000000000E+00 -0.13706303850E+04  0.13706303850E+04  0.00000000000E+00 0. -1.
    9000007    1    1    2  501    0  0.25232976695E+03 -0.24291206971E+02  0.37544409649E+03  0.60433322233E+03  0.40000000000E+03 0.  1.
   -9000007    1    1    2    0  503 -0.25232976695E+03  0.24291206971E+02 -0.12115546119E+04  0.13008170323E+04  0.40000000000E+03 0. -1.
<mgrwt>
<rscale>  2 0.47356137E+03</rscale>
<asrwt>0</asrwt>
<pdfrwt beam="1">  1       21 0.82233827E-01 0.47356137E+03</pdfrwt>
<pdfrwt beam="2">  1       21 0.21086621E+00 0.47356137E+03</pdfrwt>
<totfact> 0.11646716E+02</totfact>
</mgrwt>
</event>
<event>
 4    1  0.4863180E-002  0.4135615E+03  0.7818608E-02  0.1039182E+00
         21   -1    0    0  501  502  0.00000000000E+00  0.00000000000E+00  0.65031304873E+03  0.65031304873E+03  0.00000000000E+00 0.  1.
         21   -1    0    0  502  503 -0.00000000000E+00 -0.00000000000E+00 -0.38751311630E+03  0.38751311630E+03  0.00000000000E+00 0.  1.
    9000007    1    1    2  501    0  0.49356372647E+01 -0.10492266107E+03 -0.16274189759E+03  0.44443002886E+03  0.40000000000E+03 0.  1.
   -9000007    1    1    2    0  503 -0.49356372647E+01  0.10492266107E+03  0.42554183002E+03  0.59339613617E+03  0.40000000000E+03 0.  1.
<mgrwt>
<rscale>  2 0.41356151E+03</rscale>
<asrwt>0</asrwt>
<pdfrwt beam="1">  1       21 0.10004816E+00 0.41356151E+03</pdfrwt>
<pdfrwt beam="2">  1       21 0.59617403E-01 0.41356151E+03</pdfrwt>
<totfact> 0.18821814E+03</totfact>
</mgrwt>
</event>
<event>
 4    1  0.4863180E-002  0.4552864E+03  0.7818608E-02  0.1026157E+00
         21   -1    0    0  503  502  0.00000000000E+00  0.00000000000E+00  0.45811858971E+03  0.45811858971E+03  0.00000000000E+00 0.  1.
         21   -1    0    0  501  503 -0.00000000000E+00 -0.00000000000E+00 -0.10052033850E+04  0.10052033850E+04  0.00000000000E+00 0. -1.
    9000007    1    1    2  501    0 -0.12586469488E+03 -0.17732393668E+03 -0.81609281969E+03  0.93450157319E+03  0.40000000000E+03 0. -1.
   -9000007    1    1    2    0  502  0.12586469488E+03  0.17732393668E+03  0.26900802436E+03  0.52882040156E+03  0.40000000000E+03 0.  1.
<mgrwt>
<rscale>  2 0.45528639E+03</rscale>
<asrwt>0</asrwt>
<pdfrwt beam="1">  1       21 0.70479783E-01 0.45528639E+03</pdfrwt>
<pdfrwt beam="2">  1       21 0.15464668E+00 0.45528639E+03</pdfrwt>
<totfact> 0.41623012E+02</totfact>
</mgrwt>
</event>
<event>
 4    1  0.4863180E-002  0.4225504E+03  0.7818608E-02  0.1036239E+00
         21   -1    0    0  503  502  0.00000000000E+00  0.00000000000E+00  0.22590854958E+03  0.22590854958E+03  0.00000000000E+00 0. -1.
         21   -1    0    0  501  503 -0.00000000000E+00 -0.00000000000E+00 -0.85137868541E+03  0.85137868541E+03  0.00000000000E+00 0. -1.
    9000007    1    1    2  501    0 -0.27494682261E+00  0.13619374954E+03 -0.45693856098E+03  0.62236778638E+03  0.40000000000E+03 0. -1.
   -9000007    1    1    2    0  502  0.27494682261E+00 -0.13619374954E+03 -0.16853157485E+03  0.45491944862E+03  0.40000000000E+03 0. -1.
<mgrwt>
<rscale>  2 0.42255037E+03</rscale>
<asrwt>0</asrwt>
<pdfrwt beam="1">  1       21 0.34755161E-01 0.42255037E+03</pdfrwt>
<pdfrwt beam="2">  1       21 0.13098134E+00 0.42255037E+03</pdfrwt>
<totfact> 0.29600079E+03</totfact>
</mgrwt>
</event>
<event>
 4    1  0.4863180E-002  0.4542523E+03  0.7818608E-02  0.1026462E+00
         21   -1    0    0  503  502  0.00000000000E+00  0.00000000000E+00  0.99167671249E+02  0.99167671249E+02  0.00000000000E+00 0.  1.
         21   -1    0    0  501  503 -0.00000000000E+00 -0.00000000000E+00 -0.20839987357E+04  0.20839987357E+04  0.00000000000E+00 0.  1.
    9000007    1    1    2  501    0  0.21453407069E+03  0.17896219689E+02 -0.94945138963E+03  0.10525222484E+04  0.40000000000E+03 0.  1.
   -9000007    1    1    2    0  502 -0.21453407069E+03 -0.17896219689E+02 -0.10353796748E+04  0.11306441585E+04  0.40000000000E+03 0.  1.
<mgrwt>
<rscale>  2 0.45425229E+03</rscale>
<asrwt>0</asrwt>
<pdfrwt beam="1">  1       21 0.15256566E-01 0.45425229E+03</pdfrwt>
<pdfrwt beam="2">  1       21 0.32061517E+00 0.45425229E+03</pdfrwt>
<totfact> 0.78662972E+02</totfact>
</mgrwt>
</event>
<event>
 4    1  0.4863180E-002  0.4111998E+03  0.7818608E-02  0.1039969E+00
         21   -1    0    0  503  502  0.00000000000E+00  0.00000000000E+00  0.56598858036E+03  0.56598858036E+03  0.00000000000E+00 0. -1.
         21   -1    0    0  501  503 -0.00000000000E+00 -0.00000000000E+00 -0.38313091090E+03  0.38313091090E+03  0.00000000000E+00 0. -1.
    9000007    1    1    2  501    0 -0.24209149021E+02 -0.92190884102E+02 -0.13128997297E+03  0.43165066780E+03  0.40000000000E+03 0. -1.
   -9000007    1    1    2    0  502  0.24209149021E+02  0.92190884102E+02  0.31414764244E+03  0.51746882346E+03  0.40000000000E+03 0. -1.
<mgrwt>
<rscale>  2 0.41119976E+03</rscale>
<asrwt>0</asrwt>
<pdfrwt beam="1">  1       21 0.87075167E-01 0.41119976E+03</pdfrwt>
<pdfrwt beam="2">  1       21 0.58943217E-01 0.41119976E+03</pdfrwt>
<totfact> 0.26888140E+03</totfact>
</mgrwt>
</event>
<event>
 4    1  0.4863180E-002  0.5943987E+03  0.7818608E-02  0.9917096E-01
         21   -1    0    0  501  502  0.00000000000E+00  0.00000000000E+00  0.81843377046E+03  0.81843377046E+03  0.00000000000E+00 0. -1.
         21   -1    0    0  502  503 -0.00000000000E+00 -0.00000000000E+00 -0.53324859436E+03  0.53324859436E+03  0.00000000000E+00 0. -1.
    9000007    1    1    2  501    0  0.17807388148E+03 -0.40199436130E+03  0.43753543860E+03  0.73806980280E+03  0.40000000000E+03 0. -1.
   -9000007    1    1    2    0  503 -0.17807388148E+03  0.40199436130E+03 -0.15235026249E+03  0.61361256202E+03  0.40000000000E+03 0. -1.
<mgrwt>
<rscale>  2 0.59439867E+03</rscale>
<asrwt>0</asrwt>
<pdfrwt beam="1">  1       21 0.12591289E+00 0.59439867E+03</pdfrwt>
<pdfrwt beam="2">  1       21 0.82038246E-01 0.59439867E+03</pdfrwt>
<totfact> 0.48085081E+02</totfact>
</mgrwt>
</event>
<event>
 4    1  0.4863180E-002  0.4052736E+03  0.7818608E-02  0.1041969E+00
         21   -1    0    0  503  502  0.00000000000E+00  0.00000000000E+00  0.13914020596E+04  0.13914020596E+04  0.00000000000E+00 0.  1.
         21   -1    0    0  501  503 -0.00000000000E+00 -0.00000000000E+00 -0.18304276016E+03  0.18304276016E+03  0.00000000000E+00 0.  1.
    9000007    1    1    2  501    0  0.63576686747E+02 -0.14308416080E+02  0.13507087107E+03  0.42718949669E+03  0.40000000000E+03 0.  1.
   -9000007    1    1    2    0  502 -0.63576686747E+02  0.14308416080E+02  0.10732884284E+04  0.11472553231E+04  0.40000000000E+03 0.  1.
<mgrwt>
<rscale>  2 0.40527364E+03</rscale>
<asrwt>0</asrwt>
<pdfrwt beam="1">  1       21 0.21406185E+00 0.40527364E+03</pdfrwt>
<pdfrwt beam="2">  1       21 0.28160426E-01 0.40527364E+03</pdfrwt>
<totfact> 0.11223189E+03</totfact>
</mgrwt>
</event>
<event>
 4    1  0.4863180E-002  0.4032892E+03  0.7818608E-02  0.1042647E+00
         21   -1    0    0  501  502  0.00000000000E+00  0.00000000000E+00  0.13429715011E+04  0.13429715011E+04  0.00000000000E+00 0.  1.
         21   -1    0    0  502  503 -0.00000000000E+00 -0.00000000000E+00 -0.13462252798E+03  0.13462252798E+03  0.00000000000E+00 0.  1.
    9000007    1    1    2  501    0 -0.42250111384E+02 -0.29276066410E+02  0.37007751035E+03  0.54735685219E+03  0.40000000000E+03 0.  1.
   -9000007    1    1    2    0  503  0.42250111384E+02  0.29276066410E+02  0.83827146278E+03  0.93023717690E+03  0.40000000000E+03 0.  1.
<mgrwt>
<rscale>  2 0.40328918E+03</rscale>
<asrwt>0</asrwt>
<pdfrwt beam="1">  1       21 0.20661099E+00 0.40328918E+03</pdfrwt>
<pdfrwt beam="2">  1       21 0.20711159E-01 0.40328918E+03</pdfrwt>
<totfact> 0.22757097E+03</totfact>
</mgrwt>
</event>
<event>
 4    1  0.4863180E-002  0.4168992E+03  0.7818608E-02  0.1038080E+00
         21   -1    0    0  501  502  0.00000000000E+00  0.00000000000E+00  0.43559772842E+03  0.43559772842E+03  0.00000000000E+00 0.  1.
         21   -1    0    0  502  503 -0.00000000000E+00 -0.00000000000E+00 -0.41890426823E+03  0.41890426823E+03  0.00000000000E+00 0.  1.
    9000007    1    1    2  501    0  0.47556853328E+02 -0.10743953630E+03  0.10147110468E+03  0.42907026621E+03  0.40000000000E+03 0.  1.
   -9000007    1    1    2    0  503 -0.47556853328E+02  0.10743953630E+03 -0.84777644489E+02  0.42543173044E+03  0.40000000000E+03 0.  1.
<mgrwt>
<rscale>  2 0.41689916E+03</rscale>
<asrwt>0</asrwt>
<pdfrwt beam="1">  1       21 0.67015035E-01 0.41689916E+03</pdfrwt>
<pdfrwt beam="2">  1       21 0.64446810E-01 0.41689916E+03</pdfrwt>
<totfact> 0.40122851E+03</totfact>
</mgrwt>
</event>
<event>
 4    1  0.4863180E-002  0.4515756E+03  0.7818608E-02  0.1027253E+00
         21   -1    0    0  501  502  0.00000000000E+00  0.00000000000E+00  0.10305862867E+04  0.10305862867E+04  0.00000000000E+00 0. -1.
         21   -1    0    0  502  503 -0.00000000000E+00 -0.00000000000E+00 -0.30577374154E+03  0.30577374154E+03  0.00000000000E+00 0. -1.
    9000007    1    1    2  501    0 -0.20761342550E+03 -0.28586996159E+02  0.75933696475E+03  0.88346656803E+03  0.40000000000E+03 0. -1.
   -9000007    1    1    2    0  503  0.20761342550E+03  0.28586996159E+02 -0.34524419541E+02  0.45289346026E+03  0.40000000000E+03 0. -1.
<mgrwt>
<rscale>  2 0.45157563E+03</rscale>
<asrwt>0</asrwt>
<pdfrwt beam="1">  1       21 0.15855173E+00 0.45157563E+03</pdfrwt>
<pdfrwt beam="2">  1       21 0.47042115E-01 0.45157563E+03</pdfrwt>
<totfact> 0.93875105E+02</totfact>
</mgrwt>
</event>
<event>
 4    1  0.4863180E-002  0.4033967E+03  0.7818608E-02  0.1042610E+00
         21   -1    0    0  501  502  0.00000000000E+00  0.00000000000E+00  0.81769710228E+03  0.81769710228E+03  0.00000000000E+00 0.  1.
         21   -1    0    0  502  503 -0.00000000000E+00 -0.00000000000E+00 -0.34438928467E+03  0.34438928467E+03  0.00000000000E+00 0.  1.
    9000007    1    1    2  501    0  0.42238444519E+02 -0.30738327299E+02  0.61417101682E+03  0.73480267342E+03  0.40000000000E+03 0.  1.
   -9000007    1    1    2    0  503 -0.42238444519E+02  0.30738327299E+02 -0.14086319920E+03  0.42728371353E+03  0.40000000000E+03 0.  1.
<mgrwt>
<rscale>  2 0.40339674E+03</rscale>
<asrwt>0</asrwt>
<pdfrwt beam="1">  1       21 0.12579955E+00 0.40339674E+03</pdfrwt>
<pdfrwt beam="2">  1       21 0.52982967E-01 0.40339674E+03</pdfrwt>
<totfact> 0.13790496E+03</totfact>
</mgrwt>
</event>
<event>
 4    1  0.4863180E-002  0.4469145E+03  0.7818608E-02  0.1028646E+00
         21   -1    0    0  503  502  0.00000000000E+00  0.00000000000E+00  0.67107737304E+03  0.67107737304E+03  0.00000000000E+00 0.  1.
         21   -1    0    0  501  503 -0.00000000000E+00 -0.00000000000E+00 -0.30216128975E+03  0.30216128975E+03  0.00000000000E+00 0.  1.
    9000007    1    1    2  501    0  0.19526458235E+03  0.40054420892E+02  0.12486559717E+03  0.46403020496E+03  0.40000000000E+03 0.  1.
   -9000007    1    1    2    0  502 -0.19526458235E+03 -0.40054420892E+02  0.24405048612E+03  0.50920845783E+03  0.40000000000E+03 0.  1.
<mgrwt>
<rscale>  2 0.44691455E+03</rscale>
<asrwt>0</asrwt>
<pdfrwt beam="1">  1       21 0.10324267E+00 0.44691455E+03</pdfrwt>
<pdfrwt beam="2">  1       21 0.46486352E-01 0.44691455E+03</pdfrwt>
<totfact> 0.29326007E+03</totfact>
</mgrwt>
</event>
<event>
 4    1  0.4863180E-002  0.5860370E+03  0.7818608E-02  0.9934806E-01
         21   -1    0    0  501  502  0.00000000000E+00  0.00000000000E+00  0.61427471370E+03  0.61427471370E+03  0.00000000000E+00 0.  1.
         21   -1    0    0  502  503 -0.00000000000E+00 -0.00000000000E+00 -0.66859733033E+03  0.66859733033E+03  0.00000000000E+00 0. -1.
    9000007    1    1    2  501    0  0.46202040236E+02  0.42579899208E+03  0.23242267951E+03  0.63044405948E+03  0.40000000000E+03 0.  1.
   -9000007    1    1    2    0  503 -0.46202040236E+02 -0.42579899208E+03 -0.28674529614E+03  0.65242798456E+03  0.40000000000E+03 0. -1.
<mgrwt>
<rscale>  2 0.58603704E+03</rscale>
<asrwt>0</asrwt>
<pdfrwt beam="1">  1       21 0.94503803E-01 0.58603704E+03</pdfrwt>
<pdfrwt beam="2">  1       21 0.10286113E+00 0.58603704E+03</pdfrwt>
<totfact> 0.57431124E+02</totfact>
</mgrwt>
</event>
<event>
 4    1  0.4863180E-002  0.4007930E+03  0.7818608E-02  0.1043505E+00
         21   -1    0    0  503  502  0.00000000000E+00  0.00000000000E+00  0.35465836529E+03  0.35465836529E+03  0.00000000000E+00 0.  1.
         21   -1    0    0  501  503 -0.00000000000E+00 -0.00000000000E+00 -0.46547378099E+03  0.46547378099E+03  0.00000000000E+00 0.  1.
    9000007    1    1    2  501    0  0.22792861820E+02  0.10747083348E+02 -0.12272706123E+03  0.41916219523E+03  0.40000000000E+03 0. -1.
   -9000007    1    1    2    0  502 -0.22792861820E+02 -0.10747083348E+02  0.11911645533E+02  0.40096995106E+03  0.40000000000E+03 0. -1.
<mgrwt>
<rscale>  2 0.40079298E+03</rscale>
<asrwt>0</asrwt>
<pdfrwt beam="1">  1       21 0.54562825E-01 0.40079298E+03</pdfrwt>
<pdfrwt beam="2">  1       21 0.71611351E-01 0.40079298E+03</pdfrwt>
<totfact> 0.50023560E+03</totfact>
</mgrwt>
</event>
<event>
 4    1  0.4863180E-002  0.4522636E+03  0.7818608E-02  0.1027049E+00
         21   -1    0    0  501  502  0.00000000000E+00  0.00000000000E+00  0.11373481496E+04  0.11373481496E+04  0.00000000000E+00 0. -1.
         21   -1    0    0  502  503 -0.00000000000E+00 -0.00000000000E+00 -0.35673011190E+03  0.35673011190E+03  0.00000000000E+00 0. -1.
    9000007    1    1    2  501    0 -0.97495447507E+02 -0.18718175415E+03  0.91635466573E+03  0.10218846534E+04  0.40000000000E+03 0. -1.
   -9000007    1    1    2    0  503  0.97495447507E+02  0.18718175415E+03 -0.13573662803E+03  0.47219360813E+03  0.40000000000E+03 0. -1.
<mgrwt>
<rscale>  2 0.45226361E+03</rscale>
<asrwt>0</asrwt>
<pdfrwt beam="1">  1       21 0.17497664E+00 0.45226361E+03</pdfrwt>
<pdfrwt beam="2">  1       21 0.54881556E-01 0.45226361E+03</pdfrwt>
<totfact> 0.51119199E+02</totfact>
</mgrwt>
</event>
<event>
 4    1  0.4863180E-002  0.4453191E+03  0.7818608E-02  0.1029127E+00
         21   -1    0    0  501  502  0.00000000000E+00  0.00000000000E+00  0.27716894972E+03  0.27716894972E+03  0.00000000000E+00 0.  1.
         21   -1    0    0  502  503 -0.00000000000E+00 -0.00000000000E+00 -0.10457285001E+04  0.10457285001E+04  0.00000000000E+00 0. -1.
    9000007    1    1    2  501    0  0.11957263019E+03 -0.15495636294E+03 -0.12567802637E+02  0.44549639501E+03  0.40000000000E+03 0.  1.
   -9000007    1    1    2    0  503 -0.11957263019E+03  0.15495636294E+03 -0.75599174774E+03  0.87740105480E+03  0.40000000000E+03 0. -1.
<mgrwt>
<rscale>  2 0.44531909E+03</rscale>
<asrwt>0</asrwt>
<pdfrwt beam="1">  1       21 0.42641377E-01 0.44531909E+03</pdfrwt>
<pdfrwt beam="2">  1       21 0.16088131E+00 0.44531909E+03</pdfrwt>
<totfact> 0.11101554E+03</totfact>
</mgrwt>
</event>
<event>
 4    1  0.4863180E-002  0.5127525E+03  0.7818608E-02  0.1010503E+00
         21   -1    0    0  501  502  0.00000000000E+00  0.00000000000E+00  0.64440415866E+03  0.64440415866E+03  0.00000000000E+00 0.  1.
         21   -1    0    0  502  503 -0.00000000000E+00 -0.00000000000E+00 -0.63840387967E+03  0.63840387967E+03  0.00000000000E+00 0.  1.
    9000007    1    1    2  501    0  0.32068387530E+03 -0.87720216065E+01  0.38832891758E+03  0.64320637782E+03  0.40000000000E+03 0.  1.
   -9000007    1    1    2    0  503 -0.32068387530E+03  0.87720216065E+01 -0.38232863860E+03  0.63960166051E+03  0.40000000000E+03 0.  1.
<mgrwt>
<rscale>  2 0.51275247E+03</rscale>
<asrwt>0</asrwt>
<pdfrwt beam="1">  1       21 0.99139102E-01 0.51275247E+03</pdfrwt>
<pdfrwt beam="2">  1       21 0.98215981E-01 0.51275247E+03</pdfrwt>
<totfact> 0.58793892E+02</totfact>
</mgrwt>
</event>
<event>
 4    1  0.4863180E-002  0.5279024E+03  0.7818608E-02  0.1006742E+00
         21   -1    0    0  503  502  0.00000000000E+00  0.00000000000E+00  0.70136575032E+03  0.70136575032E+03  0.00000000000E+00 0. -1.
         21   -1    0    0  501  503 -0.00000000000E+00 -0.00000000000E+00 -0.43236395092E+03  0.43236395092E+03  0.00000000000E+00 0. -1.
    9000007    1    1    2  501    0  0.32596339188E+03  0.11148451623E+03 -0.26836492719E+02  0.52858407803E+03  0.40000000000E+03 0. -1.
   -9000007    1    1    2    0  502 -0.32596339188E+03 -0.11148451623E+03  0.29583829211E+03  0.60514562321E+03  0.40000000000E+03 0. -1.
<mgrwt>
<rscale>  2 0.52790239E+03</rscale>
<asrwt>0</asrwt>
<pdfrwt beam="1">  1       21 0.10790242E+00 0.52790239E+03</pdfrwt>
<pdfrwt beam="2">  1       21 0.66517531E-01 0.52790239E+03</pdfrwt>
<totfact> 0.11751355E+03</totfact>
</mgrwt>
</event>
<event>
 4    1  0.4863180E-002  0.4876284E+03  0.7818608E-02  0.1017059E+00
         21   -1    0    0  501  502  0.00000000000E+00  0.00000000000E+00  0.10870541373E+04  0.10870541373E+04  0.00000000000E+00 0. -1.
         21   -1    0    0  502  503 -0.00000000000E+00 -0.00000000000E+00 -0.22704662371E+03  0.22704662371E+03  0.00000000000E+00 0. -1.
    9000007    1    1    2  501    0  0.17174016996E+03 -0.21974243809E+03  0.55568561105E+03  0.73930232206E+03  0.40000000000E+03 0. -1.
   -9000007    1    1    2    0  503 -0.17174016996E+03  0.21974243809E+03  0.30432190257E+03  0.57479843898E+03  0.40000000000E+03 0. -1.
<mgrwt>
<rscale>  2 0.48762837E+03</rscale>
<asrwt>0</asrwt>
<pdfrwt beam="1">  1       21 0.16723910E+00 0.48762837E+03</pdfrwt>
<pdfrwt beam="2">  1       21 0.34930250E-01 0.48762837E+03</pdfrwt>
<totfact> 0.14729235E+03</totfact>
</mgrwt>
</event>
<event>
 4    1  0.4863180E-002  0.4188503E+03  0.7818608E-02  0.1037441E+00
         21   -1    0    0  501  502  0.00000000000E+00  0.00000000000E+00  0.93835325094E+02  0.93835325094E+02  0.00000000000E+00 0.  1.
         21   -1    0    0  502  503 -0.00000000000E+00 -0.00000000000E+00 -0.24349687345E+04  0.24349687345E+04  0.00000000000E+00 0.  1.
    9000007    1    1    2  501    0  0.75642677428E+02 -0.98558278514E+02 -0.56131018160E+03  0.70036038500E+03  0.40000000000E+03 0.  1.
   -9000007    1    1    2    0  503 -0.75642677428E+02  0.98558278514E+02 -0.17798232278E+04  0.18284436746E+04  0.40000000000E+03 0.  1.
<mgrwt>
<rscale>  2 0.41885027E+03</rscale>
<asrwt>0</asrwt>
<pdfrwt beam="1">  1       21 0.14436205E-01 0.41885027E+03</pdfrwt>
<pdfrwt beam="2">  1       21 0.37461055E+00 0.41885027E+03</pdfrwt>
<totfact> 0.41576412E+02</totfact>
</mgrwt>
</event>
<event>
 4    1  0.4863180E-002  0.5747433E+03  0.7818608E-02  0.9959237E-01
         21   -1    0    0  503  502  0.00000000000E+00  0.00000000000E+00  0.16228264167E+04  0.16228264167E+04  0.00000000000E+00 0.  1.
         21   -1    0    0  501  503 -0.00000000000E+00 -0.00000000000E+00 -0.24598392962E+03  0.24598392962E+03  0.00000000000E+00 0. -1.
    9000007    1    1    2  501    0 -0.31392434133E+03  0.26792035494E+03  0.30033568485E+03  0.64848387202E+03  0.40000000000E+03 0. -1.
   -9000007    1    1    2    0  502  0.31392434133E+03 -0.26792035494E+03  0.10765068023E+04  0.12203264743E+04  0.40000000000E+03 0.  1.
<mgrwt>
<rscale>  2 0.57474325E+03</rscale>
<asrwt>0</asrwt>
<pdfrwt beam="1">  1       21 0.24966560E+00 0.57474325E+03</pdfrwt>
<pdfrwt beam="2">  1       21 0.37843683E-01 0.57474325E+03</pdfrwt>
<totfact> 0.34149707E+02</totfact>
</mgrwt>
</event>
<event>
 4    1  0.4863180E-002  0.4203263E+03  0.7818608E-02  0.1036960E+00
         21   -1    0    0  501  502  0.00000000000E+00  0.00000000000E+00  0.40488375977E+03  0.40488375977E+03  0.00000000000E+00 0.  1.
         21   -1    0    0  502  503 -0.00000000000E+00 -0.00000000000E+00 -0.64925533388E+03  0.64925533388E+03  0.00000000000E+00 0.  1.
    9000007    1    1    2  501    0  0.47269035794E+02 -0.12016601695E+03  0.17963236713E+03  0.45710176186E+03  0.40000000000E+03 0.  1.
   -9000007    1    1    2    0  503 -0.47269035794E+02  0.12016601695E+03 -0.42400394124E+03  0.59703733180E+03  0.40000000000E+03 0.  1.
<mgrwt>
<rscale>  2 0.42032634E+03</rscale>
<asrwt>0</asrwt>
<pdfrwt beam="1">  1       21 0.62289809E-01 0.42032634E+03</pdfrwt>
<pdfrwt beam="2">  1       21 0.99885436E-01 0.42032634E+03</pdfrwt>
<totfact> 0.17115349E+03</totfact>
</mgrwt>
</event>
<event>
 4    1  0.4863180E-002  0.4386218E+03  0.7818608E-02  0.1031171E+00
         21   -1    0    0  501  502  0.00000000000E+00  0.00000000000E+00  0.99487937380E+03  0.99487937380E+03  0.00000000000E+00 0. -1.
         21   -1    0    0  502  503 -0.00000000000E+00 -0.00000000000E+00 -0.22252644826E+03  0.22252644826E+03  0.00000000000E+00 0. -1.
    9000007    1    1    2  501    0 -0.11911625043E+03  0.13490871281E+03  0.60647563107E+03  0.74846625374E+03  0.40000000000E+03 0. -1.
   -9000007    1    1    2    0  503  0.11911625043E+03 -0.13490871281E+03  0.16587729447E+03  0.46893956831E+03  0.40000000000E+03 0. -1.
<mgrwt>
<rscale>  2 0.43862175E+03</rscale>
<asrwt>0</asrwt>
<pdfrwt beam="1">  1       21 0.15305836E+00 0.43862175E+03</pdfrwt>
<pdfrwt beam="2">  1       21 0.34234839E-01 0.43862175E+03</pdfrwt>
<totfact> 0.20026246E+03</totfact>
</mgrwt>
</event>
<event>
 4    1  0.4863180E-002  0.6382529E+03  0.7818608E-02  0.9829075E-01
         21   -1    0    0  503  502  0.00000000000E+00  0.00000000000E+00  0.51605875955E+03  0.51605875955E+03  0.00000000000E+00 0.  1.
         21   -1    0    0  501  503 -0.00000000000E+00 -0.00000000000E+00 -0.10593144303E+04  0.10593144303E+04  0.00000000000E+00 0.  1.
    9000007    1    1    2  501    0 -0.46445487942E+03  0.17790003081E+03 -0.66924918581E+03  0.92480334596E+03  0.40000000000E+03 0.  1.
   -9000007    1    1    2    0  502  0.46445487942E+03 -0.17790003081E+03  0.12599351504E+03  0.65056984392E+03  0.40000000000E+03 0.  1.
<mgrwt>
<rscale>  2 0.63825289E+03</rscale>
<asrwt>0</asrwt>
<pdfrwt beam="1">  1       21 0.79393656E-01 0.63825289E+03</pdfrwt>
<pdfrwt beam="2">  1       21 0.16297145E+00 0.63825289E+03</pdfrwt>
<totfact> 0.25435837E+02</totfact>
</mgrwt>
</event>
<event>
 4    1  0.4863180E-002  0.4018702E+03  0.7818608E-02  0.1043134E+00
         21   -1    0    0  501  502  0.00000000000E+00  0.00000000000E+00  0.43303929179E+03  0.43303929179E+03  0.00000000000E+00 0. -1.
         21   -1    0    0  502  503 -0.00000000000E+00 -0.00000000000E+00 -0.38811939752E+03  0.38811939752E+03  0.00000000000E+00 0. -1.
    9000007    1    1    2  501    0  0.36142577377E+02  0.13905379370E+02  0.10364508563E+03  0.41502042028E+03  0.40000000000E+03 0. -1.
   -9000007    1    1    2    0  503 -0.36142577377E+02 -0.13905379370E+02 -0.58725191355E+02  0.40613826903E+03  0.40000000000E+03 0. -1.
<mgrwt>
<rscale>  2 0.40187018E+03</rscale>
<asrwt>0</asrwt>
<pdfrwt beam="1">  1       21 0.66621429E-01 0.40187018E+03</pdfrwt>
<pdfrwt beam="2">  1       21 0.59710677E-01 0.40187018E+03</pdfrwt>
<totfact> 0.48353160E+03</totfact>
</mgrwt>
</event>
<event>
 4    1  0.4863180E-002  0.4166153E+03  0.7818608E-02  0.1038174E+00
         21   -1    0    0  501  502  0.00000000000E+00  0.00000000000E+00  0.21816867307E+04  0.21816867307E+04  0.00000000000E+00 0.  1.
         21   -1    0    0  502  503 -0.00000000000E+00 -0.00000000000E+00 -0.85745899537E+02  0.85745899537E+02  0.00000000000E+00 0.  1.
    9000007    1    1    2  501    0  0.11594923260E+03 -0.11140932578E+02  0.13525537540E+04  0.14152632272E+04  0.40000000000E+03 0.  1.
   -9000007    1    1    2    0  503 -0.11594923260E+03  0.11140932578E+02  0.74338707722E+03  0.85216940306E+03  0.40000000000E+03 0.  1.
<mgrwt>
<rscale>  2 0.41661534E+03</rscale>
<asrwt>0</asrwt>
<pdfrwt beam="1">  1       21 0.33564407E+00 0.41661534E+03</pdfrwt>
<pdfrwt beam="2">  1       21 0.13191678E-01 0.41661534E+03</pdfrwt>
<totfact> 0.85304126E+02</totfact>
</mgrwt>
</event>
<event>
 4    1  0.4863180E-002  0.4475508E+03  0.7818608E-02  0.1028455E+00
         21   -1    0    0  501  502  0.00000000000E+00  0.00000000000E+00  0.55744616618E+03  0.55744616618E+03  0.00000000000E+00 0. -1.
         21   -1    0    0  502  503 -0.00000000000E+00 -0.00000000000E+00 -0.36507207992E+03  0.36507207992E+03  0.00000000000E+00 0. -1.
    9000007    1    1    2  501    0 -0.18716154008E+03 -0.72610690033E+02  0.38290223421E+02  0.44918581411E+03  0.40000000000E+03 0. -1.
   -9000007    1    1    2    0  503  0.18716154008E+03  0.72610690033E+02  0.15408386284E+03  0.47333243199E+03  0.40000000000E+03 0. -1.
<mgrwt>
<rscale>  2 0.44755084E+03</rscale>
<asrwt>0</asrwt>
<pdfrwt beam="1">  1       21 0.85760949E-01 0.44755084E+03</pdfrwt>
<pdfrwt beam="2">  1       21 0.56164935E-01 0.44755084E+03</pdfrwt>
<totfact> 0.30529960E+03</totfact>
</mgrwt>
</event>
<event>
 4    1  0.4863180E-002  0.4910830E+03  0.7818608E-02  0.1016133E+00
         21   -1    0    0  501  502  0.00000000000E+00  0.00000000000E+00  0.34636398321E+03  0.34636398321E+03  0.00000000000E+00 0. -1.
         21   -1    0    0  502  503 -0.00000000000E+00 -0.00000000000E+00 -0.80910055222E+03  0.80910055222E+03  0.00000000000E+00 0.  1.
    9000007    1    1    2  501    0 -0.67281028340E+02 -0.27683163034E+03 -0.15623281534E+02  0.49133143117E+03  0.40000000000E+03 0. -1.
   -9000007    1    1    2    0  503  0.67281028340E+02  0.27683163034E+03 -0.44711328747E+03  0.66413310425E+03  0.40000000000E+03 0.  1.
<mgrwt>
<rscale>  2 0.49108297E+03</rscale>
<asrwt>0</asrwt>
<pdfrwt beam="1">  1       21 0.53286767E-01 0.49108297E+03</pdfrwt>
<pdfrwt beam="2">  1       21 0.12447701E+00 0.49108297E+03</pdfrwt>
<totfact> 0.13505148E+03</totfact>
</mgrwt>
</event>
<event>
 4    1  0.4863180E-002  0.4502104E+03  0.7818608E-02  0.1027659E+00
         21   -1    0    0  501  502  0.00000000000E+00  0.00000000000E+00  0.11939108205E+04  0.11939108205E+04  0.00000000000E+00 0. -1.
         21   -1    0    0  502  503 -0.00000000000E+00 -0.00000000000E+00 -0.18141925243E+03  0.18141925243E+03  0.00000000000E+00 0. -1.
    9000007    1    1    2  501    0 -0.17543947023E+03 -0.10913467678E+03  0.68050575121E+03  0.81595187531E+03  0.40000000000E+03 0. -1.
   -9000007    1    1    2    0  503  0.17543947023E+03  0.10913467678E+03  0.33198581690E+03  0.55937819766E+03  0.40000000000E+03 0. -1.
<mgrwt>
<rscale>  2 0.45021038E+03</rscale>
<asrwt>0</asrwt>
<pdfrwt beam="1">  1       21 0.18367858E+00 0.45021038E+03</pdfrwt>
<pdfrwt beam="2">  1       21 0.27910655E-01 0.45021038E+03</pdfrwt>
<totfact> 0.17852011E+03</totfact>
</mgrwt>
</event>
<event>
 4    1  0.4863180E-002  0.4317500E+03  0.7818608E-02  0.1033309E+00
         21   -1    0    0  503  502  0.00000000000E+00  0.00000000000E+00  0.49114543114E+03  0.49114543114E+03  0.00000000000E+00 0. -1.
         21   -1    0    0  501  503 -0.00000000000E+00 -0.00000000000E+00 -0.98022213042E+03  0.98022213042E+03  0.00000000000E+00 0. -1.
    9000007    1    1    2  501    0 -0.10095022217E+03  0.12734633043E+03 -0.82044519957E+03  0.92711291692E+03  0.40000000000E+03 0. -1.
   -9000007    1    1    2    0  502  0.10095022217E+03 -0.12734633043E+03  0.33136850029E+03  0.54425464464E+03  0.40000000000E+03 0. -1.
<mgrwt>
<rscale>  2 0.43174997E+03</rscale>
<asrwt>0</asrwt>
<pdfrwt beam="1">  1       21 0.75560836E-01 0.43174997E+03</pdfrwt>
<pdfrwt beam="2">  1       21 0.15080340E+00 0.43174997E+03</pdfrwt>
<totfact> 0.38504045E+02</totfact>
</mgrwt>
</event>
<event>
 4    1  0.4863180E-002  0.4943116E+03  0.7818608E-02  0.1015274E+00
         21   -1    0    0  503  502  0.00000000000E+00  0.00000000000E+00  0.64736802782E+03  0.64736802782E+03  0.00000000000E+00 0.  1.
         21   -1    0    0  501  503 -0.00000000000E+00 -0.00000000000E+00 -0.57633186257E+03  0.57633186257E+03  0.00000000000E+00 0. -1.
    9000007    1    1    2  501    0 -0.27147449392E+03  0.10317748603E+03 -0.32391226791E+03  0.59098489979E+03  0.40000000000E+03 0. -1.
   -9000007    1    1    2    0  502  0.27147449392E+03 -0.10317748603E+03  0.39494843316E+03  0.63271499060E+03  0.40000000000E+03 0.  1.
<mgrwt>
<rscale>  2 0.49431164E+03</rscale>
<asrwt>0</asrwt>
<pdfrwt beam="1">  1       21 0.99595081E-01 0.49431164E+03</pdfrwt>
<pdfrwt beam="2">  1       21 0.88666441E-01 0.49431164E+03</pdfrwt>
<totfact> 0.74801370E+02</totfact>
</mgrwt>
</event>
<event>
 4    1  0.4863180E-002  0.5693140E+03  0.7818608E-02  0.9971198E-01
         21   -1    0    0  503  502  0.00000000000E+00  0.00000000000E+00  0.16821431177E+04  0.16821431177E+04  0.00000000000E+00 0.  1.
         21   -1    0    0  501  503 -0.00000000000E+00 -0.00000000000E+00 -0.19846274899E+03  0.19846274899E+03  0.00000000000E+00 0.  1.
    9000007    1    1    2  501    0 -0.35320794233E+03 -0.19840006822E+03  0.58135822809E+03  0.81369271040E+03  0.40000000000E+03 0.  1.
   -9000007    1    1    2    0  502  0.35320794233E+03  0.19840006822E+03  0.90232214058E+03  0.10669131563E+04  0.40000000000E+03 0.  1.
<mgrwt>
<rscale>  2 0.56931401E+03</rscale>
<asrwt>0</asrwt>
<pdfrwt beam="1">  1       21 0.25879124E+00 0.56931401E+03</pdfrwt>
<pdfrwt beam="2">  1       21 0.30532732E-01 0.56931401E+03</pdfrwt>
<totfact> 0.46438566E+02</totfact>
</mgrwt>
</event>
<event>
 4    1  0.4863180E-002  0.4780127E+03  0.7818608E-02  0.1019683E+00
         21   -1    0    0  503  502  0.00000000000E+00  0.00000000000E+00  0.47462705653E+03  0.47462705653E+03  0.00000000000E+00 0. -1.
         21   -1    0    0  501  503 -0.00000000000E+00 -0.00000000000E+00 -0.69758650481E+03  0.69758650481E+03  0.00000000000E+00 0.  1.
    9000007    1    1    2  501    0 -0.18080166552E+03 -0.18922722415E+03 -0.43774384242E+03  0.64816344867E+03  0.40000000000E+03 0.  1.
   -9000007    1    1    2    0  502  0.18080166552E+03  0.18922722415E+03  0.21478439414E+03  0.52405011266E+03  0.40000000000E+03 0. -1.
<mgrwt>
<rscale>  2 0.47801275E+03</rscale>
<asrwt>0</asrwt>
<pdfrwt beam="1">  1       21 0.73019547E-01 0.47801275E+03</pdfrwt>
<pdfrwt beam="2">  1       21 0.10732100E+00 0.47801275E+03</pdfrwt>
<totfact> 0.98267408E+02</totfact>
</mgrwt>
</event>
<event>
 4    1  0.4863180E-002  0.4629621E+03  0.7818608E-02  0.1023926E+00
         21   -1    0    0  501  502  0.00000000000E+00  0.00000000000E+00  0.22279678470E+04  0.22279678470E+04  0.00000000000E+00 0. -1.
         21   -1    0    0  502  503 -0.00000000000E+00 -0.00000000000E+00 -0.15817599120E+03  0.15817599120E+03  0.00000000000E+00 0.  1.
    9000007    1    1    2  501    0 -0.19404175728E+03  0.12915781573E+03  0.17816931186E+04  0.18408596671E+04  0.40000000000E+03 0. -1.
   -9000007    1    1    2    0  503  0.19404175728E+03 -0.12915781573E+03  0.28809873721E+03  0.54528417116E+03  0.40000000000E+03 0.  1.
<mgrwt>
<rscale>  2 0.46296214E+03</rscale>
<asrwt>0</asrwt>
<pdfrwt beam="1">  1       21 0.34276426E+00 0.46296214E+03</pdfrwt>
<pdfrwt beam="2">  1       21 0.24334769E-01 0.46296214E+03</pdfrwt>
<totfact> 0.23666848E+02</totfact>
</mgrwt>
</event>
<event>
 4    1  0.4863180E-002  0.4963007E+03  0.7818608E-02  0.1014749E+00
         21   -1    0    0  501  502  0.00000000000E+00  0.00000000000E+00  0.21089359358E+04  0.21089359358E+04  0.00000000000E+00 0. -1.
         21   -1    0    0  502  503 -0.00000000000E+00 -0.00000000000E+00 -0.12842486447E+03  0.12842486447E+03  0.00000000000E+00 0. -1.
    9000007    1    1    2  501    0  0.89234836985E+02  0.27991342486E+03  0.13268896261E+04  0.14166687903E+04  0.40000000000E+03 0. -1.
   -9000007    1    1    2    0  503 -0.89234836985E+02 -0.27991342486E+03  0.65362144518E+03  0.82069200992E+03  0.40000000000E+03 0. -1.
<mgrwt>
<rscale>  2 0.49630070E+03</rscale>
<asrwt>0</asrwt>
<pdfrwt beam="1">  1       21 0.32445166E+00 0.49630070E+03</pdfrwt>
<pdfrwt beam="2">  1       21 0.19757673E-01 0.49630070E+03</pdfrwt>
<totfact> 0.44799564E+02</totfact>
</mgrwt>
</event>
<event>
 4    1  0.4863180E-002  0.4590189E+03  0.7818608E-02  0.1025066E+00
         21   -1    0    0  503  502  0.00000000000E+00  0.00000000000E+00  0.12102975031E+04  0.12102975031E+04  0.00000000000E+00 0. -1.
         21   -1    0    0  501  503 -0.00000000000E+00 -0.00000000000E+00 -0.28445231628E+03  0.28445231628E+03  0.00000000000E+00 0. -1.
    9000007    1    1    2  501    0 -0.22416835033E+03 -0.21140265327E+02 -0.26077262556E+01  0.45902631770E+03  0.40000000000E+03 0. -1.
   -9000007    1    1    2    0  502  0.22416835033E+03  0.21140265327E+02  0.92845291306E+03  0.10357235017E+04  0.40000000000E+03 0. -1.
<mgrwt>
<rscale>  2 0.45901891E+03</rscale>
<asrwt>0</asrwt>
<pdfrwt beam="1">  1       21 0.18619961E+00 0.45901891E+03</pdfrwt>
<pdfrwt beam="2">  1       21 0.43761896E-01 0.45901891E+03</pdfrwt>
<totfact> 0.68678892E+02</totfact>
</mgrwt>
</event>
<event>
 4    1  0.4863180E-002  0.4646735E+03  0.7818608E-02  0.1023434E+00
         21   -1    0    0  503  502  0.00000000000E+00  0.00000000000E+00  0.39764289376E+03  0.39764289376E+03  0.00000000000E+00 0. -1.
         21   -1    0    0  501  503 -0.00000000000E+00 -0.00000000000E+00 -0.65947280534E+03  0.65947280534E+03  0.00000000000E+00 0. -1.
    9000007    1    1    2  501    0 -0.21832029795E+03  0.90871750413E+02 -0.35304130782E+03  0.58357483886E+03  0.40000000000E+03 0. -1.
   -9000007    1    1    2    0  502  0.21832029795E+03 -0.90871750413E+02  0.91211396238E+02  0.47354086025E+03  0.40000000000E+03 0. -1.
<mgrwt>
<rscale>  2 0.46467346E+03</rscale>
<asrwt>0</asrwt>
<pdfrwt beam="1">  1       21 0.61175831E-01 0.46467346E+03</pdfrwt>
<pdfrwt beam="2">  1       21 0.10145735E+00 0.46467346E+03</pdfrwt>
<totfact> 0.16847835E+03</totfact>
</mgrwt>
</event>
<event>
 4    1  0.4863180E-002  0.8431742E+03  0.7818608E-02  0.9499544E-01
         21   -1    0    0  501  502  0.00000000000E+00  0.00000000000E+00  0.59148177731E+03  0.59148177731E+03  0.00000000000E+00 0.  1.
         21   -1    0    0  502  503 -0.00000000000E+00 -0.00000000000E+00 -0.15608528965E+04  0.15608528965E+04  0.00000000000E+00 0. -1.
    9000007    1    1    2  501    0 -0.41276562005E+03  0.61690140472E+03  0.31345407123E+02  0.84375667985E+03  0.40000000000E+03 0.  1.
   -9000007    1    1    2    0  503  0.41276562005E+03 -0.61690140472E+03 -0.10007165263E+04  0.13085779939E+04  0.40000000000E+03 0. -1.
<mgrwt>
<rscale>  2 0.84317424E+03</rscale>
<asrwt>0</asrwt>
<pdfrwt beam="1">  1       21 0.90997198E-01 0.84317424E+03</pdfrwt>
<pdfrwt beam="2">  1       21 0.24013121E+00 0.84317424E+03</pdfrwt>
<totfact> 0.51055213E+01</totfact>
</mgrwt>
</event>
<event>
 4    1  0.4863180E-002  0.5800068E+03  0.7818608E-02  0.9947776E-01
         21   -1    0    0  503  502  0.00000000000E+00  0.00000000000E+00  0.19712176251E+04  0.19712176251E+04  0.00000000000E+00 0.  1.
         21   -1    0    0  501  503 -0.00000000000E+00 -0.00000000000E+00 -0.17514882351E+03  0.17514882351E+03  0.00000000000E+00 0. -1.
    9000007    1    1    2  501    0  0.39590543551E+03 -0.14023843512E+03  0.10698403432E+04  0.12169495850E+04  0.40000000000E+03 0.  1.
   -9000007    1    1    2    0  502 -0.39590543551E+03  0.14023843512E+03  0.72622845845E+03  0.92941686364E+03  0.40000000000E+03 0. -1.
<mgrwt>
<rscale>  2 0.58000684E+03</rscale>
<asrwt>0</asrwt>
<pdfrwt beam="1">  1       21 0.30326423E+00 0.58000684E+03</pdfrwt>
<pdfrwt beam="2">  1       21 0.26945974E-01 0.58000684E+03</pdfrwt>
<totfact> 0.31714545E+02</totfact>
</mgrwt>
</event>
<event>
 4    1  0.4863180E-002  0.4284029E+03  0.7818608E-02  0.1034366E+00
         21   -1    0    0  503  502  0.00000000000E+00  0.00000000000E+00  0.28726670642E+03  0.28726670642E+03  0.00000000000E+00 0. -1.
         21   -1    0    0  501  503 -0.00000000000E+00 -0.00000000000E+00 -0.63930961371E+03  0.63930961371E+03  0.00000000000E+00 0. -1.
    9000007    1    1    2  501    0 -0.27605040311E+02 -0.15088745103E+03 -0.16401692785E+03  0.45872716701E+03  0.40000000000E+03 0. -1.
   -9000007    1    1    2    0  502  0.27605040311E+02  0.15088745103E+03 -0.18802597945E+03  0.46784915312E+03  0.40000000000E+03 0. -1.
<mgrwt>
<rscale>  2 0.42840292E+03</rscale>
<asrwt>0</asrwt>
<pdfrwt beam="1">  1       21 0.44194878E-01 0.42840292E+03</pdfrwt>
<pdfrwt beam="2">  1       21 0.98355325E-01 0.42840292E+03</pdfrwt>
<totfact> 0.36937030E+03</totfact>
</mgrwt>
</event>
<event>
 4    1  0.4863180E-002  0.4511306E+03  0.7818608E-02  0.1027385E+00
         21   -1    0    0  503  502  0.00000000000E+00  0.00000000000E+00  0.40177673628E+03  0.40177673628E+03  0.00000000000E+00 0.  1.
         21   -1    0    0  501  503 -0.00000000000E+00 -0.00000000000E+00 -0.80146552765E+03  0.80146552765E+03  0.00000000000E+00 0.  1.
    9000007    1    1    2  501    0  0.13049647387E+03  0.16275602776E+03 -0.56479290047E+03  0.72284844517E+03  0.40000000000E+03 0.  1.
   -9000007    1    1    2    0  502 -0.13049647387E+03 -0.16275602776E+03  0.16510410910E+03  0.48039381876E+03  0.40000000000E+03 0.  1.
<mgrwt>
<rscale>  2 0.45113064E+03</rscale>
<asrwt>0</asrwt>
<pdfrwt beam="1">  1       21 0.61811806E-01 0.45113064E+03</pdfrwt>
<pdfrwt beam="2">  1       21 0.12330239E+00 0.45113064E+03</pdfrwt>
<totfact> 0.10176570E+03</totfact>
</mgrwt>
</event>
<event>
 4    1  0.4863180E-002  0.4178405E+03  0.7818608E-02  0.1037771E+00
         21   -1    0    0  501  502  0.00000000000E+00  0.00000000000E+00  0.48923937379E+03  0.48923937379E+03  0.00000000000E+00 0. -1.
         21   -1    0    0  502  503 -0.00000000000E+00 -0.00000000000E+00 -0.35687985436E+03  0.35687985436E+03  0.00000000000E+00 0. -1.
    9000007    1    1    2  501    0 -0.10551959863E+03  0.58790635086E+02  0.69209043094E+02  0.42353348878E+03  0.40000000000E+03 0. -1.
   -9000007    1    1    2    0  503  0.10551959863E+03 -0.58790635086E+02  0.63150476337E+02  0.42258573938E+03  0.40000000000E+03 0. -1.
<mgrwt>
<rscale>  2 0.41784055E+03</rscale>
<asrwt>0</asrwt>
<pdfrwt beam="1">  1       21 0.75267596E-01 0.41784055E+03</pdfrwt>
<pdfrwt beam="2">  1       21 0.54904593E-01 0.41784055E+03</pdfrwt>
<totfact> 0.43812012E+03</totfact>
</mgrwt>
</event>
<event>
 4    1  0.4863180E-002  0.5691664E+03  0.7818608E-02  0.9971525E-01
         21   -1    0    0  503  502  0.00000000000E+00  0.00000000000E+00  0.20561892315E+04  0.20561892315E+04  0.00000000000E+00 0.  1.
         21   -1    0    0  501  503 -0.00000000000E+00 -0.00000000000E+00 -0.16212615255E+03  0.16212615255E+03  0.00000000000E+00 0. -1.
    9000007    1    1    2  501    0 -0.37592905883E+03  0.15042508232E+03  0.11333985075E+04  0.12682833041E+04  0.40000000000E+03 0.  1.
   -9000007    1    1    2    0  502  0.37592905883E+03 -0.15042508232E+03  0.76066457147E+03  0.95003207996E+03  0.40000000000E+03 0. -1.
<mgrwt>
<rscale>  2 0.56916638E+03</rscale>
<asrwt>0</asrwt>
<pdfrwt beam="1">  1       21 0.31633679E+00 0.56916638E+03</pdfrwt>
<pdfrwt beam="2">  1       21 0.24942486E-01 0.56916638E+03</pdfrwt>
<totfact> 0.30885114E+02</totfact>
</mgrwt>
</event>
<event>
 4    1  0.4863180E-002  0.4695812E+03  0.7818608E-02  0.1022038E+00
         21   -1    0    0  503  502  0.00000000000E+00  0.00000000000E+00  0.39386295182E+03  0.39386295182E+03  0.00000000000E+00 0.  1.
         21   -1    0    0  501  503 -0.00000000000E+00 -0.00000000000E+00 -0.12214155279E+04  0.12214155279E+04  0.00000000000E+00 0.  1.
    9000007    1    1    2  501    0 -0.24640226957E+02  0.24474346658E+03 -0.10081644941E+04  0.11121610281E+04  0.40000000000E+03 0.  1.
   -9000007    1    1    2    0  502  0.24640226957E+02 -0.24474346658E+03  0.18061191802E+03  0.50311745164E+03  0.40000000000E+03 0.  1.
<mgrwt>
<rscale>  2 0.46958120E+03</rscale>
<asrwt>0</asrwt>
<pdfrwt beam="1">  1       21 0.60594302E-01 0.46958120E+03</pdfrwt>
<pdfrwt beam="2">  1       21 0.18791008E+00 0.46958120E+03</pdfrwt>
<totfact> 0.33146500E+02</totfact>
</mgrwt>
</event>
<event>
 4    1  0.4863180E-002  0.4420927E+03  0.7818608E-02  0.1030107E+00
         21   -1    0    0  503  502  0.00000000000E+00  0.00000000000E+00  0.10252174510E+03  0.10252174510E+03  0.00000000000E+00 0. -1.
         21   -1    0    0  501  503 -0.00000000000E+00 -0.00000000000E+00 -0.19113772829E+04  0.19113772829E+04  0.00000000000E+00 0. -1.
    9000007    1    1    2  501    0  0.10322719220E+03 -0.15744881091E+03 -0.85296930382E+03  0.96073025065E+03  0.40000000000E+03 0.  1.
   -9000007    1    1    2    0  502 -0.10322719220E+03  0.15744881091E+03 -0.95588623394E+03  0.10531687773E+04  0.40000000000E+03 0.  1.
<mgrwt>
<rscale>  2 0.44209273E+03</rscale>
<asrwt>0</asrwt>
<pdfrwt beam="1">  1       21 0.15772576E-01 0.44209273E+03</pdfrwt>
<pdfrwt beam="2">  1       21 0.29405804E+00 0.44209273E+03</pdfrwt>
<totfact> 0.10755391E+03</totfact>
</mgrwt>
</event>
<event>
 4    1  0.4863180E-002  0.8246109E+03  0.7818608E-02  0.9525061E-01
         21   -1    0    0  501  502  0.00000000000E+00  0.00000000000E+00  0.53478487945E+03  0.53478487945E+03  0.00000000000E+00 0.  1.
         21   -1    0    0  502  503 -0.00000000000E+00 -0.00000000000E+00 -0.19602656794E+04  0.19602656794E+04  0.00000000000E+00 0.  1.
    9000007    1    1    2  501    0  0.52711682145E+03  0.49206815042E+03  0.26737398939E+02  0.82504429979E+03  0.40000000000E+03 0.  1.
   -9000007    1    1    2    0  503 -0.52711682145E+03 -0.49206815042E+03 -0.14522181989E+04  0.16700062591E+04  0.40000000000E+03 0.  1.
<mgrwt>
<rscale>  2 0.82461094E+03</rscale>
<asrwt>0</asrwt>
<pdfrwt beam="1">  1       21 0.82274598E-01 0.82461094E+03</pdfrwt>
<pdfrwt beam="2">  1       21 0.30157933E+00 0.82461094E+03</pdfrwt>
<totfact> 0.27041424E+01</totfact>
</mgrwt>
</event>
<event>
 4    1  0.4863180E-002  0.5071805E+03  0.7818608E-02  0.1011922E+00
         21   -1    0    0  503  502  0.00000000000E+00  0.00000000000E+00  0.10282932989E+04  0.10282932989E+04  0.00000000000E+00 0.  1.
         21   -1    0    0  501  503 -0.00000000000E+00 -0.00000000000E+00 -0.26369354602E+03  0.26369354602E+03  0.00000000000E+00 0.  1.
    9000007    1    1    2  501    0 -0.24941653973E+03  0.18714556852E+03  0.52867736107E+03  0.73261983744E+03  0.40000000000E+03 0.  1.
   -9000007    1    1    2    0  502  0.24941653973E+03 -0.18714556852E+03  0.23592239182E+03  0.55936700749E+03  0.40000000000E+03 0.  1.
<mgrwt>
<rscale>  2 0.50718051E+03</rscale>
<asrwt>0</asrwt>
<pdfrwt beam="1">  1       21 0.15819897E+00 0.50718051E+03</pdfrwt>
<pdfrwt beam="2">  1       21 0.40568238E-01 0.50718051E+03</pdfrwt>
<totfact> 0.12584153E+03</totfact>
</mgrwt>
</event>
<event>
 4    1  0.4863180E-002  0.5778165E+03  0.7818608E-02  0.9952529E-01
         21   -1    0    0  503  502  0.00000000000E+00  0.00000000000E+00  0.11988832659E+04  0.11988832659E+04  0.00000000000E+00 0.  1.
         21   -1    0    0  501  503 -0.00000000000E+00 -0.00000000000E+00 -0.28295512567E+03  0.28295512567E+03  0.00000000000E+00 0.  1.
    9000007    1    1    2  501    0 -0.72320915465E+02 -0.41065998832E+03  0.55108216052E+03  0.79847572816E+03  0.40000000000E+03 0.  1.
   -9000007    1    1    2    0  502  0.72320915465E+02  0.41065998832E+03  0.36484597971E+03  0.68336266340E+03  0.40000000000E+03 0.  1.
<mgrwt>
<rscale>  2 0.57781653E+03</rscale>
<asrwt>0</asrwt>
<pdfrwt beam="1">  1       21 0.18444358E+00 0.57781653E+03</pdfrwt>
<pdfrwt beam="2">  1       21 0.43531558E-01 0.57781653E+03</pdfrwt>
<totfact> 0.68084143E+02</totfact>
</mgrwt>
</event>
<event>
 4    1  0.4863180E-002  0.4287460E+03  0.7818608E-02  0.1034257E+00
         21   -1    0    0  501  502  0.00000000000E+00  0.00000000000E+00  0.24147634824E+04  0.24147634824E+04  0.00000000000E+00 0. -1.
         21   -1    0    0  502  503 -0.00000000000E+00 -0.00000000000E+00 -0.76775637140E+02  0.76775637140E+02  0.00000000000E+00 0. -1.
    9000007    1    1    2  501    0  0.83193247034E+02  0.13000768388E+03  0.12837035504E+04  0.13534097382E+04  0.40000000000E+03 0. -1.
   -9000007    1    1    2    0  503 -0.83193247034E+02 -0.13000768388E+03  0.10542842949E+04  0.11381293814E+04  0.40000000000E+03 0. -1.
<mgrwt>
<rscale>  2 0.42874598E+03</rscale>
<asrwt>0</asrwt>
<pdfrwt beam="1">  1       21 0.37150202E+00 0.42874598E+03</pdfrwt>
<pdfrwt beam="2">  1       21 0.11811638E-01 0.42874598E+03</pdfrwt>
<totfact> 0.62391960E+02</totfact>
</mgrwt>
</event>
<event>
 4    1  0.4863180E-002  0.4016871E+03  0.7818608E-02  0.1043197E+00
         21   -1    0    0  501  502  0.00000000000E+00  0.00000000000E+00  0.75591860289E+03  0.75591860289E+03  0.00000000000E+00 0.  1.
         21   -1    0    0  502  503 -0.00000000000E+00 -0.00000000000E+00 -0.21486023095E+03  0.21486023095E+03  0.00000000000E+00 0.  1.
    9000007    1    1    2  501    0  0.28536557297E+02  0.23199379670E+02  0.23123695842E+03  0.46349010481E+03  0.40000000000E+03 0.  1.
   -9000007    1    1    2    0  503 -0.28536557297E+02 -0.23199379670E+02  0.30982141352E+03  0.50728872902E+03  0.40000000000E+03 0.  1.
<mgrwt>
<rscale>  2 0.40168712E+03</rscale>
<asrwt>0</asrwt>
<pdfrwt beam="1">  1       21 0.11629517E+00 0.40168712E+03</pdfrwt>
<pdfrwt beam="2">  1       21 0.33055420E-01 0.40168712E+03</pdfrwt>
<totfact> 0.44725565E+03</totfact>
</mgrwt>
</event>
<event>
 4    1  0.4863180E-002  0.4207085E+03  0.7818608E-02  0.1036836E+00
         21   -1    0    0  503  502  0.00000000000E+00  0.00000000000E+00  0.26839484292E+03  0.26839484292E+03  0.00000000000E+00 0.  1.
         21   -1    0    0  501  503 -0.00000000000E+00 -0.00000000000E+00 -0.66712812399E+03  0.66712812399E+03  0.00000000000E+00 0.  1.
    9000007    1    1    2  501    0 -0.10675033628E+03 -0.74833396645E+02 -0.24951578245E+03  0.48913576565E+03  0.40000000000E+03 0.  1.
   -9000007    1    1    2    0  502  0.10675033628E+03  0.74833396645E+02 -0.14921749863E+03  0.44638720126E+03  0.40000000000E+03 0.  1.
<mgrwt>
<rscale>  2 0.42070854E+03</rscale>
<asrwt>0</asrwt>
<pdfrwt beam="1">  1       21 0.41291515E-01 0.42070854E+03</pdfrwt>
<pdfrwt beam="2">  1       21 0.10263509E+00 0.42070854E+03</pdfrwt>
<totfact> 0.38460435E+03</totfact>
</mgrwt>
</event>
<event>
 4    1  0.4863180E-002  0.4523478E+03  0.7818608E-02  0.1027024E+00
         21   -1    0    0  503  502  0.00000000000E+00  0.00000000000E+00  0.37362937424E+03  0.37362937424E+03  0.00000000000E+00 0.  1.
         21   -1    0    0  501  503 -0.00000000000E+00 -0.00000000000E+00 -0.58599860557E+03  0.58599860557E+03  0.00000000000E+00 0.  1.
    9000007    1    1    2  501    0 -0.17441908966E+03 -0.11914916698E+03 -0.22892658824E+03  0.50697724370E+03  0.40000000000E+03 0.  1.
   -9000007    1    1    2    0  502  0.17441908966E+03  0.11914916698E+03  0.16557356920E+02  0.45265073611E+03  0.40000000000E+03 0.  1.
<mgrwt>
<rscale>  2 0.45234781E+03</rscale>
<asrwt>0</asrwt>
<pdfrwt beam="1">  1       21 0.57481442E-01 0.45234781E+03</pdfrwt>
<pdfrwt beam="2">  1       21 0.90153631E-01 0.45234781E+03</pdfrwt>
<totfact> 0.25764000E+03</totfact>
</mgrwt>
</event>
<event>
 4    1  0.4863180E-002  0.4733148E+03  0.7818608E-02  0.1020989E+00
         21   -1    0    0  503  502  0.00000000000E+00  0.00000000000E+00  0.70978051980E+03  0.70978051980E+03  0.00000000000E+00 0. -1.
         21   -1    0    0  501  503 -0.00000000000E+00 -0.00000000000E+00 -0.12270073434E+04  0.12270073434E+04  0.00000000000E+00 0. -1.
    9000007    1    1    2  501    0 -0.17156270254E+03 -0.18599225556E+03 -0.10932126363E+04  0.11912769402E+04  0.40000000000E+03 0. -1.
   -9000007    1    1    2    0  502  0.17156270254E+03  0.18599225556E+03  0.57598581266E+03  0.74551092307E+03  0.40000000000E+03 0. -1.
<mgrwt>
<rscale>  2 0.47331478E+03</rscale>
<asrwt>0</asrwt>
<pdfrwt beam="1">  1       21 0.10919700E+00 0.47331478E+03</pdfrwt>
<pdfrwt beam="2">  1       21 0.18877036E+00 0.47331478E+03</pdfrwt>
<totfact> 0.82828081E+01</totfact>
</mgrwt>
</event>
<event>
 4    1  0.4863180E-002  0.5671155E+03  0.7818608E-02  0.9976082E-01
         21   -1    0    0  503  502  0.00000000000E+00  0.00000000000E+00  0.41912586657E+03  0.41912586657E+03  0.00000000000E+00 0. -1.
         21   -1    0    0  501  503 -0.00000000000E+00 -0.00000000000E+00 -0.76742868802E+03  0.76742868802E+03  0.00000000000E+00 0. -1.
    9000007    1    1    2  501    0  0.39537833794E+03 -0.72773534059E+02 -0.16849902191E+03  0.59161806747E+03  0.40000000000E+03 0. -1.
   -9000007    1    1    2    0  502 -0.39537833794E+03  0.72773534059E+02 -0.17980379954E+03  0.59493648712E+03  0.40000000000E+03 0. -1.
<mgrwt>
<rscale>  2 0.56711552E+03</rscale>
<asrwt>0</asrwt>
<pdfrwt beam="1">  1       21 0.64480903E-01 0.56711552E+03</pdfrwt>
<pdfrwt beam="2">  1       21 0.11806595E+00 0.56711552E+03</pdfrwt>
<totfact> 0.99224963E+02</totfact>
</mgrwt>
</event>
<event>
 4    1  0.4863180E-002  0.4031953E+03  0.7818608E-02  0.1042679E+00
         21   -1    0    0  501  502  0.00000000000E+00  0.00000000000E+00  0.13835324782E+03  0.13835324782E+03  0.00000000000E+00 0.  1.
         21   -1    0    0  502  503 -0.00000000000E+00 -0.00000000000E+00 -0.11792719249E+04  0.11792719249E+04  0.00000000000E+00 0.  1.
    9000007    1    1    2  501    0 -0.50641907806E+02  0.13621537810E+01 -0.56006476098E+03  0.69010071350E+03  0.40000000000E+03 0.  1.
   -9000007    1    1    2    0  503  0.50641907806E+02 -0.13621537810E+01 -0.48085391608E+03  0.62752445921E+03  0.40000000000E+03 0.  1.
<mgrwt>
<rscale>  2 0.40319531E+03</rscale>
<asrwt>0</asrwt>
<pdfrwt beam="1">  1       21 0.21285115E-01 0.40319531E+03</pdfrwt>
<pdfrwt beam="2">  1       21 0.18142645E+00 0.40319531E+03</pdfrwt>
<totfact> 0.31944735E+03</totfact>
</mgrwt>
</event>
<event>
 4    1  0.4863180E-002  0.5073450E+03  0.7818608E-02  0.1011879E+00
         21   -1    0    0  503  502  0.00000000000E+00  0.00000000000E+00  0.12085175189E+04  0.12085175189E+04  0.00000000000E+00 0.  1.
         21   -1    0    0  501  503 -0.00000000000E+00 -0.00000000000E+00 -0.32746036095E+03  0.32746036095E+03  0.00000000000E+00 0.  1.
    9000007    1    1    2  501    0  0.31193641617E+03 -0.97286982330E+01 -0.13545908181E+02  0.50752582883E+03  0.40000000000E+03 0.  1.
   -9000007    1    1    2    0  502 -0.31193641617E+03  0.97286982330E+01  0.89460306609E+03  0.10284520510E+04  0.40000000000E+03 0.  1.
<mgrwt>
<rscale>  2 0.50734503E+03</rscale>
<asrwt>0</asrwt>
<pdfrwt beam="1">  1       21 0.18592577E+00 0.50734503E+03</pdfrwt>
<pdfrwt beam="2">  1       21 0.50378517E-01 0.50734503E+03</pdfrwt>
<totfact> 0.50159459E+02</totfact>
</mgrwt>
</event>
<event>
 4    1  0.4863180E-002  0.7086912E+03  0.7818608E-02  0.9702483E-01
         21   -1    0    0  501  502  0.00000000000E+00  0.00000000000E+00  0.52880433217E+03  0.52880433217E+03  0.00000000000E+00 0. -1.
         21   -1    0    0  502  503 -0.00000000000E+00 -0.00000000000E+00 -0.12982888736E+04  0.12982888736E+04  0.00000000000E+00 0. -1.
    9000007    1    1    2  501    0 -0.53784322282E+03  0.23014752518E+03  0.88580432216E+02  0.71420564871E+03  0.40000000000E+03 0. -1.
   -9000007    1    1    2    0  503  0.53784322282E+03 -0.23014752518E+03 -0.85806497363E+03  0.11128875571E+04  0.40000000000E+03 0. -1.
<mgrwt>
<rscale>  2 0.70869120E+03</rscale>
<asrwt>0</asrwt>
<pdfrwt beam="1">  1       21 0.81354513E-01 0.70869120E+03</pdfrwt>
<pdfrwt beam="2">  1       21 0.19973675E+00 0.70869120E+03</pdfrwt>
<totfact> 0.12812593E+02</totfact>
</mgrwt>
</event>
<event>
 4    1  0.4863180E-002  0.5454757E+03  0.7818608E-02  0.1002547E+00
         21   -1    0    0  501  502  0.00000000000E+00  0.00000000000E+00  0.39876039329E+03  0.39876039329E+03  0.00000000000E+00 0. -1.
         21   -1    0    0  502  503 -0.00000000000E+00 -0.00000000000E+00 -0.74695910113E+03  0.74695910113E+03  0.00000000000E+00 0. -1.
    9000007    1    1    2  501    0 -0.81783025107E+02  0.36173921114E+03 -0.19269872443E+03  0.57851233216E+03  0.40000000000E+03 0. -1.
   -9000007    1    1    2    0  503  0.81783025107E+02 -0.36173921114E+03 -0.15549998341E+03  0.56720716225E+03  0.40000000000E+03 0. -1.
<mgrwt>
<rscale>  2 0.54547568E+03</rscale>
<asrwt>0</asrwt>
<pdfrwt beam="1">  1       21 0.61347753E-01 0.54547568E+03</pdfrwt>
<pdfrwt beam="2">  1       21 0.11491678E+00 0.54547568E+03</pdfrwt>
<totfact> 0.11949290E+03</totfact>
</mgrwt>
</event>
<event>
 4    1  0.4863180E-002  0.5026581E+03  0.7818608E-02  0.1013087E+00
         21   -1    0    0  501  502  0.00000000000E+00  0.00000000000E+00  0.27347859515E+03  0.27347859515E+03  0.00000000000E+00 0.  1.
         21   -1    0    0  502  503 -0.00000000000E+00 -0.00000000000E+00 -0.10066347054E+04  0.10066347054E+04  0.00000000000E+00 0. -1.
    9000007    1    1    2  501    0  0.13303144930E+03  0.27380250050E+03 -0.18307528480E+03  0.53495956453E+03  0.40000000000E+03 0.  1.
   -9000007    1    1    2    0  503 -0.13303144930E+03 -0.27380250050E+03 -0.55008082548E+03  0.74515373604E+03  0.40000000000E+03 0. -1.
<mgrwt>
<rscale>  2 0.50265811E+03</rscale>
<asrwt>0</asrwt>
<pdfrwt beam="1">  1       21 0.42073629E-01 0.50265811E+03</pdfrwt>
<pdfrwt beam="2">  1       21 0.15486688E+00 0.50265811E+03</pdfrwt>
<totfact> 0.12398623E+03</totfact>
</mgrwt>
</event>
<event>
 4    1  0.4863180E-002  0.5180021E+03  0.7818608E-02  0.1009184E+00
         21   -1    0    0  501  502  0.00000000000E+00  0.00000000000E+00  0.98032172735E+03  0.98032172735E+03  0.00000000000E+00 0.  1.
         21   -1    0    0  502  503 -0.00000000000E+00 -0.00000000000E+00 -0.52687303351E+03  0.52687303351E+03  0.00000000000E+00 0. -1.
    9000007    1    1    2  501    0 -0.98477842776E+02  0.31405133516E+03  0.74910196032E+03  0.91075785673E+03  0.40000000000E+03 0.  1.
   -9000007    1    1    2    0  503  0.98477842776E+02 -0.31405133516E+03 -0.29565326648E+03  0.59643690414E+03  0.40000000000E+03 0. -1.
<mgrwt>
<rscale>  2 0.51800205E+03</rscale>
<asrwt>0</asrwt>
<pdfrwt beam="1">  1       21 0.15081873E+00 0.51800205E+03</pdfrwt>
<pdfrwt beam="2">  1       21 0.81057390E-01 0.51800205E+03</pdfrwt>
<totfact> 0.31479831E+02</totfact>
</mgrwt>
</event>
<event>
 4    1  0.4863180E-002  0.4422075E+03  0.7818608E-02  0.1030072E+00
         21   -1    0    0  501  502  0.00000000000E+00  0.00000000000E+00  0.58975689255E+03  0.58975689255E+03  0.00000000000E+00 0. -1.
         21   -1    0    0  502  503 -0.00000000000E+00 -0.00000000000E+00 -0.42005054904E+03  0.42005054904E+03  0.00000000000E+00 0. -1.
    9000007    1    1    2  501    0 -0.38253824003E+02 -0.18461892656E+03  0.31657885113E+03  0.54384710359E+03  0.40000000000E+03 0. -1.
   -9000007    1    1    2    0  503  0.38253824003E+02  0.18461892656E+03 -0.14687250763E+03  0.46596033800E+03  0.40000000000E+03 0. -1.
<mgrwt>
<rscale>  2 0.44220753E+03</rscale>
<asrwt>0</asrwt>
<pdfrwt beam="1">  1       21 0.90731830E-01 0.44220753E+03</pdfrwt>
<pdfrwt beam="2">  1       21 0.64623161E-01 0.44220753E+03</pdfrwt>
<totfact> 0.19692629E+03</totfact>
</mgrwt>
</event>
<event>
 4    1  0.4863180E-002  0.5835961E+03  0.7818608E-02  0.9940036E-01
         21   -1    0    0  501  502  0.00000000000E+00  0.00000000000E+00  0.41822402647E+03  0.41822402647E+03  0.00000000000E+00 0. -1.
         21   -1    0    0  502  503 -0.00000000000E+00 -0.00000000000E+00 -0.84773710616E+03  0.84773710616E+03  0.00000000000E+00 0.  1.
    9000007    1    1    2  501    0  0.42479903143E+03  0.11409816662E+02 -0.89155809386E+02  0.59036697008E+03  0.40000000000E+03 0. -1.
   -9000007    1    1    2    0  503 -0.42479903143E+03 -0.11409816662E+02 -0.34035727031E+03  0.67559416255E+03  0.40000000000E+03 0.  1.
<mgrwt>
<rscale>  2 0.58359609E+03</rscale>
<asrwt>0</asrwt>
<pdfrwt beam="1">  1       21 0.64342158E-01 0.58359609E+03</pdfrwt>
<pdfrwt beam="2">  1       21 0.13042109E+00 0.58359609E+03</pdfrwt>
<totfact> 0.76667301E+02</totfact>
</mgrwt>
</event>
<event>
 4    1  0.4863180E-002  0.4014391E+03  0.7818608E-02  0.1043283E+00
         21   -1    0    0  503  502  0.00000000000E+00  0.00000000000E+00  0.83999205686E+03  0.83999205686E+03  0.00000000000E+00 0. -1.
         21   -1    0    0  501  503 -0.00000000000E+00 -0.00000000000E+00 -0.24648555254E+03  0.24648555254E+03  0.00000000000E+00 0. -1.
    9000007    1    1    2  501    0 -0.32339093243E+02  0.10369798062E+02  0.40995629091E+02  0.40352693995E+03  0.40000000000E+03 0. -1.
   -9000007    1    1    2    0  502  0.32339093243E+02 -0.10369798062E+02  0.55251087523E+03  0.68295066946E+03  0.40000000000E+03 0. -1.
<mgrwt>
<rscale>  2 0.40143910E+03</rscale>
<asrwt>0</asrwt>
<pdfrwt beam="1">  1       21 0.12922955E+00 0.40143910E+03</pdfrwt>
<pdfrwt beam="2">  1       21 0.37920855E-01 0.40143910E+03</pdfrwt>
<totfact> 0.25902732E+03</totfact>
</mgrwt>
</event>
<event>
 4    1  0.4863180E-002  0.4111046E+03  0.7818608E-02  0.1040001E+00
         21   -1    0    0  503  502  0.00000000000E+00  0.00000000000E+00  0.62907182213E+03  0.62907182213E+03  0.00000000000E+00 0.  1.
         21   -1    0    0  501  503 -0.00000000000E+00 -0.00000000000E+00 -0.31843155365E+03  0.31843155365E+03  0.00000000000E+00 0.  1.
    9000007    1    1    2  501    0 -0.67615007411E+02 -0.66597422446E+02 -0.31976238540E+02  0.41234631772E+03  0.40000000000E+03 0.  1.
   -9000007    1    1    2    0  502  0.67615007411E+02  0.66597422446E+02  0.34261650702E+03  0.53515705805E+03  0.40000000000E+03 0.  1.
<mgrwt>
<rscale>  2 0.41110462E+03</rscale>
<asrwt>0</asrwt>
<pdfrwt beam="1">  1       21 0.96780280E-01 0.41110462E+03</pdfrwt>
<pdfrwt beam="2">  1       21 0.48989470E-01 0.41110462E+03</pdfrwt>
<totfact> 0.31127458E+03</totfact>
</mgrwt>
</event>
<event>
 4    1  0.4863180E-002  0.4338094E+03  0.7818608E-02  0.1032663E+00
         21   -1    0    0  501  502  0.00000000000E+00  0.00000000000E+00  0.61166412473E+03  0.61166412473E+03  0.00000000000E+00 0. -1.
         21   -1    0    0  502  503 -0.00000000000E+00 -0.00000000000E+00 -0.13352876203E+04  0.13352876203E+04  0.00000000000E+00 0. -1.
    9000007    1    1    2  501    0  0.16786618731E+03  0.33908177592E+01  0.49217985956E+03  0.65607283791E+03  0.40000000000E+03 0. -1.
   -9000007    1    1    2    0  503 -0.16786618731E+03 -0.33908177592E+01 -0.12158033551E+04  0.12908789071E+04  0.40000000000E+03 0. -1.
<mgrwt>
<rscale>  2 0.43380935E+03</rscale>
<asrwt>0</asrwt>
<pdfrwt beam="1">  1       21 0.94102174E-01 0.43380935E+03</pdfrwt>
<pdfrwt beam="2">  1       21 0.20542886E+00 0.43380935E+03</pdfrwt>
<totfact> 0.94114760E+01</totfact>
</mgrwt>
</event>
<event>
 4    1  0.4863180E-002  0.4867083E+03  0.7818608E-02  0.1017308E+00
         21   -1    0    0  503  502  0.00000000000E+00  0.00000000000E+00  0.42373990587E+03  0.42373990587E+03  0.00000000000E+00 0.  1.
         21   -1    0    0  501  503 -0.00000000000E+00 -0.00000000000E+00 -0.70551904526E+03  0.70551904526E+03  0.00000000000E+00 0. -1.
    9000007    1    1    2  501    0 -0.32437601117E+02  0.27537752110E+03 -0.39816952458E+03  0.62882743849E+03  0.40000000000E+03 0. -1.
   -9000007    1    1    2    0  502  0.32437601117E+02 -0.27537752110E+03  0.11639038518E+03  0.50043151265E+03  0.40000000000E+03 0.  1.
<mgrwt>
<rscale>  2 0.48670831E+03</rscale>
<asrwt>0</asrwt>
<pdfrwt beam="1">  1       21 0.65190755E-01 0.48670831E+03</pdfrwt>
<pdfrwt beam="2">  1       21 0.10854139E+00 0.48670831E+03</pdfrwt>
<totfact> 0.12291312E+03</totfact>
</mgrwt>
</event>
<event>
 4    1  0.4863180E-002  0.5167623E+03  0.7818608E-02  0.1009494E+00
         21   -1    0    0  501  502  0.00000000000E+00  0.00000000000E+00  0.94424464464E+03  0.94424464464E+03  0.00000000000E+00 0. -1.
         21   -1    0    0  502  503 -0.00000000000E+00 -0.00000000000E+00 -0.31877638441E+03  0.31877638441E+03  0.00000000000E+00 0. -1.
    9000007    1    1    2  501    0 -0.43909849823E+02 -0.32421472387E+03  0.52485174564E+03  0.73655455805E+03  0.40000000000E+03 0. -1.
   -9000007    1    1    2    0  503  0.43909849823E+02  0.32421472387E+03  0.10061651458E+03  0.52646647100E+03  0.40000000000E+03 0. -1.
<mgrwt>
<rscale>  2 0.51676229E+03</rscale>
<asrwt>0</asrwt>
<pdfrwt beam="1">  1       21 0.14526841E+00 0.51676229E+03</pdfrwt>
<pdfrwt beam="2">  1       21 0.49042521E-01 0.51676229E+03</pdfrwt>
<totfact> 0.10638851E+03</totfact>
</mgrwt>
</event>
<event>
 4    1  0.4863180E-002  0.4248511E+03  0.7818608E-02  0.1035499E+00
         21   -1    0    0  501  502  0.00000000000E+00  0.00000000000E+00  0.41095768751E+03  0.41095768751E+03  0.00000000000E+00 0.  1.
         21   -1    0    0  502  503 -0.00000000000E+00 -0.00000000000E+00 -0.76674442769E+03  0.76674442769E+03  0.00000000000E+00 0.  1.
    9000007    1    1    2  501    0  0.70345440143E+02  0.12469959695E+03  0.20696931806E+03  0.47258308163E+03  0.40000000000E+03 0.  1.
   -9000007    1    1    2    0  503 -0.70345440143E+02 -0.12469959695E+03 -0.56275605824E+03  0.70511903358E+03  0.40000000000E+03 0.  1.
<mgrwt>
<rscale>  2 0.42485112E+03</rscale>
<asrwt>0</asrwt>
<pdfrwt beam="1">  1       21 0.63224260E-01 0.42485112E+03</pdfrwt>
<pdfrwt beam="2">  1       21 0.11796068E+00 0.42485112E+03</pdfrwt>
<totfact> 0.10959685E+03</totfact>
</mgrwt>
</event>
<event>
 4    1  0.4863180E-002  0.6133563E+03  0.7818608E-02  0.9878077E-01
         21   -1    0    0  503  502  0.00000000000E+00  0.00000000000E+00  0.80941350043E+03  0.80941350043E+03  0.00000000000E+00 0. -1.
         21   -1    0    0  501  503 -0.00000000000E+00 -0.00000000000E+00 -0.55812450513E+03  0.55812450513E+03  0.00000000000E+00 0.  1.
    9000007    1    1    2  501    0 -0.33253932967E+03 -0.32499781732E+03 -0.15397583914E+03  0.63238797117E+03  0.40000000000E+03 0.  1.
   -9000007    1    1    2    0  502  0.33253932967E+03  0.32499781732E+03  0.40526483443E+03  0.73515003439E+03  0.40000000000E+03 0. -1.
<mgrwt>
<rscale>  2 0.61335633E+03</rscale>
<asrwt>0</asrwt>
<pdfrwt beam="1">  1       21 0.12452515E+00 0.61335633E+03</pdfrwt>
<pdfrwt beam="2">  1       21 0.85865308E-01 0.61335633E+03</pdfrwt>
<totfact> 0.44182645E+02</totfact>
</mgrwt>
</event>
<event>
 4    1  0.4863180E-002  0.5811717E+03  0.7818608E-02  0.9945257E-01
         21   -1    0    0  501  502  0.00000000000E+00  0.00000000000E+00  0.72128974167E+03  0.72128974167E+03  0.00000000000E+00 0.  1.
         21   -1    0    0  502  503 -0.00000000000E+00 -0.00000000000E+00 -0.95431185427E+03  0.95431185427E+03  0.00000000000E+00 0. -1.
    9000007    1    1    2  501    0  0.28331840524E+03  0.31223587282E+03  0.48139241519E+03  0.75465171862E+03  0.40000000000E+03 0.  1.
   -9000007    1    1    2    0  503 -0.28331840524E+03 -0.31223587282E+03 -0.71441452779E+03  0.92094987732E+03  0.40000000000E+03 0. -1.
<mgrwt>
<rscale>  2 0.58117171E+03</rscale>
<asrwt>0</asrwt>
<pdfrwt beam="1">  1       21 0.11096765E+00 0.58117171E+03</pdfrwt>
<pdfrwt beam="2">  1       21 0.14681721E+00 0.58117171E+03</pdfrwt>
<totfact> 0.15473666E+02</totfact>
</mgrwt>
</event>
<event>
 4    1  0.4863180E-002  0.4382705E+03  0.7818608E-02  0.1031279E+00
         21   -1    0    0  501  502  0.00000000000E+00  0.00000000000E+00  0.15939206391E+04  0.15939206391E+04  0.00000000000E+00 0. -1.
         21   -1    0    0  502  503 -0.00000000000E+00 -0.00000000000E+00 -0.26136667032E+03  0.26136667032E+03  0.00000000000E+00 0. -1.
    9000007    1    1    2  501    0  0.12966965135E+03  0.12355893986E+03  0.13472768932E+04  0.14167695850E+04  0.40000000000E+03 0. -1.
   -9000007    1    1    2    0  503 -0.12966965135E+03 -0.12355893986E+03 -0.14722924417E+02  0.43851772439E+03  0.40000000000E+03 0. -1.
<mgrwt>
<rscale>  2 0.43827050E+03</rscale>
<asrwt>0</asrwt>
<pdfrwt beam="1">  1       21 0.24521855E+00 0.43827050E+03</pdfrwt>
<pdfrwt beam="2">  1       21 0.40210258E-01 0.43827050E+03</pdfrwt>
<totfact> 0.34303333E+02</totfact>
</mgrwt>
</event>
<event>
 4    1  0.4863180E-002  0.4846484E+03  0.7818608E-02  0.1017865E+00
         21   -1    0    0  501  502  0.00000000000E+00  0.00000000000E+00  0.67443889642E+03  0.67443889642E+03  0.00000000000E+00 0.  1.
         21   -1    0    0  502  503 -0.00000000000E+00 -0.00000000000E+00 -0.43424310834E+03  0.43424310834E+03  0.00000000000E+00 0.  1.
    9000007    1    1    2  501    0  0.79404969024E+02 -0.26187571034E+03  0.36675993854E+03  0.60778029689E+03  0.40000000000E+03 0.  1.
   -9000007    1    1    2    0  503 -0.79404969024E+02  0.26187571034E+03 -0.12656415045E+03  0.50090170787E+03  0.40000000000E+03 0.  1.
<mgrwt>
<rscale>  2 0.48464836E+03</rscale>
<asrwt>0</asrwt>
<pdfrwt beam="1">  1       21 0.10375983E+00 0.48464836E+03</pdfrwt>
<pdfrwt beam="2">  1       21 0.66806632E-01 0.48464836E+03</pdfrwt>
<totfact> 0.13018060E+03</totfact>
</mgrwt>
</event>
<event>
 4    1  0.4863180E-002  0.4909497E+03  0.7818608E-02  0.1016169E+00
         21   -1    0    0  501  502  0.00000000000E+00  0.00000000000E+00  0.26038594712E+03  0.26038594712E+03  0.00000000000E+00 0. -1.
         21   -1    0    0  502  503 -0.00000000000E+00 -0.00000000000E+00 -0.94945798845E+03  0.94945798845E+03  0.00000000000E+00 0. -1.
    9000007    1    1    2  501    0 -0.23082715077E+03  0.16658455856E+03 -0.24878667467E+03  0.55038749820E+03  0.40000000000E+03 0. -1.
   -9000007    1    1    2    0  503  0.23082715077E+03 -0.16658455856E+03 -0.44028536667E+03  0.65945643737E+03  0.40000000000E+03 0. -1.
<mgrwt>
<rscale>  2 0.49094968E+03</rscale>
<asrwt>0</asrwt>
<pdfrwt beam="1">  1       21 0.40059377E-01 0.49094968E+03</pdfrwt>
<pdfrwt beam="2">  1       21 0.14607046E+00 0.49094968E+03</pdfrwt>
<totfact> 0.16167833E+03</totfact>
</mgrwt>
</event>
<event>
 4    1  0.4863180E-002  0.4135523E+03  0.7818608E-02  0.1039185E+00
         21   -1    0    0  501  502  0.00000000000E+00  0.00000000000E+00  0.29776358800E+03  0.29776358800E+03  0.00000000000E+00 0. -1.
         21   -1    0    0  502  503 -0.00000000000E+00 -0.00000000000E+00 -0.58922540516E+03  0.58922540516E+03  0.00000000000E+00 0. -1.
    9000007    1    1    2  501    0 -0.24424589839E+02  0.10212227144E+03 -0.75304338450E+02  0.42035254526E+03  0.40000000000E+03 0.  1.
   -9000007    1    1    2    0  503  0.24424589839E+02 -0.10212227144E+03 -0.21615747870E+03  0.46663644790E+03  0.40000000000E+03 0.  1.
<mgrwt>
<rscale>  2 0.41355232E+03</rscale>
<asrwt>0</asrwt>
<pdfrwt beam="1">  1       21 0.45809783E-01 0.41355232E+03</pdfrwt>
<pdfrwt beam="2">  1       21 0.90650061E-01 0.41355232E+03</pdfrwt>
<totfact> 0.41868138E+03</totfact>
</mgrwt>
</event>
<event>
 4    1  0.4863180E-002  0.4286017E+03  0.7818608E-02  0.1034303E+00
         21   -1    0    0  503  502  0.00000000000E+00  0.00000000000E+00  0.63221353857E+03  0.63221353857E+03  0.00000000000E+00 0. -1.
         21   -1    0    0  501  503 -0.00000000000E+00 -0.00000000000E+00 -0.31097571315E+03  0.31097571315E+03  0.00000000000E+00 0. -1.
    9000007    1    1    2  501    0  0.73384435760E+02 -0.13532969277E+03  0.39801346080E+02  0.43044575536E+03  0.40000000000E+03 0. -1.
   -9000007    1    1    2    0  502 -0.73384435760E+02  0.13532969277E+03  0.28143647934E+03  0.51274349636E+03  0.40000000000E+03 0. -1.
<mgrwt>
<rscale>  2 0.42860168E+03</rscale>
<asrwt>0</asrwt>
<pdfrwt beam="1">  1       21 0.97263621E-01 0.42860168E+03</pdfrwt>
<pdfrwt beam="2">  1       21 0.47842418E-01 0.42860168E+03</pdfrwt>
<totfact> 0.32123018E+03</totfact>
</mgrwt>
</event>
<event>
 4    1  0.4863180E-002  0.4137152E+03  0.7818608E-02  0.1039131E+00
         21   -1    0    0  501  502  0.00000000000E+00  0.00000000000E+00  0.11723983593E+04  0.11723983593E+04  0.00000000000E+00 0. -1.
         21   -1    0    0  502  503 -0.00000000000E+00 -0.00000000000E+00 -0.16856258481E+03  0.16856258481E+03  0.00000000000E+00 0. -1.
    9000007    1    1    2  501    0  0.10561928800E+03  0.21949782119E+01  0.74726519235E+03  0.85414607628E+03  0.40000000000E+03 0. -1.
   -9000007    1    1    2    0  503 -0.10561928800E+03 -0.21949782119E+01  0.25657058216E+03  0.48681486784E+03  0.40000000000E+03 0. -1.
<mgrwt>
<rscale>  2 0.41371518E+03</rscale>
<asrwt>0</asrwt>
<pdfrwt beam="1">  1       21 0.18036897E+00 0.41371518E+03</pdfrwt>
<pdfrwt beam="2">  1       21 0.25932706E-01 0.41371518E+03</pdfrwt>
<totfact> 0.22092125E+03</totfact>
</mgrwt>
</event>
<event>
 4    1  0.4863180E-002  0.5849482E+03  0.7818608E-02  0.9937135E-01
         21   -1    0    0  501  502  0.00000000000E+00  0.00000000000E+00  0.15248430822E+03  0.15248430822E+03  0.00000000000E+00 0.  1.
         21   -1    0    0  502  503 -0.00000000000E+00 -0.00000000000E+00 -0.22748062017E+04  0.22748062017E+04  0.00000000000E+00 0. -1.
    9000007    1    1    2  501    0 -0.37331923347E+02 -0.42517134439E+03 -0.91977024590E+03  0.10900191053E+04  0.40000000000E+03 0.  1.
   -9000007    1    1    2    0  503  0.37331923347E+02  0.42517134439E+03 -0.12025516475E+04  0.13372714046E+04  0.40000000000E+03 0. -1.
<mgrwt>
<rscale>  2 0.58494816E+03</rscale>
<asrwt>0</asrwt>
<pdfrwt beam="1">  1       21 0.23459124E-01 0.58494816E+03</pdfrwt>
<pdfrwt beam="2">  1       21 0.34997020E+00 0.58494816E+03</pdfrwt>
<totfact> 0.21472668E+02</totfact>
</mgrwt>
</event>
<event>
 4    1  0.4863180E-002  0.4133449E+03  0.7818608E-02  0.1039254E+00
         21   -1    0    0  501  502  0.00000000000E+00  0.00000000000E+00  0.34831860565E+03  0.34831860565E+03  0.00000000000E+00 0.  1.
         21   -1    0    0  502  503 -0.00000000000E+00 -0.00000000000E+00 -0.58764414026E+03  0.58764414026E+03  0.00000000000E+00 0.  1.
    9000007    1    1    2  501    0 -0.67169287849E+02 -0.79638556182E+02  0.70600821759E+02  0.41933100159E+03  0.40000000000E+03 0.  1.
   -9000007    1    1    2    0  503  0.67169287849E+02  0.79638556182E+02 -0.30992635637E+03  0.51663174432E+03  0.40000000000E+03 0.  1.
<mgrwt>
<rscale>  2 0.41334491E+03</rscale>
<asrwt>0</asrwt>
<pdfrwt beam="1">  1       21 0.53587478E-01 0.41334491E+03</pdfrwt>
<pdfrwt beam="2">  1       21 0.90406791E-01 0.41334491E+03</pdfrwt>
<totfact> 0.30217097E+03</totfact>
</mgrwt>
</event>
<event>
 4    1  0.4863180E-002  0.4859397E+03  0.7818608E-02  0.1017515E+00
         21   -1    0    0  501  502  0.00000000000E+00  0.00000000000E+00  0.25436890598E+04  0.25436890598E+04  0.00000000000E+00 0. -1.
         21   -1    0    0  502  503 -0.00000000000E+00 -0.00000000000E+00 -0.22107229362E+03  0.22107229362E+03  0.00000000000E+00 0. -1.
    9000007    1    1    2  501    0 -0.26079737409E+03 -0.90123019819E+02  0.22141708048E+04  0.22668678351E+04  0.40000000000E+03 0. -1.
   -9000007    1    1    2    0  503  0.26079737409E+03  0.90123019819E+02  0.10844596138E+03  0.49789351831E+03  0.40000000000E+03 0. -1.
<mgrwt>
<rscale>  2 0.48593974E+03</rscale>
<asrwt>0</asrwt>
<pdfrwt beam="1">  1       21 0.39133676E+00 0.48593974E+03</pdfrwt>
<pdfrwt beam="2">  1       21 0.34011124E-01 0.48593974E+03</pdfrwt>
<totfact> 0.59824327E+01</totfact>
</mgrwt>
</event>
<event>
 4    1  0.4863180E-002  0.6739786E+03  0.7818608E-02  0.9762797E-01
         21   -1    0    0  501  502  0.00000000000E+00  0.00000000000E+00  0.10765929769E+04  0.10765929769E+04  0.00000000000E+00 0. -1.
         21   -1    0    0  502  503 -0.00000000000E+00 -0.00000000000E+00 -0.74538017715E+03  0.74538017715E+03  0.00000000000E+00 0.  1.
    9000007    1    1    2  501    0  0.71559011945E+02  0.53770476514E+03  0.76571052284E+03  0.10200782869E+04  0.40000000000E+03 0. -1.
   -9000007    1    1    2    0  503 -0.71559011945E+02 -0.53770476514E+03 -0.43449772306E+03  0.80189486717E+03  0.40000000000E+03 0.  1.
<mgrwt>
<rscale>  2 0.67397857E+03</rscale>
<asrwt>0</asrwt>
<pdfrwt beam="1">  1       21 0.16562969E+00 0.67397857E+03</pdfrwt>
<pdfrwt beam="2">  1       21 0.11467387E+00 0.67397857E+03</pdfrwt>
<totfact> 0.98292125E+01</totfact>
</mgrwt>
</event>
<event>
 4    1  0.4863180E-002  0.5744923E+03  0.7818608E-02  0.9959787E-01
         21   -1    0    0  501  502  0.00000000000E+00  0.00000000000E+00  0.80324213861E+03  0.80324213861E+03  0.00000000000E+00 0. -1.
         21   -1    0    0  502  503 -0.00000000000E+00 -0.00000000000E+00 -0.41182629933E+03  0.41182629933E+03  0.00000000000E+00 0.  1.
    9000007    1    1    2  501    0  0.32739148771E+03 -0.25071142370E+03  0.22472915948E+03  0.61688297052E+03  0.40000000000E+03 0.  1.
   -9000007    1    1    2    0  503 -0.32739148771E+03  0.25071142370E+03  0.16668667980E+03  0.59818546741E+03  0.40000000000E+03 0. -1.
<mgrwt>
<rscale>  2 0.57449230E+03</rscale>
<asrwt>0</asrwt>
<pdfrwt beam="1">  1       21 0.12357571E+00 0.57449230E+03</pdfrwt>
<pdfrwt beam="2">  1       21 0.63357892E-01 0.57449230E+03</pdfrwt>
<totfact> 0.91560632E+02</totfact>
</mgrwt>
</event>
<event>
 4    1  0.4863180E-002  0.4325986E+03  0.7818608E-02  0.1033042E+00
         21   -1    0    0  503  502  0.00000000000E+00  0.00000000000E+00  0.22007864982E+03  0.22007864982E+03  0.00000000000E+00 0.  1.
         21   -1    0    0  501  503 -0.00000000000E+00 -0.00000000000E+00 -0.17124544724E+04  0.17124544724E+04  0.00000000000E+00 0. -1.
    9000007    1    1    2  501    0  0.67657857425E+02  0.15021310372E+03 -0.14317866896E+04  0.14957121003E+04  0.40000000000E+03 0. -1.
   -9000007    1    1    2    0  502 -0.67657857425E+02 -0.15021310372E+03 -0.60589132928E+02  0.43682102196E+03  0.40000000000E+03 0.  1.
<mgrwt>
<rscale>  2 0.43259862E+03</rscale>
<asrwt>0</asrwt>
<pdfrwt beam="1">  1       21 0.33858253E-01 0.43259862E+03</pdfrwt>
<pdfrwt beam="2">  1       21 0.26345454E+00 0.43259862E+03</pdfrwt>
<totfact> 0.37787098E+02</totfact>
</mgrwt>
</event>
<event>
 4    1  0.4863180E-002  0.4091450E+03  0.7818608E-02  0.1040658E+00
         21   -1    0    0  501  502  0.00000000000E+00  0.00000000000E+00  0.74307609928E+03  0.74307609928E+03  0.00000000000E+00 0. -1.
         21   -1    0    0  502  503 -0.00000000000E+00 -0.00000000000E+00 -0.27590512136E+03  0.27590512136E+03  0.00000000000E+00 0. -1.
    9000007    1    1    2  501    0 -0.63209692912E+02 -0.58345527430E+02  0.45182949816E+03  0.60954865372E+03  0.40000000000E+03 0.  1.
   -9000007    1    1    2    0  503  0.63209692912E+02  0.58345527430E+02  0.15341479765E+02  0.40943256691E+03  0.40000000000E+03 0.  1.
<mgrwt>
<rscale>  2 0.40914504E+03</rscale>
<asrwt>0</asrwt>
<pdfrwt beam="1">  1       21 0.11431940E+00 0.40914504E+03</pdfrwt>
<pdfrwt beam="2">  1       21 0.42446942E-01 0.40914504E+03</pdfrwt>
<totfact> 0.27958782E+03</totfact>
</mgrwt>
</event>
<event>
 4    1  0.4863180E-002  0.4035614E+03  0.7818608E-02  0.1042553E+00
         21   -1    0    0  501  502  0.00000000000E+00  0.00000000000E+00  0.11531468455E+03  0.11531468455E+03  0.00000000000E+00 0. -1.
         21   -1    0    0  502  503 -0.00000000000E+00 -0.00000000000E+00 -0.14283115135E+04  0.14283115135E+04  0.00000000000E+00 0. -1.
    9000007    1    1    2  501    0  0.51005353268E+02 -0.16131668570E+02 -0.57484362084E+03  0.70235814597E+03  0.40000000000E+03 0. -1.
   -9000007    1    1    2    0  503 -0.51005353268E+02  0.16131668570E+02 -0.73815320812E+03  0.84126805208E+03  0.40000000000E+03 0. -1.
<mgrwt>
<rscale>  2 0.40356137E+03</rscale>
<asrwt>0</asrwt>
<pdfrwt beam="1">  1       21 0.17740722E-01 0.40356137E+03</pdfrwt>
<pdfrwt beam="2">  1       21 0.21974022E+00 0.40356137E+03</pdfrwt>
<totfact> 0.25092128E+03</totfact>
</mgrwt>
</event>
<event>
 4    1  0.4863180E-002  0.5908064E+03  0.7818608E-02  0.9924666E-01
         21   -1    0    0  503  502  0.00000000000E+00  0.00000000000E+00  0.66133801099E+03  0.66133801099E+03  0.00000000000E+00 0.  1.
         21   -1    0    0  501  503 -0.00000000000E+00 -0.00000000000E+00 -0.59811883428E+03  0.59811883428E+03  0.00000000000E+00 0. -1.
    9000007    1    1    2  501    0 -0.43441312627E+03 -0.18368135572E+02 -0.18431642053E+03  0.61888988969E+03  0.40000000000E+03 0. -1.
   -9000007    1    1    2    0  502  0.43441312627E+03  0.18368135572E+02  0.24753559723E+03  0.64056695558E+03  0.40000000000E+03 0.  1.
<mgrwt>
<rscale>  2 0.59080636E+03</rscale>
<asrwt>0</asrwt>
<pdfrwt beam="1">  1       21 0.10174431E+00 0.59080636E+03</pdfrwt>
<pdfrwt beam="2">  1       21 0.92018282E-01 0.59080636E+03</pdfrwt>
<totfact> 0.62800985E+02</totfact>
</mgrwt>
</event>
<event>
 4    1  0.4863180E-002  0.4153520E+03  0.7818608E-02  0.1038590E+00
         21   -1    0    0  503  502  0.00000000000E+00  0.00000000000E+00  0.26191381358E+03  0.26191381358E+03  0.00000000000E+00 0.  1.
         21   -1    0    0  501  503 -0.00000000000E+00 -0.00000000000E+00 -0.80821901756E+03  0.80821901756E+03  0.00000000000E+00 0.  1.
    9000007    1    1    2  501    0 -0.40522686413E+00  0.11187996191E+03 -0.50330790156E+03  0.65256121081E+03  0.40000000000E+03 0.  1.
   -9000007    1    1    2    0  502  0.40522686413E+00 -0.11187996191E+03 -0.42997302419E+02  0.41757162032E+03  0.40000000000E+03 0.  1.
<mgrwt>
<rscale>  2 0.41535201E+03</rscale>
<asrwt>0</asrwt>
<pdfrwt beam="1">  1       21 0.40294433E-01 0.41535201E+03</pdfrwt>
<pdfrwt beam="2">  1       21 0.12434139E+00 0.41535201E+03</pdfrwt>
<totfact> 0.25111819E+03</totfact>
</mgrwt>
</event>
<event>
 4    1  0.4863180E-002  0.4738567E+03  0.7818608E-02  0.1020837E+00
         21   -1    0    0  501  502  0.00000000000E+00  0.00000000000E+00  0.46811251736E+03  0.46811251736E+03  0.00000000000E+00 0.  1.
         21   -1    0    0  502  503 -0.00000000000E+00 -0.00000000000E+00 -0.52097756731E+03  0.52097756731E+03  0.00000000000E+00 0.  1.
    9000007    1    1    2  501    0  0.24652554252E+03 -0.61362229237E+02  0.11282030127E+03  0.48710223431E+03  0.40000000000E+03 0.  1.
   -9000007    1    1    2    0  503 -0.24652554252E+03  0.61362229237E+02 -0.16568535122E+03  0.50198785035E+03  0.40000000000E+03 0.  1.
<mgrwt>
<rscale>  2 0.47385669E+03</rscale>
<asrwt>0</asrwt>
<pdfrwt beam="1">  1       21 0.72017311E-01 0.47385669E+03</pdfrwt>
<pdfrwt beam="2">  1       21 0.80150395E-01 0.47385669E+03</pdfrwt>
<totfact> 0.20411628E+03</totfact>
</mgrwt>
</event>
<event>
 4    1  0.4863180E-002  0.4493160E+03  0.7818608E-02  0.1027926E+00
         21   -1    0    0  501  502  0.00000000000E+00  0.00000000000E+00  0.95752653965E+03  0.95752653965E+03  0.00000000000E+00 0.  1.
         21   -1    0    0  502  503 -0.00000000000E+00 -0.00000000000E+00 -0.80511463752E+03  0.80511463752E+03  0.00000000000E+00 0.  1.
    9000007    1    1    2  501    0 -0.69715350411E+02 -0.19241782864E+03  0.83338514121E+03  0.94679229214E+03  0.40000000000E+03 0.  1.
   -9000007    1    1    2    0  503  0.69715350411E+02  0.19241782864E+03 -0.68097323909E+03  0.81584888503E+03  0.40000000000E+03 0.  1.
<mgrwt>
<rscale>  2 0.44931598E+03</rscale>
<asrwt>0</asrwt>
<pdfrwt beam="1">  1       21 0.14731178E+00 0.44931598E+03</pdfrwt>
<pdfrwt beam="2">  1       21 0.12386379E+00 0.44931598E+03</pdfrwt>
<totfact> 0.12343697E+02</totfact>
</mgrwt>
</event>
<event>
 4    1  0.4863180E-002  0.4338799E+03  0.7818608E-02  0.1032641E+00
         21   -1    0    0  503  502  0.00000000000E+00  0.00000000000E+00  0.36281520529E+03  0.36281520529E+03  0.00000000000E+00 0. -1.
         21   -1    0    0  501  503 -0.00000000000E+00 -0.00000000000E+00 -0.56436885073E+03  0.56436885073E+03  0.00000000000E+00 0. -1.
    9000007    1    1    2  501    0 -0.14636561939E+03 -0.82637196325E+02 -0.23241522525E+03  0.49220792119E+03  0.40000000000E+03 0. -1.
   -9000007    1    1    2    0  502  0.14636561939E+03  0.82637196325E+02  0.30861579809E+02  0.43497613482E+03  0.40000000000E+03 0. -1.
<mgrwt>
<rscale>  2 0.43387994E+03</rscale>
<asrwt>0</asrwt>
<pdfrwt beam="1">  1       21 0.55817724E-01 0.43387994E+03</pdfrwt>
<pdfrwt beam="2">  1       21 0.86825977E-01 0.43387994E+03</pdfrwt>
<totfact> 0.30208172E+03</totfact>
</mgrwt>
</event>
<event>
 4    1  0.4863180E-002  0.4534183E+03  0.7818608E-02  0.1026708E+00
         21   -1    0    0  501  502  0.00000000000E+00  0.00000000000E+00  0.13098450299E+03  0.13098450299E+03  0.00000000000E+00 0.  1.
         21   -1    0    0  502  503 -0.00000000000E+00 -0.00000000000E+00 -0.26534326435E+04  0.26534326435E+04  0.00000000000E+00 0. -1.
    9000007    1    1    2  501    0 -0.30371481021E+02  0.21134262406E+03 -0.37143052281E+03  0.58613033097E+03  0.40000000000E+03 0.  1.
   -9000007    1    1    2    0  503  0.30371481021E+02 -0.21134262406E+03 -0.21510176177E+04  0.21982868155E+04  0.40000000000E+03 0. -1.
<mgrwt>
<rscale>  2 0.45341827E+03</rscale>
<asrwt>0</asrwt>
<pdfrwt beam="1">  1       21 0.20151463E-01 0.45341827E+03</pdfrwt>
<pdfrwt beam="2">  1       21 0.40822038E+00 0.45341827E+03</pdfrwt>
<totfact> 0.13290277E+02</totfact>
</mgrwt>
</event>
<event>
 4    1  0.4863180E-002  0.4235517E+03  0.7818608E-02  0.1035917E+00
         21   -1    0    0  503  502  0.00000000000E+00  0.00000000000E+00  0.23827273815E+03  0.23827273815E+03  0.00000000000E+00 0.  1.
         21   -1    0    0  501  503 -0.00000000000E+00 -0.00000000000E+00 -0.99742768671E+03  0.99742768671E+03  0.00000000000E+00 0.  1.
    9000007    1    1    2  501    0 -0.13092937797E+03 -0.47471264658E+02 -0.68549526013E+03  0.80579139649E+03  0.40000000000E+03 0.  1.
   -9000007    1    1    2    0  502  0.13092937797E+03  0.47471264658E+02 -0.73659688424E+02  0.42990902838E+03  0.40000000000E+03 0.  1.
<mgrwt>
<rscale>  2 0.42355168E+03</rscale>
<asrwt>0</asrwt>
<pdfrwt beam="1">  1       21 0.36657345E-01 0.42355168E+03</pdfrwt>
<pdfrwt beam="2">  1       21 0.15345041E+00 0.42355168E+03</pdfrwt>
<totfact> 0.17425077E+03</totfact>
</mgrwt>
</event>
<event>
 4    1  0.4863180E-002  0.4295543E+03  0.7818608E-02  0.1034001E+00
         21   -1    0    0  501  502  0.00000000000E+00  0.00000000000E+00  0.93808338226E+03  0.93808338226E+03  0.00000000000E+00 0.  1.
         21   -1    0    0  502  503 -0.00000000000E+00 -0.00000000000E+00 -0.20635245311E+03  0.20635245311E+03  0.00000000000E+00 0.  1.
    9000007    1    1    2  501    0 -0.14197239627E+03  0.66036126901E+02  0.48965190246E+03  0.65136465743E+03  0.40000000000E+03 0. -1.
   -9000007    1    1    2    0  503  0.14197239627E+03 -0.66036126901E+02  0.24207902668E+03  0.49307117794E+03  0.40000000000E+03 0. -1.
<mgrwt>
<rscale>  2 0.42955434E+03</rscale>
<asrwt>0</asrwt>
<pdfrwt beam="1">  1       21 0.14432052E+00 0.42955434E+03</pdfrwt>
<pdfrwt beam="2">  1       21 0.31746532E-01 0.42955434E+03</pdfrwt>
<totfact> 0.27416954E+03</totfact>
</mgrwt>
</event>
<event>
 4    1  0.4863180E-002  0.5281167E+03  0.7818608E-02  0.1006690E+00
         21   -1    0    0  501  502  0.00000000000E+00  0.00000000000E+00  0.33909105219E+03  0.33909105219E+03  0.00000000000E+00 0. -1.
         21   -1    0    0  502  503 -0.00000000000E+00 -0.00000000000E+00 -0.14030669669E+04  0.14030669669E+04  0.00000000000E+00 0. -1.
    9000007    1    1    2  501    0 -0.19623399963E+03 -0.28354803810E+03  0.28335913177E+02  0.52887635275E+03  0.40000000000E+03 0. -1.
   -9000007    1    1    2    0  503  0.19623399963E+03  0.28354803810E+03 -0.10923118279E+04  0.12132816664E+04  0.40000000000E+03 0. -1.
<mgrwt>
<rscale>  2 0.52811672E+03</rscale>
<asrwt>0</asrwt>
<pdfrwt beam="1">  1       21 0.52167854E-01 0.52811672E+03</pdfrwt>
<pdfrwt beam="2">  1       21 0.21585646E+00 0.52811672E+03</pdfrwt>
<totfact> 0.29066524E+02</totfact>
</mgrwt>
</event>
<event>
 4    1  0.4863180E-002  0.4487141E+03  0.7818608E-02  0.1028106E+00
         21   -1    0    0  501  502  0.00000000000E+00  0.00000000000E+00  0.12067454709E+04  0.12067454709E+04  0.00000000000E+00 0. -1.
         21   -1    0    0  502  503 -0.00000000000E+00 -0.00000000000E+00 -0.64512798254E+03  0.64512798254E+03  0.00000000000E+00 0. -1.
    9000007    1    1    2  501    0  0.20231053651E+03  0.20366274231E+02  0.10780669448E+04  0.11677211464E+04  0.40000000000E+03 0. -1.
   -9000007    1    1    2    0  503 -0.20231053651E+03 -0.20366274231E+02 -0.51644945637E+03  0.68415230709E+03  0.40000000000E+03 0. -1.
<mgrwt>
<rscale>  2 0.44871409E+03</rscale>
<asrwt>0</asrwt>
<pdfrwt beam="1">  1       21 0.18565315E+00 0.44871409E+03</pdfrwt>
<pdfrwt beam="2">  1       21 0.99250459E-01 0.44871409E+03</pdfrwt>
<totfact> 0.11157945E+02</totfact>
</mgrwt>
</event>
<event>
 4    1  0.4863180E-002  0.4720196E+03  0.7818608E-02  0.1021352E+00
         21   -1    0    0  501  502  0.00000000000E+00  0.00000000000E+00  0.30845705591E+03  0.30845705591E+03  0.00000000000E+00 0.  1.
         21   -1    0    0  502  503 -0.00000000000E+00 -0.00000000000E+00 -0.72479295033E+03  0.72479295033E+03  0.00000000000E+00 0. -1.
    9000007    1    1    2  501    0 -0.38896379366E+02 -0.24756726581E+03 -0.23838885672E+03  0.52880216190E+03  0.40000000000E+03 0. -1.
   -9000007    1    1    2    0  503  0.38896379366E+02  0.24756726581E+03 -0.17794703770E+03  0.50444784434E+03  0.40000000000E+03 0.  1.
<mgrwt>
<rscale>  2 0.47201958E+03</rscale>
<asrwt>0</asrwt>
<pdfrwt beam="1">  1       21 0.47454933E-01 0.47201958E+03</pdfrwt>
<pdfrwt beam="2">  1       21 0.11150661E+00 0.47201958E+03</pdfrwt>
<totfact> 0.23002562E+03</totfact>
</mgrwt>
</event>
<event>
 4    1  0.4863180E-002  0.4824634E+03  0.7818608E-02  0.1018460E+00
         21   -1    0    0  503  502  0.00000000000E+00  0.00000000000E+00  0.80127406309E+03  0.80127406309E+03  0.00000000000E+00 0. -1.
         21   -1    0    0  501  503 -0.00000000000E+00 -0.00000000000E+00 -0.30411205588E+03  0.30411205588E+03  0.00000000000E+00 0.  1.
    9000007    1    1    2  501    0  0.83602764536E+02  0.25647910470E+03  0.36550734702E+03  0.60528222682E+03  0.40000000000E+03 0.  1.
   -9000007    1    1    2    0  502 -0.83602764536E+02 -0.25647910470E+03  0.13165466019E+03  0.50010389214E+03  0.40000000000E+03 0. -1.
<mgrwt>
<rscale>  2 0.48246342E+03</rscale>
<asrwt>0</asrwt>
<pdfrwt beam="1">  1       21 0.12327293E+00 0.48246342E+03</pdfrwt>
<pdfrwt beam="2">  1       21 0.46786471E-01 0.48246342E+03</pdfrwt>
<totfact> 0.18328125E+03</totfact>
</mgrwt>
</event>
<event>
 4    1  0.4863180E-002  0.4028726E+03  0.7818608E-02  0.1042790E+00
         21   -1    0    0  503  502  0.00000000000E+00  0.00000000000E+00  0.96009789297E+03  0.96009789297E+03  0.00000000000E+00 0. -1.
         21   -1    0    0  501  503 -0.00000000000E+00 -0.00000000000E+00 -0.70932495175E+03  0.70932495175E+03  0.00000000000E+00 0. -1.
    9000007    1    1    2  501    0 -0.46828370811E+02  0.10651328122E+02 -0.60309817368E+03  0.72528184467E+03  0.40000000000E+03 0. -1.
   -9000007    1    1    2    0  502  0.46828370811E+02 -0.10651328122E+02  0.85387111491E+03  0.94414100005E+03  0.40000000000E+03 0. -1.
<mgrwt>
<rscale>  2 0.40287262E+03</rscale>
<asrwt>0</asrwt>
<pdfrwt beam="1">  1       21 0.14770737E+00 0.40287262E+03</pdfrwt>
<pdfrwt beam="2">  1       21 0.10912692E+00 0.40287262E+03</pdfrwt>
<totfact> 0.17293539E+02</totfact>
</mgrwt>
</event>
<event>
 4    1  0.4863180E-002  0.4325272E+03  0.7818608E-02  0.1033065E+00
         21   -1    0    0  501  502  0.00000000000E+00  0.00000000000E+00  0.45727257539E+03  0.45727257539E+03  0.00000000000E+00 0. -1.
         21   -1    0    0  502  503 -0.00000000000E+00 -0.00000000000E+00 -0.40961156258E+03  0.40961156258E+03  0.00000000000E+00 0. -1.
    9000007    1    1    2  501    0 -0.15703538881E+03  0.49190411728E+02  0.38830650387E+02  0.43426677211E+03  0.40000000000E+03 0. -1.
   -9000007    1    1    2    0  503  0.15703538881E+03 -0.49190411728E+02  0.88303624249E+01  0.43261736586E+03  0.40000000000E+03 0. -1.
<mgrwt>
<rscale>  2 0.43252724E+03</rscale>
<asrwt>0</asrwt>
<pdfrwt beam="1">  1       21 0.70349627E-01 0.43252724E+03</pdfrwt>
<pdfrwt beam="2">  1       21 0.63017164E-01 0.43252724E+03</pdfrwt>
<totfact> 0.37604042E+03</totfact>
</mgrwt>
</event>
<event>
 4    1  0.4863180E-002  0.4099208E+03  0.7818608E-02  0.1040398E+00
         21   -1    0    0  501  502  0.00000000000E+00  0.00000000000E+00  0.42588067393E+03  0.42588067393E+03  0.00000000000E+00 0. -1.
         21   -1    0    0  502  503 -0.00000000000E+00 -0.00000000000E+00 -0.53300326180E+03  0.53300326180E+03  0.00000000000E+00 0. -1.
    9000007    1    1    2  501    0  0.70703634185E+02  0.55100636240E+02  0.19078653186E+03  0.45214442907E+03  0.40000000000E+03 0. -1.
   -9000007    1    1    2    0  503 -0.70703634185E+02 -0.55100636240E+02 -0.29790911972E+03  0.50673950667E+03  0.40000000000E+03 0. -1.
<mgrwt>
<rscale>  2 0.40992083E+03</rscale>
<asrwt>0</asrwt>
<pdfrwt beam="1">  1       21 0.65520104E-01 0.40992083E+03</pdfrwt>
<pdfrwt beam="2">  1       21 0.82000502E-01 0.40992083E+03</pdfrwt>
<totfact> 0.24518337E+03</totfact>
</mgrwt>
</event>
<event>
 4    1  0.4863180E-002  0.4506667E+03  0.7818608E-02  0.1027523E+00
         21   -1    0    0  503  502  0.00000000000E+00  0.00000000000E+00  0.41705346263E+03  0.41705346263E+03  0.00000000000E+00 0.  1.
         21   -1    0    0  501  503 -0.00000000000E+00 -0.00000000000E+00 -0.57010046653E+03  0.57010046653E+03  0.00000000000E+00 0.  1.
    9000007    1    1    2  501    0  0.20491763343E+03 -0.33305702715E+02 -0.26497921018E+03  0.52279488152E+03  0.40000000000E+03 0.  1.
   -9000007    1    1    2    0  502 -0.20491763343E+03  0.33305702715E+02  0.11193220627E+03  0.46435904764E+03  0.40000000000E+03 0.  1.
<mgrwt>
<rscale>  2 0.45066674E+03</rscale>
<asrwt>0</asrwt>
<pdfrwt beam="1">  1       21 0.64162071E-01 0.45066674E+03</pdfrwt>
<pdfrwt beam="2">  1       21 0.87707764E-01 0.45066674E+03</pdfrwt>
<totfact> 0.21607845E+03</totfact>
</mgrwt>
</event>
<event>
 4    1  0.4863180E-002  0.4465478E+03  0.7818608E-02  0.1028757E+00
         21   -1    0    0  503  502  0.00000000000E+00  0.00000000000E+00  0.54787731837E+03  0.54787731837E+03  0.00000000000E+00 0. -1.
         21   -1    0    0  501  503 -0.00000000000E+00 -0.00000000000E+00 -0.40028120014E+03  0.40028120014E+03  0.00000000000E+00 0. -1.
    9000007    1    1    2  501    0 -0.19026255725E+03  0.56613727175E+02 -0.69010299095E+02  0.45184884218E+03  0.40000000000E+03 0. -1.
   -9000007    1    1    2    0  502  0.19026255725E+03 -0.56613727175E+02  0.21660641733E+03  0.49630967633E+03  0.40000000000E+03 0. -1.
<mgrwt>
<rscale>  2 0.44654782E+03</rscale>
<asrwt>0</asrwt>
<pdfrwt beam="1">  1       21 0.84288818E-01 0.44654782E+03</pdfrwt>
<pdfrwt beam="2">  1       21 0.61581723E-01 0.44654782E+03</pdfrwt>
<totfact> 0.26010729E+03</totfact>
</mgrwt>
</event>
<event>
 4    1  0.4863180E-002  0.5571926E+03  0.7818608E-02  0.9998427E-01
         21   -1    0    0  503  502  0.00000000000E+00  0.00000000000E+00  0.41464067278E+03  0.41464067278E+03  0.00000000000E+00 0.  1.
         21   -1    0    0  501  503 -0.00000000000E+00 -0.00000000000E+00 -0.74987814239E+03  0.74987814239E+03  0.00000000000E+00 0. -1.
    9000007    1    1    2  501    0 -0.35565057384E+03  0.15484263010E+03 -0.14506764134E+03  0.57576748026E+03  0.40000000000E+03 0. -1.
   -9000007    1    1    2    0  502  0.35565057384E+03 -0.15484263010E+03 -0.19016982828E+03  0.58875133491E+03  0.40000000000E+03 0.  1.
<mgrwt>
<rscale>  2 0.55719258E+03</rscale>
<asrwt>0</asrwt>
<pdfrwt beam="1">  1       21 0.63790873E-01 0.55719258E+03</pdfrwt>
<pdfrwt beam="2">  1       21 0.11536587E+00 0.55719258E+03</pdfrwt>
<totfact> 0.10809275E+03</totfact>
</mgrwt>
</event>
<event>
 4    1  0.4863180E-002  0.4015475E+03  0.7818608E-02  0.1043245E+00
         21   -1    0    0  501  502  0.00000000000E+00  0.00000000000E+00  0.11314988196E+03  0.11314988196E+03  0.00000000000E+00 0. -1.
         21   -1    0    0  502  503 -0.00000000000E+00 -0.00000000000E+00 -0.17862010135E+04  0.17862010135E+04  0.00000000000E+00 0. -1.
    9000007    1    1    2  501    0 -0.33889716271E+02  0.95846332520E+01 -0.40947924894E+03  0.57350992439E+03  0.40000000000E+03 0. -1.
   -9000007    1    1    2    0  503  0.33889716271E+02 -0.95846332520E+01 -0.12635718826E+04  0.13258409710E+04  0.40000000000E+03 0. -1.
<mgrwt>
<rscale>  2 0.40154748E+03</rscale>
<asrwt>0</asrwt>
<pdfrwt beam="1">  1       21 0.17407674E-01 0.40154748E+03</pdfrwt>
<pdfrwt beam="2">  1       21 0.27480015E+00 0.40154748E+03</pdfrwt>
<totfact> 0.11940248E+03</totfact>
</mgrwt>
</event>
<event>
 4    1  0.4863180E-002  0.4055676E+03  0.7818608E-02  0.1041869E+00
         21   -1    0    0  501  502  0.00000000000E+00  0.00000000000E+00  0.22346463939E+03  0.22346463939E+03  0.00000000000E+00 0.  1.
         21   -1    0    0  502  503 -0.00000000000E+00 -0.00000000000E+00 -0.26935049942E+04  0.26935049942E+04  0.00000000000E+00 0.  1.
    9000007    1    1    2  501    0  0.31645786028E+02  0.59021932605E+02  0.83114415248E+01  0.40565271398E+03  0.40000000000E+03 0.  1.
   -9000007    1    1    2    0  503 -0.31645786028E+02 -0.59021932605E+02 -0.24783517963E+04  0.25113169196E+04  0.40000000000E+03 0.  1.
<mgrwt>
<rscale>  2 0.40556756E+03</rscale>
<asrwt>0</asrwt>
<pdfrwt beam="1">  1       21 0.34379175E-01 0.40556756E+03</pdfrwt>
<pdfrwt beam="2">  1       21 0.41438539E+00 0.40556756E+03</pdfrwt>
<totfact> 0.44179959E+01</totfact>
</mgrwt>
</event>
<event>
 4    1  0.4863180E-002  0.7144334E+03  0.7818608E-02  0.9692863E-01
         21   -1    0    0  503  502  0.00000000000E+00  0.00000000000E+00  0.19794396030E+04  0.19794396030E+04  0.00000000000E+00 0.  1.
         21   -1    0    0  501  503 -0.00000000000E+00 -0.00000000000E+00 -0.27817086556E+03  0.27817086556E+03  0.00000000000E+00 0. -1.
    9000007    1    1    2  501    0  0.35053996711E+03  0.47700826109E+03  0.11556656666E+04  0.13586678338E+04  0.40000000000E+03 0.  1.
   -9000007    1    1    2    0  502 -0.35053996711E+03 -0.47700826109E+03  0.54560307090E+03  0.89894263480E+03  0.40000000000E+03 0. -1.
<mgrwt>
<rscale>  2 0.71443345E+03</rscale>
<asrwt>0</asrwt>
<pdfrwt beam="1">  1       21 0.30452916E+00 0.71443345E+03</pdfrwt>
<pdfrwt beam="2">  1       21 0.42795519E-01 0.71443345E+03</pdfrwt>
<totfact> 0.11507037E+02</totfact>
</mgrwt>
</event>
<event>
 4    1  0.4863180E-002  0.5489143E+03  0.7818608E-02  0.1001746E+00
         21   -1    0    0  503  502  0.00000000000E+00  0.00000000000E+00  0.17523181246E+04  0.17523181246E+04  0.00000000000E+00 0.  1.
         21   -1    0    0  501  503 -0.00000000000E+00 -0.00000000000E+00 -0.39571419969E+03  0.39571419969E+03  0.00000000000E+00 0.  1.
    9000007    1    1    2  501    0 -0.35699002823E+03 -0.11774967720E+03 -0.12933771546E+03  0.56394601814E+03  0.40000000000E+03 0.  1.
   -9000007    1    1    2    0  502  0.35699002823E+03  0.11774967720E+03  0.14859416404E+04  0.15840863062E+04  0.40000000000E+03 0.  1.
<mgrwt>
<rscale>  2 0.54891426E+03</rscale>
<asrwt>0</asrwt>
<pdfrwt beam="1">  1       21 0.26958740E+00 0.54891426E+03</pdfrwt>
<pdfrwt beam="2">  1       21 0.60879109E-01 0.54891426E+03</pdfrwt>
<totfact> 0.94807400E+01</totfact>
</mgrwt>
</event>
<event>
 4    1  0.4863180E-002  0.4695874E+03  0.7818608E-02  0.1022037E+00
         21   -1    0    0  501  502  0.00000000000E+00  0.00000000000E+00  0.67813828265E+03  0.67813828265E+03  0.00000000000E+00 0. -1.
         21   -1    0    0  502  503 -0.00000000000E+00 -0.00000000000E+00 -0.89461766775E+03  0.89461766775E+03  0.00000000000E+00 0. -1.
    9000007    1    1    2  501    0  0.17827913798E+03 -0.16949584761E+03  0.51915140558E+03  0.70002176774E+03  0.40000000000E+03 0. -1.
   -9000007    1    1    2    0  503 -0.17827913798E+03  0.16949584761E+03 -0.73563079068E+03  0.87273418266E+03  0.40000000000E+03 0. -1.
<mgrwt>
<rscale>  2 0.46958737E+03</rscale>
<asrwt>0</asrwt>
<pdfrwt beam="1">  1       21 0.10432897E+00 0.46958737E+03</pdfrwt>
<pdfrwt beam="2">  1       21 0.13763349E+00 0.46958737E+03</pdfrwt>
<totfact> 0.22524583E+02</totfact>
</mgrwt>
</event>
<event>
 4    1  0.4863180E-002  0.5152562E+03  0.7818608E-02  0.1009872E+00
         21   -1    0    0  503  502  0.00000000000E+00  0.00000000000E+00  0.15294180523E+04  0.15294180523E+04  0.00000000000E+00 0. -1.
         21   -1    0    0  501  503 -0.00000000000E+00 -0.00000000000E+00 -0.20839441168E+03  0.20839441168E+03  0.00000000000E+00 0. -1.
    9000007    1    1    2  501    0 -0.32473925315E+03 -0.57731056542E+01  0.30540556763E+03  0.59896700412E+03  0.40000000000E+03 0. -1.
   -9000007    1    1    2    0  502  0.32473925315E+03  0.57731056542E+01  0.10156180730E+04  0.11388454599E+04  0.40000000000E+03 0. -1.
<mgrwt>
<rscale>  2 0.51525616E+03</rscale>
<asrwt>0</asrwt>
<pdfrwt beam="1">  1       21 0.23529508E+00 0.51525616E+03</pdfrwt>
<pdfrwt beam="2">  1       21 0.32060680E-01 0.51525616E+03</pdfrwt>
<totfact> 0.60318170E+02</totfact>
</mgrwt>
</event>
<event>
 4    1  0.4863180E-002  0.4340010E+03  0.7818608E-02  0.1032603E+00
         21   -1    0    0  501  502  0.00000000000E+00  0.00000000000E+00  0.43719810346E+03  0.43719810346E+03  0.00000000000E+00 0. -1.
         21   -1    0    0  502  503 -0.00000000000E+00 -0.00000000000E+00 -0.48662487967E+03  0.48662487967E+03  0.00000000000E+00 0. -1.
    9000007    1    1    2  501    0  0.64121053523E+02  0.15570927684E+03  0.13169830039E+03  0.45354308585E+03  0.40000000000E+03 0.  1.
   -9000007    1    1    2    0  503 -0.64121053523E+02 -0.15570927684E+03 -0.18112507660E+03  0.47027989727E+03  0.40000000000E+03 0.  1.
<mgrwt>
<rscale>  2 0.43400102E+03</rscale>
<asrwt>0</asrwt>
<pdfrwt beam="1">  1       21 0.67261246E-01 0.43400102E+03</pdfrwt>
<pdfrwt beam="2">  1       21 0.74865366E-01 0.43400102E+03</pdfrwt>
<totfact> 0.28244577E+03</totfact>
</mgrwt>
</event>
<event>
 4    1  0.4863180E-002  0.4292804E+03  0.7818608E-02  0.1034088E+00
         21   -1    0    0  501  502  0.00000000000E+00  0.00000000000E+00  0.42544415230E+03  0.42544415230E+03  0.00000000000E+00 0. -1.
         21   -1    0    0  502  503 -0.00000000000E+00 -0.00000000000E+00 -0.43315197626E+03  0.43315197626E+03  0.00000000000E+00 0.  1.
    9000007    1    1    2  501    0  0.10076720329E+03  0.11885978288E+03 -0.43999307990E+01  0.42930296602E+03  0.40000000000E+03 0. -1.
   -9000007    1    1    2    0  503 -0.10076720329E+03 -0.11885978288E+03 -0.33078931666E+01  0.42929316254E+03  0.40000000000E+03 0. -1.
<mgrwt>
<rscale>  2 0.42928042E+03</rscale>
<asrwt>0</asrwt>
<pdfrwt beam="1">  1       21 0.65452947E-01 0.42928042E+03</pdfrwt>
<pdfrwt beam="2">  1       21 0.66638765E-01 0.42928042E+03</pdfrwt>
<totfact> 0.39082456E+03</totfact>
</mgrwt>
</event>
<event>
 4    1  0.4863180E-002  0.6156834E+03  0.7818608E-02  0.9873392E-01
         21   -1    0    0  501  502  0.00000000000E+00  0.00000000000E+00  0.89345977125E+03  0.89345977125E+03  0.00000000000E+00 0.  1.
         21   -1    0    0  502  503 -0.00000000000E+00 -0.00000000000E+00 -0.50693701948E+03  0.50693701948E+03  0.00000000000E+00 0. -1.
    9000007    1    1    2  501    0  0.42002847528E+03 -0.20649976346E+03  0.47602037482E+03  0.77824255191E+03  0.40000000000E+03 0. -1.
   -9000007    1    1    2    0  503 -0.42002847528E+03  0.20649976346E+03 -0.89497623047E+02  0.62215423882E+03  0.40000000000E+03 0.  1.
<mgrwt>
<rscale>  2 0.61568342E+03</rscale>
<asrwt>0</asrwt>
<pdfrwt beam="1">  1       21 0.13745535E+00 0.61568342E+03</pdfrwt>
<pdfrwt beam="2">  1       21 0.77990311E-01 0.61568342E+03</pdfrwt>
<totfact> 0.42661122E+02</totfact>
</mgrwt>
</event>
<event>
 4    1  0.4863180E-002  0.5036310E+03  0.7818608E-02  0.1012836E+00
         21   -1    0    0  501  502  0.00000000000E+00  0.00000000000E+00  0.92059644172E+03  0.92059644172E+03  0.00000000000E+00 0.  1.
         21   -1    0    0  502  503 -0.00000000000E+00 -0.00000000000E+00 -0.42984055030E+03  0.42984055030E+03  0.00000000000E+00 0.  1.
    9000007    1    1    2  501    0 -0.19215767277E+03  0.23815871004E+03  0.64995417632E+03  0.82224362186E+03  0.40000000000E+03 0.  1.
   -9000007    1    1    2    0  503  0.19215767277E+03 -0.23815871004E+03 -0.15919828490E+03  0.52819337016E+03  0.40000000000E+03 0.  1.
<mgrwt>
<rscale>  2 0.50363096E+03</rscale>
<asrwt>0</asrwt>
<pdfrwt beam="1">  1       21 0.14163022E+00 0.50363096E+03</pdfrwt>
<pdfrwt beam="2">  1       21 0.66129316E-01 0.50363096E+03</pdfrwt>
<totfact> 0.59678518E+02</totfact>
</mgrwt>
</event>
<event>
 4    1  0.4863180E-002  0.4294009E+03  0.7818608E-02  0.1034049E+00
         21   -1    0    0  503  502  0.00000000000E+00  0.00000000000E+00  0.36330900148E+03  0.36330900148E+03  0.00000000000E+00 0.  1.
         21   -1    0    0  501  503 -0.00000000000E+00 -0.00000000000E+00 -0.74492951452E+03  0.74492951452E+03  0.00000000000E+00 0.  1.
    9000007    1    1    2  501    0 -0.13492616040E+03  0.78613592475E+02 -0.50363297437E+03  0.66183936008E+03  0.40000000000E+03 0.  1.
   -9000007    1    1    2    0  502  0.13492616040E+03 -0.78613592475E+02  0.12201246133E+03  0.44639915592E+03  0.40000000000E+03 0.  1.
<mgrwt>
<rscale>  2 0.42940094E+03</rscale>
<asrwt>0</asrwt>
<pdfrwt beam="1">  1       21 0.55893693E-01 0.42940094E+03</pdfrwt>
<pdfrwt beam="2">  1       21 0.11460454E+00 0.42940094E+03</pdfrwt>
<totfact> 0.15392458E+03</totfact>
</mgrwt>
</event>
<event>
 4    1  0.4863180E-002  0.5282809E+03  0.7818608E-02  0.1006650E+00
         21   -1    0    0  501  502  0.00000000000E+00  0.00000000000E+00  0.42358957377E+03  0.42358957377E+03  0.00000000000E+00 0. -1.
         21   -1    0    0  502  503 -0.00000000000E+00 -0.00000000000E+00 -0.70757617156E+03  0.70757617156E+03  0.00000000000E+00 0.  1.
    9000007    1    1    2  501    0 -0.34500522921E+03 -0.72155708987E+01  0.64308820560E+01  0.52832000614E+03  0.40000000000E+03 0. -1.
   -9000007    1    1    2    0  503  0.34500522921E+03  0.72155708987E+01 -0.29041747985E+03  0.60284573918E+03  0.40000000000E+03 0.  1.
<mgrwt>
<rscale>  2 0.52828087E+03</rscale>
<asrwt>0</asrwt>
<pdfrwt beam="1">  1       21 0.65167627E-01 0.52828087E+03</pdfrwt>
<pdfrwt beam="2">  1       21 0.10885787E+00 0.52828087E+03</pdfrwt>
<totfact> 0.12034233E+03</totfact>
</mgrwt>
</event>
<event>
 4    1  0.4863180E-002  0.8123474E+03  0.7818608E-02  0.9542315E-01
         21   -1    0    0  503  502  0.00000000000E+00  0.00000000000E+00  0.93257200067E+03  0.93257200067E+03  0.00000000000E+00 0.  1.
         21   -1    0    0  501  503 -0.00000000000E+00 -0.00000000000E+00 -0.13511406586E+04  0.13511406586E+04  0.00000000000E+00 0. -1.
    9000007    1    1    2  501    0  0.70625756258E+03  0.33295814223E+02 -0.99731259058E+03  0.12862895317E+04  0.40000000000E+03 0. -1.
   -9000007    1    1    2    0  502 -0.70625756258E+03 -0.33295814223E+02  0.57874393264E+03  0.99742312762E+03  0.40000000000E+03 0.  1.
<mgrwt>
<rscale>  2 0.81234744E+03</rscale>
<asrwt>0</asrwt>
<pdfrwt beam="1">  1       21 0.14347262E+00 0.81234744E+03</pdfrwt>
<pdfrwt beam="2">  1       21 0.20786779E+00 0.81234744E+03</pdfrwt>
<totfact> 0.26159408E+01</totfact>
</mgrwt>
</event>
<event>
 4    1  0.4863180E-002  0.4236887E+03  0.7818608E-02  0.1035872E+00
         21   -1    0    0  503  502  0.00000000000E+00  0.00000000000E+00  0.65474762483E+03  0.65474762483E+03  0.00000000000E+00 0.  1.
         21   -1    0    0  501  503 -0.00000000000E+00 -0.00000000000E+00 -0.37377281546E+03  0.37377281546E+03  0.00000000000E+00 0.  1.
    9000007    1    1    2  501    0  0.17186747159E+02 -0.13862456184E+03 -0.12498225457E+03  0.44173829060E+03  0.40000000000E+03 0.  1.
   -9000007    1    1    2    0  502 -0.17186747159E+02  0.13862456184E+03  0.40595706394E+03  0.58678214968E+03  0.40000000000E+03 0.  1.
<mgrwt>
<rscale>  2 0.42368875E+03</rscale>
<asrwt>0</asrwt>
<pdfrwt beam="1">  1       21 0.10073040E+00 0.42368875E+03</pdfrwt>
<pdfrwt beam="2">  1       21 0.57503510E-01 0.42368875E+03</pdfrwt>
<totfact> 0.19946250E+03</totfact>
</mgrwt>
</event>
<event>
 4    1  0.4863180E-002  0.5279059E+03  0.7818608E-02  0.1006741E+00
         21   -1    0    0  501  502  0.00000000000E+00  0.00000000000E+00  0.79721451620E+03  0.79721451620E+03  0.00000000000E+00 0. -1.
         21   -1    0    0  502  503 -0.00000000000E+00 -0.00000000000E+00 -0.72249479268E+03  0.72249479268E+03  0.00000000000E+00 0.  1.
    9000007    1    1    2  501    0 -0.34184627040E+03  0.42729568484E+02  0.58327110079E+03  0.78669553553E+03  0.40000000000E+03 0. -1.
   -9000007    1    1    2    0  503  0.34184627040E+03 -0.42729568484E+02 -0.50855137726E+03  0.73301377335E+03  0.40000000000E+03 0.  1.
<mgrwt>
<rscale>  2 0.52790595E+03</rscale>
<asrwt>0</asrwt>
<pdfrwt beam="1">  1       21 0.12264839E+00 0.52790595E+03</pdfrwt>
<pdfrwt beam="2">  1       21 0.11115305E+00 0.52790595E+03</pdfrwt>
<totfact> 0.25321825E+02</totfact>
</mgrwt>
</event>
<event>
 4    1  0.4863180E-002  0.5968293E+03  0.7818608E-02  0.9912006E-01
         21   -1    0    0  501  502  0.00000000000E+00  0.00000000000E+00  0.62136949858E+03  0.62136949858E+03  0.00000000000E+00 0. -1.
         21   -1    0    0  502  503 -0.00000000000E+00 -0.00000000000E+00 -0.93494158910E+03  0.93494158910E+03  0.00000000000E+00 0. -1.
    9000007    1    1    2  501    0  0.40864101550E+03 -0.17093188690E+03  0.32720622972E+03  0.68063874873E+03  0.40000000000E+03 0. -1.
   -9000007    1    1    2    0  503 -0.40864101550E+03  0.17093188690E+03 -0.64077832024E+03  0.87567233895E+03  0.40000000000E+03 0. -1.
<mgrwt>
<rscale>  2 0.59682928E+03</rscale>
<asrwt>0</asrwt>
<pdfrwt beam="1">  1       21 0.95595307E-01 0.59682928E+03</pdfrwt>
<pdfrwt beam="2">  1       21 0.14383717E+00 0.59682928E+03</pdfrwt>
<totfact> 0.23481814E+02</totfact>
</mgrwt>
</event>
<event>
 4    1  0.4863180E-002  0.5489409E+03  0.7818608E-02  0.1001739E+00
         21   -1    0    0  503  502  0.00000000000E+00  0.00000000000E+00  0.36240464648E+03  0.36240464648E+03  0.00000000000E+00 0. -1.
         21   -1    0    0  501  503 -0.00000000000E+00 -0.00000000000E+00 -0.94697091010E+03  0.94697091010E+03  0.00000000000E+00 0.  1.
    9000007    1    1    2  501    0  0.33331904032E+03 -0.17388073638E+03 -0.52090601506E+03  0.75675568690E+03  0.40000000000E+03 0. -1.
   -9000007    1    1    2    0  502 -0.33331904032E+03  0.17388073638E+03 -0.63660248564E+02  0.55261986969E+03  0.40000000000E+03 0.  1.
<mgrwt>
<rscale>  2 0.54894088E+03</rscale>
<asrwt>0</asrwt>
<pdfrwt beam="1">  1       21 0.55754562E-01 0.54894088E+03</pdfrwt>
<pdfrwt beam="2">  1       21 0.14568783E+00 0.54894088E+03</pdfrwt>
<totfact> 0.79204234E+02</totfact>
</mgrwt>
</event>
<event>
 4    1  0.4863180E-002  0.4960015E+03  0.7818608E-02  0.1014828E+00
         21   -1    0    0  501  502  0.00000000000E+00  0.00000000000E+00  0.24278604696E+03  0.24278604696E+03  0.00000000000E+00 0.  1.
         21   -1    0    0  502  503 -0.00000000000E+00 -0.00000000000E+00 -0.10784909752E+04  0.10784909752E+04  0.00000000000E+00 0. -1.
    9000007    1    1    2  501    0  0.23793729900E+03 -0.17147387184E+03 -0.58026411653E+03  0.76336353850E+03  0.40000000000E+03 0. -1.
   -9000007    1    1    2    0  503 -0.23793729900E+03  0.17147387184E+03 -0.25544081175E+03  0.55791348369E+03  0.40000000000E+03 0.  1.
<mgrwt>
<rscale>  2 0.49600146E+03</rscale>
<asrwt>0</asrwt>
<pdfrwt beam="1">  1       21 0.37351699E-01 0.49600146E+03</pdfrwt>
<pdfrwt beam="2">  1       21 0.16592169E+00 0.49600146E+03</pdfrwt>
<totfact> 0.13099560E+03</totfact>
</mgrwt>
</event>
<event>
 4    1  0.4863180E-002  0.4040054E+03  0.7818608E-02  0.1042402E+00
         21   -1    0    0  503  502  0.00000000000E+00  0.00000000000E+00  0.70437847287E+03  0.70437847287E+03  0.00000000000E+00 0. -1.
         21   -1    0    0  501  503 -0.00000000000E+00 -0.00000000000E+00 -0.23937942153E+03  0.23937942153E+03  0.00000000000E+00 0. -1.
    9000007    1    1    2  501    0 -0.15849954289E+02  0.54489485478E+02  0.14810487469E+03  0.43029684984E+03  0.40000000000E+03 0.  1.
   -9000007    1    1    2    0  502  0.15849954289E+02 -0.54489485478E+02  0.31689417665E+03  0.51346104456E+03  0.40000000000E+03 0.  1.
<mgrwt>
<rscale>  2 0.40400535E+03</rscale>
<asrwt>0</asrwt>
<pdfrwt beam="1">  1       21 0.10836592E+00 0.40400535E+03</pdfrwt>
<pdfrwt beam="2">  1       21 0.36827604E-01 0.40400535E+03</pdfrwt>
<totfact> 0.42813659E+03</totfact>
</mgrwt>
</event>
<event>
 4    1  0.4863180E-002  0.4286314E+03  0.7818608E-02  0.1034293E+00
         21   -1    0    0  501  502  0.00000000000E+00  0.00000000000E+00  0.47901161800E+03  0.47901161800E+03  0.00000000000E+00 0. -1.
         21   -1    0    0  502  503 -0.00000000000E+00 -0.00000000000E+00 -0.49806190671E+03  0.49806190671E+03  0.00000000000E+00 0. -1.
    9000007    1    1    2  501    0 -0.76248752374E+02 -0.13383197433E+03  0.22472564014E+03  0.48396950620E+03  0.40000000000E+03 0. -1.
   -9000007    1    1    2    0  503  0.76248752374E+02  0.13383197433E+03 -0.24377592885E+03  0.49310401852E+03  0.40000000000E+03 0. -1.
<mgrwt>
<rscale>  2 0.42863139E+03</rscale>
<asrwt>0</asrwt>
<pdfrwt beam="1">  1       21 0.73694095E-01 0.42863139E+03</pdfrwt>
<pdfrwt beam="2">  1       21 0.76624909E-01 0.42863139E+03</pdfrwt>
<totfact> 0.21849537E+03</totfact>
</mgrwt>
</event>
<event>
 4    1  0.4863180E-002  0.4013420E+03  0.7818608E-02  0.1043316E+00
         21   -1    0    0  503  502  0.00000000000E+00  0.00000000000E+00  0.15667024525E+04  0.15667024525E+04  0.00000000000E+00 0. -1.
         21   -1    0    0  501  503 -0.00000000000E+00 -0.00000000000E+00 -0.18719826244E+03  0.18719826244E+03  0.00000000000E+00 0. -1.
    9000007    1    1    2  501    0 -0.31850329249E+02 -0.78097035342E+01  0.10096185965E+03  0.41384626620E+03  0.40000000000E+03 0. -1.
   -9000007    1    1    2    0  502  0.31850329249E+02  0.78097035342E+01  0.12785423304E+04  0.13400544488E+04  0.40000000000E+03 0. -1.
<mgrwt>
<rscale>  2 0.40134204E+03</rscale>
<asrwt>0</asrwt>
<pdfrwt beam="1">  1       21 0.24103114E+00 0.40134204E+03</pdfrwt>
<pdfrwt beam="2">  1       21 0.28799734E-01 0.40134204E+03</pdfrwt>
<totfact> 0.72810572E+02</totfact>
</mgrwt>
</event>
<event>
 4    1  0.4863180E-002  0.5566358E+03  0.7818608E-02  0.9999696E-01
         21   -1    0    0  503  502  0.00000000000E+00  0.00000000000E+00  0.79716296264E+03  0.79716296264E+03  0.00000000000E+00 0. -1.
         21   -1    0    0  501  503 -0.00000000000E+00 -0.00000000000E+00 -0.38913830159E+03  0.38913830159E+03  0.00000000000E+00 0.  1.
    9000007    1    1    2  501    0  0.38685798473E+03  0.13574355006E+02  0.22431059680E+03  0.60013215820E+03  0.40000000000E+03 0.  1.
   -9000007    1    1    2    0  502 -0.38685798473E+03 -0.13574355006E+02  0.18371406425E+03  0.58616910603E+03  0.40000000000E+03 0.  1.
<mgrwt>
<rscale>  2 0.55663575E+03</rscale>
<asrwt>0</asrwt>
<pdfrwt beam="1">  1       21 0.12264046E+00 0.55663575E+03</pdfrwt>
<pdfrwt beam="2">  1       21 0.59867431E-01 0.55663575E+03</pdfrwt>
<totfact> 0.10647088E+03</totfact>
</mgrwt>
</event>
<event>
 4    1  0.4863180E-002  0.5558195E+03  0.7818608E-02  0.1000156E+00
         21   -1    0    0  503  502  0.00000000000E+00  0.00000000000E+00  0.71131464328E+03  0.71131464328E+03  0.00000000000E+00 0. -1.
         21   -1    0    0  501  503 -0.00000000000E+00 -0.00000000000E+00 -0.45939792201E+03  0.45939792201E+03  0.00000000000E+00 0.  1.
    9000007    1    1    2  501    0  0.63621121222E+01  0.38586897710E+03  0.26273313749E+03  0.61478780526E+03  0.40000000000E+03 0. -1.
   -9000007    1    1    2    0  502 -0.63621121222E+01 -0.38586897710E+03 -0.10816416215E+02  0.55592476003E+03  0.40000000000E+03 0.  1.
<mgrwt>
<rscale>  2 0.55581952E+03</rscale>
<asrwt>0</asrwt>
<pdfrwt beam="1">  1       21 0.10943302E+00 0.55581952E+03</pdfrwt>
<pdfrwt beam="2">  1       21 0.70676603E-01 0.55581952E+03</pdfrwt>
<totfact> 0.98050591E+02</totfact>
</mgrwt>
</event>
<event>
 4    1  0.4863180E-002  0.5223557E+03  0.7818608E-02  0.1008103E+00
         21   -1    0    0  501  502  0.00000000000E+00  0.00000000000E+00  0.35634778995E+03  0.35634778995E+03  0.00000000000E+00 0.  1.
         21   -1    0    0  502  503 -0.00000000000E+00 -0.00000000000E+00 -0.87791161717E+03  0.87791161717E+03  0.00000000000E+00 0. -1.
    9000007    1    1    2  501    0  0.18769900194E+03  0.27861183761E+03 -0.40149084740E+02  0.52389638326E+03  0.40000000000E+03 0.  1.
   -9000007    1    1    2    0  503 -0.18769900194E+03 -0.27861183761E+03 -0.48141474248E+03  0.71036302386E+03  0.40000000000E+03 0. -1.
<mgrwt>
<rscale>  2 0.52235569E+03</rscale>
<asrwt>0</asrwt>
<pdfrwt beam="1">  1       21 0.54822738E-01 0.52235569E+03</pdfrwt>
<pdfrwt beam="2">  1       21 0.13506332E+00 0.52235569E+03</pdfrwt>
<totfact> 0.10155842E+03</totfact>
</mgrwt>
</event>
<event>
 4    1  0.4863180E-002  0.4340489E+03  0.7818608E-02  0.1032589E+00
         21   -1    0    0  503  502  0.00000000000E+00  0.00000000000E+00  0.24247023664E+04  0.24247023664E+04  0.00000000000E+00 0. -1.
         21   -1    0    0  501  503 -0.00000000000E+00 -0.00000000000E+00 -0.18490545917E+03  0.18490545917E+03  0.00000000000E+00 0. -1.
    9000007    1    1    2  501    0 -0.11384500776E+03  0.12424889217E+03  0.12637165295E+03  0.45207108696E+03  0.40000000000E+03 0. -1.
   -9000007    1    1    2    0  502  0.11384500776E+03 -0.12424889217E+03  0.21134252543E+04  0.21575367386E+04  0.40000000000E+03 0. -1.
<mgrwt>
<rscale>  2 0.43404893E+03</rscale>
<asrwt>0</asrwt>
<pdfrwt beam="1">  1       21 0.37303111E+00 0.43404893E+03</pdfrwt>
<pdfrwt beam="2">  1       21 0.28446995E-01 0.43404893E+03</pdfrwt>
<totfact> 0.11558555E+02</totfact>
</mgrwt>
</event>
<event>
 4    1  0.4863180E-002  0.4455562E+03  0.7818608E-02  0.1029056E+00
         21   -1    0    0  503  502  0.00000000000E+00  0.00000000000E+00  0.46788635984E+03  0.46788635984E+03  0.00000000000E+00 0.  1.
         21   -1    0    0  501  503 -0.00000000000E+00 -0.00000000000E+00 -0.48273185216E+03  0.48273185216E+03  0.00000000000E+00 0.  1.
    9000007    1    1    2  501    0 -0.14196658871E+03  0.13552048197E+03 -0.17280111801E+03  0.47789176571E+03  0.40000000000E+03 0.  1.
   -9000007    1    1    2    0  502  0.14196658871E+03 -0.13552048197E+03  0.15795562569E+03  0.47272644630E+03  0.40000000000E+03 0.  1.
<mgrwt>
<rscale>  2 0.44555618E+03</rscale>
<asrwt>0</asrwt>
<pdfrwt beam="1">  1       21 0.71982517E-01 0.44555618E+03</pdfrwt>
<pdfrwt beam="2">  1       21 0.74266439E-01 0.44555618E+03</pdfrwt>
<totfact> 0.24591804E+03</totfact>
</mgrwt>
</event>
<event>
 4    1  0.4863180E-002  0.4271464E+03  0.7818608E-02  0.1034765E+00
         21   -1    0    0  503  502  0.00000000000E+00  0.00000000000E+00  0.12579002745E+04  0.12579002745E+04  0.00000000000E+00 0. -1.
         21   -1    0    0  501  503 -0.00000000000E+00 -0.00000000000E+00 -0.22837008166E+03  0.22837008166E+03  0.00000000000E+00 0. -1.
    9000007    1    1    2  501    0  0.32310432988E+02  0.14632180581E+03  0.65883111905E+02  0.43219743101E+03  0.40000000000E+03 0. -1.
   -9000007    1    1    2    0  502 -0.32310432988E+02 -0.14632180581E+03  0.96364708099E+03  0.10540729252E+04  0.40000000000E+03 0. -1.
<mgrwt>
<rscale>  2 0.42714639E+03</rscale>
<asrwt>0</asrwt>
<pdfrwt beam="1">  1       21 0.19352312E+00 0.42714639E+03</pdfrwt>
<pdfrwt beam="2">  1       21 0.35133859E-01 0.42714639E+03</pdfrwt>
<totfact> 0.97527547E+02</totfact>
</mgrwt>
</event>
<event>
 4    1  0.4863180E-002  0.4833992E+03  0.7818608E-02  0.1018205E+00
         21   -1    0    0  501  502  0.00000000000E+00  0.00000000000E+00  0.42436645427E+03  0.42436645427E+03  0.00000000000E+00 0. -1.
         21   -1    0    0  502  503 -0.00000000000E+00 -0.00000000000E+00 -0.59025613096E+03  0.59025613096E+03  0.00000000000E+00 0.  1.
    9000007    1    1    2  501    0  0.86262737349E+02 -0.25735868698E+03 -0.21436727621E+03  0.52879871665E+03  0.40000000000E+03 0. -1.
   -9000007    1    1    2    0  503 -0.86262737349E+02  0.25735868698E+03  0.48477599522E+02  0.48582386857E+03  0.40000000000E+03 0. -1.
<mgrwt>
<rscale>  2 0.48339917E+03</rscale>
<asrwt>0</asrwt>
<pdfrwt beam="1">  1       21 0.65287147E-01 0.48339917E+03</pdfrwt>
<pdfrwt beam="2">  1       21 0.90808635E-01 0.48339917E+03</pdfrwt>
<totfact> 0.18922227E+03</totfact>
</mgrwt>
</event>
<event>
 4    1  0.4863180E-002  0.4285834E+03  0.7818608E-02  0.1034308E+00
         21   -1    0    0  501  502  0.00000000000E+00  0.00000000000E+00  0.54258105694E+03  0.54258105694E+03  0.00000000000E+00 0.  1.
         21   -1    0    0  502  503 -0.00000000000E+00 -0.00000000000E+00 -0.42236140788E+03  0.42236140788E+03  0.00000000000E+00 0.  1.
    9000007    1    1    2  501    0 -0.92792468248E+02  0.12277335529E+03  0.27504855152E+03  0.50924988427E+03  0.40000000000E+03 0.  1.
   -9000007    1    1    2    0  503  0.92792468248E+02 -0.12277335529E+03 -0.15482890246E+03  0.45569258055E+03  0.40000000000E+03 0.  1.
<mgrwt>
<rscale>  2 0.42858341E+03</rscale>
<asrwt>0</asrwt>
<pdfrwt beam="1">  1       21 0.83474009E-01 0.42858341E+03</pdfrwt>
<pdfrwt beam="2">  1       21 0.64978678E-01 0.42858341E+03</pdfrwt>
<totfact> 0.23788309E+03</totfact>
</mgrwt>
</event>
<event>
 4    1  0.4863180E-002  0.4161064E+03  0.7818608E-02  0.1038341E+00
         21   -1    0    0  501  502  0.00000000000E+00  0.00000000000E+00  0.53156387996E+03  0.53156387996E+03  0.00000000000E+00 0.  1.
         21   -1    0    0  502  503 -0.00000000000E+00 -0.00000000000E+00 -0.34347837965E+03  0.34347837965E+03  0.00000000000E+00 0.  1.
    9000007    1    1    2  501    0 -0.64778432417E+02  0.94595202291E+02  0.19350773604E+03  0.45890057911E+03  0.40000000000E+03 0. -1.
   -9000007    1    1    2    0  503  0.64778432417E+02 -0.94595202291E+02 -0.54222357323E+01  0.41614168049E+03  0.40000000000E+03 0. -1.
<mgrwt>
<rscale>  2 0.41610635E+03</rscale>
<asrwt>0</asrwt>
<pdfrwt beam="1">  1       21 0.81779059E-01 0.41610635E+03</pdfrwt>
<pdfrwt beam="2">  1       21 0.52842827E-01 0.41610635E+03</pdfrwt>
<totfact> 0.39336524E+03</totfact>
</mgrwt>
</event>
<event>
 4    1  0.4863180E-002  0.4115184E+03  0.7818608E-02  0.1039863E+00
         21   -1    0    0  501  502  0.00000000000E+00  0.00000000000E+00  0.22755227400E+03  0.22755227400E+03  0.00000000000E+00 0.  1.
         21   -1    0    0  502  503 -0.00000000000E+00 -0.00000000000E+00 -0.10722934889E+04  0.10722934889E+04  0.00000000000E+00 0.  1.
    9000007    1    1    2  501    0  0.87405738985E+02 -0.41323974236E+02 -0.62873847561E+02  0.41629383224E+03  0.40000000000E+03 0.  1.
   -9000007    1    1    2    0  503 -0.87405738985E+02  0.41323974236E+02 -0.78186736729E+03  0.88355193062E+03  0.40000000000E+03 0.  1.
<mgrwt>
<rscale>  2 0.41151845E+03</rscale>
<asrwt>0</asrwt>
<pdfrwt beam="1">  1       21 0.35008043E-01 0.41151845E+03</pdfrwt>
<pdfrwt beam="2">  1       21 0.16496823E+00 0.41151845E+03</pdfrwt>
<totfact> 0.15734481E+03</totfact>
</mgrwt>
</event>
<event>
 4    1  0.4863180E-002  0.5089740E+03  0.7818608E-02  0.1011463E+00
         21   -1    0    0  501  502  0.00000000000E+00  0.00000000000E+00  0.65095755119E+03  0.65095755119E+03  0.00000000000E+00 0.  1.
         21   -1    0    0  502  503 -0.00000000000E+00 -0.00000000000E+00 -0.47186265771E+03  0.47186265771E+03  0.00000000000E+00 0. -1.
    9000007    1    1    2  501    0 -0.26158188393E+03  0.17501279491E+03  0.31172733076E+03  0.59684879922E+03  0.40000000000E+03 0.  1.
   -9000007    1    1    2    0  503  0.26158188393E+03 -0.17501279491E+03 -0.13263243728E+03  0.52597140968E+03  0.40000000000E+03 0. -1.
<mgrwt>
<rscale>  2 0.50897403E+03</rscale>
<asrwt>0</asrwt>
<pdfrwt beam="1">  1       21 0.10014731E+00 0.50897403E+03</pdfrwt>
<pdfrwt beam="2">  1       21 0.72594256E-01 0.50897403E+03</pdfrwt>
<totfact> 0.11671344E+03</totfact>
</mgrwt>
</event>
<event>
 4    1  0.4863180E-002  0.6592156E+03  0.7818608E-02  0.9789639E-01
         21   -1    0    0  503  502  0.00000000000E+00  0.00000000000E+00  0.74101448398E+03  0.74101448398E+03  0.00000000000E+00 0.  1.
         21   -1    0    0  501  503 -0.00000000000E+00 -0.00000000000E+00 -0.62803006009E+03  0.62803006009E+03  0.00000000000E+00 0.  1.
    9000007    1    1    2  501    0  0.49481803258E+03 -0.17239597109E+03 -0.11964814268E+03  0.66998577169E+03  0.40000000000E+03 0.  1.
   -9000007    1    1    2    0  502 -0.49481803258E+03  0.17239597109E+03  0.23263256656E+03  0.69905877238E+03  0.40000000000E+03 0.  1.
<mgrwt>
<rscale>  2 0.65921564E+03</rscale>
<asrwt>0</asrwt>
<pdfrwt beam="1">  1       21 0.11400223E+00 0.65921564E+03</pdfrwt>
<pdfrwt beam="2">  1       21 0.96620010E-01 0.65921564E+03</pdfrwt>
<totfact> 0.41145111E+02</totfact>
</mgrwt>
</event>
<event>
 4    1  0.4863180E-002  0.5398864E+03  0.7818608E-02  0.1003862E+00
         21   -1    0    0  501  502  0.00000000000E+00  0.00000000000E+00  0.18923175232E+04  0.18923175232E+04  0.00000000000E+00 0. -1.
         21   -1    0    0  502  503 -0.00000000000E+00 -0.00000000000E+00 -0.45695955621E+03  0.45695955621E+03  0.00000000000E+00 0. -1.
    9000007    1    1    2  501    0  0.34500089034E+03  0.11158718228E+03  0.16740685007E+04  0.17589720460E+04  0.40000000000E+03 0. -1.
   -9000007    1    1    2    0  503 -0.34500089034E+03 -0.11158718228E+03 -0.23871053369E+03  0.59030503342E+03  0.40000000000E+03 0. -1.
<mgrwt>
<rscale>  2 0.53988639E+03</rscale>
<asrwt>0</asrwt>
<pdfrwt beam="1">  1       21 0.29112577E+00 0.53988639E+03</pdfrwt>
<pdfrwt beam="2">  1       21 0.70301471E-01 0.53988639E+03</pdfrwt>
<totfact> 0.51078965E+01</totfact>
</mgrwt>
</event>
<event>
 4    1  0.4863180E-002  0.4357223E+03  0.7818608E-02  0.1032067E+00
         21   -1    0    0  501  502  0.00000000000E+00  0.00000000000E+00  0.22616293251E+03  0.22616293251E+03  0.00000000000E+00 0. -1.
         21   -1    0    0  502  503 -0.00000000000E+00 -0.00000000000E+00 -0.84008256048E+03  0.84008256048E+03  0.00000000000E+00 0.  1.
    9000007    1    1    2  501    0 -0.10139596228E+03  0.13990278447E+03 -0.32151423914E+03  0.54150284971E+03  0.40000000000E+03 0. -1.
   -9000007    1    1    2    0  503  0.10139596228E+03 -0.13990278447E+03 -0.29240538882E+03  0.52474264328E+03  0.40000000000E+03 0.  1.
<mgrwt>
<rscale>  2 0.43572231E+03</rscale>
<asrwt>0</asrwt>
<pdfrwt beam="1">  1       21 0.34794298E-01 0.43572231E+03</pdfrwt>
<pdfrwt beam="2">  1       21 0.12924347E+00 0.43572231E+03</pdfrwt>
<totfact> 0.30418353E+03</totfact>
</mgrwt>
</event>
<event>
 4    1  0.4863180E-002  0.4375259E+03  0.7818608E-02  0.1031509E+00
         21   -1    0    0  503  502  0.00000000000E+00  0.00000000000E+00  0.14630356281E+04  0.14630356281E+04  0.00000000000E+00 0. -1.
         21   -1    0    0  501  503 -0.00000000000E+00 -0.00000000000E+00 -0.20275483182E+03  0.20275483182E+03  0.00000000000E+00 0. -1.
    9000007    1    1    2  501    0 -0.56762473881E+02 -0.16794923511E+03  0.13411607084E+03  0.45761997823E+03  0.40000000000E+03 0.  1.
   -9000007    1    1    2    0  502  0.56762473881E+02  0.16794923511E+03  0.11261647254E+04  0.12081704817E+04  0.40000000000E+03 0.  1.
<mgrwt>
<rscale>  2 0.43752591E+03</rscale>
<asrwt>0</asrwt>
<pdfrwt beam="1">  1       21 0.22508240E+00 0.43752591E+03</pdfrwt>
<pdfrwt beam="2">  1       21 0.31193052E-01 0.43752591E+03</pdfrwt>
<totfact> 0.76670980E+02</totfact>
</mgrwt>
</event>
<event>
 4    1  0.4863180E-002  0.5917849E+03  0.7818608E-02  0.9922598E-01
         21   -1    0    0  503  502  0.00000000000E+00  0.00000000000E+00  0.20778108419E+03  0.20778108419E+03  0.00000000000E+00 0. -1.
         21   -1    0    0  501  503 -0.00000000000E+00 -0.00000000000E+00 -0.19281088066E+04  0.19281088066E+04  0.00000000000E+00 0. -1.
    9000007    1    1    2  501    0 -0.13121174407E+03  0.41592410334E+03 -0.12390080696E+04  0.13730806160E+04  0.40000000000E+03 0. -1.
   -9000007    1    1    2    0  502  0.13121174407E+03 -0.41592410334E+03 -0.48131965282E+03  0.76280927480E+03  0.40000000000E+03 0. -1.
<mgrwt>
<rscale>  2 0.59178491E+03</rscale>
<asrwt>0</asrwt>
<pdfrwt beam="1">  1       21 0.31966322E-01 0.59178491E+03</pdfrwt>
<pdfrwt beam="2">  1       21 0.29663211E+00 0.59178491E+03</pdfrwt>
<totfact> 0.24626908E+02</totfact>
</mgrwt>
</event>
<event>
 4    1  0.4863180E-002  0.4629400E+03  0.7818608E-02  0.1023932E+00
         21   -1    0    0  503  502  0.00000000000E+00  0.00000000000E+00  0.13851479751E+04  0.13851479751E+04  0.00000000000E+00 0.  1.
         21   -1    0    0  501  503 -0.00000000000E+00 -0.00000000000E+00 -0.10994997466E+04  0.10994997466E+04  0.00000000000E+00 0.  1.
    9000007    1    1    2  501    0 -0.21932329261E+03 -0.78808281363E+02 -0.10087767712E+04  0.11099297392E+04  0.40000000000E+03 0.  1.
   -9000007    1    1    2    0  502  0.21932329261E+03  0.78808281363E+02  0.12944249996E+04  0.13747179825E+04  0.40000000000E+03 0.  1.
<mgrwt>
<rscale>  2 0.46294001E+03</rscale>
<asrwt>0</asrwt>
<pdfrwt beam="1">  1       21 0.21309969E+00 0.46294001E+03</pdfrwt>
<pdfrwt beam="2">  1       21 0.16915381E+00 0.46294001E+03</pdfrwt>
<totfact> 0.18032159E+01</totfact>
</mgrwt>
</event>
<event>
 4    1  0.4863180E-002  0.4219530E+03  0.7818608E-02  0.1036433E+00
         21   -1    0    0  503  502  0.00000000000E+00  0.00000000000E+00  0.21111031120E+03  0.21111031120E+03  0.00000000000E+00 0. -1.
         21   -1    0    0  501  503 -0.00000000000E+00 -0.00000000000E+00 -0.10844148029E+04  0.10844148029E+04  0.00000000000E+00 0. -1.
    9000007    1    1    2  501    0 -0.12463447051E+03  0.50105679216E+02 -0.74205014048E+03  0.85362915913E+03  0.40000000000E+03 0. -1.
   -9000007    1    1    2    0  502  0.12463447051E+03 -0.50105679216E+02 -0.13125435125E+03  0.44189595501E+03  0.40000000000E+03 0. -1.
<mgrwt>
<rscale>  2 0.42195300E+03</rscale>
<asrwt>0</asrwt>
<pdfrwt beam="1">  1       21 0.32478510E-01 0.42195300E+03</pdfrwt>
<pdfrwt beam="2">  1       21 0.16683304E+00 0.42195300E+03</pdfrwt>
<totfact> 0.17644773E+03</totfact>
</mgrwt>
</event>
<event>
 4    1  0.4863180E-002  0.5422423E+03  0.7818608E-02  0.1003306E+00
         21   -1    0    0  503  502  0.00000000000E+00  0.00000000000E+00  0.15765865020E+04  0.15765865020E+04  0.00000000000E+00 0. -1.
         21   -1    0    0  501  503 -0.00000000000E+00 -0.00000000000E+00 -0.45596032810E+03  0.45596032810E+03  0.00000000000E+00 0.  1.
    9000007    1    1    2  501    0  0.25874178124E+03 -0.25899684071E+03 -0.22095103909E+03  0.58553055816E+03  0.40000000000E+03 0.  1.
   -9000007    1    1    2    0  502 -0.25874178124E+03  0.25899684071E+03  0.13415772130E+04  0.14470162720E+04  0.40000000000E+03 0. -1.
<mgrwt>
<rscale>  2 0.54224226E+03</rscale>
<asrwt>0</asrwt>
<pdfrwt beam="1">  1       21 0.24255177E+00 0.54224226E+03</pdfrwt>
<pdfrwt beam="2">  1       21 0.70147744E-01 0.54224226E+03</pdfrwt>
<totfact> 0.10174242E+02</totfact>
</mgrwt>
</event>
<event>
 4    1  0.4863180E-002  0.4149097E+03  0.7818608E-02  0.1038736E+00
         21   -1    0    0  501  502  0.00000000000E+00  0.00000000000E+00  0.40378889650E+03  0.40378889650E+03  0.00000000000E+00 0.  1.
         21   -1    0    0  502  503 -0.00000000000E+00 -0.00000000000E+00 -0.42880677919E+03  0.42880677919E+03  0.00000000000E+00 0.  1.
    9000007    1    1    2  501    0  0.72334846337E+02 -0.83172919625E+02  0.19086199685E+02  0.41534846523E+03  0.40000000000E+03 0.  1.
   -9000007    1    1    2    0  503 -0.72334846337E+02  0.83172919625E+02 -0.44104082382E+02  0.41724721046E+03  0.40000000000E+03 0.  1.
<mgrwt>
<rscale>  2 0.41490971E+03</rscale>
<asrwt>0</asrwt>
<pdfrwt beam="1">  1       21 0.62121369E-01 0.41490971E+03</pdfrwt>
<pdfrwt beam="2">  1       21 0.65970273E-01 0.41490971E+03</pdfrwt>
<totfact> 0.45096346E+03</totfact>
</mgrwt>
</event>
<event>
 4    1  0.4863180E-002  0.4242120E+03  0.7818608E-02  0.1035704E+00
         21   -1    0    0  503  502  0.00000000000E+00  0.00000000000E+00  0.20884293294E+03  0.20884293294E+03  0.00000000000E+00 0.  1.
         21   -1    0    0  501  503 -0.00000000000E+00 -0.00000000000E+00 -0.11336040530E+04  0.11336040530E+04  0.00000000000E+00 0.  1.
    9000007    1    1    2  501    0 -0.13404788226E+03 -0.44575434488E+02 -0.79112632576E+03  0.89768405768E+03  0.40000000000E+03 0.  1.
   -9000007    1    1    2    0  502  0.13404788226E+03  0.44575434488E+02 -0.13363479429E+03  0.44476292825E+03  0.40000000000E+03 0.  1.
<mgrwt>
<rscale>  2 0.42421198E+03</rscale>
<asrwt>0</asrwt>
<pdfrwt beam="1">  1       21 0.32129683E-01 0.42421198E+03</pdfrwt>
<pdfrwt beam="2">  1       21 0.17440062E+00 0.42421198E+03</pdfrwt>
<totfact> 0.15876516E+03</totfact>
</mgrwt>
</event>
<event>
 4    1  0.4863180E-002  0.4693419E+03  0.7818608E-02  0.1022106E+00
         21   -1    0    0  501  502  0.00000000000E+00  0.00000000000E+00  0.67352511985E+03  0.67352511985E+03  0.00000000000E+00 0. -1.
         21   -1    0    0  502  503 -0.00000000000E+00 -0.00000000000E+00 -0.32941184383E+03  0.32941184383E+03  0.00000000000E+00 0.  1.
    9000007    1    1    2  501    0  0.23619287511E+03 -0.67042608806E+02  0.21444649006E+03  0.51601267693E+03  0.40000000000E+03 0.  1.
   -9000007    1    1    2    0  503 -0.23619287511E+03  0.67042608806E+02  0.12966678595E+03  0.48692428675E+03  0.40000000000E+03 0. -1.
<mgrwt>
<rscale>  2 0.46934186E+03</rscale>
<asrwt>0</asrwt>
<pdfrwt beam="1">  1       21 0.10361925E+00 0.46934186E+03</pdfrwt>
<pdfrwt beam="2">  1       21 0.50678745E-01 0.46934186E+03</pdfrwt>
<totfact> 0.24011609E+03</totfact>
</mgrwt>
</event>
<event>
 4    1  0.4863180E-002  0.8906256E+03  0.7818608E-02  0.9437376E-01
         21   -1    0    0  501  502  0.00000000000E+00  0.00000000000E+00  0.17469282116E+04  0.17469282116E+04  0.00000000000E+00 0. -1.
         21   -1    0    0  502  503 -0.00000000000E+00 -0.00000000000E+00 -0.48596113452E+03  0.48596113452E+03  0.00000000000E+00 0. -1.
    9000007    1    1    2  501    0 -0.55125485093E+03  0.57387454012E+03  0.91652249348E+03  0.12779778478E+04  0.40000000000E+03 0. -1.
   -9000007    1    1    2    0  503  0.55125485093E+03 -0.57387454012E+03  0.34444458364E+03  0.95491149834E+03  0.40000000000E+03 0. -1.
<mgrwt>
<rscale>  2 0.89062557E+03</rscale>
<asrwt>0</asrwt>
<pdfrwt beam="1">  1       21 0.26875818E+00 0.89062557E+03</pdfrwt>
<pdfrwt beam="2">  1       21 0.74763252E-01 0.89062557E+03</pdfrwt>
<totfact> 0.52828233E+01</totfact>
</mgrwt>
</event>
<event>
 4    1  0.4863180E-002  0.5617196E+03  0.7818608E-02  0.9988171E-01
         21   -1    0    0  501  502  0.00000000000E+00  0.00000000000E+00  0.66265429181E+03  0.66265429181E+03  0.00000000000E+00 0.  1.
         21   -1    0    0  502  503 -0.00000000000E+00 -0.00000000000E+00 -0.49956762413E+03  0.49956762413E+03  0.00000000000E+00 0.  1.
    9000007    1    1    2  501    0 -0.39245230067E+03 -0.38860116638E+02  0.20733396560E+03  0.59876229863E+03  0.40000000000E+03 0.  1.
   -9000007    1    1    2    0  503  0.39245230067E+03  0.38860116638E+02 -0.44247297923E+02  0.56345961731E+03  0.40000000000E+03 0.  1.
<mgrwt>
<rscale>  2 0.56171961E+03</rscale>
<asrwt>0</asrwt>
<pdfrwt beam="1">  1       21 0.10194681E+00 0.56171961E+03</pdfrwt>
<pdfrwt beam="2">  1       21 0.76856558E-01 0.56171961E+03</pdfrwt>
<totfact> 0.96310047E+02</totfact>
</mgrwt>
</event>
<event>
 4    1  0.4863180E-002  0.4766819E+03  0.7818608E-02  0.1020051E+00
         21   -1    0    0  501  502  0.00000000000E+00  0.00000000000E+00  0.34432368699E+03  0.34432368699E+03  0.00000000000E+00 0.  1.
         21   -1    0    0  502  503 -0.00000000000E+00 -0.00000000000E+00 -0.67876073664E+03  0.67876073664E+03  0.00000000000E+00 0. -1.
    9000007    1    1    2  501    0 -0.11660451683E+03 -0.23157932083E+03 -0.81989299834E+02  0.48368154861E+03  0.40000000000E+03 0.  1.
   -9000007    1    1    2    0  503  0.11660451683E+03  0.23157932083E+03 -0.25244774982E+03  0.53940287501E+03  0.40000000000E+03 0. -1.
<mgrwt>
<rscale>  2 0.47668186E+03</rscale>
<asrwt>0</asrwt>
<pdfrwt beam="1">  1       21 0.52972876E-01 0.47668186E+03</pdfrwt>
<pdfrwt beam="2">  1       21 0.10442473E+00 0.47668186E+03</pdfrwt>
<totfact> 0.21372037E+03</totfact>
</mgrwt>
</event>
<event>
 4    1  0.4863180E-002  0.4048271E+03  0.7818608E-02  0.1042121E+00
         21   -1    0    0  503  502  0.00000000000E+00  0.00000000000E+00  0.10789662745E+04  0.10789662745E+04  0.00000000000E+00 0.  1.
         21   -1    0    0  501  503 -0.00000000000E+00 -0.00000000000E+00 -0.16915067269E+03  0.16915067269E+03  0.00000000000E+00 0.  1.
    9000007    1    1    2  501    0 -0.36082467705E+02  0.50823377505E+02  0.25556146004E+03  0.47874483813E+03  0.40000000000E+03 0.  1.
   -9000007    1    1    2    0  502  0.36082467705E+02 -0.50823377505E+02  0.65425414174E+03  0.76937210904E+03  0.40000000000E+03 0.  1.
<mgrwt>
<rscale>  2 0.40482707E+03</rscale>
<asrwt>0</asrwt>
<pdfrwt beam="1">  1       21 0.16599481E+00 0.40482707E+03</pdfrwt>
<pdfrwt beam="2">  1       21 0.26023181E-01 0.40482707E+03</pdfrwt>
<totfact> 0.27938859E+03</totfact>
</mgrwt>
</event>
<event>
 4    1  0.4863180E-002  0.5191437E+03  0.7818608E-02  0.1008899E+00
         21   -1    0    0  501  502  0.00000000000E+00  0.00000000000E+00  0.17981165581E+04  0.17981165581E+04  0.00000000000E+00 0.  1.
         21   -1    0    0  502  503 -0.00000000000E+00 -0.00000000000E+00 -0.20564637690E+03  0.20564637690E+03  0.00000000000E+00 0.  1.
    9000007    1    1    2  501    0 -0.32019242333E+03 -0.83588287817E+02  0.13179384847E+04  0.14164999256E+04  0.40000000000E+03 0.  1.
   -9000007    1    1    2    0  503  0.32019242333E+03  0.83588287817E+02  0.27453169653E+03  0.58726300941E+03  0.40000000000E+03 0.  1.
<mgrwt>
<rscale>  2 0.51914371E+03</rscale>
<asrwt>0</asrwt>
<pdfrwt beam="1">  1       21 0.27663331E+00 0.51914371E+03</pdfrwt>
<pdfrwt beam="2">  1       21 0.31637905E-01 0.51914371E+03</pdfrwt>
<totfact> 0.34406892E+02</totfact>
</mgrwt>
</event>
<event>
 4    1  0.4863180E-002  0.4339303E+03  0.7818608E-02  0.1032626E+00
         21   -1    0    0  503  502  0.00000000000E+00  0.00000000000E+00  0.13555681639E+04  0.13555681639E+04  0.00000000000E+00 0.  1.
         21   -1    0    0  501  503 -0.00000000000E+00 -0.00000000000E+00 -0.34384894689E+03  0.34384894689E+03  0.00000000000E+00 0.  1.
    9000007    1    1    2  501    0  0.16035382801E+03 -0.50814562103E+02 -0.15013984172E+03  0.45917038444E+03  0.40000000000E+03 0.  1.
   -9000007    1    1    2    0  502 -0.16035382801E+03  0.50814562103E+02  0.11618590588E+04  0.12402467264E+04  0.40000000000E+03 0.  1.
<mgrwt>
<rscale>  2 0.43393026E+03</rscale>
<asrwt>0</asrwt>
<pdfrwt beam="1">  1       21 0.20854895E+00 0.43393026E+03</pdfrwt>
<pdfrwt beam="2">  1       21 0.52899839E-01 0.43393026E+03</pdfrwt>
<totfact> 0.32959573E+02</totfact>
</mgrwt>
</event>
<event>
 4    1  0.4863180E-002  0.4627460E+03  0.7818608E-02  0.1023988E+00
         21   -1    0    0  501  502  0.00000000000E+00  0.00000000000E+00  0.60962116891E+03  0.60962116891E+03  0.00000000000E+00 0. -1.
         21   -1    0    0  502  503 -0.00000000000E+00 -0.00000000000E+00 -0.99883342529E+03  0.99883342529E+03  0.00000000000E+00 0.  1.
    9000007    1    1    2  501    0 -0.23125554542E+03  0.25588267090E+02  0.45295040624E+03  0.64753220555E+03  0.40000000000E+03 0. -1.
   -9000007    1    1    2    0  503  0.23125554542E+03 -0.25588267090E+02 -0.84216266262E+03  0.96092238865E+03  0.40000000000E+03 0.  1.
<mgrwt>
<rscale>  2 0.46274603E+03</rscale>
<asrwt>0</asrwt>
<pdfrwt beam="1">  1       21 0.93787872E-01 0.46274603E+03</pdfrwt>
<pdfrwt beam="2">  1       21 0.15366668E+00 0.46274603E+03</pdfrwt>
<totfact> 0.21745964E+02</totfact>
</mgrwt>
</event>
<event>
 4    1  0.4863180E-002  0.5376194E+03  0.7818608E-02  0.1004401E+00
         21   -1    0    0  501  502  0.00000000000E+00  0.00000000000E+00  0.11765860297E+04  0.11765860297E+04  0.00000000000E+00 0. -1.
         21   -1    0    0  502  503 -0.00000000000E+00 -0.00000000000E+00 -0.24579054171E+03  0.24579054171E+03  0.00000000000E+00 0. -1.
    9000007    1    1    2  501    0 -0.35822397750E+03 -0.26649078494E+02  0.44871525048E+03  0.70027135273E+03  0.40000000000E+03 0. -1.
   -9000007    1    1    2    0  503  0.35822397750E+03  0.26649078494E+02  0.48208023752E+03  0.72210521868E+03  0.40000000000E+03 0. -1.
<mgrwt>
<rscale>  2 0.53761937E+03</rscale>
<asrwt>0</asrwt>
<pdfrwt beam="1">  1       21 0.18101323E+00 0.53761937E+03</pdfrwt>
<pdfrwt beam="2">  1       21 0.37813930E-01 0.53761937E+03</pdfrwt>
<totfact> 0.97810570E+02</totfact>
</mgrwt>
</event>
<event>
 4    1  0.4863180E-002  0.4641370E+03  0.7818608E-02  0.1023588E+00
         21   -1    0    0  501  502  0.00000000000E+00  0.00000000000E+00  0.65767462965E+03  0.65767462965E+03  0.00000000000E+00 0.  1.
         21   -1    0    0  502  503 -0.00000000000E+00 -0.00000000000E+00 -0.32777183338E+03  0.32777183338E+03  0.00000000000E+00 0. -1.
    9000007    1    1    2  501    0  0.20656920816E+03 -0.11292599594E+03  0.15221211803E+03  0.48845843958E+03  0.40000000000E+03 0. -1.
   -9000007    1    1    2    0  503 -0.20656920816E+03  0.11292599594E+03  0.17769067824E+03  0.49698802345E+03  0.40000000000E+03 0.  1.
<mgrwt>
<rscale>  2 0.46413696E+03</rscale>
<asrwt>0</asrwt>
<pdfrwt beam="1">  1       21 0.10118071E+00 0.46413696E+03</pdfrwt>
<pdfrwt beam="2">  1       21 0.50426436E-01 0.46413696E+03</pdfrwt>
<totfact> 0.25775148E+03</totfact>
</mgrwt>
</event>
<event>
 4    1  0.4863180E-002  0.4412045E+03  0.7818608E-02  0.1030378E+00
         21   -1    0    0  503  502  0.00000000000E+00  0.00000000000E+00  0.59955000540E+03  0.59955000540E+03  0.00000000000E+00 0. -1.
         21   -1    0    0  501  503 -0.00000000000E+00 -0.00000000000E+00 -0.33532559030E+03  0.33532559030E+03  0.00000000000E+00 0.  1.
    9000007    1    1    2  501    0  0.13081996895E+03 -0.13246721418E+03  0.48822507874E+02  0.44389758321E+03  0.40000000000E+03 0.  1.
   -9000007    1    1    2    0  502 -0.13081996895E+03  0.13246721418E+03  0.21540190723E+03  0.49097801249E+03  0.40000000000E+03 0. -1.
<mgrwt>
<rscale>  2 0.44120452E+03</rscale>
<asrwt>0</asrwt>
<pdfrwt beam="1">  1       21 0.92238462E-01 0.44120452E+03</pdfrwt>
<pdfrwt beam="2">  1       21 0.51588552E-01 0.44120452E+03</pdfrwt>
<totfact> 0.30932890E+03</totfact>
</mgrwt>
</event>
<event>
 4    1  0.4863180E-002  0.4466844E+03  0.7818608E-02  0.1028715E+00
         21   -1    0    0  501  502  0.00000000000E+00  0.00000000000E+00  0.60663857815E+03  0.60663857815E+03  0.00000000000E+00 0.  1.
         21   -1    0    0  502  503 -0.00000000000E+00 -0.00000000000E+00 -0.37846803659E+03  0.37846803659E+03  0.00000000000E+00 0.  1.
    9000007    1    1    2  501    0 -0.33861514214E+02  0.19590901605E+03 -0.64158392717E+02  0.45126848335E+03  0.40000000000E+03 0.  1.
   -9000007    1    1    2    0  503  0.33861514214E+02 -0.19590901605E+03  0.29232893428E+03  0.53383813139E+03  0.40000000000E+03 0.  1.
<mgrwt>
<rscale>  2 0.44668439E+03</rscale>
<asrwt>0</asrwt>
<pdfrwt beam="1">  1       21 0.93329012E-01 0.44668439E+03</pdfrwt>
<pdfrwt beam="2">  1       21 0.58225852E-01 0.44668439E+03</pdfrwt>
<totfact> 0.23119988E+03</totfact>
</mgrwt>
</event>
<event>
 4    1  0.4863180E-002  0.4626360E+03  0.7818608E-02  0.1024019E+00
         21   -1    0    0  501  502  0.00000000000E+00  0.00000000000E+00  0.34359837067E+03  0.34359837067E+03  0.00000000000E+00 0. -1.
         21   -1    0    0  502  503 -0.00000000000E+00 -0.00000000000E+00 -0.81635416539E+03  0.81635416539E+03  0.00000000000E+00 0. -1.
    9000007    1    1    2  501    0  0.22251265135E+03  0.67232350095E+02  0.45944145663E+02  0.46491174800E+03  0.40000000000E+03 0. -1.
   -9000007    1    1    2    0  503 -0.22251265135E+03 -0.67232350095E+02 -0.51869994039E+03  0.69504078806E+03  0.40000000000E+03 0. -1.
<mgrwt>
<rscale>  2 0.46263600E+03</rscale>
<asrwt>0</asrwt>
<pdfrwt beam="1">  1       21 0.52861288E-01 0.46263600E+03</pdfrwt>
<pdfrwt beam="2">  1       21 0.12559295E+00 0.46263600E+03</pdfrwt>
<totfact> 0.13574761E+03</totfact>
</mgrwt>
</event>
<event>
 4    1  0.4863180E-002  0.5557818E+03  0.7818608E-02  0.1000164E+00
         21   -1    0    0  503  502  0.00000000000E+00  0.00000000000E+00  0.99897507882E+03  0.99897507882E+03  0.00000000000E+00 0. -1.
         21   -1    0    0  501  503 -0.00000000000E+00 -0.00000000000E+00 -0.34637800475E+03  0.34637800475E+03  0.00000000000E+00 0. -1.
    9000007    1    1    2  501    0 -0.23894166262E+03  0.30298563910E+03  0.10594815142E+03  0.56579009043E+03  0.40000000000E+03 0. -1.
   -9000007    1    1    2    0  502  0.23894166262E+03 -0.30298563910E+03  0.54664892265E+03  0.77956299314E+03  0.40000000000E+03 0. -1.
<mgrwt>
<rscale>  2 0.55578181E+03</rscale>
<asrwt>0</asrwt>
<pdfrwt beam="1">  1       21 0.15368847E+00 0.55578181E+03</pdfrwt>
<pdfrwt beam="2">  1       21 0.53288924E-01 0.55578181E+03</pdfrwt>
<totfact> 0.75300986E+02</totfact>
</mgrwt>
</event>
<event>
 4    1  0.4863180E-002  0.6441685E+03  0.7818608E-02  0.9817784E-01
         21   -1    0    0  503  502  0.00000000000E+00  0.00000000000E+00  0.20012515979E+04  0.20012515979E+04  0.00000000000E+00 0.  1.
         21   -1    0    0  501  503 -0.00000000000E+00 -0.00000000000E+00 -0.39337097652E+03  0.39337097652E+03  0.00000000000E+00 0.  1.
    9000007    1    1    2  501    0  0.29740483704E+03 -0.40804823077E+03 -0.19421433528E+02  0.64446116082E+03  0.40000000000E+03 0.  1.
   -9000007    1    1    2    0  502 -0.29740483704E+03  0.40804823077E+03  0.16273020549E+04  0.17501614136E+04  0.40000000000E+03 0.  1.
<mgrwt>
<rscale>  2 0.64416845E+03</rscale>
<asrwt>0</asrwt>
<pdfrwt beam="1">  1       21 0.30788486E+00 0.64416845E+03</pdfrwt>
<pdfrwt beam="2">  1       21 0.60518613E-01 0.64416845E+03</pdfrwt>
<totfact> 0.53608869E+01</totfact>
</mgrwt>
</event>
<event>
 4    1  0.4863180E-002  0.4300628E+03  0.7818608E-02  0.1033840E+00
         21   -1    0    0  501  502  0.00000000000E+00  0.00000000000E+00  0.35967134174E+03  0.35967134174E+03  0.00000000000E+00 0. -1.
         21   -1    0    0  502  503 -0.00000000000E+00 -0.00000000000E+00 -0.52092954701E+03  0.52092954701E+03  0.00000000000E+00 0. -1.
    9000007    1    1    2  501    0  0.11535307232E+03 -0.10792461761E+03 -0.13055879468E+03  0.44944371533E+03  0.40000000000E+03 0. -1.
   -9000007    1    1    2    0  503 -0.11535307232E+03  0.10792461761E+03 -0.30699410599E+02  0.43115717342E+03  0.40000000000E+03 0. -1.
<mgrwt>
<rscale>  2 0.43006285E+03</rscale>
<asrwt>0</asrwt>
<pdfrwt beam="1">  1       21 0.55334053E-01 0.43006285E+03</pdfrwt>
<pdfrwt beam="2">  1       21 0.80143007E-01 0.43006285E+03</pdfrwt>
<totfact> 0.37142914E+03</totfact>
</mgrwt>
</event>
<event>
 4    1  0.4863180E-002  0.4591666E+03  0.7818608E-02  0.1025023E+00
         21   -1    0    0  503  502  0.00000000000E+00  0.00000000000E+00  0.15937776499E+04  0.15937776499E+04  0.00000000000E+00 0.  1.
         21   -1    0    0  501  503 -0.00000000000E+00 -0.00000000000E+00 -0.14082277194E+03  0.14082277194E+03  0.00000000000E+00 0. -1.
    9000007    1    1    2  501    0  0.18403248060E+03  0.13025352889E+03  0.94002193269E+03  0.10461716731E+04  0.40000000000E+03 0.  1.
   -9000007    1    1    2    0  502 -0.18403248060E+03 -0.13025352889E+03  0.51293294525E+03  0.68842874869E+03  0.40000000000E+03 0. -1.
<mgrwt>
<rscale>  2 0.45916657E+03</rscale>
<asrwt>0</asrwt>
<pdfrwt beam="1">  1       21 0.24519655E+00 0.45916657E+03</pdfrwt>
<pdfrwt beam="2">  1       21 0.21665043E-01 0.45916657E+03</pdfrwt>
<totfact> 0.11583303E+03</totfact>
</mgrwt>
</event>
<event>
 4    1  0.4863180E-002  0.4067745E+03  0.7818608E-02  0.1041459E+00
         21   -1    0    0  503  502  0.00000000000E+00  0.00000000000E+00  0.72677951380E+03  0.72677951380E+03  0.00000000000E+00 0. -1.
         21   -1    0    0  501  503 -0.00000000000E+00 -0.00000000000E+00 -0.41727646380E+03  0.41727646380E+03  0.00000000000E+00 0. -1.
    9000007    1    1    2  501    0  0.51548913401E+02  0.52992566827E+02 -0.23084447230E+03  0.46771216897E+03  0.40000000000E+03 0. -1.
   -9000007    1    1    2    0  502 -0.51548913401E+02 -0.52992566827E+02  0.54034752230E+03  0.67634380863E+03  0.40000000000E+03 0. -1.
<mgrwt>
<rscale>  2 0.40677451E+03</rscale>
<asrwt>0</asrwt>
<pdfrwt beam="1">  1       21 0.11181223E+00 0.40677451E+03</pdfrwt>
<pdfrwt beam="2">  1       21 0.64196379E-01 0.40677451E+03</pdfrwt>
<totfact> 0.12207417E+03</totfact>
</mgrwt>
</event>
<event>
 4    1  0.4863180E-002  0.4354799E+03  0.7818608E-02  0.1032143E+00
         21   -1    0    0  503  502  0.00000000000E+00  0.00000000000E+00  0.82537791130E+03  0.82537791130E+03  0.00000000000E+00 0.  1.
         21   -1    0    0  501  503 -0.00000000000E+00 -0.00000000000E+00 -0.30918083127E+03  0.30918083127E+03  0.00000000000E+00 0. -1.
    9000007    1    1    2  501    0  0.65669775989E+02  0.15915479980E+03 -0.29406107926E+02  0.43647163592E+03  0.40000000000E+03 0. -1.
   -9000007    1    1    2    0  502 -0.65669775989E+02 -0.15915479980E+03  0.54560318795E+03  0.69808710666E+03  0.40000000000E+03 0.  1.
<mgrwt>
<rscale>  2 0.43547993E+03</rscale>
<asrwt>0</asrwt>
<pdfrwt beam="1">  1       21 0.12698122E+00 0.43547993E+03</pdfrwt>
<pdfrwt beam="2">  1       21 0.47566282E-01 0.43547993E+03</pdfrwt>
<totfact> 0.16699398E+03</totfact>
</mgrwt>
</event>
<event>
 4    1  0.4863180E-002  0.4322220E+03  0.7818608E-02  0.1033160E+00
         21   -1    0    0  501  502  0.00000000000E+00  0.00000000000E+00  0.25017470536E+03  0.25017470536E+03  0.00000000000E+00 0.  1.
         21   -1    0    0  502  503 -0.00000000000E+00 -0.00000000000E+00 -0.78974591968E+03  0.78974591968E+03  0.00000000000E+00 0.  1.
    9000007    1    1    2  501    0  0.73555625060E+02  0.14630601397E+03 -0.39111950208E+03  0.58291538375E+03  0.40000000000E+03 0.  1.
   -9000007    1    1    2    0  503 -0.73555625060E+02 -0.14630601397E+03 -0.14845171225E+03  0.45700524130E+03  0.40000000000E+03 0.  1.
<mgrwt>
<rscale>  2 0.43222203E+03</rscale>
<asrwt>0</asrwt>
<pdfrwt beam="1">  1       21 0.38488417E-01 0.43222203E+03</pdfrwt>
<pdfrwt beam="2">  1       21 0.12149937E+00 0.43222203E+03</pdfrwt>
<totfact> 0.29078566E+03</totfact>
</mgrwt>
</event>
<event>
 4    1  0.4863180E-002  0.4999245E+03  0.7818608E-02  0.1013799E+00
         21   -1    0    0  501  502  0.00000000000E+00  0.00000000000E+00  0.40862036485E+03  0.40862036485E+03  0.00000000000E+00 0.  1.
         21   -1    0    0  502  503 -0.00000000000E+00 -0.00000000000E+00 -0.76951655625E+03  0.76951655625E+03  0.00000000000E+00 0.  1.
    9000007    1    1    2  501    0  0.15468140806E+03  0.25690105715E+03  0.86378615988E+02  0.50733199827E+03  0.40000000000E+03 0.  1.
   -9000007    1    1    2    0  503 -0.15468140806E+03 -0.25690105715E+03 -0.44727480739E+03  0.67080492283E+03  0.40000000000E+03 0.  1.
<mgrwt>
<rscale>  2 0.49992449E+03</rscale>
<asrwt>0</asrwt>
<pdfrwt beam="1">  1       21 0.62864672E-01 0.49992449E+03</pdfrwt>
<pdfrwt beam="2">  1       21 0.11838716E+00 0.49992449E+03</pdfrwt>
<totfact> 0.10670789E+03</totfact>
</mgrwt>
</event>
<event>
 4    1  0.4863180E-002  0.4322250E+03  0.7818608E-02  0.1033159E+00
         21   -1    0    0  501  502  0.00000000000E+00  0.00000000000E+00  0.11504935876E+04  0.11504935876E+04  0.00000000000E+00 0.  1.
         21   -1    0    0  502  503 -0.00000000000E+00 -0.00000000000E+00 -0.19748782406E+03  0.19748782406E+03  0.00000000000E+00 0.  1.
    9000007    1    1    2  501    0 -0.13413655272E+03  0.93945787488E+02  0.76067328046E+03  0.87489557398E+03  0.40000000000E+03 0.  1.
   -9000007    1    1    2    0  503  0.13413655272E+03 -0.93945787488E+02  0.19233248309E+03  0.47308583768E+03  0.40000000000E+03 0.  1.
<mgrwt>
<rscale>  2 0.43222497E+03</rscale>
<asrwt>0</asrwt>
<pdfrwt beam="1">  1       21 0.17699901E+00 0.43222497E+03</pdfrwt>
<pdfrwt beam="2">  1       21 0.30382743E-01 0.43222497E+03</pdfrwt>
<totfact> 0.16946992E+03</totfact>
</mgrwt>
</event>
<event>
 4    1  0.4863180E-002  0.4147408E+03  0.7818608E-02  0.1038792E+00
         21   -1    0    0  503  502  0.00000000000E+00  0.00000000000E+00  0.24655345407E+03  0.24655345407E+03  0.00000000000E+00 0. -1.
         21   -1    0    0  501  503 -0.00000000000E+00 -0.00000000000E+00 -0.14362102587E+04  0.14362102587E+04  0.00000000000E+00 0. -1.
    9000007    1    1    2  501    0 -0.10958852567E+03  0.54803372834E+00 -0.11981860177E+04  0.12679352027E+04  0.40000000000E+03 0. -1.
   -9000007    1    1    2    0  502  0.10958852567E+03 -0.54803372834E+00  0.85292130232E+01  0.41482851008E+03  0.40000000000E+03 0. -1.
<mgrwt>
<rscale>  2 0.41474082E+03</rscale>
<asrwt>0</asrwt>
<pdfrwt beam="1">  1       21 0.37931301E-01 0.41474082E+03</pdfrwt>
<pdfrwt beam="2">  1       21 0.22095542E+00 0.41474082E+03</pdfrwt>
<totfact> 0.55541124E+02</totfact>
</mgrwt>
</event>
<event>
 4    1  0.4863180E-002  0.4589142E+03  0.7818608E-02  0.1025097E+00
         21   -1    0    0  501  502  0.00000000000E+00  0.00000000000E+00  0.12480420853E+04  0.12480420853E+04  0.00000000000E+00 0.  1.
         21   -1    0    0  502  503 -0.00000000000E+00 -0.00000000000E+00 -0.16916258985E+03  0.16916258985E+03  0.00000000000E+00 0.  1.
    9000007    1    1    2  501    0  0.12664702802E+03 -0.18591061157E+03  0.57460036765E+03  0.73536916424E+03  0.40000000000E+03 0.  1.
   -9000007    1    1    2    0  503 -0.12664702802E+03  0.18591061157E+03  0.50427912780E+03  0.68183551091E+03  0.40000000000E+03 0.  1.
<mgrwt>
<rscale>  2 0.45891418E+03</rscale>
<asrwt>0</asrwt>
<pdfrwt beam="1">  1       21 0.19200647E+00 0.45891418E+03</pdfrwt>
<pdfrwt beam="2">  1       21 0.26025015E-01 0.45891418E+03</pdfrwt>
<totfact> 0.17881220E+03</totfact>
</mgrwt>
</event>
<event>
 4    1  0.4863180E-002  0.4131911E+03  0.7818608E-02  0.1039305E+00
         21   -1    0    0  503  502  0.00000000000E+00  0.00000000000E+00  0.11433628589E+04  0.11433628589E+04  0.00000000000E+00 0. -1.
         21   -1    0    0  501  503 -0.00000000000E+00 -0.00000000000E+00 -0.17755109799E+03  0.17755109799E+03  0.00000000000E+00 0. -1.
    9000007    1    1    2  501    0  0.88546231407E+02  0.53725400379E+02  0.74626437514E+03  0.85301663017E+03  0.40000000000E+03 0. -1.
   -9000007    1    1    2    0  502 -0.88546231407E+02 -0.53725400379E+02  0.21954738576E+03  0.46789732670E+03  0.40000000000E+03 0. -1.
<mgrwt>
<rscale>  2 0.41319106E+03</rscale>
<asrwt>0</asrwt>
<pdfrwt beam="1">  1       21 0.17590197E+00 0.41319106E+03</pdfrwt>
<pdfrwt beam="2">  1       21 0.27315554E-01 0.41319106E+03</pdfrwt>
<totfact> 0.21468975E+03</totfact>
</mgrwt>
</event>
<event>
 4    1  0.4863180E-002  0.4487277E+03  0.7818608E-02  0.1028102E+00
         21   -1    0    0  501  502  0.00000000000E+00  0.00000000000E+00  0.24597545270E+04  0.24597545270E+04  0.00000000000E+00 0.  1.
         21   -1    0    0  502  503 -0.00000000000E+00 -0.00000000000E+00 -0.34791270447E+03  0.34791270447E+03  0.00000000000E+00 0.  1.
    9000007    1    1    2  501    0  0.17895822663E+03  0.96594462101E+02  0.22835410110E+04  0.23272120844E+04  0.40000000000E+03 0.  1.
   -9000007    1    1    2    0  503 -0.17895822663E+03 -0.96594462101E+02 -0.17169918847E+03  0.48045514703E+03  0.40000000000E+03 0.  1.
<mgrwt>
<rscale>  2 0.44872769E+03</rscale>
<asrwt>0</asrwt>
<pdfrwt beam="1">  1       21 0.37842376E+00 0.44872769E+03</pdfrwt>
<pdfrwt beam="2">  1       21 0.53525033E-01 0.44872769E+03</pdfrwt>
<totfact> 0.28856477E+01</totfact>
</mgrwt>
</event>
<event>
 4    1  0.4863180E-002  0.4953394E+03  0.7818608E-02  0.1015003E+00
         21   -1    0    0  503  502  0.00000000000E+00  0.00000000000E+00  0.31882832092E+03  0.31882832092E+03  0.00000000000E+00 0. -1.
         21   -1    0    0  501  503 -0.00000000000E+00 -0.00000000000E+00 -0.93381269187E+03  0.93381269187E+03  0.00000000000E+00 0. -1.
    9000007    1    1    2  501    0  0.86511319196E+02  0.27906438036E+03 -0.57016069301E+03  0.75527766589E+03  0.40000000000E+03 0. -1.
   -9000007    1    1    2    0  502 -0.86511319196E+02 -0.27906438036E+03 -0.44823677935E+02  0.49736334690E+03  0.40000000000E+03 0. -1.
<mgrwt>
<rscale>  2 0.49533942E+03</rscale>
<asrwt>0</asrwt>
<pdfrwt beam="1">  1       21 0.49050511E-01 0.49533942E+03</pdfrwt>
<pdfrwt beam="2">  1       21 0.14366349E+00 0.49533942E+03</pdfrwt>
<totfact> 0.11045256E+03</totfact>
</mgrwt>
</event>
<event>
 4    1  0.4863180E-002  0.4110441E+03  0.7818608E-02  0.1040021E+00
         21   -1    0    0  501  502  0.00000000000E+00  0.00000000000E+00  0.12892351059E+04  0.12892351059E+04  0.00000000000E+00 0. -1.
         21   -1    0    0  502  503 -0.00000000000E+00 -0.00000000000E+00 -0.20131811264E+03  0.20131811264E+03  0.00000000000E+00 0.  1.
    9000007    1    1    2  501    0 -0.93025994813E+02 -0.17418955376E+02  0.98425783314E+03  0.10666399288E+04  0.40000000000E+03 0. -1.
   -9000007    1    1    2    0  503  0.93025994813E+02  0.17418955376E+02  0.10365916014E+03  0.42391328972E+03  0.40000000000E+03 0.  1.
<mgrwt>
<rscale>  2 0.41104410E+03</rscale>
<asrwt>0</asrwt>
<pdfrwt beam="1">  1       21 0.19834386E+00 0.41104410E+03</pdfrwt>
<pdfrwt beam="2">  1       21 0.30972018E-01 0.41104410E+03</pdfrwt>
<totfact> 0.11747729E+03</totfact>
</mgrwt>
</event>
<event>
 4    1  0.4863180E-002  0.4036989E+03  0.7818608E-02  0.1042506E+00
         21   -1    0    0  501  502  0.00000000000E+00  0.00000000000E+00  0.78853702485E+02  0.78853702485E+02  0.00000000000E+00 0. -1.
         21   -1    0    0  502  503 -0.00000000000E+00 -0.00000000000E+00 -0.28201816523E+04  0.28201816523E+04  0.00000000000E+00 0. -1.
    9000007    1    1    2  501    0 -0.36920294511E+02  0.40121047945E+02 -0.62146030077E+03  0.74107065255E+03  0.40000000000E+03 0. -1.
   -9000007    1    1    2    0  503  0.36920294511E+02 -0.40121047945E+02 -0.21198676491E+04  0.21579647023E+04  0.40000000000E+03 0. -1.
<mgrwt>
<rscale>  2 0.40369891E+03</rscale>
<asrwt>0</asrwt>
<pdfrwt beam="1">  1       21 0.12131340E-01 0.40369891E+03</pdfrwt>
<pdfrwt beam="2">  1       21 0.43387405E+00 0.40369891E+03</pdfrwt>
<totfact> 0.24043869E+02</totfact>
</mgrwt>
</event>
<event>
 4    1  0.4863180E-002  0.4317717E+03  0.7818608E-02  0.1033302E+00
         21   -1    0    0  503  502  0.00000000000E+00  0.00000000000E+00  0.16961686264E+04  0.16961686264E+04  0.00000000000E+00 0. -1.
         21   -1    0    0  501  503 -0.00000000000E+00 -0.00000000000E+00 -0.56623749165E+03  0.56623749165E+03  0.00000000000E+00 0. -1.
    9000007    1    1    2  501    0 -0.11694995941E+03 -0.11291383030E+03 -0.45053300105E+03  0.62402468791E+03  0.40000000000E+03 0. -1.
   -9000007    1    1    2    0  502  0.11694995941E+03  0.11291383030E+03  0.15804641358E+04  0.16383814302E+04  0.40000000000E+03 0. -1.
<mgrwt>
<rscale>  2 0.43177173E+03</rscale>
<asrwt>0</asrwt>
<pdfrwt beam="1">  1       21 0.26094902E+00 0.43177173E+03</pdfrwt>
<pdfrwt beam="2">  1       21 0.87113461E-01 0.43177173E+03</pdfrwt>
<totfact> 0.50718077E+01</totfact>
</mgrwt>
</event>
<event>
 4    1  0.4863180E-002  0.5360192E+03  0.7818608E-02  0.1004783E+00
         21   -1    0    0  501  502  0.00000000000E+00  0.00000000000E+00  0.59427332728E+03  0.59427332728E+03  0.00000000000E+00 0. -1.
         21   -1    0    0  502  503 -0.00000000000E+00 -0.00000000000E+00 -0.48361244819E+03  0.48361244819E+03  0.00000000000E+00 0. -1.
    9000007    1    1    2  501    0  0.34805611177E+03  0.78571562805E+02  0.64402303341E+02  0.53987424841E+03  0.40000000000E+03 0. -1.
   -9000007    1    1    2    0  503 -0.34805611177E+03 -0.78571562805E+02  0.46258575750E+02  0.53801152706E+03  0.40000000000E+03 0. -1.
<mgrwt>
<rscale>  2 0.53601917E+03</rscale>
<asrwt>0</asrwt>
<pdfrwt beam="1">  1       21 0.91426666E-01 0.53601917E+03</pdfrwt>
<pdfrwt beam="2">  1       21 0.74401915E-01 0.53601917E+03</pdfrwt>
<totfact> 0.13619466E+03</totfact>
</mgrwt>
</event>
<event>
 4    1  0.4863180E-002  0.5058011E+03  0.7818608E-02  0.1012276E+00
         21   -1    0    0  501  502  0.00000000000E+00  0.00000000000E+00  0.80937469290E+03  0.80937469290E+03  0.00000000000E+00 0.  1.
         21   -1    0    0  502  503 -0.00000000000E+00 -0.00000000000E+00 -0.31671651168E+03  0.31671651168E+03  0.00000000000E+00 0.  1.
    9000007    1    1    2  501    0 -0.85372009186E+02 -0.29756735969E+03  0.22127371010E+03  0.55208402285E+03  0.40000000000E+03 0.  1.
   -9000007    1    1    2    0  503  0.85372009186E+02  0.29756735969E+03  0.27138447113E+03  0.57400718173E+03  0.40000000000E+03 0.  1.
<mgrwt>
<rscale>  2 0.50580106E+03</rscale>
<asrwt>0</asrwt>
<pdfrwt beam="1">  1       21 0.12451918E+00 0.50580106E+03</pdfrwt>
<pdfrwt beam="2">  1       21 0.48725617E-01 0.50580106E+03</pdfrwt>
<totfact> 0.16253377E+03</totfact>
</mgrwt>
</event>
<event>
 4    1  0.4863180E-002  0.4112936E+03  0.7818608E-02  0.1039938E+00
         21   -1    0    0  501  502  0.00000000000E+00  0.00000000000E+00  0.27777574947E+03  0.27777574947E+03  0.00000000000E+00 0.  1.
         21   -1    0    0  502  503 -0.00000000000E+00 -0.00000000000E+00 -0.10678324704E+04  0.10678324704E+04  0.00000000000E+00 0.  1.
    9000007    1    1    2  501    0 -0.25384009100E+02  0.92293211723E+02  0.46002863012E+02  0.41385824657E+03  0.40000000000E+03 0.  1.
   -9000007    1    1    2    0  503  0.25384009100E+02 -0.92293211723E+02 -0.83605958390E+03  0.93174997327E+03  0.40000000000E+03 0.  1.
<mgrwt>
<rscale>  2 0.41129355E+03</rscale>
<asrwt>0</asrwt>
<pdfrwt beam="1">  1       21 0.42734730E-01 0.41129355E+03</pdfrwt>
<pdfrwt beam="2">  1       21 0.16428192E+00 0.41129355E+03</pdfrwt>
<totfact> 0.10584925E+03</totfact>
</mgrwt>
</event>
<event>
 4    1  0.4863180E-002  0.4390776E+03  0.7818608E-02  0.1031030E+00
         21   -1    0    0  503  502  0.00000000000E+00  0.00000000000E+00  0.61326774621E+03  0.61326774621E+03  0.00000000000E+00 0.  1.
         21   -1    0    0  501  503 -0.00000000000E+00 -0.00000000000E+00 -0.42762079218E+03  0.42762079218E+03  0.00000000000E+00 0. -1.
    9000007    1    1    2  501    0 -0.11069113572E+03  0.14330613686E+03 -0.17501769964E+03  0.47267364172E+03  0.40000000000E+03 0. -1.
   -9000007    1    1    2    0  502  0.11069113572E+03 -0.14330613686E+03  0.36066465366E+03  0.56821489667E+03  0.40000000000E+03 0.  1.
<mgrwt>
<rscale>  2 0.43907764E+03</rscale>
<asrwt>0</asrwt>
<pdfrwt beam="1">  1       21 0.94348884E-01 0.43907764E+03</pdfrwt>
<pdfrwt beam="2">  1       21 0.65787814E-01 0.43907764E+03</pdfrwt>
<totfact> 0.17264715E+03</totfact>
</mgrwt>
</event>
<event>
 4    1  0.4863180E-002  0.4732650E+03  0.7818608E-02  0.1021003E+00
         21   -1    0    0  501  502  0.00000000000E+00  0.00000000000E+00  0.90977746774E+03  0.90977746774E+03  0.00000000000E+00 0. -1.
         21   -1    0    0  502  503 -0.00000000000E+00 -0.00000000000E+00 -0.27104016422E+03  0.27104016422E+03  0.00000000000E+00 0. -1.
    9000007    1    1    2  501    0 -0.16119040276E+03  0.19492931634E+03  0.14060278324E+03  0.49370935475E+03  0.40000000000E+03 0. -1.
   -9000007    1    1    2    0  503  0.16119040276E+03 -0.19492931634E+03  0.49813452028E+03  0.68710827721E+03  0.40000000000E+03 0. -1.
<mgrwt>
<rscale>  2 0.47326503E+03</rscale>
<asrwt>0</asrwt>
<pdfrwt beam="1">  1       21 0.13996576E+00 0.47326503E+03</pdfrwt>
<pdfrwt beam="2">  1       21 0.41698487E-01 0.47326503E+03</pdfrwt>
<totfact> 0.16798537E+03</totfact>
</mgrwt>
</event>
<event>
 4    1  0.4863180E-002  0.4463125E+03  0.7818608E-02  0.1028827E+00
         21   -1    0    0  503  502  0.00000000000E+00  0.00000000000E+00  0.48500235607E+03  0.48500235607E+03  0.00000000000E+00 0.  1.
         21   -1    0    0  501  503 -0.00000000000E+00 -0.00000000000E+00 -0.59362442453E+03  0.59362442453E+03  0.00000000000E+00 0.  1.
    9000007    1    1    2  501    0  0.11844613229E+03  0.15863602924E+03 -0.35368248433E+03  0.56946130312E+03  0.40000000000E+03 0.  1.
   -9000007    1    1    2    0  502 -0.11844613229E+03 -0.15863602924E+03  0.24506041588E+03  0.50916547748E+03  0.40000000000E+03 0.  1.
<mgrwt>
<rscale>  2 0.44631253E+03</rscale>
<asrwt>0</asrwt>
<pdfrwt beam="1">  1       21 0.74615747E-01 0.44631253E+03</pdfrwt>
<pdfrwt beam="2">  1       21 0.91326835E-01 0.44631253E+03</pdfrwt>
<totfact> 0.14011515E+03</totfact>
</mgrwt>
</event>
<event>
 4    1  0.4863180E-002  0.4843209E+03  0.7818608E-02  0.1017954E+00
         21   -1    0    0  503  502  0.00000000000E+00  0.00000000000E+00  0.27544892445E+03  0.27544892445E+03  0.00000000000E+00 0. -1.
         21   -1    0    0  501  503 -0.00000000000E+00 -0.00000000000E+00 -0.10204559833E+04  0.10204559833E+04  0.00000000000E+00 0.  1.
    9000007    1    1    2  501    0  0.14465579888E+03 -0.23160630603E+03 -0.63609418558E+03  0.79948895807E+03  0.40000000000E+03 0.  1.
   -9000007    1    1    2    0  502 -0.14465579888E+03  0.23160630603E+03 -0.10891287328E+03  0.49641594969E+03  0.40000000000E+03 0. -1.
<mgrwt>
<rscale>  2 0.48432095E+03</rscale>
<asrwt>0</asrwt>
<pdfrwt beam="1">  1       21 0.42376758E-01 0.48432095E+03</pdfrwt>
<pdfrwt beam="2">  1       21 0.15699323E+00 0.48432095E+03</pdfrwt>
<totfact> 0.11845137E+03</totfact>
</mgrwt>
</event>
<event>
 4    1  0.4863180E-002  0.5028246E+03  0.7818608E-02  0.1013044E+00
         21   -1    0    0  503  502  0.00000000000E+00  0.00000000000E+00  0.72990772880E+03  0.72990772880E+03  0.00000000000E+00 0. -1.
         21   -1    0    0  501  503 -0.00000000000E+00 -0.00000000000E+00 -0.39896408594E+03  0.39896408594E+03  0.00000000000E+00 0.  1.
    9000007    1    1    2  501    0 -0.27888351559E+03 -0.12270535012E+03 -0.39424554460E+02  0.50436783572E+03  0.40000000000E+03 0.  1.
   -9000007    1    1    2    0  502  0.27888351559E+03  0.12270535012E+03  0.37036819732E+03  0.62450397901E+03  0.40000000000E+03 0. -1.
<mgrwt>
<rscale>  2 0.50282464E+03</rscale>
<asrwt>0</asrwt>
<pdfrwt beam="1">  1       21 0.11229350E+00 0.50282464E+03</pdfrwt>
<pdfrwt beam="2">  1       21 0.61379090E-01 0.50282464E+03</pdfrwt>
<totfact> 0.12832315E+03</totfact>
</mgrwt>
</event>
<event>
 4    1  0.4863180E-002  0.4852471E+03  0.7818608E-02  0.1017703E+00
         21   -1    0    0  501  502  0.00000000000E+00  0.00000000000E+00  0.30604118880E+03  0.30604118880E+03  0.00000000000E+00 0. -1.
         21   -1    0    0  502  503 -0.00000000000E+00 -0.00000000000E+00 -0.78871071230E+03  0.78871071230E+03  0.00000000000E+00 0.  1.
    9000007    1    1    2  501    0 -0.16163030950E+01 -0.27470377793E+03 -0.15566103256E+03  0.50960291905E+03  0.40000000000E+03 0. -1.
   -9000007    1    1    2    0  503  0.16163030950E+01  0.27470377793E+03 -0.32700849094E+03  0.58514898204E+03  0.40000000000E+03 0.  1.
<mgrwt>
<rscale>  2 0.48524713E+03</rscale>
<asrwt>0</asrwt>
<pdfrwt beam="1">  1       21 0.47083260E-01 0.48524713E+03</pdfrwt>
<pdfrwt beam="2">  1       21 0.12134011E+00 0.48524713E+03</pdfrwt>
<totfact> 0.18814126E+03</totfact>
</mgrwt>
</event>
<event>
 4    1  0.4863180E-002  0.4004735E+03  0.7818608E-02  0.1043616E+00
         21   -1    0    0  501  502  0.00000000000E+00  0.00000000000E+00  0.23873485717E+03  0.23873485717E+03  0.00000000000E+00 0. -1.
         21   -1    0    0  502  503 -0.00000000000E+00 -0.00000000000E+00 -0.10793381237E+04  0.10793381237E+04  0.00000000000E+00 0. -1.
    9000007    1    1    2  501    0 -0.13726477565E+02 -0.13807440078E+02 -0.82527042292E+03  0.91730601903E+03  0.40000000000E+03 0. -1.
   -9000007    1    1    2    0  503  0.13726477565E+02  0.13807440078E+02 -0.15332843579E+02  0.40076696181E+03  0.40000000000E+03 0. -1.
<mgrwt>
<rscale>  2 0.40047355E+03</rscale>
<asrwt>0</asrwt>
<pdfrwt beam="1">  1       21 0.36728439E-01 0.40047355E+03</pdfrwt>
<pdfrwt beam="2">  1       21 0.16605202E+00 0.40047355E+03</pdfrwt>
<totfact> 0.14090797E+03</totfact>
</mgrwt>
</event>
<event>
 4    1  0.4863180E-002  0.4183080E+03  0.7818608E-02  0.1037618E+00
         21   -1    0    0  503  502  0.00000000000E+00  0.00000000000E+00  0.15075371568E+04  0.15075371568E+04  0.00000000000E+00 0. -1.
         21   -1    0    0  501  503 -0.00000000000E+00 -0.00000000000E+00 -0.35512817020E+03  0.35512817020E+03  0.00000000000E+00 0. -1.
    9000007    1    1    2  501    0 -0.11870341291E+01 -0.12239348982E+03 -0.18791806564E+03  0.45857908238E+03  0.40000000000E+03 0. -1.
   -9000007    1    1    2    0  502  0.11870341291E+01  0.12239348982E+03  0.13403270522E+04  0.14040862446E+04  0.40000000000E+03 0. -1.
<mgrwt>
<rscale>  2 0.41830799E+03</rscale>
<asrwt>0</asrwt>
<pdfrwt beam="1">  1       21 0.23192879E+00 0.41830799E+03</pdfrwt>
<pdfrwt beam="2">  1       21 0.54635104E-01 0.41830799E+03</pdfrwt>
<totfact> 0.22002320E+02</totfact>
</mgrwt>
</event>
<event>
 4    1  0.4863180E-002  0.4093029E+03  0.7818608E-02  0.1040605E+00
         21   -1    0    0  503  502  0.00000000000E+00  0.00000000000E+00  0.69566708250E+03  0.69566708250E+03  0.00000000000E+00 0. -1.
         21   -1    0    0  501  503 -0.00000000000E+00 -0.00000000000E+00 -0.24213084654E+03  0.24213084654E+03  0.00000000000E+00 0. -1.
    9000007    1    1    2  501    0 -0.70259901344E+01 -0.86484325330E+02  0.19223616036E+03  0.45219867804E+03  0.40000000000E+03 0. -1.
   -9000007    1    1    2    0  502  0.70259901344E+01  0.86484325330E+02  0.26130007559E+03  0.48559925100E+03  0.40000000000E+03 0. -1.
<mgrwt>
<rscale>  2 0.40930295E+03</rscale>
<asrwt>0</asrwt>
<pdfrwt beam="1">  1       21 0.10702570E+00 0.40930295E+03</pdfrwt>
<pdfrwt beam="2">  1       21 0.37250900E-01 0.40930295E+03</pdfrwt>
<totfact> 0.43044947E+03</totfact>
</mgrwt>
</event>
<event>
 4    1  0.4863180E-002  0.4643004E+03  0.7818608E-02  0.1023541E+00
         21   -1    0    0  503  502  0.00000000000E+00  0.00000000000E+00  0.68176459660E+03  0.68176459660E+03  0.00000000000E+00 0.  1.
         21   -1    0    0  501  503 -0.00000000000E+00 -0.00000000000E+00 -0.31684924993E+03  0.31684924993E+03  0.00000000000E+00 0. -1.
    9000007    1    1    2  501    0  0.31264876659E+02 -0.23366086284E+03  0.20503603917E+03  0.50755755210E+03  0.40000000000E+03 0. -1.
   -9000007    1    1    2    0  502 -0.31264876659E+02  0.23366086284E+03  0.15987930750E+03  0.49105629443E+03  0.40000000000E+03 0. -1.
<mgrwt>
<rscale>  2 0.46430043E+03</rscale>
<asrwt>0</asrwt>
<pdfrwt beam="1">  1       21 0.10488686E+00 0.46430043E+03</pdfrwt>
<pdfrwt beam="2">  1       21 0.48746039E-01 0.46430043E+03</pdfrwt>
<totfact> 0.25358786E+03</totfact>
</mgrwt>
</event>
<event>
 4    1  0.4863180E-002  0.5720152E+03  0.7818608E-02  0.9965229E-01
         21   -1    0    0  501  502  0.00000000000E+00  0.00000000000E+00  0.15051100606E+04  0.15051100606E+04  0.00000000000E+00 0.  1.
         21   -1    0    0  502  503 -0.00000000000E+00 -0.00000000000E+00 -0.21766096091E+03  0.21766096091E+03  0.00000000000E+00 0. -1.
    9000007    1    1    2  501    0 -0.16148871424E+03 -0.37566307955E+03  0.67391183336E+03  0.88394485875E+03  0.40000000000E+03 0. -1.
   -9000007    1    1    2    0  503  0.16148871424E+03  0.37566307955E+03  0.61353726633E+03  0.83882616277E+03  0.40000000000E+03 0.  1.
<mgrwt>
<rscale>  2 0.57201517E+03</rscale>
<asrwt>0</asrwt>
<pdfrwt beam="1">  1       21 0.23155539E+00 0.57201517E+03</pdfrwt>
<pdfrwt beam="2">  1       21 0.33486303E-01 0.57201517E+03</pdfrwt>
<totfact> 0.56988292E+02</totfact>
</mgrwt>
</event>
<event>
 4    1  0.4863180E-002  0.4693924E+03  0.7818608E-02  0.1022092E+00
         21   -1    0    0  501  502  0.00000000000E+00  0.00000000000E+00  0.71484614339E+03  0.71484614339E+03  0.00000000000E+00 0.  1.
         21   -1    0    0  502  503 -0.00000000000E+00 -0.00000000000E+00 -0.52864699438E+03  0.52864699438E+03  0.00000000000E+00 0.  1.
    9000007    1    1    2  501    0 -0.83854786958E+02  0.23086266145E+03  0.49457951069E+03  0.68186368590E+03  0.40000000000E+03 0.  1.
   -9000007    1    1    2    0  503  0.83854786958E+02 -0.23086266145E+03 -0.30838036168E+03  0.56162945188E+03  0.40000000000E+03 0.  1.
<mgrwt>
<rscale>  2 0.46939237E+03</rscale>
<asrwt>0</asrwt>
<pdfrwt beam="1">  1       21 0.10997633E+00 0.46939237E+03</pdfrwt>
<pdfrwt beam="2">  1       21 0.81330306E-01 0.46939237E+03</pdfrwt>
<totfact> 0.72462203E+02</totfact>
</mgrwt>
</event>
<event>
 4    1  0.4863180E-002  0.5088686E+03  0.7818608E-02  0.1011490E+00
         21   -1    0    0  503  502  0.00000000000E+00  0.00000000000E+00  0.17574286679E+03  0.17574286679E+03  0.00000000000E+00 0. -1.
         21   -1    0    0  501  503 -0.00000000000E+00 -0.00000000000E+00 -0.15094515233E+04  0.15094515233E+04  0.00000000000E+00 0.  1.
    9000007    1    1    2  501    0 -0.29714887897E+03 -0.10319760434E+03 -0.79699393166E+03  0.94559321535E+03  0.40000000000E+03 0. -1.
   -9000007    1    1    2    0  502  0.29714887897E+03  0.10319760434E+03 -0.53671472487E+03  0.73960117476E+03  0.40000000000E+03 0.  1.
<mgrwt>
<rscale>  2 0.50886855E+03</rscale>
<asrwt>0</asrwt>
<pdfrwt beam="1">  1       21 0.27037363E-01 0.50886855E+03</pdfrwt>
<pdfrwt beam="2">  1       21 0.23222332E+00 0.50886855E+03</pdfrwt>
<totfact> 0.88739790E+02</totfact>
</mgrwt>
</event>
<event>
 4    1  0.4863180E-002  0.5767268E+03  0.7818608E-02  0.9954903E-01
         21   -1    0    0  501  502  0.00000000000E+00  0.00000000000E+00  0.39718747867E+03  0.39718747867E+03  0.00000000000E+00 0. -1.
         21   -1    0    0  502  503 -0.00000000000E+00 -0.00000000000E+00 -0.11176531388E+04  0.11176531388E+04  0.00000000000E+00 0. -1.
    9000007    1    1    2  501    0 -0.41382727843E+03 -0.36888802175E+02 -0.73949637398E+03  0.93779991855E+03  0.40000000000E+03 0. -1.
   -9000007    1    1    2    0  503  0.41382727843E+03  0.36888802175E+02  0.19030713875E+02  0.57704069889E+03  0.40000000000E+03 0. -1.
<mgrwt>
<rscale>  2 0.57672680E+03</rscale>
<asrwt>0</asrwt>
<pdfrwt beam="1">  1       21 0.61105766E-01 0.57672680E+03</pdfrwt>
<pdfrwt beam="2">  1       21 0.17194664E+00 0.57672680E+03</pdfrwt>
<totfact> 0.40363243E+02</totfact>
</mgrwt>
</event>
<event>
 4    1  0.4863180E-002  0.4731163E+03  0.7818608E-02  0.1021044E+00
         21   -1    0    0  503  502  0.00000000000E+00  0.00000000000E+00  0.69340660316E+03  0.69340660316E+03  0.00000000000E+00 0. -1.
         21   -1    0    0  501  503 -0.00000000000E+00 -0.00000000000E+00 -0.34392442131E+03  0.34392442131E+03  0.00000000000E+00 0.  1.
    9000007    1    1    2  501    0  0.23828034181E+03  0.84032995786E+02  0.46230673450E+02  0.47536968860E+03  0.40000000000E+03 0.  1.
   -9000007    1    1    2    0  502 -0.23828034181E+03 -0.84032995786E+02  0.30325150839E+03  0.56196133587E+03  0.40000000000E+03 0.  1.
<mgrwt>
<rscale>  2 0.47311633E+03</rscale>
<asrwt>0</asrwt>
<pdfrwt beam="1">  1       21 0.10667794E+00 0.47311633E+03</pdfrwt>
<pdfrwt beam="2">  1       21 0.52911449E-01 0.47311633E+03</pdfrwt>
<totfact> 0.20352189E+03</totfact>
</mgrwt>
</event>
<event>
 4    1  0.4863180E-002  0.4120097E+03  0.7818608E-02  0.1039699E+00
         21   -1    0    0  503  502  0.00000000000E+00  0.00000000000E+00  0.21873646994E+04  0.21873646994E+04  0.00000000000E+00 0. -1.
         21   -1    0    0  501  503 -0.00000000000E+00 -0.00000000000E+00 -0.15989791058E+03  0.15989791058E+03  0.00000000000E+00 0. -1.
    9000007    1    1    2  501    0  0.74181641564E+01  0.98473254213E+02  0.17177699122E+03  0.44638475071E+03  0.40000000000E+03 0. -1.
   -9000007    1    1    2    0  502 -0.74181641564E+01 -0.98473254213E+02  0.18556897976E+04  0.19008778593E+04  0.40000000000E+03 0. -1.
<mgrwt>
<rscale>  2 0.41200972E+03</rscale>
<asrwt>0</asrwt>
<pdfrwt beam="1">  1       21 0.33651763E+00 0.41200972E+03</pdfrwt>
<pdfrwt beam="2">  1       21 0.24599680E-01 0.41200972E+03</pdfrwt>
<totfact> 0.26141719E+02</totfact>
</mgrwt>
</event>
<event>
 4    1  0.4863180E-002  0.4148894E+03  0.7818608E-02  0.1038743E+00
         21   -1    0    0  501  502  0.00000000000E+00  0.00000000000E+00  0.44004984001E+03  0.44004984001E+03  0.00000000000E+00 0.  1.
         21   -1    0    0  502  503 -0.00000000000E+00 -0.00000000000E+00 -0.52433398728E+03  0.52433398728E+03  0.00000000000E+00 0.  1.
    9000007    1    1    2  501    0  0.79594974550E+02  0.76143813705E+02  0.20086181595E+03  0.46095412944E+03  0.40000000000E+03 0.  1.
   -9000007    1    1    2    0  503 -0.79594974550E+02 -0.76143813705E+02 -0.28514596322E+03  0.50342969785E+03  0.40000000000E+03 0.  1.
<mgrwt>
<rscale>  2 0.41488943E+03</rscale>
<asrwt>0</asrwt>
<pdfrwt beam="1">  1       21 0.67699975E-01 0.41488943E+03</pdfrwt>
<pdfrwt beam="2">  1       21 0.80666768E-01 0.41488943E+03</pdfrwt>
<totfact> 0.23629150E+03</totfact>
</mgrwt>
</event>
<event>
 4    1  0.4863180E-002  0.4651017E+03  0.7818608E-02  0.1023312E+00
         21   -1    0    0  501  502  0.00000000000E+00  0.00000000000E+00  0.32124340969E+03  0.32124340969E+03  0.00000000000E+00 0.  1.
         21   -1    0    0  502  503 -0.00000000000E+00 -0.00000000000E+00 -0.67890642258E+03  0.67890642258E+03  0.00000000000E+00 0.  1.
    9000007    1    1    2  501    0 -0.23170189986E+03 -0.51321064142E+02 -0.22394040898E+03  0.51620628512E+03  0.40000000000E+03 0.  1.
   -9000007    1    1    2    0  503  0.23170189986E+03  0.51321064142E+02 -0.13372260391E+03  0.48394354714E+03  0.40000000000E+03 0.  1.
<mgrwt>
<rscale>  2 0.46510173E+03</rscale>
<asrwt>0</asrwt>
<pdfrwt beam="1">  1       21 0.49422064E-01 0.46510173E+03</pdfrwt>
<pdfrwt beam="2">  1       21 0.10444714E+00 0.46510173E+03</pdfrwt>
<totfact> 0.24876987E+03</totfact>
</mgrwt>
</event>
<event>
 4    1  0.4863180E-002  0.5587879E+03  0.7818608E-02  0.9994801E-01
         21   -1    0    0  501  502  0.00000000000E+00  0.00000000000E+00  0.46949984663E+03  0.46949984663E+03  0.00000000000E+00 0.  1.
         21   -1    0    0  502  503 -0.00000000000E+00 -0.00000000000E+00 -0.67929403598E+03  0.67929403598E+03  0.00000000000E+00 0. -1.
    9000007    1    1    2  501    0 -0.17125641512E+02  0.38980843673E+03 -0.21739622603E+02  0.55921061876E+03  0.40000000000E+03 0.  1.
   -9000007    1    1    2    0  503  0.17125641512E+02 -0.38980843673E+03 -0.18805456674E+03  0.58958326385E+03  0.40000000000E+03 0.  1.
<mgrwt>
<rscale>  2 0.55878789E+03</rscale>
<asrwt>0</asrwt>
<pdfrwt beam="1">  1       21 0.72230745E-01 0.55878789E+03</pdfrwt>
<pdfrwt beam="2">  1       21 0.10450678E+00 0.55878789E+03</pdfrwt>
<totfact> 0.10453173E+03</totfact>
</mgrwt>
</event>
<event>
 4    1  0.4863180E-002  0.4454572E+03  0.7818608E-02  0.1029085E+00
         21   -1    0    0  501  502  0.00000000000E+00  0.00000000000E+00  0.28849708157E+03  0.28849708157E+03  0.00000000000E+00 0.  1.
         21   -1    0    0  502  503 -0.00000000000E+00 -0.00000000000E+00 -0.88164509079E+03  0.88164509079E+03  0.00000000000E+00 0.  1.
    9000007    1    1    2  501    0 -0.51600078750E+02  0.18912833409E+03 -0.57090468375E+03  0.72412999718E+03  0.40000000000E+03 0.  1.
   -9000007    1    1    2    0  503  0.51600078750E+02 -0.18912833409E+03 -0.22243325461E+02  0.44601217518E+03  0.40000000000E+03 0.  1.
<mgrwt>
<rscale>  2 0.44545718E+03</rscale>
<asrwt>0</asrwt>
<pdfrwt beam="1">  1       21 0.44384167E-01 0.44545718E+03</pdfrwt>
<pdfrwt beam="2">  1       21 0.13563770E+00 0.44545718E+03</pdfrwt>
<totfact> 0.16205836E+03</totfact>
</mgrwt>
</event>
<event>
 4    1  0.4863180E-002  0.4057664E+03  0.7818608E-02  0.1041801E+00
         21   -1    0    0  503  502  0.00000000000E+00  0.00000000000E+00  0.19159268430E+03  0.19159268430E+03  0.00000000000E+00 0. -1.
         21   -1    0    0  501  503 -0.00000000000E+00 -0.00000000000E+00 -0.86043639100E+03  0.86043639100E+03  0.00000000000E+00 0. -1.
    9000007    1    1    2  501    0 -0.55623027273E-01 -0.68164258849E+02 -0.31578467800E+03  0.51416566605E+03  0.40000000000E+03 0. -1.
   -9000007    1    1    2    0  502  0.55623027273E-01  0.68164258849E+02 -0.35305902869E+03  0.53786340926E+03  0.40000000000E+03 0. -1.
<mgrwt>
<rscale>  2 0.40576640E+03</rscale>
<asrwt>0</asrwt>
<pdfrwt beam="1">  1       21 0.29475797E-01 0.40576640E+03</pdfrwt>
<pdfrwt beam="2">  1       21 0.13237483E+00 0.40576640E+03</pdfrwt>
<totfact> 0.40294490E+03</totfact>
</mgrwt>
</event>
<event>
 4    1  0.4863180E-002  0.5115011E+03  0.7818608E-02  0.1010820E+00
         21   -1    0    0  503  502  0.00000000000E+00  0.00000000000E+00  0.12367174415E+04  0.12367174415E+04  0.00000000000E+00 0. -1.
         21   -1    0    0  501  503 -0.00000000000E+00 -0.00000000000E+00 -0.30551466672E+03  0.30551466672E+03  0.00000000000E+00 0. -1.
    9000007    1    1    2  501    0  0.31102141046E+03 -0.69992988853E+02  0.37964425523E+02  0.51290801696E+03  0.40000000000E+03 0. -1.
   -9000007    1    1    2    0  502 -0.31102141046E+03  0.69992988853E+02  0.89323834922E+03  0.10293240912E+04  0.40000000000E+03 0. -1.
<mgrwt>
<rscale>  2 0.51150106E+03</rscale>
<asrwt>0</asrwt>
<pdfrwt beam="1">  1       21 0.19026422E+00 0.51150106E+03</pdfrwt>
<pdfrwt beam="2">  1       21 0.47002257E-01 0.51150106E+03</pdfrwt>
<totfact> 0.54154691E+02</totfact>
</mgrwt>
</event>
<event>
 4    1  0.4863180E-002  0.4185186E+03  0.7818608E-02  0.1037550E+00
         21   -1    0    0  501  502  0.00000000000E+00  0.00000000000E+00  0.89214328701E+03  0.89214328701E+03  0.00000000000E+00 0.  1.
         21   -1    0    0  502  503 -0.00000000000E+00 -0.00000000000E+00 -0.27879955422E+03  0.27879955422E+03  0.00000000000E+00 0.  1.
    9000007    1    1    2  501    0 -0.92174887204E+02 -0.81618531263E+02  0.62508922668E+03  0.75225948701E+03  0.40000000000E+03 0.  1.
   -9000007    1    1    2    0  503  0.92174887204E+02  0.81618531263E+02 -0.11745493901E+02  0.41868335422E+03  0.40000000000E+03 0.  1.
<mgrwt>
<rscale>  2 0.41851857E+03</rscale>
<asrwt>0</asrwt>
<pdfrwt beam="1">  1       21 0.13725281E+00 0.41851857E+03</pdfrwt>
<pdfrwt beam="2">  1       21 0.42892239E-01 0.41851857E+03</pdfrwt>
<totfact> 0.17059083E+03</totfact>
</mgrwt>
</event>
<event>
 4    1  0.4863180E-002  0.4958316E+03  0.7818608E-02  0.1014873E+00
         21   -1    0    0  501  502  0.00000000000E+00  0.00000000000E+00  0.11278548240E+04  0.11278548240E+04  0.00000000000E+00 0.  1.
         21   -1    0    0  502  503 -0.00000000000E+00 -0.00000000000E+00 -0.21811399841E+03  0.21811399841E+03  0.00000000000E+00 0.  1.
    9000007    1    1    2  501    0 -0.28708889226E+03  0.58557310135E+02  0.43814545359E+03  0.66168000509E+03  0.40000000000E+03 0.  1.
   -9000007    1    1    2    0  503  0.28708889226E+03 -0.58557310135E+02  0.47159537203E+03  0.68428881735E+03  0.40000000000E+03 0.  1.
<mgrwt>
<rscale>  2 0.49583162E+03</rscale>
<asrwt>0</asrwt>
<pdfrwt beam="1">  1       21 0.17351612E+00 0.49583162E+03</pdfrwt>
<pdfrwt beam="2">  1       21 0.33556001E-01 0.49583162E+03</pdfrwt>
<totfact> 0.14331936E+03</totfact>
</mgrwt>
</event>
<event>
 4    1  0.4863180E-002  0.4750590E+03  0.7818608E-02  0.1020502E+00
         21   -1    0    0  501  502  0.00000000000E+00  0.00000000000E+00  0.24570658880E+03  0.24570658880E+03  0.00000000000E+00 0. -1.
         21   -1    0    0  502  503 -0.00000000000E+00 -0.00000000000E+00 -0.12048358776E+04  0.12048358776E+04  0.00000000000E+00 0.  1.
    9000007    1    1    2  501    0 -0.18870185855E+02  0.25558753175E+03 -0.12599438893E+03  0.49148311908E+03  0.40000000000E+03 0. -1.
   -9000007    1    1    2    0  503  0.18870185855E+02 -0.25558753175E+03 -0.83313489983E+03  0.95905934728E+03  0.40000000000E+03 0.  1.
<mgrwt>
<rscale>  2 0.47505902E+03</rscale>
<asrwt>0</asrwt>
<pdfrwt beam="1">  1       21 0.37801014E-01 0.47505902E+03</pdfrwt>
<pdfrwt beam="2">  1       21 0.18535936E+00 0.47505902E+03</pdfrwt>
<totfact> 0.93534665E+02</totfact>
</mgrwt>
</event>
<event>
 4    1  0.4863180E-002  0.4002188E+03  0.7818608E-02  0.1043704E+00
         21   -1    0    0  503  502  0.00000000000E+00  0.00000000000E+00  0.26665855824E+03  0.26665855824E+03  0.00000000000E+00 0.  1.
         21   -1    0    0  501  503 -0.00000000000E+00 -0.00000000000E+00 -0.68316499554E+03  0.68316499554E+03  0.00000000000E+00 0.  1.
    9000007    1    1    2  501    0 -0.12675409861E+02 -0.37927736750E+01 -0.37327890581E+03  0.54727707121E+03  0.40000000000E+03 0. -1.
   -9000007    1    1    2    0  502  0.12675409861E+02  0.37927736750E+01 -0.43227531485E+02  0.40254648257E+03  0.40000000000E+03 0. -1.
<mgrwt>
<rscale>  2 0.40021875E+03</rscale>
<asrwt>0</asrwt>
<pdfrwt beam="1">  1       21 0.41024394E-01 0.40021875E+03</pdfrwt>
<pdfrwt beam="2">  1       21 0.10510231E+00 0.40021875E+03</pdfrwt>
<totfact> 0.37066271E+03</totfact>
</mgrwt>
</event>
<event>
 4    1  0.4863180E-002  0.4170499E+03  0.7818608E-02  0.1038031E+00
         21   -1    0    0  501  502  0.00000000000E+00  0.00000000000E+00  0.83404064095E+02  0.83404064095E+02  0.00000000000E+00 0. -1.
         21   -1    0    0  502  503 -0.00000000000E+00 -0.00000000000E+00 -0.25758351561E+04  0.25758351561E+04  0.00000000000E+00 0. -1.
    9000007    1    1    2  501    0  0.10242803599E+03 -0.58644289044E+02 -0.66603904876E+03  0.78583628681E+03  0.40000000000E+03 0. -1.
   -9000007    1    1    2    0  503 -0.10242803599E+03  0.58644289044E+02 -0.18263920433E+04  0.18734029334E+04  0.40000000000E+03 0. -1.
<mgrwt>
<rscale>  2 0.41704994E+03</rscale>
<asrwt>0</asrwt>
<pdfrwt beam="1">  1       21 0.12831395E-01 0.41704994E+03</pdfrwt>
<pdfrwt beam="2">  1       21 0.39628230E+00 0.41704994E+03</pdfrwt>
<totfact> 0.37733035E+02</totfact>
</mgrwt>
</event>
<event>
 4    1  0.4863180E-002  0.4541837E+03  0.7818608E-02  0.1026482E+00
         21   -1    0    0  503  502  0.00000000000E+00  0.00000000000E+00  0.35189954146E+03  0.35189954146E+03  0.00000000000E+00 0. -1.
         21   -1    0    0  501  503 -0.00000000000E+00 -0.00000000000E+00 -0.85223339645E+03  0.85223339645E+03  0.00000000000E+00 0. -1.
    9000007    1    1    2  501    0  0.20356136488E+03  0.69610061754E+02 -0.58655060846E+03  0.74183853112E+03  0.40000000000E+03 0. -1.
   -9000007    1    1    2    0  502 -0.20356136488E+03 -0.69610061754E+02  0.86216753481E+02  0.46229440679E+03  0.40000000000E+03 0. -1.
<mgrwt>
<rscale>  2 0.45418365E+03</rscale>
<asrwt>0</asrwt>
<pdfrwt beam="1">  1       21 0.54138392E-01 0.45418365E+03</pdfrwt>
<pdfrwt beam="2">  1       21 0.13111283E+00 0.45418365E+03</pdfrwt>
<totfact> 0.11576207E+03</totfact>
</mgrwt>
</event>
<event>
 4    1  0.4863180E-002  0.4343570E+03  0.7818608E-02  0.1032492E+00
         21   -1    0    0  501  502  0.00000000000E+00  0.00000000000E+00  0.55688244950E+03  0.55688244950E+03  0.00000000000E+00 0.  1.
         21   -1    0    0  502  503 -0.00000000000E+00 -0.00000000000E+00 -0.80061827929E+03  0.80061827929E+03  0.00000000000E+00 0.  1.
    9000007    1    1    2  501    0 -0.16813128255E+03  0.19947689552E+02  0.39364283619E+03  0.58619171009E+03  0.40000000000E+03 0.  1.
   -9000007    1    1    2    0  503  0.16813128255E+03 -0.19947689552E+02 -0.63737866598E+03  0.77130901871E+03  0.40000000000E+03 0.  1.
<mgrwt>
<rscale>  2 0.43435704E+03</rscale>
<asrwt>0</asrwt>
<pdfrwt beam="1">  1       21 0.85674223E-01 0.43435704E+03</pdfrwt>
<pdfrwt beam="2">  1       21 0.12317204E+00 0.43435704E+03</pdfrwt>
<totfact> 0.49013682E+02</totfact>
</mgrwt>
</event>
<event>
 4    1  0.4863180E-002  0.4858134E+03  0.7818608E-02  0.1017550E+00
         21   -1    0    0  503  502  0.00000000000E+00  0.00000000000E+00  0.63965827845E+03  0.63965827845E+03  0.00000000000E+00 0.  1.
         21   -1    0    0  501  503 -0.00000000000E+00 -0.00000000000E+00 -0.60754266646E+03  0.60754266646E+03  0.00000000000E+00 0.  1.
    9000007    1    1    2  501    0 -0.12356797829E+03  0.24646630424E+03 -0.37471868601E+03  0.61353791898E+03  0.40000000000E+03 0.  1.
   -9000007    1    1    2    0  502  0.12356797829E+03 -0.24646630424E+03  0.40683429800E+03  0.63366302592E+03  0.40000000000E+03 0.  1.
<mgrwt>
<rscale>  2 0.48581343E+03</rscale>
<asrwt>0</asrwt>
<pdfrwt beam="1">  1       21 0.98408966E-01 0.48581343E+03</pdfrwt>
<pdfrwt beam="2">  1       21 0.93468103E-01 0.48581343E+03</pdfrwt>
<totfact> 0.68154683E+02</totfact>
</mgrwt>
</event>
<event>
 4    1  0.4863180E-002  0.4240135E+03  0.7818608E-02  0.1035768E+00
         21   -1    0    0  503  502  0.00000000000E+00  0.00000000000E+00  0.64489479901E+03  0.64489479901E+03  0.00000000000E+00 0. -1.
         21   -1    0    0  501  503 -0.00000000000E+00 -0.00000000000E+00 -0.95829430833E+03  0.95829430833E+03  0.00000000000E+00 0. -1.
    9000007    1    1    2  501    0 -0.32799946502E+02  0.13679051901E+03 -0.83169819250E+03  0.93354665978E+03  0.40000000000E+03 0. -1.
   -9000007    1    1    2    0  502  0.32799946502E+02 -0.13679051901E+03  0.51829868318E+03  0.66964244755E+03  0.40000000000E+03 0. -1.
<mgrwt>
<rscale>  2 0.42401354E+03</rscale>
<asrwt>0</asrwt>
<pdfrwt beam="1">  1       21 0.99214585E-01 0.42401354E+03</pdfrwt>
<pdfrwt beam="2">  1       21 0.14742989E+00 0.42401354E+03</pdfrwt>
<totfact> 0.21687946E+02</totfact>
</mgrwt>
</event>
<event>
 4    1  0.4863180E-002  0.5079746E+03  0.7818608E-02  0.1011718E+00
         21   -1    0    0  503  502  0.00000000000E+00  0.00000000000E+00  0.83002399464E+03  0.83002399464E+03  0.00000000000E+00 0.  1.
         21   -1    0    0  501  503 -0.00000000000E+00 -0.00000000000E+00 -0.39253632355E+03  0.39253632355E+03  0.00000000000E+00 0.  1.
    9000007    1    1    2  501    0 -0.16111917199E+03 -0.26847496461E+03  0.49754476241E+03  0.71104780768E+03  0.40000000000E+03 0.  1.
   -9000007    1    1    2    0  502  0.16111917199E+03  0.26847496461E+03 -0.60057091319E+02  0.51151251052E+03  0.40000000000E+03 0.  1.
<mgrwt>
<rscale>  2 0.50797460E+03</rscale>
<asrwt>0</asrwt>
<pdfrwt beam="1">  1       21 0.12769600E+00 0.50797460E+03</pdfrwt>
<pdfrwt beam="2">  1       21 0.60390204E-01 0.50797460E+03</pdfrwt>
<totfact> 0.95700918E+02</totfact>
</mgrwt>
</event>
<event>
 4    1  0.4863180E-002  0.4446258E+03  0.7818608E-02  0.1029337E+00
         21   -1    0    0  503  502  0.00000000000E+00  0.00000000000E+00  0.50309719990E+03  0.50309719990E+03  0.00000000000E+00 0. -1.
         21   -1    0    0  501  503 -0.00000000000E+00 -0.00000000000E+00 -0.48776185162E+03  0.48776185162E+03  0.00000000000E+00 0. -1.
    9000007    1    1    2  501    0 -0.70252292131E+02  0.18098825322E+03 -0.21076061547E+03  0.49204895020E+03  0.40000000000E+03 0. -1.
   -9000007    1    1    2    0  502  0.70252292131E+02 -0.18098825322E+03  0.22609596375E+03  0.49881010132E+03  0.40000000000E+03 0. -1.
<mgrwt>
<rscale>  2 0.44462583E+03</rscale>
<asrwt>0</asrwt>
<pdfrwt beam="1">  1       21 0.77399569E-01 0.44462583E+03</pdfrwt>
<pdfrwt beam="2">  1       21 0.75040285E-01 0.44462583E+03</pdfrwt>
<totfact> 0.20364870E+03</totfact>
</mgrwt>
</event>
<event>
 4    1  0.4863180E-002  0.7697977E+03  0.7818608E-02  0.9604793E-01
         21   -1    0    0  501  502  0.00000000000E+00  0.00000000000E+00  0.37223164855E+03  0.37223164855E+03  0.00000000000E+00 0. -1.
         21   -1    0    0  502  503 -0.00000000000E+00 -0.00000000000E+00 -0.16012694169E+04  0.16012694169E+04  0.00000000000E+00 0. -1.
    9000007    1    1    2  501    0 -0.49576038278E+03 -0.43221542185E+03 -0.53939654766E+03  0.93996657581E+03  0.40000000000E+03 0. -1.
   -9000007    1    1    2    0  503  0.49576038278E+03  0.43221542185E+03 -0.68964122072E+03  0.10335344897E+04  0.40000000000E+03 0. -1.
<mgrwt>
<rscale>  2 0.76979772E+03</rscale>
<asrwt>0</asrwt>
<pdfrwt beam="1">  1       21 0.57266408E-01 0.76979772E+03</pdfrwt>
<pdfrwt beam="2">  1       21 0.24634914E+00 0.76979772E+03</pdfrwt>
<totfact> 0.13838183E+02</totfact>
</mgrwt>
</event>
<event>
 4    1  0.4863180E-002  0.4298884E+03  0.7818608E-02  0.1033895E+00
         21   -1    0    0  501  502  0.00000000000E+00  0.00000000000E+00  0.19469982112E+04  0.19469982112E+04  0.00000000000E+00 0.  1.
         21   -1    0    0  502  503 -0.00000000000E+00 -0.00000000000E+00 -0.10538713773E+03  0.10538713773E+03  0.00000000000E+00 0.  1.
    9000007    1    1    2  501    0 -0.36744472429E+02 -0.15314670437E+03  0.12442519605E+04  0.13164220488E+04  0.40000000000E+03 0.  1.
   -9000007    1    1    2    0  503  0.36744472429E+02  0.15314670437E+03  0.59735911290E+03  0.73596330009E+03  0.40000000000E+03 0.  1.
<mgrwt>
<rscale>  2 0.42988844E+03</rscale>
<asrwt>0</asrwt>
<pdfrwt beam="1">  1       21 0.29953816E+00 0.42988844E+03</pdfrwt>
<pdfrwt beam="2">  1       21 0.16213407E-01 0.42988844E+03</pdfrwt>
<totfact> 0.95352846E+02</totfact>
</mgrwt>
</event>
<event>
 4    1  0.4863180E-002  0.5085234E+03  0.7818608E-02  0.1011578E+00
         21   -1    0    0  501  502  0.00000000000E+00  0.00000000000E+00  0.92807900095E+03  0.92807900095E+03  0.00000000000E+00 0. -1.
         21   -1    0    0  502  503 -0.00000000000E+00 -0.00000000000E+00 -0.59407159871E+03  0.59407159871E+03  0.00000000000E+00 0. -1.
    9000007    1    1    2  501    0  0.19178122124E+03  0.24862826445E+03  0.72158307167E+03  0.88276734195E+03  0.40000000000E+03 0. -1.
   -9000007    1    1    2    0  503 -0.19178122124E+03 -0.24862826445E+03 -0.38757566942E+03  0.63938325770E+03  0.40000000000E+03 0. -1.
<mgrwt>
<rscale>  2 0.50852340E+03</rscale>
<asrwt>0</asrwt>
<pdfrwt beam="1">  1       21 0.14278138E+00 0.50852340E+03</pdfrwt>
<pdfrwt beam="2">  1       21 0.91395631E-01 0.50852340E+03</pdfrwt>
<totfact> 0.27637577E+02</totfact>
</mgrwt>
</event>
<event>
 4    1  0.4863180E-002  0.5847384E+03  0.7818608E-02  0.9937585E-01
         21   -1    0    0  503  502  0.00000000000E+00  0.00000000000E+00  0.81532363634E+03  0.81532363634E+03  0.00000000000E+00 0.  1.
         21   -1    0    0  501  503 -0.00000000000E+00 -0.00000000000E+00 -0.65577482209E+03  0.65577482209E+03  0.00000000000E+00 0. -1.
    9000007    1    1    2  501    0  0.41691208292E+03 -0.90018249968E+02 -0.36186341779E+03  0.68765114946E+03  0.40000000000E+03 0. -1.
   -9000007    1    1    2    0  502 -0.41691208292E+03  0.90018249968E+02  0.52141223204E+03  0.78344730897E+03  0.40000000000E+03 0.  1.
<mgrwt>
<rscale>  2 0.58473838E+03</rscale>
<asrwt>0</asrwt>
<pdfrwt beam="1">  1       21 0.12543441E+00 0.58473838E+03</pdfrwt>
<pdfrwt beam="2">  1       21 0.10088843E+00 0.58473838E+03</pdfrwt>
<totfact> 0.29715011E+02</totfact>
</mgrwt>
</event>
<event>
 4    1  0.4863180E-002  0.4348227E+03  0.7818608E-02  0.1032347E+00
         21   -1    0    0  503  502  0.00000000000E+00  0.00000000000E+00  0.13523140782E+04  0.13523140782E+04  0.00000000000E+00 0. -1.
         21   -1    0    0  501  503 -0.00000000000E+00 -0.00000000000E+00 -0.35227088162E+03  0.35227088162E+03  0.00000000000E+00 0. -1.
    9000007    1    1    2  501    0  0.15099164888E+03  0.79198009939E+02 -0.16187008247E+03  0.46397492002E+03  0.40000000000E+03 0. -1.
   -9000007    1    1    2    0  502 -0.15099164888E+03 -0.79198009939E+02  0.11619132791E+04  0.12406100398E+04  0.40000000000E+03 0. -1.
<mgrwt>
<rscale>  2 0.43482273E+03</rscale>
<asrwt>0</asrwt>
<pdfrwt beam="1">  1       21 0.20804832E+00 0.43482273E+03</pdfrwt>
<pdfrwt beam="2">  1       21 0.54195521E-01 0.43482273E+03</pdfrwt>
<totfact> 0.31511473E+02</totfact>
</mgrwt>
</event>
<event>
 4    1  0.4863180E-002  0.4112779E+03  0.7818608E-02  0.1039943E+00
         21   -1    0    0  503  502  0.00000000000E+00  0.00000000000E+00  0.81238225553E+03  0.81238225553E+03  0.00000000000E+00 0.  1.
         21   -1    0    0  501  503 -0.00000000000E+00 -0.00000000000E+00 -0.22354452078E+03  0.22354452078E+03  0.00000000000E+00 0.  1.
    9000007    1    1    2  501    0 -0.52776385811E+01 -0.95507330090E+02  0.15877724338E+03  0.44086246901E+03  0.40000000000E+03 0.  1.
   -9000007    1    1    2    0  502  0.52776385811E+01  0.95507330090E+02  0.43006049137E+03  0.59506430729E+03  0.40000000000E+03 0.  1.
<mgrwt>
<rscale>  2 0.41127789E+03</rscale>
<asrwt>0</asrwt>
<pdfrwt beam="1">  1       21 0.12498188E+00 0.41127789E+03</pdfrwt>
<pdfrwt beam="2">  1       21 0.34391465E-01 0.41127789E+03</pdfrwt>
<totfact> 0.34272442E+03</totfact>
</mgrwt>
</event>
<event>
 4    1  0.4863180E-002  0.4631300E+03  0.7818608E-02  0.1023877E+00
         21   -1    0    0  503  502  0.00000000000E+00  0.00000000000E+00  0.34684869825E+03  0.34684869825E+03  0.00000000000E+00 0.  1.
         21   -1    0    0  501  503 -0.00000000000E+00 -0.00000000000E+00 -0.13791880178E+04  0.13791880178E+04  0.00000000000E+00 0.  1.
    9000007    1    1    2  501    0 -0.19861934811E+03  0.12263648005E+03 -0.11571455263E+04  0.12463848205E+04  0.40000000000E+03 0.  1.
   -9000007    1    1    2    0  502  0.19861934811E+03 -0.12263648005E+03  0.12480620675E+03  0.47965189557E+03  0.40000000000E+03 0.  1.
<mgrwt>
<rscale>  2 0.46312995E+03</rscale>
<asrwt>0</asrwt>
<pdfrwt beam="1">  1       21 0.53361339E-01 0.46312995E+03</pdfrwt>
<pdfrwt beam="2">  1       21 0.21218277E+00 0.46312995E+03</pdfrwt>
<totfact> 0.30169428E+02</totfact>
</mgrwt>
</event>
<event>
 4    1  0.4863180E-002  0.4614390E+03  0.7818608E-02  0.1024365E+00
         21   -1    0    0  503  502  0.00000000000E+00  0.00000000000E+00  0.53104820291E+03  0.53104820291E+03  0.00000000000E+00 0. -1.
         21   -1    0    0  501  503 -0.00000000000E+00 -0.00000000000E+00 -0.40890298935E+03  0.40890298935E+03  0.00000000000E+00 0.  1.
    9000007    1    1    2  501    0  0.22379142720E+03  0.53322867880E+02  0.12659950042E+03  0.47849071530E+03  0.40000000000E+03 0. -1.
   -9000007    1    1    2    0  502 -0.22379142720E+03 -0.53322867880E+02 -0.44542868597E+01  0.46146047696E+03  0.40000000000E+03 0. -1.
<mgrwt>
<rscale>  2 0.46143898E+03</rscale>
<asrwt>0</asrwt>
<pdfrwt beam="1">  1       21 0.81699723E-01 0.46143898E+03</pdfrwt>
<pdfrwt beam="2">  1       21 0.62908152E-01 0.46143898E+03</pdfrwt>
<totfact> 0.26544059E+03</totfact>
</mgrwt>
</event>
<event>
 4    1  0.4863180E-002  0.4045641E+03  0.7818608E-02  0.1042211E+00
         21   -1    0    0  501  502  0.00000000000E+00  0.00000000000E+00  0.31416850185E+03  0.31416850185E+03  0.00000000000E+00 0.  1.
         21   -1    0    0  502  503 -0.00000000000E+00 -0.00000000000E+00 -0.70150008602E+03  0.70150008602E+03  0.00000000000E+00 0.  1.
    9000007    1    1    2  501    0 -0.10387630549E+02  0.59700828828E+02  0.63956831787E+02  0.40958829105E+03  0.40000000000E+03 0.  1.
   -9000007    1    1    2    0  503  0.10387630549E+02 -0.59700828828E+02 -0.45128841596E+03  0.60608029683E+03  0.40000000000E+03 0.  1.
<mgrwt>
<rscale>  2 0.40456408E+03</rscale>
<asrwt>0</asrwt>
<pdfrwt beam="1">  1       21 0.48333616E-01 0.40456408E+03</pdfrwt>
<pdfrwt beam="2">  1       21 0.10792309E+00 0.40456408E+03</pdfrwt>
<totfact> 0.24621614E+03</totfact>
</mgrwt>
</event>
<event>
 4    1  0.4863180E-002  0.5126612E+03  0.7818608E-02  0.1010526E+00
         21   -1    0    0  503  502  0.00000000000E+00  0.00000000000E+00  0.55060197804E+03  0.55060197804E+03  0.00000000000E+00 0. -1.
         21   -1    0    0  501  503 -0.00000000000E+00 -0.00000000000E+00 -0.54465117134E+03  0.54465117134E+03  0.00000000000E+00 0.  1.
    9000007    1    1    2  501    0 -0.23650268545E+03 -0.21653643542E+03 -0.18954877274E+03  0.54658053875E+03  0.40000000000E+03 0.  1.
   -9000007    1    1    2    0  502  0.23650268545E+03  0.21653643542E+03  0.19549957945E+03  0.54867261063E+03  0.40000000000E+03 0. -1.
<mgrwt>
<rscale>  2 0.51266124E+03</rscale>
<asrwt>0</asrwt>
<pdfrwt beam="1">  1       21 0.84707996E-01 0.51266124E+03</pdfrwt>
<pdfrwt beam="2">  1       21 0.83792488E-01 0.51266124E+03</pdfrwt>
<totfact> 0.12491242E+03</totfact>
</mgrwt>
</event>
<event>
 4    1  0.4863180E-002  0.4114864E+03  0.7818608E-02  0.1039873E+00
         21   -1    0    0  503  502  0.00000000000E+00  0.00000000000E+00  0.41505881619E+03  0.41505881619E+03  0.00000000000E+00 0. -1.
         21   -1    0    0  501  503 -0.00000000000E+00 -0.00000000000E+00 -0.46812323791E+03  0.46812323791E+03  0.00000000000E+00 0. -1.
    9000007    1    1    2  501    0  0.52458739303E+02  0.81050472918E+02 -0.18486121657E+03  0.45110394354E+03  0.40000000000E+03 0. -1.
   -9000007    1    1    2    0  502 -0.52458739303E+02 -0.81050472918E+02  0.13179679485E+03  0.43207811056E+03  0.40000000000E+03 0. -1.
<mgrwt>
<rscale>  2 0.41148645E+03</rscale>
<asrwt>0</asrwt>
<pdfrwt beam="1">  1       21 0.63855203E-01 0.41148645E+03</pdfrwt>
<pdfrwt beam="2">  1       21 0.72018959E-01 0.41148645E+03</pdfrwt>
<totfact> 0.34908154E+03</totfact>
</mgrwt>
</event>
<event>
 4    1  0.4863180E-002  0.5209166E+03  0.7818608E-02  0.1008459E+00
         21   -1    0    0  501  502  0.00000000000E+00  0.00000000000E+00  0.69741984142E+03  0.69741984142E+03  0.00000000000E+00 0. -1.
         21   -1    0    0  502  503 -0.00000000000E+00 -0.00000000000E+00 -0.43858239046E+03  0.43858239046E+03  0.00000000000E+00 0. -1.
    9000007    1    1    2  501    0  0.32827570341E+03 -0.59909911392E+02  0.32023875326E+03  0.61147934881E+03  0.40000000000E+03 0. -1.
   -9000007    1    1    2    0  503 -0.32827570341E+03  0.59909911392E+02 -0.61401302307E+02  0.52452288307E+03  0.40000000000E+03 0. -1.
<mgrwt>
<rscale>  2 0.52091663E+03</rscale>
<asrwt>0</asrwt>
<pdfrwt beam="1">  1       21 0.10729536E+00 0.52091663E+03</pdfrwt>
<pdfrwt beam="2">  1       21 0.67474214E-01 0.52091663E+03</pdfrwt>
<totfact> 0.11569243E+03</totfact>
</mgrwt>
</event>
<event>
 4    1  0.4863180E-002  0.4824545E+03  0.7818608E-02  0.1018463E+00
         21   -1    0    0  501  502  0.00000000000E+00  0.00000000000E+00  0.14079564332E+04  0.14079564332E+04  0.00000000000E+00 0.  1.
         21   -1    0    0  502  503 -0.00000000000E+00 -0.00000000000E+00 -0.27484184399E+03  0.27484184399E+03  0.00000000000E+00 0. -1.
    9000007    1    1    2  501    0 -0.12246469656E+03 -0.24034287503E+03  0.10977015636E+04  0.11990458799E+04  0.40000000000E+03 0.  1.
   -9000007    1    1    2    0  503  0.12246469656E+03  0.24034287503E+03  0.35413025634E+02  0.48375239727E+03  0.40000000000E+03 0. -1.
<mgrwt>
<rscale>  2 0.48245445E+03</rscale>
<asrwt>0</asrwt>
<pdfrwt beam="1">  1       21 0.21660868E+00 0.48245445E+03</pdfrwt>
<pdfrwt beam="2">  1       21 0.42283361E-01 0.48245445E+03</pdfrwt>
<totfact> 0.45745522E+02</totfact>
</mgrwt>
</event>
<event>
 4    1  0.4863180E-002  0.4326652E+03  0.7818608E-02  0.1033021E+00
         21   -1    0    0  503  502  0.00000000000E+00  0.00000000000E+00  0.98290584072E+02  0.98290584072E+02  0.00000000000E+00 0.  1.
         21   -1    0    0  501  503 -0.00000000000E+00 -0.00000000000E+00 -0.20583248946E+04  0.20583248946E+04  0.00000000000E+00 0.  1.
    9000007    1    1    2  501    0  0.15427897622E+03 -0.58285089622E+02 -0.68528261711E+03  0.81043902886E+03  0.40000000000E+03 0.  1.
   -9000007    1    1    2    0  502 -0.15427897622E+03  0.58285089622E+02 -0.12747516934E+04  0.13461764498E+04  0.40000000000E+03 0.  1.
<mgrwt>
<rscale>  2 0.43266518E+03</rscale>
<asrwt>0</asrwt>
<pdfrwt beam="1">  1       21 0.15121628E-01 0.43266518E+03</pdfrwt>
<pdfrwt beam="2">  1       21 0.31666537E+00 0.43266518E+03</pdfrwt>
<totfact> 0.85520594E+02</totfact>
</mgrwt>
</event>
<event>
 4    1  0.4863180E-002  0.6039963E+03  0.7818608E-02  0.9897149E-01
         21   -1    0    0  503  502  0.00000000000E+00  0.00000000000E+00  0.45130274860E+03  0.45130274860E+03  0.00000000000E+00 0.  1.
         21   -1    0    0  501  503 -0.00000000000E+00 -0.00000000000E+00 -0.80912546687E+03  0.80912546687E+03  0.00000000000E+00 0. -1.
    9000007    1    1    2  501    0  0.41383253398E+03 -0.18317808662E+03 -0.19839364764E+03  0.63574493079E+03  0.40000000000E+03 0. -1.
   -9000007    1    1    2    0  502 -0.41383253398E+03  0.18317808662E+03 -0.15942907063E+03  0.62468328468E+03  0.40000000000E+03 0.  1.
<mgrwt>
<rscale>  2 0.60399634E+03</rscale>
<asrwt>0</asrwt>
<pdfrwt beam="1">  1       21 0.69431193E-01 0.60399634E+03</pdfrwt>
<pdfrwt beam="2">  1       21 0.12448084E+00 0.60399634E+03</pdfrwt>
<totfact> 0.72474457E+02</totfact>
</mgrwt>
</event>
<event>
 4    1  0.4863180E-002  0.4156498E+03  0.7818608E-02  0.1038491E+00
         21   -1    0    0  503  502  0.00000000000E+00  0.00000000000E+00  0.36381402766E+03  0.36381402766E+03  0.00000000000E+00 0. -1.
         21   -1    0    0  501  503 -0.00000000000E+00 -0.00000000000E+00 -0.98094141370E+03  0.98094141370E+03  0.00000000000E+00 0. -1.
    9000007    1    1    2  501    0  0.99084731586E+02  0.54286314774E+02  0.17438076470E+03  0.45074764459E+03  0.40000000000E+03 0. -1.
   -9000007    1    1    2    0  502 -0.99084731586E+02 -0.54286314774E+02 -0.79150815073E+03  0.89400779677E+03  0.40000000000E+03 0. -1.
<mgrwt>
<rscale>  2 0.41564984E+03</rscale>
<asrwt>0</asrwt>
<pdfrwt beam="1">  1       21 0.55971390E-01 0.41564984E+03</pdfrwt>
<pdfrwt beam="2">  1       21 0.15091406E+00 0.41564984E+03</pdfrwt>
<totfact> 0.75407643E+02</totfact>
</mgrwt>
</event>
<event>
 4    1  0.4863180E-002  0.4854761E+03  0.7818608E-02  0.1017641E+00
         21   -1    0    0  503  502  0.00000000000E+00  0.00000000000E+00  0.14185590718E+04  0.14185590718E+04  0.00000000000E+00 0.  1.
         21   -1    0    0  501  503 -0.00000000000E+00 -0.00000000000E+00 -0.22867632584E+03  0.22867632584E+03  0.00000000000E+00 0.  1.
    9000007    1    1    2  501    0 -0.27510705012E+03 -0.17732908205E+01  0.16425357006E+03  0.51250977441E+03  0.40000000000E+03 0.  1.
   -9000007    1    1    2    0  502  0.27510705012E+03  0.17732908205E+01  0.10256291759E+04  0.11347256233E+04  0.40000000000E+03 0.  1.
<mgrwt>
<rscale>  2 0.48547609E+03</rscale>
<asrwt>0</asrwt>
<pdfrwt beam="1">  1       21 0.21823985E+00 0.48547609E+03</pdfrwt>
<pdfrwt beam="2">  1       21 0.35180974E-01 0.48547609E+03</pdfrwt>
<totfact> 0.65039945E+02</totfact>
</mgrwt>
</event>
<event>
 4    1  0.4863180E-002  0.4444542E+03  0.7818608E-02  0.1029389E+00
         21   -1    0    0  503  502  0.00000000000E+00  0.00000000000E+00  0.31044060295E+03  0.31044060295E+03  0.00000000000E+00 0. -1.
         21   -1    0    0  501  503 -0.00000000000E+00 -0.00000000000E+00 -0.75610940704E+03  0.75610940704E+03  0.00000000000E+00 0.  1.
    9000007    1    1    2  501    0  0.32003179931E+01  0.19372486117E+03 -0.10574422096E+02  0.44458000661E+03  0.40000000000E+03 0. -1.
   -9000007    1    1    2    0  502 -0.32003179931E+01 -0.19372486117E+03 -0.43509438199E+03  0.62197000339E+03  0.40000000000E+03 0.  1.
<mgrwt>
<rscale>  2 0.44445423E+03</rscale>
<asrwt>0</asrwt>
<pdfrwt beam="1">  1       21 0.47760093E-01 0.44445423E+03</pdfrwt>
<pdfrwt beam="2">  1       21 0.11632452E+00 0.44445423E+03</pdfrwt>
<totfact> 0.20627836E+03</totfact>
</mgrwt>
</event>
<event>
 4    1  0.4863180E-002  0.4131470E+03  0.7818608E-02  0.1039320E+00
         21   -1    0    0  503  502  0.00000000000E+00  0.00000000000E+00  0.18175545541E+04  0.18175545541E+04  0.00000000000E+00 0. -1.
         21   -1    0    0  501  503 -0.00000000000E+00 -0.00000000000E+00 -0.13014115855E+03  0.13014115855E+03  0.00000000000E+00 0. -1.
    9000007    1    1    2  501    0 -0.21934106232E+02 -0.10104141362E+03  0.32988558075E+03  0.52869175203E+03  0.40000000000E+03 0. -1.
   -9000007    1    1    2    0  502  0.21934106232E+02  0.10104141362E+03  0.13575278148E+04  0.14190039606E+04  0.40000000000E+03 0. -1.
<mgrwt>
<rscale>  2 0.41314703E+03</rscale>
<asrwt>0</asrwt>
<pdfrwt beam="1">  1       21 0.27962376E+00 0.41314703E+03</pdfrwt>
<pdfrwt beam="2">  1       21 0.20021718E-01 0.41314703E+03</pdfrwt>
<totfact> 0.85200991E+02</totfact>
</mgrwt>
</event>
<event>
 4    1  0.4863180E-002  0.5464042E+03  0.7818608E-02  0.1002330E+00
         21   -1    0    0  501  502  0.00000000000E+00  0.00000000000E+00  0.16075491375E+03  0.16075491375E+03  0.00000000000E+00 0. -1.
         21   -1    0    0  502  503 -0.00000000000E+00 -0.00000000000E+00 -0.18898631759E+04  0.18898631759E+04  0.00000000000E+00 0.  1.
    9000007    1    1    2  501    0 -0.76321868696E+02 -0.36432475480E+03 -0.72980597574E+03  0.91168762020E+03  0.40000000000E+03 0.  1.
   -9000007    1    1    2    0  503  0.76321868696E+02  0.36432475480E+03 -0.99930228641E+03  0.11389304694E+04  0.40000000000E+03 0. -1.
<mgrwt>
<rscale>  2 0.54640420E+03</rscale>
<asrwt>0</asrwt>
<pdfrwt beam="1">  1       21 0.24731525E-01 0.54640420E+03</pdfrwt>
<pdfrwt beam="2">  1       21 0.29074818E+00 0.54640420E+03</pdfrwt>
<totfact> 0.45391412E+02</totfact>
</mgrwt>
</event>
<event>
 4    1  0.4863180E-002  0.4520952E+03  0.7818608E-02  0.1027099E+00
         21   -1    0    0  503  502  0.00000000000E+00  0.00000000000E+00  0.26410033613E+03  0.26410033613E+03  0.00000000000E+00 0. -1.
         21   -1    0    0  501  503 -0.00000000000E+00 -0.00000000000E+00 -0.10345125394E+04  0.10345125394E+04  0.00000000000E+00 0. -1.
    9000007    1    1    2  501    0 -0.14184901501E+03 -0.15578488928E+03 -0.71109575435E+03  0.84264301258E+03  0.40000000000E+03 0. -1.
   -9000007    1    1    2    0  502  0.14184901501E+03  0.15578488928E+03 -0.59316448890E+02  0.45596986293E+03  0.40000000000E+03 0. -1.
<mgrwt>
<rscale>  2 0.45209521E+03</rscale>
<asrwt>0</asrwt>
<pdfrwt beam="1">  1       21 0.40630821E-01 0.45209521E+03</pdfrwt>
<pdfrwt beam="2">  1       21 0.15915578E+00 0.45209521E+03</pdfrwt>
<totfact> 0.12607671E+03</totfact>
</mgrwt>
</event>
<event>
 4    1  0.4863180E-002  0.7183536E+03  0.7818608E-02  0.9686350E-01
         21   -1    0    0  503  502  0.00000000000E+00  0.00000000000E+00  0.11354099934E+04  0.11354099934E+04  0.00000000000E+00 0. -1.
         21   -1    0    0  501  503 -0.00000000000E+00 -0.00000000000E+00 -0.53467308166E+03  0.53467308166E+03  0.00000000000E+00 0. -1.
    9000007    1    1    2  501    0 -0.53067784678E+03 -0.27278724331E+03 -0.23006807402E+02  0.71872190057E+03  0.40000000000E+03 0.  1.
   -9000007    1    1    2    0  502  0.53067784678E+03  0.27278724331E+03  0.62374371917E+03  0.95136117452E+03  0.40000000000E+03 0.  1.
<mgrwt>
<rscale>  2 0.71835357E+03</rscale>
<asrwt>0</asrwt>
<pdfrwt beam="1">  1       21 0.17467846E+00 0.71835357E+03</pdfrwt>
<pdfrwt beam="2">  1       21 0.82257397E-01 0.71835357E+03</pdfrwt>
<totfact> 0.18669989E+02</totfact>
</mgrwt>
</event>
<event>
 4    1  0.4863180E-002  0.6985381E+03  0.7818608E-02  0.9719736E-01
         21   -1    0    0  503  502  0.00000000000E+00  0.00000000000E+00  0.11441169622E+04  0.11441169622E+04  0.00000000000E+00 0.  1.
         21   -1    0    0  501  503 -0.00000000000E+00 -0.00000000000E+00 -0.42871000407E+03  0.42871000407E+03  0.00000000000E+00 0.  1.
    9000007    1    1    2  501    0  0.42321464901E+03  0.38580406040E+03  0.30112344901E+03  0.76067781860E+03  0.40000000000E+03 0.  1.
   -9000007    1    1    2    0  502 -0.42321464901E+03 -0.38580406040E+03  0.41428350917E+03  0.81214914771E+03  0.40000000000E+03 0.  1.
<mgrwt>
<rscale>  2 0.69853805E+03</rscale>
<asrwt>0</asrwt>
<pdfrwt beam="1">  1       21 0.17601799E+00 0.69853805E+03</pdfrwt>
<pdfrwt beam="2">  1       21 0.65955386E-01 0.69853805E+03</pdfrwt>
<totfact> 0.30515639E+02</totfact>
</mgrwt>
</event>
<event>
 4    1  0.4863180E-002  0.4313090E+03  0.7818608E-02  0.1033447E+00
         21   -1    0    0  503  502  0.00000000000E+00  0.00000000000E+00  0.91821033182E+03  0.91821033182E+03  0.00000000000E+00 0.  1.
         21   -1    0    0  501  503 -0.00000000000E+00 -0.00000000000E+00 -0.21464273221E+03  0.21464273221E+03  0.00000000000E+00 0.  1.
    9000007    1    1    2  501    0 -0.86291935590E+02 -0.13631260743E+03  0.21760402855E+03  0.48309309489E+03  0.40000000000E+03 0.  1.
   -9000007    1    1    2    0  502  0.86291935590E+02  0.13631260743E+03  0.48596357106E+03  0.64975996913E+03  0.40000000000E+03 0.  1.
<mgrwt>
<rscale>  2 0.43130897E+03</rscale>
<asrwt>0</asrwt>
<pdfrwt beam="1">  1       21 0.14126313E+00 0.43130897E+03</pdfrwt>
<pdfrwt beam="2">  1       21 0.33021959E-01 0.43130897E+03</pdfrwt>
<totfact> 0.26811162E+03</totfact>
</mgrwt>
</event>
<event>
 4    1  0.4863180E-002  0.6285582E+03  0.7818608E-02  0.9847866E-01
         21   -1    0    0  503  502  0.00000000000E+00  0.00000000000E+00  0.23169480789E+04  0.23169480789E+04  0.00000000000E+00 0.  1.
         21   -1    0    0  501  503 -0.00000000000E+00 -0.00000000000E+00 -0.17270666513E+03  0.17270666513E+03  0.00000000000E+00 0. -1.
    9000007    1    1    2  501    0  0.37940216995E+03  0.30189295517E+03  0.93204189790E+03  0.11241830200E+04  0.40000000000E+03 0.  1.
   -9000007    1    1    2    0  502 -0.37940216995E+03 -0.30189295517E+03  0.12121995159E+04  0.13654717241E+04  0.40000000000E+03 0. -1.
<mgrwt>
<rscale>  2 0.62855816E+03</rscale>
<asrwt>0</asrwt>
<pdfrwt beam="1">  1       21 0.35645353E+00 0.62855816E+03</pdfrwt>
<pdfrwt beam="2">  1       21 0.26570258E-01 0.62855816E+03</pdfrwt>
<totfact> 0.15028865E+02</totfact>
</mgrwt>
</event>
<event>
 4    1  0.4863180E-002  0.5376555E+03  0.7818608E-02  0.1004392E+00
         21   -1    0    0  501  502  0.00000000000E+00  0.00000000000E+00  0.56966496820E+03  0.56966496820E+03  0.00000000000E+00 0. -1.
         21   -1    0    0  502  503 -0.00000000000E+00 -0.00000000000E+00 -0.68219501034E+03  0.68219501034E+03  0.00000000000E+00 0. -1.
    9000007    1    1    2  501    0 -0.26956343544E+03 -0.23750565936E+03  0.26053168228E+03  0.59745304537E+03  0.40000000000E+03 0.  1.
   -9000007    1    1    2    0  503  0.26956343544E+03  0.23750565936E+03 -0.37306172442E+03  0.65440693317E+03  0.40000000000E+03 0.  1.
<mgrwt>
<rscale>  2 0.53765545E+03</rscale>
<asrwt>0</asrwt>
<pdfrwt beam="1">  1       21 0.87640765E-01 0.53765545E+03</pdfrwt>
<pdfrwt beam="2">  1       21 0.10495308E+00 0.53765545E+03</pdfrwt>
<totfact> 0.66529942E+02</totfact>
</mgrwt>
</event>
<event>
 4    1  0.4863180E-002  0.4527373E+03  0.7818608E-02  0.1026909E+00
         21   -1    0    0  503  502  0.00000000000E+00  0.00000000000E+00  0.27170202917E+03  0.27170202917E+03  0.00000000000E+00 0.  1.
         21   -1    0    0  501  503 -0.00000000000E+00 -0.00000000000E+00 -0.78135401538E+03  0.78135401538E+03  0.00000000000E+00 0.  1.
    9000007    1    1    2  501    0 -0.43706154796E+02 -0.20751110507E+03 -0.15702647825E+03  0.47919557757E+03  0.40000000000E+03 0.  1.
   -9000007    1    1    2    0  502  0.43706154796E+02  0.20751110507E+03 -0.35262550797E+03  0.57386046698E+03  0.40000000000E+03 0.  1.
<mgrwt>
<rscale>  2 0.45273733E+03</rscale>
<asrwt>0</asrwt>
<pdfrwt beam="1">  1       21 0.41800313E-01 0.45273733E+03</pdfrwt>
<pdfrwt beam="2">  1       21 0.12020831E+00 0.45273733E+03</pdfrwt>
<totfact> 0.25015007E+03</totfact>
</mgrwt>
</event>
<event>
 4    1  0.4863180E-002  0.5291295E+03  0.7818608E-02  0.1006443E+00
         21   -1    0    0  501  502  0.00000000000E+00  0.00000000000E+00  0.10239399823E+04  0.10239399823E+04  0.00000000000E+00 0.  1.
         21   -1    0    0  502  503 -0.00000000000E+00 -0.00000000000E+00 -0.35204181728E+03  0.35204181728E+03  0.00000000000E+00 0. -1.
    9000007    1    1    2  501    0 -0.18536365940E+03  0.29260612304E+03  0.66105416962E+03  0.84674119106E+03  0.40000000000E+03 0.  1.
   -9000007    1    1    2    0  503  0.18536365940E+03 -0.29260612304E+03  0.10843995400E+02  0.52924060851E+03  0.40000000000E+03 0. -1.
<mgrwt>
<rscale>  2 0.52912950E+03</rscale>
<asrwt>0</asrwt>
<pdfrwt beam="1">  1       21 0.15752923E+00 0.52912950E+03</pdfrwt>
<pdfrwt beam="2">  1       21 0.54160280E-01 0.52912950E+03</pdfrwt>
<totfact> 0.68564365E+02</totfact>
</mgrwt>
</event>
<event>
 4    1  0.4863180E-002  0.4240709E+03  0.7818608E-02  0.1035749E+00
         21   -1    0    0  501  502  0.00000000000E+00  0.00000000000E+00  0.73783955811E+03  0.73783955811E+03  0.00000000000E+00 0. -1.
         21   -1    0    0  502  503 -0.00000000000E+00 -0.00000000000E+00 -0.24674946434E+03  0.24674946434E+03  0.00000000000E+00 0. -1.
    9000007    1    1    2  501    0  0.88009473024E+02  0.10995673832E+03  0.19111778906E+03  0.46514746150E+03  0.40000000000E+03 0. -1.
   -9000007    1    1    2    0  503 -0.88009473024E+02 -0.10995673832E+03  0.29997230471E+03  0.51944156095E+03  0.40000000000E+03 0. -1.
<mgrwt>
<rscale>  2 0.42407093E+03</rscale>
<asrwt>0</asrwt>
<pdfrwt beam="1">  1       21 0.11351378E+00 0.42407093E+03</pdfrwt>
<pdfrwt beam="2">  1       21 0.37961456E-01 0.42407093E+03</pdfrwt>
<totfact> 0.35602051E+03</totfact>
</mgrwt>
</event>
<event>
 4    1  0.4863180E-002  0.7136661E+03  0.7818608E-02  0.9694143E-01
         21   -1    0    0  501  502  0.00000000000E+00  0.00000000000E+00  0.31131490388E+03  0.31131490388E+03  0.00000000000E+00 0.  1.
         21   -1    0    0  502  503 -0.00000000000E+00 -0.00000000000E+00 -0.17808429653E+04  0.17808429653E+04  0.00000000000E+00 0. -1.
    9000007    1    1    2  501    0 -0.42916379466E+03  0.40637144885E+03 -0.10330694696E+04  0.12556081579E+04  0.40000000000E+03 0. -1.
   -9000007    1    1    2    0  503  0.42916379466E+03 -0.40637144885E+03 -0.43645859178E+03  0.83654971127E+03  0.40000000000E+03 0.  1.
<mgrwt>
<rscale>  2 0.71366611E+03</rscale>
<asrwt>0</asrwt>
<pdfrwt beam="1">  1       21 0.47894600E-01 0.71366611E+03</pdfrwt>
<pdfrwt beam="2">  1       21 0.27397584E+00 0.71366611E+03</pdfrwt>
<totfact> 0.13972667E+02</totfact>
</mgrwt>
</event>
<event>
 4    1  0.4863180E-002  0.4643689E+03  0.7818608E-02  0.1023522E+00
         21   -1    0    0  501  502  0.00000000000E+00  0.00000000000E+00  0.27751709218E+03  0.27751709218E+03  0.00000000000E+00 0.  1.
         21   -1    0    0  502  503 -0.00000000000E+00 -0.00000000000E+00 -0.10925958782E+04  0.10925958782E+04  0.00000000000E+00 0.  1.
    9000007    1    1    2  501    0  0.44086648270E+02 -0.23172137809E+03 -0.39373715052E+02  0.46603510496E+03  0.40000000000E+03 0.  1.
   -9000007    1    1    2    0  503 -0.44086648270E+02  0.23172137809E+03 -0.77570507099E+03  0.90407786544E+03  0.40000000000E+03 0.  1.
<mgrwt>
<rscale>  2 0.46436885E+03</rscale>
<asrwt>0</asrwt>
<pdfrwt beam="1">  1       21 0.42694935E-01 0.46436885E+03</pdfrwt>
<pdfrwt beam="2">  1       21 0.16809168E+00 0.46436885E+03</pdfrwt>
<totfact> 0.97071944E+02</totfact>
</mgrwt>
</event>
<event>
 4    1  0.4863180E-002  0.4234349E+03  0.7818608E-02  0.1035954E+00
         21   -1    0    0  503  502  0.00000000000E+00  0.00000000000E+00  0.17596190652E+03  0.17596190652E+03  0.00000000000E+00 0. -1.
         21   -1    0    0  501  503 -0.00000000000E+00 -0.00000000000E+00 -0.21623326873E+04  0.21623326873E+04  0.00000000000E+00 0. -1.
    9000007    1    1    2  501    0  0.51095208427E+02  0.12917574890E+03 -0.18433499819E+04  0.18913583083E+04  0.40000000000E+03 0. -1.
   -9000007    1    1    2    0  502 -0.51095208427E+02 -0.12917574890E+03 -0.14302079884E+03  0.44693628554E+03  0.40000000000E+03 0. -1.
<mgrwt>
<rscale>  2 0.42343488E+03</rscale>
<asrwt>0</asrwt>
<pdfrwt beam="1">  1       21 0.27071063E-01 0.42343488E+03</pdfrwt>
<pdfrwt beam="2">  1       21 0.33266656E+00 0.42343488E+03</pdfrwt>
<totfact> 0.22714396E+02</totfact>
</mgrwt>
</event>
<event>
 4    1  0.4863180E-002  0.5314316E+03  0.7818608E-02  0.1005886E+00
         21   -1    0    0  501  502  0.00000000000E+00  0.00000000000E+00  0.38689615572E+03  0.38689615572E+03  0.00000000000E+00 0.  1.
         21   -1    0    0  502  503 -0.00000000000E+00 -0.00000000000E+00 -0.91122590312E+03  0.91122590312E+03  0.00000000000E+00 0.  1.
    9000007    1    1    2  501    0  0.16767063803E+03  0.30709300709E+03  0.27321392260E+02  0.53213345726E+03  0.40000000000E+03 0.  1.
   -9000007    1    1    2    0  503 -0.16767063803E+03 -0.30709300709E+03 -0.55165113966E+03  0.76598860158E+03  0.40000000000E+03 0.  1.
<mgrwt>
<rscale>  2 0.53143161E+03</rscale>
<asrwt>0</asrwt>
<pdfrwt beam="1">  1       21 0.59522486E-01 0.53143161E+03</pdfrwt>
<pdfrwt beam="2">  1       21 0.14018860E+00 0.53143161E+03</pdfrwt>
<totfact> 0.76636652E+02</totfact>
</mgrwt>
</event>
<event>
 4    1  0.4863180E-002  0.6466758E+03  0.7818608E-02  0.9813037E-01
         21   -1    0    0  501  502  0.00000000000E+00  0.00000000000E+00  0.10931145356E+04  0.10931145356E+04  0.00000000000E+00 0. -1.
         21   -1    0    0  502  503 -0.00000000000E+00 -0.00000000000E+00 -0.44290932273E+03  0.44290932273E+03  0.00000000000E+00 0. -1.
    9000007    1    1    2  501    0 -0.50320298804E+03  0.70543263749E+02  0.60858193770E+03  0.88800989529E+03  0.40000000000E+03 0. -1.
   -9000007    1    1    2    0  503  0.50320298804E+03 -0.70543263749E+02  0.41623275155E+02  0.64801396302E+03  0.40000000000E+03 0. -1.
<mgrwt>
<rscale>  2 0.64667581E+03</rscale>
<asrwt>0</asrwt>
<pdfrwt beam="1">  1       21 0.16817147E+00 0.64667581E+03</pdfrwt>
<pdfrwt beam="2">  1       21 0.68139896E-01 0.64667581E+03</pdfrwt>
<totfact> 0.32915157E+02</totfact>
</mgrwt>
</event>
<event>
 4    1  0.4863180E-002  0.4873659E+03  0.7818608E-02  0.1017130E+00
         21   -1    0    0  501  502  0.00000000000E+00  0.00000000000E+00  0.68932789640E+03  0.68932789640E+03  0.00000000000E+00 0.  1.
         21   -1    0    0  502  503 -0.00000000000E+00 -0.00000000000E+00 -0.64589396916E+03  0.64589396916E+03  0.00000000000E+00 0.  1.
    9000007    1    1    2  501    0  0.27789203580E+03  0.17363598947E+02  0.47770739471E+03  0.68244401462E+03  0.40000000000E+03 0.  1.
   -9000007    1    1    2    0  503 -0.27789203580E+03 -0.17363598947E+02 -0.43427346747E+03  0.65277785094E+03  0.40000000000E+03 0.  1.
<mgrwt>
<rscale>  2 0.48736586E+03</rscale>
<asrwt>0</asrwt>
<pdfrwt beam="1">  1       21 0.10605044E+00 0.48736586E+03</pdfrwt>
<pdfrwt beam="2">  1       21 0.99368304E-01 0.48736586E+03</pdfrwt>
<totfact> 0.48930536E+02</totfact>
</mgrwt>
</event>
<event>
 4    1  0.4863180E-002  0.5198605E+03  0.7818608E-02  0.1008721E+00
         21   -1    0    0  503  502  0.00000000000E+00  0.00000000000E+00  0.11993622041E+04  0.11993622041E+04  0.00000000000E+00 0.  1.
         21   -1    0    0  501  503 -0.00000000000E+00 -0.00000000000E+00 -0.34451875452E+03  0.34451875452E+03  0.00000000000E+00 0.  1.
    9000007    1    1    2  501    0  0.26606887200E+02 -0.33097893300E+03 -0.26614943088E+02  0.52054138715E+03  0.40000000000E+03 0.  1.
   -9000007    1    1    2    0  502 -0.26606887200E+02  0.33097893300E+03  0.88145839267E+03  0.10233395715E+04  0.40000000000E+03 0.  1.
<mgrwt>
<rscale>  2 0.51986054E+03</rscale>
<asrwt>0</asrwt>
<pdfrwt beam="1">  1       21 0.18451726E+00 0.51986054E+03</pdfrwt>
<pdfrwt beam="2">  1       21 0.53002886E-01 0.51986054E+03</pdfrwt>
<totfact> 0.45775304E+02</totfact>
</mgrwt>
</event>
<event>
 4    1  0.4863180E-002  0.4000313E+03  0.7818608E-02  0.1043769E+00
         21   -1    0    0  503  502  0.00000000000E+00  0.00000000000E+00  0.10186743941E+04  0.10186743941E+04  0.00000000000E+00 0.  1.
         21   -1    0    0  501  503 -0.00000000000E+00 -0.00000000000E+00 -0.19775675463E+03  0.19775675463E+03  0.00000000000E+00 0.  1.
    9000007    1    1    2  501    0 -0.33648456642E+01 -0.37059211661E+01  0.13465276737E+03  0.42208580146E+03  0.40000000000E+03 0.  1.
   -9000007    1    1    2    0  502  0.33648456642E+01  0.37059211661E+01  0.68626487214E+03  0.79434534730E+03  0.40000000000E+03 0.  1.
<mgrwt>
<rscale>  2 0.40003132E+03</rscale>
<asrwt>0</asrwt>
<pdfrwt beam="1">  1       21 0.15671913E+00 0.40003132E+03</pdfrwt>
<pdfrwt beam="2">  1       21 0.30424117E-01 0.40003132E+03</pdfrwt>
<totfact> 0.24161967E+03</totfact>
</mgrwt>
</event>
<event>
 4    1  0.4863180E-002  0.5801884E+03  0.7818608E-02  0.9947383E-01
         21   -1    0    0  501  502  0.00000000000E+00  0.00000000000E+00  0.62654267871E+03  0.62654267871E+03  0.00000000000E+00 0.  1.
         21   -1    0    0  502  503 -0.00000000000E+00 -0.00000000000E+00 -0.55517028402E+03  0.55517028402E+03  0.00000000000E+00 0.  1.
    9000007    1    1    2  501    0  0.33523194310E+01  0.42024674874E+03  0.14180115940E+03  0.59726554955E+03  0.40000000000E+03 0.  1.
   -9000007    1    1    2    0  503 -0.33523194310E+01 -0.42024674874E+03 -0.70428764704E+02  0.58444741318E+03  0.40000000000E+03 0.  1.
<mgrwt>
<rscale>  2 0.58018839E+03</rscale>
<asrwt>0</asrwt>
<pdfrwt beam="1">  1       21 0.96391181E-01 0.58018839E+03</pdfrwt>
<pdfrwt beam="2">  1       21 0.85410813E-01 0.58018839E+03</pdfrwt>
<totfact> 0.85832405E+02</totfact>
</mgrwt>
</event>
<event>
 4    1  0.4863180E-002  0.4802204E+03  0.7818608E-02  0.1019075E+00
         21   -1    0    0  501  502  0.00000000000E+00  0.00000000000E+00  0.66801943341E+03  0.66801943341E+03  0.00000000000E+00 0.  1.
         21   -1    0    0  502  503 -0.00000000000E+00 -0.00000000000E+00 -0.48710507078E+03  0.48710507078E+03  0.00000000000E+00 0.  1.
    9000007    1    1    2  501    0  0.25300665180E+03  0.81235822104E+02  0.40217419690E+03  0.62638303720E+03  0.40000000000E+03 0.  1.
   -9000007    1    1    2    0  503 -0.25300665180E+03 -0.81235822104E+02 -0.22125983426E+03  0.52874146698E+03  0.40000000000E+03 0.  1.
<mgrwt>
<rscale>  2 0.48022039E+03</rscale>
<asrwt>0</asrwt>
<pdfrwt beam="1">  1       21 0.10277222E+00 0.48022039E+03</pdfrwt>
<pdfrwt beam="2">  1       21 0.74939241E-01 0.48022039E+03</pdfrwt>
<totfact> 0.10297339E+03</totfact>
</mgrwt>
</event>
<event>
 4    1  0.4863180E-002  0.5138521E+03  0.7818608E-02  0.1010225E+00
         21   -1    0    0  503  502  0.00000000000E+00  0.00000000000E+00  0.15893396926E+04  0.15893396926E+04  0.00000000000E+00 0.  1.
         21   -1    0    0  501  503 -0.00000000000E+00 -0.00000000000E+00 -0.22846482667E+03  0.22846482667E+03  0.00000000000E+00 0.  1.
    9000007    1    1    2  501    0 -0.32075970982E+03 -0.34018120609E+02  0.20569560427E+03  0.55349318477E+03  0.40000000000E+03 0.  1.
   -9000007    1    1    2    0  502  0.32075970982E+03  0.34018120609E+02  0.11551792616E+04  0.12643113345E+04  0.40000000000E+03 0.  1.
<mgrwt>
<rscale>  2 0.51385214E+03</rscale>
<asrwt>0</asrwt>
<pdfrwt beam="1">  1       21 0.24451379E+00 0.51385214E+03</pdfrwt>
<pdfrwt beam="2">  1       21 0.35148436E-01 0.51385214E+03</pdfrwt>
<totfact> 0.43903828E+02</totfact>
</mgrwt>
</event>
<event>
 4    1  0.4863180E-002  0.4056197E+03  0.7818608E-02  0.1041851E+00
         21   -1    0    0  501  502  0.00000000000E+00  0.00000000000E+00  0.22084841149E+03  0.22084841149E+03  0.00000000000E+00 0. -1.
         21   -1    0    0  502  503 -0.00000000000E+00 -0.00000000000E+00 -0.14814549153E+04  0.14814549153E+04  0.00000000000E+00 0. -1.
    9000007    1    1    2  501    0  0.59953269987E+02 -0.30544158518E+02 -0.30177690532E+02  0.40674074446E+03  0.40000000000E+03 0. -1.
   -9000007    1    1    2    0  503 -0.59953269987E+02  0.30544158518E+02 -0.12304288133E+04  0.12955625824E+04  0.40000000000E+03 0. -1.
<mgrwt>
<rscale>  2 0.40561970E+03</rscale>
<asrwt>0</asrwt>
<pdfrwt beam="1">  1       21 0.33976679E-01 0.40561970E+03</pdfrwt>
<pdfrwt beam="2">  1       21 0.22791614E+00 0.40561970E+03</pdfrwt>
<totfact> 0.63056411E+02</totfact>
</mgrwt>
</event>
<event>
 4    1  0.4863180E-002  0.4246793E+03  0.7818608E-02  0.1035554E+00
         21   -1    0    0  501  502  0.00000000000E+00  0.00000000000E+00  0.99413750313E+03  0.99413750313E+03  0.00000000000E+00 0. -1.
         21   -1    0    0  502  503 -0.00000000000E+00 -0.00000000000E+00 -0.18184669263E+03  0.18184669263E+03  0.00000000000E+00 0. -1.
    9000007    1    1    2  501    0  0.24223914296E+02  0.14059054208E+03  0.43475933551E+03  0.60775667694E+03  0.40000000000E+03 0. -1.
   -9000007    1    1    2    0  503 -0.24223914296E+02 -0.14059054208E+03  0.37753147498E+03  0.56822751882E+03  0.40000000000E+03 0. -1.
<mgrwt>
<rscale>  2 0.42467929E+03</rscale>
<asrwt>0</asrwt>
<pdfrwt beam="1">  1       21 0.15294423E+00 0.42467929E+03</pdfrwt>
<pdfrwt beam="2">  1       21 0.27976415E-01 0.42467929E+03</pdfrwt>
<totfact> 0.30173741E+03</totfact>
</mgrwt>
</event>
<event>
 4    1  0.4863180E-002  0.5011118E+03  0.7818608E-02  0.1013489E+00
         21   -1    0    0  501  502  0.00000000000E+00  0.00000000000E+00  0.16789915479E+04  0.16789915479E+04  0.00000000000E+00 0. -1.
         21   -1    0    0  502  503 -0.00000000000E+00 -0.00000000000E+00 -0.15133713619E+03  0.15133713619E+03  0.00000000000E+00 0.  1.
    9000007    1    1    2  501    0 -0.20017979068E+03  0.22592267213E+03  0.86294835433E+03  0.99789421515E+03  0.40000000000E+03 0. -1.
   -9000007    1    1    2    0  503  0.20017979068E+03 -0.22592267213E+03  0.66470605738E+03  0.83243446895E+03  0.40000000000E+03 0.  1.
<mgrwt>
<rscale>  2 0.50111177E+03</rscale>
<asrwt>0</asrwt>
<pdfrwt beam="1">  1       21 0.25830638E+00 0.50111177E+03</pdfrwt>
<pdfrwt beam="2">  1       21 0.23282638E-01 0.50111177E+03</pdfrwt>
<totfact> 0.82096673E+02</totfact>
</mgrwt>
</event>
<event>
 4    1  0.4863180E-002  0.4744729E+03  0.7818608E-02  0.1020665E+00
         21   -1    0    0  501  502  0.00000000000E+00  0.00000000000E+00  0.12343391984E+04  0.12343391984E+04  0.00000000000E+00 0.  1.
         21   -1    0    0  502  503 -0.00000000000E+00 -0.00000000000E+00 -0.18627376493E+03  0.18627376493E+03  0.00000000000E+00 0.  1.
    9000007    1    1    2  501    0  0.24683274658E+03  0.64792739659E+02  0.62666787802E+03  0.78602616575E+03  0.40000000000E+03 0.  1.
   -9000007    1    1    2    0  503 -0.24683274658E+03 -0.64792739659E+02  0.42139755540E+03  0.63458679753E+03  0.40000000000E+03 0.  1.
<mgrwt>
<rscale>  2 0.47447287E+03</rscale>
<asrwt>0</asrwt>
<pdfrwt beam="1">  1       21 0.18989833E+00 0.47447287E+03</pdfrwt>
<pdfrwt beam="2">  1       21 0.28657503E-01 0.47447287E+03</pdfrwt>
<totfact> 0.15194003E+03</totfact>
</mgrwt>
</event>
<event>
 4    1  0.4863180E-002  0.4540209E+03  0.7818608E-02  0.1026530E+00
         21   -1    0    0  503  502  0.00000000000E+00  0.00000000000E+00  0.12600335218E+04  0.12600335218E+04  0.00000000000E+00 0.  1.
         21   -1    0    0  501  503 -0.00000000000E+00 -0.00000000000E+00 -0.16422700795E+03  0.16422700795E+03  0.00000000000E+00 0.  1.
    9000007    1    1    2  501    0  0.21196518533E+03 -0.34723427985E+02  0.59208679799E+03  0.74612447527E+03  0.40000000000E+03 0.  1.
   -9000007    1    1    2    0  502 -0.21196518533E+03  0.34723427985E+02  0.50371971589E+03  0.67813605450E+03  0.40000000000E+03 0.  1.
<mgrwt>
<rscale>  2 0.45402088E+03</rscale>
<asrwt>0</asrwt>
<pdfrwt beam="1">  1       21 0.19385130E+00 0.45402088E+03</pdfrwt>
<pdfrwt beam="2">  1       21 0.25265694E-01 0.45402088E+03</pdfrwt>
<totfact> 0.18443453E+03</totfact>
</mgrwt>
</event>
<event>
 4    1  0.4863180E-002  0.6774519E+03  0.7818608E-02  0.9756589E-01
         21   -1    0    0  501  502  0.00000000000E+00  0.00000000000E+00  0.38451525238E+03  0.38451525238E+03  0.00000000000E+00 0. -1.
         21   -1    0    0  502  503 -0.00000000000E+00 -0.00000000000E+00 -0.13907610486E+04  0.13907610486E+04  0.00000000000E+00 0.  1.
    9000007    1    1    2  501    0 -0.49519245659E+03 -0.23178751521E+03 -0.83736964080E+03  0.10770928171E+04  0.40000000000E+03 0.  1.
   -9000007    1    1    2    0  503  0.49519245659E+03  0.23178751521E+03 -0.16887615537E+03  0.69818348385E+03  0.40000000000E+03 0. -1.
<mgrwt>
<rscale>  2 0.67745186E+03</rscale>
<asrwt>0</asrwt>
<pdfrwt beam="1">  1       21 0.59156194E-01 0.67745186E+03</pdfrwt>
<pdfrwt beam="2">  1       21 0.21396323E+00 0.67745186E+03</pdfrwt>
<totfact> 0.21458976E+02</totfact>
</mgrwt>
</event>
<event>
 4    1  0.4863180E-002  0.4595294E+03  0.7818608E-02  0.1024918E+00
         21   -1    0    0  501  502  0.00000000000E+00  0.00000000000E+00  0.74799771293E+03  0.74799771293E+03  0.00000000000E+00 0. -1.
         21   -1    0    0  502  503 -0.00000000000E+00 -0.00000000000E+00 -0.54709507374E+03  0.54709507374E+03  0.00000000000E+00 0. -1.
    9000007    1    1    2  501    0 -0.80768133860E+02  0.21129076978E+03  0.55094238867E+03  0.71742929720E+03  0.40000000000E+03 0. -1.
   -9000007    1    1    2    0  503  0.80768133860E+02 -0.21129076978E+03 -0.35003974949E+03  0.57766348947E+03  0.40000000000E+03 0. -1.
<mgrwt>
<rscale>  2 0.45952941E+03</rscale>
<asrwt>0</asrwt>
<pdfrwt beam="1">  1       21 0.11507657E+00 0.45952941E+03</pdfrwt>
<pdfrwt beam="2">  1       21 0.84168473E-01 0.45952941E+03</pdfrwt>
<totfact> 0.60001455E+02</totfact>
</mgrwt>
</event>
<event>
 4    1  0.4863180E-002  0.4841722E+03  0.7818608E-02  0.1017995E+00
         21   -1    0    0  503  502  0.00000000000E+00  0.00000000000E+00  0.13859974519E+04  0.13859974519E+04  0.00000000000E+00 0.  1.
         21   -1    0    0  501  503 -0.00000000000E+00 -0.00000000000E+00 -0.17742186463E+03  0.17742186463E+03  0.00000000000E+00 0. -1.
    9000007    1    1    2  501    0 -0.24655874428E+03 -0.11675411980E+03  0.43536117713E+03  0.65112371591E+03  0.40000000000E+03 0. -1.
   -9000007    1    1    2    0  502  0.24655874428E+03  0.11675411980E+03  0.77321441016E+03  0.91229560064E+03  0.40000000000E+03 0.  1.
<mgrwt>
<rscale>  2 0.48417222E+03</rscale>
<asrwt>0</asrwt>
<pdfrwt beam="1">  1       21 0.21323037E+00 0.48417222E+03</pdfrwt>
<pdfrwt beam="2">  1       21 0.27295672E-01 0.48417222E+03</pdfrwt>
<totfact> 0.11642518E+03</totfact>
</mgrwt>
</event>
<event>
 4    1  0.4863180E-002  0.4006230E+03  0.7818608E-02  0.1043564E+00
         21   -1    0    0  503  502  0.00000000000E+00  0.00000000000E+00  0.76770768302E+03  0.76770768302E+03  0.00000000000E+00 0. -1.
         21   -1    0    0  501  503 -0.00000000000E+00 -0.00000000000E+00 -0.27802534900E+03  0.27802534900E+03  0.00000000000E+00 0. -1.
    9000007    1    1    2  501    0  0.35651524165E+01 -0.22047550613E+02 -0.15568180916E+02  0.40092539587E+03  0.40000000000E+03 0. -1.
   -9000007    1    1    2    0  502 -0.35651524165E+01  0.22047550613E+02  0.50525051493E+03  0.64480763615E+03  0.40000000000E+03 0. -1.
<mgrwt>
<rscale>  2 0.40062302E+03</rscale>
<asrwt>0</asrwt>
<pdfrwt beam="1">  1       21 0.11810887E+00 0.40062302E+03</pdfrwt>
<pdfrwt beam="2">  1       21 0.42773131E-01 0.40062302E+03</pdfrwt>
<totfact> 0.25455784E+03</totfact>
</mgrwt>
</event>
<event>
 4    1  0.4863180E-002  0.5607136E+03  0.7818608E-02  0.9990441E-01
         21   -1    0    0  503  502  0.00000000000E+00  0.00000000000E+00  0.50347386137E+03  0.50347386137E+03  0.00000000000E+00 0.  1.
         21   -1    0    0  501  503 -0.00000000000E+00 -0.00000000000E+00 -0.69539545407E+03  0.69539545407E+03  0.00000000000E+00 0. -1.
    9000007    1    1    2  501    0 -0.14520729623E+03 -0.36512263675E+03  0.95489084926E+02  0.56878630793E+03  0.40000000000E+03 0.  1.
   -9000007    1    1    2    0  502  0.14520729623E+03  0.36512263675E+03 -0.28741067763E+03  0.63008300752E+03  0.40000000000E+03 0. -1.
<mgrwt>
<rscale>  2 0.56071356E+03</rscale>
<asrwt>0</asrwt>
<pdfrwt beam="1">  1       21 0.77457518E-01 0.56071356E+03</pdfrwt>
<pdfrwt beam="2">  1       21 0.10698392E+00 0.56071356E+03</pdfrwt>
<totfact> 0.83988654E+02</totfact>
</mgrwt>
</event>
<event>
 4    1  0.4863180E-002  0.4228233E+03  0.7818608E-02  0.1036151E+00
         21   -1    0    0  501  502  0.00000000000E+00  0.00000000000E+00  0.43299691074E+03  0.43299691074E+03  0.00000000000E+00 0. -1.
         21   -1    0    0  502  503 -0.00000000000E+00 -0.00000000000E+00 -0.58457897250E+03  0.58457897250E+03  0.00000000000E+00 0. -1.
    9000007    1    1    2  501    0 -0.88045764262E+02  0.10501184923E+03  0.19994150857E+03  0.46771374999E+03  0.40000000000E+03 0. -1.
   -9000007    1    1    2    0  503  0.88045764262E+02 -0.10501184923E+03 -0.35152357032E+03  0.54986213324E+03  0.40000000000E+03 0. -1.
<mgrwt>
<rscale>  2 0.42282330E+03</rscale>
<asrwt>0</asrwt>
<pdfrwt beam="1">  1       21 0.66614910E-01 0.42282330E+03</pdfrwt>
<pdfrwt beam="2">  1       21 0.89935226E-01 0.42282330E+03</pdfrwt>
<totfact> 0.18938952E+03</totfact>
</mgrwt>
</event>
<event>
 4    1  0.4863180E-002  0.5149673E+03  0.7818608E-02  0.1009944E+00
         21   -1    0    0  501  502  0.00000000000E+00  0.00000000000E+00  0.33469638462E+03  0.33469638462E+03  0.00000000000E+00 0.  1.
         21   -1    0    0  502  503 -0.00000000000E+00 -0.00000000000E+00 -0.14826033162E+04  0.14826033162E+04  0.00000000000E+00 0.  1.
    9000007    1    1    2  501    0 -0.32214642623E+02  0.32272830867E+03  0.46048893454E+02  0.51702209334E+03  0.40000000000E+03 0.  1.
   -9000007    1    1    2    0  503  0.32214642623E+02 -0.32272830867E+03 -0.11939558251E+04  0.13002776075E+04  0.40000000000E+03 0.  1.
<mgrwt>
<rscale>  2 0.51496732E+03</rscale>
<asrwt>0</asrwt>
<pdfrwt beam="1">  1       21 0.51491751E-01 0.51496732E+03</pdfrwt>
<pdfrwt beam="2">  1       21 0.22809282E+00 0.51496732E+03</pdfrwt>
<totfact> 0.25098625E+02</totfact>
</mgrwt>
</event>
<event>
 4    1  0.4863180E-002  0.5399619E+03  0.7818608E-02  0.1003844E+00
         21   -1    0    0  501  502  0.00000000000E+00  0.00000000000E+00  0.44532904864E+03  0.44532904864E+03  0.00000000000E+00 0.  1.
         21   -1    0    0  502  503 -0.00000000000E+00 -0.00000000000E+00 -0.92936334758E+03  0.92936334758E+03  0.00000000000E+00 0. -1.
    9000007    1    1    2  501    0 -0.30802165540E+03  0.19152430683E+03 -0.61567973773E+03  0.81891418339E+03  0.40000000000E+03 0. -1.
   -9000007    1    1    2    0  503  0.30802165540E+03 -0.19152430683E+03  0.13164543879E+03  0.55577821283E+03  0.40000000000E+03 0.  1.
<mgrwt>
<rscale>  2 0.53996194E+03</rscale>
<asrwt>0</asrwt>
<pdfrwt beam="1">  1       21 0.68512161E-01 0.53996194E+03</pdfrwt>
<pdfrwt beam="2">  1       21 0.14297898E+00 0.53996194E+03</pdfrwt>
<totfact> 0.52991300E+02</totfact>
</mgrwt>
</event>
<event>
 4    1  0.4863180E-002  0.5689269E+03  0.7818608E-02  0.9972056E-01
         21   -1    0    0  501  502  0.00000000000E+00  0.00000000000E+00  0.20541874160E+03  0.20541874160E+03  0.00000000000E+00 0.  1.
         21   -1    0    0  502  503 -0.00000000000E+00 -0.00000000000E+00 -0.16717727899E+04  0.16717727899E+04  0.00000000000E+00 0. -1.
    9000007    1    1    2  501    0  0.12649232756E+03  0.38428836868E+03 -0.50817048585E+03  0.76283360042E+03  0.40000000000E+03 0. -1.
   -9000007    1    1    2    0  503 -0.12649232756E+03 -0.38428836868E+03 -0.95818356247E+03  0.11143579311E+04  0.40000000000E+03 0. -1.
<mgrwt>
<rscale>  2 0.56892694E+03</rscale>
<asrwt>0</asrwt>
<pdfrwt beam="1">  1       21 0.31602882E-01 0.56892694E+03</pdfrwt>
<pdfrwt beam="2">  1       21 0.25719582E+00 0.56892694E+03</pdfrwt>
<totfact> 0.44339655E+02</totfact>
</mgrwt>
</event>
<event>
 4    1  0.4863180E-002  0.4596695E+03  0.7818608E-02  0.1024877E+00
         21   -1    0    0  501  502  0.00000000000E+00  0.00000000000E+00  0.56577211610E+03  0.56577211610E+03  0.00000000000E+00 0. -1.
         21   -1    0    0  502  503 -0.00000000000E+00 -0.00000000000E+00 -0.54725113354E+03  0.54725113354E+03  0.00000000000E+00 0. -1.
    9000007    1    1    2  501    0 -0.20584690673E+03  0.94462174098E+02  0.32286950516E+03  0.56173015649E+03  0.40000000000E+03 0. -1.
   -9000007    1    1    2    0  503  0.20584690673E+03 -0.94462174098E+02 -0.30434852260E+03  0.55129309315E+03  0.40000000000E+03 0. -1.
<mgrwt>
<rscale>  2 0.45966950E+03</rscale>
<asrwt>0</asrwt>
<pdfrwt beam="1">  1       21 0.87041864E-01 0.45966950E+03</pdfrwt>
<pdfrwt beam="2">  1       21 0.84192482E-01 0.45966950E+03</pdfrwt>
<totfact> 0.11818447E+03</totfact>
</mgrwt>
</event>
<event>
 4    1  0.4863180E-002  0.4325140E+03  0.7818608E-02  0.1033069E+00
         21   -1    0    0  503  502  0.00000000000E+00  0.00000000000E+00  0.95125838693E+03  0.95125838693E+03  0.00000000000E+00 0.  1.
         21   -1    0    0  501  503 -0.00000000000E+00 -0.00000000000E+00 -0.21933380208E+03  0.21933380208E+03  0.00000000000E+00 0.  1.
    9000007    1    1    2  501    0 -0.84393386258E+02  0.14123082709E+03  0.55417383920E+03  0.70297726436E+03  0.40000000000E+03 0.  1.
   -9000007    1    1    2    0  502  0.84393386258E+02 -0.14123082709E+03  0.17775074566E+03  0.46761492464E+03  0.40000000000E+03 0.  1.
<mgrwt>
<rscale>  2 0.43251403E+03</rscale>
<asrwt>0</asrwt>
<pdfrwt beam="1">  1       21 0.14634744E+00 0.43251403E+03</pdfrwt>
<pdfrwt beam="2">  1       21 0.33743662E-01 0.43251403E+03</pdfrwt>
<totfact> 0.23339697E+03</totfact>
</mgrwt>
</event>
<event>
 4    1  0.4863180E-002  0.4382195E+03  0.7818608E-02  0.1031295E+00
         21   -1    0    0  501  502  0.00000000000E+00  0.00000000000E+00  0.99412489830E+03  0.99412489830E+03  0.00000000000E+00 0.  1.
         21   -1    0    0  502  503 -0.00000000000E+00 -0.00000000000E+00 -0.39526394634E+03  0.39526394634E+03  0.00000000000E+00 0.  1.
    9000007    1    1    2  501    0 -0.83644904985E+02 -0.15823976043E+03  0.79616641436E+03  0.90879989616E+03  0.40000000000E+03 0.  1.
   -9000007    1    1    2    0  503  0.83644904985E+02  0.15823976043E+03 -0.19730546240E+03  0.48058894848E+03  0.40000000000E+03 0.  1.
<mgrwt>
<rscale>  2 0.43821946E+03</rscale>
<asrwt>0</asrwt>
<pdfrwt beam="1">  1       21 0.15294229E+00 0.43821946E+03</pdfrwt>
<pdfrwt beam="2">  1       21 0.60809838E-01 0.43821946E+03</pdfrwt>
<totfact> 0.60057818E+02</totfact>
</mgrwt>
</event>
<event>
 4    1  0.4863180E-002  0.4518141E+03  0.7818608E-02  0.1027182E+00
         21   -1    0    0  503  502  0.00000000000E+00  0.00000000000E+00  0.73179420383E+03  0.73179420383E+03  0.00000000000E+00 0.  1.
         21   -1    0    0  501  503 -0.00000000000E+00 -0.00000000000E+00 -0.37350338387E+03  0.37350338387E+03  0.00000000000E+00 0. -1.
    9000007    1    1    2  501    0 -0.18591664706E+03 -0.97831403564E+02 -0.98911856398E+02  0.46251436574E+03  0.40000000000E+03 0. -1.
   -9000007    1    1    2    0  502  0.18591664706E+03  0.97831403564E+02  0.45720267636E+03  0.64278322197E+03  0.40000000000E+03 0.  1.
<mgrwt>
<rscale>  2 0.45181410E+03</rscale>
<asrwt>0</asrwt>
<pdfrwt beam="1">  1       21 0.11258372E+00 0.45181410E+03</pdfrwt>
<pdfrwt beam="2">  1       21 0.57462059E-01 0.45181410E+03</pdfrwt>
<totfact> 0.15017385E+03</totfact>
</mgrwt>
</event>
<event>
 4    1  0.4863180E-002  0.4328241E+03  0.7818608E-02  0.1032972E+00
         21   -1    0    0  501  502  0.00000000000E+00  0.00000000000E+00  0.36085307934E+03  0.36085307934E+03  0.00000000000E+00 0.  1.
         21   -1    0    0  502  503 -0.00000000000E+00 -0.00000000000E+00 -0.61526160534E+03  0.61526160534E+03  0.00000000000E+00 0.  1.
    9000007    1    1    2  501    0 -0.87047106237E+02 -0.14056853210E+03  0.65694700296E+02  0.43778134333E+03  0.40000000000E+03 0.  1.
   -9000007    1    1    2    0  503  0.87047106237E+02  0.14056853210E+03 -0.32010322629E+03  0.53833334135E+03  0.40000000000E+03 0.  1.
<mgrwt>
<rscale>  2 0.43282411E+03</rscale>
<asrwt>0</asrwt>
<pdfrwt beam="1">  1       21 0.55515859E-01 0.43282411E+03</pdfrwt>
<pdfrwt beam="2">  1       21 0.94655631E-01 0.43282411E+03</pdfrwt>
<totfact> 0.24918041E+03</totfact>
</mgrwt>
</event>
<event>
 4    1  0.4863180E-002  0.4238547E+03  0.7818608E-02  0.1035819E+00
         21   -1    0    0  503  502  0.00000000000E+00  0.00000000000E+00  0.20623867931E+03  0.20623867931E+03  0.00000000000E+00 0. -1.
         21   -1    0    0  501  503 -0.00000000000E+00 -0.00000000000E+00 -0.95707507698E+03  0.95707507698E+03  0.00000000000E+00 0.  1.
    9000007    1    1    2  501    0  0.13546707541E+03  0.36075644646E+02 -0.54975993719E+03  0.69418208649E+03  0.40000000000E+03 0.  1.
   -9000007    1    1    2    0  502 -0.13546707541E+03 -0.36075644646E+02 -0.20107646048E+03  0.46913166981E+03  0.40000000000E+03 0. -1.
<mgrwt>
<rscale>  2 0.42385467E+03</rscale>
<asrwt>0</asrwt>
<pdfrwt beam="1">  1       21 0.31729027E-01 0.42385467E+03</pdfrwt>
<pdfrwt beam="2">  1       21 0.14724232E+00 0.42385467E+03</pdfrwt>
<totfact> 0.26066874E+03</totfact>
</mgrwt>
</event>
<event>
 4    1  0.4863180E-002  0.5454988E+03  0.7818608E-02  0.1002541E+00
         21   -1    0    0  501  502  0.00000000000E+00  0.00000000000E+00  0.17694262718E+04  0.17694262718E+04  0.00000000000E+00 0.  1.
         21   -1    0    0  502  503 -0.00000000000E+00 -0.00000000000E+00 -0.23026375824E+03  0.23026375824E+03  0.00000000000E+00 0.  1.
    9000007    1    1    2  501    0  0.35529427112E+03  0.10646539324E+03  0.12887816399E+04  0.13994738349E+04  0.40000000000E+03 0.  1.
   -9000007    1    1    2    0  503 -0.35529427112E+03 -0.10646539324E+03  0.25038087357E+03  0.60021619513E+03  0.40000000000E+03 0.  1.
<mgrwt>
<rscale>  2 0.54549876E+03</rscale>
<asrwt>0</asrwt>
<pdfrwt beam="1">  1       21 0.27221942E+00 0.54549876E+03</pdfrwt>
<pdfrwt beam="2">  1       21 0.35425195E-01 0.54549876E+03</pdfrwt>
<totfact> 0.28769520E+02</totfact>
</mgrwt>
</event>
<event>
 4    1  0.4863180E-002  0.4023212E+03  0.7818608E-02  0.1042979E+00
         21   -1    0    0  501  502  0.00000000000E+00  0.00000000000E+00  0.13580178125E+04  0.13580178125E+04  0.00000000000E+00 0.  1.
         21   -1    0    0  502  503 -0.00000000000E+00 -0.00000000000E+00 -0.14752380315E+03  0.14752380315E+03  0.00000000000E+00 0.  1.
    9000007    1    1    2  501    0 -0.43096412957E+02  0.22385858487E+01  0.27534633175E+03  0.48752221948E+03  0.40000000000E+03 0.  1.
   -9000007    1    1    2    0  503  0.43096412957E+02 -0.22385858487E+01  0.93514767763E+03  0.10180193962E+04  0.40000000000E+03 0.  1.
<mgrwt>
<rscale>  2 0.40232116E+03</rscale>
<asrwt>0</asrwt>
<pdfrwt beam="1">  1       21 0.20892581E+00 0.40232116E+03</pdfrwt>
<pdfrwt beam="2">  1       21 0.22695971E-01 0.40232116E+03</pdfrwt>
<totfact> 0.18457771E+03</totfact>
</mgrwt>
</event>
<event>
 4    1  0.4863180E-002  0.4190842E+03  0.7818608E-02  0.1037365E+00
         21   -1    0    0  501  502  0.00000000000E+00  0.00000000000E+00  0.30178981194E+03  0.30178981194E+03  0.00000000000E+00 0.  1.
         21   -1    0    0  502  503 -0.00000000000E+00 -0.00000000000E+00 -0.59960491033E+03  0.59960491033E+03  0.00000000000E+00 0.  1.
    9000007    1    1    2  501    0 -0.98421542481E+02  0.77102550596E+02 -0.71607387531E+02  0.42515787807E+03  0.40000000000E+03 0. -1.
   -9000007    1    1    2    0  503  0.98421542481E+02 -0.77102550596E+02 -0.22620771086E+03  0.47623684421E+03  0.40000000000E+03 0. -1.
<mgrwt>
<rscale>  2 0.41908424E+03</rscale>
<asrwt>0</asrwt>
<pdfrwt beam="1">  1       21 0.46429202E-01 0.41908424E+03</pdfrwt>
<pdfrwt beam="2">  1       21 0.92246910E-01 0.41908424E+03</pdfrwt>
<totfact> 0.38973620E+03</totfact>
</mgrwt>
</event>
<event>
 4    1  0.4863180E-002  0.4179026E+03  0.7818608E-02  0.1037751E+00
         21   -1    0    0  501  502  0.00000000000E+00  0.00000000000E+00  0.65972384831E+03  0.65972384831E+03  0.00000000000E+00 0. -1.
         21   -1    0    0  502  503 -0.00000000000E+00 -0.00000000000E+00 -0.14580692021E+04  0.14580692021E+04  0.00000000000E+00 0. -1.
    9000007    1    1    2  501    0  0.86587773577E+01  0.12069649173E+03  0.55878888805E+03  0.69777334353E+03  0.40000000000E+03 0. -1.
   -9000007    1    1    2    0  503 -0.86587773577E+01 -0.12069649173E+03 -0.13571342419E+04  0.14200197069E+04  0.40000000000E+03 0. -1.
<mgrwt>
<rscale>  2 0.41790264E+03</rscale>
<asrwt>0</asrwt>
<pdfrwt beam="1">  1       21 0.10149598E+00 0.41790264E+03</pdfrwt>
<pdfrwt beam="2">  1       21 0.22431834E+00 0.41790264E+03</pdfrwt>
<totfact> 0.59852271E+01</totfact>
</mgrwt>
</event>
<event>
 4    1  0.4863180E-002  0.4585187E+03  0.7818608E-02  0.1025212E+00
         21   -1    0    0  501  502  0.00000000000E+00  0.00000000000E+00  0.17223673523E+03  0.17223673523E+03  0.00000000000E+00 0.  1.
         21   -1    0    0  502  503 -0.00000000000E+00 -0.00000000000E+00 -0.12219446003E+04  0.12219446003E+04  0.00000000000E+00 0.  1.
    9000007    1    1    2  501    0  0.85076120489E+02 -0.20736802091E+03 -0.50209660458E+03  0.67995620646E+03  0.40000000000E+03 0.  1.
   -9000007    1    1    2    0  503 -0.85076120489E+02  0.20736802091E+03 -0.54761126044E+03  0.71422512903E+03  0.40000000000E+03 0.  1.
<mgrwt>
<rscale>  2 0.45851875E+03</rscale>
<asrwt>0</asrwt>
<pdfrwt beam="1">  1       21 0.26497959E-01 0.45851875E+03</pdfrwt>
<pdfrwt beam="2">  1       21 0.18799148E+00 0.45851875E+03</pdfrwt>
<totfact> 0.18392114E+03</totfact>
</mgrwt>
</event>
<event>
 4    1  0.4863180E-002  0.4016411E+03  0.7818608E-02  0.1043213E+00
         21   -1    0    0  501  502  0.00000000000E+00  0.00000000000E+00  0.25449747220E+03  0.25449747220E+03  0.00000000000E+00 0. -1.
         21   -1    0    0  502  503 -0.00000000000E+00 -0.00000000000E+00 -0.82161953727E+03  0.82161953727E+03  0.00000000000E+00 0. -1.
    9000007    1    1    2  501    0  0.34258683291E+02  0.11912095909E+02 -0.26346152313E+02  0.40250425482E+03  0.40000000000E+03 0. -1.
   -9000007    1    1    2    0  503 -0.34258683291E+02 -0.11912095909E+02 -0.54077591275E+03  0.67361275465E+03  0.40000000000E+03 0. -1.
<mgrwt>
<rscale>  2 0.40164108E+03</rscale>
<asrwt>0</asrwt>
<pdfrwt beam="1">  1       21 0.39153457E-01 0.40164108E+03</pdfrwt>
<pdfrwt beam="2">  1       21 0.12640301E+00 0.40164108E+03</pdfrwt>
<totfact> 0.25683590E+03</totfact>
</mgrwt>
</event>
<event>
 4    1  0.4863180E-002  0.4769671E+03  0.7818608E-02  0.1019972E+00
         21   -1    0    0  503  502  0.00000000000E+00  0.00000000000E+00  0.26390095593E+03  0.26390095593E+03  0.00000000000E+00 0. -1.
         21   -1    0    0  501  503 -0.00000000000E+00 -0.00000000000E+00 -0.13960313843E+04  0.13960313843E+04  0.00000000000E+00 0.  1.
    9000007    1    1    2  501    0 -0.23102881294E+03  0.11884134301E+03 -0.10793674418E+04  0.11800557832E+04  0.40000000000E+03 0.  1.
   -9000007    1    1    2    0  502  0.23102881294E+03 -0.11884134301E+03 -0.52762986629E+02  0.47987655702E+03  0.40000000000E+03 0. -1.
<mgrwt>
<rscale>  2 0.47696706E+03</rscale>
<asrwt>0</asrwt>
<pdfrwt beam="1">  1       21 0.40600148E-01 0.47696706E+03</pdfrwt>
<pdfrwt beam="2">  1       21 0.21477406E+00 0.47696706E+03</pdfrwt>
<totfact> 0.51278671E+02</totfact>
</mgrwt>
</event>
<event>
 4    1  0.4863180E-002  0.4523674E+03  0.7818608E-02  0.1027018E+00
         21   -1    0    0  501  502  0.00000000000E+00  0.00000000000E+00  0.60310838789E+03  0.60310838789E+03  0.00000000000E+00 0.  1.
         21   -1    0    0  502  503 -0.00000000000E+00 -0.00000000000E+00 -0.51630934746E+03  0.51630934746E+03  0.00000000000E+00 0.  1.
    9000007    1    1    2  501    0 -0.20637271794E+03  0.45238565641E+02  0.37111891220E+03  0.58512005052E+03  0.40000000000E+03 0.  1.
   -9000007    1    1    2    0  503  0.20637271794E+03 -0.45238565641E+02 -0.28431987177E+03  0.53429768483E+03  0.40000000000E+03 0.  1.
<mgrwt>
<rscale>  2 0.45236736E+03</rscale>
<asrwt>0</asrwt>
<pdfrwt beam="1">  1       21 0.92785906E-01 0.45236736E+03</pdfrwt>
<pdfrwt beam="2">  1       21 0.79432207E-01 0.45236736E+03</pdfrwt>
<totfact> 0.11661820E+03</totfact>
</mgrwt>
</event>
<event>
 4    1  0.4863180E-002  0.6804077E+03  0.7818608E-02  0.9751337E-01
         21   -1    0    0  501  502  0.00000000000E+00  0.00000000000E+00  0.13501678213E+04  0.13501678213E+04  0.00000000000E+00 0. -1.
         21   -1    0    0  502  503 -0.00000000000E+00 -0.00000000000E+00 -0.34785376580E+03  0.34785376580E+03  0.00000000000E+00 0.  1.
    9000007    1    1    2  501    0  0.37400700062E+03  0.40382340306E+03  0.60261009466E+03  0.90889686079E+03  0.40000000000E+03 0. -1.
   -9000007    1    1    2    0  503 -0.37400700062E+03 -0.40382340306E+03  0.39970396086E+03  0.78912472632E+03  0.40000000000E+03 0.  1.
<mgrwt>
<rscale>  2 0.68040766E+03</rscale>
<asrwt>0</asrwt>
<pdfrwt beam="1">  1       21 0.20771812E+00 0.68040766E+03</pdfrwt>
<pdfrwt beam="2">  1       21 0.53515965E-01 0.68040766E+03</pdfrwt>
<totfact> 0.29354796E+02</totfact>
</mgrwt>
</event>
<event>
 4    1  0.4863180E-002  0.4033046E+03  0.7818608E-02  0.1042641E+00
         21   -1    0    0  501  502  0.00000000000E+00  0.00000000000E+00  0.15451636392E+03  0.15451636392E+03  0.00000000000E+00 0. -1.
         21   -1    0    0  502  503 -0.00000000000E+00 -0.00000000000E+00 -0.14491669613E+04  0.14491669613E+04  0.00000000000E+00 0. -1.
    9000007    1    1    2  501    0 -0.13008937277E+02  0.49853446369E+02 -0.22790461723E+03  0.46324411828E+03  0.40000000000E+03 0. -1.
   -9000007    1    1    2    0  503  0.13008937277E+02 -0.49853446369E+02 -0.10667459802E+04  0.11404392070E+04  0.40000000000E+03 0. -1.
<mgrwt>
<rscale>  2 0.40330460E+03</rscale>
<asrwt>0</asrwt>
<pdfrwt beam="1">  1       21 0.23771748E-01 0.40330460E+03</pdfrwt>
<pdfrwt beam="2">  1       21 0.22294877E+00 0.40330460E+03</pdfrwt>
<totfact> 0.13716352E+03</totfact>
</mgrwt>
</event>
<event>
 4    1  0.4863180E-002  0.5405872E+03  0.7818608E-02  0.1003696E+00
         21   -1    0    0  501  502  0.00000000000E+00  0.00000000000E+00  0.37977037776E+03  0.37977037776E+03  0.00000000000E+00 0.  1.
         21   -1    0    0  502  503 -0.00000000000E+00 -0.00000000000E+00 -0.98861884641E+03  0.98861884641E+03  0.00000000000E+00 0. -1.
    9000007    1    1    2  501    0  0.28044000921E+03  0.23149068142E+03  0.17684029829E+02  0.54087638076E+03  0.40000000000E+03 0.  1.
   -9000007    1    1    2    0  503 -0.28044000921E+03 -0.23149068142E+03 -0.62653249848E+03  0.82751284341E+03  0.40000000000E+03 0. -1.
<mgrwt>
<rscale>  2 0.54058721E+03</rscale>
<asrwt>0</asrwt>
<pdfrwt beam="1">  1       21 0.58426212E-01 0.54058721E+03</pdfrwt>
<pdfrwt beam="2">  1       21 0.15209521E+00 0.54058721E+03</pdfrwt>
<totfact> 0.63790164E+02</totfact>
</mgrwt>
</event>
<event>
 4    1  0.4863180E-002  0.4855377E+03  0.7818608E-02  0.1017624E+00
         21   -1    0    0  501  502  0.00000000000E+00  0.00000000000E+00  0.87453693184E+03  0.87453693184E+03  0.00000000000E+00 0.  1.
         21   -1    0    0  502  503 -0.00000000000E+00 -0.00000000000E+00 -0.33631006412E+03  0.33631006412E+03  0.00000000000E+00 0.  1.
    9000007    1    1    2  501    0 -0.20601620236E+03  0.18249422661E+03  0.53881934951E+03  0.72530897539E+03  0.40000000000E+03 0. -1.
   -9000007    1    1    2    0  503  0.20601620236E+03 -0.18249422661E+03 -0.59248179282E+00  0.48553802057E+03  0.40000000000E+03 0. -1.
<mgrwt>
<rscale>  2 0.48553766E+03</rscale>
<asrwt>0</asrwt>
<pdfrwt beam="1">  1       21 0.13454414E+00 0.48553766E+03</pdfrwt>
<pdfrwt beam="2">  1       21 0.51740010E-01 0.48553766E+03</pdfrwt>
<totfact> 0.11779130E+03</totfact>
</mgrwt>
</event>
<event>
 4    1  0.4863180E-002  0.5188507E+03  0.7818608E-02  0.1008972E+00
         21   -1    0    0  501  502  0.00000000000E+00  0.00000000000E+00  0.11893277884E+04  0.11893277884E+04  0.00000000000E+00 0. -1.
         21   -1    0    0  502  503 -0.00000000000E+00 -0.00000000000E+00 -0.31020027158E+03  0.31020027158E+03  0.00000000000E+00 0. -1.
    9000007    1    1    2  501    0  0.31036146268E+03 -0.11349821914E+03  0.82937285177E+03  0.97829719949E+03  0.40000000000E+03 0. -1.
   -9000007    1    1    2    0  503 -0.31036146268E+03  0.11349821914E+03  0.49754665065E+02  0.52123086052E+03  0.40000000000E+03 0. -1.
<mgrwt>
<rscale>  2 0.51885073E+03</rscale>
<asrwt>0</asrwt>
<pdfrwt beam="1">  1       21 0.18297350E+00 0.51885073E+03</pdfrwt>
<pdfrwt beam="2">  1       21 0.47723119E-01 0.51885073E+03</pdfrwt>
<totfact> 0.58742896E+02</totfact>
</mgrwt>
</event>
<event>
 4    1  0.4863180E-002  0.4747165E+03  0.7818608E-02  0.1020597E+00
         21   -1    0    0  501  502  0.00000000000E+00  0.00000000000E+00  0.15735518105E+03  0.15735518105E+03  0.00000000000E+00 0. -1.
         21   -1    0    0  502  503 -0.00000000000E+00 -0.00000000000E+00 -0.19026163234E+04  0.19026163234E+04  0.00000000000E+00 0. -1.
    9000007    1    1    2  501    0 -0.14858852357E+03 -0.20803180740E+03 -0.36045227601E+03  0.59605505242E+03  0.40000000000E+03 0. -1.
   -9000007    1    1    2    0  503  0.14858852357E+03  0.20803180740E+03 -0.13848088663E+04  0.14639164520E+04  0.40000000000E+03 0. -1.
<mgrwt>
<rscale>  2 0.47471653E+03</rscale>
<asrwt>0</asrwt>
<pdfrwt beam="1">  1       21 0.24208490E-01 0.47471653E+03</pdfrwt>
<pdfrwt beam="2">  1       21 0.29271020E+00 0.47471653E+03</pdfrwt>
<totfact> 0.47697418E+02</totfact>
</mgrwt>
</event>
<event>
 4    1  0.4863180E-002  0.4213834E+03  0.7818608E-02  0.1036617E+00
         21   -1    0    0  503  502  0.00000000000E+00  0.00000000000E+00  0.68174313175E+03  0.68174313175E+03  0.00000000000E+00 0.  1.
         21   -1    0    0  501  503 -0.00000000000E+00 -0.00000000000E+00 -0.46685664673E+03  0.46685664673E+03  0.00000000000E+00 0.  1.
    9000007    1    1    2  501    0  0.99070423079E+02 -0.88028455636E+02 -0.27441545687E+03  0.50285962325E+03  0.40000000000E+03 0.  1.
   -9000007    1    1    2    0  502 -0.99070423079E+02  0.88028455636E+02  0.48930194189E+03  0.64574015522E+03  0.40000000000E+03 0.  1.
<mgrwt>
<rscale>  2 0.42138339E+03</rscale>
<asrwt>0</asrwt>
<pdfrwt beam="1">  1       21 0.10488356E+00 0.42138339E+03</pdfrwt>
<pdfrwt beam="2">  1       21 0.71824099E-01 0.42138339E+03</pdfrwt>
<totfact> 0.11051285E+03</totfact>
</mgrwt>
</event>
<event>
 4    1  0.4863180E-002  0.4287361E+03  0.7818608E-02  0.1034260E+00
         21   -1    0    0  503  502  0.00000000000E+00  0.00000000000E+00  0.32677047737E+03  0.32677047737E+03  0.00000000000E+00 0.  1.
         21   -1    0    0  501  503 -0.00000000000E+00 -0.00000000000E+00 -0.58082027192E+03  0.58082027192E+03  0.00000000000E+00 0.  1.
    9000007    1    1    2  501    0  0.15403945109E+03  0.92998184341E+01 -0.20757729592E+03  0.47634333510E+03  0.40000000000E+03 0. -1.
   -9000007    1    1    2    0  502 -0.15403945109E+03 -0.92998184341E+01 -0.46472498625E+02  0.43124741419E+03  0.40000000000E+03 0. -1.
<mgrwt>
<rscale>  2 0.42873609E+03</rscale>
<asrwt>0</asrwt>
<pdfrwt beam="1">  1       21 0.50272382E-01 0.42873609E+03</pdfrwt>
<pdfrwt beam="2">  1       21 0.89356964E-01 0.42873609E+03</pdfrwt>
<totfact> 0.35398738E+03</totfact>
</mgrwt>
</event>
<event>
 4    1  0.4863180E-002  0.4137524E+03  0.7818608E-02  0.1039119E+00
         21   -1    0    0  503  502  0.00000000000E+00  0.00000000000E+00  0.79111634555E+03  0.79111634555E+03  0.00000000000E+00 0.  1.
         21   -1    0    0  501  503 -0.00000000000E+00 -0.00000000000E+00 -0.24801975675E+03  0.24801975675E+03  0.00000000000E+00 0.  1.
    9000007    1    1    2  501    0 -0.17447981682E+02  0.10433895243E+03  0.86009289524E+02  0.42259749992E+03  0.40000000000E+03 0.  1.
   -9000007    1    1    2    0  502  0.17447981682E+02 -0.10433895243E+03  0.45708729927E+03  0.61653860237E+03  0.40000000000E+03 0.  1.
<mgrwt>
<rscale>  2 0.41375240E+03</rscale>
<asrwt>0</asrwt>
<pdfrwt beam="1">  1       21 0.12171021E+00 0.41375240E+03</pdfrwt>
<pdfrwt beam="2">  1       21 0.38156886E-01 0.41375240E+03</pdfrwt>
<totfact> 0.29678416E+03</totfact>
</mgrwt>
</event>
<event>
 4    1  0.4863180E-002  0.4506287E+03  0.7818608E-02  0.1027535E+00
         21   -1    0    0  503  502  0.00000000000E+00  0.00000000000E+00  0.80139267956E+03  0.80139267956E+03  0.00000000000E+00 0. -1.
         21   -1    0    0  501  503 -0.00000000000E+00 -0.00000000000E+00 -0.73034944904E+03  0.73034944904E+03  0.00000000000E+00 0.  1.
    9000007    1    1    2  501    0 -0.17145614052E+03 -0.11691448764E+03 -0.58339236146E+03  0.73716541763E+03  0.40000000000E+03 0.  1.
   -9000007    1    1    2    0  502  0.17145614052E+03  0.11691448764E+03  0.65443559198E+03  0.79457671096E+03  0.40000000000E+03 0. -1.
<mgrwt>
<rscale>  2 0.45062868E+03</rscale>
<asrwt>0</asrwt>
<pdfrwt beam="1">  1       21 0.12329118E+00 0.45062868E+03</pdfrwt>
<pdfrwt beam="2">  1       21 0.11236145E+00 0.45062868E+03</pdfrwt>
<totfact> 0.25184911E+02</totfact>
</mgrwt>
</event>
<event>
 4    1  0.4863180E-002  0.5317482E+03  0.7818608E-02  0.1005809E+00
         21   -1    0    0  501  502  0.00000000000E+00  0.00000000000E+00  0.15147465611E+04  0.15147465611E+04  0.00000000000E+00 0. -1.
         21   -1    0    0  502  503 -0.00000000000E+00 -0.00000000000E+00 -0.39009548782E+03  0.39009548782E+03  0.00000000000E+00 0. -1.
    9000007    1    1    2  501    0  0.35011143773E+03 -0.13346345993E+02  0.12501020143E+04  0.13584959293E+04  0.40000000000E+03 0. -1.
   -9000007    1    1    2    0  503 -0.35011143773E+03  0.13346345993E+02 -0.12545094105E+03  0.54634611959E+03  0.40000000000E+03 0. -1.
<mgrwt>
<rscale>  2 0.53174820E+03</rscale>
<asrwt>0</asrwt>
<pdfrwt beam="1">  1       21 0.23303793E+00 0.53174820E+03</pdfrwt>
<pdfrwt beam="2">  1       21 0.60014691E-01 0.53174820E+03</pdfrwt>
<totfact> 0.16616537E+02</totfact>
</mgrwt>
</event>
<event>
 4    1  0.4863180E-002  0.4987884E+03  0.7818608E-02  0.1014096E+00
         21   -1    0    0  501  502  0.00000000000E+00  0.00000000000E+00  0.31055151743E+03  0.31055151743E+03  0.00000000000E+00 0.  1.
         21   -1    0    0  502  503 -0.00000000000E+00 -0.00000000000E+00 -0.96741402345E+03  0.96741402345E+03  0.00000000000E+00 0.  1.
    9000007    1    1    2  501    0  0.18094580994E+02 -0.29742645030E+03 -0.63509513692E+02  0.50281543884E+03  0.40000000000E+03 0.  1.
   -9000007    1    1    2    0  503 -0.18094580994E+02  0.29742645030E+03 -0.59335299233E+03  0.77515010205E+03  0.40000000000E+03 0.  1.
<mgrwt>
<rscale>  2 0.49878844E+03</rscale>
<asrwt>0</asrwt>
<pdfrwt beam="1">  1       21 0.47777156E-01 0.49878844E+03</pdfrwt>
<pdfrwt beam="2">  1       21 0.14883293E+00 0.49878844E+03</pdfrwt>
<totfact> 0.10600683E+03</totfact>
</mgrwt>
</event>
<event>
 4    1  0.4863180E-002  0.4503566E+03  0.7818608E-02  0.1027616E+00
         21   -1    0    0  503  502  0.00000000000E+00  0.00000000000E+00  0.10399355432E+04  0.10399355432E+04  0.00000000000E+00 0. -1.
         21   -1    0    0  501  503 -0.00000000000E+00 -0.00000000000E+00 -0.34373762965E+03  0.34373762965E+03  0.00000000000E+00 0. -1.
    9000007    1    1    2  501    0  0.10786015220E+03 -0.17659915142E+03 -0.10694482115E+03  0.46288040300E+03  0.40000000000E+03 0. -1.
   -9000007    1    1    2    0  502 -0.10786015220E+03  0.17659915142E+03  0.80314273467E+03  0.92079276983E+03  0.40000000000E+03 0. -1.
<mgrwt>
<rscale>  2 0.45035661E+03</rscale>
<asrwt>0</asrwt>
<pdfrwt beam="1">  1       21 0.15999008E+00 0.45035661E+03</pdfrwt>
<pdfrwt beam="2">  1       21 0.52882713E-01 0.45035661E+03</pdfrwt>
<totfact> 0.71413390E+02</totfact>
</mgrwt>
</event>
<event>
 4    1  0.4863180E-002  0.4519330E+03  0.7818608E-02  0.1027147E+00
         21   -1    0    0  503  502  0.00000000000E+00  0.00000000000E+00  0.40806615590E+03  0.40806615590E+03  0.00000000000E+00 0. -1.
         21   -1    0    0  501  503 -0.00000000000E+00 -0.00000000000E+00 -0.56128465821E+03  0.56128465821E+03  0.00000000000E+00 0.  1.
    9000007    1    1    2  501    0  0.14882993207E+03 -0.14863730522E+03 -0.23608745970E+03  0.50988301188E+03  0.40000000000E+03 0.  1.
   -9000007    1    1    2    0  502 -0.14882993207E+03  0.14863730522E+03  0.82868957385E+02  0.45946780222E+03  0.40000000000E+03 0. -1.
<mgrwt>
<rscale>  2 0.45193296E+03</rscale>
<asrwt>0</asrwt>
<pdfrwt beam="1">  1       21 0.62779409E-01 0.45193296E+03</pdfrwt>
<pdfrwt beam="2">  1       21 0.86351486E-01 0.45193296E+03</pdfrwt>
<totfact> 0.23510660E+03</totfact>
</mgrwt>
</event>
<event>
 4    1  0.4863180E-002  0.6121832E+03  0.7818608E-02  0.9880447E-01
         21   -1    0    0  503  502  0.00000000000E+00  0.00000000000E+00  0.47912689286E+03  0.47912689286E+03  0.00000000000E+00 0.  1.
         21   -1    0    0  501  503 -0.00000000000E+00 -0.00000000000E+00 -0.12113568912E+04  0.12113568912E+04  0.00000000000E+00 0. -1.
    9000007    1    1    2  501    0  0.18795600740E+03 -0.42360449458E+03 -0.86921938030E+03  0.10631606462E+04  0.40000000000E+03 0. -1.
   -9000007    1    1    2    0  502 -0.18795600740E+03  0.42360449458E+03  0.13698938194E+03  0.62732313787E+03  0.40000000000E+03 0.  1.
<mgrwt>
<rscale>  2 0.61218317E+03</rscale>
<asrwt>0</asrwt>
<pdfrwt beam="1">  1       21 0.73711831E-01 0.61218317E+03</pdfrwt>
<pdfrwt beam="2">  1       21 0.18636260E+00 0.61218317E+03</pdfrwt>
<totfact> 0.20606697E+02</totfact>
</mgrwt>
</event>
<event>
 4    1  0.4863180E-002  0.5996957E+03  0.7818608E-02  0.9906038E-01
         21   -1    0    0  503  502  0.00000000000E+00  0.00000000000E+00  0.36220980756E+03  0.36220980756E+03  0.00000000000E+00 0.  1.
         21   -1    0    0  501  503 -0.00000000000E+00 -0.00000000000E+00 -0.21196846062E+04  0.21196846062E+04  0.00000000000E+00 0.  1.
    9000007    1    1    2  501    0 -0.44245620424E+03  0.62188741932E+02 -0.17835108127E+04  0.18816337984E+04  0.40000000000E+03 0.  1.
   -9000007    1    1    2    0  502  0.44245620424E+03 -0.62188741932E+02  0.26036014067E+02  0.60026061534E+03  0.40000000000E+03 0.  1.
<mgrwt>
<rscale>  2 0.59969570E+03</rscale>
<asrwt>0</asrwt>
<pdfrwt beam="1">  1       21 0.55724587E-01 0.59969570E+03</pdfrwt>
<pdfrwt beam="2">  1       21 0.32610532E+00 0.59969570E+03</pdfrwt>
<totfact> 0.50765603E+01</totfact>
</mgrwt>
</event>
<event>
 4    1  0.4863180E-002  0.4113523E+03  0.7818608E-02  0.1039918E+00
         21   -1    0    0  503  502  0.00000000000E+00  0.00000000000E+00  0.80405000725E+03  0.80405000725E+03  0.00000000000E+00 0.  1.
         21   -1    0    0  501  503 -0.00000000000E+00 -0.00000000000E+00 -0.47826947007E+03  0.47826947007E+03  0.00000000000E+00 0.  1.
    9000007    1    1    2  501    0  0.95971949083E+02  0.31579430514E+00 -0.31690129768E+03  0.51926596962E+03  0.40000000000E+03 0.  1.
   -9000007    1    1    2    0  502 -0.95971949083E+02 -0.31579430514E+00  0.64268183487E+03  0.76305350769E+03  0.40000000000E+03 0.  1.
<mgrwt>
<rscale>  2 0.41135230E+03</rscale>
<asrwt>0</asrwt>
<pdfrwt beam="1">  1       21 0.12370000E+00 0.41135230E+03</pdfrwt>
<pdfrwt beam="2">  1       21 0.73579918E-01 0.41135230E+03</pdfrwt>
<totfact> 0.69590867E+02</totfact>
</mgrwt>
</event>
<event>
 4    1  0.4863180E-002  0.5558412E+03  0.7818608E-02  0.1000151E+00
         21   -1    0    0  503  502  0.00000000000E+00  0.00000000000E+00  0.54296928401E+03  0.54296928401E+03  0.00000000000E+00 0. -1.
         21   -1    0    0  501  503 -0.00000000000E+00 -0.00000000000E+00 -0.75464105309E+03  0.75464105309E+03  0.00000000000E+00 0.  1.
    9000007    1    1    2  501    0 -0.15626227377E+03 -0.35290437712E+03 -0.42761646012E+03  0.70129539750E+03  0.40000000000E+03 0.  1.
   -9000007    1    1    2    0  502  0.15626227377E+03  0.35290437712E+03  0.21594469104E+03  0.59631493960E+03  0.40000000000E+03 0. -1.
<mgrwt>
<rscale>  2 0.55584116E+03</rscale>
<asrwt>0</asrwt>
<pdfrwt beam="1">  1       21 0.83533736E-01 0.55584116E+03</pdfrwt>
<pdfrwt beam="2">  1       21 0.11609862E+00 0.55584116E+03</pdfrwt>
<totfact> 0.57526215E+02</totfact>
</mgrwt>
</event>
<event>
 4    1  0.4863180E-002  0.4362081E+03  0.7818608E-02  0.1031917E+00
         21   -1    0    0  503  502  0.00000000000E+00  0.00000000000E+00  0.21163291170E+03  0.21163291170E+03  0.00000000000E+00 0.  1.
         21   -1    0    0  501  503 -0.00000000000E+00 -0.00000000000E+00 -0.12229402918E+04  0.12229402918E+04  0.00000000000E+00 0.  1.
    9000007    1    1    2  501    0  0.17395635538E+03  0.40890536830E+01 -0.87476780764E+03  0.97749488552E+03  0.40000000000E+03 0.  1.
   -9000007    1    1    2    0  502 -0.17395635538E+03 -0.40890536830E+01 -0.13653957248E+03  0.45707831801E+03  0.40000000000E+03 0.  1.
<mgrwt>
<rscale>  2 0.43620813E+03</rscale>
<asrwt>0</asrwt>
<pdfrwt beam="1">  1       21 0.32558909E-01 0.43620813E+03</pdfrwt>
<pdfrwt beam="2">  1       21 0.18814466E+00 0.43620813E+03</pdfrwt>
<totfact> 0.12316804E+03</totfact>
</mgrwt>
</event>
<event>
 4    1  0.4863180E-002  0.4169924E+03  0.7818608E-02  0.1038050E+00
         21   -1    0    0  501  502  0.00000000000E+00  0.00000000000E+00  0.27193711569E+03  0.27193711569E+03  0.00000000000E+00 0.  1.
         21   -1    0    0  502  503 -0.00000000000E+00 -0.00000000000E+00 -0.11603590410E+04  0.11603590410E+04  0.00000000000E+00 0. -1.
    9000007    1    1    2  501    0  0.80648842106E+02 -0.85897893127E+02  0.35631953149E+02  0.41851203073E+03  0.40000000000E+03 0.  1.
   -9000007    1    1    2    0  503 -0.80648842106E+02  0.85897893127E+02 -0.92405387844E+03  0.10137841260E+04  0.40000000000E+03 0. -1.
<mgrwt>
<rscale>  2 0.41699243E+03</rscale>
<asrwt>0</asrwt>
<pdfrwt beam="1">  1       21 0.41836478E-01 0.41699243E+03</pdfrwt>
<pdfrwt beam="2">  1       21 0.17851678E+00 0.41699243E+03</pdfrwt>
<totfact> 0.87049109E+02</totfact>
</mgrwt>
</event>
<event>
 4    1  0.4863180E-002  0.4021292E+03  0.7818608E-02  0.1043045E+00
         21   -1    0    0  503  502  0.00000000000E+00  0.00000000000E+00  0.11784456552E+04  0.11784456552E+04  0.00000000000E+00 0.  1.
         21   -1    0    0  501  503 -0.00000000000E+00 -0.00000000000E+00 -0.13729279112E+03  0.13729279112E+03  0.00000000000E+00 0.  1.
    9000007    1    1    2  501    0  0.77700331205E+01 -0.40589649798E+02  0.53558423846E+03  0.66974500339E+03  0.40000000000E+03 0. -1.
   -9000007    1    1    2    0  502 -0.77700331205E+01  0.40589649798E+02  0.50556862561E+03  0.64599344292E+03  0.40000000000E+03 0. -1.
<mgrwt>
<rscale>  2 0.40212920E+03</rscale>
<asrwt>0</asrwt>
<pdfrwt beam="1">  1       21 0.18129932E+00 0.40212920E+03</pdfrwt>
<pdfrwt beam="2">  1       21 0.21121969E-01 0.40212920E+03</pdfrwt>
<totfact> 0.32499587E+03</totfact>
</mgrwt>
</event>
<event>
 4    1  0.4863180E-002  0.4348230E+03  0.7818608E-02  0.1032347E+00
         21   -1    0    0  503  502  0.00000000000E+00  0.00000000000E+00  0.12868837133E+04  0.12868837133E+04  0.00000000000E+00 0.  1.
         21   -1    0    0  501  503 -0.00000000000E+00 -0.00000000000E+00 -0.23772528017E+03  0.23772528017E+03  0.00000000000E+00 0.  1.
    9000007    1    1    2  501    0 -0.17040849488E+03  0.56584222040E+01  0.53447422048E+02  0.43809553729E+03  0.40000000000E+03 0.  1.
   -9000007    1    1    2    0  502  0.17040849488E+03 -0.56584222040E+01  0.99571101112E+03  0.10865134562E+04  0.40000000000E+03 0.  1.
<mgrwt>
<rscale>  2 0.43482304E+03</rscale>
<asrwt>0</asrwt>
<pdfrwt beam="1">  1       21 0.19798211E+00 0.43482304E+03</pdfrwt>
<pdfrwt beam="2">  1       21 0.36573121E-01 0.43482304E+03</pdfrwt>
<totfact> 0.83587601E+02</totfact>
</mgrwt>
</event>
<event>
 4    1  0.4863180E-002  0.5427034E+03  0.7818608E-02  0.1003197E+00
         21   -1    0    0  503  502  0.00000000000E+00  0.00000000000E+00  0.63836789715E+03  0.63836789715E+03  0.00000000000E+00 0.  1.
         21   -1    0    0  501  503 -0.00000000000E+00 -0.00000000000E+00 -0.66768394526E+03  0.66768394526E+03  0.00000000000E+00 0.  1.
    9000007    1    1    2  501    0 -0.52987833013E+02  0.36293152531E+03 -0.37765579658E+03  0.66117388273E+03  0.40000000000E+03 0.  1.
   -9000007    1    1    2    0  502  0.52987833013E+02 -0.36293152531E+03  0.34833974848E+03  0.64487795968E+03  0.40000000000E+03 0.  1.
<mgrwt>
<rscale>  2 0.54270342E+03</rscale>
<asrwt>0</asrwt>
<pdfrwt beam="1">  1       21 0.98210445E-01 0.54270342E+03</pdfrwt>
<pdfrwt beam="2">  1       21 0.10272061E+00 0.54270342E+03</pdfrwt>
<totfact> 0.53309121E+02</totfact>
</mgrwt>
</event>
<event>
 4    1  0.4863180E-002  0.4364994E+03  0.7818608E-02  0.1031826E+00
         21   -1    0    0  501  502  0.00000000000E+00  0.00000000000E+00  0.27510706617E+03  0.27510706617E+03  0.00000000000E+00 0. -1.
         21   -1    0    0  502  503 -0.00000000000E+00 -0.00000000000E+00 -0.69658457621E+03  0.69658457621E+03  0.00000000000E+00 0. -1.
    9000007    1    1    2  501    0  0.14823888704E+03  0.92503846818E+02 -0.17386915338E+03  0.46985339395E+03  0.40000000000E+03 0. -1.
   -9000007    1    1    2    0  503 -0.14823888704E+03 -0.92503846818E+02 -0.24760835666E+03  0.50183824844E+03  0.40000000000E+03 0. -1.
<mgrwt>
<rscale>  2 0.43649940E+03</rscale>
<asrwt>0</asrwt>
<pdfrwt beam="1">  1       21 0.42324164E-01 0.43649940E+03</pdfrwt>
<pdfrwt beam="2">  1       21 0.10716686E+00 0.43649940E+03</pdfrwt>
<totfact> 0.32671264E+03</totfact>
</mgrwt>
</event>
<event>
 4    1  0.4863180E-002  0.4387425E+03  0.7818608E-02  0.1031133E+00
         21   -1    0    0  503  502  0.00000000000E+00  0.00000000000E+00  0.23087234571E+04  0.23087234571E+04  0.00000000000E+00 0.  1.
         21   -1    0    0  501  503 -0.00000000000E+00 -0.00000000000E+00 -0.87678864958E+02  0.87678864958E+02  0.00000000000E+00 0.  1.
    9000007    1    1    2  501    0  0.13332711945E+03  0.12132148813E+03  0.84512420541E+03  0.95222368529E+03  0.40000000000E+03 0.  1.
   -9000007    1    1    2    0  502 -0.13332711945E+03 -0.12132148813E+03  0.13759203867E+04  0.14441786367E+04  0.40000000000E+03 0.  1.
<mgrwt>
<rscale>  2 0.43874255E+03</rscale>
<asrwt>0</asrwt>
<pdfrwt beam="1">  1       21 0.35518818E+00 0.43874255E+03</pdfrwt>
<pdfrwt beam="2">  1       21 0.13489058E-01 0.43874255E+03</pdfrwt>
<totfact> 0.61378298E+02</totfact>
</mgrwt>
</event>
<event>
 4    1  0.4863180E-002  0.4189817E+03  0.7818608E-02  0.1037398E+00
         21   -1    0    0  501  502  0.00000000000E+00  0.00000000000E+00  0.29189079853E+03  0.29189079853E+03  0.00000000000E+00 0. -1.
         21   -1    0    0  502  503 -0.00000000000E+00 -0.00000000000E+00 -0.15783759224E+04  0.15783759224E+04  0.00000000000E+00 0. -1.
    9000007    1    1    2  501    0  0.38471929140E+02  0.11859833416E+03  0.92470272368E+02  0.42906457028E+03  0.40000000000E+03 0. -1.
   -9000007    1    1    2    0  503 -0.38471929140E+02 -0.11859833416E+03 -0.13789553963E+04  0.14412021507E+04  0.40000000000E+03 0. -1.
<mgrwt>
<rscale>  2 0.41898169E+03</rscale>
<asrwt>0</asrwt>
<pdfrwt beam="1">  1       21 0.44906277E-01 0.41898169E+03</pdfrwt>
<pdfrwt beam="2">  1       21 0.24282706E+00 0.41898169E+03</pdfrwt>
<totfact> 0.28528407E+02</totfact>
</mgrwt>
</event>
<event>
 4    1  0.4863180E-002  0.5855358E+03  0.7818608E-02  0.9935878E-01
         21   -1    0    0  501  502  0.00000000000E+00  0.00000000000E+00  0.63748078074E+03  0.63748078074E+03  0.00000000000E+00 0. -1.
         21   -1    0    0  502  503 -0.00000000000E+00 -0.00000000000E+00 -0.63444095769E+03  0.63444095769E+03  0.00000000000E+00 0. -1.
    9000007    1    1    2  501    0 -0.13252561713E+03 -0.40655760857E+03 -0.24665772760E+03  0.63536773830E+03  0.40000000000E+03 0. -1.
   -9000007    1    1    2    0  503  0.13252561713E+03  0.40655760857E+03  0.24969755066E+03  0.63655400013E+03  0.40000000000E+03 0. -1.
<mgrwt>
<rscale>  2 0.58553576E+03</rscale>
<asrwt>0</asrwt>
<pdfrwt beam="1">  1       21 0.98073967E-01 0.58553576E+03</pdfrwt>
<pdfrwt beam="2">  1       21 0.97606301E-01 0.58553576E+03</pdfrwt>
<totfact> 0.59705690E+02</totfact>
</mgrwt>
</event>
<event>
 4    1  0.4863180E-002  0.4421066E+03  0.7818608E-02  0.1030102E+00
         21   -1    0    0  503  502  0.00000000000E+00  0.00000000000E+00  0.56164168443E+03  0.56164168443E+03  0.00000000000E+00 0. -1.
         21   -1    0    0  501  503 -0.00000000000E+00 -0.00000000000E+00 -0.36010877712E+03  0.36010877712E+03  0.00000000000E+00 0. -1.
    9000007    1    1    2  501    0 -0.17978407933E+03  0.55999603995E+02  0.16298073764E+02  0.44240693715E+03  0.40000000000E+03 0. -1.
   -9000007    1    1    2    0  502  0.17978407933E+03 -0.55999603995E+02  0.18523483355E+03  0.47934352441E+03  0.40000000000E+03 0. -1.
<mgrwt>
<rscale>  2 0.44210663E+03</rscale>
<asrwt>0</asrwt>
<pdfrwt beam="1">  1       21 0.86406413E-01 0.44210663E+03</pdfrwt>
<pdfrwt beam="2">  1       21 0.55401350E-01 0.44210663E+03</pdfrwt>
<totfact> 0.30959421E+03</totfact>
</mgrwt>
</event>
<event>
 4    1  0.4863180E-002  0.4884924E+03  0.7818608E-02  0.1016827E+00
         21   -1    0    0  503  502  0.00000000000E+00  0.00000000000E+00  0.58775843673E+03  0.58775843673E+03  0.00000000000E+00 0. -1.
         21   -1    0    0  501  503 -0.00000000000E+00 -0.00000000000E+00 -0.54781837306E+03  0.54781837306E+03  0.00000000000E+00 0.  1.
    9000007    1    1    2  501    0 -0.14625688887E+02  0.28001949028E+03 -0.26893011088E+03  0.55762732201E+03  0.40000000000E+03 0.  1.
   -9000007    1    1    2    0  502  0.14625688887E+02 -0.28001949028E+03  0.30887017455E+03  0.57794948779E+03  0.40000000000E+03 0. -1.
<mgrwt>
<rscale>  2 0.48849240E+03</rscale>
<asrwt>0</asrwt>
<pdfrwt beam="1">  1       21 0.90424375E-01 0.48849240E+03</pdfrwt>
<pdfrwt beam="2">  1       21 0.84279749E-01 0.48849240E+03</pdfrwt>
<totfact> 0.10654118E+03</totfact>
</mgrwt>
</event>
<event>
 4    1  0.4863180E-002  0.4745462E+03  0.7818608E-02  0.1020645E+00
         21   -1    0    0  503  502  0.00000000000E+00  0.00000000000E+00  0.74023015036E+03  0.74023015036E+03  0.00000000000E+00 0.  1.
         21   -1    0    0  501  503 -0.00000000000E+00 -0.00000000000E+00 -0.92302851206E+03  0.92302851206E+03  0.00000000000E+00 0. -1.
    9000007    1    1    2  501    0 -0.16397254168E+03  0.19572195306E+03 -0.77232496844E+03  0.90646562770E+03  0.40000000000E+03 0. -1.
   -9000007    1    1    2    0  502  0.16397254168E+03 -0.19572195306E+03  0.58952660674E+03  0.75679303471E+03  0.40000000000E+03 0.  1.
<mgrwt>
<rscale>  2 0.47454618E+03</rscale>
<asrwt>0</asrwt>
<pdfrwt beam="1">  1       21 0.11388156E+00 0.47454618E+03</pdfrwt>
<pdfrwt beam="2">  1       21 0.14200439E+00 0.47454618E+03</pdfrwt>
<totfact> 0.16634906E+02</totfact>
</mgrwt>
</event>
<event>
 4    1  0.4863180E-002  0.4285834E+03  0.7818608E-02  0.1034308E+00
         21   -1    0    0  503  502  0.00000000000E+00  0.00000000000E+00  0.35335968139E+03  0.35335968139E+03  0.00000000000E+00 0. -1.
         21   -1    0    0  501  503 -0.00000000000E+00 -0.00000000000E+00 -0.64311311311E+03  0.64311311311E+03  0.00000000000E+00 0. -1.
    9000007    1    1    2  501    0 -0.14756685636E+03  0.43678205373E+02 -0.36302887555E+03  0.56167047920E+03  0.40000000000E+03 0. -1.
   -9000007    1    1    2    0  502  0.14756685636E+03 -0.43678205373E+02  0.73275443831E+02  0.43480231530E+03  0.40000000000E+03 0. -1.
<mgrwt>
<rscale>  2 0.42858344E+03</rscale>
<asrwt>0</asrwt>
<pdfrwt beam="1">  1       21 0.54363028E-01 0.42858344E+03</pdfrwt>
<pdfrwt beam="2">  1       21 0.98940479E-01 0.42858344E+03</pdfrwt>
<totfact> 0.23476987E+03</totfact>
</mgrwt>
</event>
<event>
 4    1  0.4863180E-002  0.4434818E+03  0.7818608E-02  0.1029684E+00
         21   -1    0    0  501  502  0.00000000000E+00  0.00000000000E+00  0.63583112895E+03  0.63583112895E+03  0.00000000000E+00 0.  1.
         21   -1    0    0  502  503 -0.00000000000E+00 -0.00000000000E+00 -0.32738222152E+03  0.32738222152E+03  0.00000000000E+00 0.  1.
    9000007    1    1    2  501    0 -0.14692420839E+03 -0.12283869197E+03  0.26734350113E+03  0.51783068165E+03  0.40000000000E+03 0.  1.
   -9000007    1    1    2    0  503  0.14692420839E+03  0.12283869197E+03  0.41105406298E+02  0.44538266882E+03  0.40000000000E+03 0.  1.
<mgrwt>
<rscale>  2 0.44348176E+03</rscale>
<asrwt>0</asrwt>
<pdfrwt beam="1">  1       21 0.97820174E-01 0.44348176E+03</pdfrwt>
<pdfrwt beam="2">  1       21 0.50366496E-01 0.44348176E+03</pdfrwt>
<totfact> 0.28257422E+03</totfact>
</mgrwt>
</event>
<event>
 4    1  0.4863180E-002  0.4006084E+03  0.7818608E-02  0.1043569E+00
         21   -1    0    0  503  502  0.00000000000E+00  0.00000000000E+00  0.12036281366E+04  0.12036281366E+04  0.00000000000E+00 0.  1.
         21   -1    0    0  501  503 -0.00000000000E+00 -0.00000000000E+00 -0.37155978537E+03  0.37155978537E+03  0.00000000000E+00 0.  1.
    9000007    1    1    2  501    0 -0.22060101750E+02  0.68326923169E+00 -0.21460430905E+03  0.45446905770E+03  0.40000000000E+03 0.  1.
   -9000007    1    1    2    0  502  0.22060101750E+02 -0.68326923169E+00  0.10466726603E+04  0.11207188643E+04  0.40000000000E+03 0.  1.
<mgrwt>
<rscale>  2 0.40060843E+03</rscale>
<asrwt>0</asrwt>
<pdfrwt beam="1">  1       21 0.18517356E+00 0.40060843E+03</pdfrwt>
<pdfrwt beam="2">  1       21 0.57163044E-01 0.40060843E+03</pdfrwt>
<totfact> 0.40746671E+02</totfact>
</mgrwt>
</event>
<event>
 4    1  0.4863180E-002  0.4699330E+03  0.7818608E-02  0.1021939E+00
         21   -1    0    0  501  502  0.00000000000E+00  0.00000000000E+00  0.52878802009E+03  0.52878802009E+03  0.00000000000E+00 0. -1.
         21   -1    0    0  502  503 -0.00000000000E+00 -0.00000000000E+00 -0.92147057179E+03  0.92147057179E+03  0.00000000000E+00 0. -1.
    9000007    1    1    2  501    0  0.84682751386E+02  0.23165897902E+03  0.33985259674E+03  0.57994554784E+03  0.40000000000E+03 0. -1.
   -9000007    1    1    2    0  503 -0.84682751386E+02 -0.23165897902E+03 -0.73253514844E+03  0.87031304405E+03  0.40000000000E+03 0. -1.
<mgrwt>
<rscale>  2 0.46993303E+03</rscale>
<asrwt>0</asrwt>
<pdfrwt beam="1">  1       21 0.81352004E-01 0.46993303E+03</pdfrwt>
<pdfrwt beam="2">  1       21 0.14176470E+00 0.46993303E+03</pdfrwt>
<totfact> 0.37684212E+02</totfact>
</mgrwt>
</event>
<event>
 4    1  0.4863180E-002  0.7008400E+03  0.7818608E-02  0.9715797E-01
         21   -1    0    0  501  502  0.00000000000E+00  0.00000000000E+00  0.24064315502E+04  0.24064315502E+04  0.00000000000E+00 0. -1.
         21   -1    0    0  502  503 -0.00000000000E+00 -0.00000000000E+00 -0.20499746730E+03  0.20499746730E+03  0.00000000000E+00 0.  1.
    9000007    1    1    2  501    0 -0.20042492989E+03  0.53945025332E+03  0.11866286255E+04  0.13781379551E+04  0.40000000000E+03 0.  1.
   -9000007    1    1    2    0  503  0.20042492989E+03 -0.53945025332E+03  0.10148054574E+04  0.12332910624E+04  0.40000000000E+03 0.  1.
<mgrwt>
<rscale>  2 0.70084002E+03</rscale>
<asrwt>0</asrwt>
<pdfrwt beam="1">  1       21 0.37022022E+00 0.70084002E+03</pdfrwt>
<pdfrwt beam="2">  1       21 0.31538074E-01 0.70084002E+03</pdfrwt>
<totfact> 0.84734839E+01</totfact>
</mgrwt>
</event>
<event>
 4    1  0.4863180E-002  0.5826000E+03  0.7818608E-02  0.9942178E-01
         21   -1    0    0  501  502  0.00000000000E+00  0.00000000000E+00  0.40558064142E+03  0.40558064142E+03  0.00000000000E+00 0.  1.
         21   -1    0    0  502  503 -0.00000000000E+00 -0.00000000000E+00 -0.11600007408E+04  0.11600007408E+04  0.00000000000E+00 0.  1.
    9000007    1    1    2  501    0 -0.25567486903E+03 -0.33771745231E+03  0.35930946514E+02  0.58370690348E+03  0.40000000000E+03 0.  1.
   -9000007    1    1    2    0  503  0.25567486903E+03  0.33771745231E+03 -0.79035104592E+03  0.98187447876E+03  0.40000000000E+03 0.  1.
<mgrwt>
<rscale>  2 0.58259996E+03</rscale>
<asrwt>0</asrwt>
<pdfrwt beam="1">  1       21 0.62397023E-01 0.58259996E+03</pdfrwt>
<pdfrwt beam="2">  1       21 0.17846165E+00 0.58259996E+03</pdfrwt>
<totfact> 0.34500211E+02</totfact>
</mgrwt>
</event>
<event>
 4    1  0.4863180E-002  0.4178609E+03  0.7818608E-02  0.1037765E+00
         21   -1    0    0  503  502  0.00000000000E+00  0.00000000000E+00  0.32951353332E+03  0.32951353332E+03  0.00000000000E+00 0. -1.
         21   -1    0    0  501  503 -0.00000000000E+00 -0.00000000000E+00 -0.13498807127E+04  0.13498807127E+04  0.00000000000E+00 0. -1.
    9000007    1    1    2  501    0  0.15472467022E+02 -0.11986781646E+03 -0.11646359192E+04  0.12373295902E+04  0.40000000000E+03 0. -1.
   -9000007    1    1    2    0  502 -0.15472467022E+02  0.11986781646E+03  0.14426873975E+03  0.44206465582E+03  0.40000000000E+03 0. -1.
<mgrwt>
<rscale>  2 0.41786085E+03</rscale>
<asrwt>0</asrwt>
<pdfrwt beam="1">  1       21 0.50694390E-01 0.41786085E+03</pdfrwt>
<pdfrwt beam="2">  1       21 0.20767395E+00 0.41786085E+03</pdfrwt>
<totfact> 0.36895524E+02</totfact>
</mgrwt>
</event>
<event>
 4    1  0.4863180E-002  0.4298127E+03  0.7818608E-02  0.1033919E+00
         21   -1    0    0  503  502  0.00000000000E+00  0.00000000000E+00  0.33133861507E+03  0.33133861507E+03  0.00000000000E+00 0.  1.
         21   -1    0    0  501  503 -0.00000000000E+00 -0.00000000000E+00 -0.56242513054E+03  0.56242513054E+03  0.00000000000E+00 0.  1.
    9000007    1    1    2  501    0  0.15285780464E+03  0.37059883282E+02 -0.73951643612E+02  0.43612817953E+03  0.40000000000E+03 0.  1.
   -9000007    1    1    2    0  502 -0.15285780464E+03 -0.37059883282E+02 -0.15713487186E+03  0.45763556608E+03  0.40000000000E+03 0.  1.
<mgrwt>
<rscale>  2 0.42981268E+03</rscale>
<asrwt>0</asrwt>
<pdfrwt beam="1">  1       21 0.50975172E-01 0.42981268E+03</pdfrwt>
<pdfrwt beam="2">  1       21 0.86526942E-01 0.42981268E+03</pdfrwt>
<totfact> 0.37058128E+03</totfact>
</mgrwt>
</event>
<event>
 4    1  0.4863180E-002  0.6126354E+03  0.7818608E-02  0.9879533E-01
         21   -1    0    0  503  502  0.00000000000E+00  0.00000000000E+00  0.74892409128E+03  0.74892409128E+03  0.00000000000E+00 0. -1.
         21   -1    0    0  501  503 -0.00000000000E+00 -0.00000000000E+00 -0.55321153488E+03  0.55321153488E+03  0.00000000000E+00 0. -1.
    9000007    1    1    2  501    0 -0.45442030424E+03  0.93938092710E+02 -0.10187468220E+03  0.62104800864E+03  0.40000000000E+03 0. -1.
   -9000007    1    1    2    0  502  0.45442030424E+03 -0.93938092710E+02  0.29758723859E+03  0.68108761752E+03  0.40000000000E+03 0. -1.
<mgrwt>
<rscale>  2 0.61263544E+03</rscale>
<asrwt>0</asrwt>
<pdfrwt beam="1">  1       21 0.11521909E+00 0.61263544E+03</pdfrwt>
<pdfrwt beam="2">  1       21 0.85109468E-01 0.61263544E+03</pdfrwt>
<totfact> 0.55055538E+02</totfact>
</mgrwt>
</event>
<event>
 4    1  0.4863180E-002  0.5031356E+03  0.7818608E-02  0.1012964E+00
         21   -1    0    0  501  502  0.00000000000E+00  0.00000000000E+00  0.50366846277E+03  0.50366846277E+03  0.00000000000E+00 0. -1.
         21   -1    0    0  502  503 -0.00000000000E+00 -0.00000000000E+00 -0.50343466164E+03  0.50343466164E+03  0.00000000000E+00 0. -1.
    9000007    1    1    2  501    0  0.27531981175E+03  0.13169830443E+03 -0.20345748865E+02  0.50354681176E+03  0.40000000000E+03 0. -1.
   -9000007    1    1    2    0  503 -0.27531981175E+03 -0.13169830443E+03  0.20579550004E+02  0.50355631265E+03  0.40000000000E+03 0. -1.
<mgrwt>
<rscale>  2 0.50313561E+03</rscale>
<asrwt>0</asrwt>
<pdfrwt beam="1">  1       21 0.77487456E-01 0.50313561E+03</pdfrwt>
<pdfrwt beam="2">  1       21 0.77451486E-01 0.50313561E+03</pdfrwt>
<totfact> 0.18500971E+03</totfact>
</mgrwt>
</event>
<event>
 4    1  0.4863180E-002  0.4331595E+03  0.7818608E-02  0.1032867E+00
         21   -1    0    0  503  502  0.00000000000E+00  0.00000000000E+00  0.84445978996E+03  0.84445978996E+03  0.00000000000E+00 0. -1.
         21   -1    0    0  501  503 -0.00000000000E+00 -0.00000000000E+00 -0.47423876121E+03  0.47423876121E+03  0.00000000000E+00 0. -1.
    9000007    1    1    2  501    0  0.10484259211E+02 -0.16588314895E+03 -0.29557689134E+03  0.52439759486E+03  0.40000000000E+03 0. -1.
   -9000007    1    1    2    0  502 -0.10484259211E+02  0.16588314895E+03  0.66579792009E+03  0.79430095631E+03  0.40000000000E+03 0. -1.
<mgrwt>
<rscale>  2 0.43315948E+03</rscale>
<asrwt>0</asrwt>
<pdfrwt beam="1">  1       21 0.12991689E+00 0.43315948E+03</pdfrwt>
<pdfrwt beam="2">  1       21 0.72959810E-01 0.43315948E+03</pdfrwt>
<totfact> 0.61889520E+02</totfact>
</mgrwt>
</event>
<event>
 4    1  0.4863180E-002  0.4242629E+03  0.7818608E-02  0.1035688E+00
         21   -1    0    0  501  502  0.00000000000E+00  0.00000000000E+00  0.41953196854E+03  0.41953196854E+03  0.00000000000E+00 0. -1.
         21   -1    0    0  502  503 -0.00000000000E+00 -0.00000000000E+00 -0.50189823222E+03  0.50189823222E+03  0.00000000000E+00 0. -1.
    9000007    1    1    2  501    0  0.27175093122E+02  0.13878237460E+03  0.13434322932E+03  0.44502487172E+03  0.40000000000E+03 0. -1.
   -9000007    1    1    2    0  503 -0.27175093122E+02 -0.13878237460E+03 -0.21670949299E+03  0.47640532904E+03  0.40000000000E+03 0. -1.
<mgrwt>
<rscale>  2 0.42426293E+03</rscale>
<asrwt>0</asrwt>
<pdfrwt beam="1">  1       21 0.64543380E-01 0.42426293E+03</pdfrwt>
<pdfrwt beam="2">  1       21 0.77215112E-01 0.42426293E+03</pdfrwt>
<totfact> 0.28953967E+03</totfact>
</mgrwt>
</event>
<event>
 4    1  0.4863180E-002  0.4886795E+03  0.7818608E-02  0.1016777E+00
         21   -1    0    0  501  502  0.00000000000E+00  0.00000000000E+00  0.24548562257E+04  0.24548562257E+04  0.00000000000E+00 0.  1.
         21   -1    0    0  502  503 -0.00000000000E+00 -0.00000000000E+00 -0.10328449462E+03  0.10328449462E+03  0.00000000000E+00 0.  1.
    9000007    1    1    2  501    0 -0.17929583325E+03  0.21601073324E+03  0.14841945545E+04  0.15625751528E+04  0.40000000000E+03 0.  1.
   -9000007    1    1    2    0  503  0.17929583325E+03 -0.21601073324E+03  0.86737717662E+03  0.99556556751E+03  0.40000000000E+03 0.  1.
<mgrwt>
<rscale>  2 0.48867948E+03</rscale>
<asrwt>0</asrwt>
<pdfrwt beam="1">  1       21 0.37767014E+00 0.48867948E+03</pdfrwt>
<pdfrwt beam="2">  1       21 0.15889924E-01 0.48867948E+03</pdfrwt>
<totfact> 0.31850902E+02</totfact>
</mgrwt>
</event>
<event>
 4    1  0.4863180E-002  0.5897701E+03  0.7818608E-02  0.9926860E-01
         21   -1    0    0  501  502  0.00000000000E+00  0.00000000000E+00  0.63270012427E+03  0.63270012427E+03  0.00000000000E+00 0. -1.
         21   -1    0    0  502  503 -0.00000000000E+00 -0.00000000000E+00 -0.72670681339E+03  0.72670681339E+03  0.00000000000E+00 0. -1.
    9000007    1    1    2  501    0  0.26319376136E+03 -0.34432230289E+03  0.28840186856E+03  0.65650928560E+03  0.40000000000E+03 0. -1.
   -9000007    1    1    2    0  503 -0.26319376136E+03  0.34432230289E+03 -0.38240855768E+03  0.70289765206E+03  0.40000000000E+03 0. -1.
<mgrwt>
<rscale>  2 0.58977013E+03</rscale>
<asrwt>0</asrwt>
<pdfrwt beam="1">  1       21 0.97338481E-01 0.58977013E+03</pdfrwt>
<pdfrwt beam="2">  1       21 0.11180105E+00 0.58977013E+03</pdfrwt>
<totfact> 0.43400140E+02</totfact>
</mgrwt>
</event>
<event>
 4    1  0.4863180E-002  0.4847701E+03  0.7818608E-02  0.1017832E+00
         21   -1    0    0  503  502  0.00000000000E+00  0.00000000000E+00  0.22197637892E+04  0.22197637892E+04  0.00000000000E+00 0.  1.
         21   -1    0    0  501  503 -0.00000000000E+00 -0.00000000000E+00 -0.14313438213E+03  0.14313438213E+03  0.00000000000E+00 0.  1.
    9000007    1    1    2  501    0 -0.26967037247E+03  0.47748846979E+02  0.43547568217E+03  0.65164494315E+03  0.40000000000E+03 0.  1.
   -9000007    1    1    2    0  502  0.26967037247E+03 -0.47748846979E+02  0.16411537250E+04  0.17112532282E+04  0.40000000000E+03 0.  1.
<mgrwt>
<rscale>  2 0.48477011E+03</rscale>
<asrwt>0</asrwt>
<pdfrwt beam="1">  1       21 0.34150210E+00 0.48477011E+03</pdfrwt>
<pdfrwt beam="2">  1       21 0.22020676E-01 0.48477011E+03</pdfrwt>
<totfact> 0.28840665E+02</totfact>
</mgrwt>
</event>
<event>
 4    1  0.4863180E-002  0.4780084E+03  0.7818608E-02  0.1019684E+00
         21   -1    0    0  503  502  0.00000000000E+00  0.00000000000E+00  0.15027699235E+04  0.15027699235E+04  0.00000000000E+00 0. -1.
         21   -1    0    0  501  503 -0.00000000000E+00 -0.00000000000E+00 -0.20286131196E+03  0.20286131196E+03  0.00000000000E+00 0. -1.
    9000007    1    1    2  501    0  0.25424922416E+03  0.62043085546E+02  0.10767770449E+04  0.11781090004E+04  0.40000000000E+03 0. -1.
   -9000007    1    1    2    0  502 -0.25424922416E+03 -0.62043085546E+02  0.22313156667E+03  0.52752223507E+03  0.40000000000E+03 0. -1.
<mgrwt>
<rscale>  2 0.47800838E+03</rscale>
<asrwt>0</asrwt>
<pdfrwt beam="1">  1       21 0.23119537E+00 0.47800838E+03</pdfrwt>
<pdfrwt beam="2">  1       21 0.31209434E-01 0.47800838E+03</pdfrwt>
<totfact> 0.68705403E+02</totfact>
</mgrwt>
</event>
<event>
 4    1  0.4863180E-002  0.4344644E+03  0.7818608E-02  0.1032459E+00
         21   -1    0    0  503  502  0.00000000000E+00  0.00000000000E+00  0.66545774609E+03  0.66545774609E+03  0.00000000000E+00 0. -1.
         21   -1    0    0  501  503 -0.00000000000E+00 -0.00000000000E+00 -0.31926503837E+03  0.31926503837E+03  0.00000000000E+00 0. -1.
    9000007    1    1    2  501    0 -0.30082703977E+02  0.16689632963E+03  0.86575642764E+01  0.43455069594E+03  0.40000000000E+03 0. -1.
   -9000007    1    1    2    0  502  0.30082703977E+02 -0.16689632963E+03  0.33753514345E+03  0.55017208852E+03  0.40000000000E+03 0. -1.
<mgrwt>
<rscale>  2 0.43446444E+03</rscale>
<asrwt>0</asrwt>
<pdfrwt beam="1">  1       21 0.10237811E+00 0.43446444E+03</pdfrwt>
<pdfrwt beam="2">  1       21 0.49117699E-01 0.43446444E+03</pdfrwt>
<totfact> 0.26772638E+03</totfact>
</mgrwt>
</event>
<event>
 4    1  0.4863180E-002  0.4149148E+03  0.7818608E-02  0.1038734E+00
         21   -1    0    0  503  502  0.00000000000E+00  0.00000000000E+00  0.10455906603E+03  0.10455906603E+03  0.00000000000E+00 0. -1.
         21   -1    0    0  501  503 -0.00000000000E+00 -0.00000000000E+00 -0.16634856776E+04  0.16634856776E+04  0.00000000000E+00 0. -1.
    9000007    1    1    2  501    0  0.89600339866E+02 -0.64234228855E+02 -0.86884930469E+03  0.96283610824E+03  0.40000000000E+03 0.  1.
   -9000007    1    1    2    0  502 -0.89600339866E+02  0.64234228855E+02 -0.69007730692E+03  0.80520863544E+03  0.40000000000E+03 0.  1.
<mgrwt>
<rscale>  2 0.41491476E+03</rscale>
<asrwt>0</asrwt>
<pdfrwt beam="1">  1       21 0.16086012E-01 0.41491476E+03</pdfrwt>
<pdfrwt beam="2">  1       21 0.25592085E+00 0.41491476E+03</pdfrwt>
<totfact> 0.17863423E+03</totfact>
</mgrwt>
</event>
<event>
 4    1  0.4863180E-002  0.4057711E+03  0.7818608E-02  0.1041799E+00
         21   -1    0    0  503  502  0.00000000000E+00  0.00000000000E+00  0.19468577300E+03  0.19468577300E+03  0.00000000000E+00 0.  1.
         21   -1    0    0  501  503 -0.00000000000E+00 -0.00000000000E+00 -0.91936317700E+03  0.91936317700E+03  0.00000000000E+00 0.  1.
    9000007    1    1    2  501    0 -0.67777539509E+02 -0.75077465834E+01 -0.51998699455E+03  0.65957307072E+03  0.40000000000E+03 0. -1.
   -9000007    1    1    2    0  502  0.67777539509E+02  0.75077465834E+01 -0.20469040945E+03  0.45447587927E+03  0.40000000000E+03 0. -1.
<mgrwt>
<rscale>  2 0.40577107E+03</rscale>
<asrwt>0</asrwt>
<pdfrwt beam="1">  1       21 0.29951656E-01 0.40577107E+03</pdfrwt>
<pdfrwt beam="2">  1       21 0.14144049E+00 0.40577107E+03</pdfrwt>
<totfact> 0.32799173E+03</totfact>
</mgrwt>
</event>
<event>
 4    1  0.4863180E-002  0.4372587E+03  0.7818608E-02  0.1031591E+00
         21   -1    0    0  501  502  0.00000000000E+00  0.00000000000E+00  0.38240648181E+03  0.38240648181E+03  0.00000000000E+00 0.  1.
         21   -1    0    0  502  503 -0.00000000000E+00 -0.00000000000E+00 -0.11150118953E+04  0.11150118953E+04  0.00000000000E+00 0.  1.
    9000007    1    1    2  501    0 -0.16860875470E+03  0.52595011673E+02  0.18975855817E+03  0.47665863866E+03  0.40000000000E+03 0.  1.
   -9000007    1    1    2    0  503  0.16860875470E+03 -0.52595011673E+02 -0.92236397165E+03  0.10207597384E+04  0.40000000000E+03 0.  1.
<mgrwt>
<rscale>  2 0.43725867E+03</rscale>
<asrwt>0</asrwt>
<pdfrwt beam="1">  1       21 0.58831767E-01 0.43725867E+03</pdfrwt>
<pdfrwt beam="2">  1       21 0.17154029E+00 0.43725867E+03</pdfrwt>
<totfact> 0.46874739E+02</totfact>
</mgrwt>
</event>
<event>
 4    1  0.4863180E-002  0.4324255E+03  0.7818608E-02  0.1033096E+00
         21   -1    0    0  501  502  0.00000000000E+00  0.00000000000E+00  0.18565250567E+04  0.18565250567E+04  0.00000000000E+00 0. -1.
         21   -1    0    0  502  503 -0.00000000000E+00 -0.00000000000E+00 -0.17807429294E+03  0.17807429294E+03  0.00000000000E+00 0. -1.
    9000007    1    1    2  501    0 -0.17024507123E+01  0.16428309472E+03  0.16874430489E+03  0.46418366406E+03  0.40000000000E+03 0. -1.
   -9000007    1    1    2    0  503  0.17024507123E+01 -0.16428309472E+03  0.15097064589E+04  0.15704156856E+04  0.40000000000E+03 0. -1.
<mgrwt>
<rscale>  2 0.43242552E+03</rscale>
<asrwt>0</asrwt>
<pdfrwt beam="1">  1       21 0.28561923E+00 0.43242552E+03</pdfrwt>
<pdfrwt beam="2">  1       21 0.27396046E-01 0.43242552E+03</pdfrwt>
<totfact> 0.42329506E+02</totfact>
</mgrwt>
</event>
<event>
 4    1  0.4863180E-002  0.5177637E+03  0.7818608E-02  0.1009244E+00
         21   -1    0    0  503  502  0.00000000000E+00  0.00000000000E+00  0.20576983029E+03  0.20576983029E+03  0.00000000000E+00 0. -1.
         21   -1    0    0  501  503 -0.00000000000E+00 -0.00000000000E+00 -0.13776430141E+04  0.13776430141E+04  0.00000000000E+00 0. -1.
    9000007    1    1    2  501    0  0.25280700920E+03  0.21016159824E+03 -0.77045443472E+03  0.92826683515E+03  0.40000000000E+03 0.  1.
   -9000007    1    1    2    0  502 -0.25280700920E+03 -0.21016159824E+03 -0.40141874905E+03  0.65514600919E+03  0.40000000000E+03 0.  1.
<mgrwt>
<rscale>  2 0.51776373E+03</rscale>
<asrwt>0</asrwt>
<pdfrwt beam="1">  1       21 0.31656897E-01 0.51776373E+03</pdfrwt>
<pdfrwt beam="2">  1       21 0.21194508E+00 0.51776373E+03</pdfrwt>
<totfact> 0.87192211E+02</totfact>
</mgrwt>
</event>
<event>
 4    1  0.4863180E-002  0.4143741E+03  0.7818608E-02  0.1038913E+00
         21   -1    0    0  501  502  0.00000000000E+00  0.00000000000E+00  0.21755720967E+03  0.21755720967E+03  0.00000000000E+00 0.  1.
         21   -1    0    0  502  503 -0.00000000000E+00 -0.00000000000E+00 -0.10400076239E+04  0.10400076239E+04  0.00000000000E+00 0.  1.
    9000007    1    1    2  501    0 -0.69334946573E+02  0.83057457761E+02 -0.10247036018E+03  0.42685600713E+03  0.40000000000E+03 0.  1.
   -9000007    1    1    2    0  503  0.69334946573E+02 -0.83057457761E+02 -0.71998005405E+03  0.83070882644E+03  0.40000000000E+03 0.  1.
<mgrwt>
<rscale>  2 0.41437408E+03</rscale>
<asrwt>0</asrwt>
<pdfrwt beam="1">  1       21 0.33470339E-01 0.41437408E+03</pdfrwt>
<pdfrwt beam="2">  1       21 0.16000118E+00 0.41437408E+03</pdfrwt>
<totfact> 0.18736283E+03</totfact>
</mgrwt>
</event>
<event>
 4    1  0.4863180E-002  0.4075695E+03  0.7818608E-02  0.1041190E+00
         21   -1    0    0  503  502  0.00000000000E+00  0.00000000000E+00  0.38164742023E+03  0.38164742023E+03  0.00000000000E+00 0. -1.
         21   -1    0    0  501  503 -0.00000000000E+00 -0.00000000000E+00 -0.57661558284E+03  0.57661558284E+03  0.00000000000E+00 0. -1.
    9000007    1    1    2  501    0 -0.15647447314E+02  0.76603042098E+02 -0.33471978225E+03  0.52739947032E+03  0.40000000000E+03 0. -1.
   -9000007    1    1    2    0  502  0.15647447314E+02 -0.76603042098E+02  0.13975161964E+03  0.43086353276E+03  0.40000000000E+03 0. -1.
<mgrwt>
<rscale>  2 0.40756946E+03</rscale>
<asrwt>0</asrwt>
<pdfrwt beam="1">  1       21 0.58714988E-01 0.40756946E+03</pdfrwt>
<pdfrwt beam="2">  1       21 0.88710089E-01 0.40756946E+03</pdfrwt>
<totfact> 0.25994033E+03</totfact>
</mgrwt>
</event>
<event>
 4    1  0.4863180E-002  0.4218750E+03  0.7818608E-02  0.1036458E+00
         21   -1    0    0  503  502  0.00000000000E+00  0.00000000000E+00  0.24317143966E+03  0.24317143966E+03  0.00000000000E+00 0. -1.
         21   -1    0    0  501  503 -0.00000000000E+00 -0.00000000000E+00 -0.73701790554E+03  0.73701790554E+03  0.00000000000E+00 0. -1.
    9000007    1    1    2  501    0 -0.13234855730E+03  0.21503573807E+02 -0.20610555077E+03  0.46952959690E+03  0.40000000000E+03 0.  1.
   -9000007    1    1    2    0  502  0.13234855730E+03 -0.21503573807E+02 -0.28774091511E+03  0.51065974830E+03  0.40000000000E+03 0.  1.
<mgrwt>
<rscale>  2 0.42187503E+03</rscale>
<asrwt>0</asrwt>
<pdfrwt beam="1">  1       21 0.37410991E-01 0.42187503E+03</pdfrwt>
<pdfrwt beam="2">  1       21 0.11338737E+00 0.42187503E+03</pdfrwt>
<totfact> 0.36811024E+03</totfact>
</mgrwt>
</event>
<event>
 4    1  0.4863180E-002  0.4373931E+03  0.7818608E-02  0.1031550E+00
         21   -1    0    0  503  502  0.00000000000E+00  0.00000000000E+00  0.57001726778E+03  0.57001726778E+03  0.00000000000E+00 0. -1.
         21   -1    0    0  501  503 -0.00000000000E+00 -0.00000000000E+00 -0.33588074607E+03  0.33588074607E+03  0.00000000000E+00 0.  1.
    9000007    1    1    2  501    0  0.17594634005E+03  0.18856552304E+02  0.10459707189E+03  0.44972572930E+03  0.40000000000E+03 0.  1.
   -9000007    1    1    2    0  502 -0.17594634005E+03 -0.18856552304E+02  0.12953944982E+03  0.45617228456E+03  0.40000000000E+03 0. -1.
<mgrwt>
<rscale>  2 0.43739305E+03</rscale>
<asrwt>0</asrwt>
<pdfrwt beam="1">  1       21 0.87694964E-01 0.43739305E+03</pdfrwt>
<pdfrwt beam="2">  1       21 0.51673961E-01 0.43739305E+03</pdfrwt>
<totfact> 0.34785705E+03</totfact>
</mgrwt>
</event>
<event>
 4    1  0.4863180E-002  0.4063655E+03  0.7818608E-02  0.1041598E+00
         21   -1    0    0  503  502  0.00000000000E+00  0.00000000000E+00  0.75745506046E+03  0.75745506046E+03  0.00000000000E+00 0. -1.
         21   -1    0    0  501  503 -0.00000000000E+00 -0.00000000000E+00 -0.50356990047E+03  0.50356990047E+03  0.00000000000E+00 0. -1.
    9000007    1    1    2  501    0 -0.24591622242E+02  0.67291751797E+02 -0.34785912097E+03  0.53491952272E+03  0.40000000000E+03 0. -1.
   -9000007    1    1    2    0  502  0.24591622242E+02 -0.67291751797E+02  0.60174428095E+03  0.72610543821E+03  0.40000000000E+03 0. -1.
<mgrwt>
<rscale>  2 0.40636551E+03</rscale>
<asrwt>0</asrwt>
<pdfrwt beam="1">  1       21 0.11653155E+00 0.40636551E+03</pdfrwt>
<pdfrwt beam="2">  1       21 0.77472292E-01 0.40636551E+03</pdfrwt>
<totfact> 0.72160116E+02</totfact>
</mgrwt>
</event>
<event>
 4    1  0.4863180E-002  0.4412617E+03  0.7818608E-02  0.1030360E+00
         21   -1    0    0  503  502  0.00000000000E+00  0.00000000000E+00  0.98562764024E+03  0.98562764024E+03  0.00000000000E+00 0. -1.
         21   -1    0    0  501  503 -0.00000000000E+00 -0.00000000000E+00 -0.33035928812E+03  0.33035928812E+03  0.00000000000E+00 0. -1.
    9000007    1    1    2  501    0  0.12364322660E+03  0.13937079735E+03 -0.89562341878E+02  0.45025912508E+03  0.40000000000E+03 0. -1.
   -9000007    1    1    2    0  502 -0.12364322660E+03 -0.13937079735E+03  0.74483069400E+03  0.86572780327E+03  0.40000000000E+03 0. -1.
<mgrwt>
<rscale>  2 0.44126168E+03</rscale>
<asrwt>0</asrwt>
<pdfrwt beam="1">  1       21 0.15163502E+00 0.44126168E+03</pdfrwt>
<pdfrwt beam="2">  1       21 0.50824506E-01 0.44126168E+03</pdfrwt>
<totfact> 0.90485753E+02</totfact>
</mgrwt>
</event>
<event>
 4    1  0.4863180E-002  0.4409732E+03  0.7818608E-02  0.1030449E+00
         21   -1    0    0  501  502  0.00000000000E+00  0.00000000000E+00  0.30478810888E+03  0.30478810888E+03  0.00000000000E+00 0. -1.
         21   -1    0    0  502  503 -0.00000000000E+00 -0.00000000000E+00 -0.12917738050E+04  0.12917738050E+04  0.00000000000E+00 0. -1.
    9000007    1    1    2  501    0  0.12550348237E+03 -0.13677064082E+03 -0.10613950406E+04  0.11493549341E+04  0.40000000000E+03 0. -1.
   -9000007    1    1    2    0  503 -0.12550348237E+03  0.13677064082E+03  0.74409344435E+02  0.44720697984E+03  0.40000000000E+03 0. -1.
<mgrwt>
<rscale>  2 0.44097317E+03</rscale>
<asrwt>0</asrwt>
<pdfrwt beam="1">  1       21 0.46890479E-01 0.44097317E+03</pdfrwt>
<pdfrwt beam="2">  1       21 0.19873443E+00 0.44097317E+03</pdfrwt>
<totfact> 0.49257965E+02</totfact>
</mgrwt>
</event>
<event>
 4    1  0.4863180E-002  0.4068062E+03  0.7818608E-02  0.1041448E+00
         21   -1    0    0  501  502  0.00000000000E+00  0.00000000000E+00  0.93696632775E+03  0.93696632775E+03  0.00000000000E+00 0. -1.
         21   -1    0    0  502  503 -0.00000000000E+00 -0.00000000000E+00 -0.17779894121E+03  0.17779894121E+03  0.00000000000E+00 0. -1.
    9000007    1    1    2  501    0  0.33011237253E+02 -0.66344105142E+02  0.42488284818E+03  0.58823185628E+03  0.40000000000E+03 0.  1.
   -9000007    1    1    2    0  503 -0.33011237253E+02  0.66344105142E+02  0.33428453837E+03  0.52653341268E+03  0.40000000000E+03 0.  1.
<mgrwt>
<rscale>  2 0.40680620E+03</rscale>
<asrwt>0</asrwt>
<pdfrwt beam="1">  1       21 0.14414866E+00 0.40680620E+03</pdfrwt>
<pdfrwt beam="2">  1       21 0.27353684E-01 0.40680620E+03</pdfrwt>
<totfact> 0.37274426E+03</totfact>
</mgrwt>
</event>
<event>
 4    1  0.4863180E-002  0.4285330E+03  0.7818608E-02  0.1034324E+00
         21   -1    0    0  501  502  0.00000000000E+00  0.00000000000E+00  0.69927844375E+03  0.69927844375E+03  0.00000000000E+00 0.  1.
         21   -1    0    0  502  503 -0.00000000000E+00 -0.00000000000E+00 -0.46622733218E+03  0.46622733218E+03  0.00000000000E+00 0. -1.
    9000007    1    1    2  501    0 -0.26567777008E+02  0.15144213812E+03  0.50163864569E+03  0.65975897025E+03  0.40000000000E+03 0.  1.
   -9000007    1    1    2    0  503  0.26567777008E+02 -0.15144213812E+03 -0.26858753413E+03  0.50574680569E+03  0.40000000000E+03 0. -1.
<mgrwt>
<rscale>  2 0.42853304E+03</rscale>
<asrwt>0</asrwt>
<pdfrwt beam="1">  1       21 0.10758130E+00 0.42853304E+03</pdfrwt>
<pdfrwt beam="2">  1       21 0.71727282E-01 0.42853304E+03</pdfrwt>
<totfact> 0.10380809E+03</totfact>
</mgrwt>
</event>
<event>
 4    1  0.4863180E-002  0.5114685E+03  0.7818608E-02  0.1010828E+00
         21   -1    0    0  503  502  0.00000000000E+00  0.00000000000E+00  0.40678351886E+03  0.40678351886E+03  0.00000000000E+00 0. -1.
         21   -1    0    0  501  503 -0.00000000000E+00 -0.00000000000E+00 -0.64905043346E+03  0.64905043346E+03  0.00000000000E+00 0. -1.
    9000007    1    1    2  501    0  0.19547209175E+03  0.25177499522E+03 -0.70559802561E+02  0.51631257258E+03  0.40000000000E+03 0. -1.
   -9000007    1    1    2    0  502 -0.19547209175E+03 -0.25177499522E+03 -0.17170711205E+03  0.53952137974E+03  0.40000000000E+03 0. -1.
<mgrwt>
<rscale>  2 0.51146846E+03</rscale>
<asrwt>0</asrwt>
<pdfrwt beam="1">  1       21 0.62582080E-01 0.51146846E+03</pdfrwt>
<pdfrwt beam="2">  1       21 0.99853913E-01 0.51146846E+03</pdfrwt>
<totfact> 0.16384868E+03</totfact>
</mgrwt>
</event>
<event>
 4    1  0.4863180E-002  0.4079668E+03  0.7818608E-02  0.1041055E+00
         21   -1    0    0  503  502  0.00000000000E+00  0.00000000000E+00  0.20014091342E+03  0.20014091342E+03  0.00000000000E+00 0. -1.
         21   -1    0    0  501  503 -0.00000000000E+00 -0.00000000000E+00 -0.10770117288E+04  0.10770117288E+04  0.00000000000E+00 0. -1.
    9000007    1    1    2  501    0 -0.18769571268E+02 -0.78003929255E+02 -0.74326102512E+03  0.84786429412E+03  0.40000000000E+03 0.  1.
   -9000007    1    1    2    0  502  0.18769571268E+02  0.78003929255E+02 -0.13360979029E+03  0.42928834814E+03  0.40000000000E+03 0.  1.
<mgrwt>
<rscale>  2 0.40796680E+03</rscale>
<asrwt>0</asrwt>
<pdfrwt beam="1">  1       21 0.30790910E-01 0.40796680E+03</pdfrwt>
<pdfrwt beam="2">  1       21 0.16569411E+00 0.40796680E+03</pdfrwt>
<totfact> 0.20133605E+03</totfact>
</mgrwt>
</event>
<event>
 4    1  0.4863180E-002  0.4463657E+03  0.7818608E-02  0.1028811E+00
         21   -1    0    0  501  502  0.00000000000E+00  0.00000000000E+00  0.14100929203E+03  0.14100929203E+03  0.00000000000E+00 0.  1.
         21   -1    0    0  502  503 -0.00000000000E+00 -0.00000000000E+00 -0.19750223361E+04  0.19750223361E+04  0.00000000000E+00 0.  1.
    9000007    1    1    2  501    0  0.96822220060E+02  0.17282314315E+03 -0.35259845555E+03  0.56883042461E+03  0.40000000000E+03 0.  1.
   -9000007    1    1    2    0  503 -0.96822220060E+02 -0.17282314315E+03 -0.14814145885E+04  0.15472012035E+04  0.40000000000E+03 0.  1.
<mgrwt>
<rscale>  2 0.44636575E+03</rscale>
<asrwt>0</asrwt>
<pdfrwt beam="1">  1       21 0.21693740E-01 0.44636575E+03</pdfrwt>
<pdfrwt beam="2">  1       21 0.30384955E+00 0.44636575E+03</pdfrwt>
<totfact> 0.51316008E+02</totfact>
</mgrwt>
</event>
<event>
 4    1  0.4863180E-002  0.6527832E+03  0.7818608E-02  0.9801571E-01
         21   -1    0    0  501  502  0.00000000000E+00  0.00000000000E+00  0.13219927744E+04  0.13219927744E+04  0.00000000000E+00 0. -1.
         21   -1    0    0  502  503 -0.00000000000E+00 -0.00000000000E+00 -0.32690034607E+03  0.32690034607E+03  0.00000000000E+00 0.  1.
    9000007    1    1    2  501    0 -0.50579704575E+03 -0.10146566767E+03  0.40012768371E+03  0.76565533791E+03  0.40000000000E+03 0.  1.
   -9000007    1    1    2    0  503  0.50579704575E+03  0.10146566767E+03  0.59496474467E+03  0.88323778260E+03  0.40000000000E+03 0. -1.
<mgrwt>
<rscale>  2 0.65278322E+03</rscale>
<asrwt>0</asrwt>
<pdfrwt beam="1">  1       21 0.20338350E+00 0.65278322E+03</pdfrwt>
<pdfrwt beam="2">  1       21 0.50292362E-01 0.65278322E+03</pdfrwt>
<totfact> 0.36215607E+02</totfact>
</mgrwt>
</event>
<event>
 4    1  0.4863180E-002  0.6331823E+03  0.7818608E-02  0.9838858E-01
         21   -1    0    0  503  502  0.00000000000E+00  0.00000000000E+00  0.68656324996E+03  0.68656324996E+03  0.00000000000E+00 0.  1.
         21   -1    0    0  501  503 -0.00000000000E+00 -0.00000000000E+00 -0.62840276439E+03  0.62840276439E+03  0.00000000000E+00 0. -1.
    9000007    1    1    2  501    0 -0.28428440169E+03  0.40012778998E+03 -0.14578597408E+03  0.64974873574E+03  0.40000000000E+03 0. -1.
   -9000007    1    1    2    0  502  0.28428440169E+03 -0.40012778998E+03  0.20394645965E+03  0.66521727861E+03  0.40000000000E+03 0.  1.
<mgrwt>
<rscale>  2 0.63318234E+03</rscale>
<asrwt>0</asrwt>
<pdfrwt beam="1">  1       21 0.10562512E+00 0.63318234E+03</pdfrwt>
<pdfrwt beam="2">  1       21 0.96677348E-01 0.63318234E+03</pdfrwt>
<totfact> 0.50139921E+02</totfact>
</mgrwt>
</event>
<event>
 4    1  0.4863180E-002  0.4366373E+03  0.7818608E-02  0.1031784E+00
         21   -1    0    0  501  502  0.00000000000E+00  0.00000000000E+00  0.69029638623E+03  0.69029638623E+03  0.00000000000E+00 0. -1.
         21   -1    0    0  502  503 -0.00000000000E+00 -0.00000000000E+00 -0.43502949167E+03  0.43502949167E+03  0.00000000000E+00 0. -1.
    9000007    1    1    2  501    0  0.12542768252E+03  0.12214762992E+03  0.46762631964E+03  0.63978630952E+03  0.40000000000E+03 0. -1.
   -9000007    1    1    2    0  503 -0.12542768252E+03 -0.12214762992E+03 -0.21235942507E+03  0.48553956837E+03  0.40000000000E+03 0. -1.
<mgrwt>
<rscale>  2 0.43663732E+03</rscale>
<asrwt>0</asrwt>
<pdfrwt beam="1">  1       21 0.10619944E+00 0.43663732E+03</pdfrwt>
<pdfrwt beam="2">  1       21 0.66927614E-01 0.43663732E+03</pdfrwt>
<totfact> 0.12477833E+03</totfact>
</mgrwt>
</event>
<event>
 4    1  0.4863180E-002  0.4499069E+03  0.7818608E-02  0.1027750E+00
         21   -1    0    0  503  502  0.00000000000E+00  0.00000000000E+00  0.97909544479E+03  0.97909544479E+03  0.00000000000E+00 0.  1.
         21   -1    0    0  501  503 -0.00000000000E+00 -0.00000000000E+00 -0.21023120840E+03  0.21023120840E+03  0.00000000000E+00 0.  1.
    9000007    1    1    2  501    0  0.13453550866E+03  0.15593728374E+03  0.30777818175E+03  0.54510884116E+03  0.40000000000E+03 0.  1.
   -9000007    1    1    2    0  502 -0.13453550866E+03 -0.15593728374E+03  0.46108605464E+03  0.64421781203E+03  0.40000000000E+03 0.  1.
<mgrwt>
<rscale>  2 0.44990692E+03</rscale>
<asrwt>0</asrwt>
<pdfrwt beam="1">  1       21 0.15063007E+00 0.44990692E+03</pdfrwt>
<pdfrwt beam="2">  1       21 0.32343263E-01 0.44990692E+03</pdfrwt>
<totfact> 0.23345220E+03</totfact>
</mgrwt>
</event>
<event>
 4    1  0.4863180E-002  0.4065535E+03  0.7818608E-02  0.1041534E+00
         21   -1    0    0  503  502  0.00000000000E+00  0.00000000000E+00  0.27091159876E+03  0.27091159876E+03  0.00000000000E+00 0.  1.
         21   -1    0    0  501  503 -0.00000000000E+00 -0.00000000000E+00 -0.72637911263E+03  0.72637911263E+03  0.00000000000E+00 0.  1.
    9000007    1    1    2  501    0 -0.34830792815E+02 -0.63816855328E+02 -0.28233722198E+02  0.40753272043E+03  0.40000000000E+03 0.  1.
   -9000007    1    1    2    0  502  0.34830792815E+02  0.63816855328E+02 -0.42723379167E+03  0.58975799096E+03  0.40000000000E+03 0.  1.
<mgrwt>
<rscale>  2 0.40655353E+03</rscale>
<asrwt>0</asrwt>
<pdfrwt beam="1">  1       21 0.41678708E-01 0.40655353E+03</pdfrwt>
<pdfrwt beam="2">  1       21 0.11175063E+00 0.40655353E+03</pdfrwt>
<totfact> 0.30756974E+03</totfact>
</mgrwt>
</event>
<event>
 4    1  0.4863180E-002  0.4125665E+03  0.7818608E-02  0.1039513E+00
         21   -1    0    0  501  502  0.00000000000E+00  0.00000000000E+00  0.20179738085E+03  0.20179738085E+03  0.00000000000E+00 0.  1.
         21   -1    0    0  502  503 -0.00000000000E+00 -0.00000000000E+00 -0.87639996575E+03  0.87639996575E+03  0.00000000000E+00 0. -1.
    9000007    1    1    2  501    0  0.57325476274E+02 -0.83216004980E+02 -0.23281061769E+03  0.47372132887E+03  0.40000000000E+03 0.  1.
   -9000007    1    1    2    0  503 -0.57325476274E+02  0.83216004980E+02 -0.44179196722E+03  0.60447601773E+03  0.40000000000E+03 0. -1.
<mgrwt>
<rscale>  2 0.41256650E+03</rscale>
<asrwt>0</asrwt>
<pdfrwt beam="1">  1       21 0.31045751E-01 0.41256650E+03</pdfrwt>
<pdfrwt beam="2">  1       21 0.13483076E+00 0.41256650E+03</pdfrwt>
<totfact> 0.34558211E+03</totfact>
</mgrwt>
</event>
<event>
 4    1  0.4863180E-002  0.4191877E+03  0.7818608E-02  0.1037331E+00
         21   -1    0    0  501  502  0.00000000000E+00  0.00000000000E+00  0.67916559593E+03  0.67916559593E+03  0.00000000000E+00 0.  1.
         21   -1    0    0  502  503 -0.00000000000E+00 -0.00000000000E+00 -0.26073465954E+03  0.26073465954E+03  0.00000000000E+00 0.  1.
    9000007    1    1    2  501    0  0.47098113456E+02 -0.11618996208E+03  0.25045553191E+03  0.48830964873E+03  0.40000000000E+03 0. -1.
   -9000007    1    1    2    0  503 -0.47098113456E+02  0.11618996208E+03  0.16797540449E+03  0.45159060674E+03  0.40000000000E+03 0. -1.
<mgrwt>
<rscale>  2 0.41918771E+03</rscale>
<asrwt>0</asrwt>
<pdfrwt beam="1">  1       21 0.10448701E+00 0.41918771E+03</pdfrwt>
<pdfrwt beam="2">  1       21 0.40113025E-01 0.41918771E+03</pdfrwt>
<totfact> 0.39099338E+03</totfact>
</mgrwt>
</event>
<event>
 4    1  0.4863180E-002  0.8757617E+03  0.7818608E-02  0.9456398E-01
         21   -1    0    0  501  502  0.00000000000E+00  0.00000000000E+00  0.11813652701E+04  0.11813652701E+04  0.00000000000E+00 0.  1.
         21   -1    0    0  502  503 -0.00000000000E+00 -0.00000000000E+00 -0.66718353373E+03  0.66718353373E+03  0.00000000000E+00 0. -1.
    9000007    1    1    2  501    0  0.48743723871E+03 -0.60775285693E+03  0.40877826211E+03  0.96646689771E+03  0.40000000000E+03 0.  1.
   -9000007    1    1    2    0  503 -0.48743723871E+03  0.60775285693E+03  0.10540347430E+03  0.88208190617E+03  0.40000000000E+03 0. -1.
<mgrwt>
<rscale>  2 0.87576172E+03</rscale>
<asrwt>0</asrwt>
<pdfrwt beam="1">  1       21 0.18174850E+00 0.87576172E+03</pdfrwt>
<pdfrwt beam="2">  1       21 0.10264362E+00 0.87576172E+03</pdfrwt>
<totfact> 0.92841325E+01</totfact>
</mgrwt>
</event>
<event>
 4    1  0.4863180E-002  0.4168058E+03  0.7818608E-02  0.1038111E+00
         21   -1    0    0  501  502  0.00000000000E+00  0.00000000000E+00  0.10104537877E+04  0.10104537877E+04  0.00000000000E+00 0. -1.
         21   -1    0    0  502  503 -0.00000000000E+00 -0.00000000000E+00 -0.27912478717E+03  0.27912478717E+03  0.00000000000E+00 0. -1.
    9000007    1    1    2  501    0 -0.67952931846E+02 -0.95443772264E+02  0.76524644418E+03  0.87139499364E+03  0.40000000000E+03 0. -1.
   -9000007    1    1    2    0  503  0.67952931846E+02  0.95443772264E+02 -0.33917443672E+02  0.41818358121E+03  0.40000000000E+03 0. -1.
<mgrwt>
<rscale>  2 0.41680585E+03</rscale>
<asrwt>0</asrwt>
<pdfrwt beam="1">  1       21 0.15545443E+00 0.41680585E+03</pdfrwt>
<pdfrwt beam="2">  1       21 0.42942276E-01 0.41680585E+03</pdfrwt>
<totfact> 0.12185193E+03</totfact>
</mgrwt>
</event>
<event>
 4    1  0.4863180E-002  0.4166933E+03  0.7818608E-02  0.1038148E+00
         21   -1    0    0  501  502  0.00000000000E+00  0.00000000000E+00  0.11195717445E+04  0.11195717445E+04  0.00000000000E+00 0. -1.
         21   -1    0    0  502  503 -0.00000000000E+00 -0.00000000000E+00 -0.27021678354E+03  0.27021678354E+03  0.00000000000E+00 0. -1.
    9000007    1    1    2  501    0 -0.10134608979E+03 -0.57985277967E+02  0.87825606082E+03  0.97209414706E+03  0.40000000000E+03 0. -1.
   -9000007    1    1    2    0  503  0.10134608979E+03  0.57985277967E+02 -0.28901099814E+02  0.41769438103E+03  0.40000000000E+03 0. -1.
<mgrwt>
<rscale>  2 0.41669332E+03</rscale>
<asrwt>0</asrwt>
<pdfrwt beam="1">  1       21 0.17224180E+00 0.41669332E+03</pdfrwt>
<pdfrwt beam="2">  1       21 0.41571813E-01 0.41669332E+03</pdfrwt>
<totfact> 0.97792691E+02</totfact>
</mgrwt>
</event>
<event>
 4    1  0.4863180E-002  0.5027015E+03  0.7818608E-02  0.1013076E+00
         21   -1    0    0  503  502  0.00000000000E+00  0.00000000000E+00  0.15354993876E+04  0.15354993876E+04  0.00000000000E+00 0. -1.
         21   -1    0    0  501  503 -0.00000000000E+00 -0.00000000000E+00 -0.20263216195E+03  0.20263216195E+03  0.00000000000E+00 0.  1.
    9000007    1    1    2  501    0  0.69922659644E+02  0.29634381359E+03  0.28981506070E+03  0.58025994485E+03  0.40000000000E+03 0.  1.
   -9000007    1    1    2    0  502 -0.69922659644E+02 -0.29634381359E+03  0.10430521650E+04  0.11578716047E+04  0.40000000000E+03 0. -1.
<mgrwt>
<rscale>  2 0.50270154E+03</rscale>
<asrwt>0</asrwt>
<pdfrwt beam="1">  1       21 0.23623067E+00 0.50270154E+03</pdfrwt>
<pdfrwt beam="2">  1       21 0.31174180E-01 0.50270154E+03</pdfrwt>
<totfact> 0.63294660E+02</totfact>
</mgrwt>
</event>
<event>
 4    1  0.4863180E-002  0.4292271E+03  0.7818608E-02  0.1034104E+00
         21   -1    0    0  501  502  0.00000000000E+00  0.00000000000E+00  0.97044919106E+03  0.97044919106E+03  0.00000000000E+00 0. -1.
         21   -1    0    0  502  503 -0.00000000000E+00 -0.00000000000E+00 -0.40685214760E+03  0.40685214760E+03  0.00000000000E+00 0. -1.
    9000007    1    1    2  501    0  0.67767503897E+02 -0.14015527690E+03  0.78473906414E+03  0.89445588768E+03  0.40000000000E+03 0. -1.
   -9000007    1    1    2    0  503 -0.67767503897E+02  0.14015527690E+03 -0.22114202067E+03  0.48284545098E+03  0.40000000000E+03 0. -1.
<mgrwt>
<rscale>  2 0.42922714E+03</rscale>
<asrwt>0</asrwt>
<pdfrwt beam="1">  1       21 0.14929987E+00 0.42922714E+03</pdfrwt>
<pdfrwt beam="2">  1       21 0.62592639E-01 0.42922714E+03</pdfrwt>
<totfact> 0.60428496E+02</totfact>
</mgrwt>
</event>
<event>
 4    1  0.4863180E-002  0.4091069E+03  0.7818608E-02  0.1040671E+00
         21   -1    0    0  503  502  0.00000000000E+00  0.00000000000E+00  0.59359507812E+03  0.59359507812E+03  0.00000000000E+00 0.  1.
         21   -1    0    0  501  503 -0.00000000000E+00 -0.00000000000E+00 -0.27107934846E+04  0.27107934846E+04  0.00000000000E+00 0.  1.
    9000007    1    1    2  501    0  0.37365936558E+02 -0.77280438657E+02 -0.26225101089E+04  0.26542282778E+04  0.40000000000E+03 0.  1.
   -9000007    1    1    2    0  502 -0.37365936558E+02  0.77280438657E+02  0.50531170245E+03  0.65016028489E+03  0.40000000000E+03 0.  1.
<mgrwt>
<rscale>  2 0.40910693E+03</rscale>
<asrwt>0</asrwt>
<pdfrwt beam="1">  1       21 0.91322321E-01 0.40910693E+03</pdfrwt>
<pdfrwt beam="2">  1       21 0.41704515E+00 0.40910693E+03</pdfrwt>
<totfact> 0.50710251E+00</totfact>
</mgrwt>
</event>
<event>
 4    1  0.4863180E-002  0.4683997E+03  0.7818608E-02  0.1022373E+00
         21   -1    0    0  501  502  0.00000000000E+00  0.00000000000E+00  0.43812023237E+03  0.43812023237E+03  0.00000000000E+00 0. -1.
         21   -1    0    0  502  503 -0.00000000000E+00 -0.00000000000E+00 -0.17464746883E+04  0.17464746883E+04  0.00000000000E+00 0.  1.
    9000007    1    1    2  501    0 -0.45709626408E+02  0.23939273356E+03  0.26832413038E+03  0.53981116121E+03  0.40000000000E+03 0. -1.
   -9000007    1    1    2    0  503  0.45709626408E+02 -0.23939273356E+03 -0.15766785863E+04  0.16447837594E+04  0.40000000000E+03 0.  1.
<mgrwt>
<rscale>  2 0.46839967E+03</rscale>
<asrwt>0</asrwt>
<pdfrwt beam="1">  1       21 0.67403114E-01 0.46839967E+03</pdfrwt>
<pdfrwt beam="2">  1       21 0.26868841E+00 0.46839967E+03</pdfrwt>
<totfact> 0.80033889E+01</totfact>
</mgrwt>
</event>
<event>
 4    1  0.4863180E-002  0.4135039E+03  0.7818608E-02  0.1039202E+00
         21   -1    0    0  501  502  0.00000000000E+00  0.00000000000E+00  0.42982517355E+03  0.42982517355E+03  0.00000000000E+00 0. -1.
         21   -1    0    0  502  503 -0.00000000000E+00 -0.00000000000E+00 -0.60524679061E+03  0.60524679061E+03  0.00000000000E+00 0. -1.
    9000007    1    1    2  501    0  0.10478813062E+03 -0.22259357388E+01  0.21527696083E+03  0.46618631144E+03  0.40000000000E+03 0. -1.
   -9000007    1    1    2    0  503 -0.10478813062E+03  0.22259357388E+01 -0.39069857789E+03  0.56888565272E+03  0.40000000000E+03 0. -1.
<mgrwt>
<rscale>  2 0.41350394E+03</rscale>
<asrwt>0</asrwt>
<pdfrwt beam="1">  1       21 0.66126950E-01 0.41350394E+03</pdfrwt>
<pdfrwt beam="2">  1       21 0.93114891E-01 0.41350394E+03</pdfrwt>
<totfact> 0.17795635E+03</totfact>
</mgrwt>
</event>
<event>
 4    1  0.4863180E-002  0.5075334E+03  0.7818608E-02  0.1011831E+00
         21   -1    0    0  501  502  0.00000000000E+00  0.00000000000E+00  0.30348000562E+03  0.30348000562E+03  0.00000000000E+00 0. -1.
         21   -1    0    0  502  503 -0.00000000000E+00 -0.00000000000E+00 -0.90626203746E+03  0.90626203746E+03  0.00000000000E+00 0. -1.
    9000007    1    1    2  501    0  0.26607828940E+03  0.16368428402E+03 -0.45371614845E+03  0.68077055187E+03  0.40000000000E+03 0. -1.
   -9000007    1    1    2    0  503 -0.26607828940E+03 -0.16368428402E+03 -0.14906588338E+03  0.52897149121E+03  0.40000000000E+03 0. -1.
<mgrwt>
<rscale>  2 0.50753345E+03</rscale>
<asrwt>0</asrwt>
<pdfrwt beam="1">  1       21 0.46689232E-01 0.50753345E+03</pdfrwt>
<pdfrwt beam="2">  1       21 0.13942493E+00 0.50753345E+03</pdfrwt>
<totfact> 0.13227861E+03</totfact>
</mgrwt>
</event>
<event>
 4    1  0.4863180E-002  0.4254075E+03  0.7818608E-02  0.1035321E+00
         21   -1    0    0  503  502  0.00000000000E+00  0.00000000000E+00  0.62888433371E+03  0.62888433371E+03  0.00000000000E+00 0. -1.
         21   -1    0    0  501  503 -0.00000000000E+00 -0.00000000000E+00 -0.28788627486E+03  0.28788627486E+03  0.00000000000E+00 0. -1.
    9000007    1    1    2  501    0  0.12047412302E+02 -0.14431368146E+03  0.17986526607E+03  0.46186912945E+03  0.40000000000E+03 0. -1.
   -9000007    1    1    2    0  502 -0.12047412302E+02  0.14431368146E+03  0.16113279277E+03  0.45490147912E+03  0.40000000000E+03 0. -1.
<mgrwt>
<rscale>  2 0.42540754E+03</rscale>
<asrwt>0</asrwt>
<pdfrwt beam="1">  1       21 0.96751436E-01 0.42540754E+03</pdfrwt>
<pdfrwt beam="2">  1       21 0.44290196E-01 0.42540754E+03</pdfrwt>
<totfact> 0.38298072E+03</totfact>
</mgrwt>
</event>
<event>
 4    1  0.4863180E-002  0.4684684E+03  0.7818608E-02  0.1022353E+00
         21   -1    0    0  503  502  0.00000000000E+00  0.00000000000E+00  0.11778435200E+04  0.11778435200E+04  0.00000000000E+00 0. -1.
         21   -1    0    0  501  503 -0.00000000000E+00 -0.00000000000E+00 -0.37813850528E+03  0.37813850528E+03  0.00000000000E+00 0. -1.
    9000007    1    1    2  501    0 -0.36328716002E+01  0.24382253690E+03 -0.15424707432E+03  0.49320866496E+03  0.40000000000E+03 0. -1.
   -9000007    1    1    2    0  502  0.36328716002E+01 -0.24382253690E+03  0.95395208907E+03  0.10627733604E+04  0.40000000000E+03 0. -1.
<mgrwt>
<rscale>  2 0.46846838E+03</rscale>
<asrwt>0</asrwt>
<pdfrwt beam="1">  1       21 0.18120669E+00 0.46846838E+03</pdfrwt>
<pdfrwt beam="2">  1       21 0.58175155E-01 0.46846838E+03</pdfrwt>
<totfact> 0.40372009E+02</totfact>
</mgrwt>
</event>
<event>
 4    1  0.4863180E-002  0.4831930E+03  0.7818608E-02  0.1018261E+00
         21   -1    0    0  503  502  0.00000000000E+00  0.00000000000E+00  0.24895349084E+03  0.24895349084E+03  0.00000000000E+00 0.  1.
         21   -1    0    0  501  503 -0.00000000000E+00 -0.00000000000E+00 -0.12705633240E+04  0.12705633240E+04  0.00000000000E+00 0.  1.
    9000007    1    1    2  501    0  0.64526945952E+01  0.27098680309E+03 -0.89960557744E+03  0.10211589884E+04  0.40000000000E+03 0.  1.
   -9000007    1    1    2    0  502 -0.64526945952E+01 -0.27098680309E+03 -0.12200425573E+03  0.49835782640E+03  0.40000000000E+03 0.  1.
<mgrwt>
<rscale>  2 0.48319301E+03</rscale>
<asrwt>0</asrwt>
<pdfrwt beam="1">  1       21 0.38300536E-01 0.48319301E+03</pdfrwt>
<pdfrwt beam="2">  1       21 0.19547129E+00 0.48319301E+03</pdfrwt>
<totfact> 0.77350816E+02</totfact>
</mgrwt>
</event>
<event>
 4    1  0.4863180E-002  0.5425990E+03  0.7818608E-02  0.1003222E+00
         21   -1    0    0  503  502  0.00000000000E+00  0.00000000000E+00  0.94093597504E+02  0.94093597504E+02  0.00000000000E+00 0. -1.
         21   -1    0    0  501  503 -0.00000000000E+00 -0.00000000000E+00 -0.31343166408E+04  0.31343166408E+04  0.00000000000E+00 0.  1.
    9000007    1    1    2  501    0 -0.36254618452E+03 -0.54533847705E+02 -0.15869377896E+04  0.16771360185E+04  0.40000000000E+03 0. -1.
   -9000007    1    1    2    0  502  0.36254618452E+03  0.54533847705E+02 -0.14532852537E+04  0.15512742199E+04  0.40000000000E+03 0.  1.
<mgrwt>
<rscale>  2 0.54259900E+03</rscale>
<asrwt>0</asrwt>
<pdfrwt beam="1">  1       21 0.14475939E-01 0.54259900E+03</pdfrwt>
<pdfrwt beam="2">  1       21 0.48220253E+00 0.54259900E+03</pdfrwt>
<totfact> 0.74083159E+01</totfact>
</mgrwt>
</event>
<event>
 4    1  0.4863180E-002  0.4873327E+03  0.7818608E-02  0.1017139E+00
         21   -1    0    0  501  502  0.00000000000E+00  0.00000000000E+00  0.30261203145E+03  0.30261203145E+03  0.00000000000E+00 0.  1.
         21   -1    0    0  502  503 -0.00000000000E+00 -0.00000000000E+00 -0.79010389639E+03  0.79010389639E+03  0.00000000000E+00 0.  1.
    9000007    1    1    2  501    0  0.18215290845E+03 -0.21050777418E+03 -0.19902734214E+03  0.52640772028E+03  0.40000000000E+03 0. -1.
   -9000007    1    1    2    0  503 -0.18215290845E+03  0.21050777418E+03 -0.28846452280E+03  0.56630820757E+03  0.40000000000E+03 0. -1.
<mgrwt>
<rscale>  2 0.48733275E+03</rscale>
<asrwt>0</asrwt>
<pdfrwt beam="1">  1       21 0.46555697E-01 0.48733275E+03</pdfrwt>
<pdfrwt beam="2">  1       21 0.12155445E+00 0.48733275E+03</pdfrwt>
<totfact> 0.19165611E+03</totfact>
</mgrwt>
</event>
<event>
 4    1  0.4863180E-002  0.4497008E+03  0.7818608E-02  0.1027811E+00
         21   -1    0    0  503  502  0.00000000000E+00  0.00000000000E+00  0.19094787582E+03  0.19094787582E+03  0.00000000000E+00 0. -1.
         21   -1    0    0  501  503 -0.00000000000E+00 -0.00000000000E+00 -0.10891317731E+04  0.10891317731E+04  0.00000000000E+00 0. -1.
    9000007    1    1    2  501    0 -0.20532003799E+03 -0.86318885534E+01 -0.55539250973E+03  0.71462694279E+03  0.40000000000E+03 0. -1.
   -9000007    1    1    2    0  502  0.20532003799E+03  0.86318885534E+01 -0.34279138757E+03  0.56545270615E+03  0.40000000000E+03 0. -1.
<mgrwt>
<rscale>  2 0.44970082E+03</rscale>
<asrwt>0</asrwt>
<pdfrwt beam="1">  1       21 0.29376596E-01 0.44970082E+03</pdfrwt>
<pdfrwt beam="2">  1       21 0.16755873E+00 0.44970082E+03</pdfrwt>
<totfact> 0.21041868E+03</totfact>
</mgrwt>
</event>
<event>
 4    1  0.4863180E-002  0.4311899E+03  0.7818608E-02  0.1033485E+00
         21   -1    0    0  503  502  0.00000000000E+00  0.00000000000E+00  0.33149525989E+03  0.33149525989E+03  0.00000000000E+00 0.  1.
         21   -1    0    0  501  503 -0.00000000000E+00 -0.00000000000E+00 -0.80872820645E+03  0.80872820645E+03  0.00000000000E+00 0.  1.
    9000007    1    1    2  501    0 -0.10837828745E+03 -0.11907493356E+03 -0.55423545855E+03  0.70221195982E+03  0.40000000000E+03 0.  1.
   -9000007    1    1    2    0  502  0.10837828745E+03  0.11907493356E+03  0.77002511999E+02  0.43801150652E+03  0.40000000000E+03 0.  1.
<mgrwt>
<rscale>  2 0.43118986E+03</rscale>
<asrwt>0</asrwt>
<pdfrwt beam="1">  1       21 0.50999271E-01 0.43118986E+03</pdfrwt>
<pdfrwt beam="2">  1       21 0.12441972E+00 0.43118986E+03</pdfrwt>
<totfact> 0.15207071E+03</totfact>
</mgrwt>
</event>
<event>
 4    1  0.4863180E-002  0.4237026E+03  0.7818608E-02  0.1035868E+00
         21   -1    0    0  501  502  0.00000000000E+00  0.00000000000E+00  0.60646964790E+03  0.60646964790E+03  0.00000000000E+00 0.  1.
         21   -1    0    0  502  503 -0.00000000000E+00 -0.00000000000E+00 -0.29605670786E+03  0.29605670786E+03  0.00000000000E+00 0.  1.
    9000007    1    1    2  501    0 -0.10433774246E+03  0.92938255010E+02  0.14982613759E+03  0.44941267812E+03  0.40000000000E+03 0.  1.
   -9000007    1    1    2    0  503  0.10433774246E+03 -0.92938255010E+02  0.16058680245E+03  0.45311367764E+03  0.40000000000E+03 0.  1.
<mgrwt>
<rscale>  2 0.42370259E+03</rscale>
<asrwt>0</asrwt>
<pdfrwt beam="1">  1       21 0.93303022E-01 0.42370259E+03</pdfrwt>
<pdfrwt beam="2">  1       21 0.45547186E-01 0.42370259E+03</pdfrwt>
<totfact> 0.39422912E+03</totfact>
</mgrwt>
</event>
<event>
 4    1  0.4863180E-002  0.4087203E+03  0.7818608E-02  0.1040801E+00
         21   -1    0    0  501  502  0.00000000000E+00  0.00000000000E+00  0.22520647044E+03  0.22520647044E+03  0.00000000000E+00 0.  1.
         21   -1    0    0  502  503 -0.00000000000E+00 -0.00000000000E+00 -0.88523639768E+03  0.88523639768E+03  0.00000000000E+00 0.  1.
    9000007    1    1    2  501    0  0.82554369404E+02 -0.15397321265E+02 -0.10650048795E+03  0.42236791467E+03  0.40000000000E+03 0. -1.
   -9000007    1    1    2    0  503 -0.82554369404E+02  0.15397321265E+02 -0.55352943928E+03  0.68807495345E+03  0.40000000000E+03 0. -1.
<mgrwt>
<rscale>  2 0.40872032E+03</rscale>
<asrwt>0</asrwt>
<pdfrwt beam="1">  1       21 0.34647150E-01 0.40872032E+03</pdfrwt>
<pdfrwt beam="2">  1       21 0.13619021E+00 0.40872032E+03</pdfrwt>
<totfact> 0.27059573E+03</totfact>
</mgrwt>
</event>
<event>
 4    1  0.4863180E-002  0.5704742E+03  0.7818608E-02  0.9968630E-01
         21   -1    0    0  503  502  0.00000000000E+00  0.00000000000E+00  0.36790619139E+03  0.36790619139E+03  0.00000000000E+00 0. -1.
         21   -1    0    0  501  503 -0.00000000000E+00 -0.00000000000E+00 -0.13209662163E+04  0.13209662163E+04  0.00000000000E+00 0.  1.
    9000007    1    1    2  501    0  0.37729897314E+03  0.15194183529E+03 -0.96188410488E+03  0.11183299458E+04  0.40000000000E+03 0.  1.
   -9000007    1    1    2    0  502 -0.37729897314E+03 -0.15194183529E+03  0.88240799560E+01  0.57054246190E+03  0.40000000000E+03 0. -1.
<mgrwt>
<rscale>  2 0.57047422E+03</rscale>
<asrwt>0</asrwt>
<pdfrwt beam="1">  1       21 0.56600954E-01 0.57047422E+03</pdfrwt>
<pdfrwt beam="2">  1       21 0.20322557E+00 0.57047422E+03</pdfrwt>
<totfact> 0.28980540E+02</totfact>
</mgrwt>
</event>
<event>
 4    1  0.4863180E-002  0.4674497E+03  0.7818608E-02  0.1022642E+00
         21   -1    0    0  501  502  0.00000000000E+00  0.00000000000E+00  0.27907127677E+03  0.27907127677E+03  0.00000000000E+00 0. -1.
         21   -1    0    0  502  503 -0.00000000000E+00 -0.00000000000E+00 -0.93090487178E+03  0.93090487178E+03  0.00000000000E+00 0. -1.
    9000007    1    1    2  501    0 -0.34313228564E+02  0.23944073556E+03 -0.84757473861E+02  0.47507167130E+03  0.40000000000E+03 0. -1.
   -9000007    1    1    2    0  503  0.34313228564E+02 -0.23944073556E+03 -0.56707612115E+03  0.73490447725E+03  0.40000000000E+03 0. -1.
<mgrwt>
<rscale>  2 0.46744974E+03</rscale>
<asrwt>0</asrwt>
<pdfrwt beam="1">  1       21 0.42934043E-01 0.46744974E+03</pdfrwt>
<pdfrwt beam="2">  1       21 0.14321613E+00 0.46744974E+03</pdfrwt>
<totfact> 0.14901220E+03</totfact>
</mgrwt>
</event>
<event>
 4    1  0.4863180E-002  0.4592965E+03  0.7818608E-02  0.1024985E+00
         21   -1    0    0  501  502  0.00000000000E+00  0.00000000000E+00  0.14356540981E+03  0.14356540981E+03  0.00000000000E+00 0.  1.
         21   -1    0    0  502  503 -0.00000000000E+00 -0.00000000000E+00 -0.14818538969E+04  0.14818538969E+04  0.00000000000E+00 0. -1.
    9000007    1    1    2  501    0  0.18075380878E+03  0.13520859364E+03 -0.59460363415E+03  0.75133666551E+03  0.40000000000E+03 0. -1.
   -9000007    1    1    2    0  503 -0.18075380878E+03 -0.13520859364E+03 -0.74368485294E+03  0.87408264122E+03  0.40000000000E+03 0. -1.
<mgrwt>
<rscale>  2 0.45929653E+03</rscale>
<asrwt>0</asrwt>
<pdfrwt beam="1">  1       21 0.22086986E-01 0.45929653E+03</pdfrwt>
<pdfrwt beam="2">  1       21 0.22797753E+00 0.45929653E+03</pdfrwt>
<totfact> 0.14296239E+03</totfact>
</mgrwt>
</event>
<event>
 4    1  0.4863180E-002  0.5404956E+03  0.7818608E-02  0.1003718E+00
         21   -1    0    0  501  502  0.00000000000E+00  0.00000000000E+00  0.13408562692E+04  0.13408562692E+04  0.00000000000E+00 0.  1.
         21   -1    0    0  502  503 -0.00000000000E+00 -0.00000000000E+00 -0.27634804777E+03  0.27634804777E+03  0.00000000000E+00 0.  1.
    9000007    1    1    2  501    0 -0.46882424880E+02  0.36046852835E+03  0.90421250121E+03  0.10534399694E+04  0.40000000000E+03 0.  1.
   -9000007    1    1    2    0  503  0.46882424880E+02 -0.36046852835E+03  0.16029572018E+03  0.56376434758E+03  0.40000000000E+03 0.  1.
<mgrwt>
<rscale>  2 0.54049563E+03</rscale>
<asrwt>0</asrwt>
<pdfrwt beam="1">  1       21 0.20628558E+00 0.54049563E+03</pdfrwt>
<pdfrwt beam="2">  1       21 0.42515085E-01 0.54049563E+03</pdfrwt>
<totfact> 0.51515740E+02</totfact>
</mgrwt>
</event>
<event>
 4    1  0.4863180E-002  0.4025881E+03  0.7818608E-02  0.1042887E+00
         21   -1    0    0  503  502  0.00000000000E+00  0.00000000000E+00  0.30563683863E+03  0.30563683863E+03  0.00000000000E+00 0.  1.
         21   -1    0    0  501  503 -0.00000000000E+00 -0.00000000000E+00 -0.54630483418E+03  0.54630483418E+03  0.00000000000E+00 0.  1.
    9000007    1    1    2  501    0 -0.17822177500E+02  0.41946884723E+02 -0.47408623303E+02  0.40536989123E+03  0.40000000000E+03 0.  1.
   -9000007    1    1    2    0  502  0.17822177500E+02 -0.41946884723E+02 -0.19325937224E+03  0.44657178159E+03  0.40000000000E+03 0.  1.
<mgrwt>
<rscale>  2 0.40258809E+03</rscale>
<asrwt>0</asrwt>
<pdfrwt beam="1">  1       21 0.47021052E-01 0.40258809E+03</pdfrwt>
<pdfrwt beam="2">  1       21 0.84046897E-01 0.40258809E+03</pdfrwt>
<totfact> 0.47530414E+03</totfact>
</mgrwt>
</event>
<event>
 4    1  0.4863180E-002  0.4121180E+03  0.7818608E-02  0.1039663E+00
         21   -1    0    0  503  502  0.00000000000E+00  0.00000000000E+00  0.13369223854E+03  0.13369223854E+03  0.00000000000E+00 0.  1.
         21   -1    0    0  501  503 -0.00000000000E+00 -0.00000000000E+00 -0.21303396715E+04  0.21303396715E+04  0.00000000000E+00 0.  1.
    9000007    1    1    2  501    0 -0.58624136749E+02  0.80027610174E+02 -0.27909870827E+03  0.49773215363E+03  0.40000000000E+03 0.  1.
   -9000007    1    1    2    0  502  0.58624136749E+02 -0.80027610174E+02 -0.17175487247E+04  0.17662997564E+04  0.40000000000E+03 0.  1.
<mgrwt>
<rscale>  2 0.41211795E+03</rscale>
<asrwt>0</asrwt>
<pdfrwt beam="1">  1       21 0.20568035E-01 0.41211795E+03</pdfrwt>
<pdfrwt beam="2">  1       21 0.32774459E+00 0.41211795E+03</pdfrwt>
<totfact> 0.41661660E+02</totfact>
</mgrwt>
</event>
<event>
 4    1  0.4863180E-002  0.5689569E+03  0.7818608E-02  0.9971990E-01
         21   -1    0    0  503  502  0.00000000000E+00  0.00000000000E+00  0.51984757816E+03  0.51984757816E+03  0.00000000000E+00 0. -1.
         21   -1    0    0  501  503 -0.00000000000E+00 -0.00000000000E+00 -0.12300372635E+04  0.12300372635E+04  0.00000000000E+00 0. -1.
    9000007    1    1    2  501    0  0.40295250982E+03  0.36622301964E+02 -0.96989413105E+03  0.11244583334E+04  0.40000000000E+03 0. -1.
   -9000007    1    1    2    0  502 -0.40295250982E+03 -0.36622301964E+02  0.25970444566E+03  0.62542650829E+03  0.40000000000E+03 0. -1.
<mgrwt>
<rscale>  2 0.56895687E+03</rscale>
<asrwt>0</asrwt>
<pdfrwt beam="1">  1       21 0.79976550E-01 0.56895687E+03</pdfrwt>
<pdfrwt beam="2">  1       21 0.18923650E+00 0.56895687E+03</pdfrwt>
<totfact> 0.16588051E+02</totfact>
</mgrwt>
</event>
<event>
 4    1  0.4863180E-002  0.4381983E+03  0.7818608E-02  0.1031301E+00
         21   -1    0    0  503  502  0.00000000000E+00  0.00000000000E+00  0.40535143687E+03  0.40535143687E+03  0.00000000000E+00 0. -1.
         21   -1    0    0  501  503 -0.00000000000E+00 -0.00000000000E+00 -0.51006391417E+03  0.51006391417E+03  0.00000000000E+00 0.  1.
    9000007    1    1    2  501    0  0.17601527285E+02 -0.17806731799E+03 -0.17455585414E+03  0.47168583794E+03  0.40000000000E+03 0.  1.
   -9000007    1    1    2    0  502 -0.17601527285E+02  0.17806731799E+03  0.69843376846E+02  0.44372951309E+03  0.40000000000E+03 0. -1.
<mgrwt>
<rscale>  2 0.43819834E+03</rscale>
<asrwt>0</asrwt>
<pdfrwt beam="1">  1       21 0.62361760E-01 0.43819834E+03</pdfrwt>
<pdfrwt beam="2">  1       21 0.78471371E-01 0.43819834E+03</pdfrwt>
<totfact> 0.29950030E+03</totfact>
</mgrwt>
</event>
<event>
 4    1  0.4863180E-002  0.4184182E+03  0.7818608E-02  0.1037582E+00
         21   -1    0    0  503  502  0.00000000000E+00  0.00000000000E+00  0.21860727745E+03  0.21860727745E+03  0.00000000000E+00 0. -1.
         21   -1    0    0  501  503 -0.00000000000E+00 -0.00000000000E+00 -0.18628416673E+04  0.18628416673E+04  0.00000000000E+00 0. -1.
    9000007    1    1    2  501    0 -0.19416330940E+02 -0.12123033162E+03 -0.16079069091E+04  0.16614567150E+04  0.40000000000E+03 0. -1.
   -9000007    1    1    2    0  502  0.19416330940E+02  0.12123033162E+03 -0.36327480680E+02  0.41999222977E+03  0.40000000000E+03 0. -1.
<mgrwt>
<rscale>  2 0.41841820E+03</rscale>
<asrwt>0</asrwt>
<pdfrwt beam="1">  1       21 0.33631888E-01 0.41841820E+03</pdfrwt>
<pdfrwt beam="2">  1       21 0.28659103E+00 0.41841820E+03</pdfrwt>
<totfact> 0.28019993E+02</totfact>
</mgrwt>
</event>
<event>
 4    1  0.4863180E-002  0.4609552E+03  0.7818608E-02  0.1024505E+00
         21   -1    0    0  501  502  0.00000000000E+00  0.00000000000E+00  0.49708771420E+03  0.49708771420E+03  0.00000000000E+00 0.  1.
         21   -1    0    0  502  503 -0.00000000000E+00 -0.00000000000E+00 -0.96591675993E+03  0.96591675993E+03  0.00000000000E+00 0. -1.
    9000007    1    1    2  501    0  0.92444953055E+02  0.20960353176E+03  0.31175266950E+03  0.55647950260E+03  0.40000000000E+03 0.  1.
   -9000007    1    1    2    0  503 -0.92444953055E+02 -0.20960353176E+03 -0.78058171523E+03  0.90652497154E+03  0.40000000000E+03 0. -1.
<mgrwt>
<rscale>  2 0.46095521E+03</rscale>
<asrwt>0</asrwt>
<pdfrwt beam="1">  1       21 0.76475034E-01 0.46095521E+03</pdfrwt>
<pdfrwt beam="2">  1       21 0.14860258E+00 0.46095521E+03</pdfrwt>
<totfact> 0.38439442E+02</totfact>
</mgrwt>
</event>
<event>
 4    1  0.4863180E-002  0.4234368E+03  0.7818608E-02  0.1035954E+00
         21   -1    0    0  501  502  0.00000000000E+00  0.00000000000E+00  0.57617122744E+03  0.57617122744E+03  0.00000000000E+00 0.  1.
         21   -1    0    0  502  503 -0.00000000000E+00 -0.00000000000E+00 -0.90296290607E+03  0.90296290607E+03  0.00000000000E+00 0.  1.
    9000007    1    1    2  501    0  0.85105011883E+02  0.10979908080E+03  0.43531919261E+03  0.60729029356E+03  0.40000000000E+03 0.  1.
   -9000007    1    1    2    0  503 -0.85105011883E+02 -0.10979908080E+03 -0.76211087124E+03  0.87184383995E+03  0.40000000000E+03 0.  1.
<mgrwt>
<rscale>  2 0.42343677E+03</rscale>
<asrwt>0</asrwt>
<pdfrwt beam="1">  1       21 0.88641727E-01 0.42343677E+03</pdfrwt>
<pdfrwt beam="2">  1       21 0.13891737E+00 0.42343677E+03</pdfrwt>
<totfact> 0.33280994E+02</totfact>
</mgrwt>
</event>
<event>
 4    1  0.4863180E-002  0.7055042E+03  0.7818608E-02  0.9707865E-01
         21   -1    0    0  501  502  0.00000000000E+00  0.00000000000E+00  0.13406784383E+04  0.13406784383E+04  0.00000000000E+00 0.  1.
         21   -1    0    0  502  503 -0.00000000000E+00 -0.00000000000E+00 -0.37274147424E+03  0.37274147424E+03  0.00000000000E+00 0.  1.
    9000007    1    1    2  501    0  0.52670268844E+03 -0.24560216767E+03  0.53803496146E+03  0.88725293267E+03  0.40000000000E+03 0.  1.
   -9000007    1    1    2    0  503 -0.52670268844E+03  0.24560216767E+03  0.42990200256E+03  0.82616697984E+03  0.40000000000E+03 0.  1.
<mgrwt>
<rscale>  2 0.70550418E+03</rscale>
<asrwt>0</asrwt>
<pdfrwt beam="1">  1       21 0.20625822E+00 0.70550418E+03</pdfrwt>
<pdfrwt beam="2">  1       21 0.57344843E-01 0.70550418E+03</pdfrwt>
<totfact> 0.25606705E+02</totfact>
</mgrwt>
</event>
<event>
 4    1  0.4863180E-002  0.7512936E+03  0.7818608E-02  0.9633323E-01
         21   -1    0    0  501  502  0.00000000000E+00  0.00000000000E+00  0.79498704550E+03  0.79498704550E+03  0.00000000000E+00 0.  1.
         21   -1    0    0  502  503 -0.00000000000E+00 -0.00000000000E+00 -0.79388272760E+03  0.79388272760E+03  0.00000000000E+00 0. -1.
    9000007    1    1    2  501    0  0.63184548275E+03  0.72203813609E+02  0.25878540920E+03  0.79461436734E+03  0.40000000000E+03 0.  1.
   -9000007    1    1    2    0  503 -0.63184548275E+03 -0.72203813609E+02 -0.25768109130E+03  0.79425540576E+03  0.40000000000E+03 0. -1.
<mgrwt>
<rscale>  2 0.75129362E+03</rscale>
<asrwt>0</asrwt>
<pdfrwt beam="1">  1       21 0.12230570E+00 0.75129362E+03</pdfrwt>
<pdfrwt beam="2">  1       21 0.12213580E+00 0.75129362E+03</pdfrwt>
<totfact> 0.18583917E+02</totfact>
</mgrwt>
</event>
<event>
 4    1  0.4863180E-002  0.4148872E+03  0.7818608E-02  0.1038743E+00
         21   -1    0    0  501  502  0.00000000000E+00  0.00000000000E+00  0.44571346015E+03  0.44571346015E+03  0.00000000000E+00 0. -1.
         21   -1    0    0  502  503 -0.00000000000E+00 -0.00000000000E+00 -0.47350546672E+03  0.47350546672E+03  0.00000000000E+00 0. -1.
    9000007    1    1    2  501    0 -0.62079654462E+02  0.90980802598E+02  0.18346654814E+03  0.45364233073E+03  0.40000000000E+03 0. -1.
   -9000007    1    1    2    0  503  0.62079654462E+02 -0.90980802598E+02 -0.21125855471E+03  0.46557659614E+03  0.40000000000E+03 0. -1.
<mgrwt>
<rscale>  2 0.41488720E+03</rscale>
<asrwt>0</asrwt>
<pdfrwt beam="1">  1       21 0.68571302E-01 0.41488720E+03</pdfrwt>
<pdfrwt beam="2">  1       21 0.72846995E-01 0.41488720E+03</pdfrwt>
<totfact> 0.28992293E+03</totfact>
</mgrwt>
</event>
<event>
 4    1  0.4863180E-002  0.4154784E+03  0.7818608E-02  0.1038548E+00
         21   -1    0    0  501  502  0.00000000000E+00  0.00000000000E+00  0.14180334655E+03  0.14180334655E+03  0.00000000000E+00 0.  1.
         21   -1    0    0  502  503 -0.00000000000E+00 -0.00000000000E+00 -0.12321133699E+04  0.12321133699E+04  0.00000000000E+00 0.  1.
    9000007    1    1    2  501    0  0.11210809845E+03 -0.73557704934E+01 -0.62038693324E+03  0.74666075297E+03  0.40000000000E+03 0.  1.
   -9000007    1    1    2    0  503 -0.11210809845E+03  0.73557704934E+01 -0.46992309015E+03  0.62725596350E+03  0.40000000000E+03 0.  1.
<mgrwt>
<rscale>  2 0.41547844E+03</rscale>
<asrwt>0</asrwt>
<pdfrwt beam="1">  1       21 0.21815900E-01 0.41547844E+03</pdfrwt>
<pdfrwt beam="2">  1       21 0.18955589E+00 0.41547844E+03</pdfrwt>
<totfact> 0.26634311E+03</totfact>
</mgrwt>
</event>
<event>
 4    1  0.4863180E-002  0.4066848E+03  0.7818608E-02  0.1041489E+00
         21   -1    0    0  501  502  0.00000000000E+00  0.00000000000E+00  0.13340456441E+04  0.13340456441E+04  0.00000000000E+00 0. -1.
         21   -1    0    0  502  503 -0.00000000000E+00 -0.00000000000E+00 -0.37100785203E+03  0.37100785203E+03  0.00000000000E+00 0. -1.
    9000007    1    1    2  501    0 -0.19013403424E+02  0.70929824265E+02  0.11771692736E+04  0.12454397008E+04  0.40000000000E+03 0. -1.
   -9000007    1    1    2    0  503  0.19013403424E+02 -0.70929824265E+02 -0.21413148156E+03  0.45961379535E+03  0.40000000000E+03 0. -1.
<mgrwt>
<rscale>  2 0.40668483E+03</rscale>
<asrwt>0</asrwt>
<pdfrwt beam="1">  1       21 0.20523779E+00 0.40668483E+03</pdfrwt>
<pdfrwt beam="2">  1       21 0.57078132E-01 0.40668483E+03</pdfrwt>
<totfact> 0.29857254E+02</totfact>
</mgrwt>
</event>
<event>
 4    1  0.4863180E-002  0.4349715E+03  0.7818608E-02  0.1032301E+00
         21   -1    0    0  503  502  0.00000000000E+00  0.00000000000E+00  0.20703151847E+03  0.20703151847E+03  0.00000000000E+00 0.  1.
         21   -1    0    0  501  503 -0.00000000000E+00 -0.00000000000E+00 -0.21848003892E+04  0.21848003892E+04  0.00000000000E+00 0. -1.
    9000007    1    1    2  501    0 -0.12460371241E+02  0.17042574810E+03 -0.19010116413E+04  0.19501398558E+04  0.40000000000E+03 0. -1.
   -9000007    1    1    2    0  502  0.12460371241E+02 -0.17042574810E+03 -0.76757229387E+02  0.44169205192E+03  0.40000000000E+03 0.  1.
<mgrwt>
<rscale>  2 0.43497149E+03</rscale>
<asrwt>0</asrwt>
<pdfrwt beam="1">  1       21 0.31851001E-01 0.43497149E+03</pdfrwt>
<pdfrwt beam="2">  1       21 0.33612315E+00 0.43497149E+03</pdfrwt>
<totfact> 0.15565954E+02</totfact>
</mgrwt>
</event>
<event>
 4    1  0.4863180E-002  0.4053618E+03  0.7818608E-02  0.1041939E+00
         21   -1    0    0  503  502  0.00000000000E+00  0.00000000000E+00  0.31763165595E+03  0.31763165595E+03  0.00000000000E+00 0. -1.
         21   -1    0    0  501  503 -0.00000000000E+00 -0.00000000000E+00 -0.55318059270E+03  0.55318059270E+03  0.00000000000E+00 0. -1.
    9000007    1    1    2  501    0  0.65087352568E+02 -0.90477943602E+01 -0.69207173007E+01  0.40542092000E+03  0.40000000000E+03 0.  1.
   -9000007    1    1    2    0  502 -0.65087352568E+02  0.90477943602E+01 -0.22862821945E+03  0.46539132865E+03  0.40000000000E+03 0.  1.
<mgrwt>
<rscale>  2 0.40536185E+03</rscale>
<asrwt>0</asrwt>
<pdfrwt beam="1">  1       21 0.48866409E-01 0.40536185E+03</pdfrwt>
<pdfrwt beam="2">  1       21 0.85104706E-01 0.40536185E+03</pdfrwt>
<totfact> 0.42519833E+03</totfact>
</mgrwt>
</event>
<event>
 4    1  0.4863180E-002  0.4460976E+03  0.7818608E-02  0.1028892E+00
         21   -1    0    0  503  502  0.00000000000E+00  0.00000000000E+00  0.86759548183E+02  0.86759548183E+02  0.00000000000E+00 0.  1.
         21   -1    0    0  501  503 -0.00000000000E+00 -0.00000000000E+00 -0.23057020062E+04  0.23057020062E+04  0.00000000000E+00 0.  1.
    9000007    1    1    2  501    0  0.16275071206E+03 -0.11187178276E+03 -0.10232779271E+04  0.11162888543E+04  0.40000000000E+03 0.  1.
   -9000007    1    1    2    0  502 -0.16275071206E+03  0.11187178276E+03 -0.11956645309E+04  0.12761727001E+04  0.40000000000E+03 0.  1.
<mgrwt>
<rscale>  2 0.44609762E+03</rscale>
<asrwt>0</asrwt>
<pdfrwt beam="1">  1       21 0.13347623E-01 0.44609762E+03</pdfrwt>
<pdfrwt beam="2">  1       21 0.35472339E+00 0.44609762E+03</pdfrwt>
<totfact> 0.62711893E+02</totfact>
</mgrwt>
</event>
<event>
 4    1  0.4863180E-002  0.5895278E+03  0.7818608E-02  0.9927374E-01
         21   -1    0    0  501  502  0.00000000000E+00  0.00000000000E+00  0.70715187326E+03  0.70715187326E+03  0.00000000000E+00 0. -1.
         21   -1    0    0  502  503 -0.00000000000E+00 -0.00000000000E+00 -0.49551623338E+03  0.49551623338E+03  0.00000000000E+00 0. -1.
    9000007    1    1    2  501    0  0.40527092701E+03 -0.15263865556E+03  0.51470686353E+02  0.59177049183E+03  0.40000000000E+03 0. -1.
   -9000007    1    1    2    0  503 -0.40527092701E+03  0.15263865556E+03  0.16016495352E+03  0.61089761481E+03  0.40000000000E+03 0. -1.
<mgrwt>
<rscale>  2 0.58952785E+03</rscale>
<asrwt>0</asrwt>
<pdfrwt beam="1">  1       21 0.10879260E+00 0.58952785E+03</pdfrwt>
<pdfrwt beam="2">  1       21 0.76233267E-01 0.58952785E+03</pdfrwt>
<totfact> 0.82783542E+02</totfact>
</mgrwt>
</event>
<event>
 4    1  0.4863180E-002  0.4205754E+03  0.7818608E-02  0.1036879E+00
         21   -1    0    0  501  502  0.00000000000E+00  0.00000000000E+00  0.84101040027E+03  0.84101040027E+03  0.00000000000E+00 0. -1.
         21   -1    0    0  502  503 -0.00000000000E+00 -0.00000000000E+00 -0.22492777277E+03  0.22492777277E+03  0.00000000000E+00 0. -1.
    9000007    1    1    2  501    0 -0.31562600518E+02  0.12604559755E+03  0.17223174959E+03  0.45447493438E+03  0.40000000000E+03 0. -1.
   -9000007    1    1    2    0  503  0.31562600518E+02 -0.12604559755E+03  0.44385087791E+03  0.61146323866E+03  0.40000000000E+03 0. -1.
<mgrwt>
<rscale>  2 0.42057543E+03</rscale>
<asrwt>0</asrwt>
<pdfrwt beam="1">  1       21 0.12938621E+00 0.42057543E+03</pdfrwt>
<pdfrwt beam="2">  1       21 0.34604273E-01 0.42057543E+03</pdfrwt>
<totfact> 0.30847884E+03</totfact>
</mgrwt>
</event>
<event>
 4    1  0.4863180E-002  0.4296388E+03  0.7818608E-02  0.1033974E+00
         21   -1    0    0  503  502  0.00000000000E+00  0.00000000000E+00  0.11320045697E+04  0.11320045697E+04  0.00000000000E+00 0. -1.
         21   -1    0    0  501  503 -0.00000000000E+00 -0.00000000000E+00 -0.21440140758E+03  0.21440140758E+03  0.00000000000E+00 0. -1.
    9000007    1    1    2  501    0 -0.53999232019E+02  0.14721945421E+03  0.12938299664E+03  0.44869749785E+03  0.40000000000E+03 0. -1.
   -9000007    1    1    2    0  502  0.53999232019E+02 -0.14721945421E+03  0.78822016548E+03  0.89770847942E+03  0.40000000000E+03 0. -1.
<mgrwt>
<rscale>  2 0.42963878E+03</rscale>
<asrwt>0</asrwt>
<pdfrwt beam="1">  1       21 0.17415455E+00 0.42963878E+03</pdfrwt>
<pdfrwt beam="2">  1       21 0.32984833E-01 0.42963878E+03</pdfrwt>
<totfact> 0.15087504E+03</totfact>
</mgrwt>
</event>
<event>
 4    1  0.4863180E-002  0.4165582E+03  0.7818608E-02  0.1038192E+00
         21   -1    0    0  501  502  0.00000000000E+00  0.00000000000E+00  0.18092501638E+03  0.18092501638E+03  0.00000000000E+00 0. -1.
         21   -1    0    0  502  503 -0.00000000000E+00 -0.00000000000E+00 -0.10812362105E+04  0.10812362105E+04  0.00000000000E+00 0. -1.
    9000007    1    1    2  501    0  0.88039473800E+02  0.75959297852E+02 -0.66227978466E+03  0.78239074448E+03  0.40000000000E+03 0. -1.
   -9000007    1    1    2    0  503 -0.88039473800E+02 -0.75959297852E+02 -0.23803140942E+03  0.47977048236E+03  0.40000000000E+03 0. -1.
<mgrwt>
<rscale>  2 0.41655824E+03</rscale>
<asrwt>0</asrwt>
<pdfrwt beam="1">  1       21 0.27834618E-01 0.41655824E+03</pdfrwt>
<pdfrwt beam="2">  1       21 0.16634403E+00 0.41655824E+03</pdfrwt>
<totfact> 0.24222064E+03</totfact>
</mgrwt>
</event>
<event>
 4    1  0.4863180E-002  0.4455672E+03  0.7818608E-02  0.1029052E+00
         21   -1    0    0  501  502  0.00000000000E+00  0.00000000000E+00  0.27673619664E+03  0.27673619664E+03  0.00000000000E+00 0.  1.
         21   -1    0    0  502  503 -0.00000000000E+00 -0.00000000000E+00 -0.73906673064E+03  0.73906673064E+03  0.00000000000E+00 0.  1.
    9000007    1    1    2  501    0 -0.19281306319E+03 -0.36786243425E+02 -0.31813143863E+03  0.54748307489E+03  0.40000000000E+03 0.  1.
   -9000007    1    1    2    0  503  0.19281306319E+03  0.36786243425E+02 -0.14419909536E+03  0.46831985239E+03  0.40000000000E+03 0.  1.
<mgrwt>
<rscale>  2 0.44556717E+03</rscale>
<asrwt>0</asrwt>
<pdfrwt beam="1">  1       21 0.42574800E-01 0.44556717E+03</pdfrwt>
<pdfrwt beam="2">  1       21 0.11370257E+00 0.44556717E+03</pdfrwt>
<totfact> 0.27771005E+03</totfact>
</mgrwt>
</event>
<event>
 4    1  0.4863180E-002  0.7238330E+03  0.7818608E-02  0.9677321E-01
         21   -1    0    0  501  502  0.00000000000E+00  0.00000000000E+00  0.58527484996E+03  0.58527484996E+03  0.00000000000E+00 0. -1.
         21   -1    0    0  502  503 -0.00000000000E+00 -0.00000000000E+00 -0.12428439648E+04  0.12428439648E+04  0.00000000000E+00 0.  1.
    9000007    1    1    2  501    0 -0.40232653310E+03  0.44951922677E+03  0.15464989486E+03  0.74016941604E+03  0.40000000000E+03 0. -1.
   -9000007    1    1    2    0  503  0.40232653310E+03 -0.44951922677E+03 -0.81221900971E+03  0.10879493987E+04  0.40000000000E+03 0.  1.
<mgrwt>
<rscale>  2 0.72383297E+03</rscale>
<asrwt>0</asrwt>
<pdfrwt beam="1">  1       21 0.90042286E-01 0.72383297E+03</pdfrwt>
<pdfrwt beam="2">  1       21 0.19120676E+00 0.72383297E+03</pdfrwt>
<totfact> 0.11471807E+02</totfact>
</mgrwt>
</event>
<event>
 4    1  0.4863180E-002  0.4933378E+03  0.7818608E-02  0.1015533E+00
         21   -1    0    0  501  502  0.00000000000E+00  0.00000000000E+00  0.90448617926E+03  0.90448617926E+03  0.00000000000E+00 0. -1.
         21   -1    0    0  502  503 -0.00000000000E+00 -0.00000000000E+00 -0.27441890890E+03  0.27441890890E+03  0.00000000000E+00 0.  1.
    9000007    1    1    2  501    0 -0.38447747042E+02 -0.28618858823E+03  0.23284092279E+03  0.54552454813E+03  0.40000000000E+03 0. -1.
   -9000007    1    1    2    0  503  0.38447747042E+02  0.28618858823E+03  0.39722634757E+03  0.63338054003E+03  0.40000000000E+03 0.  1.
<mgrwt>
<rscale>  2 0.49333775E+03</rscale>
<asrwt>0</asrwt>
<pdfrwt beam="1">  1       21 0.13915172E+00 0.49333775E+03</pdfrwt>
<pdfrwt beam="2">  1       21 0.42218294E-01 0.49333775E+03</pdfrwt>
<totfact> 0.16503620E+03</totfact>
</mgrwt>
</event>
<event>
 4    1  0.4863180E-002  0.4243297E+03  0.7818608E-02  0.1035666E+00
         21   -1    0    0  503  502  0.00000000000E+00  0.00000000000E+00  0.10843413902E+04  0.10843413902E+04  0.00000000000E+00 0.  1.
         21   -1    0    0  501  503 -0.00000000000E+00 -0.00000000000E+00 -0.16613649293E+03  0.16613649293E+03  0.00000000000E+00 0.  1.
    9000007    1    1    2  501    0 -0.88381442487E+02 -0.11065455984E+03  0.47330575849E+03  0.63566819333E+03  0.40000000000E+03 0. -1.
   -9000007    1    1    2    0  502  0.88381442487E+02  0.11065455984E+03  0.44489913879E+03  0.61480968981E+03  0.40000000000E+03 0. -1.
<mgrwt>
<rscale>  2 0.42432972E+03</rscale>
<asrwt>0</asrwt>
<pdfrwt beam="1">  1       21 0.16682175E+00 0.42432972E+03</pdfrwt>
<pdfrwt beam="2">  1       21 0.25559461E-01 0.42432972E+03</pdfrwt>
<totfact> 0.28298422E+03</totfact>
</mgrwt>
</event>
<event>
 4    1  0.4863180E-002  0.4756757E+03  0.7818608E-02  0.1020330E+00
         21   -1    0    0  501  502  0.00000000000E+00  0.00000000000E+00  0.70267212573E+03  0.70267212573E+03  0.00000000000E+00 0. -1.
         21   -1    0    0  502  503 -0.00000000000E+00 -0.00000000000E+00 -0.49890760026E+03  0.49890760026E+03  0.00000000000E+00 0. -1.
    9000007    1    1    2  501    0  0.25328366597E+03  0.45986168021E+02  0.45962736432E+03  0.66145646654E+03  0.40000000000E+03 0. -1.
   -9000007    1    1    2    0  503 -0.25328366597E+03 -0.45986168021E+02 -0.25586283885E+03  0.54012325945E+03  0.40000000000E+03 0. -1.
<mgrwt>
<rscale>  2 0.47567567E+03</rscale>
<asrwt>0</asrwt>
<pdfrwt beam="1">  1       21 0.10810340E+00 0.47567567E+03</pdfrwt>
<pdfrwt beam="2">  1       21 0.76755015E-01 0.47567567E+03</pdfrwt>
<totfact> 0.86202767E+02</totfact>
</mgrwt>
</event>
<event>
 4    1  0.4863180E-002  0.6706336E+03  0.7818608E-02  0.9768814E-01
         21   -1    0    0  503  502  0.00000000000E+00  0.00000000000E+00  0.30820308997E+03  0.30820308997E+03  0.00000000000E+00 0.  1.
         21   -1    0    0  501  503 -0.00000000000E+00 -0.00000000000E+00 -0.15093704797E+04  0.15093704797E+04  0.00000000000E+00 0. -1.
    9000007    1    1    2  501    0 -0.14423432835E+03 -0.51859997032E+03 -0.76616598333E+03  0.10182140171E+04  0.40000000000E+03 0. -1.
   -9000007    1    1    2    0  502  0.14423432835E+03  0.51859997032E+03 -0.43500140643E+03  0.79935955257E+03  0.40000000000E+03 0.  1.
<mgrwt>
<rscale>  2 0.67063363E+03</rscale>
<asrwt>0</asrwt>
<pdfrwt beam="1">  1       21 0.47415860E-01 0.67063363E+03</pdfrwt>
<pdfrwt beam="2">  1       21 0.23221084E+00 0.67063363E+03</pdfrwt>
<totfact> 0.26456764E+02</totfact>
</mgrwt>
</event>
<event>
 4    1  0.4863180E-002  0.4265137E+03  0.7818608E-02  0.1034967E+00
         21   -1    0    0  503  502  0.00000000000E+00  0.00000000000E+00  0.74359883786E+03  0.74359883786E+03  0.00000000000E+00 0.  1.
         21   -1    0    0  501  503 -0.00000000000E+00 -0.00000000000E+00 -0.26351865780E+03  0.26351865780E+03  0.00000000000E+00 0.  1.
    9000007    1    1    2  501    0  0.12282968560E+03  0.82624266449E+02  0.10525810380E+03  0.43930987866E+03  0.40000000000E+03 0.  1.
   -9000007    1    1    2    0  502 -0.12282968560E+03 -0.82624266449E+02  0.37482207627E+03  0.56780761700E+03  0.40000000000E+03 0.  1.
<mgrwt>
<rscale>  2 0.42651366E+03</rscale>
<asrwt>0</asrwt>
<pdfrwt beam="1">  1       21 0.11439982E+00 0.42651366E+03</pdfrwt>
<pdfrwt beam="2">  1       21 0.40541332E-01 0.42651366E+03</pdfrwt>
<totfact> 0.30483587E+03</totfact>
</mgrwt>
</event>
<event>
 4    1  0.4863180E-002  0.4503583E+03  0.7818608E-02  0.1027615E+00
         21   -1    0    0  501  502  0.00000000000E+00  0.00000000000E+00  0.18995302311E+04  0.18995302311E+04  0.00000000000E+00 0.  1.
         21   -1    0    0  502  503 -0.00000000000E+00 -0.00000000000E+00 -0.16189056544E+03  0.16189056544E+03  0.00000000000E+00 0.  1.
    9000007    1    1    2  501    0 -0.16490438998E+03  0.12501671146E+03  0.14702184263E+04  0.15376491333E+04  0.40000000000E+03 0.  1.
   -9000007    1    1    2    0  503  0.16490438998E+03 -0.12501671146E+03  0.26742123932E+03  0.52377166325E+03  0.40000000000E+03 0.  1.
<mgrwt>
<rscale>  2 0.45035834E+03</rscale>
<asrwt>0</asrwt>
<pdfrwt beam="1">  1       21 0.29223540E+00 0.45035834E+03</pdfrwt>
<pdfrwt beam="2">  1       21 0.24906242E-01 0.45035834E+03</pdfrwt>
<totfact> 0.46051134E+02</totfact>
</mgrwt>
</event>
<event>
 4    1  0.4863180E-002  0.4162933E+03  0.7818608E-02  0.1038280E+00
         21   -1    0    0  503  502  0.00000000000E+00  0.00000000000E+00  0.13100871275E+04  0.13100871275E+04  0.00000000000E+00 0. -1.
         21   -1    0    0  501  503 -0.00000000000E+00 -0.00000000000E+00 -0.13228720245E+03  0.13228720245E+03  0.00000000000E+00 0. -1.
    9000007    1    1    2  501    0  0.57724037881E+02  0.99840002051E+02  0.58410206207E+03  0.71726934235E+03  0.40000000000E+03 0. -1.
   -9000007    1    1    2    0  502 -0.57724037881E+02 -0.99840002051E+02  0.59369786301E+03  0.72510498764E+03  0.40000000000E+03 0. -1.
<mgrwt>
<rscale>  2 0.41629327E+03</rscale>
<asrwt>0</asrwt>
<pdfrwt beam="1">  1       21 0.20155186E+00 0.41629327E+03</pdfrwt>
<pdfrwt beam="2">  1       21 0.20351878E-01 0.41629327E+03</pdfrwt>
<totfact> 0.25247948E+03</totfact>
</mgrwt>
</event>
<event>
 4    1  0.4863180E-002  0.4765439E+03  0.7818608E-02  0.1020089E+00
         21   -1    0    0  503  502  0.00000000000E+00  0.00000000000E+00  0.27241503735E+03  0.27241503735E+03  0.00000000000E+00 0.  1.
         21   -1    0    0  501  503 -0.00000000000E+00 -0.00000000000E+00 -0.91304837274E+03  0.91304837274E+03  0.00000000000E+00 0.  1.
    9000007    1    1    2  501    0  0.58637218614E+02 -0.25230092741E+03 -0.49512591052E+03  0.68719993353E+03  0.40000000000E+03 0.  1.
   -9000007    1    1    2    0  502 -0.58637218614E+02  0.25230092741E+03 -0.14550742487E+03  0.49826347656E+03  0.40000000000E+03 0.  1.
<mgrwt>
<rscale>  2 0.47654389E+03</rscale>
<asrwt>0</asrwt>
<pdfrwt beam="1">  1       21 0.41910006E-01 0.47654389E+03</pdfrwt>
<pdfrwt beam="2">  1       21 0.14046898E+00 0.47654389E+03</pdfrwt>
<totfact> 0.16444047E+03</totfact>
</mgrwt>
</event>
<event>
 4    1  0.4863180E-002  0.8966886E+03  0.7818608E-02  0.9429730E-01
         21   -1    0    0  501  502  0.00000000000E+00  0.00000000000E+00  0.45214430918E+03  0.45214430918E+03  0.00000000000E+00 0.  1.
         21   -1    0    0  502  503 -0.00000000000E+00 -0.00000000000E+00 -0.23083920604E+04  0.23083920604E+04  0.00000000000E+00 0. -1.
    9000007    1    1    2  501    0 -0.38733837472E+03  0.70286513301E+03 -0.26669620390E+03  0.93550910038E+03  0.40000000000E+03 0.  1.
   -9000007    1    1    2    0  503  0.38733837472E+03 -0.70286513301E+03 -0.15895515473E+04  0.18250272692E+04  0.40000000000E+03 0. -1.
<mgrwt>
<rscale>  2 0.89668858E+03</rscale>
<asrwt>0</asrwt>
<pdfrwt beam="1">  1       21 0.69560662E-01 0.89668858E+03</pdfrwt>
<pdfrwt beam="2">  1       21 0.35513725E+00 0.89668858E+03</pdfrwt>
<totfact> 0.18051753E+01</totfact>
</mgrwt>
</event>
<event>
 4    1  0.4863180E-002  0.5426488E+03  0.7818608E-02  0.1003210E+00
         21   -1    0    0  501  502  0.00000000000E+00  0.00000000000E+00  0.66531716599E+03  0.66531716599E+03  0.00000000000E+00 0.  1.
         21   -1    0    0  502  503 -0.00000000000E+00 -0.00000000000E+00 -0.44421788539E+03  0.44421788539E+03  0.00000000000E+00 0. -1.
    9000007    1    1    2  501    0 -0.23944753074E+03  0.27772757443E+03  0.77043846272E+02  0.54809075874E+03  0.40000000000E+03 0. -1.
   -9000007    1    1    2    0  503  0.23944753074E+03 -0.27772757443E+03  0.14405543433E+03  0.56144429263E+03  0.40000000000E+03 0.  1.
<mgrwt>
<rscale>  2 0.54264881E+03</rscale>
<asrwt>0</asrwt>
<pdfrwt beam="1">  1       21 0.10235649E+00 0.54264881E+03</pdfrwt>
<pdfrwt beam="2">  1       21 0.68341213E-01 0.54264881E+03</pdfrwt>
<totfact> 0.12538358E+03</totfact>
</mgrwt>
</event>
<event>
 4    1  0.4863180E-002  0.4034525E+03  0.7818608E-02  0.1042591E+00
         21   -1    0    0  501  502  0.00000000000E+00  0.00000000000E+00  0.15102504762E+04  0.15102504762E+04  0.00000000000E+00 0. -1.
         21   -1    0    0  502  503 -0.00000000000E+00 -0.00000000000E+00 -0.22894058970E+03  0.22894058970E+03  0.00000000000E+00 0. -1.
    9000007    1    1    2  501    0 -0.48400401460E+02  0.20767520662E+02  0.12732672957E+04  0.13356584500E+04  0.40000000000E+03 0. -1.
   -9000007    1    1    2    0  503  0.48400401460E+02 -0.20767520662E+02  0.80425907491E+01  0.40353261583E+03  0.40000000000E+03 0. -1.
<mgrwt>
<rscale>  2 0.40345246E+03</rscale>
<asrwt>0</asrwt>
<pdfrwt beam="1">  1       21 0.23234622E+00 0.40345246E+03</pdfrwt>
<pdfrwt beam="2">  1       21 0.35221630E-01 0.40345246E+03</pdfrwt>
<totfact> 0.55082713E+02</totfact>
</mgrwt>
</event>
<event>
 4    1  0.4863180E-002  0.5309143E+03  0.7818608E-02  0.1006011E+00
         21   -1    0    0  501  502  0.00000000000E+00  0.00000000000E+00  0.70392974911E+03  0.70392974911E+03  0.00000000000E+00 0. -1.
         21   -1    0    0  502  503 -0.00000000000E+00 -0.00000000000E+00 -0.50038313598E+03  0.50038313598E+03  0.00000000000E+00 0. -1.
    9000007    1    1    2  501    0 -0.80257392030E+02  0.33974801112E+03  0.37090850756E+03  0.64764425498E+03  0.40000000000E+03 0. -1.
   -9000007    1    1    2    0  503  0.80257392030E+02 -0.33974801112E+03 -0.16736189443E+03  0.55666863010E+03  0.40000000000E+03 0. -1.
<mgrwt>
<rscale>  2 0.53091427E+03</rscale>
<asrwt>0</asrwt>
<pdfrwt beam="1">  1       21 0.10829688E+00 0.53091427E+03</pdfrwt>
<pdfrwt beam="2">  1       21 0.76982021E-01 0.53091427E+03</pdfrwt>
<totfact> 0.83496054E+02</totfact>
</mgrwt>
</event>
<event>
 4    1  0.4863180E-002  0.7064200E+03  0.7818608E-02  0.9706316E-01
         21   -1    0    0  501  502  0.00000000000E+00  0.00000000000E+00  0.38801399688E+03  0.38801399688E+03  0.00000000000E+00 0.  1.
         21   -1    0    0  502  503 -0.00000000000E+00 -0.00000000000E+00 -0.14570630727E+04  0.14570630727E+04  0.00000000000E+00 0. -1.
    9000007    1    1    2  501    0 -0.43598084245E+03  0.38594032889E+03 -0.21852824187E+03  0.73944832473E+03  0.40000000000E+03 0.  1.
   -9000007    1    1    2    0  503  0.43598084245E+03 -0.38594032889E+03 -0.85052083391E+03  0.11056287448E+04  0.40000000000E+03 0. -1.
<mgrwt>
<rscale>  2 0.70642001E+03</rscale>
<asrwt>0</asrwt>
<pdfrwt beam="1">  1       21 0.59694460E-01 0.70642001E+03</pdfrwt>
<pdfrwt beam="2">  1       21 0.22416355E+00 0.70642001E+03</pdfrwt>
<totfact> 0.17864761E+02</totfact>
</mgrwt>
</event>
<event>
 4    1  0.4863180E-002  0.4554344E+03  0.7818608E-02  0.1026114E+00
         21   -1    0    0  501  502  0.00000000000E+00  0.00000000000E+00  0.31031949060E+03  0.31031949060E+03  0.00000000000E+00 0.  1.
         21   -1    0    0  502  503 -0.00000000000E+00 -0.00000000000E+00 -0.14264059325E+04  0.14264059325E+04  0.00000000000E+00 0. -1.
    9000007    1    1    2  501    0 -0.49033082724E+02  0.21217034162E+03  0.74970578126E+02  0.46156373845E+03  0.40000000000E+03 0.  1.
   -9000007    1    1    2    0  503  0.49033082724E+02 -0.21217034162E+03 -0.11910570200E+04  0.12751616846E+04  0.40000000000E+03 0. -1.
<mgrwt>
<rscale>  2 0.45543440E+03</rscale>
<asrwt>0</asrwt>
<pdfrwt beam="1">  1       21 0.47741461E-01 0.45543440E+03</pdfrwt>
<pdfrwt beam="2">  1       21 0.21944706E+00 0.45543440E+03</pdfrwt>
<totfact> 0.34467707E+02</totfact>
</mgrwt>
</event>
<event>
 4    1  0.4863180E-002  0.4456206E+03  0.7818608E-02  0.1029036E+00
         21   -1    0    0  503  502  0.00000000000E+00  0.00000000000E+00  0.14204994739E+04  0.14204994739E+04  0.00000000000E+00 0. -1.
         21   -1    0    0  501  503 -0.00000000000E+00 -0.00000000000E+00 -0.18796057107E+03  0.18796057107E+03  0.00000000000E+00 0. -1.
    9000007    1    1    2  501    0 -0.96995097564E+02 -0.17079128242E+03  0.20915316617E+03  0.49226289523E+03  0.40000000000E+03 0. -1.
   -9000007    1    1    2    0  502  0.96995097564E+02  0.17079128242E+03  0.10233857366E+04  0.11161971497E+04  0.40000000000E+03 0. -1.
<mgrwt>
<rscale>  2 0.44562059E+03</rscale>
<asrwt>0</asrwt>
<pdfrwt beam="1">  1       21 0.21853837E+00 0.44562059E+03</pdfrwt>
<pdfrwt beam="2">  1       21 0.28917012E-01 0.44562059E+03</pdfrwt>
<totfact> 0.97711002E+02</totfact>
</mgrwt>
</event>
<event>
 4    1  0.4863180E-002  0.6763915E+03  0.7818608E-02  0.9758480E-01
         21   -1    0    0  503  502  0.00000000000E+00  0.00000000000E+00  0.26946340823E+03  0.26946340823E+03  0.00000000000E+00 0. -1.
         21   -1    0    0  501  503 -0.00000000000E+00 -0.00000000000E+00 -0.17017661818E+04  0.17017661818E+04  0.00000000000E+00 0.  1.
    9000007    1    1    2  501    0  0.54008542530E+03 -0.76243916426E+02 -0.66880197026E+03  0.95121053234E+03  0.40000000000E+03 0. -1.
   -9000007    1    1    2    0  502 -0.54008542530E+03  0.76243916426E+02 -0.76350080334E+03  0.10200190577E+04  0.40000000000E+03 0.  1.
<mgrwt>
<rscale>  2 0.67639146E+03</rscale>
<asrwt>0</asrwt>
<pdfrwt beam="1">  1       21 0.41455909E-01 0.67639146E+03</pdfrwt>
<pdfrwt beam="2">  1       21 0.26181018E+00 0.67639146E+03</pdfrwt>
<totfact> 0.22847091E+02</totfact>
</mgrwt>
</event>
<event>
 4    1  0.4863180E-002  0.4057053E+03  0.7818608E-02  0.1041822E+00
         21   -1    0    0  503  502  0.00000000000E+00  0.00000000000E+00  0.25278429028E+03  0.25278429028E+03  0.00000000000E+00 0.  1.
         21   -1    0    0  501  503 -0.00000000000E+00 -0.00000000000E+00 -0.77216399084E+03  0.77216399084E+03  0.00000000000E+00 0.  1.
    9000007    1    1    2  501    0 -0.32281813461E+02 -0.59620989584E+02 -0.46258017093E+03  0.61528626867E+03  0.40000000000E+03 0. -1.
   -9000007    1    1    2    0  502  0.32281813461E+02  0.59620989584E+02 -0.56799529628E+02  0.40966201245E+03  0.40000000000E+03 0. -1.
<mgrwt>
<rscale>  2 0.40570528E+03</rscale>
<asrwt>0</asrwt>
<pdfrwt beam="1">  1       21 0.38889892E-01 0.40570528E+03</pdfrwt>
<pdfrwt beam="2">  1       21 0.11879446E+00 0.40570528E+03</pdfrwt>
<totfact> 0.30459263E+03</totfact>
</mgrwt>
</event>
<event>
 4    1  0.4863180E-002  0.4980685E+03  0.7818608E-02  0.1014284E+00
         21   -1    0    0  501  502  0.00000000000E+00  0.00000000000E+00  0.39507097069E+03  0.39507097069E+03  0.00000000000E+00 0.  1.
         21   -1    0    0  502  503 -0.00000000000E+00 -0.00000000000E+00 -0.77122307052E+03  0.77122307052E+03  0.00000000000E+00 0.  1.
    9000007    1    1    2  501    0  0.10508689372E+03  0.27754092455E+03  0.63296966105E+02  0.50207442272E+03  0.40000000000E+03 0.  1.
   -9000007    1    1    2    0  503 -0.10508689372E+03 -0.27754092455E+03 -0.43944906593E+03  0.66421961848E+03  0.40000000000E+03 0.  1.
<mgrwt>
<rscale>  2 0.49806849E+03</rscale>
<asrwt>0</asrwt>
<pdfrwt beam="1">  1       21 0.60780150E-01 0.49806849E+03</pdfrwt>
<pdfrwt beam="2">  1       21 0.11864970E+00 0.49806849E+03</pdfrwt>
<totfact> 0.11438701E+03</totfact>
</mgrwt>
</event>
<event>
 4    1  0.4863180E-002  0.4297104E+03  0.7818608E-02  0.1033951E+00
         21   -1    0    0  501  502  0.00000000000E+00  0.00000000000E+00  0.14635971424E+04  0.14635971424E+04  0.00000000000E+00 0.  1.
         21   -1    0    0  502  503 -0.00000000000E+00 -0.00000000000E+00 -0.43129442150E+03  0.43129442150E+03  0.00000000000E+00 0.  1.
    9000007    1    1    2  501    0  0.12177789878E+03 -0.99101741608E+02  0.13130650708E+04  0.13815899869E+04  0.40000000000E+03 0.  1.
   -9000007    1    1    2    0  503 -0.12177789878E+03  0.99101741608E+02 -0.28076234989E+03  0.51330157699E+03  0.40000000000E+03 0.  1.
<mgrwt>
<rscale>  2 0.42971038E+03</rscale>
<asrwt>0</asrwt>
<pdfrwt beam="1">  1       21 0.22516879E+00 0.42971038E+03</pdfrwt>
<pdfrwt beam="2">  1       21 0.66352989E-01 0.42971038E+03</pdfrwt>
<totfact> 0.15748207E+02</totfact>
</mgrwt>
</event>
<event>
 4    1  0.4863180E-002  0.4495301E+03  0.7818608E-02  0.1027862E+00
         21   -1    0    0  503  502  0.00000000000E+00  0.00000000000E+00  0.57255184213E+03  0.57255184213E+03  0.00000000000E+00 0. -1.
         21   -1    0    0  501  503 -0.00000000000E+00 -0.00000000000E+00 -0.37937543802E+03  0.37937543802E+03  0.00000000000E+00 0. -1.
    9000007    1    1    2  501    0 -0.20445786391E+03 -0.16561224039E+02 -0.29049592156E+02  0.45046772477E+03  0.40000000000E+03 0. -1.
   -9000007    1    1    2    0  502  0.20445786391E+03  0.16561224039E+02  0.22222599627E+03  0.50145955537E+03  0.40000000000E+03 0. -1.
<mgrwt>
<rscale>  2 0.44953008E+03</rscale>
<asrwt>0</asrwt>
<pdfrwt beam="1">  1       21 0.88084899E-01 0.44953008E+03</pdfrwt>
<pdfrwt beam="2">  1       21 0.58365452E-01 0.44953008E+03</pdfrwt>
<totfact> 0.26353708E+03</totfact>
</mgrwt>
</event>
<event>
 4    1  0.4863180E-002  0.5107601E+03  0.7818608E-02  0.1011008E+00
         21   -1    0    0  501  502  0.00000000000E+00  0.00000000000E+00  0.65334533811E+03  0.65334533811E+03  0.00000000000E+00 0.  1.
         21   -1    0    0  502  503 -0.00000000000E+00 -0.00000000000E+00 -0.41289417656E+03  0.41289417656E+03  0.00000000000E+00 0. -1.
    9000007    1    1    2  501    0 -0.97801126270E+02 -0.30217676460E+03  0.23464100962E+02  0.51129875943E+03  0.40000000000E+03 0. -1.
   -9000007    1    1    2    0  503  0.97801126270E+02  0.30217676460E+03  0.21698706059E+03  0.55494075524E+03  0.40000000000E+03 0.  1.
<mgrwt>
<rscale>  2 0.51076008E+03</rscale>
<asrwt>0</asrwt>
<pdfrwt beam="1">  1       21 0.10051467E+00 0.51076008E+03</pdfrwt>
<pdfrwt beam="2">  1       21 0.63522181E-01 0.51076008E+03</pdfrwt>
<totfact> 0.15602431E+03</totfact>
</mgrwt>
</event>
<event>
 4    1  0.4863180E-002  0.5121488E+03  0.7818608E-02  0.1010656E+00
         21   -1    0    0  501  502  0.00000000000E+00  0.00000000000E+00  0.10409899051E+04  0.10409899051E+04  0.00000000000E+00 0. -1.
         21   -1    0    0  502  503 -0.00000000000E+00 -0.00000000000E+00 -0.32820796075E+03  0.32820796075E+03  0.00000000000E+00 0. -1.
    9000007    1    1    2  501    0  0.14490895859E+02 -0.31950968034E+03  0.68634408908E+03  0.85636711200E+03  0.40000000000E+03 0. -1.
   -9000007    1    1    2    0  503 -0.14490895859E+02  0.31950968034E+03  0.26437855253E+02  0.51283075384E+03  0.40000000000E+03 0. -1.
<mgrwt>
<rscale>  2 0.51214883E+03</rscale>
<asrwt>0</asrwt>
<pdfrwt beam="1">  1       21 0.16015229E+00 0.51214883E+03</pdfrwt>
<pdfrwt beam="2">  1       21 0.50493533E-01 0.51214883E+03</pdfrwt>
<totfact> 0.76609102E+02</totfact>
</mgrwt>
</event>
<event>
 4    1  0.4863180E-002  0.7540596E+03  0.7818608E-02  0.9629003E-01
         21   -1    0    0  503  502  0.00000000000E+00  0.00000000000E+00  0.34660385773E+03  0.34660385773E+03  0.00000000000E+00 0. -1.
         21   -1    0    0  501  503 -0.00000000000E+00 -0.00000000000E+00 -0.17845308111E+04  0.17845308111E+04  0.00000000000E+00 0.  1.
    9000007    1    1    2  501    0  0.33630229586E+03 -0.54360519720E+03 -0.10216805645E+04  0.12698177115E+04  0.40000000000E+03 0.  1.
   -9000007    1    1    2    0  502 -0.33630229586E+03  0.54360519720E+03 -0.41624638880E+03  0.86131695723E+03  0.40000000000E+03 0.  1.
<mgrwt>
<rscale>  2 0.75405958E+03</rscale>
<asrwt>0</asrwt>
<pdfrwt beam="1">  1       21 0.53323671E-01 0.75405958E+03</pdfrwt>
<pdfrwt beam="2">  1       21 0.27454320E+00 0.75405958E+03</pdfrwt>
<totfact> 0.10844305E+02</totfact>
</mgrwt>
</event>
<event>
 4    1  0.4863180E-002  0.5030675E+03  0.7818608E-02  0.1012981E+00
         21   -1    0    0  503  502  0.00000000000E+00  0.00000000000E+00  0.13462475442E+04  0.13462475442E+04  0.00000000000E+00 0. -1.
         21   -1    0    0  501  503 -0.00000000000E+00 -0.00000000000E+00 -0.38551331183E+03  0.38551331183E+03  0.00000000000E+00 0. -1.
    9000007    1    1    2  501    0  0.20318323410E+03 -0.22758177280E+03 -0.13943182680E+03  0.52203268504E+03  0.40000000000E+03 0. -1.
   -9000007    1    1    2    0  502 -0.20318323410E+03  0.22758177280E+03  0.11001660592E+04  0.12097281710E+04  0.40000000000E+03 0. -1.
<mgrwt>
<rscale>  2 0.50306748E+03</rscale>
<asrwt>0</asrwt>
<pdfrwt beam="1">  1       21 0.20711500E+00 0.50306748E+03</pdfrwt>
<pdfrwt beam="2">  1       21 0.59309741E-01 0.50306748E+03</pdfrwt>
<totfact> 0.25383864E+02</totfact>
</mgrwt>
</event>
<event>
 4    1  0.4863180E-002  0.4150456E+03  0.7818608E-02  0.1038691E+00
         21   -1    0    0  501  502  0.00000000000E+00  0.00000000000E+00  0.97334910957E+03  0.97334910957E+03  0.00000000000E+00 0.  1.
         21   -1    0    0  502  503 -0.00000000000E+00 -0.00000000000E+00 -0.25910197641E+03  0.25910197641E+03  0.00000000000E+00 0. -1.
    9000007    1    1    2  501    0 -0.35372684037E+00  0.11073720140E+03  0.70404834004E+03  0.81728019553E+03  0.40000000000E+03 0. -1.
   -9000007    1    1    2    0  503  0.35372684037E+00 -0.11073720140E+03  0.10198793121E+02  0.41517089045E+03  0.40000000000E+03 0. -1.
<mgrwt>
<rscale>  2 0.41504560E+03</rscale>
<asrwt>0</asrwt>
<pdfrwt beam="1">  1       21 0.14974601E+00 0.41504560E+03</pdfrwt>
<pdfrwt beam="2">  1       21 0.39861843E-01 0.41504560E+03</pdfrwt>
<totfact> 0.15748060E+03</totfact>
</mgrwt>
</event>
<event>
 4    1  0.4863180E-002  0.5052766E+03  0.7818608E-02  0.1012411E+00
         21   -1    0    0  503  502  0.00000000000E+00  0.00000000000E+00  0.93508824150E+03  0.93508824150E+03  0.00000000000E+00 0. -1.
         21   -1    0    0  501  503 -0.00000000000E+00 -0.00000000000E+00 -0.35312130326E+03  0.35312130326E+03  0.00000000000E+00 0. -1.
    9000007    1    1    2  501    0 -0.14957528682E+03  0.27005870979E+03 -0.15773881128E+02  0.50552278731E+03  0.40000000000E+03 0.  1.
   -9000007    1    1    2    0  502  0.14957528682E+03 -0.27005870979E+03  0.59774081937E+03  0.78268675746E+03  0.40000000000E+03 0.  1.
<mgrwt>
<rscale>  2 0.50527663E+03</rscale>
<asrwt>0</asrwt>
<pdfrwt beam="1">  1       21 0.14385973E+00 0.50527663E+03</pdfrwt>
<pdfrwt beam="2">  1       21 0.54326355E-01 0.50527663E+03</pdfrwt>
<totfact> 0.88084600E+02</totfact>
</mgrwt>
</event>
<event>
 4    1  0.4863180E-002  0.6204677E+03  0.7818608E-02  0.9863829E-01
         21   -1    0    0  503  502  0.00000000000E+00  0.00000000000E+00  0.57178312983E+03  0.57178312983E+03  0.00000000000E+00 0.  1.
         21   -1    0    0  501  503 -0.00000000000E+00 -0.00000000000E+00 -0.72142479372E+03  0.72142479372E+03  0.00000000000E+00 0. -1.
    9000007    1    1    2  501    0 -0.30705968027E+03  0.36151701174E+03  0.92187521196E+02  0.62727883440E+03  0.40000000000E+03 0.  1.
   -9000007    1    1    2    0  502  0.30705968027E+03 -0.36151701174E+03 -0.24182918508E+03  0.66592908915E+03  0.40000000000E+03 0. -1.
<mgrwt>
<rscale>  2 0.62046772E+03</rscale>
<asrwt>0</asrwt>
<pdfrwt beam="1">  1       21 0.87966636E-01 0.62046772E+03</pdfrwt>
<pdfrwt beam="2">  1       21 0.11098843E+00 0.62046772E+03</pdfrwt>
<totfact> 0.55802221E+02</totfact>
</mgrwt>
</event>
<event>
 4    1  0.4863180E-002  0.4054329E+03  0.7818608E-02  0.1041915E+00
         21   -1    0    0  503  502  0.00000000000E+00  0.00000000000E+00  0.17615988563E+03  0.17615988563E+03  0.00000000000E+00 0. -1.
         21   -1    0    0  501  503 -0.00000000000E+00 -0.00000000000E+00 -0.10192038003E+04  0.10192038003E+04  0.00000000000E+00 0. -1.
    9000007    1    1    2  501    0 -0.36080298540E+02  0.55444059030E+02 -0.24780757256E+03  0.47516778578E+03  0.40000000000E+03 0. -1.
   -9000007    1    1    2    0  502  0.36080298540E+02 -0.55444059030E+02 -0.59523634207E+03  0.72019590012E+03  0.40000000000E+03 0. -1.
<mgrwt>
<rscale>  2 0.40543289E+03</rscale>
<asrwt>0</asrwt>
<pdfrwt beam="1">  1       21 0.27101521E-01 0.40543289E+03</pdfrwt>
<pdfrwt beam="2">  1       21 0.15680058E+00 0.40543289E+03</pdfrwt>
<totfact> 0.30237117E+03</totfact>
</mgrwt>
</event>
<event>
 4    1  0.4863180E-002  0.4069980E+03  0.7818608E-02  0.1041383E+00
         21   -1    0    0  501  502  0.00000000000E+00  0.00000000000E+00  0.10331598481E+03  0.10331598481E+03  0.00000000000E+00 0.  1.
         21   -1    0    0  502  503 -0.00000000000E+00 -0.00000000000E+00 -0.16569335694E+04  0.16569335694E+04  0.00000000000E+00 0.  1.
    9000007    1    1    2  501    0 -0.51749713687E+02  0.54491882327E+02 -0.93514329964E+03  0.10198727317E+04  0.40000000000E+03 0. -1.
   -9000007    1    1    2    0  503  0.51749713687E+02 -0.54491882327E+02 -0.61847428498E+03  0.74037682250E+03  0.40000000000E+03 0. -1.
<mgrwt>
<rscale>  2 0.40699803E+03</rscale>
<asrwt>0</asrwt>
<pdfrwt beam="1">  1       21 0.15894768E-01 0.40699803E+03</pdfrwt>
<pdfrwt beam="2">  1       21 0.25491283E+00 0.40699803E+03</pdfrwt>
<totfact> 0.18602071E+03</totfact>
</mgrwt>
</event>
<event>
 4    1  0.4863180E-002  0.4647085E+03  0.7818608E-02  0.1023424E+00
         21   -1    0    0  501  502  0.00000000000E+00  0.00000000000E+00  0.45288150191E+03  0.45288150191E+03  0.00000000000E+00 0. -1.
         21   -1    0    0  502  503 -0.00000000000E+00 -0.00000000000E+00 -0.59343742211E+03  0.59343742211E+03  0.00000000000E+00 0. -1.
    9000007    1    1    2  501    0  0.33663050703E+02 -0.23413836491E+03 -0.30216850218E+03  0.55431018267E+03  0.40000000000E+03 0. -1.
   -9000007    1    1    2    0  503 -0.33663050703E+02  0.23413836491E+03  0.16161258199E+03  0.49200874135E+03  0.40000000000E+03 0. -1.
<mgrwt>
<rscale>  2 0.46470848E+03</rscale>
<asrwt>0</asrwt>
<pdfrwt beam="1">  1       21 0.69674077E-01 0.46470848E+03</pdfrwt>
<pdfrwt beam="2">  1       21 0.91298065E-01 0.46470848E+03</pdfrwt>
<totfact> 0.16260303E+03</totfact>
</mgrwt>
</event>
<event>
 4    1  0.4863180E-002  0.4847232E+03  0.7818608E-02  0.1017845E+00
         21   -1    0    0  503  502  0.00000000000E+00  0.00000000000E+00  0.84393687621E+03  0.84393687621E+03  0.00000000000E+00 0. -1.
         21   -1    0    0  501  503 -0.00000000000E+00 -0.00000000000E+00 -0.33069940934E+03  0.33069940934E+03  0.00000000000E+00 0. -1.
    9000007    1    1    2  501    0 -0.25702843299E+03 -0.94302322136E+02  0.49017034876E+03  0.68936457273E+03  0.40000000000E+03 0. -1.
   -9000007    1    1    2    0  502  0.25702843299E+03  0.94302322136E+02  0.23067118111E+02  0.48527171282E+03  0.40000000000E+03 0. -1.
<mgrwt>
<rscale>  2 0.48472316E+03</rscale>
<asrwt>0</asrwt>
<pdfrwt beam="1">  1       21 0.12983644E+00 0.48472316E+03</pdfrwt>
<pdfrwt beam="2">  1       21 0.50876833E-01 0.48472316E+03</pdfrwt>
<totfact> 0.13404696E+03</totfact>
</mgrwt>
</event>
<event>
 4    1  0.4863180E-002  0.4442274E+03  0.7818608E-02  0.1029458E+00
         21   -1    0    0  501  502  0.00000000000E+00  0.00000000000E+00  0.12229032478E+03  0.12229032478E+03  0.00000000000E+00 0. -1.
         21   -1    0    0  502  503 -0.00000000000E+00 -0.00000000000E+00 -0.16465997563E+04  0.16465997563E+04  0.00000000000E+00 0. -1.
    9000007    1    1    2  501    0 -0.11999004626E+03  0.15146076429E+03 -0.63710666700E+03  0.77668711812E+03  0.40000000000E+03 0. -1.
   -9000007    1    1    2    0  503  0.11999004626E+03 -0.15146076429E+03 -0.88720276449E+03  0.99220296292E+03  0.40000000000E+03 0. -1.
<mgrwt>
<rscale>  2 0.44422739E+03</rscale>
<asrwt>0</asrwt>
<pdfrwt beam="1">  1       21 0.18813897E-01 0.44422739E+03</pdfrwt>
<pdfrwt beam="2">  1       21 0.25332302E+00 0.44422739E+03</pdfrwt>
<totfact> 0.13607602E+03</totfact>
</mgrwt>
</event>
<event>
 4    1  0.4863180E-002  0.5214184E+03  0.7818608E-02  0.1008335E+00
         21   -1    0    0  501  502  0.00000000000E+00  0.00000000000E+00  0.68435291062E+03  0.68435291062E+03  0.00000000000E+00 0.  1.
         21   -1    0    0  502  503 -0.00000000000E+00 -0.00000000000E+00 -0.46618861089E+03  0.46618861089E+03  0.00000000000E+00 0.  1.
    9000007    1    1    2  501    0  0.10464113205E+03  0.31769067024E+03  0.33025925598E+03  0.61721009764E+03  0.40000000000E+03 0.  1.
   -9000007    1    1    2    0  503 -0.10464113205E+03 -0.31769067024E+03 -0.11209495625E+03  0.53333142387E+03  0.40000000000E+03 0.  1.
<mgrwt>
<rscale>  2 0.52141838E+03</rscale>
<asrwt>0</asrwt>
<pdfrwt beam="1">  1       21 0.10528506E+00 0.52141838E+03</pdfrwt>
<pdfrwt beam="2">  1       21 0.71721324E-01 0.52141838E+03</pdfrwt>
<totfact> 0.10561772E+03</totfact>
</mgrwt>
</event>
<event>
 4    1  0.4863180E-002  0.5127736E+03  0.7818608E-02  0.1010498E+00
         21   -1    0    0  501  502  0.00000000000E+00  0.00000000000E+00  0.36080285737E+03  0.36080285737E+03  0.00000000000E+00 0.  1.
         21   -1    0    0  502  503 -0.00000000000E+00 -0.00000000000E+00 -0.77109779071E+03  0.77109779071E+03  0.00000000000E+00 0. -1.
    9000007    1    1    2  501    0  0.25950090683E+03 -0.18866901544E+03 -0.72525423443E+02  0.51787706560E+03  0.40000000000E+03 0. -1.
   -9000007    1    1    2    0  503 -0.25950090683E+03  0.18866901544E+03 -0.33776950989E+03  0.61402358248E+03  0.40000000000E+03 0. -1.
<mgrwt>
<rscale>  2 0.51277355E+03</rscale>
<asrwt>0</asrwt>
<pdfrwt beam="1">  1       21 0.55508133E-01 0.51277355E+03</pdfrwt>
<pdfrwt beam="2">  1       21 0.11863043E+00 0.51277355E+03</pdfrwt>
<totfact> 0.13880381E+03</totfact>
</mgrwt>
</event>
<event>
 4    1  0.4863180E-002  0.4185727E+03  0.7818608E-02  0.1037532E+00
         21   -1    0    0  501  502  0.00000000000E+00  0.00000000000E+00  0.33320471255E+03  0.33320471255E+03  0.00000000000E+00 0.  1.
         21   -1    0    0  502  503 -0.00000000000E+00 -0.00000000000E+00 -0.66905051414E+03  0.66905051414E+03  0.00000000000E+00 0.  1.
    9000007    1    1    2  501    0  0.46312134742E+02  0.11427276742E+03  0.63949248803E+02  0.42342955214E+03  0.40000000000E+03 0.  1.
   -9000007    1    1    2    0  503 -0.46312134742E+02 -0.11427276742E+03 -0.39979505040E+03  0.57882567455E+03  0.40000000000E+03 0.  1.
<mgrwt>
<rscale>  2 0.41857267E+03</rscale>
<asrwt>0</asrwt>
<pdfrwt beam="1">  1       21 0.51262264E-01 0.41857267E+03</pdfrwt>
<pdfrwt beam="2">  1       21 0.10293085E+00 0.41857267E+03</pdfrwt>
<totfact> 0.24275840E+03</totfact>
</mgrwt>
</event>
<event>
 4    1  0.4863180E-002  0.4803392E+03  0.7818608E-02  0.1019042E+00
         21   -1    0    0  503  502  0.00000000000E+00  0.00000000000E+00  0.43905457201E+03  0.43905457201E+03  0.00000000000E+00 0. -1.
         21   -1    0    0  501  503 -0.00000000000E+00 -0.00000000000E+00 -0.60818752611E+03  0.60818752611E+03  0.00000000000E+00 0.  1.
    9000007    1    1    2  501    0 -0.87045475036E+02 -0.25129426461E+03  0.10849833262E+03  0.49244046374E+03  0.40000000000E+03 0. -1.
   -9000007    1    1    2    0  502  0.87045475036E+02  0.25129426461E+03 -0.27763128672E+03  0.55480163438E+03  0.40000000000E+03 0.  1.
<mgrwt>
<rscale>  2 0.48033917E+03</rscale>
<asrwt>0</asrwt>
<pdfrwt beam="1">  1       21 0.67546857E-01 0.48033917E+03</pdfrwt>
<pdfrwt beam="2">  1       21 0.93567311E-01 0.48033917E+03</pdfrwt>
<totfact> 0.16346881E+03</totfact>
</mgrwt>
</event>
<event>
 4    1  0.4863180E-002  0.7958448E+03  0.7818608E-02  0.9566051E-01
         21   -1    0    0  503  502  0.00000000000E+00  0.00000000000E+00  0.45523767263E+03  0.45523767263E+03  0.00000000000E+00 0. -1.
         21   -1    0    0  501  503 -0.00000000000E+00 -0.00000000000E+00 -0.13915468330E+04  0.13915468330E+04  0.00000000000E+00 0.  1.
    9000007    1    1    2  501    0 -0.67287975424E+03  0.14353328604E+03 -0.45568224412E+03  0.91706884991E+03  0.40000000000E+03 0.  1.
   -9000007    1    1    2    0  502  0.67287975424E+03 -0.14353328604E+03 -0.48062691625E+03  0.92971565572E+03  0.40000000000E+03 0. -1.
<mgrwt>
<rscale>  2 0.79584481E+03</rscale>
<asrwt>0</asrwt>
<pdfrwt beam="1">  1       21 0.70036564E-01 0.79584481E+03</pdfrwt>
<pdfrwt beam="2">  1       21 0.21408413E+00 0.79584481E+03</pdfrwt>
<totfact> 0.14119807E+02</totfact>
</mgrwt>
</event>
<event>
 4    1  0.4863180E-002  0.4924727E+03  0.7818608E-02  0.1015763E+00
         21   -1    0    0  501  502  0.00000000000E+00  0.00000000000E+00  0.27280101865E+04  0.27280101865E+04  0.00000000000E+00 0. -1.
         21   -1    0    0  502  503 -0.00000000000E+00 -0.00000000000E+00 -0.10367484864E+03  0.10367484864E+03  0.00000000000E+00 0. -1.
    9000007    1    1    2  501    0 -0.28721261652E+03 -0.61898057475E+01  0.18465962572E+04  0.19111376554E+04  0.40000000000E+03 0. -1.
   -9000007    1    1    2    0  503  0.28721261652E+03  0.61898057475E+01  0.77773908068E+03  0.92054737977E+03  0.40000000000E+03 0. -1.
<mgrwt>
<rscale>  2 0.49247274E+03</rscale>
<asrwt>0</asrwt>
<pdfrwt beam="1">  1       21 0.41969382E+00 0.49247274E+03</pdfrwt>
<pdfrwt beam="2">  1       21 0.15949979E-01 0.49247274E+03</pdfrwt>
<totfact> 0.16941676E+02</totfact>
</mgrwt>
</event>
<event>
 4    1  0.4863180E-002  0.4570364E+03  0.7818608E-02  0.1025644E+00
         21   -1    0    0  501  502  0.00000000000E+00  0.00000000000E+00  0.16615098140E+03  0.16615098140E+03  0.00000000000E+00 0.  1.
         21   -1    0    0  502  503 -0.00000000000E+00 -0.00000000000E+00 -0.12879544074E+04  0.12879544074E+04  0.00000000000E+00 0.  1.
    9000007    1    1    2  501    0 -0.20752556052E+03 -0.76258782817E+02 -0.44852241653E+03  0.64035507210E+03  0.40000000000E+03 0.  1.
   -9000007    1    1    2    0  503  0.20752556052E+03  0.76258782817E+02 -0.67328100944E+03  0.81375031668E+03  0.40000000000E+03 0.  1.
<mgrwt>
<rscale>  2 0.45703639E+03</rscale>
<asrwt>0</asrwt>
<pdfrwt beam="1">  1       21 0.25561690E-01 0.45703639E+03</pdfrwt>
<pdfrwt beam="2">  1       21 0.19814683E+00 0.45703639E+03</pdfrwt>
<totfact> 0.16844169E+03</totfact>
</mgrwt>
</event>
<event>
 4    1  0.4863180E-002  0.5407577E+03  0.7818608E-02  0.1003656E+00
         21   -1    0    0  501  502  0.00000000000E+00  0.00000000000E+00  0.11134580443E+04  0.11134580443E+04  0.00000000000E+00 0.  1.
         21   -1    0    0  502  503 -0.00000000000E+00 -0.00000000000E+00 -0.32176121820E+03  0.32176121820E+03  0.00000000000E+00 0.  1.
    9000007    1    1    2  501    0  0.57185946553E+01 -0.36384910243E+03  0.70349934356E+03  0.88731628975E+03  0.40000000000E+03 0.  1.
   -9000007    1    1    2    0  503 -0.57185946553E+01  0.36384910243E+03  0.88197482576E+02  0.54790297279E+03  0.40000000000E+03 0.  1.
<mgrwt>
<rscale>  2 0.54075768E+03</rscale>
<asrwt>0</asrwt>
<pdfrwt beam="1">  1       21 0.17130124E+00 0.54075768E+03</pdfrwt>
<pdfrwt beam="2">  1       21 0.49501726E-01 0.54075768E+03</pdfrwt>
<totfact> 0.65318414E+02</totfact>
</mgrwt>
</event>
<event>
 4    1  0.4863180E-002  0.5539984E+03  0.7818608E-02  0.1000573E+00
         21   -1    0    0  503  502  0.00000000000E+00  0.00000000000E+00  0.62549588096E+03  0.62549588096E+03  0.00000000000E+00 0.  1.
         21   -1    0    0  501  503 -0.00000000000E+00 -0.00000000000E+00 -0.66174815266E+03  0.66174815266E+03  0.00000000000E+00 0. -1.
    9000007    1    1    2  501    0  0.10058090314E+03  0.36986178348E+03 -0.34537439792E+03  0.65283821250E+03  0.40000000000E+03 0. -1.
   -9000007    1    1    2    0  502 -0.10058090314E+03 -0.36986178348E+03  0.30912212623E+03  0.63440582113E+03  0.40000000000E+03 0. -1.
<mgrwt>
<rscale>  2 0.55399843E+03</rscale>
<asrwt>0</asrwt>
<pdfrwt beam="1">  1       21 0.96230135E-01 0.55399843E+03</pdfrwt>
<pdfrwt beam="2">  1       21 0.10180741E+00 0.55399843E+03</pdfrwt>
<totfact> 0.57017037E+02</totfact>
</mgrwt>
</event>
<event>
 4    1  0.4863180E-002  0.5014832E+03  0.7818608E-02  0.1013393E+00
         21   -1    0    0  501  502  0.00000000000E+00  0.00000000000E+00  0.76635489964E+03  0.76635489964E+03  0.00000000000E+00 0. -1.
         21   -1    0    0  502  503 -0.00000000000E+00 -0.00000000000E+00 -0.34619686394E+03  0.34619686394E+03  0.00000000000E+00 0.  1.
    9000007    1    1    2  501    0  0.19335175990E+03  0.23259507098E+03  0.33705897000E+03  0.60423018739E+03  0.40000000000E+03 0. -1.
   -9000007    1    1    2    0  503 -0.19335175990E+03 -0.23259507098E+03  0.83099065704E+02  0.50832157619E+03  0.40000000000E+03 0.  1.
<mgrwt>
<rscale>  2 0.50148317E+03</rscale>
<asrwt>0</asrwt>
<pdfrwt beam="1">  1       21 0.11790075E+00 0.50148317E+03</pdfrwt>
<pdfrwt beam="2">  1       21 0.53261056E-01 0.50148317E+03</pdfrwt>
<totfact> 0.15475836E+03</totfact>
</mgrwt>
</event>
<event>
 4    1  0.4863180E-002  0.4432762E+03  0.7818608E-02  0.1029746E+00
         21   -1    0    0  501  502  0.00000000000E+00  0.00000000000E+00  0.17006385367E+04  0.17006385367E+04  0.00000000000E+00 0.  1.
         21   -1    0    0  502  503 -0.00000000000E+00 -0.00000000000E+00 -0.16274394666E+03  0.16274394666E+03  0.00000000000E+00 0.  1.
    9000007    1    1    2  501    0 -0.39305543875E+02  0.18694622839E+03  0.12707155990E+04  0.13458127477E+04  0.40000000000E+03 0.  1.
   -9000007    1    1    2    0  503  0.39305543875E+02 -0.18694622839E+03  0.26717899098E+03  0.51756973570E+03  0.40000000000E+03 0.  1.
<mgrwt>
<rscale>  2 0.44327623E+03</rscale>
<asrwt>0</asrwt>
<pdfrwt beam="1">  1       21 0.26163669E+00 0.44327623E+03</pdfrwt>
<pdfrwt beam="2">  1       21 0.25037531E-01 0.44327623E+03</pdfrwt>
<totfact> 0.70019238E+02</totfact>
</mgrwt>
</event>
<event>
 4    1  0.4863180E-002  0.4048230E+03  0.7818608E-02  0.1042122E+00
         21   -1    0    0  501  502  0.00000000000E+00  0.00000000000E+00  0.38379835250E+03  0.38379835250E+03  0.00000000000E+00 0. -1.
         21   -1    0    0  502  503 -0.00000000000E+00 -0.00000000000E+00 -0.42850896166E+03  0.42850896166E+03  0.00000000000E+00 0. -1.
    9000007    1    1    2  501    0 -0.52155525211E+02 -0.34080468930E+02  0.17510613068E+01  0.40482680666E+03  0.40000000000E+03 0.  1.
   -9000007    1    1    2    0  503  0.52155525211E+02  0.34080468930E+02 -0.46461670472E+02  0.40748050750E+03  0.40000000000E+03 0.  1.
<mgrwt>
<rscale>  2 0.40482302E+03</rscale>
<asrwt>0</asrwt>
<pdfrwt beam="1">  1       21 0.59045900E-01 0.40482302E+03</pdfrwt>
<pdfrwt beam="2">  1       21 0.65924456E-01 0.40482302E+03</pdfrwt>
<totfact> 0.50666161E+03</totfact>
</mgrwt>
</event>
<event>
 4    1  0.4863180E-002  0.4088806E+03  0.7818608E-02  0.1040747E+00
         21   -1    0    0  503  502  0.00000000000E+00  0.00000000000E+00  0.48145856047E+03  0.48145856047E+03  0.00000000000E+00 0. -1.
         21   -1    0    0  501  503 -0.00000000000E+00 -0.00000000000E+00 -0.34931804847E+03  0.34931804847E+03  0.00000000000E+00 0. -1.
    9000007    1    1    2  501    0  0.83283120350E+02  0.15725808103E+02  0.98081343517E+02  0.42047987957E+03  0.40000000000E+03 0. -1.
   -9000007    1    1    2    0  502 -0.83283120350E+02 -0.15725808103E+02  0.34059168479E+02  0.41029672937E+03  0.40000000000E+03 0. -1.
<mgrwt>
<rscale>  2 0.40888064E+03</rscale>
<asrwt>0</asrwt>
<pdfrwt beam="1">  1       21 0.74070548E-01 0.40888064E+03</pdfrwt>
<pdfrwt beam="2">  1       21 0.53741238E-01 0.40888064E+03</pdfrwt>
<totfact> 0.47735087E+03</totfact>
</mgrwt>
</event>
<event>
 4    1  0.4863180E-002  0.4710610E+03  0.7818608E-02  0.1021621E+00
         21   -1    0    0  503  502  0.00000000000E+00  0.00000000000E+00  0.33063711809E+03  0.33063711809E+03  0.00000000000E+00 0. -1.
         21   -1    0    0  501  503 -0.00000000000E+00 -0.00000000000E+00 -0.73802170861E+03  0.73802170861E+03  0.00000000000E+00 0. -1.
    9000007    1    1    2  501    0  0.24728203244E+03 -0.27386847860E+02 -0.36456440061E+03  0.59565564313E+03  0.40000000000E+03 0. -1.
   -9000007    1    1    2    0  502 -0.24728203244E+03  0.27386847860E+02 -0.42820189907E+02  0.47300318357E+03  0.40000000000E+03 0. -1.
<mgrwt>
<rscale>  2 0.47106098E+03</rscale>
<asrwt>0</asrwt>
<pdfrwt beam="1">  1       21 0.50867249E-01 0.47106098E+03</pdfrwt>
<pdfrwt beam="2">  1       21 0.11354180E+00 0.47106098E+03</pdfrwt>
<totfact> 0.18979433E+03</totfact>
</mgrwt>
</event>
<event>
 4    1  0.4863180E-002  0.6222559E+03  0.7818608E-02  0.9860278E-01
         21   -1    0    0  503  502  0.00000000000E+00  0.00000000000E+00  0.71462959994E+03  0.71462959994E+03  0.00000000000E+00 0.  1.
         21   -1    0    0  501  503 -0.00000000000E+00 -0.00000000000E+00 -0.11049170706E+04  0.11049170706E+04  0.00000000000E+00 0. -1.
    9000007    1    1    2  501    0 -0.31995117768E+03 -0.35331806611E+03 -0.84461362849E+03  0.10490827391E+04  0.40000000000E+03 0. -1.
   -9000007    1    1    2    0  502  0.31995117768E+03  0.35331806611E+03  0.45432615787E+03  0.77046393145E+03  0.40000000000E+03 0.  1.
<mgrwt>
<rscale>  2 0.62225591E+03</rscale>
<asrwt>0</asrwt>
<pdfrwt beam="1">  1       21 0.10994302E+00 0.62225591E+03</pdfrwt>
<pdfrwt beam="2">  1       21 0.16998724E+00 0.62225591E+03</pdfrwt>
<totfact> 0.10340763E+02</totfact>
</mgrwt>
</event>
<event>
 4    1  0.4863180E-002  0.4755283E+03  0.7818608E-02  0.1020371E+00
         21   -1    0    0  501  502  0.00000000000E+00  0.00000000000E+00  0.32256582047E+03  0.32256582047E+03  0.00000000000E+00 0. -1.
         21   -1    0    0  502  503 -0.00000000000E+00 -0.00000000000E+00 -0.72464259160E+03  0.72464259160E+03  0.00000000000E+00 0. -1.
    9000007    1    1    2  501    0 -0.16115650090E+03 -0.20038906485E+03 -0.10651374983E+03  0.48731137273E+03  0.40000000000E+03 0. -1.
   -9000007    1    1    2    0  503  0.16115650090E+03  0.20038906485E+03 -0.29556302130E+03  0.55989703933E+03  0.40000000000E+03 0. -1.
<mgrwt>
<rscale>  2 0.47552833E+03</rscale>
<asrwt>0</asrwt>
<pdfrwt beam="1">  1       21 0.49625511E-01 0.47552833E+03</pdfrwt>
<pdfrwt beam="2">  1       21 0.11148348E+00 0.47552833E+03</pdfrwt>
<totfact> 0.20906034E+03</totfact>
</mgrwt>
</event>
<event>
 4    1  0.4863180E-002  0.4308368E+03  0.7818608E-02  0.1033596E+00
         21   -1    0    0  503  502  0.00000000000E+00  0.00000000000E+00  0.40663095835E+03  0.40663095835E+03  0.00000000000E+00 0. -1.
         21   -1    0    0  501  503 -0.00000000000E+00 -0.00000000000E+00 -0.49221549328E+03  0.49221549328E+03  0.00000000000E+00 0.  1.
    9000007    1    1    2  501    0 -0.71787700559E+02 -0.14306247919E+03 -0.16388167061E+03  0.46095287055E+03  0.40000000000E+03 0.  1.
   -9000007    1    1    2    0  502  0.71787700559E+02  0.14306247919E+03  0.78297135678E+02  0.43789358109E+03  0.40000000000E+03 0.  1.
<mgrwt>
<rscale>  2 0.43083680E+03</rscale>
<asrwt>0</asrwt>
<pdfrwt beam="1">  1       21 0.62558609E-01 0.43083680E+03</pdfrwt>
<pdfrwt beam="2">  1       21 0.75725460E-01 0.43083680E+03</pdfrwt>
<totfact> 0.32358545E+03</totfact>
</mgrwt>
</event>
<event>
 4    1  0.4863180E-002  0.7100134E+03  0.7818608E-02  0.9700259E-01
         21   -1    0    0  503  502  0.00000000000E+00  0.00000000000E+00  0.17882708769E+04  0.17882708769E+04  0.00000000000E+00 0.  1.
         21   -1    0    0  501  503 -0.00000000000E+00 -0.00000000000E+00 -0.29715481341E+03  0.29715481341E+03  0.00000000000E+00 0.  1.
    9000007    1    1    2  501    0 -0.58266503439E+03  0.67974515097E+02  0.50932921714E+03  0.87380508606E+03  0.40000000000E+03 0.  1.
   -9000007    1    1    2    0  502  0.58266503439E+03 -0.67974515097E+02  0.98178684639E+03  0.12116206043E+04  0.40000000000E+03 0.  1.
<mgrwt>
<rscale>  2 0.71001343E+03</rscale>
<asrwt>0</asrwt>
<pdfrwt beam="1">  1       21 0.27511859E+00 0.71001343E+03</pdfrwt>
<pdfrwt beam="2">  1       21 0.45716126E-01 0.71001343E+03</pdfrwt>
<totfact> 0.15199394E+02</totfact>
</mgrwt>
</event>
<event>
 4    1  0.4863180E-002  0.1036820E+04  0.7818608E-02  0.9269059E-01
         21   -1    0    0  503  502  0.00000000000E+00  0.00000000000E+00  0.13588840534E+04  0.13588840534E+04  0.00000000000E+00 0. -1.
         21   -1    0    0  501  503 -0.00000000000E+00 -0.00000000000E+00 -0.80330791664E+03  0.80330791664E+03  0.00000000000E+00 0.  1.
    9000007    1    1    2  501    0  0.61668863380E+03  0.73122487115E+03  0.14444024799E+03  0.10468322065E+04  0.40000000000E+03 0.  1.
   -9000007    1    1    2    0  502 -0.61668863380E+03 -0.73122487115E+03  0.41113588882E+03  0.11153597636E+04  0.40000000000E+03 0. -1.
<mgrwt>
<rscale>  2 0.10368195E+04</rscale>
<asrwt>0</asrwt>
<pdfrwt beam="1">  1       21 0.20905908E+00 0.10368195E+04</pdfrwt>
<pdfrwt beam="2">  1       21 0.12358583E+00 0.10368195E+04</pdfrwt>
<totfact> 0.35813003E+01</totfact>
</mgrwt>
</event>
<event>
 4    1  0.4863180E-002  0.4401607E+03  0.7818608E-02  0.1030698E+00
         21   -1    0    0  501  502  0.00000000000E+00  0.00000000000E+00  0.67200926368E+03  0.67200926368E+03  0.00000000000E+00 0. -1.
         21   -1    0    0  502  503 -0.00000000000E+00 -0.00000000000E+00 -0.31942247107E+03  0.31942247107E+03  0.00000000000E+00 0. -1.
    9000007    1    1    2  501    0 -0.13656278971E+03 -0.12284959070E+03  0.33102364278E+03  0.55074319746E+03  0.40000000000E+03 0.  1.
   -9000007    1    1    2    0  503  0.13656278971E+03  0.12284959070E+03  0.21563149827E+02  0.44068853729E+03  0.40000000000E+03 0.  1.
<mgrwt>
<rscale>  2 0.44016067E+03</rscale>
<asrwt>0</asrwt>
<pdfrwt beam="1">  1       21 0.10338604E+00 0.44016067E+03</pdfrwt>
<pdfrwt beam="2">  1       21 0.49141919E-01 0.44016067E+03</pdfrwt>
<totfact> 0.26054806E+03</totfact>
</mgrwt>
</event>
<event>
 4    1  0.4863180E-002  0.8942932E+03  0.7818608E-02  0.9432743E-01
         21   -1    0    0  501  502  0.00000000000E+00  0.00000000000E+00  0.15359665249E+04  0.15359665249E+04  0.00000000000E+00 0. -1.
         21   -1    0    0  502  503 -0.00000000000E+00 -0.00000000000E+00 -0.82087314341E+03  0.82087314341E+03  0.00000000000E+00 0.  1.
    9000007    1    1    2  501    0 -0.66990428488E+03 -0.43702240849E+03  0.10701636391E+04  0.13946363507E+04  0.40000000000E+03 0. -1.
   -9000007    1    1    2    0  503  0.66990428488E+03  0.43702240849E+03 -0.35507025761E+03  0.96220331753E+03  0.40000000000E+03 0.  1.
<mgrwt>
<rscale>  2 0.89429320E+03</rscale>
<asrwt>0</asrwt>
<pdfrwt beam="1">  1       21 0.23630254E+00 0.89429320E+03</pdfrwt>
<pdfrwt beam="2">  1       21 0.12628818E+00 0.89429320E+03</pdfrwt>
<totfact> 0.23321849E+01</totfact>
</mgrwt>
</event>
<event>
 4    1  0.4863180E-002  0.4109730E+03  0.7818608E-02  0.1040045E+00
         21   -1    0    0  503  502  0.00000000000E+00  0.00000000000E+00  0.31661187768E+03  0.31661187768E+03  0.00000000000E+00 0. -1.
         21   -1    0    0  501  503 -0.00000000000E+00 -0.00000000000E+00 -0.56592828848E+03  0.56592828848E+03  0.00000000000E+00 0.  1.
    9000007    1    1    2  501    0  0.31005148910E+02 -0.89092723218E+02 -0.23035780189E+03  0.47113007703E+03  0.40000000000E+03 0. -1.
   -9000007    1    1    2    0  502 -0.31005148910E+02  0.89092723218E+02 -0.18958608904E+02  0.41141008913E+03  0.40000000000E+03 0.  1.
<mgrwt>
<rscale>  2 0.41097303E+03</rscale>
<asrwt>0</asrwt>
<pdfrwt beam="1">  1       21 0.48709520E-01 0.41097303E+03</pdfrwt>
<pdfrwt beam="2">  1       21 0.87065890E-01 0.41097303E+03</pdfrwt>
<totfact> 0.40500873E+03</totfact>
</mgrwt>
</event>
<event>
 4    1  0.4863180E-002  0.4644812E+03  0.7818608E-02  0.1023490E+00
         21   -1    0    0  503  502  0.00000000000E+00  0.00000000000E+00  0.21211951503E+03  0.21211951503E+03  0.00000000000E+00 0. -1.
         21   -1    0    0  501  503 -0.00000000000E+00 -0.00000000000E+00 -0.11408916672E+04  0.11408916672E+04  0.00000000000E+00 0.  1.
    9000007    1    1    2  501    0 -0.23542426505E+03 -0.17837498502E+02 -0.68724393291E+03  0.82948597592E+03  0.40000000000E+03 0. -1.
   -9000007    1    1    2    0  502  0.23542426505E+03  0.17837498502E+02 -0.24152821924E+03  0.52352520629E+03  0.40000000000E+03 0.  1.
<mgrwt>
<rscale>  2 0.46448117E+03</rscale>
<asrwt>0</asrwt>
<pdfrwt beam="1">  1       21 0.32633772E-01 0.46448117E+03</pdfrwt>
<pdfrwt beam="2">  1       21 0.17552179E+00 0.46448117E+03</pdfrwt>
<totfact> 0.14848389E+03</totfact>
</mgrwt>
</event>
<event>
 4    1  0.4863180E-002  0.4514854E+03  0.7818608E-02  0.1027280E+00
         21   -1    0    0  501  502  0.00000000000E+00  0.00000000000E+00  0.73971275606E+03  0.73971275606E+03  0.00000000000E+00 0.  1.
         21   -1    0    0  502  503 -0.00000000000E+00 -0.00000000000E+00 -0.27575886384E+03  0.27575886384E+03  0.00000000000E+00 0.  1.
    9000007    1    1    2  501    0 -0.14604028460E+03  0.15003758752E+03  0.24543477099E+03  0.51388449014E+03  0.40000000000E+03 0.  1.
   -9000007    1    1    2    0  503  0.14604028460E+03 -0.15003758752E+03  0.21851912123E+03  0.50158712976E+03  0.40000000000E+03 0.  1.
<mgrwt>
<rscale>  2 0.45148537E+03</rscale>
<asrwt>0</asrwt>
<pdfrwt beam="1">  1       21 0.11380196E+00 0.45148537E+03</pdfrwt>
<pdfrwt beam="2">  1       21 0.42424441E-01 0.45148537E+03</pdfrwt>
<totfact> 0.27854447E+03</totfact>
</mgrwt>
</event>
<event>
 4    1  0.4863180E-002  0.4661547E+03  0.7818608E-02  0.1023011E+00
         21   -1    0    0  503  502  0.00000000000E+00  0.00000000000E+00  0.28195148783E+03  0.28195148783E+03  0.00000000000E+00 0. -1.
         21   -1    0    0  501  503 -0.00000000000E+00 -0.00000000000E+00 -0.77077305092E+03  0.77077305092E+03  0.00000000000E+00 0. -1.
    9000007    1    1    2  501    0  0.18632703724E+03 -0.15027439621E+03 -0.24951672394E+03  0.52873316001E+03  0.40000000000E+03 0. -1.
   -9000007    1    1    2    0  502 -0.18632703724E+03  0.15027439621E+03 -0.23930483914E+03  0.52399137874E+03  0.40000000000E+03 0. -1.
<mgrwt>
<rscale>  2 0.46615465E+03</rscale>
<asrwt>0</asrwt>
<pdfrwt beam="1">  1       21 0.43377152E-01 0.46615465E+03</pdfrwt>
<pdfrwt beam="2">  1       21 0.11858047E+00 0.46615465E+03</pdfrwt>
<totfact> 0.23861469E+03</totfact>
</mgrwt>
</event>
<event>
 4    1  0.4863180E-002  0.5164134E+03  0.7818608E-02  0.1009581E+00
         21   -1    0    0  501  502  0.00000000000E+00  0.00000000000E+00  0.29932653701E+03  0.29932653701E+03  0.00000000000E+00 0. -1.
         21   -1    0    0  502  503 -0.00000000000E+00 -0.00000000000E+00 -0.94291194492E+03  0.94291194492E+03  0.00000000000E+00 0. -1.
    9000007    1    1    2  501    0 -0.31879478650E+03  0.71082355085E+02 -0.17597431957E+03  0.54557288995E+03  0.40000000000E+03 0. -1.
   -9000007    1    1    2    0  503  0.31879478650E+03 -0.71082355085E+02 -0.46761108834E+03  0.69666559198E+03  0.40000000000E+03 0. -1.
<mgrwt>
<rscale>  2 0.51641342E+03</rscale>
<asrwt>0</asrwt>
<pdfrwt beam="1">  1       21 0.46050237E-01 0.51641342E+03</pdfrwt>
<pdfrwt beam="2">  1       21 0.14506338E+00 0.51641342E+03</pdfrwt>
<totfact> 0.12204074E+03</totfact>
</mgrwt>
</event>
<event>
 4    1  0.4863180E-002  0.4234067E+03  0.7818608E-02  0.1035963E+00
         21   -1    0    0  501  502  0.00000000000E+00  0.00000000000E+00  0.33563935571E+03  0.33563935571E+03  0.00000000000E+00 0.  1.
         21   -1    0    0  502  503 -0.00000000000E+00 -0.00000000000E+00 -0.57584210704E+03  0.57584210704E+03  0.00000000000E+00 0.  1.
    9000007    1    1    2  501    0 -0.11159013440E+03  0.82588380110E+02  0.25651031260E+01  0.42341442864E+03  0.40000000000E+03 0.  1.
   -9000007    1    1    2    0  503  0.11159013440E+03 -0.82588380110E+02 -0.24276785446E+03  0.48806703411E+03  0.40000000000E+03 0.  1.
<mgrwt>
<rscale>  2 0.42340666E+03</rscale>
<asrwt>0</asrwt>
<pdfrwt beam="1">  1       21 0.51636825E-01 0.42340666E+03</pdfrwt>
<pdfrwt beam="2">  1       21 0.88591092E-01 0.42340666E+03</pdfrwt>
<totfact> 0.34188198E+03</totfact>
</mgrwt>
</event>
<event>
 4    1  0.4863180E-002  0.4978603E+03  0.7818608E-02  0.1014339E+00
         21   -1    0    0  503  502  0.00000000000E+00  0.00000000000E+00  0.31886800735E+03  0.31886800735E+03  0.00000000000E+00 0. -1.
         21   -1    0    0  501  503 -0.00000000000E+00 -0.00000000000E+00 -0.95310388852E+03  0.95310388852E+03  0.00000000000E+00 0.  1.
    9000007    1    1    2  501    0 -0.19740093594E+03  0.22112829262E+03 -0.59024060733E+03  0.77217150028E+03  0.40000000000E+03 0. -1.
   -9000007    1    1    2    0  502  0.19740093594E+03 -0.22112829262E+03 -0.43995273839E+02  0.49980039558E+03  0.40000000000E+03 0. -1.
<mgrwt>
<rscale>  2 0.49786027E+03</rscale>
<asrwt>0</asrwt>
<pdfrwt beam="1">  1       21 0.49056616E-01 0.49786027E+03</pdfrwt>
<pdfrwt beam="2">  1       21 0.14663137E+00 0.49786027E+03</pdfrwt>
<totfact> 0.10439685E+03</totfact>
</mgrwt>
</event>
<event>
 4    1  0.4863180E-002  0.4630043E+03  0.7818608E-02  0.1023913E+00
         21   -1    0    0  501  502  0.00000000000E+00  0.00000000000E+00  0.56348855558E+03  0.56348855558E+03  0.00000000000E+00 0.  1.
         21   -1    0    0  502  503 -0.00000000000E+00 -0.00000000000E+00 -0.55377748565E+03  0.55377748565E+03  0.00000000000E+00 0. -1.
    9000007    1    1    2  501    0 -0.43048873365E+02 -0.22917184795E+03  0.31739627428E+03  0.56134956696E+03  0.40000000000E+03 0.  1.
   -9000007    1    1    2    0  503  0.43048873365E+02  0.22917184795E+03 -0.30768520435E+03  0.55591647427E+03  0.40000000000E+03 0. -1.
<mgrwt>
<rscale>  2 0.46300426E+03</rscale>
<asrwt>0</asrwt>
<pdfrwt beam="1">  1       21 0.86690547E-01 0.46300426E+03</pdfrwt>
<pdfrwt beam="2">  1       21 0.85196536E-01 0.46300426E+03</pdfrwt>
<totfact> 0.11589758E+03</totfact>
</mgrwt>
</event>
<event>
 4    1  0.4863180E-002  0.4269376E+03  0.7818608E-02  0.1034832E+00
         21   -1    0    0  501  502  0.00000000000E+00  0.00000000000E+00  0.90059892124E+03  0.90059892124E+03  0.00000000000E+00 0.  1.
         21   -1    0    0  502  503 -0.00000000000E+00 -0.00000000000E+00 -0.54182595716E+03  0.54182595716E+03  0.00000000000E+00 0.  1.
    9000007    1    1    2  501    0 -0.14921856579E+03 -0.30875674447E+01  0.75022036510E+03  0.86319540642E+03  0.40000000000E+03 0.  1.
   -9000007    1    1    2    0  503  0.14921856579E+03  0.30875674447E+01 -0.39144740102E+03  0.57922947198E+03  0.40000000000E+03 0.  1.
<mgrwt>
<rscale>  2 0.42693760E+03</rscale>
<asrwt>0</asrwt>
<pdfrwt beam="1">  1       21 0.13855368E+00 0.42693760E+03</pdfrwt>
<pdfrwt beam="2">  1       21 0.83357840E-01 0.42693760E+03</pdfrwt>
<totfact> 0.38633765E+02</totfact>
</mgrwt>
</event>
<event>
 4    1  0.4863180E-002  0.5326019E+03  0.7818608E-02  0.1005603E+00
         21   -1    0    0  501  502  0.00000000000E+00  0.00000000000E+00  0.90382584638E+03  0.90382584638E+03  0.00000000000E+00 0.  1.
         21   -1    0    0  502  503 -0.00000000000E+00 -0.00000000000E+00 -0.31780320152E+03  0.31780320152E+03  0.00000000000E+00 0. -1.
    9000007    1    1    2  501    0  0.13259431080E+03  0.32570467882E+03  0.36114512028E+03  0.64349870782E+03  0.40000000000E+03 0. -1.
   -9000007    1    1    2    0  503 -0.13259431080E+03 -0.32570467882E+03  0.22487752457E+03  0.57813034008E+03  0.40000000000E+03 0.  1.
<mgrwt>
<rscale>  2 0.53260190E+03</rscale>
<asrwt>0</asrwt>
<pdfrwt beam="1">  1       21 0.13905013E+00 0.53260190E+03</pdfrwt>
<pdfrwt beam="2">  1       21 0.48892801E-01 0.53260190E+03</pdfrwt>
<totfact> 0.11976843E+03</totfact>
</mgrwt>
</event>
<event>
 4    1  0.4863180E-002  0.6183345E+03  0.7818608E-02  0.9868081E-01
         21   -1    0    0  503  502  0.00000000000E+00  0.00000000000E+00  0.19004859120E+03  0.19004859120E+03  0.00000000000E+00 0. -1.
         21   -1    0    0  501  503 -0.00000000000E+00 -0.00000000000E+00 -0.21459822843E+04  0.21459822843E+04  0.00000000000E+00 0.  1.
    9000007    1    1    2  501    0 -0.42755414162E+03 -0.19883399076E+03 -0.12700471799E+04  0.14125711802E+04  0.40000000000E+03 0. -1.
   -9000007    1    1    2    0  502  0.42755414162E+03  0.19883399076E+03 -0.68588651325E+03  0.92345969536E+03  0.40000000000E+03 0. -1.
<mgrwt>
<rscale>  2 0.61833446E+03</rscale>
<asrwt>0</asrwt>
<pdfrwt beam="1">  1       21 0.29238245E-01 0.61833446E+03</pdfrwt>
<pdfrwt beam="2">  1       21 0.33015112E+00 0.61833446E+03</pdfrwt>
<totfact> 0.18167022E+02</totfact>
</mgrwt>
</event>
<event>
 4    1  0.4863180E-002  0.6946886E+03  0.7818608E-02  0.9726359E-01
         21   -1    0    0  501  502  0.00000000000E+00  0.00000000000E+00  0.55624935446E+03  0.55624935446E+03  0.00000000000E+00 0.  1.
         21   -1    0    0  502  503 -0.00000000000E+00 -0.00000000000E+00 -0.10108568160E+04  0.10108568160E+04  0.00000000000E+00 0. -1.
    9000007    1    1    2  501    0  0.56692108097E+03 -0.34535730950E+02  0.67686553059E+02  0.69797829352E+03  0.40000000000E+03 0.  1.
   -9000007    1    1    2    0  503 -0.56692108097E+03  0.34535730950E+02 -0.52229401455E+03  0.86912787689E+03  0.40000000000E+03 0. -1.
<mgrwt>
<rscale>  2 0.69468858E+03</rscale>
<asrwt>0</asrwt>
<pdfrwt beam="1">  1       21 0.85576824E-01 0.69468858E+03</pdfrwt>
<pdfrwt beam="2">  1       21 0.15551643E+00 0.69468858E+03</pdfrwt>
<totfact> 0.23894656E+02</totfact>
</mgrwt>
</event>
<event>
 4    1  0.4863180E-002  0.5253631E+03  0.7818608E-02  0.1007363E+00
         21   -1    0    0  503  502  0.00000000000E+00  0.00000000000E+00  0.59917904093E+03  0.59917904093E+03  0.00000000000E+00 0.  1.
         21   -1    0    0  501  503 -0.00000000000E+00 -0.00000000000E+00 -0.62677377054E+03  0.62677377054E+03  0.00000000000E+00 0.  1.
    9000007    1    1    2  501    0  0.18311579284E+03  0.28718461525E+03 -0.32938216908E+03  0.62007984174E+03  0.40000000000E+03 0.  1.
   -9000007    1    1    2    0  502 -0.18311579284E+03 -0.28718461525E+03  0.30178743947E+03  0.60587296973E+03  0.40000000000E+03 0.  1.
<mgrwt>
<rscale>  2 0.52536311E+03</rscale>
<asrwt>0</asrwt>
<pdfrwt beam="1">  1       21 0.92181392E-01 0.52536311E+03</pdfrwt>
<pdfrwt beam="2">  1       21 0.96426733E-01 0.52536311E+03</pdfrwt>
<totfact> 0.72904399E+02</totfact>
</mgrwt>
</event>
<event>
 4    1  0.4863180E-002  0.4515264E+03  0.7818608E-02  0.1027268E+00
         21   -1    0    0  503  502  0.00000000000E+00  0.00000000000E+00  0.12946463718E+04  0.12946463718E+04  0.00000000000E+00 0. -1.
         21   -1    0    0  501  503 -0.00000000000E+00 -0.00000000000E+00 -0.26285879343E+03  0.26285879343E+03  0.00000000000E+00 0.  1.
    9000007    1    1    2  501    0  0.63607915953E+02  0.19957488487E+03  0.22807973210E+02  0.45210209608E+03  0.40000000000E+03 0.  1.
   -9000007    1    1    2    0  502 -0.63607915953E+02 -0.19957488487E+03  0.10089796052E+04  0.11054030691E+04  0.40000000000E+03 0. -1.
<mgrwt>
<rscale>  2 0.45152641E+03</rscale>
<asrwt>0</asrwt>
<pdfrwt beam="1">  1       21 0.19917636E+00 0.45152641E+03</pdfrwt>
<pdfrwt beam="2">  1       21 0.40439815E-01 0.45152641E+03</pdfrwt>
<totfact> 0.66265143E+02</totfact>
</mgrwt>
</event>
<event>
 4    1  0.4863180E-002  0.5775219E+03  0.7818608E-02  0.9953171E-01
         21   -1    0    0  501  502  0.00000000000E+00  0.00000000000E+00  0.21714616202E+03  0.21714616202E+03  0.00000000000E+00 0. -1.
         21   -1    0    0  502  503 -0.00000000000E+00 -0.00000000000E+00 -0.20397479797E+04  0.20397479797E+04  0.00000000000E+00 0.  1.
    9000007    1    1    2  501    0  0.20895187245E+03  0.36037572102E+03 -0.35049905373E+03  0.67555986557E+03  0.40000000000E+03 0. -1.
   -9000007    1    1    2    0  503 -0.20895187245E+03 -0.36037572102E+03 -0.14721027640E+04  0.15813342762E+04  0.40000000000E+03 0.  1.
<mgrwt>
<rscale>  2 0.57752190E+03</rscale>
<asrwt>0</asrwt>
<pdfrwt beam="1">  1       21 0.33407102E-01 0.57752190E+03</pdfrwt>
<pdfrwt beam="2">  1       21 0.31380738E+00 0.57752190E+03</pdfrwt>
<totfact> 0.17829452E+02</totfact>
</mgrwt>
</event>
<event>
 4    1  0.4863180E-002  0.4279808E+03  0.7818608E-02  0.1034500E+00
         21   -1    0    0  501  502  0.00000000000E+00  0.00000000000E+00  0.15648023331E+03  0.15648023331E+03  0.00000000000E+00 0. -1.
         21   -1    0    0  502  503 -0.00000000000E+00 -0.00000000000E+00 -0.11745501456E+04  0.11745501456E+04  0.00000000000E+00 0.  1.
    9000007    1    1    2  501    0 -0.14157294508E+03 -0.55898415478E+02 -0.54788582251E+03  0.69523118898E+03  0.40000000000E+03 0. -1.
   -9000007    1    1    2    0  503  0.14157294508E+03  0.55898415478E+02 -0.47018408983E+03  0.63579918997E+03  0.40000000000E+03 0. -1.
<mgrwt>
<rscale>  2 0.42798076E+03</rscale>
<asrwt>0</asrwt>
<pdfrwt beam="1">  1       21 0.24073883E-01 0.42798076E+03</pdfrwt>
<pdfrwt beam="2">  1       21 0.18070002E+00 0.42798076E+03</pdfrwt>
<totfact> 0.25234870E+03</totfact>
</mgrwt>
</event>
<event>
 4    1  0.4863180E-002  0.4160452E+03  0.7818608E-02  0.1038361E+00
         21   -1    0    0  503  502  0.00000000000E+00  0.00000000000E+00  0.15362095077E+04  0.15362095077E+04  0.00000000000E+00 0.  1.
         21   -1    0    0  501  503 -0.00000000000E+00 -0.00000000000E+00 -0.27283167090E+03  0.27283167090E+03  0.00000000000E+00 0.  1.
    9000007    1    1    2  501    0 -0.64492567646E+01 -0.11424537671E+03 -0.61325913231E+02  0.42054068370E+03  0.40000000000E+03 0.  1.
   -9000007    1    1    2    0  502  0.64492567646E+01  0.11424537671E+03  0.13247037500E+04  0.13885004949E+04  0.40000000000E+03 0.  1.
<mgrwt>
<rscale>  2 0.41604519E+03</rscale>
<asrwt>0</asrwt>
<pdfrwt beam="1">  1       21 0.23633992E+00 0.41604519E+03</pdfrwt>
<pdfrwt beam="2">  1       21 0.41974104E-01 0.41604519E+03</pdfrwt>
<totfact> 0.36073907E+02</totfact>
</mgrwt>
</event>
<event>
 4    1  0.4863180E-002  0.4629353E+03  0.7818608E-02  0.1023933E+00
         21   -1    0    0  503  502  0.00000000000E+00  0.00000000000E+00  0.12278651642E+04  0.12278651642E+04  0.00000000000E+00 0. -1.
         21   -1    0    0  501  503 -0.00000000000E+00 -0.00000000000E+00 -0.17609918308E+03  0.17609918308E+03  0.00000000000E+00 0.  1.
    9000007    1    1    2  501    0  0.22434191734E+03 -0.63085761074E+02  0.59197922218E+03  0.75149751072E+03  0.40000000000E+03 0.  1.
   -9000007    1    1    2    0  502 -0.22434191734E+03  0.63085761074E+02  0.45978675896E+03  0.65246683658E+03  0.40000000000E+03 0. -1.
<mgrwt>
<rscale>  2 0.46293532E+03</rscale>
<asrwt>0</asrwt>
<pdfrwt beam="1">  1       21 0.18890233E+00 0.46293532E+03</pdfrwt>
<pdfrwt beam="2">  1       21 0.27092183E-01 0.46293532E+03</pdfrwt>
<totfact> 0.17325488E+03</totfact>
</mgrwt>
</event>
<event>
 4    1  0.4863180E-002  0.6827935E+03  0.7818608E-02  0.9747119E-01
         21   -1    0    0  503  502  0.00000000000E+00  0.00000000000E+00  0.33314083733E+03  0.33314083733E+03  0.00000000000E+00 0. -1.
         21   -1    0    0  501  503 -0.00000000000E+00 -0.00000000000E+00 -0.14330455684E+04  0.14330455684E+04  0.00000000000E+00 0.  1.
    9000007    1    1    2  501    0 -0.31577648149E+03  0.45441417173E+03 -0.68520687083E+03  0.96732387625E+03  0.40000000000E+03 0.  1.
   -9000007    1    1    2    0  502  0.31577648149E+03 -0.45441417173E+03 -0.41469786028E+03  0.79886252951E+03  0.40000000000E+03 0. -1.
<mgrwt>
<rscale>  2 0.68279355E+03</rscale>
<asrwt>0</asrwt>
<pdfrwt beam="1">  1       21 0.51252438E-01 0.68279355E+03</pdfrwt>
<pdfrwt beam="2">  1       21 0.22046854E+00 0.68279355E+03</pdfrwt>
<totfact> 0.26543711E+02</totfact>
</mgrwt>
</event>
<event>
 4    1  0.4863180E-002  0.4179702E+03  0.7818608E-02  0.1037729E+00
         21   -1    0    0  501  502  0.00000000000E+00  0.00000000000E+00  0.16603790928E+04  0.16603790928E+04  0.00000000000E+00 0. -1.
         21   -1    0    0  502  503 -0.00000000000E+00 -0.00000000000E+00 -0.11191786770E+03  0.11191786770E+03  0.00000000000E+00 0. -1.
    9000007    1    1    2  501    0 -0.10620260754E+03  0.58481482796E+02  0.99107210793E+03  0.10756035519E+04  0.40000000000E+03 0. -1.
   -9000007    1    1    2    0  503  0.10620260754E+03 -0.58481482796E+02  0.55738911714E+03  0.69669340860E+03  0.40000000000E+03 0. -1.
<mgrwt>
<rscale>  2 0.41797019E+03</rscale>
<asrwt>0</asrwt>
<pdfrwt beam="1">  1       21 0.25544292E+00 0.41797019E+03</pdfrwt>
<pdfrwt beam="2">  1       21 0.17218135E-01 0.41797019E+03</pdfrwt>
<totfact> 0.15813021E+03</totfact>
</mgrwt>
</event>
<event>
 4    1  0.4863180E-002  0.4551033E+03  0.7818608E-02  0.1026211E+00
         21   -1    0    0  503  502  0.00000000000E+00  0.00000000000E+00  0.15746572680E+04  0.15746572680E+04  0.00000000000E+00 0. -1.
         21   -1    0    0  501  503 -0.00000000000E+00 -0.00000000000E+00 -0.16422406848E+03  0.16422406848E+03  0.00000000000E+00 0. -1.
    9000007    1    1    2  501    0 -0.17897622506E+03 -0.12282721940E+03  0.31730058865E+03  0.55479606930E+03  0.40000000000E+03 0. -1.
   -9000007    1    1    2    0  502  0.17897622506E+03  0.12282721940E+03  0.10931326108E+04  0.11840852671E+04  0.40000000000E+03 0. -1.
<mgrwt>
<rscale>  2 0.45510330E+03</rscale>
<asrwt>0</asrwt>
<pdfrwt beam="1">  1       21 0.24225495E+00 0.45510330E+03</pdfrwt>
<pdfrwt beam="2">  1       21 0.25265242E-01 0.45510330E+03</pdfrwt>
<totfact> 0.89906457E+02</totfact>
</mgrwt>
</event>
<event>
 4    1  0.4863180E-002  0.4935890E+03  0.7818608E-02  0.1015466E+00
         21   -1    0    0  503  502  0.00000000000E+00  0.00000000000E+00  0.82330570678E+03  0.82330570678E+03  0.00000000000E+00 0.  1.
         21   -1    0    0  501  503 -0.00000000000E+00 -0.00000000000E+00 -0.35872405944E+03  0.35872405944E+03  0.00000000000E+00 0.  1.
    9000007    1    1    2  501    0  0.64034894804E+01  0.28911784899E+03 -0.15008242959E+02  0.49381715507E+03  0.40000000000E+03 0.  1.
   -9000007    1    1    2    0  502 -0.64034894804E+01 -0.28911784899E+03  0.47958989030E+03  0.68821261116E+03  0.40000000000E+03 0.  1.
<mgrwt>
<rscale>  2 0.49358903E+03</rscale>
<asrwt>0</asrwt>
<pdfrwt beam="1">  1       21 0.12666242E+00 0.49358903E+03</pdfrwt>
<pdfrwt beam="2">  1       21 0.55188317E-01 0.49358903E+03</pdfrwt>
<totfact> 0.11959540E+03</totfact>
</mgrwt>
</event>
<event>
 4    1  0.4863180E-002  0.4056972E+03  0.7818608E-02  0.1041825E+00
         21   -1    0    0  503  502  0.00000000000E+00  0.00000000000E+00  0.57262730890E+03  0.57262730890E+03  0.00000000000E+00 0. -1.
         21   -1    0    0  501  503 -0.00000000000E+00 -0.00000000000E+00 -0.41457488975E+03  0.41457488975E+03  0.00000000000E+00 0. -1.
    9000007    1    1    2  501    0 -0.73252325547E+01  0.67354003767E+02 -0.19432702353E+03  0.44983687369E+03  0.40000000000E+03 0. -1.
   -9000007    1    1    2    0  502  0.73252325547E+01 -0.67354003767E+02  0.35237944267E+03  0.53736532497E+03  0.40000000000E+03 0. -1.
<mgrwt>
<rscale>  2 0.40569720E+03</rscale>
<asrwt>0</asrwt>
<pdfrwt beam="1">  1       21 0.88096509E-01 0.40569720E+03</pdfrwt>
<pdfrwt beam="2">  1       21 0.63780752E-01 0.40569720E+03</pdfrwt>
<totfact> 0.22051707E+03</totfact>
</mgrwt>
</event>
<event>
 4    1  0.4863180E-002  0.6789993E+03  0.7818608E-02  0.9753836E-01
         21   -1    0    0  501  502  0.00000000000E+00  0.00000000000E+00  0.52082188842E+03  0.52082188842E+03  0.00000000000E+00 0. -1.
         21   -1    0    0  502  503 -0.00000000000E+00 -0.00000000000E+00 -0.89024285854E+03  0.89024285854E+03  0.00000000000E+00 0.  1.
    9000007    1    1    2  501    0  0.48449254937E+03  0.25750137373E+03 -0.13169519380E+03  0.69165281170E+03  0.40000000000E+03 0.  1.
   -9000007    1    1    2    0  503 -0.48449254937E+03 -0.25750137373E+03 -0.23772577631E+03  0.71941193526E+03  0.40000000000E+03 0.  1.
<mgrwt>
<rscale>  2 0.67899925E+03</rscale>
<asrwt>0</asrwt>
<pdfrwt beam="1">  1       21 0.80126445E-01 0.67899925E+03</pdfrwt>
<pdfrwt beam="2">  1       21 0.13696044E+00 0.67899925E+03</pdfrwt>
<totfact> 0.39656260E+02</totfact>
</mgrwt>
</event>
<event>
 4    1  0.4863180E-002  0.4169106E+03  0.7818608E-02  0.1038077E+00
         21   -1    0    0  501  502  0.00000000000E+00  0.00000000000E+00  0.35947792366E+03  0.35947792366E+03  0.00000000000E+00 0.  1.
         21   -1    0    0  502  503 -0.00000000000E+00 -0.00000000000E+00 -0.89979854507E+03  0.89979854507E+03  0.00000000000E+00 0. -1.
    9000007    1    1    2  501    0  0.94955671582E+02  0.69266423792E+02  0.15810309760E+03  0.44588227875E+03  0.40000000000E+03 0.  1.
   -9000007    1    1    2    0  503 -0.94955671582E+02 -0.69266423792E+02 -0.69842371901E+03  0.81339418999E+03  0.40000000000E+03 0. -1.
<mgrwt>
<rscale>  2 0.41691056E+03</rscale>
<asrwt>0</asrwt>
<pdfrwt beam="1">  1       21 0.55304296E-01 0.41691056E+03</pdfrwt>
<pdfrwt beam="2">  1       21 0.13843054E+00 0.41691056E+03</pdfrwt>
<totfact> 0.97472109E+02</totfact>
</mgrwt>
</event>
<event>
 4    1  0.4863180E-002  0.4029823E+03  0.7818608E-02  0.1042752E+00
         21   -1    0    0  501  502  0.00000000000E+00  0.00000000000E+00  0.82012677148E+03  0.82012677148E+03  0.00000000000E+00 0.  1.
         21   -1    0    0  502  503 -0.00000000000E+00 -0.00000000000E+00 -0.62494232695E+03  0.62494232695E+03  0.00000000000E+00 0.  1.
    9000007    1    1    2  501    0  0.46197002790E+02 -0.16142236966E+02  0.69478875828E+03  0.80319745612E+03  0.40000000000E+03 0.  1.
   -9000007    1    1    2    0  503 -0.46197002790E+02  0.16142236966E+02 -0.49960431375E+03  0.64187164231E+03  0.40000000000E+03 0.  1.
<mgrwt>
<rscale>  2 0.40298230E+03</rscale>
<asrwt>0</asrwt>
<pdfrwt beam="1">  1       21 0.12617335E+00 0.40298230E+03</pdfrwt>
<pdfrwt beam="2">  1       21 0.96144973E-01 0.40298230E+03</pdfrwt>
<totfact> 0.35622055E+02</totfact>
</mgrwt>
</event>
<event>
 4    1  0.4863180E-002  0.5852642E+03  0.7818608E-02  0.9936459E-01
         21   -1    0    0  503  502  0.00000000000E+00  0.00000000000E+00  0.54809703166E+03  0.54809703166E+03  0.00000000000E+00 0.  1.
         21   -1    0    0  501  503 -0.00000000000E+00 -0.00000000000E+00 -0.65527018988E+03  0.65527018988E+03  0.00000000000E+00 0.  1.
    9000007    1    1    2  501    0  0.38446572372E+03  0.18633367497E+03 -0.18300982552E+03  0.61321018206E+03  0.40000000000E+03 0.  1.
   -9000007    1    1    2    0  502 -0.38446572372E+03 -0.18633367497E+03  0.75836667304E+02  0.59015703949E+03  0.40000000000E+03 0.  1.
<mgrwt>
<rscale>  2 0.58526416E+03</rscale>
<asrwt>0</asrwt>
<pdfrwt beam="1">  1       21 0.84322621E-01 0.58526416E+03</pdfrwt>
<pdfrwt beam="2">  1       21 0.10081080E+00 0.58526416E+03</pdfrwt>
<totfact> 0.79182484E+02</totfact>
</mgrwt>
</event>
<event>
 4    1  0.4863180E-002  0.5642059E+03  0.7818608E-02  0.9982583E-01
         21   -1    0    0  501  502  0.00000000000E+00  0.00000000000E+00  0.14794683711E+04  0.14794683711E+04  0.00000000000E+00 0. -1.
         21   -1    0    0  502  503 -0.00000000000E+00 -0.00000000000E+00 -0.28327221950E+03  0.28327221950E+03  0.00000000000E+00 0.  1.
    9000007    1    1    2  501    0 -0.30896687141E+03  0.25073441656E+03  0.10302697552E+04  0.11746420918E+04  0.40000000000E+03 0. -1.
   -9000007    1    1    2    0  503  0.30896687141E+03 -0.25073441656E+03  0.16592639636E+03  0.58809849880E+03  0.40000000000E+03 0.  1.
<mgrwt>
<rscale>  2 0.56420588E+03</rscale>
<asrwt>0</asrwt>
<pdfrwt beam="1">  1       21 0.22761051E+00 0.56420588E+03</pdfrwt>
<pdfrwt beam="2">  1       21 0.43580342E-01 0.56420588E+03</pdfrwt>
<totfact> 0.35222209E+02</totfact>
</mgrwt>
</event>
<event>
 4    1  0.4863180E-002  0.4736002E+03  0.7818608E-02  0.1020909E+00
         21   -1    0    0  501  502  0.00000000000E+00  0.00000000000E+00  0.27066583416E+03  0.27066583416E+03  0.00000000000E+00 0.  1.
         21   -1    0    0  502  503 -0.00000000000E+00 -0.00000000000E+00 -0.96127911593E+03  0.96127911593E+03  0.00000000000E+00 0.  1.
    9000007    1    1    2  501    0 -0.23354226309E+03 -0.98768398033E+02 -0.11653834098E+03  0.48772776220E+03  0.40000000000E+03 0.  1.
   -9000007    1    1    2    0  503  0.23354226309E+03  0.98768398033E+02 -0.57407494079E+03  0.74421718789E+03  0.40000000000E+03 0.  1.
<mgrwt>
<rscale>  2 0.47360024E+03</rscale>
<asrwt>0</asrwt>
<pdfrwt beam="1">  1       21 0.41640897E-01 0.47360024E+03</pdfrwt>
<pdfrwt beam="2">  1       21 0.14788910E+00 0.47360024E+03</pdfrwt>
<totfact> 0.14527540E+03</totfact>
</mgrwt>
</event>
<event>
 4    1  0.4863180E-002  0.4578292E+03  0.7818608E-02  0.1025413E+00
         21   -1    0    0  503  502  0.00000000000E+00  0.00000000000E+00  0.55569533969E+03  0.55569533969E+03  0.00000000000E+00 0. -1.
         21   -1    0    0  501  503 -0.00000000000E+00 -0.00000000000E+00 -0.38526449240E+03  0.38526449240E+03  0.00000000000E+00 0. -1.
    9000007    1    1    2  501    0  0.15948112511E+03 -0.15547776946E+03  0.17140868830E+02  0.45814994865E+03  0.40000000000E+03 0. -1.
   -9000007    1    1    2    0  502 -0.15948112511E+03  0.15547776946E+03  0.15328997846E+03  0.48280988345E+03  0.40000000000E+03 0. -1.
<mgrwt>
<rscale>  2 0.45782919E+03</rscale>
<asrwt>0</asrwt>
<pdfrwt beam="1">  1       21 0.85491591E-01 0.45782919E+03</pdfrwt>
<pdfrwt beam="2">  1       21 0.59271460E-01 0.45782919E+03</pdfrwt>
<totfact> 0.27254696E+03</totfact>
</mgrwt>
</event>
<event>
 4    1  0.4863180E-002  0.4276220E+03  0.7818608E-02  0.1034614E+00
         21   -1    0    0  503  502  0.00000000000E+00  0.00000000000E+00  0.18201870917E+04  0.18201870917E+04  0.00000000000E+00 0. -1.
         21   -1    0    0  501  503 -0.00000000000E+00 -0.00000000000E+00 -0.57228031182E+03  0.57228031182E+03  0.00000000000E+00 0. -1.
    9000007    1    1    2  501    0 -0.14101508881E+03 -0.54546202068E+02 -0.46221909702E+03  0.62968804743E+03  0.40000000000E+03 0. -1.
   -9000007    1    1    2    0  502  0.14101508881E+03  0.54546202068E+02  0.17101258769E+04  0.17627793561E+04  0.40000000000E+03 0. -1.
<mgrwt>
<rscale>  2 0.42762196E+03</rscale>
<asrwt>0</asrwt>
<pdfrwt beam="1">  1       21 0.28002878E+00 0.42762196E+03</pdfrwt>
<pdfrwt beam="2">  1       21 0.88043126E-01 0.42762196E+03</pdfrwt>
<totfact> 0.38047382E+01</totfact>
</mgrwt>
</event>
<event>
 4    1  0.4863180E-002  0.4155475E+03  0.7818608E-02  0.1038525E+00
         21   -1    0    0  501  502  0.00000000000E+00  0.00000000000E+00  0.23771093275E+04  0.23771093275E+04  0.00000000000E+00 0.  1.
         21   -1    0    0  502  503 -0.00000000000E+00 -0.00000000000E+00 -0.12435551496E+03  0.12435551496E+03  0.00000000000E+00 0.  1.
    9000007    1    1    2  501    0 -0.38938312887E+01 -0.11253684364E+03  0.19329260977E+04  0.19770895282E+04  0.40000000000E+03 0.  1.
   -9000007    1    1    2    0  503  0.38938312887E+01  0.11253684364E+03  0.31982771485E+03  0.52437531433E+03  0.40000000000E+03 0.  1.
<mgrwt>
<rscale>  2 0.41554747E+03</rscale>
<asrwt>0</asrwt>
<pdfrwt beam="1">  1       21 0.36570909E+00 0.41554747E+03</pdfrwt>
<pdfrwt beam="2">  1       21 0.19131619E-01 0.41554747E+03</pdfrwt>
<totfact> 0.27967689E+02</totfact>
</mgrwt>
</event>
<event>
 4    1  0.4863180E-002  0.5993271E+03  0.7818608E-02  0.9906803E-01
         21   -1    0    0  503  502  0.00000000000E+00  0.00000000000E+00  0.83220048135E+03  0.83220048135E+03  0.00000000000E+00 0. -1.
         21   -1    0    0  501  503 -0.00000000000E+00 -0.00000000000E+00 -0.55572626595E+03  0.55572626595E+03  0.00000000000E+00 0. -1.
    9000007    1    1    2  501    0 -0.89304257234E+02  0.43728445785E+03 -0.18971160975E+03  0.62863617643E+03  0.40000000000E+03 0. -1.
   -9000007    1    1    2    0  502  0.89304257234E+02 -0.43728445785E+03  0.46618582515E+03  0.75929057087E+03  0.40000000000E+03 0. -1.
<mgrwt>
<rscale>  2 0.59932708E+03</rscale>
<asrwt>0</asrwt>
<pdfrwt beam="1">  1       21 0.12803084E+00 0.59932708E+03</pdfrwt>
<pdfrwt beam="2">  1       21 0.85496349E-01 0.59932708E+03</pdfrwt>
<totfact> 0.41717756E+02</totfact>
</mgrwt>
</event>
<event>
 4    1  0.4863180E-002  0.4075492E+03  0.7818608E-02  0.1041197E+00
         21   -1    0    0  503  502  0.00000000000E+00  0.00000000000E+00  0.11750829679E+04  0.11750829679E+04  0.00000000000E+00 0.  1.
         21   -1    0    0  501  503 -0.00000000000E+00 -0.00000000000E+00 -0.15467855738E+03  0.15467855738E+03  0.00000000000E+00 0.  1.
    9000007    1    1    2  501    0  0.77094313539E+02 -0.12361773320E+02  0.70538561209E+03  0.81465649716E+03  0.40000000000E+03 0.  1.
   -9000007    1    1    2    0  502 -0.77094313539E+02  0.12361773320E+02  0.31501879841E+03  0.51510502810E+03  0.40000000000E+03 0.  1.
<mgrwt>
<rscale>  2 0.40754920E+03</rscale>
<asrwt>0</asrwt>
<pdfrwt beam="1">  1       21 0.18078199E+00 0.40754920E+03</pdfrwt>
<pdfrwt beam="2">  1       21 0.23796702E-01 0.40754920E+03</pdfrwt>
<totfact> 0.26000986E+03</totfact>
</mgrwt>
</event>
<event>
 4    1  0.4863180E-002  0.7068021E+03  0.7818608E-02  0.9705670E-01
         21   -1    0    0  503  502  0.00000000000E+00  0.00000000000E+00  0.11204382620E+04  0.11204382620E+04  0.00000000000E+00 0. -1.
         21   -1    0    0  501  503 -0.00000000000E+00 -0.00000000000E+00 -0.52375469229E+03  0.52375469229E+03  0.00000000000E+00 0. -1.
    9000007    1    1    2  501    0 -0.37063836407E+03  0.44966260113E+03 -0.18677923238E+02  0.70704887850E+03  0.40000000000E+03 0. -1.
   -9000007    1    1    2    0  502  0.37063836407E+03 -0.44966260113E+03  0.61536149293E+03  0.93714407577E+03  0.40000000000E+03 0. -1.
<mgrwt>
<rscale>  2 0.70680213E+03</rscale>
<asrwt>0</asrwt>
<pdfrwt beam="1">  1       21 0.17237512E+00 0.70680213E+03</pdfrwt>
<pdfrwt beam="2">  1       21 0.80577645E-01 0.70680213E+03</pdfrwt>
<totfact> 0.20445638E+02</totfact>
</mgrwt>
</event>
<event>
 4    1  0.4863180E-002  0.4185515E+03  0.7818608E-02  0.1037539E+00
         21   -1    0    0  503  502  0.00000000000E+00  0.00000000000E+00  0.82216783273E+02  0.82216783273E+02  0.00000000000E+00 0.  1.
         21   -1    0    0  501  503 -0.00000000000E+00 -0.00000000000E+00 -0.25344356599E+04  0.25344356599E+04  0.00000000000E+00 0.  1.
    9000007    1    1    2  501    0  0.11775910635E+03 -0.36306318977E+02 -0.17482462897E+04  0.17976513693E+04  0.40000000000E+03 0.  1.
   -9000007    1    1    2    0  502 -0.11775910635E+03  0.36306318977E+02 -0.70397258687E+03  0.81900107387E+03  0.40000000000E+03 0.  1.
<mgrwt>
<rscale>  2 0.41855150E+03</rscale>
<asrwt>0</asrwt>
<pdfrwt beam="1">  1       21 0.12648739E-01 0.41855150E+03</pdfrwt>
<pdfrwt beam="2">  1       21 0.38991310E+00 0.41855150E+03</pdfrwt>
<totfact> 0.42475604E+02</totfact>
</mgrwt>
</event>
<event>
 4    1  0.4863180E-002  0.4232477E+03  0.7818608E-02  0.1036014E+00
         21   -1    0    0  501  502  0.00000000000E+00  0.00000000000E+00  0.18707198296E+03  0.18707198296E+03  0.00000000000E+00 0.  1.
         21   -1    0    0  502  503 -0.00000000000E+00 -0.00000000000E+00 -0.10508985664E+04  0.10508985664E+04  0.00000000000E+00 0.  1.
    9000007    1    1    2  501    0  0.82934606477E+02 -0.11072697583E+03 -0.24747278884E+03  0.49028705198E+03  0.40000000000E+03 0.  1.
   -9000007    1    1    2    0  503 -0.82934606477E+02  0.11072697583E+03 -0.61635379462E+03  0.74768349739E+03  0.40000000000E+03 0.  1.
<mgrwt>
<rscale>  2 0.42324770E+03</rscale>
<asrwt>0</asrwt>
<pdfrwt beam="1">  1       21 0.28780304E-01 0.42324770E+03</pdfrwt>
<pdfrwt beam="2">  1       21 0.16167671E+00 0.42324770E+03</pdfrwt>
<totfact> 0.24492946E+03</totfact>
</mgrwt>
</event>
<event>
 4    1  0.4863180E-002  0.4114298E+03  0.7818608E-02  0.1039892E+00
         21   -1    0    0  503  502  0.00000000000E+00  0.00000000000E+00  0.99066188160E+02  0.99066188160E+02  0.00000000000E+00 0.  1.
         21   -1    0    0  501  503 -0.00000000000E+00 -0.00000000000E+00 -0.17189706113E+04  0.17189706113E+04  0.00000000000E+00 0.  1.
    9000007    1    1    2  501    0  0.62537670057E+02 -0.73236317473E+02 -0.73969184466E+03  0.84641511295E+03  0.40000000000E+03 0. -1.
   -9000007    1    1    2    0  502 -0.62537670057E+02  0.73236317473E+02 -0.88021257843E+03  0.97162168646E+03  0.40000000000E+03 0. -1.
<mgrwt>
<rscale>  2 0.41142985E+03</rscale>
<asrwt>0</asrwt>
<pdfrwt beam="1">  1       21 0.15240954E-01 0.41142985E+03</pdfrwt>
<pdfrwt beam="2">  1       21 0.26445697E+00 0.41142985E+03</pdfrwt>
<totfact> 0.17560392E+03</totfact>
</mgrwt>
</event>
<event>
 4    1  0.4863180E-002  0.4189291E+03  0.7818608E-02  0.1037415E+00
         21   -1    0    0  501  502  0.00000000000E+00  0.00000000000E+00  0.55506950342E+03  0.55506950342E+03  0.00000000000E+00 0.  1.
         21   -1    0    0  502  503 -0.00000000000E+00 -0.00000000000E+00 -0.82342698736E+03  0.82342698736E+03  0.00000000000E+00 0.  1.
    9000007    1    1    2  501    0  0.11309710976E+03  0.52064081217E+02  0.40679109724E+03  0.58393546012E+03  0.40000000000E+03 0.  1.
   -9000007    1    1    2    0  503 -0.11309710976E+03 -0.52064081217E+02 -0.67514858117E+03  0.79456103066E+03  0.40000000000E+03 0.  1.
<mgrwt>
<rscale>  2 0.41892914E+03</rscale>
<asrwt>0</asrwt>
<pdfrwt beam="1">  1       21 0.85395309E-01 0.41892914E+03</pdfrwt>
<pdfrwt beam="2">  1       21 0.12668107E+00 0.41892914E+03</pdfrwt>
<totfact> 0.46295066E+02</totfact>
</mgrwt>
</event>
<event>
 4    1  0.4863180E-002  0.6662472E+03  0.7818608E-02  0.9776761E-01
         21   -1    0    0  501  502  0.00000000000E+00  0.00000000000E+00  0.81577701298E+03  0.81577701298E+03  0.00000000000E+00 0.  1.
         21   -1    0    0  502  503 -0.00000000000E+00 -0.00000000000E+00 -0.56229142041E+03  0.56229142041E+03  0.00000000000E+00 0. -1.
    9000007    1    1    2  501    0 -0.49280932299E+03 -0.20254465359E+03  0.25058951601E+03  0.71181491349E+03  0.40000000000E+03 0. -1.
   -9000007    1    1    2    0  503  0.49280932299E+03  0.20254465359E+03  0.28960765538E+01  0.66625351990E+03  0.40000000000E+03 0. -1.
<mgrwt>
<rscale>  2 0.66624723E+03</rscale>
<asrwt>0</asrwt>
<pdfrwt beam="1">  1       21 0.12550416E+00 0.66624723E+03</pdfrwt>
<pdfrwt beam="2">  1       21 0.86506373E-01 0.66624723E+03</pdfrwt>
<totfact> 0.41837319E+02</totfact>
</mgrwt>
</event>
<event>
 4    1  0.4863180E-002  0.4216689E+03  0.7818608E-02  0.1036525E+00
         21   -1    0    0  501  502  0.00000000000E+00  0.00000000000E+00  0.49176824195E+03  0.49176824195E+03  0.00000000000E+00 0.  1.
         21   -1    0    0  502  503 -0.00000000000E+00 -0.00000000000E+00 -0.36289672018E+03  0.36289672018E+03  0.00000000000E+00 0.  1.
    9000007    1    1    2  501    0 -0.12926889024E+03  0.33078894034E+02  0.38518685215E+02  0.42342454856E+03  0.40000000000E+03 0.  1.
   -9000007    1    1    2    0  503  0.12926889024E+03 -0.33078894034E+02  0.90352836555E+02  0.43124041356E+03  0.40000000000E+03 0.  1.
<mgrwt>
<rscale>  2 0.42166890E+03</rscale>
<asrwt>0</asrwt>
<pdfrwt beam="1">  1       21 0.75656653E-01 0.42166890E+03</pdfrwt>
<pdfrwt beam="2">  1       21 0.55830265E-01 0.42166890E+03</pdfrwt>
<totfact> 0.41708462E+03</totfact>
</mgrwt>
</event>
<event>
 4    1  0.4863180E-002  0.4151572E+03  0.7818608E-02  0.1038654E+00
         21   -1    0    0  503  502  0.00000000000E+00  0.00000000000E+00  0.17266340759E+04  0.17266340759E+04  0.00000000000E+00 0.  1.
         21   -1    0    0  501  503 -0.00000000000E+00 -0.00000000000E+00 -0.12935927933E+03  0.12935927933E+03  0.00000000000E+00 0.  1.
    9000007    1    1    2  501    0  0.98477662642E+02 -0.51552332781E+02  0.35519693915E+03  0.54637016631E+03  0.40000000000E+03 0.  1.
   -9000007    1    1    2    0  502 -0.98477662642E+02  0.51552332781E+02  0.12420778574E+04  0.13096231889E+04  0.40000000000E+03 0.  1.
<mgrwt>
<rscale>  2 0.41515719E+03</rscale>
<asrwt>0</asrwt>
<pdfrwt beam="1">  1       21 0.26563600E+00 0.41515719E+03</pdfrwt>
<pdfrwt beam="2">  1       21 0.19901429E-01 0.41515719E+03</pdfrwt>
<totfact> 0.10451827E+03</totfact>
</mgrwt>
</event>
<event>
 4    1  0.4863180E-002  0.5147067E+03  0.7818608E-02  0.1010010E+00
         21   -1    0    0  501  502  0.00000000000E+00  0.00000000000E+00  0.42282202510E+03  0.42282202510E+03  0.00000000000E+00 0. -1.
         21   -1    0    0  502  503 -0.00000000000E+00 -0.00000000000E+00 -0.71189867948E+03  0.71189867948E+03  0.00000000000E+00 0.  1.
    9000007    1    1    2  501    0 -0.99196467369E+02 -0.30835535400E+03 -0.34097622768E+03  0.61740404220E+03  0.40000000000E+03 0.  1.
   -9000007    1    1    2    0  503  0.99196467369E+02  0.30835535400E+03  0.51899573293E+02  0.51731666239E+03  0.40000000000E+03 0. -1.
<mgrwt>
<rscale>  2 0.51470668E+03</rscale>
<asrwt>0</asrwt>
<pdfrwt beam="1">  1       21 0.65049543E-01 0.51470668E+03</pdfrwt>
<pdfrwt beam="2">  1       21 0.10952287E+00 0.51470668E+03</pdfrwt>
<totfact> 0.11956851E+03</totfact>
</mgrwt>
</event>
<event>
 4    1  0.4863180E-002  0.7105693E+03  0.7818608E-02  0.9699326E-01
         21   -1    0    0  503  502  0.00000000000E+00  0.00000000000E+00  0.18300580038E+04  0.18300580038E+04  0.00000000000E+00 0. -1.
         21   -1    0    0  501  503 -0.00000000000E+00 -0.00000000000E+00 -0.29414165665E+03  0.29414165665E+03  0.00000000000E+00 0.  1.
    9000007    1    1    2  501    0 -0.22864349133E+03  0.54095367450E+03  0.50344515986E+03  0.87084197939E+03  0.40000000000E+03 0.  1.
   -9000007    1    1    2    0  502  0.22864349133E+03 -0.54095367450E+03  0.10324711873E+04  0.12533576811E+04  0.40000000000E+03 0. -1.
<mgrwt>
<rscale>  2 0.71056930E+03</rscale>
<asrwt>0</asrwt>
<pdfrwt beam="1">  1       21 0.28154738E+00 0.71056930E+03</pdfrwt>
<pdfrwt beam="2">  1       21 0.45252563E-01 0.71056930E+03</pdfrwt>
<totfact> 0.14175961E+02</totfact>
</mgrwt>
</event>
<event>
 4    1  0.4863180E-002  0.4704051E+03  0.7818608E-02  0.1021806E+00
         21   -1    0    0  503  502  0.00000000000E+00  0.00000000000E+00  0.46570278256E+03  0.46570278256E+03  0.00000000000E+00 0. -1.
         21   -1    0    0  501  503 -0.00000000000E+00 -0.00000000000E+00 -0.48701888811E+03  0.48701888811E+03  0.00000000000E+00 0. -1.
    9000007    1    1    2  501    0  0.91526443934E+01 -0.24738062508E+03 -0.85007726605E+02  0.47802432798E+03  0.40000000000E+03 0. -1.
   -9000007    1    1    2    0  502 -0.91526443934E+01  0.24738062508E+03  0.63691621059E+02  0.47469734269E+03  0.40000000000E+03 0. -1.
<mgrwt>
<rscale>  2 0.47040509E+03</rscale>
<asrwt>0</asrwt>
<pdfrwt beam="1">  1       21 0.71646582E-01 0.47040509E+03</pdfrwt>
<pdfrwt beam="2">  1       21 0.74925983E-01 0.47040509E+03</pdfrwt>
<totfact> 0.24141537E+03</totfact>
</mgrwt>
</event>
<event>
 4    1  0.4863180E-002  0.4318952E+03  0.7818608E-02  0.1033263E+00
         21   -1    0    0  501  502  0.00000000000E+00  0.00000000000E+00  0.80057883683E+02  0.80057883683E+02  0.00000000000E+00 0.  1.
         21   -1    0    0  502  503 -0.00000000000E+00 -0.00000000000E+00 -0.24400108401E+04  0.24400108401E+04  0.00000000000E+00 0.  1.
    9000007    1    1    2  501    0  0.36454894655E+02  0.15875931432E+03 -0.91240580345E+03  0.10094641298E+04  0.40000000000E+03 0. -1.
   -9000007    1    1    2    0  503 -0.36454894655E+02 -0.15875931432E+03 -0.14475471529E+04  0.15106045939E+04  0.40000000000E+03 0. -1.
<mgrwt>
<rscale>  2 0.43189522E+03</rscale>
<asrwt>0</asrwt>
<pdfrwt beam="1">  1       21 0.12316599E-01 0.43189522E+03</pdfrwt>
<pdfrwt beam="2">  1       21 0.37538622E+00 0.43189522E+03</pdfrwt>
<totfact> 0.54563654E+02</totfact>
</mgrwt>
</event>
<event>
 4    1  0.4863180E-002  0.5580367E+03  0.7818608E-02  0.9996507E-01
         21   -1    0    0  501  502  0.00000000000E+00  0.00000000000E+00  0.22539176217E+03  0.22539176217E+03  0.00000000000E+00 0. -1.
         21   -1    0    0  502  503 -0.00000000000E+00 -0.00000000000E+00 -0.13885641983E+04  0.13885641983E+04  0.00000000000E+00 0. -1.
    9000007    1    1    2  501    0 -0.38366321472E+03 -0.64865581102E+02 -0.63866770054E+03  0.84811640572E+03  0.40000000000E+03 0. -1.
   -9000007    1    1    2    0  503  0.38366321472E+03  0.64865581102E+02 -0.52450473555E+03  0.76583955471E+03  0.40000000000E+03 0. -1.
<mgrwt>
<rscale>  2 0.55803674E+03</rscale>
<asrwt>0</asrwt>
<pdfrwt beam="1">  1       21 0.34675656E-01 0.55803674E+03</pdfrwt>
<pdfrwt beam="2">  1       21 0.21362526E+00 0.55803674E+03</pdfrwt>
<totfact> 0.69627328E+02</totfact>
</mgrwt>
</event>
<event>
 4    1  0.4863180E-002  0.6187786E+03  0.7818608E-02  0.9867194E-01
         21   -1    0    0  503  502  0.00000000000E+00  0.00000000000E+00  0.90754707327E+03  0.90754707327E+03  0.00000000000E+00 0. -1.
         21   -1    0    0  501  503 -0.00000000000E+00 -0.00000000000E+00 -0.42659155083E+03  0.42659155083E+03  0.00000000000E+00 0. -1.
    9000007    1    1    2  501    0 -0.47140341633E+03  0.25803355550E+02  0.17046363574E+03  0.64182929599E+03  0.40000000000E+03 0. -1.
   -9000007    1    1    2    0  502  0.47140341633E+03 -0.25803355550E+02  0.31049188670E+03  0.69230932811E+03  0.40000000000E+03 0. -1.
<mgrwt>
<rscale>  2 0.61877863E+03</rscale>
<asrwt>0</asrwt>
<pdfrwt beam="1">  1       21 0.13962263E+00 0.61877863E+03</pdfrwt>
<pdfrwt beam="2">  1       21 0.65629470E-01 0.61877863E+03</pdfrwt>
<totfact> 0.60546347E+02</totfact>
</mgrwt>
</event>
<event>
 4    1  0.4863180E-002  0.5926955E+03  0.7818608E-02  0.9920677E-01
         21   -1    0    0  503  502  0.00000000000E+00  0.00000000000E+00  0.53763668482E+03  0.53763668482E+03  0.00000000000E+00 0. -1.
         21   -1    0    0  501  503 -0.00000000000E+00 -0.00000000000E+00 -0.11842707070E+04  0.11842707070E+04  0.00000000000E+00 0.  1.
    9000007    1    1    2  501    0  0.28403039632E+02  0.43644157895E+03 -0.89975367033E+03  0.10774250098E+04  0.40000000000E+03 0.  1.
   -9000007    1    1    2    0  502 -0.28403039632E+02 -0.43644157895E+03  0.25311964812E+03  0.64448238204E+03  0.40000000000E+03 0. -1.
<mgrwt>
<rscale>  2 0.59269552E+03</rscale>
<asrwt>0</asrwt>
<pdfrwt beam="1">  1       21 0.82713337E-01 0.59269552E+03</pdfrwt>
<pdfrwt beam="2">  1       21 0.18219549E+00 0.59269552E+03</pdfrwt>
<totfact> 0.17010058E+02</totfact>
</mgrwt>
</event>
<event>
 4    1  0.4863180E-002  0.4871648E+03  0.7818608E-02  0.1017184E+00
         21   -1    0    0  503  502  0.00000000000E+00  0.00000000000E+00  0.40984018044E+03  0.40984018044E+03  0.00000000000E+00 0. -1.
         21   -1    0    0  501  503 -0.00000000000E+00 -0.00000000000E+00 -0.58521572009E+03  0.58521572009E+03  0.00000000000E+00 0.  1.
    9000007    1    1    2  501    0 -0.27553521022E+03 -0.37548359477E+02 -0.36736565572E+02  0.48854795734E+03  0.40000000000E+03 0. -1.
   -9000007    1    1    2    0  502  0.27553521022E+03  0.37548359477E+02 -0.13863897408E+03  0.50650794318E+03  0.40000000000E+03 0.  1.
<mgrwt>
<rscale>  2 0.48716479E+03</rscale>
<asrwt>0</asrwt>
<pdfrwt beam="1">  1       21 0.63052336E-01 0.48716479E+03</pdfrwt>
<pdfrwt beam="2">  1       21 0.90033187E-01 0.48716479E+03</pdfrwt>
<totfact> 0.20837361E+03</totfact>
</mgrwt>
</event>
<event>
 4    1  0.4863180E-002  0.4322609E+03  0.7818608E-02  0.1033148E+00
         21   -1    0    0  501  502  0.00000000000E+00  0.00000000000E+00  0.26916410986E+03  0.26916410986E+03  0.00000000000E+00 0. -1.
         21   -1    0    0  502  503 -0.00000000000E+00 -0.00000000000E+00 -0.69710926075E+03  0.69710926075E+03  0.00000000000E+00 0. -1.
    9000007    1    1    2  501    0  0.12725020921E+03 -0.10323198600E+03 -0.24526871604E+03  0.49699718485E+03  0.40000000000E+03 0.  1.
   -9000007    1    1    2    0  503 -0.12725020921E+03  0.10323198600E+03 -0.18267643485E+03  0.46927618577E+03  0.40000000000E+03 0.  1.
<mgrwt>
<rscale>  2 0.43226087E+03</rscale>
<asrwt>0</asrwt>
<pdfrwt beam="1">  1       21 0.41409864E-01 0.43226087E+03</pdfrwt>
<pdfrwt beam="2">  1       21 0.10724758E+00 0.43226087E+03</pdfrwt>
<totfact> 0.34173342E+03</totfact>
</mgrwt>
</event>
<event>
 4    1  0.4863180E-002  0.4056771E+03  0.7818608E-02  0.1041831E+00
         21   -1    0    0  503  502  0.00000000000E+00  0.00000000000E+00  0.11892630931E+04  0.11892630931E+04  0.00000000000E+00 0.  1.
         21   -1    0    0  501  503 -0.00000000000E+00 -0.00000000000E+00 -0.19576450345E+03  0.19576450345E+03  0.00000000000E+00 0.  1.
    9000007    1    1    2  501    0  0.26588751851E+02 -0.62184750451E+02  0.12182199164E+03  0.42357349133E+03  0.40000000000E+03 0.  1.
   -9000007    1    1    2    0  502 -0.26588751851E+02  0.62184750451E+02  0.87167659805E+03  0.96145410525E+03  0.40000000000E+03 0.  1.
<mgrwt>
<rscale>  2 0.40567709E+03</rscale>
<asrwt>0</asrwt>
<pdfrwt beam="1">  1       21 0.18296355E+00 0.40567709E+03</pdfrwt>
<pdfrwt beam="2">  1       21 0.30117617E-01 0.40567709E+03</pdfrwt>
<totfact> 0.15846649E+03</totfact>
</mgrwt>
</event>
<event>
 4    1  0.4863180E-002  0.4483989E+03  0.7818608E-02  0.1028201E+00
         21   -1    0    0  501  502  0.00000000000E+00  0.00000000000E+00  0.52283678909E+03  0.52283678909E+03  0.00000000000E+00 0. -1.
         21   -1    0    0  502  503 -0.00000000000E+00 -0.00000000000E+00 -0.72131392061E+03  0.72131392061E+03  0.00000000000E+00 0. -1.
    9000007    1    1    2  501    0  0.20262154866E+03  0.24657633445E+01  0.32580930007E+03  0.55426823108E+03  0.40000000000E+03 0. -1.
   -9000007    1    1    2    0  503 -0.20262154866E+03 -0.24657633445E+01 -0.52428643159E+03  0.68988247863E+03  0.40000000000E+03 0. -1.
<mgrwt>
<rscale>  2 0.44839890E+03</rscale>
<asrwt>0</asrwt>
<pdfrwt beam="1">  1       21 0.80436429E-01 0.44839890E+03</pdfrwt>
<pdfrwt beam="2">  1       21 0.11097137E+00 0.44839890E+03</pdfrwt>
<totfact> 0.73346319E+02</totfact>
</mgrwt>
</event>
<event>
 4    1  0.4863180E-002  0.4269647E+03  0.7818608E-02  0.1034823E+00
         21   -1    0    0  501  502  0.00000000000E+00  0.00000000000E+00  0.60175045060E+03  0.60175045060E+03  0.00000000000E+00 0.  1.
         21   -1    0    0  502  503 -0.00000000000E+00 -0.00000000000E+00 -0.37062777624E+03  0.37062777624E+03  0.00000000000E+00 0.  1.
    9000007    1    1    2  501    0  0.13826646826E+03  0.56402848753E+02  0.32332364485E+03  0.53557172901E+03  0.40000000000E+03 0.  1.
   -9000007    1    1    2    0  503 -0.13826646826E+03 -0.56402848753E+02 -0.92200970491E+02  0.43680649784E+03  0.40000000000E+03 0.  1.
<mgrwt>
<rscale>  2 0.42696475E+03</rscale>
<asrwt>0</asrwt>
<pdfrwt beam="1">  1       21 0.92576992E-01 0.42696475E+03</pdfrwt>
<pdfrwt beam="2">  1       21 0.57019658E-01 0.42696475E+03</pdfrwt>
<totfact> 0.24852694E+03</totfact>
</mgrwt>
</event>
<event>
 4    1  0.4863180E-002  0.4019724E+03  0.7818608E-02  0.1043099E+00
         21   -1    0    0  503  502  0.00000000000E+00  0.00000000000E+00  0.18824738376E+03  0.18824738376E+03  0.00000000000E+00 0.  1.
         21   -1    0    0  501  503 -0.00000000000E+00 -0.00000000000E+00 -0.97905005224E+03  0.97905005224E+03  0.00000000000E+00 0.  1.
    9000007    1    1    2  501    0  0.39180238565E+02  0.68377358458E+01 -0.19047128351E+03  0.44481586704E+03  0.40000000000E+03 0.  1.
   -9000007    1    1    2    0  502 -0.39180238565E+02 -0.68377358458E+01 -0.60033138497E+03  0.72248156897E+03  0.40000000000E+03 0.  1.
<mgrwt>
<rscale>  2 0.40197244E+03</rscale>
<asrwt>0</asrwt>
<pdfrwt beam="1">  1       21 0.28961137E-01 0.40197244E+03</pdfrwt>
<pdfrwt beam="2">  1       21 0.15062308E+00 0.40197244E+03</pdfrwt>
<totfact> 0.29657327E+03</totfact>
</mgrwt>
</event>
<event>
 4    1  0.4863180E-002  0.5544376E+03  0.7818608E-02  0.1000472E+00
         21   -1    0    0  501  502  0.00000000000E+00  0.00000000000E+00  0.29763125548E+04  0.29763125548E+04  0.00000000000E+00 0. -1.
         21   -1    0    0  502  503 -0.00000000000E+00 -0.00000000000E+00 -0.11732370995E+03  0.11732370995E+03  0.00000000000E+00 0.  1.
    9000007    1    1    2  501    0  0.29856623207E+03 -0.24136964547E+03  0.19646106379E+04  0.20413466288E+04  0.40000000000E+03 0. -1.
   -9000007    1    1    2    0  503 -0.29856623207E+03  0.24136964547E+03  0.89437820695E+03  0.10522896359E+04  0.40000000000E+03 0.  1.
<mgrwt>
<rscale>  2 0.55443764E+03</rscale>
<asrwt>0</asrwt>
<pdfrwt beam="1">  1       21 0.45789418E+00 0.55443764E+03</pdfrwt>
<pdfrwt beam="2">  1       21 0.18049804E-01 0.55443764E+03</pdfrwt>
<totfact> 0.71752063E+01</totfact>
</mgrwt>
</event>
<event>
 4    1  0.4863180E-002  0.4843550E+03  0.7818608E-02  0.1017945E+00
         21   -1    0    0  503  502  0.00000000000E+00  0.00000000000E+00  0.24180446528E+03  0.24180446528E+03  0.00000000000E+00 0. -1.
         21   -1    0    0  501  503 -0.00000000000E+00 -0.00000000000E+00 -0.13141667809E+04  0.13141667809E+04  0.00000000000E+00 0. -1.
    9000007    1    1    2  501    0  0.12763166723E+03 -0.24147455833E+03 -0.93419820662E+03  0.10522956305E+04  0.40000000000E+03 0. -1.
   -9000007    1    1    2    0  502 -0.12763166723E+03  0.24147455833E+03 -0.13816410904E+03  0.50367561567E+03  0.40000000000E+03 0. -1.
<mgrwt>
<rscale>  2 0.48435504E+03</rscale>
<asrwt>0</asrwt>
<pdfrwt beam="1">  1       21 0.37200686E-01 0.48435504E+03</pdfrwt>
<pdfrwt beam="2">  1       21 0.20217951E+00 0.48435504E+03</pdfrwt>
<totfact> 0.73979152E+02</totfact>
</mgrwt>
</event>
<event>
 4    1  0.4863180E-002  0.4249680E+03  0.7818608E-02  0.1035461E+00
         21   -1    0    0  501  502  0.00000000000E+00  0.00000000000E+00  0.40477948635E+03  0.40477948635E+03  0.00000000000E+00 0. -1.
         21   -1    0    0  502  503 -0.00000000000E+00 -0.00000000000E+00 -0.58535331418E+03  0.58535331418E+03  0.00000000000E+00 0. -1.
    9000007    1    1    2  501    0 -0.14198142179E+03 -0.20953638076E+02  0.15112480269E+03  0.45103933872E+03  0.40000000000E+03 0. -1.
   -9000007    1    1    2    0  503  0.14198142179E+03  0.20953638076E+02 -0.33169863051E+03  0.53909346181E+03  0.40000000000E+03 0. -1.
<mgrwt>
<rscale>  2 0.42496797E+03</rscale>
<asrwt>0</asrwt>
<pdfrwt beam="1">  1       21 0.62273767E-01 0.42496797E+03</pdfrwt>
<pdfrwt beam="2">  1       21 0.90054356E-01 0.42496797E+03</pdfrwt>
<totfact> 0.21901433E+03</totfact>
</mgrwt>
</event>
<event>
 4    1  0.4863180E-002  0.4901604E+03  0.7818608E-02  0.1016380E+00
         21   -1    0    0  503  502  0.00000000000E+00  0.00000000000E+00  0.86087625206E+03  0.86087625206E+03  0.00000000000E+00 0.  1.
         21   -1    0    0  501  503 -0.00000000000E+00 -0.00000000000E+00 -0.27999158925E+03  0.27999158925E+03  0.00000000000E+00 0.  1.
    9000007    1    1    2  501    0 -0.10304783730E+03 -0.26389074015E+03  0.32291131283E+03  0.58696583841E+03  0.40000000000E+03 0.  1.
   -9000007    1    1    2    0  502  0.10304783730E+03  0.26389074015E+03  0.25797334997E+03  0.55390200289E+03  0.40000000000E+03 0.  1.
<mgrwt>
<rscale>  2 0.49016036E+03</rscale>
<asrwt>0</asrwt>
<pdfrwt beam="1">  1       21 0.13244250E+00 0.49016036E+03</pdfrwt>
<pdfrwt beam="2">  1       21 0.43075629E-01 0.49016036E+03</pdfrwt>
<totfact> 0.18049294E+03</totfact>
</mgrwt>
</event>
<event>
 4    1  0.4863180E-002  0.4080778E+03  0.7818608E-02  0.1041018E+00
         21   -1    0    0  503  502  0.00000000000E+00  0.00000000000E+00  0.44048161625E+03  0.44048161625E+03  0.00000000000E+00 0. -1.
         21   -1    0    0  501  503 -0.00000000000E+00 -0.00000000000E+00 -0.41342922233E+03  0.41342922233E+03  0.00000000000E+00 0. -1.
    9000007    1    1    2  501    0 -0.75422252300E+02 -0.28965743277E+02 -0.11135812871E+03  0.42299901094E+03  0.40000000000E+03 0. -1.
   -9000007    1    1    2    0  502  0.75422252300E+02  0.28965743277E+02  0.13841052264E+03  0.43091182764E+03  0.40000000000E+03 0. -1.
<mgrwt>
<rscale>  2 0.40807785E+03</rscale>
<asrwt>0</asrwt>
<pdfrwt beam="1">  1       21 0.67766402E-01 0.40807785E+03</pdfrwt>
<pdfrwt beam="2">  1       21 0.63604496E-01 0.40807785E+03</pdfrwt>
<totfact> 0.40423779E+03</totfact>
</mgrwt>
</event>
<event>
 4    1  0.4863180E-002  0.6088898E+03  0.7818608E-02  0.9887132E-01
         21   -1    0    0  501  502  0.00000000000E+00  0.00000000000E+00  0.17707130770E+04  0.17707130770E+04  0.00000000000E+00 0. -1.
         21   -1    0    0  502  503 -0.00000000000E+00 -0.00000000000E+00 -0.38227343292E+03  0.38227343292E+03  0.00000000000E+00 0.  1.
    9000007    1    1    2  501    0 -0.44793088310E+03 -0.10052249127E+03  0.14181840208E+04  0.15433705855E+04  0.40000000000E+03 0. -1.
   -9000007    1    1    2    0  503  0.44793088310E+03  0.10052249127E+03 -0.29744376797E+02  0.60961592437E+03  0.40000000000E+03 0. -1.
<mgrwt>
<rscale>  2 0.60888985E+03</rscale>
<asrwt>0</asrwt>
<pdfrwt beam="1">  1       21 0.27241739E+00 0.60888985E+03</pdfrwt>
<pdfrwt beam="2">  1       21 0.58811298E-01 0.60888985E+03</pdfrwt>
<totfact> 0.95537628E+01</totfact>
</mgrwt>
</event>
<event>
 4    1  0.4863180E-002  0.4020937E+03  0.7818608E-02  0.1043057E+00
         21   -1    0    0  503  502  0.00000000000E+00  0.00000000000E+00  0.14618271381E+03  0.14618271381E+03  0.00000000000E+00 0.  1.
         21   -1    0    0  501  503 -0.00000000000E+00 -0.00000000000E+00 -0.21036062700E+04  0.21036062700E+04  0.00000000000E+00 0.  1.
    9000007    1    1    2  501    0 -0.40690057386E+02 -0.48676642105E+01 -0.17533648028E+04  0.17988795142E+04  0.40000000000E+03 0.  1.
   -9000007    1    1    2    0  502  0.40690057386E+02  0.48676642105E+01 -0.20405875333E+03  0.45090946956E+03  0.40000000000E+03 0.  1.
<mgrwt>
<rscale>  2 0.40209374E+03</rscale>
<asrwt>0</asrwt>
<pdfrwt beam="1">  1       21 0.22489651E-01 0.40209374E+03</pdfrwt>
<pdfrwt beam="2">  1       21 0.32363170E+00 0.40209374E+03</pdfrwt>
<totfact> 0.37435447E+02</totfact>
</mgrwt>
</event>
<event>
 4    1  0.4863180E-002  0.4025539E+03  0.7818608E-02  0.1042899E+00
         21   -1    0    0  503  502  0.00000000000E+00  0.00000000000E+00  0.15659017330E+04  0.15659017330E+04  0.00000000000E+00 0. -1.
         21   -1    0    0  501  503 -0.00000000000E+00 -0.00000000000E+00 -0.11925940799E+03  0.11925940799E+03  0.00000000000E+00 0. -1.
    9000007    1    1    2  501    0  0.35277925329E+02  0.28374406326E+02  0.41689810140E+03  0.57952883095E+03  0.40000000000E+03 0.  1.
   -9000007    1    1    2    0  502 -0.35277925329E+02 -0.28374406326E+02  0.10297442236E+04  0.11056323100E+04  0.40000000000E+03 0.  1.
<mgrwt>
<rscale>  2 0.40255390E+03</rscale>
<asrwt>0</asrwt>
<pdfrwt beam="1">  1       21 0.24090794E+00 0.40255390E+03</pdfrwt>
<pdfrwt beam="2">  1       21 0.18347602E-01 0.40255390E+03</pdfrwt>
<totfact> 0.17368600E+03</totfact>
</mgrwt>
</event>
<event>
 4    1  0.4863180E-002  0.4478030E+03  0.7818608E-02  0.1028379E+00
         21   -1    0    0  501  502  0.00000000000E+00  0.00000000000E+00  0.69216364837E+03  0.69216364837E+03  0.00000000000E+00 0. -1.
         21   -1    0    0  502  503 -0.00000000000E+00 -0.00000000000E+00 -0.14523434418E+04  0.14523434418E+04  0.00000000000E+00 0.  1.
    9000007    1    1    2  501    0 -0.20120081053E+03  0.67627720265E+01  0.57927544335E+03  0.73217999188E+03  0.40000000000E+03 0. -1.
   -9000007    1    1    2    0  503  0.20120081053E+03 -0.67627720265E+01 -0.13394552368E+04  0.14123270983E+04  0.40000000000E+03 0.  1.
<mgrwt>
<rscale>  2 0.44780297E+03</rscale>
<asrwt>0</asrwt>
<pdfrwt beam="1">  1       21 0.10648672E+00 0.44780297E+03</pdfrwt>
<pdfrwt beam="2">  1       21 0.22343745E+00 0.44780297E+03</pdfrwt>
<totfact> 0.52861504E+01</totfact>
</mgrwt>
</event>
<event>
 4    1  0.4863180E-002  0.5102569E+03  0.7818608E-02  0.1011136E+00
         21   -1    0    0  503  502  0.00000000000E+00  0.00000000000E+00  0.13965198293E+04  0.13965198293E+04  0.00000000000E+00 0. -1.
         21   -1    0    0  501  503 -0.00000000000E+00 -0.00000000000E+00 -0.10406953431E+04  0.10406953431E+04  0.00000000000E+00 0. -1.
    9000007    1    1    2  501    0 -0.65830913144E+02 -0.30988450204E+03 -0.92615834778E+03  0.10574173249E+04  0.40000000000E+03 0. -1.
   -9000007    1    1    2    0  502  0.65830913144E+02  0.30988450204E+03  0.12819828340E+04  0.13797978476E+04  0.40000000000E+03 0. -1.
<mgrwt>
<rscale>  2 0.51025691E+03</rscale>
<asrwt>0</asrwt>
<pdfrwt beam="1">  1       21 0.21484920E+00 0.51025691E+03</pdfrwt>
<pdfrwt beam="2">  1       21 0.16010698E+00 0.51025691E+03</pdfrwt>
<totfact> 0.19903110E+01</totfact>
</mgrwt>
</event>
<event>
 4    1  0.4863180E-002  0.4530077E+03  0.7818608E-02  0.1026829E+00
         21   -1    0    0  503  502  0.00000000000E+00  0.00000000000E+00  0.43197170699E+03  0.43197170699E+03  0.00000000000E+00 0. -1.
         21   -1    0    0  501  503 -0.00000000000E+00 -0.00000000000E+00 -0.65029439964E+03  0.65029439964E+03  0.00000000000E+00 0.  1.
    9000007    1    1    2  501    0  0.17968458392E+03  0.11370752940E+03  0.17173673656E+03  0.48446822251E+03  0.40000000000E+03 0. -1.
   -9000007    1    1    2    0  502 -0.17968458392E+03 -0.11370752940E+03 -0.39005942921E+03  0.59779788412E+03  0.40000000000E+03 0.  1.
<mgrwt>
<rscale>  2 0.45300767E+03</rscale>
<asrwt>0</asrwt>
<pdfrwt beam="1">  1       21 0.66457186E-01 0.45300767E+03</pdfrwt>
<pdfrwt beam="2">  1       21 0.10004529E+00 0.45300767E+03</pdfrwt>
<totfact> 0.14576855E+03</totfact>
</mgrwt>
</event>
<event>
 4    1  0.4863180E-002  0.4112221E+03  0.7818608E-02  0.1039962E+00
         21   -1    0    0  503  502  0.00000000000E+00  0.00000000000E+00  0.74019002908E+03  0.74019002908E+03  0.00000000000E+00 0. -1.
         21   -1    0    0  501  503 -0.00000000000E+00 -0.00000000000E+00 -0.33352184318E+03  0.33352184318E+03  0.00000000000E+00 0. -1.
    9000007    1    1    2  501    0 -0.93011860084E+02 -0.21270409239E+02 -0.97979429328E+02  0.42273349169E+03  0.40000000000E+03 0. -1.
   -9000007    1    1    2    0  502  0.93011860084E+02  0.21270409239E+02  0.50464761523E+03  0.65097838058E+03  0.40000000000E+03 0. -1.
<mgrwt>
<rscale>  2 0.41122213E+03</rscale>
<asrwt>0</asrwt>
<pdfrwt beam="1">  1       21 0.11387539E+00 0.41122213E+03</pdfrwt>
<pdfrwt beam="2">  1       21 0.51311053E-01 0.41122213E+03</pdfrwt>
<totfact> 0.18933987E+03</totfact>
</mgrwt>
</event>
<event>
 4    1  0.4863180E-002  0.4590238E+03  0.7818608E-02  0.1025065E+00
         21   -1    0    0  501  502  0.00000000000E+00  0.00000000000E+00  0.49951537394E+03  0.49951537394E+03  0.00000000000E+00 0. -1.
         21   -1    0    0  502  503 -0.00000000000E+00 -0.00000000000E+00 -0.61614418614E+03  0.61614418614E+03  0.00000000000E+00 0. -1.
    9000007    1    1    2  501    0 -0.22510820483E+03  0.53952987339E+01  0.25496375823E+03  0.52508030923E+03  0.40000000000E+03 0. -1.
   -9000007    1    1    2    0  503  0.22510820483E+03 -0.53952987339E+01 -0.37159257044E+03  0.59057925085E+03  0.40000000000E+03 0. -1.
<mgrwt>
<rscale>  2 0.45902376E+03</rscale>
<asrwt>0</asrwt>
<pdfrwt beam="1">  1       21 0.76848519E-01 0.45902376E+03</pdfrwt>
<pdfrwt beam="2">  1       21 0.94791413E-01 0.45902376E+03</pdfrwt>
<totfact> 0.11924516E+03</totfact>
</mgrwt>
</event>
<event>
 4    1  0.4863180E-002  0.4400512E+03  0.7818608E-02  0.1030731E+00
         21   -1    0    0  501  502  0.00000000000E+00  0.00000000000E+00  0.29411752994E+03  0.29411752994E+03  0.00000000000E+00 0.  1.
         21   -1    0    0  502  503 -0.00000000000E+00 -0.00000000000E+00 -0.68272637103E+03  0.68272637103E+03  0.00000000000E+00 0. -1.
    9000007    1    1    2  501    0 -0.58646122339E+02  0.17379779330E+03 -0.28651259022E+03  0.52510428010E+03  0.40000000000E+03 0.  1.
   -9000007    1    1    2    0  503  0.58646122339E+02 -0.17379779330E+03 -0.10209625087E+03  0.45173962087E+03  0.40000000000E+03 0.  1.
<mgrwt>
<rscale>  2 0.44005118E+03</rscale>
<asrwt>0</asrwt>
<pdfrwt beam="1">  1       21 0.45248851E-01 0.44005118E+03</pdfrwt>
<pdfrwt beam="2">  1       21 0.10503483E+00 0.44005118E+03</pdfrwt>
<totfact> 0.29825507E+03</totfact>
</mgrwt>
</event>
<event>
 4    1  0.4863180E-002  0.4083573E+03  0.7818608E-02  0.1040924E+00
         21   -1    0    0  501  502  0.00000000000E+00  0.00000000000E+00  0.16033166154E+04  0.16033166154E+04  0.00000000000E+00 0. -1.
         21   -1    0    0  502  503 -0.00000000000E+00 -0.00000000000E+00 -0.15824489225E+03  0.15824489225E+03  0.00000000000E+00 0. -1.
    9000007    1    1    2  501    0 -0.71996497879E+02 -0.39650977778E+02  0.12381864351E+04  0.13037873077E+04  0.40000000000E+03 0. -1.
   -9000007    1    1    2    0  503  0.71996497879E+02  0.39650977778E+02  0.20688528814E+03  0.45777420001E+03  0.40000000000E+03 0. -1.
<mgrwt>
<rscale>  2 0.40835731E+03</rscale>
<asrwt>0</asrwt>
<pdfrwt beam="1">  1       21 0.24666408E+00 0.40835731E+03</pdfrwt>
<pdfrwt beam="2">  1       21 0.24345369E-01 0.40835731E+03</pdfrwt>
<totfact> 0.92984043E+02</totfact>
</mgrwt>
</event>
<event>
 4    1  0.4863180E-002  0.5254726E+03  0.7818608E-02  0.1007336E+00
         21   -1    0    0  501  502  0.00000000000E+00  0.00000000000E+00  0.76775487912E+03  0.76775487912E+03  0.00000000000E+00 0.  1.
         21   -1    0    0  502  503 -0.00000000000E+00 -0.00000000000E+00 -0.36000612847E+03  0.36000612847E+03  0.00000000000E+00 0.  1.
    9000007    1    1    2  501    0  0.28385230508E+03 -0.18854528592E+03  0.22166092403E+03  0.57031133707E+03  0.40000000000E+03 0.  1.
   -9000007    1    1    2    0  503 -0.28385230508E+03  0.18854528592E+03  0.18608782663E+03  0.55744967052E+03  0.40000000000E+03 0.  1.
<mgrwt>
<rscale>  2 0.52547260E+03</rscale>
<asrwt>0</asrwt>
<pdfrwt beam="1">  1       21 0.11811613E+00 0.52547260E+03</pdfrwt>
<pdfrwt beam="2">  1       21 0.55385559E-01 0.52547260E+03</pdfrwt>
<totfact> 0.14040882E+03</totfact>
</mgrwt>
</event>
<event>
 4    1  0.4863180E-002  0.4164115E+03  0.7818608E-02  0.1038241E+00
         21   -1    0    0  501  502  0.00000000000E+00  0.00000000000E+00  0.32485291700E+03  0.32485291700E+03  0.00000000000E+00 0. -1.
         21   -1    0    0  502  503 -0.00000000000E+00 -0.00000000000E+00 -0.99181697536E+03  0.99181697536E+03  0.00000000000E+00 0. -1.
    9000007    1    1    2  501    0  0.87402712473E+02 -0.75890204349E+02  0.11390511534E+03  0.43170931489E+03  0.40000000000E+03 0. -1.
   -9000007    1    1    2    0  503 -0.87402712473E+02  0.75890204349E+02 -0.78086917369E+03  0.88496057748E+03  0.40000000000E+03 0. -1.
<mgrwt>
<rscale>  2 0.41641152E+03</rscale>
<asrwt>0</asrwt>
<pdfrwt beam="1">  1       21 0.49977373E-01 0.41641152E+03</pdfrwt>
<pdfrwt beam="2">  1       21 0.15258722E+00 0.41641152E+03</pdfrwt>
<totfact> 0.93243101E+02</totfact>
</mgrwt>
</event>
<event>
 4    1  0.4863180E-002  0.4674889E+03  0.7818608E-02  0.1022631E+00
         21   -1    0    0  503  502  0.00000000000E+00  0.00000000000E+00  0.40508040855E+03  0.40508040855E+03  0.00000000000E+00 0.  1.
         21   -1    0    0  501  503 -0.00000000000E+00 -0.00000000000E+00 -0.69528899117E+03  0.69528899117E+03  0.00000000000E+00 0.  1.
    9000007    1    1    2  501    0  0.22116441709E+03 -0.98143709918E+02 -0.40552588134E+03  0.61886761720E+03  0.40000000000E+03 0.  1.
   -9000007    1    1    2    0  502 -0.22116441709E+03  0.98143709918E+02  0.11531729872E+03  0.48150178252E+03  0.40000000000E+03 0.  1.
<mgrwt>
<rscale>  2 0.46748892E+03</rscale>
<asrwt>0</asrwt>
<pdfrwt beam="1">  1       21 0.62320064E-01 0.46748892E+03</pdfrwt>
<pdfrwt beam="2">  1       21 0.10696754E+00 0.46748892E+03</pdfrwt>
<totfact> 0.14185586E+03</totfact>
</mgrwt>
</event>
<event>
 4    1  0.4863180E-002  0.4107708E+03  0.7818608E-02  0.1040113E+00
         21   -1    0    0  503  502  0.00000000000E+00  0.00000000000E+00  0.98410653600E+03  0.98410653600E+03  0.00000000000E+00 0.  1.
         21   -1    0    0  501  503 -0.00000000000E+00 -0.00000000000E+00 -0.18043632869E+03  0.18043632869E+03  0.00000000000E+00 0.  1.
    9000007    1    1    2  501    0  0.93383913504E+02 -0.34808657488E+01  0.27194747224E+03  0.49263383906E+03  0.40000000000E+03 0.  1.
   -9000007    1    1    2    0  502 -0.93383913504E+02  0.34808657488E+01  0.53172273507E+03  0.67190902562E+03  0.40000000000E+03 0.  1.
<mgrwt>
<rscale>  2 0.41077083E+03</rscale>
<asrwt>0</asrwt>
<pdfrwt beam="1">  1       21 0.15140100E+00 0.41077083E+03</pdfrwt>
<pdfrwt beam="2">  1       21 0.27759436E-01 0.41077083E+03</pdfrwt>
<totfact> 0.31673764E+03</totfact>
</mgrwt>
</event>
<event>
 4    1  0.4863180E-002  0.5305700E+03  0.7818608E-02  0.1006094E+00
         21   -1    0    0  501  502  0.00000000000E+00  0.00000000000E+00  0.17652354495E+04  0.17652354495E+04  0.00000000000E+00 0.  1.
         21   -1    0    0  502  503 -0.00000000000E+00 -0.00000000000E+00 -0.49194404897E+03  0.49194404897E+03  0.00000000000E+00 0. -1.
    9000007    1    1    2  501    0  0.34315899341E+03 -0.61207731104E+02  0.15644496987E+04  0.16519707446E+04  0.40000000000E+03 0.  1.
   -9000007    1    1    2    0  503 -0.34315899341E+03  0.61207731104E+02 -0.29115829824E+03  0.60520875385E+03  0.40000000000E+03 0. -1.
<mgrwt>
<rscale>  2 0.53056996E+03</rscale>
<asrwt>0</asrwt>
<pdfrwt beam="1">  1       21 0.27157468E+00 0.53056996E+03</pdfrwt>
<pdfrwt beam="2">  1       21 0.75683701E-01 0.53056996E+03</pdfrwt>
<totfact> 0.57046325E+01</totfact>
</mgrwt>
</event>
<event>
 4    1  0.4863180E-002  0.4340774E+03  0.7818608E-02  0.1032580E+00
         21   -1    0    0  501  502  0.00000000000E+00  0.00000000000E+00  0.39339863992E+03  0.39339863992E+03  0.00000000000E+00 0. -1.
         21   -1    0    0  502  503 -0.00000000000E+00 -0.00000000000E+00 -0.62097406648E+03  0.62097406648E+03  0.00000000000E+00 0. -1.
    9000007    1    1    2  501    0 -0.14831293292E+02 -0.16793803550E+03 -0.35633301250E+03  0.56160160864E+03  0.40000000000E+03 0. -1.
   -9000007    1    1    2    0  503  0.14831293292E+02  0.16793803550E+03  0.12875758594E+03  0.45277109776E+03  0.40000000000E+03 0. -1.
<mgrwt>
<rscale>  2 0.43407736E+03</rscale>
<asrwt>0</asrwt>
<pdfrwt beam="1">  1       21 0.60522868E-01 0.43407736E+03</pdfrwt>
<pdfrwt beam="2">  1       21 0.95534471E-01 0.43407736E+03</pdfrwt>
<totfact> 0.20186325E+03</totfact>
</mgrwt>
</event>
<event>
 4    1  0.4863180E-002  0.5275342E+03  0.7818608E-02  0.1006832E+00
         21   -1    0    0  503  502  0.00000000000E+00  0.00000000000E+00  0.16656895242E+04  0.16656895242E+04  0.00000000000E+00 0. -1.
         21   -1    0    0  501  503 -0.00000000000E+00 -0.00000000000E+00 -0.62814378092E+03  0.62814378092E+03  0.00000000000E+00 0. -1.
    9000007    1    1    2  501    0  0.20751772425E+03  0.27427864253E+03 -0.46384791615E+03  0.70245801934E+03  0.40000000000E+03 0. -1.
   -9000007    1    1    2    0  502 -0.20751772425E+03 -0.27427864253E+03  0.15013936595E+04  0.15913752858E+04  0.40000000000E+03 0. -1.
<mgrwt>
<rscale>  2 0.52753424E+03</rscale>
<asrwt>0</asrwt>
<pdfrwt beam="1">  1       21 0.25625993E+00 0.52753424E+03</pdfrwt>
<pdfrwt beam="2">  1       21 0.96637505E-01 0.52753424E+03</pdfrwt>
<totfact> 0.39896021E+01</totfact>
</mgrwt>
</event>
<event>
 4    1  0.4863180E-002  0.4368023E+03  0.7818608E-02  0.1031732E+00
         21   -1    0    0  503  502  0.00000000000E+00  0.00000000000E+00  0.15787482019E+04  0.15787482019E+04  0.00000000000E+00 0.  1.
         21   -1    0    0  501  503 -0.00000000000E+00 -0.00000000000E+00 -0.40476504122E+03  0.40476504122E+03  0.00000000000E+00 0.  1.
    9000007    1    1    2  501    0  0.18023176187E+02 -0.17456059012E+03 -0.24361549115E+03  0.50014472109E+03  0.40000000000E+03 0.  1.
   -9000007    1    1    2    0  502 -0.18023176187E+02  0.17456059012E+03  0.14175986519E+04  0.14833685221E+04  0.40000000000E+03 0.  1.
<mgrwt>
<rscale>  2 0.43680228E+03</rscale>
<asrwt>0</asrwt>
<pdfrwt beam="1">  1       21 0.24288434E+00 0.43680228E+03</pdfrwt>
<pdfrwt beam="2">  1       21 0.62271546E-01 0.43680228E+03</pdfrwt>
<totfact> 0.13989650E+02</totfact>
</mgrwt>
</event>
<event>
 4    1  0.4863180E-002  0.4988958E+03  0.7818608E-02  0.1014068E+00
         21   -1    0    0  501  502  0.00000000000E+00  0.00000000000E+00  0.33225151637E+03  0.33225151637E+03  0.00000000000E+00 0.  1.
         21   -1    0    0  502  503 -0.00000000000E+00 -0.00000000000E+00 -0.21677814120E+04  0.21677814120E+04  0.00000000000E+00 0.  1.
    9000007    1    1    2  501    0 -0.17383230496E+03  0.24223812657E+03  0.93458272333E+02  0.50757406246E+03  0.40000000000E+03 0.  1.
   -9000007    1    1    2    0  503  0.17383230496E+03 -0.24223812657E+03 -0.19289881679E+04  0.19924588659E+04  0.40000000000E+03 0.  1.
<mgrwt>
<rscale>  2 0.49889576E+03</rscale>
<asrwt>0</asrwt>
<pdfrwt beam="1">  1       21 0.51115619E-01 0.49889576E+03</pdfrwt>
<pdfrwt beam="2">  1       21 0.33350482E+00 0.49889576E+03</pdfrwt>
<totfact> 0.58299767E+01</totfact>
</mgrwt>
</event>
<event>
 4    1  0.4863180E-002  0.4276478E+03  0.7818608E-02  0.1034606E+00
         21   -1    0    0  501  502  0.00000000000E+00  0.00000000000E+00  0.24742000408E+03  0.24742000408E+03  0.00000000000E+00 0.  1.
         21   -1    0    0  502  503 -0.00000000000E+00 -0.00000000000E+00 -0.12035955757E+04  0.12035955757E+04  0.00000000000E+00 0.  1.
    9000007    1    1    2  501    0  0.46645976014E+01  0.15119802598E+03 -0.27410962038E+02  0.42852533457E+03  0.40000000000E+03 0.  1.
   -9000007    1    1    2    0  503 -0.46645976014E+01 -0.15119802598E+03 -0.92876460960E+03  0.10224902452E+04  0.40000000000E+03 0.  1.
<mgrwt>
<rscale>  2 0.42764775E+03</rscale>
<asrwt>0</asrwt>
<pdfrwt beam="1">  1       21 0.38064616E-01 0.42764775E+03</pdfrwt>
<pdfrwt beam="2">  1       21 0.18516855E+00 0.42764775E+03</pdfrwt>
<totfact> 0.94499658E+02</totfact>
</mgrwt>
</event>
<event>
 4    1  0.4863180E-002  0.4797067E+03  0.7818608E-02  0.1019216E+00
         21   -1    0    0  501  502  0.00000000000E+00  0.00000000000E+00  0.76740956465E+03  0.76740956465E+03  0.00000000000E+00 0. -1.
         21   -1    0    0  502  503 -0.00000000000E+00 -0.00000000000E+00 -0.31111364231E+03  0.31111364231E+03  0.00000000000E+00 0. -1.
    9000007    1    1    2  501    0  0.25306635245E+03 -0.77948077138E+02  0.12560405975E+03  0.49587786934E+03  0.40000000000E+03 0. -1.
   -9000007    1    1    2    0  503 -0.25306635245E+03  0.77948077138E+02  0.33069186260E+03  0.58264533763E+03  0.40000000000E+03 0. -1.
<mgrwt>
<rscale>  2 0.47970666E+03</rscale>
<asrwt>0</asrwt>
<pdfrwt beam="1">  1       21 0.11806301E+00 0.47970666E+03</pdfrwt>
<pdfrwt beam="2">  1       21 0.47863638E-01 0.47970666E+03</pdfrwt>
<totfact> 0.19523914E+03</totfact>
</mgrwt>
</event>
<event>
 4    1  0.4863180E-002  0.4731052E+03  0.7818608E-02  0.1021047E+00
         21   -1    0    0  501  502  0.00000000000E+00  0.00000000000E+00  0.39477316711E+03  0.39477316711E+03  0.00000000000E+00 0. -1.
         21   -1    0    0  502  503 -0.00000000000E+00 -0.00000000000E+00 -0.72450039089E+03  0.72450039089E+03  0.00000000000E+00 0.  1.
    9000007    1    1    2  501    0 -0.22306840627E+03 -0.11861290582E+03 -0.42581233106E+03  0.63650976158E+03  0.40000000000E+03 0.  1.
   -9000007    1    1    2    0  503  0.22306840627E+03  0.11861290582E+03  0.96085107275E+02  0.48276379643E+03  0.40000000000E+03 0.  1.
<mgrwt>
<rscale>  2 0.47310521E+03</rscale>
<asrwt>0</asrwt>
<pdfrwt beam="1">  1       21 0.60734334E-01 0.47310521E+03</pdfrwt>
<pdfrwt beam="2">  1       21 0.11146160E+00 0.47310521E+03</pdfrwt>
<totfact> 0.13527854E+03</totfact>
</mgrwt>
</event>
<event>
 4    1  0.4863180E-002  0.4145770E+03  0.7818608E-02  0.1038846E+00
         21   -1    0    0  503  502  0.00000000000E+00  0.00000000000E+00  0.31917469041E+03  0.31917469041E+03  0.00000000000E+00 0. -1.
         21   -1    0    0  501  503 -0.00000000000E+00 -0.00000000000E+00 -0.70548372746E+03  0.70548372746E+03  0.00000000000E+00 0. -1.
    9000007    1    1    2  501    0 -0.80561587147E+02 -0.73375042763E+02 -0.44241235538E+03  0.60630253044E+03  0.40000000000E+03 0. -1.
   -9000007    1    1    2    0  502  0.80561587147E+02  0.73375042763E+02  0.56103318322E+02  0.41835588743E+03  0.40000000000E+03 0. -1.
<mgrwt>
<rscale>  2 0.41457697E+03</rscale>
<asrwt>0</asrwt>
<pdfrwt beam="1">  1       21 0.49103799E-01 0.41457697E+03</pdfrwt>
<pdfrwt beam="2">  1       21 0.10853596E+00 0.41457697E+03</pdfrwt>
<totfact> 0.23385162E+03</totfact>
</mgrwt>
</event>
<event>
 4    1  0.4863180E-002  0.4092161E+03  0.7818608E-02  0.1040634E+00
         21   -1    0    0  503  502  0.00000000000E+00  0.00000000000E+00  0.15034739401E+03  0.15034739401E+03  0.00000000000E+00 0. -1.
         21   -1    0    0  501  503 -0.00000000000E+00 -0.00000000000E+00 -0.11362382313E+04  0.11362382313E+04  0.00000000000E+00 0. -1.
    9000007    1    1    2  501    0 -0.85622425383E+02  0.11251120101E+02 -0.58333387048E+03  0.71255609736E+03  0.40000000000E+03 0. -1.
   -9000007    1    1    2    0  502  0.85622425383E+02 -0.11251120101E+02 -0.40255696683E+03  0.57402952796E+03  0.40000000000E+03 0. -1.
<mgrwt>
<rscale>  2 0.40921606E+03</rscale>
<asrwt>0</asrwt>
<pdfrwt beam="1">  1       21 0.23130368E-01 0.40921606E+03</pdfrwt>
<pdfrwt beam="2">  1       21 0.17480589E+00 0.40921606E+03</pdfrwt>
<totfact> 0.30252226E+03</totfact>
</mgrwt>
</event>
<event>
 4    1  0.4863180E-002  0.4057635E+03  0.7818608E-02  0.1041802E+00
         21   -1    0    0  501  502  0.00000000000E+00  0.00000000000E+00  0.55183891232E+03  0.55183891232E+03  0.00000000000E+00 0. -1.
         21   -1    0    0  502  503 -0.00000000000E+00 -0.00000000000E+00 -0.30365781091E+03  0.30365781091E+03  0.00000000000E+00 0. -1.
    9000007    1    1    2  501    0  0.56380872816E+02 -0.38278535804E+02  0.67565880977E+02  0.41135045569E+03  0.40000000000E+03 0. -1.
   -9000007    1    1    2    0  503 -0.56380872816E+02  0.38278535804E+02  0.18061522043E+03  0.44414626754E+03  0.40000000000E+03 0. -1.
<mgrwt>
<rscale>  2 0.40576354E+03</rscale>
<asrwt>0</asrwt>
<pdfrwt beam="1">  1       21 0.84898294E-01 0.40576354E+03</pdfrwt>
<pdfrwt beam="2">  1       21 0.46716586E-01 0.40576354E+03</pdfrwt>
<totfact> 0.47008865E+03</totfact>
</mgrwt>
</event>
<event>
 4    1  0.4863180E-002  0.4026064E+03  0.7818608E-02  0.1042881E+00
         21   -1    0    0  501  502  0.00000000000E+00  0.00000000000E+00  0.59929396651E+03  0.59929396651E+03  0.00000000000E+00 0. -1.
         21   -1    0    0  502  503 -0.00000000000E+00 -0.00000000000E+00 -0.42313852789E+03  0.42313852789E+03  0.00000000000E+00 0. -1.
    9000007    1    1    2  501    0  0.15026791357E+02  0.43198896525E+02  0.39514671012E+03  0.56412132705E+03  0.40000000000E+03 0. -1.
   -9000007    1    1    2    0  503 -0.15026791357E+02 -0.43198896525E+02 -0.21899127150E+03  0.45831116734E+03  0.40000000000E+03 0. -1.
<mgrwt>
<rscale>  2 0.40260644E+03</rscale>
<asrwt>0</asrwt>
<pdfrwt beam="1">  1       21 0.92199071E-01 0.40260644E+03</pdfrwt>
<pdfrwt beam="2">  1       21 0.65098235E-01 0.40260644E+03</pdfrwt>
<totfact> 0.18951927E+03</totfact>
</mgrwt>
</event>
<event>
 4    1  0.4863180E-002  0.4015717E+03  0.7818608E-02  0.1043237E+00
         21   -1    0    0  501  502  0.00000000000E+00  0.00000000000E+00  0.15137544682E+03  0.15137544682E+03  0.00000000000E+00 0. -1.
         21   -1    0    0  502  503 -0.00000000000E+00 -0.00000000000E+00 -0.12666923217E+04  0.12666923217E+04  0.00000000000E+00 0. -1.
    9000007    1    1    2  501    0 -0.34821233782E+02 -0.68800452361E+01 -0.27493891597E+03  0.48667366978E+03  0.40000000000E+03 0. -1.
   -9000007    1    1    2    0  503  0.34821233782E+02  0.68800452361E+01 -0.84037795886E+03  0.93139409870E+03  0.40000000000E+03 0. -1.
<mgrwt>
<rscale>  2 0.40157173E+03</rscale>
<asrwt>0</asrwt>
<pdfrwt beam="1">  1       21 0.23288530E-01 0.40157173E+03</pdfrwt>
<pdfrwt beam="2">  1       21 0.19487575E+00 0.40157173E+03</pdfrwt>
<totfact> 0.21759859E+03</totfact>
</mgrwt>
</event>
<event>
 4    1  0.4863180E-002  0.6953762E+03  0.7818608E-02  0.9725172E-01
         21   -1    0    0  501  502  0.00000000000E+00  0.00000000000E+00  0.44423304728E+03  0.44423304728E+03  0.00000000000E+00 0. -1.
         21   -1    0    0  502  503 -0.00000000000E+00 -0.00000000000E+00 -0.10890849291E+04  0.10890849291E+04  0.00000000000E+00 0.  1.
    9000007    1    1    2  501    0  0.45090089281E+03  0.34675128072E+03 -0.30467204872E+03  0.75919241506E+03  0.40000000000E+03 0. -1.
   -9000007    1    1    2    0  503 -0.45090089281E+03 -0.34675128072E+03 -0.34017983308E+03  0.77412556130E+03  0.40000000000E+03 0.  1.
<mgrwt>
<rscale>  2 0.69537620E+03</rscale>
<asrwt>0</asrwt>
<pdfrwt beam="1">  1       21 0.68343546E-01 0.69537620E+03</pdfrwt>
<pdfrwt beam="2">  1       21 0.16755153E+00 0.69537620E+03</pdfrwt>
<totfact> 0.32531781E+02</totfact>
</mgrwt>
</event>
<event>
 4    1  0.4863180E-002  0.4601502E+03  0.7818608E-02  0.1024738E+00
         21   -1    0    0  503  502  0.00000000000E+00  0.00000000000E+00  0.30113666292E+03  0.30113666292E+03  0.00000000000E+00 0.  1.
         21   -1    0    0  501  503 -0.00000000000E+00 -0.00000000000E+00 -0.70333047687E+03  0.70333047687E+03  0.00000000000E+00 0.  1.
    9000007    1    1    2  501    0  0.17903608202E+03 -0.14030084427E+03 -0.20957450119E+03  0.50562804226E+03  0.40000000000E+03 0.  1.
   -9000007    1    1    2    0  502 -0.17903608202E+03  0.14030084427E+03 -0.19261931276E+03  0.49883909752E+03  0.40000000000E+03 0.  1.
<mgrwt>
<rscale>  2 0.46015024E+03</rscale>
<asrwt>0</asrwt>
<pdfrwt beam="1">  1       21 0.46328718E-01 0.46015024E+03</pdfrwt>
<pdfrwt beam="2">  1       21 0.10820469E+00 0.46015024E+03</pdfrwt>
<totfact> 0.26184228E+03</totfact>
</mgrwt>
</event>
<event>
 4    1  0.4863180E-002  0.4006509E+03  0.7818608E-02  0.1043555E+00
         21   -1    0    0  501  502  0.00000000000E+00  0.00000000000E+00  0.12208727077E+04  0.12208727077E+04  0.00000000000E+00 0.  1.
         21   -1    0    0  502  503 -0.00000000000E+00 -0.00000000000E+00 -0.23547412511E+03  0.23547412511E+03  0.00000000000E+00 0.  1.
    9000007    1    1    2  501    0  0.38851239324E+01  0.22494963361E+02  0.97661119244E+03  0.10555996110E+04  0.40000000000E+03 0.  1.
   -9000007    1    1    2    0  503 -0.38851239324E+01 -0.22494963361E+02  0.87873901610E+01  0.40074722181E+03  0.40000000000E+03 0.  1.
<mgrwt>
<rscale>  2 0.40065087E+03</rscale>
<asrwt>0</asrwt>
<pdfrwt beam="1">  1       21 0.18782657E+00 0.40065087E+03</pdfrwt>
<pdfrwt beam="2">  1       21 0.36226789E-01 0.40065087E+03</pdfrwt>
<totfact> 0.10154329E+03</totfact>
</mgrwt>
</event>
<event>
 4    1  0.4863180E-002  0.4658169E+03  0.7818608E-02  0.1023108E+00
         21   -1    0    0  501  502  0.00000000000E+00  0.00000000000E+00  0.52576346463E+03  0.52576346463E+03  0.00000000000E+00 0. -1.
         21   -1    0    0  502  503 -0.00000000000E+00 -0.00000000000E+00 -0.83736248615E+03  0.83736248615E+03  0.00000000000E+00 0. -1.
    9000007    1    1    2  501    0 -0.18315245126E+03  0.15310308126E+03  0.32956550885E+03  0.57061265191E+03  0.40000000000E+03 0. -1.
   -9000007    1    1    2    0  503  0.18315245126E+03 -0.15310308126E+03 -0.64116453036E+03  0.79251329887E+03  0.40000000000E+03 0. -1.
<mgrwt>
<rscale>  2 0.46581689E+03</rscale>
<asrwt>0</asrwt>
<pdfrwt beam="1">  1       21 0.80886687E-01 0.46581689E+03</pdfrwt>
<pdfrwt beam="2">  1       21 0.12882500E+00 0.46581689E+03</pdfrwt>
<totfact> 0.49209187E+02</totfact>
</mgrwt>
</event>
<event>
 4    1  0.4863180E-002  0.4164753E+03  0.7818608E-02  0.1038220E+00
         21   -1    0    0  503  502  0.00000000000E+00  0.00000000000E+00  0.21436877877E+03  0.21436877877E+03  0.00000000000E+00 0. -1.
         21   -1    0    0  501  503 -0.00000000000E+00 -0.00000000000E+00 -0.81415141529E+03  0.81415141529E+03  0.00000000000E+00 0.  1.
    9000007    1    1    2  501    0 -0.11537485441E+03 -0.11846748208E+02 -0.34028799671E+03  0.53781746269E+03  0.40000000000E+03 0.  1.
   -9000007    1    1    2    0  502  0.11537485441E+03  0.11846748208E+02 -0.25949463981E+03  0.49070273136E+03  0.40000000000E+03 0.  1.
<mgrwt>
<rscale>  2 0.41647533E+03</rscale>
<asrwt>0</asrwt>
<pdfrwt beam="1">  1       21 0.32979813E-01 0.41647533E+03</pdfrwt>
<pdfrwt beam="2">  1       21 0.12525406E+00 0.41647533E+03</pdfrwt>
<totfact> 0.37003874E+03</totfact>
</mgrwt>
</event>
<event>
 4    1  0.4863180E-002  0.6276511E+03  0.7818608E-02  0.9849643E-01
         21   -1    0    0  501  502  0.00000000000E+00  0.00000000000E+00  0.11074061454E+04  0.11074061454E+04  0.00000000000E+00 0. -1.
         21   -1    0    0  502  503 -0.00000000000E+00 -0.00000000000E+00 -0.43950708139E+03  0.43950708139E+03  0.00000000000E+00 0. -1.
    9000007    1    1    2  501    0 -0.42373405060E+03  0.23322818501E+03  0.67162234971E+03  0.91925106068E+03  0.40000000000E+03 0. -1.
   -9000007    1    1    2    0  503  0.42373405060E+03 -0.23322818501E+03 -0.37232857046E+01  0.62766216612E+03  0.40000000000E+03 0. -1.
<mgrwt>
<rscale>  2 0.62765112E+03</rscale>
<asrwt>0</asrwt>
<pdfrwt beam="1">  1       21 0.17037018E+00 0.62765112E+03</pdfrwt>
<pdfrwt beam="2">  1       21 0.67616474E-01 0.62765112E+03</pdfrwt>
<totfact> 0.32470868E+02</totfact>
</mgrwt>
</event>
<event>
 4    1  0.4863180E-002  0.4244484E+03  0.7818608E-02  0.1035628E+00
         21   -1    0    0  503  502  0.00000000000E+00  0.00000000000E+00  0.46297544533E+03  0.46297544533E+03  0.00000000000E+00 0.  1.
         21   -1    0    0  501  503 -0.00000000000E+00 -0.00000000000E+00 -0.39201478113E+03  0.39201478113E+03  0.00000000000E+00 0. -1.
    9000007    1    1    2  501    0 -0.40198753709E+02 -0.13616362293E+03  0.72168445337E+02  0.43054007538E+03  0.40000000000E+03 0. -1.
   -9000007    1    1    2    0  502  0.40198753709E+02  0.13616362293E+03 -0.12077811365E+01  0.42445015107E+03  0.40000000000E+03 0. -1.
<mgrwt>
<rscale>  2 0.42444843E+03</rscale>
<asrwt>0</asrwt>
<pdfrwt beam="1">  1       21 0.71226992E-01 0.42444843E+03</pdfrwt>
<pdfrwt beam="2">  1       21 0.60309966E-01 0.42444843E+03</pdfrwt>
<totfact> 0.40392205E+03</totfact>
</mgrwt>
</event>
<event>
 4    1  0.4863180E-002  0.4193660E+03  0.7818608E-02  0.1037273E+00
         21   -1    0    0  503  502  0.00000000000E+00  0.00000000000E+00  0.10060796088E+04  0.10060796088E+04  0.00000000000E+00 0.  1.
         21   -1    0    0  501  503 -0.00000000000E+00 -0.00000000000E+00 -0.37751118072E+03  0.37751118072E+03  0.00000000000E+00 0.  1.
    9000007    1    1    2  501    0 -0.11453599139E+03  0.52434557105E+02 -0.19264359253E+03  0.46149694457E+03  0.40000000000E+03 0.  1.
   -9000007    1    1    2    0  502  0.11453599139E+03 -0.52434557105E+02  0.82121202059E+03  0.92209384493E+03  0.40000000000E+03 0.  1.
<mgrwt>
<rscale>  2 0.41936604E+03</rscale>
<asrwt>0</asrwt>
<pdfrwt beam="1">  1       21 0.15478148E+00 0.41936604E+03</pdfrwt>
<pdfrwt beam="2">  1       21 0.58078644E-01 0.41936604E+03</pdfrwt>
<totfact> 0.64849527E+02</totfact>
</mgrwt>
</event>
<event>
 4    1  0.4863180E-002  0.6653342E+03  0.7818608E-02  0.9778424E-01
         21   -1    0    0  503  502  0.00000000000E+00  0.00000000000E+00  0.91797749098E+03  0.91797749098E+03  0.00000000000E+00 0.  1.
         21   -1    0    0  501  503 -0.00000000000E+00 -0.00000000000E+00 -0.52454435065E+03  0.52454435065E+03  0.00000000000E+00 0. -1.
    9000007    1    1    2  501    0  0.52611620043E+03  0.76624474605E+02 -0.81554705097E+01  0.66538415833E+03  0.40000000000E+03 0. -1.
   -9000007    1    1    2    0  502 -0.52611620043E+03 -0.76624474605E+02  0.40158861084E+03  0.77713768331E+03  0.40000000000E+03 0.  1.
<mgrwt>
<rscale>  2 0.66533418E+03</rscale>
<asrwt>0</asrwt>
<pdfrwt beam="1">  1       21 0.14122731E+00 0.66533418E+03</pdfrwt>
<pdfrwt beam="2">  1       21 0.80699131E-01 0.66533418E+03</pdfrwt>
<totfact> 0.36062843E+02</totfact>
</mgrwt>
</event>
<event>
 4    1  0.4863180E-002  0.4098464E+03  0.7818608E-02  0.1040423E+00
         21   -1    0    0  503  502  0.00000000000E+00  0.00000000000E+00  0.22407046427E+04  0.22407046427E+04  0.00000000000E+00 0. -1.
         21   -1    0    0  501  503 -0.00000000000E+00 -0.00000000000E+00 -0.13452646779E+03  0.13452646779E+03  0.00000000000E+00 0. -1.
    9000007    1    1    2  501    0  0.37337181007E+02  0.81117485525E+02  0.26285599766E+03  0.48689566341E+03  0.40000000000E+03 0.  1.
   -9000007    1    1    2    0  502 -0.37337181007E+02 -0.81117485525E+02  0.18433221773E+04  0.18883354471E+04  0.40000000000E+03 0.  1.
<mgrwt>
<rscale>  2 0.40984645E+03</rscale>
<asrwt>0</asrwt>
<pdfrwt beam="1">  1       21 0.34472376E+00 0.40984645E+03</pdfrwt>
<pdfrwt beam="2">  1       21 0.20696381E-01 0.40984645E+03</pdfrwt>
<totfact> 0.32534394E+02</totfact>
</mgrwt>
</event>
<event>
 4    1  0.4863180E-002  0.4029878E+03  0.7818608E-02  0.1042750E+00
         21   -1    0    0  501  502  0.00000000000E+00  0.00000000000E+00  0.12994065889E+04  0.12994065889E+04  0.00000000000E+00 0. -1.
         21   -1    0    0  502  503 -0.00000000000E+00 -0.00000000000E+00 -0.23981797671E+03  0.23981797671E+03  0.00000000000E+00 0. -1.
    9000007    1    1    2  501    0  0.21650088861E+02  0.43936798703E+02  0.10623620508E+04  0.11362272200E+04  0.40000000000E+03 0. -1.
   -9000007    1    1    2    0  503 -0.21650088861E+02 -0.43936798703E+02 -0.27734385220E+01  0.40299734564E+03  0.40000000000E+03 0. -1.
<mgrwt>
<rscale>  2 0.40298780E+03</rscale>
<asrwt>0</asrwt>
<pdfrwt beam="1">  1       21 0.19990870E+00 0.40298780E+03</pdfrwt>
<pdfrwt beam="2">  1       21 0.36895074E-01 0.40298780E+03</pdfrwt>
<totfact> 0.81005537E+02</totfact>
</mgrwt>
</event>
<event>
 4    1  0.4863180E-002  0.4071537E+03  0.7818608E-02  0.1041330E+00
         21   -1    0    0  501  502  0.00000000000E+00  0.00000000000E+00  0.58092585969E+03  0.58092585969E+03  0.00000000000E+00 0. -1.
         21   -1    0    0  502  503 -0.00000000000E+00 -0.00000000000E+00 -0.49748625138E+03  0.49748625138E+03  0.00000000000E+00 0. -1.
    9000007    1    1    2  501    0  0.74338849727E+02  0.15742922761E+02  0.39381450445E+03  0.56644855734E+03  0.40000000000E+03 0. -1.
   -9000007    1    1    2    0  503 -0.74338849727E+02 -0.15742922761E+02 -0.31037489615E+03  0.51196355374E+03  0.40000000000E+03 0. -1.
<mgrwt>
<rscale>  2 0.40715366E+03</rscale>
<asrwt>0</asrwt>
<pdfrwt beam="1">  1       21 0.89373209E-01 0.40715366E+03</pdfrwt>
<pdfrwt beam="2">  1       21 0.76536346E-01 0.40715366E+03</pdfrwt>
<totfact> 0.14144715E+03</totfact>
</mgrwt>
</event>
<event>
 4    1  0.4863180E-002  0.6785899E+03  0.7818608E-02  0.9754563E-01
         21   -1    0    0  503  502  0.00000000000E+00  0.00000000000E+00  0.88090364720E+03  0.88090364720E+03  0.00000000000E+00 0.  1.
         21   -1    0    0  501  503 -0.00000000000E+00 -0.00000000000E+00 -0.54859684730E+03  0.54859684730E+03  0.00000000000E+00 0. -1.
    9000007    1    1    2  501    0  0.46315453101E+03 -0.29321009198E+03  0.10983055637E+02  0.67867879379E+03  0.40000000000E+03 0. -1.
   -9000007    1    1    2    0  502 -0.46315453101E+03  0.29321009198E+03  0.32132374426E+03  0.75082170071E+03  0.40000000000E+03 0.  1.
<mgrwt>
<rscale>  2 0.67858992E+03</rscale>
<asrwt>0</asrwt>
<pdfrwt beam="1">  1       21 0.13552364E+00 0.67858992E+03</pdfrwt>
<pdfrwt beam="2">  1       21 0.84399515E-01 0.67858992E+03</pdfrwt>
<totfact> 0.36108466E+02</totfact>
</mgrwt>
</event>
<event>
 4    1  0.4863180E-002  0.4529869E+03  0.7818608E-02  0.1026835E+00
         21   -1    0    0  501  502  0.00000000000E+00  0.00000000000E+00  0.92850599825E+02  0.92850599825E+02  0.00000000000E+00 0. -1.
         21   -1    0    0  502  503 -0.00000000000E+00 -0.00000000000E+00 -0.22928840429E+04  0.22928840429E+04  0.00000000000E+00 0.  1.
    9000007    1    1    2  501    0  0.21247495612E+03  0.71765337529E+01 -0.13268533484E+04  0.14020474021E+04  0.40000000000E+03 0. -1.
   -9000007    1    1    2    0  503 -0.21247495612E+03 -0.71765337529E+01 -0.87318009473E+03  0.98368724067E+03  0.40000000000E+03 0.  1.
<mgrwt>
<rscale>  2 0.45298688E+03</rscale>
<asrwt>0</asrwt>
<pdfrwt beam="1">  1       21 0.14284709E-01 0.45298688E+03</pdfrwt>
<pdfrwt beam="2">  1       21 0.35275136E+00 0.45298688E+03</pdfrwt>
<totfact> 0.56673090E+02</totfact>
</mgrwt>
</event>
<event>
 4    1  0.4863180E-002  0.4290373E+03  0.7818608E-02  0.1034165E+00
         21   -1    0    0  501  502  0.00000000000E+00  0.00000000000E+00  0.12606520550E+04  0.12606520550E+04  0.00000000000E+00 0. -1.
         21   -1    0    0  502  503 -0.00000000000E+00 -0.00000000000E+00 -0.14901210791E+03  0.14901210791E+03  0.00000000000E+00 0. -1.
    9000007    1    1    2  501    0 -0.15180270895E+03  0.32077167000E+02  0.65579451955E+03  0.78367050408E+03  0.40000000000E+03 0. -1.
   -9000007    1    1    2    0  503  0.15180270895E+03 -0.32077167000E+02  0.45584542757E+03  0.62599365885E+03  0.40000000000E+03 0. -1.
<mgrwt>
<rscale>  2 0.42903730E+03</rscale>
<asrwt>0</asrwt>
<pdfrwt beam="1">  1       21 0.19394646E+00 0.42903730E+03</pdfrwt>
<pdfrwt beam="2">  1       21 0.22924941E-01 0.42903730E+03</pdfrwt>
<totfact> 0.22473297E+03</totfact>
</mgrwt>
</event>
<event>
 4    1  0.4863180E-002  0.5454536E+03  0.7818608E-02  0.1002552E+00
         21   -1    0    0  501  502  0.00000000000E+00  0.00000000000E+00  0.14612831149E+04  0.14612831149E+04  0.00000000000E+00 0.  1.
         21   -1    0    0  502  503 -0.00000000000E+00 -0.00000000000E+00 -0.20360822887E+03  0.20360822887E+03  0.00000000000E+00 0. -1.
    9000007    1    1    2  501    0  0.36451524789E+03 -0.68178496185E+02  0.62411047969E+03  0.82887487846E+03  0.40000000000E+03 0.  1.
   -9000007    1    1    2    0  503 -0.36451524789E+03  0.68178496185E+02  0.63356440639E+03  0.83601646535E+03  0.40000000000E+03 0. -1.
<mgrwt>
<rscale>  2 0.54545364E+03</rscale>
<asrwt>0</asrwt>
<pdfrwt beam="1">  1       21 0.22481278E+00 0.54545364E+03</pdfrwt>
<pdfrwt beam="2">  1       21 0.31324344E-01 0.54545364E+03</pdfrwt>
<totfact> 0.72725517E+02</totfact>
</mgrwt>
</event>
<event>
 4    1  0.4863180E-002  0.4908802E+03  0.7818608E-02  0.1016187E+00
         21   -1    0    0  501  502  0.00000000000E+00  0.00000000000E+00  0.54633211549E+03  0.54633211549E+03  0.00000000000E+00 0.  1.
         21   -1    0    0  502  503 -0.00000000000E+00 -0.00000000000E+00 -0.45944032816E+03  0.45944032816E+03  0.00000000000E+00 0. -1.
    9000007    1    1    2  501    0 -0.22959760778E+03  0.16807235982E+03 -0.57148111038E+02  0.49419559511E+03  0.40000000000E+03 0.  1.
   -9000007    1    1    2    0  503  0.22959760778E+03 -0.16807235982E+03  0.14403989837E+03  0.51157684853E+03  0.40000000000E+03 0. -1.
<mgrwt>
<rscale>  2 0.49088021E+03</rscale>
<asrwt>0</asrwt>
<pdfrwt beam="1">  1       21 0.84051095E-01 0.49088021E+03</pdfrwt>
<pdfrwt beam="2">  1       21 0.70683128E-01 0.49088021E+03</pdfrwt>
<totfact> 0.18951519E+03</totfact>
</mgrwt>
</event>
<event>
 4    1  0.4863180E-002  0.4142448E+03  0.7818608E-02  0.1038956E+00
         21   -1    0    0  503  502  0.00000000000E+00  0.00000000000E+00  0.65069393307E+03  0.65069393307E+03  0.00000000000E+00 0. -1.
         21   -1    0    0  501  503 -0.00000000000E+00 -0.00000000000E+00 -0.26401765829E+03  0.26401765829E+03  0.00000000000E+00 0. -1.
    9000007    1    1    2  501    0 -0.99889833893E+02  0.40259059935E+02  0.17789320178E+03  0.45082675393E+03  0.40000000000E+03 0. -1.
   -9000007    1    1    2    0  502  0.99889833893E+02 -0.40259059935E+02  0.20878307301E+03  0.46388483743E+03  0.40000000000E+03 0. -1.
<mgrwt>
<rscale>  2 0.41424482E+03</rscale>
<asrwt>0</asrwt>
<pdfrwt beam="1">  1       21 0.10010676E+00 0.41424482E+03</pdfrwt>
<pdfrwt beam="2">  1       21 0.40618101E-01 0.41424482E+03</pdfrwt>
<totfact> 0.42384862E+03</totfact>
</mgrwt>
</event>
<event>
 4    1  0.4863180E-002  0.5710349E+03  0.7818608E-02  0.9967391E-01
         21   -1    0    0  503  502  0.00000000000E+00  0.00000000000E+00  0.35971695804E+03  0.35971695804E+03  0.00000000000E+00 0. -1.
         21   -1    0    0  501  503 -0.00000000000E+00 -0.00000000000E+00 -0.12580406997E+04  0.12580406997E+04  0.00000000000E+00 0. -1.
    9000007    1    1    2  501    0 -0.32327595276E+03 -0.24814013917E+03 -0.87675263076E+03  0.10463154619E+04  0.40000000000E+03 0. -1.
   -9000007    1    1    2    0  502  0.32327595276E+03  0.24814013917E+03 -0.21571110869E+02  0.57144219579E+03  0.40000000000E+03 0. -1.
<mgrwt>
<rscale>  2 0.57103491E+03</rscale>
<asrwt>0</asrwt>
<pdfrwt beam="1">  1       21 0.55341070E-01 0.57103491E+03</pdfrwt>
<pdfrwt beam="2">  1       21 0.19354472E+00 0.57103491E+03</pdfrwt>
<totfact> 0.35380936E+02</totfact>
</mgrwt>
</event>
<event>
 4    1  0.4863180E-002  0.4323202E+03  0.7818608E-02  0.1033130E+00
         21   -1    0    0  503  502  0.00000000000E+00  0.00000000000E+00  0.27649822005E+03  0.27649822005E+03  0.00000000000E+00 0.  1.
         21   -1    0    0  501  503 -0.00000000000E+00 -0.00000000000E+00 -0.11187542145E+04  0.11187542145E+04  0.00000000000E+00 0.  1.
    9000007    1    1    2  501    0 -0.15326578864E+03  0.58398071421E+02 -0.86002053195E+03  0.96256742730E+03  0.40000000000E+03 0.  1.
   -9000007    1    1    2    0  502  0.15326578864E+03 -0.58398071421E+02  0.17764537505E+02  0.43268500726E+03  0.40000000000E+03 0.  1.
<mgrwt>
<rscale>  2 0.43232018E+03</rscale>
<asrwt>0</asrwt>
<pdfrwt beam="1">  1       21 0.42538188E-01 0.43232018E+03</pdfrwt>
<pdfrwt beam="2">  1       21 0.17211603E+00 0.43232018E+03</pdfrwt>
<totfact> 0.92758260E+02</totfact>
</mgrwt>
</event>
<event>
 4    1  0.4863180E-002  0.4217593E+03  0.7818608E-02  0.1036495E+00
         21   -1    0    0  503  502  0.00000000000E+00  0.00000000000E+00  0.16428791875E+03  0.16428791875E+03  0.00000000000E+00 0. -1.
         21   -1    0    0  501  503 -0.00000000000E+00 -0.00000000000E+00 -0.13136556971E+04  0.13136556971E+04  0.00000000000E+00 0. -1.
    9000007    1    1    2  501    0 -0.13047147625E+03  0.29294024778E+02 -0.88450764161E+03  0.97991566682E+03  0.40000000000E+03 0. -1.
   -9000007    1    1    2    0  502  0.13047147625E+03 -0.29294024778E+02 -0.26486013677E+03  0.49802794907E+03  0.40000000000E+03 0. -1.
<mgrwt>
<rscale>  2 0.42175935E+03</rscale>
<asrwt>0</asrwt>
<pdfrwt beam="1">  1       21 0.25275065E-01 0.42175935E+03</pdfrwt>
<pdfrwt beam="2">  1       21 0.20210087E+00 0.42175935E+03</pdfrwt>
<totfact> 0.16461689E+03</totfact>
</mgrwt>
</event>
<event>
 4    1  0.4863180E-002  0.4307316E+03  0.7818608E-02  0.1033629E+00
         21   -1    0    0  501  502  0.00000000000E+00  0.00000000000E+00  0.18517539071E+03  0.18517539071E+03  0.00000000000E+00 0.  1.
         21   -1    0    0  502  503 -0.00000000000E+00 -0.00000000000E+00 -0.11997320356E+04  0.11997320356E+04  0.00000000000E+00 0.  1.
    9000007    1    1    2  501    0 -0.80754978166E+01 -0.15957600540E+03 -0.22609978786E+03  0.48646770626E+03  0.40000000000E+03 0.  1.
   -9000007    1    1    2    0  503  0.80754978166E+01  0.15957600540E+03 -0.78845685703E+03  0.89843972005E+03  0.40000000000E+03 0.  1.
<mgrwt>
<rscale>  2 0.43073160E+03</rscale>
<asrwt>0</asrwt>
<pdfrwt beam="1">  1       21 0.28488521E-01 0.43073160E+03</pdfrwt>
<pdfrwt beam="2">  1       21 0.18457416E+00 0.43073160E+03</pdfrwt>
<totfact> 0.17043439E+03</totfact>
</mgrwt>
</event>
<event>
 4    1  0.4863180E-002  0.4095170E+03  0.7818608E-02  0.1040533E+00
         21   -1    0    0  503  502  0.00000000000E+00  0.00000000000E+00  0.15510306784E+03  0.15510306784E+03  0.00000000000E+00 0.  1.
         21   -1    0    0  501  503 -0.00000000000E+00 -0.00000000000E+00 -0.17383148611E+04  0.17383148611E+04  0.00000000000E+00 0.  1.
    9000007    1    1    2  501    0  0.87494727299E+02  0.69904872631E+01 -0.13736535134E+04  0.14333974219E+04  0.40000000000E+03 0.  1.
   -9000007    1    1    2    0  502 -0.87494727299E+02 -0.69904872631E+01 -0.20955827980E+03  0.46002050699E+03  0.40000000000E+03 0.  1.
<mgrwt>
<rscale>  2 0.40951703E+03</rscale>
<asrwt>0</asrwt>
<pdfrwt beam="1">  1       21 0.23862009E-01 0.40951703E+03</pdfrwt>
<pdfrwt beam="2">  1       21 0.26743307E+00 0.40951703E+03</pdfrwt>
<totfact> 0.72223983E+02</totfact>
</mgrwt>
</event>
<event>
 4    1  0.4863180E-002  0.4135382E+03  0.7818608E-02  0.1039190E+00
         21   -1    0    0  503  502  0.00000000000E+00  0.00000000000E+00  0.99439881755E+03  0.99439881755E+03  0.00000000000E+00 0. -1.
         21   -1    0    0  501  503 -0.00000000000E+00 -0.00000000000E+00 -0.17252609792E+03  0.17252609792E+03  0.00000000000E+00 0. -1.
    9000007    1    1    2  501    0  0.12441550431E+02 -0.10420686909E+03  0.37802427378E+03  0.56028226396E+03  0.40000000000E+03 0.  1.
   -9000007    1    1    2    0  502 -0.12441550431E+02  0.10420686909E+03  0.44384844586E+03  0.60664265151E+03  0.40000000000E+03 0.  1.
<mgrwt>
<rscale>  2 0.41353823E+03</rscale>
<asrwt>0</asrwt>
<pdfrwt beam="1">  1       21 0.15298443E+00 0.41353823E+03</pdfrwt>
<pdfrwt beam="2">  1       21 0.26542477E-01 0.41353823E+03</pdfrwt>
<totfact> 0.33580740E+03</totfact>
</mgrwt>
</event>
<event>
 4    1  0.4863180E-002  0.5103502E+03  0.7818608E-02  0.1011112E+00
         21   -1    0    0  501  502  0.00000000000E+00  0.00000000000E+00  0.15709586487E+04  0.15709586487E+04  0.00000000000E+00 0. -1.
         21   -1    0    0  502  503 -0.00000000000E+00 -0.00000000000E+00 -0.17227404182E+03  0.17227404182E+03  0.00000000000E+00 0. -1.
    9000007    1    1    2  501    0  0.25159339293E+03 -0.19276433661E+03  0.53031151862E+03  0.73599431493E+03  0.40000000000E+03 0. -1.
   -9000007    1    1    2    0  503 -0.25159339293E+03  0.19276433661E+03  0.86837308822E+03  0.10072383755E+04  0.40000000000E+03 0. -1.
<mgrwt>
<rscale>  2 0.51035020E+03</rscale>
<asrwt>0</asrwt>
<pdfrwt beam="1">  1       21 0.24168594E+00 0.51035020E+03</pdfrwt>
<pdfrwt beam="2">  1       21 0.26503700E-01 0.51035020E+03</pdfrwt>
<totfact> 0.80451953E+02</totfact>
</mgrwt>
</event>
<event>
 4    1  0.4863180E-002  0.4574496E+03  0.7818608E-02  0.1025524E+00
         21   -1    0    0  501  502  0.00000000000E+00  0.00000000000E+00  0.48400704658E+03  0.48400704658E+03  0.00000000000E+00 0. -1.
         21   -1    0    0  502  503 -0.00000000000E+00 -0.00000000000E+00 -0.60661067253E+03  0.60661067253E+03  0.00000000000E+00 0. -1.
    9000007    1    1    2  501    0  0.21575557445E+03 -0.52054073491E+02  0.23097080497E+03  0.51245254143E+03  0.40000000000E+03 0. -1.
   -9000007    1    1    2    0  503 -0.21575557445E+03  0.52054073491E+02 -0.35357443092E+03  0.57816517767E+03  0.40000000000E+03 0. -1.
<mgrwt>
<rscale>  2 0.45744955E+03</rscale>
<asrwt>0</asrwt>
<pdfrwt beam="1">  1       21 0.74462623E-01 0.45744955E+03</pdfrwt>
<pdfrwt beam="2">  1       21 0.93324719E-01 0.45744955E+03</pdfrwt>
<totfact> 0.13311420E+03</totfact>
</mgrwt>
</event>
<event>
 4    1  0.4863180E-002  0.5807152E+03  0.7818608E-02  0.9946244E-01
         21   -1    0    0  503  502  0.00000000000E+00  0.00000000000E+00  0.27553129025E+04  0.27553129025E+04  0.00000000000E+00 0. -1.
         21   -1    0    0  501  503 -0.00000000000E+00 -0.00000000000E+00 -0.13499049119E+03  0.13499049119E+03  0.00000000000E+00 0.  1.
    9000007    1    1    2  501    0 -0.41469432622E+03 -0.72517394996E+02  0.86868303870E+03  0.10449116606E+04  0.40000000000E+03 0. -1.
   -9000007    1    1    2    0  502  0.41469432622E+03  0.72517394996E+02  0.17516393726E+04  0.18453917330E+04  0.40000000000E+03 0.  1.
<mgrwt>
<rscale>  2 0.58071521E+03</rscale>
<asrwt>0</asrwt>
<pdfrwt beam="1">  1       21 0.42389425E+00 0.58071521E+03</pdfrwt>
<pdfrwt beam="2">  1       21 0.20767770E-01 0.58071521E+03</pdfrwt>
<totfact> 0.91695354E+01</totfact>
</mgrwt>
</event>
<event>
 4    1  0.4863180E-002  0.4219466E+03  0.7818608E-02  0.1036435E+00
         21   -1    0    0  503  502  0.00000000000E+00  0.00000000000E+00  0.35294089502E+03  0.35294089502E+03  0.00000000000E+00 0. -1.
         21   -1    0    0  501  503 -0.00000000000E+00 -0.00000000000E+00 -0.51583880561E+03  0.51583880561E+03  0.00000000000E+00 0. -1.
    9000007    1    1    2  501    0 -0.11971526843E+03 -0.60886933556E+02 -0.14601044888E+03  0.44649525793E+03  0.40000000000E+03 0. -1.
   -9000007    1    1    2    0  502  0.11971526843E+03  0.60886933556E+02 -0.16887461707E+02  0.42228444269E+03  0.40000000000E+03 0. -1.
<mgrwt>
<rscale>  2 0.42194664E+03</rscale>
<asrwt>0</asrwt>
<pdfrwt beam="1">  1       21 0.54298600E-01 0.42194664E+03</pdfrwt>
<pdfrwt beam="2">  1       21 0.79359816E-01 0.42194664E+03</pdfrwt>
<totfact> 0.39687857E+03</totfact>
</mgrwt>
</event>
<event>
 4    1  0.4863180E-002  0.4449544E+03  0.7818608E-02  0.1029237E+00
         21   -1    0    0  501  502  0.00000000000E+00  0.00000000000E+00  0.13161100953E+03  0.13161100953E+03  0.00000000000E+00 0. -1.
         21   -1    0    0  502  503 -0.00000000000E+00 -0.00000000000E+00 -0.15966563078E+04  0.15966563078E+04  0.00000000000E+00 0. -1.
    9000007    1    1    2  501    0  0.10248906749E+03  0.16577215396E+03 -0.52470941166E+03  0.68797120773E+03  0.40000000000E+03 0. -1.
   -9000007    1    1    2    0  503 -0.10248906749E+03 -0.16577215396E+03 -0.94033588664E+03  0.10402961096E+04  0.40000000000E+03 0. -1.
<mgrwt>
<rscale>  2 0.44495440E+03</rscale>
<asrwt>0</asrwt>
<pdfrwt beam="1">  1       21 0.20247847E-01 0.44495440E+03</pdfrwt>
<pdfrwt beam="2">  1       21 0.24563943E+00 0.44495440E+03</pdfrwt>
<totfact> 0.13190489E+03</totfact>
</mgrwt>
</event>
<event>
 4    1  0.4863180E-002  0.4459014E+03  0.7818608E-02  0.1028951E+00
         21   -1    0    0  501  502  0.00000000000E+00  0.00000000000E+00  0.33098161792E+03  0.33098161792E+03  0.00000000000E+00 0. -1.
         21   -1    0    0  502  503 -0.00000000000E+00 -0.00000000000E+00 -0.14267568898E+04  0.14267568898E+04  0.00000000000E+00 0. -1.
    9000007    1    1    2  501    0 -0.13825905649E+03 -0.14040133949E+03 -0.12166138505E+04  0.12957535892E+04  0.40000000000E+03 0.  1.
   -9000007    1    1    2    0  503  0.13825905649E+03  0.14040133949E+03  0.12083857859E+03  0.46198491849E+03  0.40000000000E+03 0.  1.
<mgrwt>
<rscale>  2 0.44590145E+03</rscale>
<asrwt>0</asrwt>
<pdfrwt beam="1">  1       21 0.50920248E-01 0.44590145E+03</pdfrwt>
<pdfrwt beam="2">  1       21 0.21950106E+00 0.44590145E+03</pdfrwt>
<totfact> 0.30186905E+02</totfact>
</mgrwt>
</event>
<event>
 4    1  0.4863180E-002  0.4814173E+03  0.7818608E-02  0.1018746E+00
         21   -1    0    0  501  502  0.00000000000E+00  0.00000000000E+00  0.49634956242E+03  0.49634956242E+03  0.00000000000E+00 0.  1.
         21   -1    0    0  502  503 -0.00000000000E+00 -0.00000000000E+00 -0.50040710497E+03  0.50040710497E+03  0.00000000000E+00 0. -1.
    9000007    1    1    2  501    0 -0.22057113297E+03  0.15202310397E+03 -0.13092591653E+03  0.49890304114E+03  0.40000000000E+03 0. -1.
   -9000007    1    1    2    0  503  0.22057113297E+03 -0.15202310397E+03  0.12686837398E+03  0.49785362624E+03  0.40000000000E+03 0.  1.
<mgrwt>
<rscale>  2 0.48141733E+03</rscale>
<asrwt>0</asrwt>
<pdfrwt beam="1">  1       21 0.76361471E-01 0.48141733E+03</pdfrwt>
<pdfrwt beam="2">  1       21 0.76985709E-01 0.48141733E+03</pdfrwt>
<totfact> 0.19545974E+03</totfact>
</mgrwt>
</event>
<event>
 4    1  0.4863180E-002  0.4481711E+03  0.7818608E-02  0.1028269E+00
         21   -1    0    0  501  502  0.00000000000E+00  0.00000000000E+00  0.16332815613E+03  0.16332815613E+03  0.00000000000E+00 0.  1.
         21   -1    0    0  502  503 -0.00000000000E+00 -0.00000000000E+00 -0.12511602665E+04  0.12511602665E+04  0.00000000000E+00 0. -1.
    9000007    1    1    2  501    0 -0.16576984384E+02  0.20145099784E+03 -0.63637401180E+03  0.77835029636E+03  0.40000000000E+03 0. -1.
   -9000007    1    1    2    0  503  0.16576984384E+02 -0.20145099784E+03 -0.45145809860E+03  0.63613812630E+03  0.40000000000E+03 0.  1.
<mgrwt>
<rscale>  2 0.44817106E+03</rscale>
<asrwt>0</asrwt>
<pdfrwt beam="1">  1       21 0.25127411E-01 0.44817106E+03</pdfrwt>
<pdfrwt beam="2">  1       21 0.19248618E+00 0.44817106E+03</pdfrwt>
<totfact> 0.19091390E+03</totfact>
</mgrwt>
</event>
<event>
 4    1  0.4863180E-002  0.4885994E+03  0.7818608E-02  0.1016798E+00
         21   -1    0    0  503  502  0.00000000000E+00  0.00000000000E+00  0.52056625707E+03  0.52056625707E+03  0.00000000000E+00 0. -1.
         21   -1    0    0  501  503 -0.00000000000E+00 -0.00000000000E+00 -0.46484263429E+03  0.46484263429E+03  0.00000000000E+00 0.  1.
    9000007    1    1    2  501    0  0.25014553371E+03 -0.12710840071E+03 -0.29256393616E+02  0.48947448364E+03  0.40000000000E+03 0.  1.
   -9000007    1    1    2    0  502 -0.25014553371E+03  0.12710840071E+03  0.84980016403E+02  0.49593440772E+03  0.40000000000E+03 0.  1.
<mgrwt>
<rscale>  2 0.48859936E+03</rscale>
<asrwt>0</asrwt>
<pdfrwt beam="1">  1       21 0.80087116E-01 0.48859936E+03</pdfrwt>
<pdfrwt beam="2">  1       21 0.71514252E-01 0.48859936E+03</pdfrwt>
<totfact> 0.20669204E+03</totfact>
</mgrwt>
</event>
<event>
 4    1  0.4863180E-002  0.4542177E+03  0.7818608E-02  0.1026472E+00
         21   -1    0    0  503  502  0.00000000000E+00  0.00000000000E+00  0.44674603748E+03  0.44674603748E+03  0.00000000000E+00 0.  1.
         21   -1    0    0  501  503 -0.00000000000E+00 -0.00000000000E+00 -0.54450824896E+03  0.54450824896E+03  0.00000000000E+00 0.  1.
    9000007    1    1    2  501    0  0.21190926613E+03 -0.37525996514E+02 -0.24202880838E+03  0.51467628814E+03  0.40000000000E+03 0.  1.
   -9000007    1    1    2    0  502 -0.21190926613E+03  0.37525996514E+02  0.14426659689E+03  0.47657799830E+03  0.40000000000E+03 0.  1.
<mgrwt>
<rscale>  2 0.45421772E+03</rscale>
<asrwt>0</asrwt>
<pdfrwt beam="1">  1       21 0.68730160E-01 0.45421772E+03</pdfrwt>
<pdfrwt beam="2">  1       21 0.83770499E-01 0.45421772E+03</pdfrwt>
<totfact> 0.20614212E+03</totfact>
</mgrwt>
</event>
<event>
 4    1  0.4863180E-002  0.5405804E+03  0.7818608E-02  0.1003698E+00
         21   -1    0    0  503  502  0.00000000000E+00  0.00000000000E+00  0.53016796569E+03  0.53016796569E+03  0.00000000000E+00 0. -1.
         21   -1    0    0  501  503 -0.00000000000E+00 -0.00000000000E+00 -0.82344208393E+03  0.82344208393E+03  0.00000000000E+00 0. -1.
    9000007    1    1    2  501    0  0.13322181666E+03 -0.33834761777E+03 -0.53579581943E+03  0.76112043922E+03  0.40000000000E+03 0. -1.
   -9000007    1    1    2    0  502 -0.13322181666E+03  0.33834761777E+03  0.24252170119E+03  0.59248961040E+03  0.40000000000E+03 0. -1.
<mgrwt>
<rscale>  2 0.54058039E+03</rscale>
<asrwt>0</asrwt>
<pdfrwt beam="1">  1       21 0.81564302E-01 0.54058039E+03</pdfrwt>
<pdfrwt beam="2">  1       21 0.12668340E+00 0.54058039E+03</pdfrwt>
<totfact> 0.48905667E+02</totfact>
</mgrwt>
</event>
<event>
 4    1  0.4863180E-002  0.5157667E+03  0.7818608E-02  0.1009744E+00
         21   -1    0    0  501  502  0.00000000000E+00  0.00000000000E+00  0.46673831890E+03  0.46673831890E+03  0.00000000000E+00 0.  1.
         21   -1    0    0  502  503 -0.00000000000E+00 -0.00000000000E+00 -0.59847599229E+03  0.59847599229E+03  0.00000000000E+00 0. -1.
    9000007    1    1    2  501    0 -0.29513538332E+03  0.13751517201E+03 -0.18215811891E+03  0.54698893710E+03  0.40000000000E+03 0. -1.
   -9000007    1    1    2    0  503  0.29513538332E+03 -0.13751517201E+03  0.50420445523E+02  0.51822537409E+03  0.40000000000E+03 0.  1.
<mgrwt>
<rscale>  2 0.51576673E+03</rscale>
<asrwt>0</asrwt>
<pdfrwt beam="1">  1       21 0.71805895E-01 0.51576673E+03</pdfrwt>
<pdfrwt beam="2">  1       21 0.92073230E-01 0.51576673E+03</pdfrwt>
<totfact> 0.14618510E+03</totfact>
</mgrwt>
</event>
<event>
 4    1  0.4863180E-002  0.4040450E+03  0.7818608E-02  0.1042388E+00
         21   -1    0    0  501  502  0.00000000000E+00  0.00000000000E+00  0.22614160891E+03  0.22614160891E+03  0.00000000000E+00 0.  1.
         21   -1    0    0  502  503 -0.00000000000E+00 -0.00000000000E+00 -0.19214890395E+04  0.19214890395E+04  0.00000000000E+00 0.  1.
    9000007    1    1    2  501    0  0.17158414201E+02  0.54387010730E+02  0.77637708786E+00  0.40404574107E+03  0.40000000000E+03 0.  1.
   -9000007    1    1    2    0  503 -0.17158414201E+02 -0.54387010730E+02 -0.16961238077E+04  0.17435849073E+04  0.40000000000E+03 0.  1.
<mgrwt>
<rscale>  2 0.40404500E+03</rscale>
<asrwt>0</asrwt>
<pdfrwt beam="1">  1       21 0.34791016E-01 0.40404500E+03</pdfrwt>
<pdfrwt beam="2">  1       21 0.29561371E+00 0.40404500E+03</pdfrwt>
<totfact> 0.23327197E+02</totfact>
</mgrwt>
</event>
<event>
 4    1  0.4863180E-002  0.4810661E+03  0.7818608E-02  0.1018843E+00
         21   -1    0    0  503  502  0.00000000000E+00  0.00000000000E+00  0.38330577214E+03  0.38330577214E+03  0.00000000000E+00 0. -1.
         21   -1    0    0  501  503 -0.00000000000E+00 -0.00000000000E+00 -0.61757343994E+03  0.61757343994E+03  0.00000000000E+00 0.  1.
    9000007    1    1    2  501    0 -0.23026031638E+03 -0.13566431676E+03 -0.42289094979E+02  0.48292130591E+03  0.40000000000E+03 0. -1.
   -9000007    1    1    2    0  502  0.23026031638E+03  0.13566431676E+03 -0.19197857282E+03  0.51795790617E+03  0.40000000000E+03 0.  1.
<mgrwt>
<rscale>  2 0.48106613E+03</rscale>
<asrwt>0</asrwt>
<pdfrwt beam="1">  1       21 0.58970119E-01 0.48106613E+03</pdfrwt>
<pdfrwt beam="2">  1       21 0.95011298E-01 0.48106613E+03</pdfrwt>
<totfact> 0.21279897E+03</totfact>
</mgrwt>
</event>
<event>
 4    1  0.4863180E-002  0.4386576E+03  0.7818608E-02  0.1031159E+00
         21   -1    0    0  501  502  0.00000000000E+00  0.00000000000E+00  0.63013400352E+03  0.63013400352E+03  0.00000000000E+00 0.  1.
         21   -1    0    0  502  503 -0.00000000000E+00 -0.00000000000E+00 -0.43174725267E+03  0.43174725267E+03  0.00000000000E+00 0.  1.
    9000007    1    1    2  501    0 -0.72722285179E+02 -0.16471786885E+03  0.38645340673E+03  0.58460819585E+03  0.40000000000E+03 0.  1.
   -9000007    1    1    2    0  503  0.72722285179E+02  0.16471786885E+03 -0.18806665587E+03  0.47727306034E+03  0.40000000000E+03 0.  1.
<mgrwt>
<rscale>  2 0.43865762E+03</rscale>
<asrwt>0</asrwt>
<pdfrwt beam="1">  1       21 0.96943693E-01 0.43865762E+03</pdfrwt>
<pdfrwt beam="2">  1       21 0.66422654E-01 0.43865762E+03</pdfrwt>
<totfact> 0.15837063E+03</totfact>
</mgrwt>
</event>
<event>
 4    1  0.4863180E-002  0.4459440E+03  0.7818608E-02  0.1028939E+00
         21   -1    0    0  501  502  0.00000000000E+00  0.00000000000E+00  0.96044884349E+03  0.96044884349E+03  0.00000000000E+00 0. -1.
         21   -1    0    0  502  503 -0.00000000000E+00 -0.00000000000E+00 -0.37450900555E+03  0.37450900555E+03  0.00000000000E+00 0. -1.
    9000007    1    1    2  501    0  0.95367714955E+02  0.17254288700E+03  0.73929754782E+03  0.86338109379E+03  0.40000000000E+03 0. -1.
   -9000007    1    1    2    0  503 -0.95367714955E+02 -0.17254288700E+03 -0.15335770988E+03  0.47157675525E+03  0.40000000000E+03 0. -1.
<mgrwt>
<rscale>  2 0.44594400E+03</rscale>
<asrwt>0</asrwt>
<pdfrwt beam="1">  1       21 0.14776136E+00 0.44594400E+03</pdfrwt>
<pdfrwt beam="2">  1       21 0.57616770E-01 0.44594400E+03</pdfrwt>
<totfact> 0.73940106E+02</totfact>
</mgrwt>
</event>
<event>
 4    1  0.4863180E-002  0.4353716E+03  0.7818608E-02  0.1032176E+00
         21   -1    0    0  501  502  0.00000000000E+00  0.00000000000E+00  0.22961272516E+03  0.22961272516E+03  0.00000000000E+00 0.  1.
         21   -1    0    0  502  503 -0.00000000000E+00 -0.00000000000E+00 -0.88436500486E+03  0.88436500486E+03  0.00000000000E+00 0.  1.
    9000007    1    1    2  501    0  0.15648936227E+03 -0.71130017949E+02 -0.18369174734E+03  0.47253683243E+03  0.40000000000E+03 0.  1.
   -9000007    1    1    2    0  503 -0.15648936227E+03  0.71130017949E+02 -0.47106053236E+03  0.64144089759E+03  0.40000000000E+03 0.  1.
<mgrwt>
<rscale>  2 0.43537157E+03</rscale>
<asrwt>0</asrwt>
<pdfrwt beam="1">  1       21 0.35325035E-01 0.43537157E+03</pdfrwt>
<pdfrwt beam="2">  1       21 0.13605615E+00 0.43537157E+03</pdfrwt>
<totfact> 0.25810939E+03</totfact>
</mgrwt>
</event>
<event>
 4    1  0.4863180E-002  0.5408554E+03  0.7818608E-02  0.1003633E+00
         21   -1    0    0  501  502  0.00000000000E+00  0.00000000000E+00  0.15063203048E+04  0.15063203048E+04  0.00000000000E+00 0. -1.
         21   -1    0    0  502  503 -0.00000000000E+00 -0.00000000000E+00 -0.22830492584E+03  0.22830492584E+03  0.00000000000E+00 0. -1.
    9000007    1    1    2  501    0 -0.13988279529E+03  0.33609130754E+03  0.97423437281E+03  0.11142967184E+04  0.40000000000E+03 0. -1.
   -9000007    1    1    2    0  503  0.13988279529E+03 -0.33609130754E+03  0.30378100613E+03  0.62032851225E+03  0.40000000000E+03 0. -1.
<mgrwt>
<rscale>  2 0.54085540E+03</rscale>
<asrwt>0</asrwt>
<pdfrwt beam="1">  1       21 0.23174158E+00 0.54085540E+03</pdfrwt>
<pdfrwt beam="2">  1       21 0.35123836E-01 0.54085540E+03</pdfrwt>
<totfact> 0.52248429E+02</totfact>
</mgrwt>
</event>
<event>
 4    1  0.4863180E-002  0.4682453E+03  0.7818608E-02  0.1022417E+00
         21   -1    0    0  501  502  0.00000000000E+00  0.00000000000E+00  0.19764143221E+03  0.19764143221E+03  0.00000000000E+00 0.  1.
         21   -1    0    0  502  503 -0.00000000000E+00 -0.00000000000E+00 -0.12733900947E+04  0.12733900947E+04  0.00000000000E+00 0.  1.
    9000007    1    1    2  501    0  0.22288616151E+03  0.97854199107E+02 -0.27388573369E+03  0.54246389778E+03  0.40000000000E+03 0.  1.
   -9000007    1    1    2    0  503 -0.22288616151E+03 -0.97854199107E+02 -0.80186292882E+03  0.92856762915E+03  0.40000000000E+03 0.  1.
<mgrwt>
<rscale>  2 0.46824533E+03</rscale>
<asrwt>0</asrwt>
<pdfrwt beam="1">  1       21 0.30406376E-01 0.46824533E+03</pdfrwt>
<pdfrwt beam="2">  1       21 0.19590616E+00 0.46824533E+03</pdfrwt>
<totfact> 0.12327009E+03</totfact>
</mgrwt>
</event>
<event>
 4    1  0.4863180E-002  0.4288891E+03  0.7818608E-02  0.1034211E+00
         21   -1    0    0  503  502  0.00000000000E+00  0.00000000000E+00  0.21916502633E+03  0.21916502633E+03  0.00000000000E+00 0.  1.
         21   -1    0    0  501  503 -0.00000000000E+00 -0.00000000000E+00 -0.93760692389E+03  0.93760692389E+03  0.00000000000E+00 0.  1.
    9000007    1    1    2  501    0 -0.92909856292E+02 -0.12374820610E+03 -0.17194033693E+03  0.46207070820E+03  0.40000000000E+03 0.  1.
   -9000007    1    1    2    0  502  0.92909856292E+02  0.12374820610E+03 -0.54650156062E+03  0.69470124203E+03  0.40000000000E+03 0.  1.
<mgrwt>
<rscale>  2 0.42888910E+03</rscale>
<asrwt>0</asrwt>
<pdfrwt beam="1">  1       21 0.33717696E-01 0.42888910E+03</pdfrwt>
<pdfrwt beam="2">  1       21 0.14424722E+00 0.42888910E+03</pdfrwt>
<totfact> 0.24336889E+03</totfact>
</mgrwt>
</event>
<event>
 4    1  0.4863180E-002  0.4147757E+03  0.7818608E-02  0.1038780E+00
         21   -1    0    0  503  502  0.00000000000E+00  0.00000000000E+00  0.16862772895E+03  0.16862772895E+03  0.00000000000E+00 0. -1.
         21   -1    0    0  501  503 -0.00000000000E+00 -0.00000000000E+00 -0.20892847751E+04  0.20892847751E+04  0.00000000000E+00 0. -1.
    9000007    1    1    2  501    0  0.82878155759E+02 -0.71903594672E+02 -0.17678953217E+04  0.18158999928E+04  0.40000000000E+03 0. -1.
   -9000007    1    1    2    0  502 -0.82878155759E+02  0.71903594672E+02 -0.15276172455E+03  0.44201251127E+03  0.40000000000E+03 0. -1.
<mgrwt>
<rscale>  2 0.41477574E+03</rscale>
<asrwt>0</asrwt>
<pdfrwt beam="1">  1       21 0.25942728E-01 0.41477574E+03</pdfrwt>
<pdfrwt beam="2">  1       21 0.32142843E+00 0.41477574E+03</pdfrwt>
<totfact> 0.29024002E+02</totfact>
</mgrwt>
</event>
<event>
 4    1  0.4863180E-002  0.4754677E+03  0.7818608E-02  0.1020388E+00
         21   -1    0    0  501  502  0.00000000000E+00  0.00000000000E+00  0.63131672005E+03  0.63131672005E+03  0.00000000000E+00 0. -1.
         21   -1    0    0  502  503 -0.00000000000E+00 -0.00000000000E+00 -0.37893676188E+03  0.37893676188E+03  0.00000000000E+00 0. -1.
    9000007    1    1    2  501    0 -0.13009891530E+03  0.22168409581E+03  0.24466146158E+03  0.53472310300E+03  0.40000000000E+03 0. -1.
   -9000007    1    1    2    0  503  0.13009891530E+03 -0.22168409581E+03  0.77184965889E+01  0.47553037893E+03  0.40000000000E+03 0. -1.
<mgrwt>
<rscale>  2 0.47546773E+03</rscale>
<asrwt>0</asrwt>
<pdfrwt beam="1">  1       21 0.97125649E-01 0.47546773E+03</pdfrwt>
<pdfrwt beam="2">  1       21 0.58297964E-01 0.47546773E+03</pdfrwt>
<totfact> 0.20735267E+03</totfact>
</mgrwt>
</event>
<event>
 4    1  0.4863180E-002  0.5003458E+03  0.7818608E-02  0.1013689E+00
         21   -1    0    0  503  502  0.00000000000E+00  0.00000000000E+00  0.23200260364E+04  0.23200260364E+04  0.00000000000E+00 0. -1.
         21   -1    0    0  501  503 -0.00000000000E+00 -0.00000000000E+00 -0.10920872749E+03  0.10920872749E+03  0.00000000000E+00 0.  1.
    9000007    1    1    2  501    0 -0.19051165244E+03  0.23248925628E+03  0.97277603999E+03  0.10939100365E+04  0.40000000000E+03 0.  1.
   -9000007    1    1    2    0  502  0.19051165244E+03 -0.23248925628E+03  0.12380412690E+04  0.13353247274E+04  0.40000000000E+03 0. -1.
<mgrwt>
<rscale>  2 0.50034582E+03</rscale>
<asrwt>0</asrwt>
<pdfrwt beam="1">  1       21 0.35692705E+00 0.50034582E+03</pdfrwt>
<pdfrwt beam="2">  1       21 0.16801344E-01 0.50034582E+03</pdfrwt>
<totfact> 0.38408340E+02</totfact>
</mgrwt>
</event>
<event>
 4    1  0.4863180E-002  0.4583165E+03  0.7818608E-02  0.1025271E+00
         21   -1    0    0  501  502  0.00000000000E+00  0.00000000000E+00  0.94589136155E+03  0.94589136155E+03  0.00000000000E+00 0.  1.
         21   -1    0    0  502  503 -0.00000000000E+00 -0.00000000000E+00 -0.32149658333E+03  0.32149658333E+03  0.00000000000E+00 0.  1.
    9000007    1    1    2  501    0  0.54083028689E+02  0.21709223025E+03  0.66460302689E+03  0.80731108860E+03  0.40000000000E+03 0.  1.
   -9000007    1    1    2    0  503 -0.54083028689E+02 -0.21709223025E+03 -0.40208248675E+02  0.46007685628E+03  0.40000000000E+03 0.  1.
<mgrwt>
<rscale>  2 0.45831650E+03</rscale>
<asrwt>0</asrwt>
<pdfrwt beam="1">  1       21 0.14552175E+00 0.45831650E+03</pdfrwt>
<pdfrwt beam="2">  1       21 0.49461013E-01 0.45831650E+03</pdfrwt>
<totfact> 0.10639240E+03</totfact>
</mgrwt>
</event>
<event>
 4    1  0.4863180E-002  0.4114051E+03  0.7818608E-02  0.1039901E+00
         21   -1    0    0  501  502  0.00000000000E+00  0.00000000000E+00  0.32440645544E+03  0.32440645544E+03  0.00000000000E+00 0.  1.
         21   -1    0    0  502  503 -0.00000000000E+00 -0.00000000000E+00 -0.56627184891E+03  0.56627184891E+03  0.00000000000E+00 0.  1.
    9000007    1    1    2  501    0  0.43658399148E+02 -0.85720844312E+02 -0.24582606651E+03  0.47925418510E+03  0.40000000000E+03 0.  1.
   -9000007    1    1    2    0  503 -0.43658399148E+02  0.85720844312E+02  0.39606730432E+01  0.41142411925E+03  0.40000000000E+03 0.  1.
<mgrwt>
<rscale>  2 0.41140505E+03</rscale>
<asrwt>0</asrwt>
<pdfrwt beam="1">  1       21 0.49908685E-01 0.41140505E+03</pdfrwt>
<pdfrwt beam="2">  1       21 0.87118746E-01 0.41140505E+03</pdfrwt>
<totfact> 0.38405938E+03</totfact>
</mgrwt>
</event>
<event>
 4    1  0.4863180E-002  0.4936011E+03  0.7818608E-02  0.1015463E+00
         21   -1    0    0  501  502  0.00000000000E+00  0.00000000000E+00  0.60109105969E+03  0.60109105969E+03  0.00000000000E+00 0. -1.
         21   -1    0    0  502  503 -0.00000000000E+00 -0.00000000000E+00 -0.96037595396E+03  0.96037595396E+03  0.00000000000E+00 0.  1.
    9000007    1    1    2  501    0 -0.18835625974E+03 -0.21946283262E+03  0.41389140528E+03  0.64416466128E+03  0.40000000000E+03 0. -1.
   -9000007    1    1    2    0  503  0.18835625974E+03  0.21946283262E+03 -0.77317629954E+03  0.91730235237E+03  0.40000000000E+03 0.  1.
<mgrwt>
<rscale>  2 0.49360107E+03</rscale>
<asrwt>0</asrwt>
<pdfrwt beam="1">  1       21 0.92475548E-01 0.49360107E+03</pdfrwt>
<pdfrwt beam="2">  1       21 0.14775015E+00 0.49360107E+03</pdfrwt>
<totfact> 0.24662769E+02</totfact>
</mgrwt>
</event>
<event>
 4    1  0.4863180E-002  0.4713389E+03  0.7818608E-02  0.1021543E+00
         21   -1    0    0  503  502  0.00000000000E+00  0.00000000000E+00  0.21085048531E+03  0.21085048531E+03  0.00000000000E+00 0. -1.
         21   -1    0    0  501  503 -0.00000000000E+00 -0.00000000000E+00 -0.10596043203E+04  0.10596043203E+04  0.00000000000E+00 0. -1.
    9000007    1    1    2  501    0 -0.23537224842E+03  0.82220683536E+02 -0.47203834672E+03  0.66706861484E+03  0.40000000000E+03 0. -1.
   -9000007    1    1    2    0  502  0.23537224842E+03 -0.82220683536E+02 -0.37671548830E+03  0.60338619080E+03  0.40000000000E+03 0. -1.
<mgrwt>
<rscale>  2 0.47133888E+03</rscale>
<asrwt>0</asrwt>
<pdfrwt beam="1">  1       21 0.32438536E-01 0.47133888E+03</pdfrwt>
<pdfrwt beam="2">  1       21 0.16301605E+00 0.47133888E+03</pdfrwt>
<totfact> 0.18498328E+03</totfact>
</mgrwt>
</event>
<event>
 4    1  0.4863180E-002  0.5526970E+03  0.7818608E-02  0.1000872E+00
         21   -1    0    0  503  502  0.00000000000E+00  0.00000000000E+00  0.11836307469E+04  0.11836307469E+04  0.00000000000E+00 0. -1.
         21   -1    0    0  501  503 -0.00000000000E+00 -0.00000000000E+00 -0.26175991934E+03  0.26175991934E+03  0.00000000000E+00 0. -1.
    9000007    1    1    2  501    0  0.21301724681E+01  0.38140456762E+03  0.54659879812E+03  0.77733147881E+03  0.40000000000E+03 0. -1.
   -9000007    1    1    2    0  502 -0.21301724681E+01 -0.38140456762E+03  0.37527202943E+03  0.66805918743E+03  0.40000000000E+03 0. -1.
<mgrwt>
<rscale>  2 0.55269701E+03</rscale>
<asrwt>0</asrwt>
<pdfrwt beam="1">  1       21 0.18209704E+00 0.55269701E+03</pdfrwt>
<pdfrwt beam="2">  1       21 0.40270757E-01 0.55269701E+03</pdfrwt>
<totfact> 0.83942364E+02</totfact>
</mgrwt>
</event>
<event>
 4    1  0.4863180E-002  0.4675536E+03  0.7818608E-02  0.1022613E+00
         21   -1    0    0  501  502  0.00000000000E+00  0.00000000000E+00  0.29750271043E+03  0.29750271043E+03  0.00000000000E+00 0.  1.
         21   -1    0    0  502  503 -0.00000000000E+00 -0.00000000000E+00 -0.75759934652E+03  0.75759934652E+03  0.00000000000E+00 0.  1.
    9000007    1    1    2  501    0  0.14136820268E+03 -0.19652323410E+03 -0.32155701639E+03  0.56745507757E+03  0.40000000000E+03 0.  1.
   -9000007    1    1    2    0  503 -0.14136820268E+03  0.19652323410E+03 -0.13853961970E+03  0.48764697938E+03  0.40000000000E+03 0.  1.
<mgrwt>
<rscale>  2 0.46755358E+03</rscale>
<asrwt>0</asrwt>
<pdfrwt beam="1">  1       21 0.45769648E-01 0.46755358E+03</pdfrwt>
<pdfrwt beam="2">  1       21 0.11655375E+00 0.46755358E+03</pdfrwt>
<totfact> 0.22258961E+03</totfact>
</mgrwt>
</event>
<event>
 4    1  0.4863180E-002  0.4165436E+03  0.7818608E-02  0.1038197E+00
         21   -1    0    0  503  502  0.00000000000E+00  0.00000000000E+00  0.10682457198E+03  0.10682457198E+03  0.00000000000E+00 0.  1.
         21   -1    0    0  501  503 -0.00000000000E+00 -0.00000000000E+00 -0.19998646406E+04  0.19998646406E+04  0.00000000000E+00 0.  1.
    9000007    1    1    2  501    0  0.39427452142E+02 -0.10933460758E+03 -0.14030277168E+04  0.14635557231E+04  0.40000000000E+03 0.  1.
   -9000007    1    1    2    0  502 -0.39427452142E+02  0.10933460758E+03 -0.49001235179E+03  0.64313348949E+03  0.40000000000E+03 0.  1.
<mgrwt>
<rscale>  2 0.41654361E+03</rscale>
<asrwt>0</asrwt>
<pdfrwt beam="1">  1       21 0.16434550E-01 0.41654361E+03</pdfrwt>
<pdfrwt beam="2">  1       21 0.30767147E+00 0.41654361E+03</pdfrwt>
<totfact> 0.83733575E+02</totfact>
</mgrwt>
</event>
<event>
 4    1  0.4863180E-002  0.4826745E+03  0.7818608E-02  0.1018403E+00
         21   -1    0    0  503  502  0.00000000000E+00  0.00000000000E+00  0.84382441163E+03  0.84382441163E+03  0.00000000000E+00 0. -1.
         21   -1    0    0  501  503 -0.00000000000E+00 -0.00000000000E+00 -0.30987667515E+03  0.30987667515E+03  0.00000000000E+00 0. -1.
    9000007    1    1    2  501    0  0.31214487524E+02 -0.26832878528E+03  0.76507973819E+02  0.48870047197E+03  0.40000000000E+03 0. -1.
   -9000007    1    1    2    0  502 -0.31214487524E+02  0.26832878528E+03  0.45743976266E+03  0.66500061482E+03  0.40000000000E+03 0. -1.
<mgrwt>
<rscale>  2 0.48267451E+03</rscale>
<asrwt>0</asrwt>
<pdfrwt beam="1">  1       21 0.12981914E+00 0.48267451E+03</pdfrwt>
<pdfrwt beam="2">  1       21 0.47673335E-01 0.48267451E+03</pdfrwt>
<totfact> 0.15409420E+03</totfact>
</mgrwt>
</event>
<event>
 4    1  0.4863180E-002  0.4237625E+03  0.7818608E-02  0.1035849E+00
         21   -1    0    0  501  502  0.00000000000E+00  0.00000000000E+00  0.17517531058E+03  0.17517531058E+03  0.00000000000E+00 0. -1.
         21   -1    0    0  502  503 -0.00000000000E+00 -0.00000000000E+00 -0.10272807554E+04  0.10272807554E+04  0.00000000000E+00 0. -1.
    9000007    1    1    2  501    0 -0.13852050356E+03  0.19665872432E+02 -0.45366435505E+03  0.62079467096E+03  0.40000000000E+03 0. -1.
   -9000007    1    1    2    0  503  0.13852050356E+03 -0.19665872432E+02 -0.39844108980E+03  0.58166139505E+03  0.40000000000E+03 0. -1.
<mgrwt>
<rscale>  2 0.42376252E+03</rscale>
<asrwt>0</asrwt>
<pdfrwt beam="1">  1       21 0.26950047E-01 0.42376252E+03</pdfrwt>
<pdfrwt beam="2">  1       21 0.15804320E+00 0.42376252E+03</pdfrwt>
<totfact> 0.29685034E+03</totfact>
</mgrwt>
</event>
<event>
 4    1  0.4863180E-002  0.5016473E+03  0.7818608E-02  0.1013350E+00
         21   -1    0    0  503  502  0.00000000000E+00  0.00000000000E+00  0.89716401018E+03  0.89716401018E+03  0.00000000000E+00 0. -1.
         21   -1    0    0  501  503 -0.00000000000E+00 -0.00000000000E+00 -0.69182162942E+03  0.69182162942E+03  0.00000000000E+00 0. -1.
    9000007    1    1    2  501    0 -0.15279821378E+03 -0.26134782134E+03 -0.50994200398E+03  0.71532567777E+03  0.40000000000E+03 0. -1.
   -9000007    1    1    2    0  502  0.15279821378E+03  0.26134782134E+03  0.71528438474E+03  0.87365996183E+03  0.40000000000E+03 0. -1.
<mgrwt>
<rscale>  2 0.50164726E+03</rscale>
<asrwt>0</asrwt>
<pdfrwt beam="1">  1       21 0.13802523E+00 0.50164726E+03</pdfrwt>
<pdfrwt beam="2">  1       21 0.10643410E+00 0.50164726E+03</pdfrwt>
<totfact> 0.20962534E+02</totfact>
</mgrwt>
</event>
<event>
 4    1  0.4863180E-002  0.6572836E+03  0.7818608E-02  0.9793207E-01
         21   -1    0    0  501  502  0.00000000000E+00  0.00000000000E+00  0.57423155240E+03  0.57423155240E+03  0.00000000000E+00 0.  1.
         21   -1    0    0  502  503 -0.00000000000E+00 -0.00000000000E+00 -0.77202581392E+03  0.77202581392E+03  0.00000000000E+00 0. -1.
    9000007    1    1    2  501    0  0.19723404243E+03 -0.48282543453E+03 -0.20636440338E+03  0.68891794483E+03  0.40000000000E+03 0.  1.
   -9000007    1    1    2    0  503 -0.19723404243E+03  0.48282543453E+03  0.85701418613E+01  0.65733942150E+03  0.40000000000E+03 0. -1.
<mgrwt>
<rscale>  2 0.65728355E+03</rscale>
<asrwt>0</asrwt>
<pdfrwt beam="1">  1       21 0.88343317E-01 0.65728355E+03</pdfrwt>
<pdfrwt beam="2">  1       21 0.11877320E+00 0.65728355E+03</pdfrwt>
<totfact> 0.46023173E+02</totfact>
</mgrwt>
</event>
<event>
 4    1  0.4863180E-002  0.4057365E+03  0.7818608E-02  0.1041811E+00
         21   -1    0    0  503  502  0.00000000000E+00  0.00000000000E+00  0.16236599532E+03  0.16236599532E+03  0.00000000000E+00 0.  1.
         21   -1    0    0  501  503 -0.00000000000E+00 -0.00000000000E+00 -0.10583356460E+04  0.10583356460E+04  0.00000000000E+00 0.  1.
    9000007    1    1    2  501    0 -0.58276047178E+02 -0.35013943434E+02 -0.32291345463E+03  0.51855103229E+03  0.40000000000E+03 0.  1.
   -9000007    1    1    2    0  502  0.58276047178E+02  0.35013943434E+02 -0.57305619602E+03  0.70215060899E+03  0.40000000000E+03 0.  1.
<mgrwt>
<rscale>  2 0.40573646E+03</rscale>
<asrwt>0</asrwt>
<pdfrwt beam="1">  1       21 0.24979385E-01 0.40573646E+03</pdfrwt>
<pdfrwt beam="2">  1       21 0.16282086E+00 0.40573646E+03</pdfrwt>
<totfact> 0.31924257E+03</totfact>
</mgrwt>
</event>
<event>
 4    1  0.4863180E-002  0.6007726E+03  0.7818608E-02  0.9903804E-01
         21   -1    0    0  501  502  0.00000000000E+00  0.00000000000E+00  0.61682952080E+03  0.61682952080E+03  0.00000000000E+00 0. -1.
         21   -1    0    0  502  503 -0.00000000000E+00 -0.00000000000E+00 -0.62066548478E+03  0.62066548478E+03  0.00000000000E+00 0. -1.
    9000007    1    1    2  501    0  0.28971214922E+03  0.34204472253E+03  0.14612688464E+03  0.61828859607E+03  0.40000000000E+03 0. -1.
   -9000007    1    1    2    0  503 -0.28971214922E+03 -0.34204472253E+03 -0.14996284862E+03  0.61920640951E+03  0.40000000000E+03 0. -1.
<mgrwt>
<rscale>  2 0.60077260E+03</rscale>
<asrwt>0</asrwt>
<pdfrwt beam="1">  1       21 0.94896849E-01 0.60077260E+03</pdfrwt>
<pdfrwt beam="2">  1       21 0.95486998E-01 0.60077260E+03</pdfrwt>
<totfact> 0.67858319E+02</totfact>
</mgrwt>
</event>
<event>
 4    1  0.4863180E-002  0.4468310E+03  0.7818608E-02  0.1028671E+00
         21   -1    0    0  503  502  0.00000000000E+00  0.00000000000E+00  0.61407647655E+03  0.61407647655E+03  0.00000000000E+00 0.  1.
         21   -1    0    0  501  503 -0.00000000000E+00 -0.00000000000E+00 -0.16412498423E+04  0.16412498423E+04  0.00000000000E+00 0. -1.
    9000007    1    1    2  501    0  0.17662903542E+03  0.91978761121E+02 -0.15233948895E+04  0.15875735883E+04  0.40000000000E+03 0. -1.
   -9000007    1    1    2    0  502 -0.17662903542E+03 -0.91978761121E+02  0.49622152374E+03  0.66775273064E+03  0.40000000000E+03 0.  1.
<mgrwt>
<rscale>  2 0.44683096E+03</rscale>
<asrwt>0</asrwt>
<pdfrwt beam="1">  1       21 0.94473305E-01 0.44683096E+03</pdfrwt>
<pdfrwt beam="2">  1       21 0.25249997E+00 0.44683096E+03</pdfrwt>
<totfact> 0.46646318E+01</totfact>
</mgrwt>
</event>
<event>
 4    1  0.4863180E-002  0.4060703E+03  0.7818608E-02  0.1041698E+00
         21   -1    0    0  503  502  0.00000000000E+00  0.00000000000E+00  0.97174227396E+03  0.97174227396E+03  0.00000000000E+00 0.  1.
         21   -1    0    0  501  503 -0.00000000000E+00 -0.00000000000E+00 -0.70149262870E+03  0.70149262870E+03  0.00000000000E+00 0.  1.
    9000007    1    1    2  501    0  0.69861896955E+02 -0.35232386486E+01 -0.59331114263E+03  0.71896537457E+03  0.40000000000E+03 0.  1.
   -9000007    1    1    2    0  502 -0.69861896955E+02  0.35232386486E+01  0.86356078790E+03  0.95426952810E+03  0.40000000000E+03 0.  1.
<mgrwt>
<rscale>  2 0.40607031E+03</rscale>
<asrwt>0</asrwt>
<pdfrwt beam="1">  1       21 0.14949881E+00 0.40607031E+03</pdfrwt>
<pdfrwt beam="2">  1       21 0.10792194E+00 0.40607031E+03</pdfrwt>
<totfact> 0.17172409E+02</totfact>
</mgrwt>
</event>
<event>
 4    1  0.4863180E-002  0.7454740E+03  0.7818608E-02  0.9642478E-01
         21   -1    0    0  503  502  0.00000000000E+00  0.00000000000E+00  0.16752541660E+04  0.16752541660E+04  0.00000000000E+00 0. -1.
         21   -1    0    0  501  503 -0.00000000000E+00 -0.00000000000E+00 -0.33638616401E+03  0.33638616401E+03  0.00000000000E+00 0. -1.
    9000007    1    1    2  501    0 -0.26572253657E+03 -0.57019561560E+03  0.55109417010E+03  0.92705786810E+03  0.40000000000E+03 0. -1.
   -9000007    1    1    2    0  502  0.26572253657E+03  0.57019561560E+03  0.78777383191E+03  0.10845824619E+04  0.40000000000E+03 0. -1.
<mgrwt>
<rscale>  2 0.74547401E+03</rscale>
<asrwt>0</asrwt>
<pdfrwt beam="1">  1       21 0.25773141E+00 0.74547401E+03</pdfrwt>
<pdfrwt beam="2">  1       21 0.51751718E-01 0.74547401E+03</pdfrwt>
<totfact> 0.14755358E+02</totfact>
</mgrwt>
</event>
<event>
 4    1  0.4863180E-002  0.4902777E+03  0.7818608E-02  0.1016348E+00
         21   -1    0    0  501  502  0.00000000000E+00  0.00000000000E+00  0.19427646043E+03  0.19427646043E+03  0.00000000000E+00 0.  1.
         21   -1    0    0  502  503 -0.00000000000E+00 -0.00000000000E+00 -0.13750279920E+04  0.13750279920E+04  0.00000000000E+00 0.  1.
    9000007    1    1    2  501    0  0.19790486702E+03  0.20299227471E+03 -0.34201570350E+03  0.59778502944E+03  0.40000000000E+03 0.  1.
   -9000007    1    1    2    0  503 -0.19790486702E+03 -0.20299227471E+03 -0.83873582808E+03  0.97151942301E+03  0.40000000000E+03 0.  1.
<mgrwt>
<rscale>  2 0.49027768E+03</rscale>
<asrwt>0</asrwt>
<pdfrwt beam="1">  1       21 0.29888685E-01 0.49027768E+03</pdfrwt>
<pdfrwt beam="2">  1       21 0.21154278E+00 0.49027768E+03</pdfrwt>
<totfact> 0.99514505E+02</totfact>
</mgrwt>
</event>
<event>
 4    1  0.4863180E-002  0.4299513E+03  0.7818608E-02  0.1033875E+00
         21   -1    0    0  503  502  0.00000000000E+00  0.00000000000E+00  0.41396983453E+03  0.41396983453E+03  0.00000000000E+00 0.  1.
         21   -1    0    0  501  503 -0.00000000000E+00 -0.00000000000E+00 -0.45271661528E+03  0.45271661528E+03  0.00000000000E+00 0.  1.
    9000007    1    1    2  501    0  0.39125432703E+02 -0.15273285706E+03  0.31203381915E+02  0.43108209909E+03  0.40000000000E+03 0. -1.
   -9000007    1    1    2    0  502 -0.39125432703E+02  0.15273285706E+03 -0.69950162666E+02  0.43560435072E+03  0.40000000000E+03 0. -1.
<mgrwt>
<rscale>  2 0.42995131E+03</rscale>
<asrwt>0</asrwt>
<pdfrwt beam="1">  1       21 0.63687667E-01 0.42995131E+03</pdfrwt>
<pdfrwt beam="2">  1       21 0.69648710E-01 0.42995131E+03</pdfrwt>
<totfact> 0.37606023E+03</totfact>
</mgrwt>
</event>
<event>
 4    1  0.4863180E-002  0.4361611E+03  0.7818608E-02  0.1031931E+00
         21   -1    0    0  501  502  0.00000000000E+00  0.00000000000E+00  0.92741212048E+03  0.92741212048E+03  0.00000000000E+00 0.  1.
         21   -1    0    0  502  503 -0.00000000000E+00 -0.00000000000E+00 -0.25193475682E+03  0.25193475682E+03  0.00000000000E+00 0.  1.
    9000007    1    1    2  501    0  0.15295915634E+03  0.82704315121E+02  0.59191216028E+03  0.73525268632E+03  0.40000000000E+03 0.  1.
   -9000007    1    1    2    0  503 -0.15295915634E+03 -0.82704315121E+02  0.83565203387E+02  0.44409419098E+03  0.40000000000E+03 0.  1.
<mgrwt>
<rscale>  2 0.43616110E+03</rscale>
<asrwt>0</asrwt>
<pdfrwt beam="1">  1       21 0.14267879E+00 0.43616110E+03</pdfrwt>
<pdfrwt beam="2">  1       21 0.38759194E-01 0.43616110E+03</pdfrwt>
<totfact> 0.18829067E+03</totfact>
</mgrwt>
</event>
<event>
 4    1  0.4863180E-002  0.4167458E+03  0.7818608E-02  0.1038131E+00
         21   -1    0    0  503  502  0.00000000000E+00  0.00000000000E+00  0.11997196032E+04  0.11997196032E+04  0.00000000000E+00 0.  1.
         21   -1    0    0  501  503 -0.00000000000E+00 -0.00000000000E+00 -0.17038285313E+03  0.17038285313E+03  0.00000000000E+00 0.  1.
    9000007    1    1    2  501    0  0.21996767184E+02 -0.11486175138E+03  0.24903429441E+03  0.48548445854E+03  0.40000000000E+03 0.  1.
   -9000007    1    1    2    0  502 -0.21996767184E+02  0.11486175138E+03  0.78030245562E+03  0.88461799775E+03  0.40000000000E+03 0.  1.
<mgrwt>
<rscale>  2 0.41674582E+03</rscale>
<asrwt>0</asrwt>
<pdfrwt beam="1">  1       21 0.18457224E+00 0.41674582E+03</pdfrwt>
<pdfrwt beam="2">  1       21 0.26212747E-01 0.41674582E+03</pdfrwt>
<totfact> 0.20194831E+03</totfact>
</mgrwt>
</event>
<event>
 4    1  0.4863180E-002  0.4417407E+03  0.7818608E-02  0.1030214E+00
         21   -1    0    0  501  502  0.00000000000E+00  0.00000000000E+00  0.29898883258E+04  0.29898883258E+04  0.00000000000E+00 0. -1.
         21   -1    0    0  502  503 -0.00000000000E+00 -0.00000000000E+00 -0.69468558770E+02  0.69468558770E+02  0.00000000000E+00 0. -1.
    9000007    1    1    2  501    0 -0.64176602549E+02 -0.17611411784E+03  0.10839232791E+04  0.11704804542E+04  0.40000000000E+03 0. -1.
   -9000007    1    1    2    0  503  0.64176602549E+02  0.17611411784E+03  0.18364964880E+04  0.18888764304E+04  0.40000000000E+03 0. -1.
<mgrwt>
<rscale>  2 0.44174067E+03</rscale>
<asrwt>0</asrwt>
<pdfrwt beam="1">  1       21 0.45998272E+00 0.44174067E+03</pdfrwt>
<pdfrwt beam="2">  1       21 0.10687473E-01 0.44174067E+03</pdfrwt>
<totfact> 0.19632793E+02</totfact>
</mgrwt>
</event>
<event>
 4    1  0.4863180E-002  0.4590892E+03  0.7818608E-02  0.1025046E+00
         21   -1    0    0  501  502  0.00000000000E+00  0.00000000000E+00  0.31493279263E+03  0.31493279263E+03  0.00000000000E+00 0. -1.
         21   -1    0    0  502  503 -0.00000000000E+00 -0.00000000000E+00 -0.11432059222E+04  0.11432059222E+04  0.00000000000E+00 0. -1.
    9000007    1    1    2  501    0  0.91840999033E+02 -0.20573807808E+03  0.55307760481E+02  0.46240877397E+03  0.40000000000E+03 0. -1.
   -9000007    1    1    2    0  503 -0.91840999033E+02  0.20573807808E+03 -0.88358089007E+03  0.99572994088E+03  0.40000000000E+03 0. -1.
<mgrwt>
<rscale>  2 0.45908924E+03</rscale>
<asrwt>0</asrwt>
<pdfrwt beam="1">  1       21 0.48451198E-01 0.45908924E+03</pdfrwt>
<pdfrwt beam="2">  1       21 0.17587784E+00 0.45908924E+03</pdfrwt>
<totfact> 0.65532734E+02</totfact>
</mgrwt>
</event>
<event>
 4    1  0.4863180E-002  0.7801276E+03  0.7818608E-02  0.9589235E-01
         21   -1    0    0  503  502  0.00000000000E+00  0.00000000000E+00  0.79785193533E+03  0.79785193533E+03  0.00000000000E+00 0.  1.
         21   -1    0    0  501  503 -0.00000000000E+00 -0.00000000000E+00 -0.85860235831E+03  0.85860235831E+03  0.00000000000E+00 0. -1.
    9000007    1    1    2  501    0 -0.50043561125E+03  0.44515536970E+03 -0.30703637861E+03  0.83837368874E+03  0.40000000000E+03 0. -1.
   -9000007    1    1    2    0  502  0.50043561125E+03 -0.44515536970E+03  0.24628595563E+03  0.81808060491E+03  0.40000000000E+03 0. -1.
<mgrwt>
<rscale>  2 0.78012762E+03</rscale>
<asrwt>0</asrwt>
<pdfrwt beam="1">  1       21 0.12274645E+00 0.78012762E+03</pdfrwt>
<pdfrwt beam="2">  1       21 0.13209267E+00 0.78012762E+03</pdfrwt>
<totfact> 0.14868262E+02</totfact>
</mgrwt>
</event>
<event>
 4    1  0.4863180E-002  0.4275217E+03  0.7818608E-02  0.1034646E+00
         21   -1    0    0  503  502  0.00000000000E+00  0.00000000000E+00  0.31616741967E+03  0.31616741967E+03  0.00000000000E+00 0.  1.
         21   -1    0    0  501  503 -0.00000000000E+00 -0.00000000000E+00 -0.83188708577E+03  0.83188708577E+03  0.00000000000E+00 0.  1.
    9000007    1    1    2  501    0 -0.15091184417E+03  0.64332548393E+00 -0.57491831350E+03  0.71645367315E+03  0.40000000000E+03 0.  1.
   -9000007    1    1    2    0  502  0.15091184417E+03 -0.64332548393E+00  0.59198647390E+02  0.43160083229E+03  0.40000000000E+03 0.  1.
<mgrwt>
<rscale>  2 0.42752169E+03</rscale>
<asrwt>0</asrwt>
<pdfrwt beam="1">  1       21 0.48641142E-01 0.42752169E+03</pdfrwt>
<pdfrwt beam="2">  1       21 0.12798263E+00 0.42752169E+03</pdfrwt>
<totfact> 0.15660937E+03</totfact>
</mgrwt>
</event>
<event>
 4    1  0.4863180E-002  0.5070508E+03  0.7818608E-02  0.1011955E+00
         21   -1    0    0  503  502  0.00000000000E+00  0.00000000000E+00  0.30364770768E+04  0.30364770768E+04  0.00000000000E+00 0. -1.
         21   -1    0    0  501  503 -0.00000000000E+00 -0.00000000000E+00 -0.12533430766E+03  0.12533430766E+03  0.00000000000E+00 0. -1.
    9000007    1    1    2  501    0 -0.15793447415E+03 -0.26862097849E+03  0.55509126480E+03  0.75181569581E+03  0.40000000000E+03 0. -1.
   -9000007    1    1    2    0  502  0.15793447415E+03  0.26862097849E+03  0.23560515043E+04  0.24099956886E+04  0.40000000000E+03 0. -1.
<mgrwt>
<rscale>  2 0.50705081E+03</rscale>
<asrwt>0</asrwt>
<pdfrwt beam="1">  1       21 0.46715026E+00 0.50705081E+03</pdfrwt>
<pdfrwt beam="2">  1       21 0.19282204E-01 0.50705081E+03</pdfrwt>
<totfact> 0.56247779E+01</totfact>
</mgrwt>
</event>
<event>
 4    1  0.4863180E-002  0.5771626E+03  0.7818608E-02  0.9953953E-01
         21   -1    0    0  501  502  0.00000000000E+00  0.00000000000E+00  0.10626193912E+04  0.10626193912E+04  0.00000000000E+00 0.  1.
         21   -1    0    0  502  503 -0.00000000000E+00 -0.00000000000E+00 -0.32564431470E+03  0.32564431470E+03  0.00000000000E+00 0. -1.
    9000007    1    1    2  501    0 -0.29741289556E+01 -0.41606223113E+03  0.50260998975E+03  0.76533223335E+03  0.40000000000E+03 0.  1.
   -9000007    1    1    2    0  503  0.29741289556E+01  0.41606223113E+03  0.23436508676E+03  0.62293147256E+03  0.40000000000E+03 0.  1.
<mgrwt>
<rscale>  2 0.57716256E+03</rscale>
<asrwt>0</asrwt>
<pdfrwt beam="1">  1       21 0.16347990E+00 0.57716256E+03</pdfrwt>
<pdfrwt beam="2">  1       21 0.50099126E-01 0.57716256E+03</pdfrwt>
<totfact> 0.71791906E+02</totfact>
</mgrwt>
</event>
<event>
 4    1  0.4863180E-002  0.5450912E+03  0.7818608E-02  0.1002637E+00
         21   -1    0    0  501  502  0.00000000000E+00  0.00000000000E+00  0.90821201270E+03  0.90821201270E+03  0.00000000000E+00 0. -1.
         21   -1    0    0  502  503 -0.00000000000E+00 -0.00000000000E+00 -0.33294806915E+03  0.33294806915E+03  0.00000000000E+00 0. -1.
    9000007    1    1    2  501    0  0.20466014958E+03  0.30860751676E+03  0.36950391222E+03  0.65852677802E+03  0.40000000000E+03 0. -1.
   -9000007    1    1    2    0  503 -0.20466014958E+03 -0.30860751676E+03  0.20576003133E+03  0.58263330382E+03  0.40000000000E+03 0. -1.
<mgrwt>
<rscale>  2 0.54509116E+03</rscale>
<asrwt>0</asrwt>
<pdfrwt beam="1">  1       21 0.13972492E+00 0.54509116E+03</pdfrwt>
<pdfrwt beam="2">  1       21 0.51222780E-01 0.54509116E+03</pdfrwt>
<totfact> 0.10657945E+03</totfact>
</mgrwt>
</event>
<event>
 4    1  0.4863180E-002  0.4188702E+03  0.7818608E-02  0.1037435E+00
         21   -1    0    0  503  502  0.00000000000E+00  0.00000000000E+00  0.11066797827E+03  0.11066797827E+03  0.00000000000E+00 0. -1.
         21   -1    0    0  501  503 -0.00000000000E+00 -0.00000000000E+00 -0.15857738277E+04  0.15857738277E+04  0.00000000000E+00 0.  1.
    9000007    1    1    2  501    0  0.11901030398E+03  0.35900067413E+02 -0.75069312755E+03  0.85964669432E+03  0.40000000000E+03 0. -1.
   -9000007    1    1    2    0  502 -0.11901030398E+03 -0.35900067413E+02 -0.72441272192E+03  0.83679511170E+03  0.40000000000E+03 0. -1.
<mgrwt>
<rscale>  2 0.41887023E+03</rscale>
<asrwt>0</asrwt>
<pdfrwt beam="1">  1       21 0.17025843E-01 0.41887023E+03</pdfrwt>
<pdfrwt beam="2">  1       21 0.24396521E+00 0.41887023E+03</pdfrwt>
<totfact> 0.18978024E+03</totfact>
</mgrwt>
</event>
<event>
 4    1  0.4863180E-002  0.4230110E+03  0.7818608E-02  0.1036091E+00
         21   -1    0    0  503  502  0.00000000000E+00  0.00000000000E+00  0.16150087815E+04  0.16150087815E+04  0.00000000000E+00 0.  1.
         21   -1    0    0  501  503 -0.00000000000E+00 -0.00000000000E+00 -0.11098570784E+03  0.11098570784E+03  0.00000000000E+00 0. -1.
    9000007    1    1    2  501    0  0.22582575385E+02  0.13575111909E+03  0.78758452950E+03  0.89399537479E+03  0.40000000000E+03 0.  1.
   -9000007    1    1    2    0  502 -0.22582575385E+02 -0.13575111909E+03  0.71643854414E+03  0.83199911453E+03  0.40000000000E+03 0.  1.
<mgrwt>
<rscale>  2 0.42301104E+03</rscale>
<asrwt>0</asrwt>
<pdfrwt beam="1">  1       21 0.24846287E+00 0.42301104E+03</pdfrwt>
<pdfrwt beam="2">  1       21 0.17074725E-01 0.42301104E+03</pdfrwt>
<totfact> 0.17676402E+03</totfact>
</mgrwt>
</event>
<event>
 4    1  0.4863180E-002  0.4206079E+03  0.7818608E-02  0.1036869E+00
         21   -1    0    0  501  502  0.00000000000E+00  0.00000000000E+00  0.12436573274E+03  0.12436573274E+03  0.00000000000E+00 0. -1.
         21   -1    0    0  502  503 -0.00000000000E+00 -0.00000000000E+00 -0.14269717981E+04  0.14269717981E+04  0.00000000000E+00 0. -1.
    9000007    1    1    2  501    0 -0.55280277876E+02  0.11770754408E+03 -0.69469689450E+03  0.81210513499E+03  0.40000000000E+03 0. -1.
   -9000007    1    1    2    0  503  0.55280277876E+02 -0.11770754408E+03 -0.60790917086E+03  0.73923239585E+03  0.40000000000E+03 0. -1.
<mgrwt>
<rscale>  2 0.42060786E+03</rscale>
<asrwt>0</asrwt>
<pdfrwt beam="1">  1       21 0.19133190E-01 0.42060786E+03</pdfrwt>
<pdfrwt beam="2">  1       21 0.21953412E+00 0.42060786E+03</pdfrwt>
<totfact> 0.21650584E+03</totfact>
</mgrwt>
</event>
<event>
 4    1  0.4863180E-002  0.4557206E+03  0.7818608E-02  0.1026030E+00
         21   -1    0    0  503  502  0.00000000000E+00  0.00000000000E+00  0.26159667868E+03  0.26159667868E+03  0.00000000000E+00 0.  1.
         21   -1    0    0  501  503 -0.00000000000E+00 -0.00000000000E+00 -0.10299538482E+04  0.10299538482E+04  0.00000000000E+00 0. -1.
    9000007    1    1    2  501    0 -0.16685786230E+03  0.14085361653E+03 -0.69333564970E+03  0.82969609536E+03  0.40000000000E+03 0. -1.
   -9000007    1    1    2    0  502  0.16685786230E+03 -0.14085361653E+03 -0.75021519843E+02  0.46185443155E+03  0.40000000000E+03 0.  1.
<mgrwt>
<rscale>  2 0.45572062E+03</rscale>
<asrwt>0</asrwt>
<pdfrwt beam="1">  1       21 0.40245643E-01 0.45572062E+03</pdfrwt>
<pdfrwt beam="2">  1       21 0.15845444E+00 0.45572062E+03</pdfrwt>
<totfact> 0.12997122E+03</totfact>
</mgrwt>
</event>
<event>
 4    1  0.4863180E-002  0.4146575E+03  0.7818608E-02  0.1038819E+00
         21   -1    0    0  501  502  0.00000000000E+00  0.00000000000E+00  0.22827495124E+03  0.22827495124E+03  0.00000000000E+00 0.  1.
         21   -1    0    0  502  503 -0.00000000000E+00 -0.00000000000E+00 -0.82639106645E+03  0.82639106645E+03  0.00000000000E+00 0.  1.
    9000007    1    1    2  501    0  0.74100732410E+00  0.10927176510E+03 -0.14214216692E+03  0.43834377303E+03  0.40000000000E+03 0.  1.
   -9000007    1    1    2    0  503 -0.74100732410E+00 -0.10927176510E+03 -0.45597394829E+03  0.61632224465E+03  0.40000000000E+03 0.  1.
<mgrwt>
<rscale>  2 0.41465753E+03</rscale>
<asrwt>0</asrwt>
<pdfrwt beam="1">  1       21 0.35119223E-01 0.41465753E+03</pdfrwt>
<pdfrwt beam="2">  1       21 0.12713709E+00 0.41465753E+03</pdfrwt>
<totfact> 0.31400112E+03</totfact>
</mgrwt>
</event>
<event>
 4    1  0.4863180E-002  0.4122214E+03  0.7818608E-02  0.1039628E+00
         21   -1    0    0  501  502  0.00000000000E+00  0.00000000000E+00  0.32576487126E+03  0.32576487126E+03  0.00000000000E+00 0.  1.
         21   -1    0    0  502  503 -0.00000000000E+00 -0.00000000000E+00 -0.54657046582E+03  0.54657046582E+03  0.00000000000E+00 0.  1.
    9000007    1    1    2  501    0  0.19667186954E+02 -0.97671336507E+02 -0.20358705960E+03  0.45975447693E+03  0.40000000000E+03 0.  1.
   -9000007    1    1    2    0  503 -0.19667186954E+02  0.97671336507E+02 -0.17218534961E+02  0.41258086015E+03  0.40000000000E+03 0.  1.
<mgrwt>
<rscale>  2 0.41222141E+03</rscale>
<asrwt>0</asrwt>
<pdfrwt beam="1">  1       21 0.50117672E-01 0.41222141E+03</pdfrwt>
<pdfrwt beam="2">  1       21 0.84087764E-01 0.41222141E+03</pdfrwt>
<totfact> 0.41340224E+03</totfact>
</mgrwt>
</event>
<event>
 4    1  0.4863180E-002  0.4193305E+03  0.7818608E-02  0.1037284E+00
         21   -1    0    0  501  502  0.00000000000E+00  0.00000000000E+00  0.18228982735E+04  0.18228982735E+04  0.00000000000E+00 0.  1.
         21   -1    0    0  502  503 -0.00000000000E+00 -0.00000000000E+00 -0.17524362818E+03  0.17524362818E+03  0.00000000000E+00 0.  1.
    9000007    1    1    2  501    0  0.91373946450E+02 -0.86538164027E+02  0.14936984510E+04  0.15514422692E+04  0.40000000000E+03 0.  1.
   -9000007    1    1    2    0  503 -0.91373946450E+02  0.86538164027E+02  0.15395619426E+03  0.44669963250E+03  0.40000000000E+03 0.  1.
<mgrwt>
<rscale>  2 0.41933048E+03</rscale>
<asrwt>0</asrwt>
<pdfrwt beam="1">  1       21 0.28044588E+00 0.41933048E+03</pdfrwt>
<pdfrwt beam="2">  1       21 0.26960559E-01 0.41933048E+03</pdfrwt>
<totfact> 0.47284156E+02</totfact>
</mgrwt>
</event>
<event>
 4    1  0.4863180E-002  0.4595851E+03  0.7818608E-02  0.1024902E+00
         21   -1    0    0  503  502  0.00000000000E+00  0.00000000000E+00  0.56325881723E+03  0.56325881723E+03  0.00000000000E+00 0.  1.
         21   -1    0    0  501  503 -0.00000000000E+00 -0.00000000000E+00 -0.77892287099E+03  0.77892287099E+03  0.00000000000E+00 0.  1.
    9000007    1    1    2  501    0  0.20692553960E+03 -0.91653195217E+02 -0.59109855328E+03  0.74874293774E+03  0.40000000000E+03 0.  1.
   -9000007    1    1    2    0  502 -0.20692553960E+03  0.91653195217E+02  0.37543449953E+03  0.59343875048E+03  0.40000000000E+03 0.  1.
<mgrwt>
<rscale>  2 0.45958513E+03</rscale>
<asrwt>0</asrwt>
<pdfrwt beam="1">  1       21 0.86655203E-01 0.45958513E+03</pdfrwt>
<pdfrwt beam="2">  1       21 0.11983429E+00 0.45958513E+03</pdfrwt>
<totfact> 0.50603245E+02</totfact>
</mgrwt>
</event>
<event>
 4    1  0.4863180E-002  0.4568604E+03  0.7818608E-02  0.1025696E+00
         21   -1    0    0  503  502  0.00000000000E+00  0.00000000000E+00  0.24586180834E+03  0.24586180834E+03  0.00000000000E+00 0.  1.
         21   -1    0    0  501  503 -0.00000000000E+00 -0.00000000000E+00 -0.10845627650E+04  0.10845627650E+04  0.00000000000E+00 0.  1.
    9000007    1    1    2  501    0 -0.18042801136E+03 -0.12715016594E+03 -0.72940879417E+03  0.86067335325E+03  0.40000000000E+03 0.  1.
   -9000007    1    1    2    0  502  0.18042801136E+03  0.12715016594E+03 -0.10929216247E+03  0.46975122007E+03  0.40000000000E+03 0.  1.
<mgrwt>
<rscale>  2 0.45686041E+03</rscale>
<asrwt>0</asrwt>
<pdfrwt beam="1">  1       21 0.37824893E-01 0.45686041E+03</pdfrwt>
<pdfrwt beam="2">  1       21 0.16685581E+00 0.45686041E+03</pdfrwt>
<totfact> 0.12765868E+03</totfact>
</mgrwt>
</event>
<event>
 4    1  0.4863180E-002  0.4291070E+03  0.7818608E-02  0.1034142E+00
         21   -1    0    0  503  502  0.00000000000E+00  0.00000000000E+00  0.76770716049E+03  0.76770716049E+03  0.00000000000E+00 0. -1.
         21   -1    0    0  501  503 -0.00000000000E+00 -0.00000000000E+00 -0.24653497068E+03  0.24653497068E+03  0.00000000000E+00 0. -1.
    9000007    1    1    2  501    0  0.15039475231E+03  0.38913403801E+02  0.34410700878E+03  0.55003860592E+03  0.40000000000E+03 0. -1.
   -9000007    1    1    2    0  502 -0.15039475231E+03 -0.38913403801E+02  0.17706518104E+03  0.46420352525E+03  0.40000000000E+03 0. -1.
<mgrwt>
<rscale>  2 0.42910702E+03</rscale>
<asrwt>0</asrwt>
<pdfrwt beam="1">  1       21 0.11810879E+00 0.42910702E+03</pdfrwt>
<pdfrwt beam="2">  1       21 0.37928457E-01 0.42910702E+03</pdfrwt>
<totfact> 0.32235454E+03</totfact>
</mgrwt>
</event>
<event>
 4    1  0.4863180E-002  0.6946376E+03  0.7818608E-02  0.9726447E-01
         21   -1    0    0  501  502  0.00000000000E+00  0.00000000000E+00  0.15393165014E+04  0.15393165014E+04  0.00000000000E+00 0. -1.
         21   -1    0    0  502  503 -0.00000000000E+00 -0.00000000000E+00 -0.33028035767E+03  0.33028035767E+03  0.00000000000E+00 0. -1.
    9000007    1    1    2  501    0 -0.16491852129E+03  0.54343648891E+03  0.81544592990E+03  0.10712018487E+04  0.40000000000E+03 0. -1.
   -9000007    1    1    2    0  503  0.16491852129E+03 -0.54343648891E+03  0.39359021387E+03  0.79839501038E+03  0.40000000000E+03 0. -1.
<mgrwt>
<rscale>  2 0.69463756E+03</rscale>
<asrwt>0</asrwt>
<pdfrwt beam="1">  1       21 0.23681792E+00 0.69463756E+03</pdfrwt>
<pdfrwt beam="2">  1       21 0.50812364E-01 0.69463756E+03</pdfrwt>
<totfact> 0.21145421E+02</totfact>
</mgrwt>
</event>
<event>
 4    1  0.4863180E-002  0.4006788E+03  0.7818608E-02  0.1043545E+00
         21   -1    0    0  501  502  0.00000000000E+00  0.00000000000E+00  0.86534098847E+03  0.86534098847E+03  0.00000000000E+00 0.  1.
         21   -1    0    0  502  503 -0.00000000000E+00 -0.00000000000E+00 -0.44288121693E+03  0.44288121693E+03  0.00000000000E+00 0.  1.
    9000007    1    1    2  501    0  0.23024515638E+02 -0.36547988932E+01  0.70985500169E+03  0.81513042471E+03  0.40000000000E+03 0.  1.
   -9000007    1    1    2    0  503 -0.23024515638E+02  0.36547988932E+01 -0.28739523014E+03  0.49309178069E+03  0.40000000000E+03 0.  1.
<mgrwt>
<rscale>  2 0.40067878E+03</rscale>
<asrwt>0</asrwt>
<pdfrwt beam="1">  1       21 0.13312938E+00 0.40067878E+03</pdfrwt>
<pdfrwt beam="2">  1       21 0.68135572E-01 0.40067878E+03</pdfrwt>
<totfact> 0.68823431E+02</totfact>
</mgrwt>
</event>
<event>
 4    1  0.4863180E-002  0.4915940E+03  0.7818608E-02  0.1015997E+00
         21   -1    0    0  503  502  0.00000000000E+00  0.00000000000E+00  0.13123826101E+03  0.13123826101E+03  0.00000000000E+00 0.  1.
         21   -1    0    0  501  503 -0.00000000000E+00 -0.00000000000E+00 -0.22248021135E+04  0.22248021135E+04  0.00000000000E+00 0.  1.
    9000007    1    1    2  501    0  0.35523443818E+02  0.28355378160E+03 -0.55776557759E+03  0.74348308768E+03  0.40000000000E+03 0.  1.
   -9000007    1    1    2    0  502 -0.35523443818E+02 -0.28355378160E+03 -0.15357982749E+04  0.16125572868E+04  0.40000000000E+03 0.  1.
<mgrwt>
<rscale>  2 0.49159400E+03</rscale>
<asrwt>0</asrwt>
<pdfrwt beam="1">  1       21 0.20190502E-01 0.49159400E+03</pdfrwt>
<pdfrwt beam="2">  1       21 0.34227725E+00 0.49159400E+03</pdfrwt>
<totfact> 0.33553955E+02</totfact>
</mgrwt>
</event>
<event>
 4    1  0.4863180E-002  0.6612920E+03  0.7818608E-02  0.9785818E-01
         21   -1    0    0  501  502  0.00000000000E+00  0.00000000000E+00  0.71676484056E+03  0.71676484056E+03  0.00000000000E+00 0.  1.
         21   -1    0    0  502  503 -0.00000000000E+00 -0.00000000000E+00 -0.66842032565E+03  0.66842032565E+03  0.00000000000E+00 0. -1.
    9000007    1    1    2  501    0  0.42411305243E+03 -0.31214607255E+03  0.22873057704E+03  0.69973189774E+03  0.40000000000E+03 0.  1.
   -9000007    1    1    2    0  503 -0.42411305243E+03  0.31214607255E+03 -0.18038606212E+03  0.68545326847E+03  0.40000000000E+03 0. -1.
<mgrwt>
<rscale>  2 0.66129196E+03</rscale>
<asrwt>0</asrwt>
<pdfrwt beam="1">  1       21 0.11027151E+00 0.66129196E+03</pdfrwt>
<pdfrwt beam="2">  1       21 0.10283390E+00 0.66129196E+03</pdfrwt>
<totfact> 0.38371015E+02</totfact>
</mgrwt>
</event>
<event>
 4    1  0.4863180E-002  0.4730209E+03  0.7818608E-02  0.1021071E+00
         21   -1    0    0  501  502  0.00000000000E+00  0.00000000000E+00  0.25739630805E+03  0.25739630805E+03  0.00000000000E+00 0.  1.
         21   -1    0    0  502  503 -0.00000000000E+00 -0.00000000000E+00 -0.30130420740E+04  0.30130420740E+04  0.00000000000E+00 0. -1.
    9000007    1    1    2  501    0  0.23265825030E+03 -0.98076134195E+02  0.14872727723E+01  0.47302325684E+03  0.40000000000E+03 0.  1.
   -9000007    1    1    2    0  503 -0.23265825030E+03  0.98076134195E+02 -0.27571330388E+04  0.27974151252E+04  0.40000000000E+03 0. -1.
<mgrwt>
<rscale>  2 0.47302092E+03</rscale>
<asrwt>0</asrwt>
<pdfrwt beam="1">  1       21 0.39599432E-01 0.47302092E+03</pdfrwt>
<pdfrwt beam="2">  1       21 0.46354493E+00 0.47302092E+03</pdfrwt>
<totfact> 0.14734807E+01</totfact>
</mgrwt>
</event>
<event>
 4    1  0.4863180E-002  0.9453082E+03  0.7818608E-02  0.9370651E-01
         21   -1    0    0  501  502  0.00000000000E+00  0.00000000000E+00  0.12537159331E+04  0.12537159331E+04  0.00000000000E+00 0. -1.
         21   -1    0    0  502  503 -0.00000000000E+00 -0.00000000000E+00 -0.71843854630E+03  0.71843854630E+03  0.00000000000E+00 0.  1.
    9000007    1    1    2  501    0  0.16532331236E+03  0.84040218888E+03  0.35524955263E+03  0.10098563667E+04  0.40000000000E+03 0. -1.
   -9000007    1    1    2    0  503 -0.16532331236E+03 -0.84040218888E+03  0.18002783418E+03  0.96229811273E+03  0.40000000000E+03 0.  1.
<mgrwt>
<rscale>  2 0.94530822E+03</rscale>
<asrwt>0</asrwt>
<pdfrwt beam="1">  1       21 0.19287937E+00 0.94530822E+03</pdfrwt>
<pdfrwt beam="2">  1       21 0.11052901E+00 0.94530822E+03</pdfrwt>
<totfact> 0.63125533E+01</totfact>
</mgrwt>
</event>
<event>
 4    1  0.4863180E-002  0.6027690E+03  0.7818608E-02  0.9899678E-01
         21   -1    0    0  503  502  0.00000000000E+00  0.00000000000E+00  0.11119425385E+04  0.11119425385E+04  0.00000000000E+00 0. -1.
         21   -1    0    0  501  503 -0.00000000000E+00 -0.00000000000E+00 -0.65046620834E+03  0.65046620834E+03  0.00000000000E+00 0. -1.
    9000007    1    1    2  501    0 -0.45433488423E+02 -0.44862714099E+03 -0.39090979406E+03  0.71842952375E+03  0.40000000000E+03 0. -1.
   -9000007    1    1    2    0  502  0.45433488423E+02  0.44862714099E+03  0.85238612423E+03  0.10439792231E+04  0.40000000000E+03 0. -1.
<mgrwt>
<rscale>  2 0.60276904E+03</rscale>
<asrwt>0</asrwt>
<pdfrwt beam="1">  1       21 0.17106808E+00 0.60276904E+03</pdfrwt>
<pdfrwt beam="2">  1       21 0.10007172E+00 0.60276904E+03</pdfrwt>
<totfact> 0.12919405E+02</totfact>
</mgrwt>
</event>
<event>
 4    1  0.4863180E-002  0.4152775E+03  0.7818608E-02  0.1038614E+00
         21   -1    0    0  503  502  0.00000000000E+00  0.00000000000E+00  0.21351595244E+03  0.21351595244E+03  0.00000000000E+00 0. -1.
         21   -1    0    0  501  503 -0.00000000000E+00 -0.00000000000E+00 -0.99214455839E+03  0.99214455839E+03  0.00000000000E+00 0. -1.
    9000007    1    1    2  501    0  0.80939670723E+02 -0.76838796616E+02 -0.64923940759E+03  0.77069270097E+03  0.40000000000E+03 0. -1.
   -9000007    1    1    2    0  502 -0.80939670723E+02  0.76838796616E+02 -0.12938919836E+03  0.43496780986E+03  0.40000000000E+03 0. -1.
<mgrwt>
<rscale>  2 0.41527753E+03</rscale>
<asrwt>0</asrwt>
<pdfrwt beam="1">  1       21 0.32848609E-01 0.41527753E+03</pdfrwt>
<pdfrwt beam="2">  1       21 0.15263762E+00 0.41527753E+03</pdfrwt>
<totfact> 0.22139426E+03</totfact>
</mgrwt>
</event>
<event>
 4    1  0.4863180E-002  0.5216061E+03  0.7818608E-02  0.1008288E+00
         21   -1    0    0  501  502  0.00000000000E+00  0.00000000000E+00  0.22522727940E+03  0.22522727940E+03  0.00000000000E+00 0. -1.
         21   -1    0    0  502  503 -0.00000000000E+00 -0.00000000000E+00 -0.12215424208E+04  0.12215424208E+04  0.00000000000E+00 0.  1.
    9000007    1    1    2  501    0 -0.31789020794E+03  0.10497025579E+03 -0.42197103903E+03  0.67091914318E+03  0.40000000000E+03 0. -1.
   -9000007    1    1    2    0  503  0.31789020794E+03 -0.10497025579E+03 -0.57434410241E+03  0.77585055705E+03  0.40000000000E+03 0.  1.
<mgrwt>
<rscale>  2 0.52160611E+03</rscale>
<asrwt>0</asrwt>
<pdfrwt beam="1">  1       21 0.34650350E-01 0.52160611E+03</pdfrwt>
<pdfrwt beam="2">  1       21 0.18792961E+00 0.52160611E+03</pdfrwt>
<totfact> 0.10519118E+03</totfact>
</mgrwt>
</event>
<event>
 4    1  0.4863180E-002  0.4211478E+03  0.7818608E-02  0.1036693E+00
         21   -1    0    0  503  502  0.00000000000E+00  0.00000000000E+00  0.50126115836E+03  0.50126115836E+03  0.00000000000E+00 0.  1.
         21   -1    0    0  501  503 -0.00000000000E+00 -0.00000000000E+00 -0.62690394771E+03  0.62690394771E+03  0.00000000000E+00 0.  1.
    9000007    1    1    2  501    0  0.44528287169E+02 -0.12402707007E+03 -0.43510641529E+03  0.60554361948E+03  0.40000000000E+03 0.  1.
   -9000007    1    1    2    0  502 -0.44528287169E+02  0.12402707007E+03  0.30946362594E+03  0.52262148659E+03  0.40000000000E+03 0.  1.
<mgrwt>
<rscale>  2 0.42114782E+03</rscale>
<asrwt>0</asrwt>
<pdfrwt beam="1">  1       21 0.77117101E-01 0.42114782E+03</pdfrwt>
<pdfrwt beam="2">  1       21 0.96446761E-01 0.42114782E+03</pdfrwt>
<totfact> 0.11527275E+03</totfact>
</mgrwt>
</event>
<event>
 4    1  0.4863180E-002  0.4175213E+03  0.7818608E-02  0.1037876E+00
         21   -1    0    0  503  502  0.00000000000E+00  0.00000000000E+00  0.61062367028E+03  0.61062367028E+03  0.00000000000E+00 0. -1.
         21   -1    0    0  501  503 -0.00000000000E+00 -0.00000000000E+00 -0.31698517708E+03  0.31698517708E+03  0.00000000000E+00 0. -1.
    9000007    1    1    2  501    0 -0.57401957218E+02 -0.10501936185E+03  0.61156690357E+00  0.41752176598E+03  0.40000000000E+03 0. -1.
   -9000007    1    1    2    0  502  0.57401957218E+02  0.10501936185E+03  0.29302692630E+03  0.51008708138E+03  0.40000000000E+03 0. -1.
<mgrwt>
<rscale>  2 0.41752132E+03</rscale>
<asrwt>0</asrwt>
<pdfrwt beam="1">  1       21 0.93942103E-01 0.41752132E+03</pdfrwt>
<pdfrwt beam="2">  1       21 0.48766950E-01 0.41752132E+03</pdfrwt>
<totfact> 0.33667236E+03</totfact>
</mgrwt>
</event>
<event>
 4    1  0.4863180E-002  0.4210440E+03  0.7818608E-02  0.1036727E+00
         21   -1    0    0  501  502  0.00000000000E+00  0.00000000000E+00  0.17097950378E+03  0.17097950378E+03  0.00000000000E+00 0. -1.
         21   -1    0    0  502  503 -0.00000000000E+00 -0.00000000000E+00 -0.31179185817E+04  0.31179185817E+04  0.00000000000E+00 0. -1.
    9000007    1    1    2  501    0 -0.12392497775E+03 -0.43824914554E+02 -0.12998554093E+03  0.44065208963E+03  0.40000000000E+03 0. -1.
   -9000007    1    1    2    0  503  0.12392497775E+03  0.43824914554E+02 -0.28169535370E+04  0.28482459958E+04  0.40000000000E+03 0. -1.
<mgrwt>
<rscale>  2 0.42104397E+03</rscale>
<asrwt>0</asrwt>
<pdfrwt beam="1">  1       21 0.26304540E-01 0.42104397E+03</pdfrwt>
<pdfrwt beam="2">  1       21 0.47967977E+00 0.42104397E+03</pdfrwt>
<totfact> 0.26948893E+01</totfact>
</mgrwt>
</event>
<event>
 4    1  0.4863180E-002  0.4303907E+03  0.7818608E-02  0.1033737E+00
         21   -1    0    0  501  502  0.00000000000E+00  0.00000000000E+00  0.67069157505E+03  0.67069157505E+03  0.00000000000E+00 0. -1.
         21   -1    0    0  502  503 -0.00000000000E+00 -0.00000000000E+00 -0.32628253973E+03  0.32628253973E+03  0.00000000000E+00 0.  1.
    9000007    1    1    2  501    0  0.46536679261E+02 -0.15188987496E+03  0.36752920122E+03  0.56596281713E+03  0.40000000000E+03 0. -1.
   -9000007    1    1    2    0  503 -0.46536679261E+02  0.15188987496E+03 -0.23120165895E+02  0.43101129765E+03  0.40000000000E+03 0.  1.
<mgrwt>
<rscale>  2 0.43039075E+03</rscale>
<asrwt>0</asrwt>
<pdfrwt beam="1">  1       21 0.10318332E+00 0.43039075E+03</pdfrwt>
<pdfrwt beam="2">  1       21 0.50197314E-01 0.43039075E+03</pdfrwt>
<totfact> 0.25117995E+03</totfact>
</mgrwt>
</event>
<event>
 4    1  0.4863180E-002  0.4062678E+03  0.7818608E-02  0.1041631E+00
         21   -1    0    0  503  502  0.00000000000E+00  0.00000000000E+00  0.53307428617E+03  0.53307428617E+03  0.00000000000E+00 0.  1.
         21   -1    0    0  501  503 -0.00000000000E+00 -0.00000000000E+00 -0.34449658415E+03  0.34449658415E+03  0.00000000000E+00 0.  1.
    9000007    1    1    2  501    0 -0.36194302732E+02  0.61184238718E+02  0.23389056811E+03  0.46878389101E+03  0.40000000000E+03 0.  1.
   -9000007    1    1    2    0  502  0.36194302732E+02 -0.61184238718E+02 -0.45312866089E+02  0.40878697931E+03  0.40000000000E+03 0.  1.
<mgrwt>
<rscale>  2 0.40626782E+03</rscale>
<asrwt>0</asrwt>
<pdfrwt beam="1">  1       21 0.82011429E-01 0.40626782E+03</pdfrwt>
<pdfrwt beam="2">  1       21 0.52999474E-01 0.40626782E+03</pdfrwt>
<totfact> 0.38975377E+03</totfact>
</mgrwt>
</event>
<event>
 4    1  0.4863180E-002  0.4273683E+03  0.7818608E-02  0.1034695E+00
         21   -1    0    0  503  502  0.00000000000E+00  0.00000000000E+00  0.17251860550E+03  0.17251860550E+03  0.00000000000E+00 0. -1.
         21   -1    0    0  501  503 -0.00000000000E+00 -0.00000000000E+00 -0.12351598741E+04  0.12351598741E+04  0.00000000000E+00 0. -1.
    9000007    1    1    2  501    0 -0.80439286852E+02 -0.12717369284E+03 -0.79736119648E+03  0.90467038454E+03  0.40000000000E+03 0. -1.
   -9000007    1    1    2    0  502  0.80439286852E+02  0.12717369284E+03 -0.26528007210E+03  0.50300809504E+03  0.40000000000E+03 0. -1.
<mgrwt>
<rscale>  2 0.42736826E+03</rscale>
<asrwt>0</asrwt>
<pdfrwt beam="1">  1       21 0.26541324E-01 0.42736826E+03</pdfrwt>
<pdfrwt beam="2">  1       21 0.19002460E+00 0.42736826E+03</pdfrwt>
<totfact> 0.17994410E+03</totfact>
</mgrwt>
</event>
<event>
 4    1  0.4863180E-002  0.4269599E+03  0.7818608E-02  0.1034825E+00
         21   -1    0    0  501  502  0.00000000000E+00  0.00000000000E+00  0.56852679756E+03  0.56852679756E+03  0.00000000000E+00 0. -1.
         21   -1    0    0  502  503 -0.00000000000E+00 -0.00000000000E+00 -0.52988450932E+03  0.52988450932E+03  0.00000000000E+00 0. -1.
    9000007    1    1    2  501    0  0.11964706583E+03 -0.89327350914E+02  0.36443874463E+03  0.56134694670E+03  0.40000000000E+03 0. -1.
   -9000007    1    1    2    0  503 -0.11964706583E+03  0.89327350914E+02 -0.32579645638E+03  0.53706436018E+03  0.40000000000E+03 0. -1.
<mgrwt>
<rscale>  2 0.42695995E+03</rscale>
<asrwt>0</asrwt>
<pdfrwt beam="1">  1       21 0.87465660E-01 0.42695995E+03</pdfrwt>
<pdfrwt beam="2">  1       21 0.81520694E-01 0.42695995E+03</pdfrwt>
<totfact> 0.12763193E+03</totfact>
</mgrwt>
</event>
<event>
 4    1  0.4863180E-002  0.4162236E+03  0.7818608E-02  0.1038302E+00
         21   -1    0    0  503  502  0.00000000000E+00  0.00000000000E+00  0.94861095841E+02  0.94861095841E+02  0.00000000000E+00 0. -1.
         21   -1    0    0  501  503 -0.00000000000E+00 -0.00000000000E+00 -0.18715476851E+04  0.18715476851E+04  0.00000000000E+00 0. -1.
    9000007    1    1    2  501    0 -0.10935574056E+03 -0.35824519781E+02 -0.10412689592E+04  0.11213755480E+04  0.40000000000E+03 0. -1.
   -9000007    1    1    2    0  502  0.10935574056E+03  0.35824519781E+02 -0.73541763006E+03  0.84503323296E+03  0.40000000000E+03 0. -1.
<mgrwt>
<rscale>  2 0.41622359E+03</rscale>
<asrwt>0</asrwt>
<pdfrwt beam="1">  1       21 0.14594016E-01 0.41622359E+03</pdfrwt>
<pdfrwt beam="2">  1       21 0.28793039E+00 0.41622359E+03</pdfrwt>
<totfact> 0.13711225E+03</totfact>
</mgrwt>
</event>
<event>
 4    1  0.4863180E-002  0.5059144E+03  0.7818608E-02  0.1012247E+00
         21   -1    0    0  501  502  0.00000000000E+00  0.00000000000E+00  0.34885260895E+03  0.34885260895E+03  0.00000000000E+00 0.  1.
         21   -1    0    0  502  503 -0.00000000000E+00 -0.00000000000E+00 -0.90725632028E+03  0.90725632028E+03  0.00000000000E+00 0.  1.
    9000007    1    1    2  501    0  0.12323420068E+02 -0.30951177730E+03 -0.55390648600E+03  0.75017451450E+03  0.40000000000E+03 0.  1.
   -9000007    1    1    2    0  503 -0.12323420068E+02  0.30951177730E+03 -0.44972253201E+01  0.50593441473E+03  0.40000000000E+03 0.  1.
<mgrwt>
<rscale>  2 0.50591443E+03</rscale>
<asrwt>0</asrwt>
<pdfrwt beam="1">  1       21 0.53669632E-01 0.50591443E+03</pdfrwt>
<pdfrwt beam="2">  1       21 0.13957790E+00 0.50591443E+03</pdfrwt>
<totfact> 0.98035743E+02</totfact>
</mgrwt>
</event>
<event>
 4    1  0.4863180E-002  0.4135951E+03  0.7818608E-02  0.1039171E+00
         21   -1    0    0  501  502  0.00000000000E+00  0.00000000000E+00  0.55364785933E+03  0.55364785933E+03  0.00000000000E+00 0. -1.
         21   -1    0    0  502  503 -0.00000000000E+00 -0.00000000000E+00 -0.71562163315E+03  0.71562163315E+03  0.00000000000E+00 0. -1.
    9000007    1    1    2  501    0 -0.74385301165E+02  0.74348682284E+02  0.39741520161E+03  0.57358499114E+03  0.40000000000E+03 0. -1.
   -9000007    1    1    2    0  503  0.74385301165E+02 -0.74348682284E+02 -0.55938897543E+03  0.69568450135E+03  0.40000000000E+03 0. -1.
<mgrwt>
<rscale>  2 0.41359509E+03</rscale>
<asrwt>0</asrwt>
<pdfrwt beam="1">  1       21 0.85176594E-01 0.41359509E+03</pdfrwt>
<pdfrwt beam="2">  1       21 0.11009563E+00 0.41359509E+03</pdfrwt>
<totfact> 0.66520069E+02</totfact>
</mgrwt>
</event>
<event>
 4    1  0.4863180E-002  0.4870049E+03  0.7818608E-02  0.1017228E+00
         21   -1    0    0  501  502  0.00000000000E+00  0.00000000000E+00  0.47603024759E+03  0.47603024759E+03  0.00000000000E+00 0.  1.
         21   -1    0    0  502  503 -0.00000000000E+00 -0.00000000000E+00 -0.73140337679E+03  0.73140337679E+03  0.00000000000E+00 0.  1.
    9000007    1    1    2  501    0 -0.15086032461E+03 -0.23327015542E+03 -0.46855895017E+03  0.67581158080E+03  0.40000000000E+03 0.  1.
   -9000007    1    1    2    0  503  0.15086032461E+03  0.23327015542E+03  0.21318582098E+03  0.53162204358E+03  0.40000000000E+03 0.  1.
<mgrwt>
<rscale>  2 0.48700493E+03</rscale>
<asrwt>0</asrwt>
<pdfrwt beam="1">  1       21 0.73235423E-01 0.48700493E+03</pdfrwt>
<pdfrwt beam="2">  1       21 0.11252360E+00 0.48700493E+03</pdfrwt>
<totfact> 0.86467360E+02</totfact>
</mgrwt>
</event>
<event>
 4    1  0.4863180E-002  0.4300865E+03  0.7818608E-02  0.1033833E+00
         21   -1    0    0  501  502  0.00000000000E+00  0.00000000000E+00  0.63948024736E+03  0.63948024736E+03  0.00000000000E+00 0.  1.
         21   -1    0    0  502  503 -0.00000000000E+00 -0.00000000000E+00 -0.35786803625E+03  0.35786803625E+03  0.00000000000E+00 0. -1.
    9000007    1    1    2  501    0  0.15798748034E+03 -0.37932321527E+01  0.35915496360E+03  0.56032733329E+03  0.40000000000E+03 0.  1.
   -9000007    1    1    2    0  503 -0.15798748034E+03  0.37932321527E+01 -0.77542752493E+02  0.43702095032E+03  0.40000000000E+03 0. -1.
<mgrwt>
<rscale>  2 0.43008654E+03</rscale>
<asrwt>0</asrwt>
<pdfrwt beam="1">  1       21 0.98381576E-01 0.43008654E+03</pdfrwt>
<pdfrwt beam="2">  1       21 0.55056621E-01 0.43008654E+03</pdfrwt>
<totfact> 0.23145542E+03</totfact>
</mgrwt>
</event>
<event>
 4    1  0.4863180E-002  0.4781072E+03  0.7818608E-02  0.1019657E+00
         21   -1    0    0  503  502  0.00000000000E+00  0.00000000000E+00  0.19989444612E+04  0.19989444612E+04  0.00000000000E+00 0. -1.
         21   -1    0    0  501  503 -0.00000000000E+00 -0.00000000000E+00 -0.15240698512E+03  0.15240698512E+03  0.00000000000E+00 0.  1.
    9000007    1    1    2  501    0 -0.23680679100E+03 -0.11184376152E+03  0.14607652049E+04  0.15370170679E+04  0.40000000000E+03 0. -1.
   -9000007    1    1    2    0  502  0.23680679100E+03  0.11184376152E+03  0.38577227118E+03  0.61433437839E+03  0.40000000000E+03 0.  1.
<mgrwt>
<rscale>  2 0.47810719E+03</rscale>
<asrwt>0</asrwt>
<pdfrwt beam="1">  1       21 0.30752990E+00 0.47810719E+03</pdfrwt>
<pdfrwt beam="2">  1       21 0.23447230E-01 0.47810719E+03</pdfrwt>
<totfact> 0.41232108E+02</totfact>
</mgrwt>
</event>
<event>
 4    1  0.4863180E-002  0.4721560E+03  0.7818608E-02  0.1021313E+00
         21   -1    0    0  501  502  0.00000000000E+00  0.00000000000E+00  0.35127118385E+03  0.35127118385E+03  0.00000000000E+00 0.  1.
         21   -1    0    0  502  503 -0.00000000000E+00 -0.00000000000E+00 -0.84285312414E+03  0.84285312414E+03  0.00000000000E+00 0.  1.
    9000007    1    1    2  501    0  0.46798275180E+02 -0.24645729440E+03  0.50962675178E+02  0.47489837943E+03  0.40000000000E+03 0.  1.
   -9000007    1    1    2    0  503 -0.46798275180E+02  0.24645729440E+03 -0.54254461547E+03  0.71922592855E+03  0.40000000000E+03 0.  1.
<mgrwt>
<rscale>  2 0.47215599E+03</rscale>
<asrwt>0</asrwt>
<pdfrwt beam="1">  1       21 0.54041720E-01 0.47215599E+03</pdfrwt>
<pdfrwt beam="2">  1       21 0.12966971E+00 0.47215599E+03</pdfrwt>
<totfact> 0.11873699E+03</totfact>
</mgrwt>
</event>
<event>
 4    1  0.4863180E-002  0.4069825E+03  0.7818608E-02  0.1041388E+00
         21   -1    0    0  503  502  0.00000000000E+00  0.00000000000E+00  0.48294029474E+03  0.48294029474E+03  0.00000000000E+00 0. -1.
         21   -1    0    0  501  503 -0.00000000000E+00 -0.00000000000E+00 -0.35202680684E+03  0.35202680684E+03  0.00000000000E+00 0. -1.
    9000007    1    1    2  501    0  0.19862671172E+02  0.72389472449E+02 -0.15013189034E+01  0.40698527662E+03  0.40000000000E+03 0. -1.
   -9000007    1    1    2    0  502 -0.19862671172E+02 -0.72389472449E+02  0.13241480680E+03  0.42798182495E+03  0.40000000000E+03 0. -1.
<mgrwt>
<rscale>  2 0.40698251E+03</rscale>
<asrwt>0</asrwt>
<pdfrwt beam="1">  1       21 0.74298507E-01 0.40698251E+03</pdfrwt>
<pdfrwt beam="2">  1       21 0.54157970E-01 0.40698251E+03</pdfrwt>
<totfact> 0.46656210E+03</totfact>
</mgrwt>
</event>
<event>
 4    1  0.4863180E-002  0.4810640E+03  0.7818608E-02  0.1018843E+00
         21   -1    0    0  501  502  0.00000000000E+00  0.00000000000E+00  0.25444710980E+03  0.25444710980E+03  0.00000000000E+00 0. -1.
         21   -1    0    0  502  503 -0.00000000000E+00 -0.00000000000E+00 -0.11492805788E+04  0.11492805788E+04  0.00000000000E+00 0. -1.
    9000007    1    1    2  501    0 -0.26626424534E+03 -0.22933019851E+02 -0.12683673274E+03  0.49750389800E+03  0.40000000000E+03 0. -1.
   -9000007    1    1    2    0  503  0.26626424534E+03  0.22933019851E+02 -0.76799673625E+03  0.90622379059E+03  0.40000000000E+03 0. -1.
<mgrwt>
<rscale>  2 0.48106400E+03</rscale>
<asrwt>0</asrwt>
<pdfrwt beam="1">  1       21 0.39145710E-01 0.48106400E+03</pdfrwt>
<pdfrwt beam="2">  1       21 0.17681240E+00 0.48106400E+03</pdfrwt>
<totfact> 0.99755199E+02</totfact>
</mgrwt>
</event>
<event>
 4    1  0.4863180E-002  0.4099064E+03  0.7818608E-02  0.1040402E+00
         21   -1    0    0  503  502  0.00000000000E+00  0.00000000000E+00  0.41342180844E+03  0.41342180844E+03  0.00000000000E+00 0.  1.
         21   -1    0    0  501  503 -0.00000000000E+00 -0.00000000000E+00 -0.68965420961E+03  0.68965420961E+03  0.00000000000E+00 0.  1.
    9000007    1    1    2  501    0  0.81585734264E+02  0.36973711265E+02 -0.49156936206E+03  0.64004978328E+03  0.40000000000E+03 0.  1.
   -9000007    1    1    2    0  502 -0.81585734264E+02 -0.36973711265E+02  0.21533696089E+03  0.46302623477E+03  0.40000000000E+03 0.  1.
<mgrwt>
<rscale>  2 0.40990644E+03</rscale>
<asrwt>0</asrwt>
<pdfrwt beam="1">  1       21 0.63603356E-01 0.40990644E+03</pdfrwt>
<pdfrwt beam="2">  1       21 0.10610065E+00 0.40990644E+03</pdfrwt>
<totfact> 0.14163834E+03</totfact>
</mgrwt>
</event>
<event>
 4    1  0.4863180E-002  0.4602217E+03  0.7818608E-02  0.1024717E+00
         21   -1    0    0  501  502  0.00000000000E+00  0.00000000000E+00  0.27066777073E+04  0.27066777073E+04  0.00000000000E+00 0. -1.
         21   -1    0    0  502  503 -0.00000000000E+00 -0.00000000000E+00 -0.26389609087E+03  0.26389609087E+03  0.00000000000E+00 0.  1.
    9000007    1    1    2  501    0 -0.13126815935E+03  0.18593738581E+03  0.24671496056E+04  0.25097073968E+04  0.40000000000E+03 0. -1.
   -9000007    1    1    2    0  503  0.13126815935E+03 -0.18593738581E+03 -0.24367989080E+02  0.46086640146E+03  0.40000000000E+03 0.  1.
<mgrwt>
<rscale>  2 0.46022173E+03</rscale>
<asrwt>0</asrwt>
<pdfrwt beam="1">  1       21 0.41641194E+00 0.46022173E+03</pdfrwt>
<pdfrwt beam="2">  1       21 0.40599400E-01 0.46022173E+03</pdfrwt>
<totfact> 0.29249562E+01</totfact>
</mgrwt>
</event>
<event>
 4    1  0.4863180E-002  0.4839999E+03  0.7818608E-02  0.1018042E+00
         21   -1    0    0  501  502  0.00000000000E+00  0.00000000000E+00  0.13133209774E+04  0.13133209774E+04  0.00000000000E+00 0. -1.
         21   -1    0    0  502  503 -0.00000000000E+00 -0.00000000000E+00 -0.42682542018E+03  0.42682542018E+03  0.00000000000E+00 0.  1.
    9000007    1    1    2  501    0  0.69297948166E+02  0.26354062562E+03  0.11070759614E+04  0.12082520644E+04  0.40000000000E+03 0.  1.
   -9000007    1    1    2    0  503 -0.69297948166E+02 -0.26354062562E+03 -0.22058040412E+03  0.53189433317E+03  0.40000000000E+03 0.  1.
<mgrwt>
<rscale>  2 0.48399986E+03</rscale>
<asrwt>0</asrwt>
<pdfrwt beam="1">  1       21 0.20204938E+00 0.48399986E+03</pdfrwt>
<pdfrwt beam="2">  1       21 0.65665450E-01 0.48399986E+03</pdfrwt>
<totfact> 0.22096316E+02</totfact>
</mgrwt>
</event>
<event>
 4    1  0.4863180E-002  0.4706114E+03  0.7818608E-02  0.1021748E+00
         21   -1    0    0  501  502  0.00000000000E+00  0.00000000000E+00  0.24912686641E+03  0.24912686641E+03  0.00000000000E+00 0.  1.
         21   -1    0    0  502  503 -0.00000000000E+00 -0.00000000000E+00 -0.89751526726E+03  0.89751526726E+03  0.00000000000E+00 0. -1.
    9000007    1    1    2  501    0 -0.14082618758E+03  0.20406643225E+03 -0.26836788706E+03  0.54175312337E+03  0.40000000000E+03 0.  1.
   -9000007    1    1    2    0  503  0.14082618758E+03 -0.20406643225E+03 -0.38002051379E+03  0.60488901030E+03  0.40000000000E+03 0.  1.
<mgrwt>
<rscale>  2 0.47061144E+03</rscale>
<asrwt>0</asrwt>
<pdfrwt beam="1">  1       21 0.38327210E-01 0.47061144E+03</pdfrwt>
<pdfrwt beam="2">  1       21 0.13807927E+00 0.47061144E+03</pdfrwt>
<totfact> 0.20743923E+03</totfact>
</mgrwt>
</event>
<event>
 4    1  0.4863180E-002  0.4279963E+03  0.7818608E-02  0.1034495E+00
         21   -1    0    0  501  502  0.00000000000E+00  0.00000000000E+00  0.12395405184E+04  0.12395405184E+04  0.00000000000E+00 0.  1.
         21   -1    0    0  502  503 -0.00000000000E+00 -0.00000000000E+00 -0.15450839101E+03  0.15450839101E+03  0.00000000000E+00 0.  1.
    9000007    1    1    2  501    0 -0.14929833166E+03 -0.29847153137E+02  0.68795722048E+03  0.81022588307E+03  0.40000000000E+03 0.  1.
   -9000007    1    1    2    0  503  0.14929833166E+03  0.29847153137E+02  0.39707490690E+03  0.58382302633E+03  0.40000000000E+03 0.  1.
<mgrwt>
<rscale>  2 0.42799631E+03</rscale>
<asrwt>0</asrwt>
<pdfrwt beam="1">  1       21 0.19069853E+00 0.42799631E+03</pdfrwt>
<pdfrwt beam="2">  1       21 0.23770522E-01 0.42799631E+03</pdfrwt>
<totfact> 0.22057114E+03</totfact>
</mgrwt>
</event>
<event>
 4    1  0.4863180E-002  0.4172712E+03  0.7818608E-02  0.1037958E+00
         21   -1    0    0  501  502  0.00000000000E+00  0.00000000000E+00  0.86358468031E+03  0.86358468031E+03  0.00000000000E+00 0. -1.
         21   -1    0    0  502  503 -0.00000000000E+00 -0.00000000000E+00 -0.20390474852E+03  0.20390474852E+03  0.00000000000E+00 0. -1.
    9000007    1    1    2  501    0 -0.77430410620E+02 -0.90109708023E+02  0.38634899239E+03  0.56866578224E+03  0.40000000000E+03 0. -1.
   -9000007    1    1    2    0  503  0.77430410620E+02  0.90109708023E+02  0.27333093940E+03  0.49882364659E+03  0.40000000000E+03 0. -1.
<mgrwt>
<rscale>  2 0.41727117E+03</rscale>
<asrwt>0</asrwt>
<pdfrwt beam="1">  1       21 0.13285918E+00 0.41727117E+03</pdfrwt>
<pdfrwt beam="2">  1       21 0.31369962E-01 0.41727117E+03</pdfrwt>
<totfact> 0.35110004E+03</totfact>
</mgrwt>
</event>
<event>
 4    1  0.4863180E-002  0.4909912E+03  0.7818608E-02  0.1016157E+00
         21   -1    0    0  501  502  0.00000000000E+00  0.00000000000E+00  0.99513771472E+03  0.99513771472E+03  0.00000000000E+00 0.  1.
         21   -1    0    0  502  503 -0.00000000000E+00 -0.00000000000E+00 -0.27982177434E+03  0.27982177434E+03  0.00000000000E+00 0.  1.
    9000007    1    1    2  501    0  0.72284139980E+01 -0.28464036478E+03  0.12406762553E+03  0.50642389649E+03  0.40000000000E+03 0.  1.
   -9000007    1    1    2    0  503 -0.72284139980E+01  0.28464036478E+03  0.59124831485E+03  0.76853559257E+03  0.40000000000E+03 0.  1.
<mgrwt>
<rscale>  2 0.49099123E+03</rscale>
<asrwt>0</asrwt>
<pdfrwt beam="1">  1       21 0.15309811E+00 0.49099123E+03</pdfrwt>
<pdfrwt beam="2">  1       21 0.43049504E-01 0.49099123E+03</pdfrwt>
<totfact> 0.12252845E+03</totfact>
</mgrwt>
</event>
<event>
 4    1  0.4863180E-002  0.4984358E+03  0.7818608E-02  0.1014188E+00
         21   -1    0    0  503  502  0.00000000000E+00  0.00000000000E+00  0.10323064899E+04  0.10323064899E+04  0.00000000000E+00 0.  1.
         21   -1    0    0  501  503 -0.00000000000E+00 -0.00000000000E+00 -0.24361529159E+03  0.24361529159E+03  0.00000000000E+00 0. -1.
    9000007    1    1    2  501    0 -0.18592784671E+03 -0.23209721109E+03  0.32411929198E+03  0.59455159155E+03  0.40000000000E+03 0. -1.
   -9000007    1    1    2    0  502  0.18592784671E+03  0.23209721109E+03  0.46457190628E+03  0.68137018990E+03  0.40000000000E+03 0.  1.
<mgrwt>
<rscale>  2 0.49843583E+03</rscale>
<asrwt>0</asrwt>
<pdfrwt beam="1">  1       21 0.15881638E+00 0.49843583E+03</pdfrwt>
<pdfrwt beam="2">  1       21 0.37479276E-01 0.49843583E+03</pdfrwt>
<totfact> 0.14698181E+03</totfact>
</mgrwt>
</event>
<event>
 4    1  0.4863180E-002  0.4588174E+03  0.7818608E-02  0.1025125E+00
         21   -1    0    0  501  502  0.00000000000E+00  0.00000000000E+00  0.59629775142E+03  0.59629775142E+03  0.00000000000E+00 0.  1.
         21   -1    0    0  502  503 -0.00000000000E+00 -0.00000000000E+00 -0.41479880244E+03  0.41479880244E+03  0.00000000000E+00 0.  1.
    9000007    1    1    2  501    0  0.79704770485E+02  0.21014411799E+03  0.28583017017E+03  0.54056663506E+03  0.40000000000E+03 0.  1.
   -9000007    1    1    2    0  503 -0.79704770485E+02 -0.21014411799E+03 -0.10433122120E+03  0.47052991879E+03  0.40000000000E+03 0.  1.
<mgrwt>
<rscale>  2 0.45881739E+03</rscale>
<asrwt>0</asrwt>
<pdfrwt beam="1">  1       21 0.91738116E-01 0.45881739E+03</pdfrwt>
<pdfrwt beam="2">  1       21 0.63815200E-01 0.45881739E+03</pdfrwt>
<totfact> 0.19603074E+03</totfact>
</mgrwt>
</event>
<event>
 4    1  0.4863180E-002  0.5358373E+03  0.7818608E-02  0.1004826E+00
         21   -1    0    0  501  502  0.00000000000E+00  0.00000000000E+00  0.58176690180E+03  0.58176690180E+03  0.00000000000E+00 0. -1.
         21   -1    0    0  502  503 -0.00000000000E+00 -0.00000000000E+00 -0.12094329457E+04  0.12094329457E+04  0.00000000000E+00 0.  1.
    9000007    1    1    2  501    0 -0.15252503837E+03  0.32226972675E+03  0.37521430878E+03  0.65414634573E+03  0.40000000000E+03 0. -1.
   -9000007    1    1    2    0  503  0.15252503837E+03 -0.32226972675E+03 -0.10028803527E+04  0.11370535018E+04  0.40000000000E+03 0.  1.
<mgrwt>
<rscale>  2 0.53583735E+03</rscale>
<asrwt>0</asrwt>
<pdfrwt beam="1">  1       21 0.89502601E-01 0.53583735E+03</pdfrwt>
<pdfrwt beam="2">  1       21 0.18606660E+00 0.53583735E+03</pdfrwt>
<totfact> 0.13591111E+02</totfact>
</mgrwt>
</event>
<event>
 4    1  0.4863180E-002  0.4225617E+03  0.7818608E-02  0.1036236E+00
         21   -1    0    0  501  502  0.00000000000E+00  0.00000000000E+00  0.25787272845E+03  0.25787272845E+03  0.00000000000E+00 0. -1.
         21   -1    0    0  502  503 -0.00000000000E+00 -0.00000000000E+00 -0.20190782757E+04  0.20190782757E+04  0.00000000000E+00 0. -1.
    9000007    1    1    2  501    0  0.87877276898E+02 -0.10409590686E+03  0.42234844056E+02  0.42466711160E+03  0.40000000000E+03 0. -1.
   -9000007    1    1    2    0  503 -0.87877276898E+02  0.10409590686E+03 -0.18034403913E+04  0.18522838926E+04  0.40000000000E+03 0. -1.
<mgrwt>
<rscale>  2 0.42256168E+03</rscale>
<asrwt>0</asrwt>
<pdfrwt beam="1">  1       21 0.39672725E-01 0.42256168E+03</pdfrwt>
<pdfrwt beam="2">  1       21 0.31062744E+00 0.42256168E+03</pdfrwt>
<totfact> 0.14335011E+02</totfact>
</mgrwt>
</event>
<event>
 4    1  0.4863180E-002  0.4215078E+03  0.7818608E-02  0.1036577E+00
         21   -1    0    0  501  502  0.00000000000E+00  0.00000000000E+00  0.14564898895E+03  0.14564898895E+03  0.00000000000E+00 0.  1.
         21   -1    0    0  502  503 -0.00000000000E+00 -0.00000000000E+00 -0.12507585699E+04  0.12507585699E+04  0.00000000000E+00 0.  1.
    9000007    1    1    2  501    0 -0.13292054121E+03 -0.99827352777E+00 -0.44278428542E+03  0.61133198038E+03  0.40000000000E+03 0.  1.
   -9000007    1    1    2    0  503  0.13292054121E+03  0.99827352777E+00 -0.66232529557E+03  0.78507557851E+03  0.40000000000E+03 0.  1.
<mgrwt>
<rscale>  2 0.42150785E+03</rscale>
<asrwt>0</asrwt>
<pdfrwt beam="1">  1       21 0.22407537E-01 0.42150785E+03</pdfrwt>
<pdfrwt beam="2">  1       21 0.19242439E+00 0.42150785E+03</pdfrwt>
<totfact> 0.24126248E+03</totfact>
</mgrwt>
</event>
<event>
 4    1  0.4863180E-002  0.4066821E+03  0.7818608E-02  0.1041490E+00
         21   -1    0    0  503  502  0.00000000000E+00  0.00000000000E+00  0.66248102011E+03  0.66248102011E+03  0.00000000000E+00 0.  1.
         21   -1    0    0  501  503 -0.00000000000E+00 -0.00000000000E+00 -0.32938339276E+03  0.32938339276E+03  0.00000000000E+00 0.  1.
    9000007    1    1    2  501    0 -0.63347575365E+02  0.37114075457E+02  0.41054522147E+03  0.57787347125E+03  0.40000000000E+03 0. -1.
   -9000007    1    1    2    0  502  0.63347575365E+02 -0.37114075457E+02 -0.77447594120E+02  0.41399094161E+03  0.40000000000E+03 0. -1.
<mgrwt>
<rscale>  2 0.40668215E+03</rscale>
<asrwt>0</asrwt>
<pdfrwt beam="1">  1       21 0.10192016E+00 0.40668215E+03</pdfrwt>
<pdfrwt beam="2">  1       21 0.50674368E-01 0.40668215E+03</pdfrwt>
<totfact> 0.25608571E+03</totfact>
</mgrwt>
</event>
<event>
 4    1  0.4863180E-002  0.4542683E+03  0.7818608E-02  0.1026457E+00
         21   -1    0    0  503  502  0.00000000000E+00  0.00000000000E+00  0.14276511103E+03  0.14276511103E+03  0.00000000000E+00 0. -1.
         21   -1    0    0  501  503 -0.00000000000E+00 -0.00000000000E+00 -0.23412692339E+04  0.23412692339E+04  0.00000000000E+00 0. -1.
    9000007    1    1    2  501    0 -0.83673971007E+02  0.19838937106E+03 -0.18675194063E+04  0.19219751322E+04  0.40000000000E+03 0. -1.
   -9000007    1    1    2    0  502  0.83673971007E+02 -0.19838937106E+03 -0.33098471657E+03  0.56205921269E+03  0.40000000000E+03 0. -1.
<mgrwt>
<rscale>  2 0.45426829E+03</rscale>
<asrwt>0</asrwt>
<pdfrwt beam="1">  1       21 0.21963864E-01 0.45426829E+03</pdfrwt>
<pdfrwt beam="2">  1       21 0.36019526E+00 0.45426829E+03</pdfrwt>
<totfact> 0.22663724E+02</totfact>
</mgrwt>
</event>
<event>
 4    1  0.4863180E-002  0.4174018E+03  0.7818608E-02  0.1037915E+00
         21   -1    0    0  503  502  0.00000000000E+00  0.00000000000E+00  0.21644482223E+03  0.21644482223E+03  0.00000000000E+00 0.  1.
         21   -1    0    0  501  503 -0.00000000000E+00 -0.00000000000E+00 -0.81549596942E+03  0.81549596942E+03  0.00000000000E+00 0. -1.
    9000007    1    1    2  501    0  0.10118655023E+03 -0.63130998536E+02 -0.35823990405E+03  0.55005460618E+03  0.40000000000E+03 0. -1.
   -9000007    1    1    2    0  502 -0.10118655023E+03  0.63130998536E+02 -0.24081124314E+03  0.48188618547E+03  0.40000000000E+03 0. -1.
<mgrwt>
<rscale>  2 0.41740177E+03</rscale>
<asrwt>0</asrwt>
<pdfrwt beam="1">  1       21 0.33299203E-01 0.41740177E+03</pdfrwt>
<pdfrwt beam="2">  1       21 0.12546092E+00 0.41740177E+03</pdfrwt>
<totfact> 0.36128673E+03</totfact>
</mgrwt>
</event>
<event>
 4    1  0.4863180E-002  0.4093505E+03  0.7818608E-02  0.1040589E+00
         21   -1    0    0  501  502  0.00000000000E+00  0.00000000000E+00  0.13280538216E+04  0.13280538216E+04  0.00000000000E+00 0. -1.
         21   -1    0    0  502  503 -0.00000000000E+00 -0.00000000000E+00 -0.17381254329E+03  0.17381254329E+03  0.00000000000E+00 0.  1.
    9000007    1    1    2  501    0  0.12768232120E+02 -0.86051182757E+02  0.97024794491E+03  0.10530664311E+04  0.40000000000E+03 0. -1.
   -9000007    1    1    2    0  503 -0.12768232120E+02  0.86051182757E+02  0.18399333344E+03  0.44879993377E+03  0.40000000000E+03 0.  1.
<mgrwt>
<rscale>  2 0.40935050E+03</rscale>
<asrwt>0</asrwt>
<pdfrwt beam="1">  1       21 0.20431597E+00 0.40935050E+03</pdfrwt>
<pdfrwt beam="2">  1       21 0.26740392E-01 0.40935050E+03</pdfrwt>
<totfact> 0.14344328E+03</totfact>
</mgrwt>
</event>
<event>
 4    1  0.4863180E-002  0.5338524E+03  0.7818608E-02  0.1005302E+00
         21   -1    0    0  501  502  0.00000000000E+00  0.00000000000E+00  0.88647169239E+03  0.88647169239E+03  0.00000000000E+00 0. -1.
         21   -1    0    0  502  503 -0.00000000000E+00 -0.00000000000E+00 -0.65230467921E+03  0.65230467921E+03  0.00000000000E+00 0. -1.
    9000007    1    1    2  501    0 -0.11529286256E+03  0.33422438097E+03  0.66499166585E+03  0.85276743409E+03  0.40000000000E+03 0. -1.
   -9000007    1    1    2    0  503  0.11529286256E+03 -0.33422438097E+03 -0.43082465267E+03  0.68600893751E+03  0.40000000000E+03 0. -1.
<mgrwt>
<rscale>  2 0.53385240E+03</rscale>
<asrwt>0</asrwt>
<pdfrwt beam="1">  1       21 0.13638026E+00 0.53385240E+03</pdfrwt>
<pdfrwt beam="2">  1       21 0.10035457E+00 0.53385240E+03</pdfrwt>
<totfact> 0.24671550E+02</totfact>
</mgrwt>
</event>
<event>
 4    1  0.4863180E-002  0.4533109E+03  0.7818608E-02  0.1026739E+00
         21   -1    0    0  503  502  0.00000000000E+00  0.00000000000E+00  0.12209985475E+03  0.12209985475E+03  0.00000000000E+00 0.  1.
         21   -1    0    0  501  503 -0.00000000000E+00 -0.00000000000E+00 -0.17637627017E+04  0.17637627017E+04  0.00000000000E+00 0. -1.
    9000007    1    1    2  501    0 -0.68308834747E+02 -0.20205117433E+03 -0.10226390778E+04  0.11186069271E+04  0.40000000000E+03 0. -1.
   -9000007    1    1    2    0  502  0.68308834747E+02  0.20205117433E+03 -0.61902376909E+03  0.76725562927E+03  0.40000000000E+03 0.  1.
<mgrwt>
<rscale>  2 0.45331090E+03</rscale>
<asrwt>0</asrwt>
<pdfrwt beam="1">  1       21 0.18784594E-01 0.45331090E+03</pdfrwt>
<pdfrwt beam="2">  1       21 0.27134810E+00 0.45331090E+03</pdfrwt>
<totfact> 0.10555212E+03</totfact>
</mgrwt>
</event>
<event>
 4    1  0.4863180E-002  0.4072651E+03  0.7818608E-02  0.1041293E+00
         21   -1    0    0  501  502  0.00000000000E+00  0.00000000000E+00  0.35399207153E+03  0.35399207153E+03  0.00000000000E+00 0.  1.
         21   -1    0    0  502  503 -0.00000000000E+00 -0.00000000000E+00 -0.70091877497E+03  0.70091877497E+03  0.00000000000E+00 0.  1.
    9000007    1    1    2  501    0 -0.58789195478E+02  0.49078191347E+02  0.13023043534E+03  0.42758017337E+03  0.40000000000E+03 0. -1.
   -9000007    1    1    2    0  503  0.58789195478E+02 -0.49078191347E+02 -0.47715713878E+03  0.62733067314E+03  0.40000000000E+03 0. -1.
<mgrwt>
<rscale>  2 0.40726507E+03</rscale>
<asrwt>0</asrwt>
<pdfrwt beam="1">  1       21 0.54460319E-01 0.40726507E+03</pdfrwt>
<pdfrwt beam="2">  1       21 0.10783366E+00 0.40726507E+03</pdfrwt>
<totfact> 0.19110029E+03</totfact>
</mgrwt>
</event>
<event>
 4    1  0.4863180E-002  0.4000524E+03  0.7818608E-02  0.1043762E+00
         21   -1    0    0  501  502  0.00000000000E+00  0.00000000000E+00  0.27705609698E+03  0.27705609698E+03  0.00000000000E+00 0.  1.
         21   -1    0    0  502  503 -0.00000000000E+00 -0.00000000000E+00 -0.63003366423E+03  0.63003366423E+03  0.00000000000E+00 0.  1.
    9000007    1    1    2  501    0  0.58119038357E+01  0.28493767738E+01 -0.45712285484E+02  0.40265557269E+03  0.40000000000E+03 0.  1.
   -9000007    1    1    2    0  503 -0.58119038357E+01 -0.28493767738E+01 -0.30726528176E+03  0.50443418852E+03  0.40000000000E+03 0.  1.
<mgrwt>
<rscale>  2 0.40005237E+03</rscale>
<asrwt>0</asrwt>
<pdfrwt beam="1">  1       21 0.42624015E-01 0.40005237E+03</pdfrwt>
<pdfrwt beam="2">  1       21 0.96928256E-01 0.40005237E+03</pdfrwt>
<totfact> 0.41692986E+03</totfact>
</mgrwt>
</event>
<event>
 4    1  0.4863180E-002  0.4690198E+03  0.7818608E-02  0.1022197E+00
         21   -1    0    0  501  502  0.00000000000E+00  0.00000000000E+00  0.36458486098E+03  0.36458486098E+03  0.00000000000E+00 0.  1.
         21   -1    0    0  502  503 -0.00000000000E+00 -0.00000000000E+00 -0.87122902802E+03  0.87122902802E+03  0.00000000000E+00 0.  1.
    9000007    1    1    2  501    0  0.19827996537E+03 -0.14375195649E+03  0.89295815259E+02  0.47744456462E+03  0.40000000000E+03 0.  1.
   -9000007    1    1    2    0  503 -0.19827996537E+03  0.14375195649E+03 -0.59593998230E+03  0.75836932438E+03  0.40000000000E+03 0.  1.
<mgrwt>
<rscale>  2 0.46901980E+03</rscale>
<asrwt>0</asrwt>
<pdfrwt beam="1">  1       21 0.56089979E-01 0.46901980E+03</pdfrwt>
<pdfrwt beam="2">  1       21 0.13403523E+00 0.46901980E+03</pdfrwt>
<totfact> 0.10063147E+03</totfact>
</mgrwt>
</event>
<event>
 4    1  0.4863180E-002  0.4884184E+03  0.7818608E-02  0.1016847E+00
         21   -1    0    0  503  502  0.00000000000E+00  0.00000000000E+00  0.96064695812E+03  0.96064695812E+03  0.00000000000E+00 0. -1.
         21   -1    0    0  501  503 -0.00000000000E+00 -0.00000000000E+00 -0.26031295958E+03  0.26031295958E+03  0.00000000000E+00 0. -1.
    9000007    1    1    2  501    0  0.36845849729E+02  0.27783980534E+03  0.48117496221E+03  0.68562520252E+03  0.40000000000E+03 0. -1.
   -9000007    1    1    2    0  502 -0.36845849729E+02 -0.27783980534E+03  0.21915903632E+03  0.53533471518E+03  0.40000000000E+03 0. -1.
<mgrwt>
<rscale>  2 0.48841844E+03</rscale>
<asrwt>0</asrwt>
<pdfrwt beam="1">  1       21 0.14779184E+00 0.48841844E+03</pdfrwt>
<pdfrwt beam="2">  1       21 0.40048148E-01 0.48841844E+03</pdfrwt>
<totfact> 0.15687190E+03</totfact>
</mgrwt>
</event>
<event>
 4    1  0.4863180E-002  0.5271041E+03  0.7818608E-02  0.1006937E+00
         21   -1    0    0  501  502  0.00000000000E+00  0.00000000000E+00  0.12876540088E+04  0.12876540088E+04  0.00000000000E+00 0. -1.
         21   -1    0    0  502  503 -0.00000000000E+00 -0.00000000000E+00 -0.21607318835E+03  0.21607318835E+03  0.00000000000E+00 0.  1.
    9000007    1    1    2  501    0 -0.82253573268E+02  0.33327622332E+03  0.50768363638E+03  0.73183424762E+03  0.40000000000E+03 0.  1.
   -9000007    1    1    2    0  503  0.82253573268E+02 -0.33327622332E+03  0.56389718408E+03  0.77189294954E+03  0.40000000000E+03 0.  1.
<mgrwt>
<rscale>  2 0.52710406E+03</rscale>
<asrwt>0</asrwt>
<pdfrwt beam="1">  1       21 0.19810061E+00 0.52710406E+03</pdfrwt>
<pdfrwt beam="2">  1       21 0.33242030E-01 0.52710406E+03</pdfrwt>
<totfact> 0.97281518E+02</totfact>
</mgrwt>
</event>
<event>
 4    1  0.4863180E-002  0.5619213E+03  0.7818608E-02  0.9987717E-01
         21   -1    0    0  503  502  0.00000000000E+00  0.00000000000E+00  0.47499695582E+03  0.47499695582E+03  0.00000000000E+00 0.  1.
         21   -1    0    0  501  503 -0.00000000000E+00 -0.00000000000E+00 -0.89763862836E+03  0.89763862836E+03  0.00000000000E+00 0. -1.
    9000007    1    1    2  501    0 -0.11033296073E+02  0.39450450271E+03 -0.56090042023E+03  0.79395517360E+03  0.40000000000E+03 0. -1.
   -9000007    1    1    2    0  502  0.11033296073E+02 -0.39450450271E+03  0.13825874769E+03  0.57868041058E+03  0.40000000000E+03 0.  1.
<mgrwt>
<rscale>  2 0.56192129E+03</rscale>
<asrwt>0</asrwt>
<pdfrwt beam="1">  1       21 0.73076455E-01 0.56192129E+03</pdfrwt>
<pdfrwt beam="2">  1       21 0.13809825E+00 0.56192129E+03</pdfrwt>
<totfact> 0.49848980E+02</totfact>
</mgrwt>
</event>
<event>
 4    1  0.4863180E-002  0.4266842E+03  0.7818608E-02  0.1034913E+00
         21   -1    0    0  501  502  0.00000000000E+00  0.00000000000E+00  0.44678725795E+03  0.44678725795E+03  0.00000000000E+00 0. -1.
         21   -1    0    0  502  503 -0.00000000000E+00 -0.00000000000E+00 -0.50555640783E+03  0.50555640783E+03  0.00000000000E+00 0. -1.
    9000007    1    1    2  501    0  0.12151930916E+03 -0.85396140781E+02 -0.23910871592E+03  0.48911391453E+03  0.40000000000E+03 0. -1.
   -9000007    1    1    2    0  503 -0.12151930916E+03  0.85396140781E+02  0.18033956604E+03  0.46322975125E+03  0.40000000000E+03 0. -1.
<mgrwt>
<rscale>  2 0.42668424E+03</rscale>
<asrwt>0</asrwt>
<pdfrwt beam="1">  1       21 0.68736501E-01 0.42668424E+03</pdfrwt>
<pdfrwt beam="2">  1       21 0.77777909E-01 0.42668424E+03</pdfrwt>
<totfact> 0.24725578E+03</totfact>
</mgrwt>
</event>
<event>
 4    1  0.4863180E-002  0.4180835E+03  0.7818608E-02  0.1037692E+00
         21   -1    0    0  501  502  0.00000000000E+00  0.00000000000E+00  0.48624429134E+03  0.48624429134E+03  0.00000000000E+00 0. -1.
         21   -1    0    0  502  503 -0.00000000000E+00 -0.00000000000E+00 -0.38770830028E+03  0.38770830028E+03  0.00000000000E+00 0. -1.
    9000007    1    1    2  501    0 -0.72697778103E+02  0.97513175087E+02  0.16718282919E+03  0.45027090138E+03  0.40000000000E+03 0. -1.
   -9000007    1    1    2    0  503  0.72697778103E+02 -0.97513175087E+02 -0.68646838128E+02  0.42368169024E+03  0.40000000000E+03 0. -1.
<mgrwt>
<rscale>  2 0.41808347E+03</rscale>
<asrwt>0</asrwt>
<pdfrwt beam="1">  1       21 0.74806813E-01 0.41808347E+03</pdfrwt>
<pdfrwt beam="2">  1       21 0.59647431E-01 0.41808347E+03</pdfrwt>
<totfact> 0.37114251E+03</totfact>
</mgrwt>
</event>
<event>
 4    1  0.4863180E-002  0.4997769E+03  0.7818608E-02  0.1013837E+00
         21   -1    0    0  503  502  0.00000000000E+00  0.00000000000E+00  0.47178992733E+03  0.47178992733E+03  0.00000000000E+00 0. -1.
         21   -1    0    0  501  503 -0.00000000000E+00 -0.00000000000E+00 -0.74827422314E+03  0.74827422314E+03  0.00000000000E+00 0.  1.
    9000007    1    1    2  501    0  0.25989372440E+03 -0.14910457460E+03  0.19166805785E+03  0.53526962042E+03  0.40000000000E+03 0. -1.
   -9000007    1    1    2    0  502 -0.25989372440E+03  0.14910457460E+03 -0.46815235366E+03  0.68479453005E+03  0.40000000000E+03 0.  1.
<mgrwt>
<rscale>  2 0.49977687E+03</rscale>
<asrwt>0</asrwt>
<pdfrwt beam="1">  1       21 0.72583066E-01 0.49977687E+03</pdfrwt>
<pdfrwt beam="2">  1       21 0.11511911E+00 0.49977687E+03</pdfrwt>
<totfact> 0.82940890E+02</totfact>
</mgrwt>
</event>
<event>
 4    1  0.4863180E-002  0.4819810E+03  0.7818608E-02  0.1018592E+00
         21   -1    0    0  501  502  0.00000000000E+00  0.00000000000E+00  0.12948407854E+04  0.12948407854E+04  0.00000000000E+00 0.  1.
         21   -1    0    0  502  503 -0.00000000000E+00 -0.00000000000E+00 -0.21627865071E+03  0.21627865071E+03  0.00000000000E+00 0.  1.
    9000007    1    1    2  501    0 -0.24861464834E+03  0.10245213102E+03  0.22732147989E+03  0.53289843098E+03  0.40000000000E+03 0.  1.
   -9000007    1    1    2    0  503  0.24861464834E+03 -0.10245213102E+03  0.85124065481E+03  0.97822100515E+03  0.40000000000E+03 0.  1.
<mgrwt>
<rscale>  2 0.48198100E+03</rscale>
<asrwt>0</asrwt>
<pdfrwt beam="1">  1       21 0.19920627E+00 0.48198100E+03</pdfrwt>
<pdfrwt beam="2">  1       21 0.33273639E-01 0.48198100E+03</pdfrwt>
<totfact> 0.97204772E+02</totfact>
</mgrwt>
</event>
<event>
 4    1  0.4863180E-002  0.8853098E+03  0.7818608E-02  0.9444133E-01
         21   -1    0    0  503  502  0.00000000000E+00  0.00000000000E+00  0.53357976938E+03  0.53357976938E+03  0.00000000000E+00 0.  1.
         21   -1    0    0  501  503 -0.00000000000E+00 -0.00000000000E+00 -0.15479803949E+04  0.15479803949E+04  0.00000000000E+00 0. -1.
    9000007    1    1    2  501    0 -0.57410579856E+03  0.54237993187E+03 -0.74244523371E+03  0.11554213013E+04  0.40000000000E+03 0. -1.
   -9000007    1    1    2    0  502  0.57410579856E+03 -0.54237993187E+03 -0.27195539184E+03  0.92613886302E+03  0.40000000000E+03 0. -1.
<mgrwt>
<rscale>  2 0.88530981E+03</rscale>
<asrwt>0</asrwt>
<pdfrwt beam="1">  1       21 0.82089195E-01 0.88530981E+03</pdfrwt>
<pdfrwt beam="2">  1       21 0.23815083E+00 0.88530981E+03</pdfrwt>
<totfact> 0.66347670E+01</totfact>
</mgrwt>
</event>
<event>
 4    1  0.4863180E-002  0.4326335E+03  0.7818608E-02  0.1033031E+00
         21   -1    0    0  501  502  0.00000000000E+00  0.00000000000E+00  0.48035438346E+03  0.48035438346E+03  0.00000000000E+00 0.  1.
         21   -1    0    0  502  503 -0.00000000000E+00 -0.00000000000E+00 -0.54103860698E+03  0.54103860698E+03  0.00000000000E+00 0.  1.
    9000007    1    1    2  501    0 -0.13233127341E+03 -0.98286386769E+02  0.23979875348E+03  0.49464656263E+03  0.40000000000E+03 0.  1.
   -9000007    1    1    2    0  503  0.13233127341E+03  0.98286386769E+02 -0.30048297700E+03  0.52674642781E+03  0.40000000000E+03 0.  1.
<mgrwt>
<rscale>  2 0.43263354E+03</rscale>
<asrwt>0</asrwt>
<pdfrwt beam="1">  1       21 0.73900674E-01 0.43263354E+03</pdfrwt>
<pdfrwt beam="2">  1       21 0.83236709E-01 0.43263354E+03</pdfrwt>
<totfact> 0.17909035E+03</totfact>
</mgrwt>
</event>
<event>
 4    1  0.4863180E-002  0.4168684E+03  0.7818608E-02  0.1038090E+00
         21   -1    0    0  501  502  0.00000000000E+00  0.00000000000E+00  0.85269283448E+03  0.85269283448E+03  0.00000000000E+00 0.  1.
         21   -1    0    0  502  503 -0.00000000000E+00 -0.00000000000E+00 -0.21572243659E+03  0.21572243659E+03  0.00000000000E+00 0.  1.
    9000007    1    1    2  501    0 -0.11660707737E+03 -0.13493712551E+02  0.44406923984E+03  0.60907863248E+03  0.40000000000E+03 0.  1.
   -9000007    1    1    2    0  503  0.11660707737E+03  0.13493712551E+02  0.19290115806E+03  0.45933663859E+03  0.40000000000E+03 0.  1.
<mgrwt>
<rscale>  2 0.41686843E+03</rscale>
<asrwt>0</asrwt>
<pdfrwt beam="1">  1       21 0.13118351E+00 0.41686843E+03</pdfrwt>
<pdfrwt beam="2">  1       21 0.33188068E-01 0.41686843E+03</pdfrwt>
<totfact> 0.32423767E+03</totfact>
</mgrwt>
</event>
<event>
 4    1  0.4863180E-002  0.4334888E+03  0.7818608E-02  0.1032764E+00
         21   -1    0    0  503  502  0.00000000000E+00  0.00000000000E+00  0.90163851269E+03  0.90163851269E+03  0.00000000000E+00 0.  1.
         21   -1    0    0  501  503 -0.00000000000E+00 -0.00000000000E+00 -0.21885327133E+03  0.21885327133E+03  0.00000000000E+00 0.  1.
    9000007    1    1    2  501    0  0.89406049067E+02  0.14113494675E+03  0.21902301352E+03  0.48567848960E+03  0.40000000000E+03 0.  1.
   -9000007    1    1    2    0  502 -0.89406049067E+02 -0.14113494675E+03  0.46376222784E+03  0.63481329442E+03  0.40000000000E+03 0.  1.
<mgrwt>
<rscale>  2 0.43348877E+03</rscale>
<asrwt>0</asrwt>
<pdfrwt beam="1">  1       21 0.13871362E+00 0.43348877E+03</pdfrwt>
<pdfrwt beam="2">  1       21 0.33669734E-01 0.43348877E+03</pdfrwt>
<totfact> 0.27040535E+03</totfact>
</mgrwt>
</event>
<event>
 4    1  0.4863180E-002  0.4184734E+03  0.7818608E-02  0.1037564E+00
         21   -1    0    0  501  502  0.00000000000E+00  0.00000000000E+00  0.64078992814E+03  0.64078992814E+03  0.00000000000E+00 0. -1.
         21   -1    0    0  502  503 -0.00000000000E+00 -0.00000000000E+00 -0.71253607177E+03  0.71253607177E+03  0.00000000000E+00 0. -1.
    9000007    1    1    2  501    0  0.39089469856E+02  0.11658484675E+03  0.49540767366E+03  0.64849732171E+03  0.40000000000E+03 0. -1.
   -9000007    1    1    2    0  503 -0.39089469856E+02 -0.11658484675E+03 -0.56715381729E+03  0.70482867820E+03  0.40000000000E+03 0. -1.
<mgrwt>
<rscale>  2 0.41847343E+03</rscale>
<asrwt>0</asrwt>
<pdfrwt beam="1">  1       21 0.98583066E-01 0.41847343E+03</pdfrwt>
<pdfrwt beam="2">  1       21 0.10962093E+00 0.41847343E+03</pdfrwt>
<totfact> 0.47414189E+02</totfact>
</mgrwt>
</event>
<event>
 4    1  0.4863180E-002  0.4111738E+03  0.7818608E-02  0.1039978E+00
         21   -1    0    0  503  502  0.00000000000E+00  0.00000000000E+00  0.51099507917E+03  0.51099507917E+03  0.00000000000E+00 0. -1.
         21   -1    0    0  501  503 -0.00000000000E+00 -0.00000000000E+00 -0.43607993375E+03  0.43607993375E+03  0.00000000000E+00 0. -1.
    9000007    1    1    2  501    0  0.54700757916E+02 -0.77921304138E+02 -0.19515662158E+03  0.45513735235E+03  0.40000000000E+03 0. -1.
   -9000007    1    1    2    0  502 -0.54700757916E+02  0.77921304138E+02  0.27007176700E+03  0.49193766057E+03  0.40000000000E+03 0. -1.
<mgrwt>
<rscale>  2 0.41117381E+03</rscale>
<asrwt>0</asrwt>
<pdfrwt beam="1">  1       21 0.78614627E-01 0.41117381E+03</pdfrwt>
<pdfrwt beam="2">  1       21 0.67089221E-01 0.41117381E+03</pdfrwt>
<totfact> 0.25624042E+03</totfact>
</mgrwt>
</event>
<event>
 4    1  0.4863180E-002  0.4205732E+03  0.7818608E-02  0.1036880E+00
         21   -1    0    0  501  502  0.00000000000E+00  0.00000000000E+00  0.83703812483E+03  0.83703812483E+03  0.00000000000E+00 0.  1.
         21   -1    0    0  502  503 -0.00000000000E+00 -0.00000000000E+00 -0.21180505883E+03  0.21180505883E+03  0.00000000000E+00 0.  1.
    9000007    1    1    2  501    0  0.97103968588E+02  0.86328689213E+02  0.33774597519E+03  0.53940167506E+03  0.40000000000E+03 0.  1.
   -9000007    1    1    2    0  503 -0.97103968588E+02 -0.86328689213E+02  0.28748709081E+03  0.50944150859E+03  0.40000000000E+03 0.  1.
<mgrwt>
<rscale>  2 0.42057321E+03</rscale>
<asrwt>0</asrwt>
<pdfrwt beam="1">  1       21 0.12877509E+00 0.42057321E+03</pdfrwt>
<pdfrwt beam="2">  1       21 0.32585394E-01 0.42057321E+03</pdfrwt>
<totfact> 0.35239762E+03</totfact>
</mgrwt>
</event>
<event>
 4    1  0.4863180E-002  0.4272533E+03  0.7818608E-02  0.1034731E+00
         21   -1    0    0  501  502  0.00000000000E+00  0.00000000000E+00  0.88523205665E+03  0.88523205665E+03  0.00000000000E+00 0. -1.
         21   -1    0    0  502  503 -0.00000000000E+00 -0.00000000000E+00 -0.21531569439E+03  0.21531569439E+03  0.00000000000E+00 0. -1.
    9000007    1    1    2  501    0 -0.24499347536E+02 -0.14813899736E+03  0.44810761194E+03  0.61914926508E+03  0.40000000000E+03 0.  1.
   -9000007    1    1    2    0  503  0.24499347536E+02  0.14813899736E+03  0.22180875031E+03  0.48139848596E+03  0.40000000000E+03 0.  1.
<mgrwt>
<rscale>  2 0.42725330E+03</rscale>
<asrwt>0</asrwt>
<pdfrwt beam="1">  1       21 0.13618955E+00 0.42725330E+03</pdfrwt>
<pdfrwt beam="2">  1       21 0.33125492E-01 0.42725330E+03</pdfrwt>
<totfact> 0.29400703E+03</totfact>
</mgrwt>
</event>
<event>
 4    1  0.4863180E-002  0.5133975E+03  0.7818608E-02  0.1010340E+00
         21   -1    0    0  501  502  0.00000000000E+00  0.00000000000E+00  0.81546338816E+03  0.81546338816E+03  0.00000000000E+00 0.  1.
         21   -1    0    0  502  503 -0.00000000000E+00 -0.00000000000E+00 -0.33640467768E+03  0.33640467768E+03  0.00000000000E+00 0. -1.
    9000007    1    1    2  501    0 -0.31806865724E+03  0.49084903446E+02  0.12552604482E+03  0.52852037462E+03  0.40000000000E+03 0. -1.
   -9000007    1    1    2    0  503  0.31806865724E+03 -0.49084903446E+02  0.35353266565E+03  0.62334769122E+03  0.40000000000E+03 0.  1.
<mgrwt>
<rscale>  2 0.51339751E+03</rscale>
<asrwt>0</asrwt>
<pdfrwt beam="1">  1       21 0.12545591E+00 0.51339751E+03</pdfrwt>
<pdfrwt beam="2">  1       21 0.51754566E-01 0.51339751E+03</pdfrwt>
<totfact> 0.13979784E+03</totfact>
</mgrwt>
</event>
<event>
 4    1  0.4863180E-002  0.4593002E+03  0.7818608E-02  0.1024984E+00
         21   -1    0    0  503  502  0.00000000000E+00  0.00000000000E+00  0.89792322866E+03  0.89792322866E+03  0.00000000000E+00 0.  1.
         21   -1    0    0  501  503 -0.00000000000E+00 -0.00000000000E+00 -0.27687420730E+03  0.27687420730E+03  0.00000000000E+00 0.  1.
    9000007    1    1    2  501    0 -0.22250281264E+03 -0.38067744855E+02  0.81920312787E+02  0.46654859605E+03  0.40000000000E+03 0.  1.
   -9000007    1    1    2    0  502  0.22250281264E+03  0.38067744855E+02  0.53912870857E+03  0.70824883991E+03  0.40000000000E+03 0.  1.
<mgrwt>
<rscale>  2 0.45930018E+03</rscale>
<asrwt>0</asrwt>
<pdfrwt beam="1">  1       21 0.13814203E+00 0.45930018E+03</pdfrwt>
<pdfrwt beam="2">  1       21 0.42596032E-01 0.45930018E+03</pdfrwt>
<totfact> 0.16732371E+03</totfact>
</mgrwt>
</event>
<event>
 4    1  0.4863180E-002  0.4568430E+03  0.7818608E-02  0.1025701E+00
         21   -1    0    0  503  502  0.00000000000E+00  0.00000000000E+00  0.13314064858E+04  0.13314064858E+04  0.00000000000E+00 0. -1.
         21   -1    0    0  501  503 -0.00000000000E+00 -0.00000000000E+00 -0.17230834230E+03  0.17230834230E+03  0.00000000000E+00 0. -1.
    9000007    1    1    2  501    0  0.14297616909E+03  0.16811708187E+03  0.35366551890E+03  0.57774115086E+03  0.40000000000E+03 0. -1.
   -9000007    1    1    2    0  502 -0.14297616909E+03 -0.16811708187E+03  0.80543262458E+03  0.92597367721E+03  0.40000000000E+03 0. -1.
<mgrwt>
<rscale>  2 0.45684301E+03</rscale>
<asrwt>0</asrwt>
<pdfrwt beam="1">  1       21 0.20483176E+00 0.45684301E+03</pdfrwt>
<pdfrwt beam="2">  1       21 0.26508977E-01 0.45684301E+03</pdfrwt>
<totfact> 0.14162467E+03</totfact>
</mgrwt>
</event>
<event>
 4    1  0.4863180E-002  0.4158881E+03  0.7818608E-02  0.1038413E+00
         21   -1    0    0  503  502  0.00000000000E+00  0.00000000000E+00  0.54500223163E+03  0.54500223163E+03  0.00000000000E+00 0. -1.
         21   -1    0    0  501  503 -0.00000000000E+00 -0.00000000000E+00 -0.35916484352E+03  0.35916484352E+03  0.00000000000E+00 0. -1.
    9000007    1    1    2  501    0 -0.18920153701E+02  0.11227170846E+03 -0.61313681592E+02  0.42038348717E+03  0.40000000000E+03 0. -1.
   -9000007    1    1    2    0  502  0.18920153701E+02 -0.11227170846E+03  0.24715106970E+03  0.48378358797E+03  0.40000000000E+03 0. -1.
<mgrwt>
<rscale>  2 0.41588810E+03</rscale>
<asrwt>0</asrwt>
<pdfrwt beam="1">  1       21 0.83846497E-01 0.41588810E+03</pdfrwt>
<pdfrwt beam="2">  1       21 0.55256130E-01 0.41588810E+03</pdfrwt>
<totfact> 0.33726568E+03</totfact>
</mgrwt>
</event>
<event>
 4    1  0.4863180E-002  0.4765956E+03  0.7818608E-02  0.1020075E+00
         21   -1    0    0  501  502  0.00000000000E+00  0.00000000000E+00  0.48104748526E+03  0.48104748526E+03  0.00000000000E+00 0. -1.
         21   -1    0    0  502  503 -0.00000000000E+00 -0.00000000000E+00 -0.48056276612E+03  0.48056276612E+03  0.00000000000E+00 0. -1.
    9000007    1    1    2  501    0 -0.24013744232E+03 -0.97351793417E+02  0.63725808486E+02  0.48083712581E+03  0.40000000000E+03 0.  1.
   -9000007    1    1    2    0  503  0.24013744232E+03  0.97351793417E+02 -0.63241089346E+02  0.48077312557E+03  0.40000000000E+03 0.  1.
<mgrwt>
<rscale>  2 0.47659560E+03</rscale>
<asrwt>0</asrwt>
<pdfrwt beam="1">  1       21 0.74007306E-01 0.47659560E+03</pdfrwt>
<pdfrwt beam="2">  1       21 0.73932733E-01 0.47659560E+03</pdfrwt>
<totfact> 0.23071076E+03</totfact>
</mgrwt>
</event>
<event>
 4    1  0.4863180E-002  0.4175989E+03  0.7818608E-02  0.1037851E+00
         21   -1    0    0  503  502  0.00000000000E+00  0.00000000000E+00  0.57806473549E+03  0.57806473549E+03  0.00000000000E+00 0. -1.
         21   -1    0    0  501  503 -0.00000000000E+00 -0.00000000000E+00 -0.13814882234E+04  0.13814882234E+04  0.00000000000E+00 0. -1.
    9000007    1    1    2  501    0  0.11532545602E+03  0.32997937530E+02 -0.12679300115E+04  0.13349289639E+04  0.40000000000E+03 0. -1.
   -9000007    1    1    2    0  502 -0.11532545602E+03 -0.32997937530E+02  0.46450652356E+03  0.62462399499E+03  0.40000000000E+03 0. -1.
<mgrwt>
<rscale>  2 0.41759888E+03</rscale>
<asrwt>0</asrwt>
<pdfrwt beam="1">  1       21 0.88933036E-01 0.41759888E+03</pdfrwt>
<pdfrwt beam="2">  1       21 0.21253665E+00 0.41759888E+03</pdfrwt>
<totfact> 0.97698734E+01</totfact>
</mgrwt>
</event>
<event>
 4    1  0.4863180E-002  0.4928017E+03  0.7818608E-02  0.1015675E+00
         21   -1    0    0  501  502  0.00000000000E+00  0.00000000000E+00  0.26286707453E+03  0.26286707453E+03  0.00000000000E+00 0. -1.
         21   -1    0    0  502  503 -0.00000000000E+00 -0.00000000000E+00 -0.94550885226E+03  0.94550885226E+03  0.00000000000E+00 0. -1.
    9000007    1    1    2  501    0  0.28193882188E+03 -0.58000417060E+02 -0.24990704416E+03  0.55254599662E+03  0.40000000000E+03 0. -1.
   -9000007    1    1    2    0  503 -0.28193882188E+03  0.58000417060E+02 -0.43273473357E+03  0.65582993017E+03  0.40000000000E+03 0. -1.
<mgrwt>
<rscale>  2 0.49280173E+03</rscale>
<asrwt>0</asrwt>
<pdfrwt beam="1">  1       21 0.40441089E-01 0.49280173E+03</pdfrwt>
<pdfrwt beam="2">  1       21 0.14546290E+00 0.49280173E+03</pdfrwt>
<totfact> 0.16022460E+03</totfact>
</mgrwt>
</event>
<event>
 4    1  0.4863180E-002  0.4238339E+03  0.7818608E-02  0.1035826E+00
         21   -1    0    0  501  502  0.00000000000E+00  0.00000000000E+00  0.38273632867E+03  0.38273632867E+03  0.00000000000E+00 0. -1.
         21   -1    0    0  502  503 -0.00000000000E+00 -0.00000000000E+00 -0.58020386412E+03  0.58020386412E+03  0.00000000000E+00 0. -1.
    9000007    1    1    2  501    0 -0.97657921527E+02  0.10048944143E+03 -0.30919163632E+03  0.52462812110E+03  0.40000000000E+03 0. -1.
   -9000007    1    1    2    0  503  0.97657921527E+02 -0.10048944143E+03  0.11172410086E+03  0.43831207169E+03  0.40000000000E+03 0. -1.
<mgrwt>
<rscale>  2 0.42383393E+03</rscale>
<asrwt>0</asrwt>
<pdfrwt beam="1">  1       21 0.58882512E-01 0.42383393E+03</pdfrwt>
<pdfrwt beam="2">  1       21 0.89262133E-01 0.42383393E+03</pdfrwt>
<totfact> 0.25295812E+03</totfact>
</mgrwt>
</event>
<event>
 4    1  0.4863180E-002  0.4187674E+03  0.7818608E-02  0.1037468E+00
         21   -1    0    0  501  502  0.00000000000E+00  0.00000000000E+00  0.11275922633E+04  0.11275922633E+04  0.00000000000E+00 0. -1.
         21   -1    0    0  502  503 -0.00000000000E+00 -0.00000000000E+00 -0.15578726306E+03  0.15578726306E+03  0.00000000000E+00 0. -1.
    9000007    1    1    2  501    0  0.11059864394E+03  0.55982900132E+02  0.51234842585E+03  0.66171523680E+03  0.40000000000E+03 0.  1.
   -9000007    1    1    2    0  503 -0.11059864394E+03 -0.55982900132E+02  0.45945657436E+03  0.62166428953E+03  0.40000000000E+03 0.  1.
<mgrwt>
<rscale>  2 0.41876741E+03</rscale>
<asrwt>0</asrwt>
<pdfrwt beam="1">  1       21 0.17347573E+00 0.41876741E+03</pdfrwt>
<pdfrwt beam="2">  1       21 0.23967272E-01 0.41876741E+03</pdfrwt>
<totfact> 0.28756512E+03</totfact>
</mgrwt>
</event>
<event>
 4    1  0.4863180E-002  0.4428944E+03  0.7818608E-02  0.1029862E+00
         21   -1    0    0  503  502  0.00000000000E+00  0.00000000000E+00  0.13004704408E+03  0.13004704408E+03  0.00000000000E+00 0. -1.
         21   -1    0    0  501  503 -0.00000000000E+00 -0.00000000000E+00 -0.15522391467E+04  0.15522391467E+04  0.00000000000E+00 0.  1.
    9000007    1    1    2  501    0  0.27643977245E+02 -0.18812568936E+03 -0.85254735942E+03  0.96072496820E+03  0.40000000000E+03 0. -1.
   -9000007    1    1    2    0  502 -0.27643977245E+02  0.18812568936E+03 -0.56964474322E+03  0.72156122259E+03  0.40000000000E+03 0. -1.
<mgrwt>
<rscale>  2 0.44289442E+03</rscale>
<asrwt>0</asrwt>
<pdfrwt beam="1">  1       21 0.20007238E-01 0.44289442E+03</pdfrwt>
<pdfrwt beam="2">  1       21 0.23880602E+00 0.44289442E+03</pdfrwt>
<totfact> 0.14888386E+03</totfact>
</mgrwt>
</event>
<event>
 4    1  0.4863180E-002  0.4202944E+03  0.7818608E-02  0.1036971E+00
         21   -1    0    0  503  502  0.00000000000E+00  0.00000000000E+00  0.18543495870E+03  0.18543495870E+03  0.00000000000E+00 0. -1.
         21   -1    0    0  501  503 -0.00000000000E+00 -0.00000000000E+00 -0.10220469470E+04  0.10220469470E+04  0.00000000000E+00 0. -1.
    9000007    1    1    2  501    0 -0.11044023079E+03 -0.66710956507E+02 -0.57567063109E+03  0.71277210368E+03  0.40000000000E+03 0. -1.
   -9000007    1    1    2    0  502  0.11044023079E+03  0.66710956507E+02 -0.26094135721E+03  0.49470980201E+03  0.40000000000E+03 0. -1.
<mgrwt>
<rscale>  2 0.42029442E+03</rscale>
<asrwt>0</asrwt>
<pdfrwt beam="1">  1       21 0.28528455E-01 0.42029442E+03</pdfrwt>
<pdfrwt beam="2">  1       21 0.15723799E+00 0.42029442E+03</pdfrwt>
<totfact> 0.26957543E+03</totfact>
</mgrwt>
</event>
<event>
 4    1  0.4863180E-002  0.5092353E+03  0.7818608E-02  0.1011396E+00
         21   -1    0    0  501  502  0.00000000000E+00  0.00000000000E+00  0.12256102088E+04  0.12256102088E+04  0.00000000000E+00 0. -1.
         21   -1    0    0  502  503 -0.00000000000E+00 -0.00000000000E+00 -0.21575700725E+03  0.21575700725E+03  0.00000000000E+00 0.  1.
    9000007    1    1    2  501    0 -0.20489345139E+03  0.23945615021E+03  0.60514364383E+03  0.79089784673E+03  0.40000000000E+03 0. -1.
   -9000007    1    1    2    0  503  0.20489345139E+03 -0.23945615021E+03  0.40470955768E+03  0.65046936928E+03  0.40000000000E+03 0.  1.
<mgrwt>
<rscale>  2 0.50923528E+03</rscale>
<asrwt>0</asrwt>
<pdfrwt beam="1">  1       21 0.18855541E+00 0.50923528E+03</pdfrwt>
<pdfrwt beam="2">  1       21 0.33193387E-01 0.50923528E+03</pdfrwt>
<totfact> 0.11413643E+03</totfact>
</mgrwt>
</event>
<event>
 4    1  0.4863180E-002  0.5783829E+03  0.7818608E-02  0.9951298E-01
         21   -1    0    0  503  502  0.00000000000E+00  0.00000000000E+00  0.92556513598E+03  0.92556513598E+03  0.00000000000E+00 0. -1.
         21   -1    0    0  501  503 -0.00000000000E+00 -0.00000000000E+00 -0.11657457695E+04  0.11657457695E+04  0.00000000000E+00 0.  1.
    9000007    1    1    2  501    0  0.34824699205E+03  0.23076131034E+03 -0.98865076569E+03  0.11454069523E+04  0.40000000000E+03 0.  1.
   -9000007    1    1    2    0  502 -0.34824699205E+03 -0.23076131034E+03  0.74847013221E+03  0.94590395317E+03  0.40000000000E+03 0. -1.
<mgrwt>
<rscale>  2 0.57838287E+03</rscale>
<asrwt>0</asrwt>
<pdfrwt beam="1">  1       21 0.14239464E+00 0.57838287E+03</pdfrwt>
<pdfrwt beam="2">  1       21 0.17934550E+00 0.57838287E+03</pdfrwt>
<totfact> 0.46102537E+01</totfact>
</mgrwt>
</event>
<event>
 4    1  0.4863180E-002  0.4385471E+03  0.7818608E-02  0.1031194E+00
         21   -1    0    0  503  502  0.00000000000E+00  0.00000000000E+00  0.16452568435E+04  0.16452568435E+04  0.00000000000E+00 0. -1.
         21   -1    0    0  501  503 -0.00000000000E+00 -0.00000000000E+00 -0.14189168813E+03  0.14189168813E+03  0.00000000000E+00 0. -1.
    9000007    1    1    2  501    0 -0.17637501678E+03  0.34863055895E+02  0.37663475387E+03  0.57808071844E+03  0.40000000000E+03 0. -1.
   -9000007    1    1    2    0  502  0.17637501678E+03 -0.34863055895E+02  0.11267304015E+04  0.12090678132E+04  0.40000000000E+03 0. -1.
<mgrwt>
<rscale>  2 0.43854712E+03</rscale>
<asrwt>0</asrwt>
<pdfrwt beam="1">  1       21 0.25311642E+00 0.43854712E+03</pdfrwt>
<pdfrwt beam="2">  1       21 0.21829492E-01 0.43854712E+03</pdfrwt>
<totfact> 0.10310256E+03</totfact>
</mgrwt>
</event>
<event>
 4    1  0.4863180E-002  0.4007467E+03  0.7818608E-02  0.1043521E+00
         21   -1    0    0  501  502  0.00000000000E+00  0.00000000000E+00  0.25489999586E+03  0.25489999586E+03  0.00000000000E+00 0.  1.
         21   -1    0    0  502  503 -0.00000000000E+00 -0.00000000000E+00 -0.64519152428E+03  0.64519152428E+03  0.00000000000E+00 0.  1.
    9000007    1    1    2  501    0  0.12244744353E+02  0.21166468062E+02 -0.12618567885E+03  0.42014375954E+03  0.40000000000E+03 0.  1.
   -9000007    1    1    2    0  503 -0.12244744353E+02 -0.21166468062E+02 -0.26410584956E+03  0.47994776060E+03  0.40000000000E+03 0.  1.
<mgrwt>
<rscale>  2 0.40074674E+03</rscale>
<asrwt>0</asrwt>
<pdfrwt beam="1">  1       21 0.39215384E-01 0.40074674E+03</pdfrwt>
<pdfrwt beam="2">  1       21 0.99260234E-01 0.40074674E+03</pdfrwt>
<totfact> 0.46743603E+03</totfact>
</mgrwt>
</event>
<event>
 4    1  0.4863180E-002  0.4430915E+03  0.7818608E-02  0.1029802E+00
         21   -1    0    0  503  502  0.00000000000E+00  0.00000000000E+00  0.80068243788E+02  0.80068243788E+02  0.00000000000E+00 0.  1.
         21   -1    0    0  501  503 -0.00000000000E+00 -0.00000000000E+00 -0.26079212867E+04  0.26079212867E+04  0.00000000000E+00 0. -1.
    9000007    1    1    2  501    0  0.13540354851E+03 -0.13414893454E+03 -0.15925175188E+04  0.16530100136E+04  0.40000000000E+03 0. -1.
   -9000007    1    1    2    0  502 -0.13540354851E+03  0.13414893454E+03 -0.93533552416E+03  0.10349795169E+04  0.40000000000E+03 0.  1.
<mgrwt>
<rscale>  2 0.44309148E+03</rscale>
<asrwt>0</asrwt>
<pdfrwt beam="1">  1       21 0.12318192E-01 0.44309148E+03</pdfrwt>
<pdfrwt beam="2">  1       21 0.40121863E+00 0.44309148E+03</pdfrwt>
<totfact> 0.37152272E+02</totfact>
</mgrwt>
</event>
<event>
 4    1  0.4863180E-002  0.4463978E+03  0.7818608E-02  0.1028802E+00
         21   -1    0    0  503  502  0.00000000000E+00  0.00000000000E+00  0.49756725756E+03  0.49756725756E+03  0.00000000000E+00 0. -1.
         21   -1    0    0  501  503 -0.00000000000E+00 -0.00000000000E+00 -0.41829449657E+03  0.41829449657E+03  0.00000000000E+00 0. -1.
    9000007    1    1    2  501    0  0.14985043378E+03 -0.12967583052E+03 -0.54838699044E+02  0.44975355078E+03  0.40000000000E+03 0. -1.
   -9000007    1    1    2    0  502 -0.14985043378E+03  0.12967583052E+03  0.13411146004E+03  0.46610820336E+03  0.40000000000E+03 0. -1.
<mgrwt>
<rscale>  2 0.44639777E+03</rscale>
<asrwt>0</asrwt>
<pdfrwt beam="1">  1       21 0.76548809E-01 0.44639777E+03</pdfrwt>
<pdfrwt beam="2">  1       21 0.64352999E-01 0.44639777E+03</pdfrwt>
<totfact> 0.29488212E+03</totfact>
</mgrwt>
</event>
<event>
 4    1  0.4863180E-002  0.4148392E+03  0.7818608E-02  0.1038759E+00
         21   -1    0    0  501  502  0.00000000000E+00  0.00000000000E+00  0.55341997274E+03  0.55341997274E+03  0.00000000000E+00 0. -1.
         21   -1    0    0  502  503 -0.00000000000E+00 -0.00000000000E+00 -0.35856215789E+03  0.35856215789E+03  0.00000000000E+00 0.  1.
    9000007    1    1    2  501    0 -0.79666411667E+02  0.75794876346E+02 -0.68715753922E+02  0.42049192057E+03  0.40000000000E+03 0. -1.
   -9000007    1    1    2    0  503  0.79666411667E+02 -0.75794876346E+02  0.26357356878E+03  0.49149021006E+03  0.40000000000E+03 0. -1.
<mgrwt>
<rscale>  2 0.41483925E+03</rscale>
<asrwt>0</asrwt>
<pdfrwt beam="1">  1       21 0.85141534E-01 0.41483925E+03</pdfrwt>
<pdfrwt beam="2">  1       21 0.55163409E-01 0.41483925E+03</pdfrwt>
<totfact> 0.32673119E+03</totfact>
</mgrwt>
</event>
<event>
 4    1  0.4863180E-002  0.4955624E+03  0.7818608E-02  0.1014944E+00
         21   -1    0    0  503  502  0.00000000000E+00  0.00000000000E+00  0.91837853621E+03  0.91837853621E+03  0.00000000000E+00 0. -1.
         21   -1    0    0  501  503 -0.00000000000E+00 -0.00000000000E+00 -0.26741029575E+03  0.26741029575E+03  0.00000000000E+00 0. -1.
    9000007    1    1    2  501    0 -0.55733010537E+02 -0.28718618567E+03  0.32387796555E+03  0.59201267746E+03  0.40000000000E+03 0. -1.
   -9000007    1    1    2    0  502  0.55733010537E+02  0.28718618567E+03  0.32709027491E+03  0.59377615450E+03  0.40000000000E+03 0. -1.
<mgrwt>
<rscale>  2 0.49556238E+03</rscale>
<asrwt>0</asrwt>
<pdfrwt beam="1">  1       21 0.14128900E+00 0.49556238E+03</pdfrwt>
<pdfrwt beam="2">  1       21 0.41140046E-01 0.49556238E+03</pdfrwt>
<totfact> 0.16706226E+03</totfact>
</mgrwt>
</event>
<event>
 4    1  0.4863180E-002  0.7584086E+03  0.7818608E-02  0.9622250E-01
         21   -1    0    0  501  502  0.00000000000E+00  0.00000000000E+00  0.15720831968E+04  0.15720831968E+04  0.00000000000E+00 0. -1.
         21   -1    0    0  502  503 -0.00000000000E+00 -0.00000000000E+00 -0.52815250435E+03  0.52815250435E+03  0.00000000000E+00 0. -1.
    9000007    1    1    2  501    0 -0.31454000784E+03  0.56235948347E+03  0.11040545124E+04  0.13394476367E+04  0.40000000000E+03 0. -1.
   -9000007    1    1    2    0  503  0.31454000784E+03 -0.56235948347E+03 -0.60123819987E+02  0.76078806438E+03  0.40000000000E+03 0. -1.
<mgrwt>
<rscale>  2 0.75840860E+03</rscale>
<asrwt>0</asrwt>
<pdfrwt beam="1">  1       21 0.24185895E+00 0.75840860E+03</pdfrwt>
<pdfrwt beam="2">  1       21 0.81254232E-01 0.75840860E+03</pdfrwt>
<totfact> 0.67028531E+01</totfact>
</mgrwt>
</event>
<event>
 4    1  0.4863180E-002  0.4166028E+03  0.7818608E-02  0.1038178E+00
         21   -1    0    0  501  502  0.00000000000E+00  0.00000000000E+00  0.61764615639E+03  0.61764615639E+03  0.00000000000E+00 0.  1.
         21   -1    0    0  502  503 -0.00000000000E+00 -0.00000000000E+00 -0.28422245917E+03  0.28422245917E+03  0.00000000000E+00 0.  1.
    9000007    1    1    2  501    0 -0.11595428020E+03 -0.10605170113E+02  0.21473544935E+03  0.46868878580E+03  0.40000000000E+03 0.  1.
   -9000007    1    1    2    0  503  0.11595428020E+03  0.10605170113E+02  0.11868824787E+03  0.43317982976E+03  0.40000000000E+03 0.  1.
<mgrwt>
<rscale>  2 0.41660277E+03</rscale>
<asrwt>0</asrwt>
<pdfrwt beam="1">  1       21 0.95022485E-01 0.41660277E+03</pdfrwt>
<pdfrwt beam="2">  1       21 0.43726532E-01 0.41660277E+03</pdfrwt>
<totfact> 0.41205084E+03</totfact>
</mgrwt>
</event>
<event>
 4    1  0.4863180E-002  0.4436627E+03  0.7818608E-02  0.1029629E+00
         21   -1    0    0  503  502  0.00000000000E+00  0.00000000000E+00  0.17972029989E+04  0.17972029989E+04  0.00000000000E+00 0.  1.
         21   -1    0    0  501  503 -0.00000000000E+00 -0.00000000000E+00 -0.12838242266E+03  0.12838242266E+03  0.00000000000E+00 0.  1.
    9000007    1    1    2  501    0  0.83234776225E+02  0.17294090100E+03  0.46540339917E+03  0.64299059649E+03  0.40000000000E+03 0.  1.
   -9000007    1    1    2    0  502 -0.83234776225E+02 -0.17294090100E+03  0.12034171771E+04  0.12825948250E+04  0.40000000000E+03 0.  1.
<mgrwt>
<rscale>  2 0.44366269E+03</rscale>
<asrwt>0</asrwt>
<pdfrwt beam="1">  1       21 0.27649275E+00 0.44366269E+03</pdfrwt>
<pdfrwt beam="2">  1       21 0.19751143E-01 0.44366269E+03</pdfrwt>
<totfact> 0.89791526E+02</totfact>
</mgrwt>
</event>
<event>
 4    1  0.4863180E-002  0.4161958E+03  0.7818608E-02  0.1038312E+00
         21   -1    0    0  501  502  0.00000000000E+00  0.00000000000E+00  0.17199887823E+03  0.17199887823E+03  0.00000000000E+00 0.  1.
         21   -1    0    0  502  503 -0.00000000000E+00 -0.00000000000E+00 -0.13059172577E+04  0.13059172577E+04  0.00000000000E+00 0.  1.
    9000007    1    1    2  501    0 -0.56297830682E+02  0.10024711091E+03 -0.21347530084E+03  0.46775060989E+03  0.40000000000E+03 0.  1.
   -9000007    1    1    2    0  503  0.56297830682E+02 -0.10024711091E+03 -0.92044307867E+03  0.10101655261E+04  0.40000000000E+03 0.  1.
<mgrwt>
<rscale>  2 0.41619578E+03</rscale>
<asrwt>0</asrwt>
<pdfrwt beam="1">  1       21 0.26461365E-01 0.41619578E+03</pdfrwt>
<pdfrwt beam="2">  1       21 0.20091035E+00 0.41619578E+03</pdfrwt>
<totfact> 0.15369211E+03</totfact>
</mgrwt>
</event>
<event>
 4    1  0.4863180E-002  0.4435370E+03  0.7818608E-02  0.1029667E+00
         21   -1    0    0  501  502  0.00000000000E+00  0.00000000000E+00  0.21644745191E+04  0.21644745191E+04  0.00000000000E+00 0.  1.
         21   -1    0    0  502  503 -0.00000000000E+00 -0.00000000000E+00 -0.11054976254E+03  0.11054976254E+03  0.00000000000E+00 0.  1.
    9000007    1    1    2  501    0 -0.12029337576E+03 -0.14917968929E+03  0.15066811856E+04  0.15706092038E+04  0.40000000000E+03 0.  1.
   -9000007    1    1    2    0  503  0.12029337576E+03  0.14917968929E+03  0.54724357094E+03  0.70441507784E+03  0.40000000000E+03 0.  1.
<mgrwt>
<rscale>  2 0.44353701E+03</rscale>
<asrwt>0</asrwt>
<pdfrwt beam="1">  1       21 0.33299605E+00 0.44353701E+03</pdfrwt>
<pdfrwt beam="2">  1       21 0.17007657E-01 0.44353701E+03</pdfrwt>
<totfact> 0.54383391E+02</totfact>
</mgrwt>
</event>
<event>
 4    1  0.4863180E-002  0.4219046E+03  0.7818608E-02  0.1036448E+00
         21   -1    0    0  501  502  0.00000000000E+00  0.00000000000E+00  0.26104451059E+03  0.26104451059E+03  0.00000000000E+00 0.  1.
         21   -1    0    0  502  503 -0.00000000000E+00 -0.00000000000E+00 -0.86884889840E+03  0.86884889840E+03  0.00000000000E+00 0.  1.
    9000007    1    1    2  501    0  0.88377273317E+02 -0.10096000026E+03 -0.41837080330E+02  0.42397382629E+03  0.40000000000E+03 0.  1.
   -9000007    1    1    2    0  503 -0.88377273317E+02  0.10096000026E+03 -0.56596730748E+03  0.70591958269E+03  0.40000000000E+03 0.  1.
<mgrwt>
<rscale>  2 0.42190457E+03</rscale>
<asrwt>0</asrwt>
<pdfrwt beam="1">  1       21 0.40160694E-01 0.42190457E+03</pdfrwt>
<pdfrwt beam="2">  1       21 0.13366906E+00 0.42190457E+03</pdfrwt>
<totfact> 0.20917769E+03</totfact>
</mgrwt>
</event>
<event>
 4    1  0.4863180E-002  0.4277444E+03  0.7818608E-02  0.1034575E+00
         21   -1    0    0  501  502  0.00000000000E+00  0.00000000000E+00  0.41035203321E+03  0.41035203321E+03  0.00000000000E+00 0. -1.
         21   -1    0    0  502  503 -0.00000000000E+00 -0.00000000000E+00 -0.50630205594E+03  0.50630205594E+03  0.00000000000E+00 0.  1.
    9000007    1    1    2  501    0 -0.14318555133E+03  0.49630287435E+02  0.11036484844E+03  0.44175294828E+03  0.40000000000E+03 0. -1.
   -9000007    1    1    2    0  503  0.14318555133E+03 -0.49630287435E+02 -0.20631487116E+03  0.47490114087E+03  0.40000000000E+03 0.  1.
<mgrwt>
<rscale>  2 0.42774440E+03</rscale>
<asrwt>0</asrwt>
<pdfrwt beam="1">  1       21 0.63131082E-01 0.42774440E+03</pdfrwt>
<pdfrwt beam="2">  1       21 0.77892624E-01 0.42774440E+03</pdfrwt>
<totfact> 0.29764688E+03</totfact>
</mgrwt>
</event>
<event>
 4    1  0.4863180E-002  0.4259002E+03  0.7818608E-02  0.1035163E+00
         21   -1    0    0  501  502  0.00000000000E+00  0.00000000000E+00  0.52393168878E+03  0.52393168878E+03  0.00000000000E+00 0.  1.
         21   -1    0    0  502  503 -0.00000000000E+00 -0.00000000000E+00 -0.55355698671E+03  0.55355698671E+03  0.00000000000E+00 0.  1.
    9000007    1    1    2  501    0 -0.11710149995E+03 -0.87625350440E+02  0.31491037069E+03  0.52967868080E+03  0.40000000000E+03 0.  1.
   -9000007    1    1    2    0  503  0.11710149995E+03  0.87625350440E+02 -0.34453566862E+03  0.54780999469E+03  0.40000000000E+03 0.  1.
<mgrwt>
<rscale>  2 0.42590018E+03</rscale>
<asrwt>0</asrwt>
<pdfrwt beam="1">  1       21 0.80604875E-01 0.42590018E+03</pdfrwt>
<pdfrwt beam="2">  1       21 0.85162613E-01 0.42590018E+03</pdfrwt>
<totfact> 0.13953042E+03</totfact>
</mgrwt>
</event>
<event>
 4    1  0.4863180E-002  0.4496451E+03  0.7818608E-02  0.1027828E+00
         21   -1    0    0  503  502  0.00000000000E+00  0.00000000000E+00  0.85063481650E+03  0.85063481650E+03  0.00000000000E+00 0. -1.
         21   -1    0    0  501  503 -0.00000000000E+00 -0.00000000000E+00 -0.24106830332E+03  0.24106830332E+03  0.00000000000E+00 0. -1.
    9000007    1    1    2  501    0 -0.12252238763E+03 -0.16483007244E+03  0.36947660101E+03  0.58197392291E+03  0.40000000000E+03 0. -1.
   -9000007    1    1    2    0  502  0.12252238763E+03  0.16483007244E+03  0.24008991218E+03  0.50972919691E+03  0.40000000000E+03 0. -1.
<mgrwt>
<rscale>  2 0.44964507E+03</rscale>
<asrwt>0</asrwt>
<pdfrwt beam="1">  1       21 0.13086689E+00 0.44964507E+03</pdfrwt>
<pdfrwt beam="2">  1       21 0.37087432E-01 0.44964507E+03</pdfrwt>
<totfact> 0.25735821E+03</totfact>
</mgrwt>
</event>
<event>
 4    1  0.4863180E-002  0.4219311E+03  0.7818608E-02  0.1036440E+00
         21   -1    0    0  501  502  0.00000000000E+00  0.00000000000E+00  0.12604683259E+04  0.12604683259E+04  0.00000000000E+00 0. -1.
         21   -1    0    0  502  503 -0.00000000000E+00 -0.00000000000E+00 -0.46996511153E+03  0.46996511153E+03  0.00000000000E+00 0. -1.
    9000007    1    1    2  501    0 -0.81430498212E+02 -0.10674702495E+03  0.11188705803E+04  0.11957831027E+04  0.40000000000E+03 0. -1.
   -9000007    1    1    2    0  503  0.81430498212E+02  0.10674702495E+03 -0.32836736592E+03  0.53465033468E+03  0.40000000000E+03 0. -1.
<mgrwt>
<rscale>  2 0.42193110E+03</rscale>
<asrwt>0</asrwt>
<pdfrwt beam="1">  1       21 0.19391820E+00 0.42193110E+03</pdfrwt>
<pdfrwt beam="2">  1       21 0.72302325E-01 0.42193110E+03</pdfrwt>
<totfact> 0.20857679E+02</totfact>
</mgrwt>
</event>
<event>
 4    1  0.4863180E-002  0.4189685E+03  0.7818608E-02  0.1037403E+00
         21   -1    0    0  503  502  0.00000000000E+00  0.00000000000E+00  0.41466513292E+03  0.41466513292E+03  0.00000000000E+00 0.  1.
         21   -1    0    0  501  503 -0.00000000000E+00 -0.00000000000E+00 -0.48579725765E+03  0.48579725765E+03  0.00000000000E+00 0.  1.
    9000007    1    1    2  501    0  0.15433757619E+02  0.12367862583E+03 -0.19703207029E+03  0.46298622019E+03  0.40000000000E+03 0.  1.
   -9000007    1    1    2    0  502 -0.15433757619E+02 -0.12367862583E+03  0.12589994556E+03  0.43747617038E+03  0.40000000000E+03 0.  1.
<mgrwt>
<rscale>  2 0.41896850E+03</rscale>
<asrwt>0</asrwt>
<pdfrwt beam="1">  1       21 0.63794636E-01 0.41896850E+03</pdfrwt>
<pdfrwt beam="2">  1       21 0.74738040E-01 0.41896850E+03</pdfrwt>
<totfact> 0.32071819E+03</totfact>
</mgrwt>
</event>
<event>
 4    1  0.4863180E-002  0.6430822E+03  0.7818608E-02  0.9819847E-01
         21   -1    0    0  503  502  0.00000000000E+00  0.00000000000E+00  0.78476488898E+03  0.78476488898E+03  0.00000000000E+00 0.  1.
         21   -1    0    0  501  503 -0.00000000000E+00 -0.00000000000E+00 -0.53031800031E+03  0.53031800031E+03  0.00000000000E+00 0.  1.
    9000007    1    1    2  501    0  0.43123957850E+03  0.25997531168E+03  0.75049555827E+02  0.64744665617E+03  0.40000000000E+03 0.  1.
   -9000007    1    1    2    0  502 -0.43123957850E+03 -0.25997531168E+03  0.17939733284E+03  0.66763623312E+03  0.40000000000E+03 0.  1.
<mgrwt>
<rscale>  2 0.64308222E+03</rscale>
<asrwt>0</asrwt>
<pdfrwt beam="1">  1       21 0.12073306E+00 0.64308222E+03</pdfrwt>
<pdfrwt beam="2">  1       21 0.81587385E-01 0.64308222E+03</pdfrwt>
<totfact> 0.53468975E+02</totfact>
</mgrwt>
</event>
<event>
 4    1  0.4863180E-002  0.5051757E+03  0.7818608E-02  0.1012437E+00
         21   -1    0    0  503  502  0.00000000000E+00  0.00000000000E+00  0.67444317496E+03  0.67444317496E+03  0.00000000000E+00 0. -1.
         21   -1    0    0  501  503 -0.00000000000E+00 -0.00000000000E+00 -0.45892813728E+03  0.45892813728E+03  0.00000000000E+00 0. -1.
    9000007    1    1    2  501    0 -0.39587282502E+02 -0.30599895524E+03 -0.12963707538E+03  0.52154413510E+03  0.40000000000E+03 0. -1.
   -9000007    1    1    2    0  502  0.39587282502E+02  0.30599895524E+03  0.34515211306E+03  0.61182717714E+03  0.40000000000E+03 0. -1.
<mgrwt>
<rscale>  2 0.50517573E+03</rscale>
<asrwt>0</asrwt>
<pdfrwt beam="1">  1       21 0.10376049E+00 0.50517573E+03</pdfrwt>
<pdfrwt beam="2">  1       21 0.70604329E-01 0.50517573E+03</pdfrwt>
<totfact> 0.11410162E+03</totfact>
</mgrwt>
</event>
<event>
 4    1  0.4863180E-002  0.4418722E+03  0.7818608E-02  0.1030174E+00
         21   -1    0    0  503  502  0.00000000000E+00  0.00000000000E+00  0.26720762395E+03  0.26720762395E+03  0.00000000000E+00 0. -1.
         21   -1    0    0  501  503 -0.00000000000E+00 -0.00000000000E+00 -0.75683013977E+03  0.75683013977E+03  0.00000000000E+00 0. -1.
    9000007    1    1    2  501    0 -0.18570096138E+03 -0.27680722945E+02 -0.33993329786E+03  0.55749952150E+03  0.40000000000E+03 0. -1.
   -9000007    1    1    2    0  502  0.18570096138E+03  0.27680722945E+02 -0.14968921796E+03  0.46653824222E+03  0.40000000000E+03 0. -1.
<mgrwt>
<rscale>  2 0.44187223E+03</rscale>
<asrwt>0</asrwt>
<pdfrwt beam="1">  1       21 0.41108865E-01 0.44187223E+03</pdfrwt>
<pdfrwt beam="2">  1       21 0.11643541E+00 0.44187223E+03</pdfrwt>
<totfact> 0.28180026E+03</totfact>
</mgrwt>
</event>
<event>
 4    1  0.4863180E-002  0.4512993E+03  0.7818608E-02  0.1027335E+00
         21   -1    0    0  501  502  0.00000000000E+00  0.00000000000E+00  0.46507549766E+03  0.46507549766E+03  0.00000000000E+00 0. -1.
         21   -1    0    0  502  503 -0.00000000000E+00 -0.00000000000E+00 -0.13560900646E+04  0.13560900646E+04  0.00000000000E+00 0. -1.
    9000007    1    1    2  501    0 -0.10376238360E+03 -0.18139565436E+03  0.30375541212E+03  0.54400217469E+03  0.40000000000E+03 0. -1.
   -9000007    1    1    2    0  503  0.10376238360E+03  0.18139565436E+03 -0.11947699791E+04  0.12771633876E+04  0.40000000000E+03 0. -1.
<mgrwt>
<rscale>  2 0.45129925E+03</rscale>
<asrwt>0</asrwt>
<pdfrwt beam="1">  1       21 0.71550078E-01 0.45129925E+03</pdfrwt>
<pdfrwt beam="2">  1       21 0.20862924E+00 0.45129925E+03</pdfrwt>
<totfact> 0.16776649E+02</totfact>
</mgrwt>
</event>
<event>
 4    1  0.4863180E-002  0.5068445E+03  0.7818608E-02  0.1012008E+00
         21   -1    0    0  503  502  0.00000000000E+00  0.00000000000E+00  0.26873472469E+03  0.26873472469E+03  0.00000000000E+00 0. -1.
         21   -1    0    0  501  503 -0.00000000000E+00 -0.00000000000E+00 -0.96603332444E+03  0.96603332444E+03  0.00000000000E+00 0. -1.
    9000007    1    1    2  501    0  0.11885873961E+03  0.28768718660E+03 -0.41179051281E+03  0.65304115013E+03  0.40000000000E+03 0. -1.
   -9000007    1    1    2    0  502 -0.11885873961E+03 -0.28768718660E+03 -0.28550808694E+03  0.58172689900E+03  0.40000000000E+03 0. -1.
<mgrwt>
<rscale>  2 0.50684447E+03</rscale>
<asrwt>0</asrwt>
<pdfrwt beam="1">  1       21 0.41343803E-01 0.50684447E+03</pdfrwt>
<pdfrwt beam="2">  1       21 0.14862051E+00 0.50684447E+03</pdfrwt>
<totfact> 0.14368300E+03</totfact>
</mgrwt>
</event>
<event>
 4    1  0.4863180E-002  0.4049800E+03  0.7818608E-02  0.1042069E+00
         21   -1    0    0  503  502  0.00000000000E+00  0.00000000000E+00  0.62796852757E+03  0.62796852757E+03  0.00000000000E+00 0.  1.
         21   -1    0    0  501  503 -0.00000000000E+00 -0.00000000000E+00 -0.27552022478E+03  0.27552022478E+03  0.00000000000E+00 0.  1.
    9000007    1    1    2  501    0 -0.18720484630E+02 -0.60483995005E+02  0.73140065082E+02  0.41153157755E+03  0.40000000000E+03 0.  1.
   -9000007    1    1    2    0  502  0.18720484630E+02  0.60483995005E+02  0.27930823771E+03  0.49195717481E+03  0.40000000000E+03 0.  1.
<mgrwt>
<rscale>  2 0.40497996E+03</rscale>
<asrwt>0</asrwt>
<pdfrwt beam="1">  1       21 0.96610543E-01 0.40497996E+03</pdfrwt>
<pdfrwt beam="2">  1       21 0.42387727E-01 0.40497996E+03</pdfrwt>
<totfact> 0.42428579E+03</totfact>
</mgrwt>
</event>
<event>
 4    1  0.4863180E-002  0.4037620E+03  0.7818608E-02  0.1042485E+00
         21   -1    0    0  501  502  0.00000000000E+00  0.00000000000E+00  0.32438147537E+03  0.32438147537E+03  0.00000000000E+00 0. -1.
         21   -1    0    0  502  503 -0.00000000000E+00 -0.00000000000E+00 -0.55495442036E+03  0.55495442036E+03  0.00000000000E+00 0. -1.
    9000007    1    1    2  501    0 -0.45782432678E+02 -0.30458079898E+02  0.19798118266E+02  0.40424706710E+03  0.40000000000E+03 0. -1.
   -9000007    1    1    2    0  503  0.45782432678E+02  0.30458079898E+02 -0.25037106326E+03  0.47508882863E+03  0.40000000000E+03 0. -1.
<mgrwt>
<rscale>  2 0.40376197E+03</rscale>
<asrwt>0</asrwt>
<pdfrwt beam="1">  1       21 0.49904843E-01 0.40376197E+03</pdfrwt>
<pdfrwt beam="2">  1       21 0.85377603E-01 0.40376197E+03</pdfrwt>
<totfact> 0.40389318E+03</totfact>
</mgrwt>
</event>
<event>
 4    1  0.4863180E-002  0.5889763E+03  0.7818608E-02  0.9928544E-01
         21   -1    0    0  503  502  0.00000000000E+00  0.00000000000E+00  0.20055238557E+04  0.20055238557E+04  0.00000000000E+00 0.  1.
         21   -1    0    0  501  503 -0.00000000000E+00 -0.00000000000E+00 -0.18372333232E+03  0.18372333232E+03  0.00000000000E+00 0. -1.
    9000007    1    1    2  501    0 -0.42991948880E+03 -0.45412754826E+02  0.64606359940E+03  0.87423753043E+03  0.40000000000E+03 0. -1.
   -9000007    1    1    2    0  502  0.42991948880E+03  0.45412754826E+02  0.11757369240E+04  0.13150096576E+04  0.40000000000E+03 0.  1.
<mgrwt>
<rscale>  2 0.58897630E+03</rscale>
<asrwt>0</asrwt>
<pdfrwt beam="1">  1       21 0.30854212E+00 0.58897630E+03</pdfrwt>
<pdfrwt beam="2">  1       21 0.28265129E-01 0.58897630E+03</pdfrwt>
<totfact> 0.26685692E+02</totfact>
</mgrwt>
</event>
<event>
 4    1  0.4863180E-002  0.4561911E+03  0.7818608E-02  0.1025892E+00
         21   -1    0    0  501  502  0.00000000000E+00  0.00000000000E+00  0.18017051764E+04  0.18017051764E+04  0.00000000000E+00 0. -1.
         21   -1    0    0  502  503 -0.00000000000E+00 -0.00000000000E+00 -0.47462180632E+03  0.47462180632E+03  0.00000000000E+00 0. -1.
    9000007    1    1    2  501    0  0.88181560375E+02 -0.20083410570E+03  0.16535690651E+04  0.17153428166E+04  0.40000000000E+03 0. -1.
   -9000007    1    1    2    0  503 -0.88181560375E+02  0.20083410570E+03 -0.32648569497E+03  0.56098416611E+03  0.40000000000E+03 0. -1.
<mgrwt>
<rscale>  2 0.45619111E+03</rscale>
<asrwt>0</asrwt>
<pdfrwt beam="1">  1       21 0.27718541E+00 0.45619111E+03</pdfrwt>
<pdfrwt beam="2">  1       21 0.73018740E-01 0.45619111E+03</pdfrwt>
<totfact> 0.59818021E+01</totfact>
</mgrwt>
</event>
<event>
 4    1  0.4863180E-002  0.5307451E+03  0.7818608E-02  0.1006052E+00
         21   -1    0    0  503  502  0.00000000000E+00  0.00000000000E+00  0.89041571182E+03  0.89041571182E+03  0.00000000000E+00 0. -1.
         21   -1    0    0  501  503 -0.00000000000E+00 -0.00000000000E+00 -0.32503102147E+03  0.32503102147E+03  0.00000000000E+00 0.  1.
    9000007    1    1    2  501    0  0.32952576320E+03 -0.11446890640E+03  0.38196334635E+03  0.65390087712E+03  0.40000000000E+03 0. -1.
   -9000007    1    1    2    0  502 -0.32952576320E+03  0.11446890640E+03  0.18342134400E+03  0.56154585617E+03  0.40000000000E+03 0.  1.
<mgrwt>
<rscale>  2 0.53074510E+03</rscale>
<asrwt>0</asrwt>
<pdfrwt beam="1">  1       21 0.13698703E+00 0.53074510E+03</pdfrwt>
<pdfrwt beam="2">  1       21 0.50004773E-01 0.53074510E+03</pdfrwt>
<totfact> 0.11887984E+03</totfact>
</mgrwt>
</event>
<event>
 4    1  0.4863180E-002  0.4052081E+03  0.7818608E-02  0.1041991E+00
         21   -1    0    0  501  502  0.00000000000E+00  0.00000000000E+00  0.11690855405E+03  0.11690855405E+03  0.00000000000E+00 0. -1.
         21   -1    0    0  502  503 -0.00000000000E+00 -0.00000000000E+00 -0.19809760805E+04  0.19809760805E+04  0.00000000000E+00 0. -1.
    9000007    1    1    2  501    0  0.64721944333E+02  0.21619179437E+01 -0.36616332436E+03  0.54614026044E+03  0.40000000000E+03 0. -1.
   -9000007    1    1    2    0  503 -0.64721944333E+02 -0.21619179437E+01 -0.14979042021E+04  0.15517443742E+04  0.40000000000E+03 0. -1.
<mgrwt>
<rscale>  2 0.40520810E+03</rscale>
<asrwt>0</asrwt>
<pdfrwt beam="1">  1       21 0.17985933E-01 0.40520810E+03</pdfrwt>
<pdfrwt beam="2">  1       21 0.30476553E+00 0.40520810E+03</pdfrwt>
<totfact> 0.74122446E+02</totfact>
</mgrwt>
</event>
<event>
 4    1  0.4863180E-002  0.4230180E+03  0.7818608E-02  0.1036089E+00
         21   -1    0    0  501  502  0.00000000000E+00  0.00000000000E+00  0.10563703855E+04  0.10563703855E+04  0.00000000000E+00 0.  1.
         21   -1    0    0  502  503 -0.00000000000E+00 -0.00000000000E+00 -0.17698002253E+03  0.17698002253E+03  0.00000000000E+00 0.  1.
    9000007    1    1    2  501    0 -0.31305294402E+02  0.13403048042E+03  0.56735783451E+03  0.70769986825E+03  0.40000000000E+03 0.  1.
   -9000007    1    1    2    0  503  0.31305294402E+02 -0.13403048042E+03  0.31203252843E+03  0.52565053975E+03  0.40000000000E+03 0.  1.
<mgrwt>
<rscale>  2 0.42301796E+03</rscale>
<asrwt>0</asrwt>
<pdfrwt beam="1">  1       21 0.16251852E+00 0.42301796E+03</pdfrwt>
<pdfrwt beam="2">  1       21 0.27227697E-01 0.42301796E+03</pdfrwt>
<totfact> 0.26927895E+03</totfact>
</mgrwt>
</event>
<event>
 4    1  0.4863180E-002  0.4085363E+03  0.7818608E-02  0.1040863E+00
         21   -1    0    0  501  502  0.00000000000E+00  0.00000000000E+00  0.87493833393E+03  0.87493833393E+03  0.00000000000E+00 0.  1.
         21   -1    0    0  502  503 -0.00000000000E+00 -0.00000000000E+00 -0.19326575537E+03  0.19326575537E+03  0.00000000000E+00 0.  1.
    9000007    1    1    2  501    0  0.76596340801E+02  0.32170057850E+02  0.40167041515E+03  0.57292323609E+03  0.40000000000E+03 0.  1.
   -9000007    1    1    2    0  503 -0.76596340801E+02 -0.32170057850E+02  0.28000216340E+03  0.49528085321E+03  0.40000000000E+03 0.  1.
<mgrwt>
<rscale>  2 0.40853630E+03</rscale>
<asrwt>0</asrwt>
<pdfrwt beam="1">  1       21 0.13460590E+00 0.40853630E+03</pdfrwt>
<pdfrwt beam="2">  1       21 0.29733194E-01 0.40853630E+03</pdfrwt>
<totfact> 0.37878693E+03</totfact>
</mgrwt>
</event>
<event>
 4    1  0.4863180E-002  0.5674707E+03  0.7818608E-02  0.9975291E-01
         21   -1    0    0  501  502  0.00000000000E+00  0.00000000000E+00  0.76710563744E+03  0.76710563744E+03  0.00000000000E+00 0.  1.
         21   -1    0    0  502  503 -0.00000000000E+00 -0.00000000000E+00 -0.50368529949E+03  0.50368529949E+03  0.00000000000E+00 0. -1.
    9000007    1    1    2  501    0 -0.40241848734E+03  0.90724613548E+01 -0.12760886381E+03  0.58164161701E+03  0.40000000000E+03 0. -1.
   -9000007    1    1    2    0  503  0.40241848734E+03 -0.90724613548E+01  0.39102920177E+03  0.68914931992E+03  0.40000000000E+03 0.  1.
<mgrwt>
<rscale>  2 0.56747066E+03</rscale>
<asrwt>0</asrwt>
<pdfrwt beam="1">  1       21 0.11801625E+00 0.56747066E+03</pdfrwt>
<pdfrwt beam="2">  1       21 0.77490046E-01 0.56747066E+03</pdfrwt>
<totfact> 0.65460275E+02</totfact>
</mgrwt>
</event>
<event>
 4    1  0.4863180E-002  0.4704605E+03  0.7818608E-02  0.1021790E+00
         21   -1    0    0  501  502  0.00000000000E+00  0.00000000000E+00  0.12046165446E+03  0.12046165446E+03  0.00000000000E+00 0.  1.
         21   -1    0    0  502  503 -0.00000000000E+00 -0.00000000000E+00 -0.18379082956E+04  0.18379082956E+04  0.00000000000E+00 0. -1.
    9000007    1    1    2  501    0 -0.24313329048E+03  0.47109661608E+02 -0.84202872401E+03  0.96454418728E+03  0.40000000000E+03 0.  1.
   -9000007    1    1    2    0  503  0.24313329048E+03 -0.47109661608E+02 -0.87541791717E+03  0.99382576282E+03  0.40000000000E+03 0.  1.
<mgrwt>
<rscale>  2 0.47046054E+03</rscale>
<asrwt>0</asrwt>
<pdfrwt beam="1">  1       21 0.18532564E-01 0.47046054E+03</pdfrwt>
<pdfrwt beam="2">  1       21 0.28275510E+00 0.47046054E+03</pdfrwt>
<totfact> 0.91591106E+02</totfact>
</mgrwt>
</event>
<event>
 4    1  0.4863180E-002  0.4467009E+03  0.7818608E-02  0.1028710E+00
         21   -1    0    0  503  502  0.00000000000E+00  0.00000000000E+00  0.31139047078E+03  0.31139047078E+03  0.00000000000E+00 0.  1.
         21   -1    0    0  501  503 -0.00000000000E+00 -0.00000000000E+00 -0.81445410268E+03  0.81445410268E+03  0.00000000000E+00 0.  1.
    9000007    1    1    2  501    0  0.19311511839E+03  0.47415670967E+02 -0.51145612175E+03  0.67906484173E+03  0.40000000000E+03 0.  1.
   -9000007    1    1    2    0  502 -0.19311511839E+03 -0.47415670967E+02  0.83924898437E+01  0.44677973173E+03  0.40000000000E+03 0.  1.
<mgrwt>
<rscale>  2 0.44670090E+03</rscale>
<asrwt>0</asrwt>
<pdfrwt beam="1">  1       21 0.47906227E-01 0.44670090E+03</pdfrwt>
<pdfrwt beam="2">  1       21 0.12530063E+00 0.44670090E+03</pdfrwt>
<totfact> 0.16947865E+03</totfact>
</mgrwt>
</event>
<event>
 4    1  0.4863180E-002  0.4630317E+03  0.7818608E-02  0.1023906E+00
         21   -1    0    0  503  502  0.00000000000E+00  0.00000000000E+00  0.40381761962E+03  0.40381761962E+03  0.00000000000E+00 0.  1.
         21   -1    0    0  501  503 -0.00000000000E+00 -0.00000000000E+00 -0.56453672672E+03  0.56453672672E+03  0.00000000000E+00 0. -1.
    9000007    1    1    2  501    0 -0.55409065531E+02 -0.22655735756E+03 -0.19849470034E+03  0.50378422650E+03  0.40000000000E+03 0. -1.
   -9000007    1    1    2    0  502  0.55409065531E+02  0.22655735756E+03  0.37775593233E+02  0.46457011984E+03  0.40000000000E+03 0.  1.
<mgrwt>
<rscale>  2 0.46303175E+03</rscale>
<asrwt>0</asrwt>
<pdfrwt beam="1">  1       21 0.62125788E-01 0.46303175E+03</pdfrwt>
<pdfrwt beam="2">  1       21 0.86851804E-01 0.46303175E+03</pdfrwt>
<totfact> 0.23640706E+03</totfact>
</mgrwt>
</event>
<event>
 4    1  0.4863180E-002  0.4982841E+03  0.7818608E-02  0.1014228E+00
         21   -1    0    0  503  502  0.00000000000E+00  0.00000000000E+00  0.17752524237E+04  0.17752524237E+04  0.00000000000E+00 0. -1.
         21   -1    0    0  501  503 -0.00000000000E+00 -0.00000000000E+00 -0.18256967386E+03  0.18256967386E+03  0.00000000000E+00 0. -1.
    9000007    1    1    2  501    0  0.24550605565E+03 -0.16737329856E+03  0.32287259280E+03  0.59374553102E+03  0.40000000000E+03 0. -1.
   -9000007    1    1    2    0  502 -0.24550605565E+03  0.16737329856E+03  0.12698101570E+04  0.13640765665E+04  0.40000000000E+03 0. -1.
<mgrwt>
<rscale>  2 0.49828410E+03</rscale>
<asrwt>0</asrwt>
<pdfrwt beam="1">  1       21 0.27311575E+00 0.49828410E+03</pdfrwt>
<pdfrwt beam="2">  1       21 0.28087643E-01 0.49828410E+03</pdfrwt>
<totfact> 0.46266490E+02</totfact>
</mgrwt>
</event>
<event>
 4    1  0.4863180E-002  0.5204912E+03  0.7818608E-02  0.1008565E+00
         21   -1    0    0  503  502  0.00000000000E+00  0.00000000000E+00  0.19847194397E+03  0.19847194397E+03  0.00000000000E+00 0.  1.
         21   -1    0    0  501  503 -0.00000000000E+00 -0.00000000000E+00 -0.17674794859E+04  0.17674794859E+04  0.00000000000E+00 0.  1.
    9000007    1    1    2  501    0  0.32328876953E+03 -0.79971551533E+02 -0.12535827483E+04  0.13573432818E+04  0.40000000000E+03 0.  1.
   -9000007    1    1    2    0  502 -0.32328876953E+03  0.79971551533E+02 -0.31542479360E+03  0.60860814814E+03  0.40000000000E+03 0.  1.
<mgrwt>
<rscale>  2 0.52049119E+03</rscale>
<asrwt>0</asrwt>
<pdfrwt beam="1">  1       21 0.30534145E-01 0.52049119E+03</pdfrwt>
<pdfrwt beam="2">  1       21 0.27191992E+00 0.52049119E+03</pdfrwt>
<totfact> 0.39436066E+02</totfact>
</mgrwt>
</event>
<event>
 4    1  0.4863180E-002  0.4751079E+03  0.7818608E-02  0.1020488E+00
         21   -1    0    0  503  502  0.00000000000E+00  0.00000000000E+00  0.55911315516E+03  0.55911315516E+03  0.00000000000E+00 0.  1.
         21   -1    0    0  501  503 -0.00000000000E+00 -0.00000000000E+00 -0.44833786259E+03  0.44833786259E+03  0.00000000000E+00 0.  1.
    9000007    1    1    2  501    0  0.25634206666E+03  0.40309049991E+01  0.21428813908E+03  0.52119757280E+03  0.40000000000E+03 0.  1.
   -9000007    1    1    2    0  502 -0.25634206666E+03 -0.40309049991E+01 -0.10351284652E+03  0.48625344495E+03  0.40000000000E+03 0.  1.
<mgrwt>
<rscale>  2 0.47510789E+03</rscale>
<asrwt>0</asrwt>
<pdfrwt beam="1">  1       21 0.86017409E-01 0.47510789E+03</pdfrwt>
<pdfrwt beam="2">  1       21 0.68975056E-01 0.47510789E+03</pdfrwt>
<totfact> 0.19075470E+03</totfact>
</mgrwt>
</event>
<event>
 4    1  0.4863180E-002  0.4366307E+03  0.7818608E-02  0.1031786E+00
         21   -1    0    0  501  502  0.00000000000E+00  0.00000000000E+00  0.11131179759E+04  0.11131179759E+04  0.00000000000E+00 0. -1.
         21   -1    0    0  502  503 -0.00000000000E+00 -0.00000000000E+00 -0.22741092191E+03  0.22741092191E+03  0.00000000000E+00 0. -1.
    9000007    1    1    2  501    0 -0.11735432447E+02  0.17466730352E+03  0.77587406042E+03  0.89029598726E+03  0.40000000000E+03 0. -1.
   -9000007    1    1    2    0  503  0.11735432447E+02 -0.17466730352E+03  0.10983299362E+03  0.45023291059E+03  0.40000000000E+03 0. -1.
<mgrwt>
<rscale>  2 0.43663072E+03</rscale>
<asrwt>0</asrwt>
<pdfrwt beam="1">  1       21 0.17124892E+00 0.43663072E+03</pdfrwt>
<pdfrwt beam="2">  1       21 0.34986296E-01 0.43663072E+03</pdfrwt>
<totfact> 0.14016877E+03</totfact>
</mgrwt>
</event>
<event>
 4    1  0.4863180E-002  0.4607467E+03  0.7818608E-02  0.1024565E+00
         21   -1    0    0  503  502  0.00000000000E+00  0.00000000000E+00  0.16062618107E+04  0.16062618107E+04  0.00000000000E+00 0. -1.
         21   -1    0    0  501  503 -0.00000000000E+00 -0.00000000000E+00 -0.21272324604E+03  0.21272324604E+03  0.00000000000E+00 0. -1.
    9000007    1    1    2  501    0  0.96350792533E+02  0.20737406560E+03  0.13707152793E+03  0.48070373628E+03  0.40000000000E+03 0. -1.
   -9000007    1    1    2    0  502 -0.96350792533E+02 -0.20737406560E+03  0.12564670368E+04  0.13382813205E+04  0.40000000000E+03 0. -1.
<mgrwt>
<rscale>  2 0.46074665E+03</rscale>
<asrwt>0</asrwt>
<pdfrwt beam="1">  1       21 0.24711719E+00 0.46074665E+03</pdfrwt>
<pdfrwt beam="2">  1       21 0.32726654E-01 0.46074665E+03</pdfrwt>
<totfact> 0.50146903E+02</totfact>
</mgrwt>
</event>
<event>
 4    1  0.4863180E-002  0.7170084E+03  0.7818608E-02  0.9688580E-01
         21   -1    0    0  503  502  0.00000000000E+00  0.00000000000E+00  0.17904039910E+04  0.17904039910E+04  0.00000000000E+00 0. -1.
         21   -1    0    0  501  503 -0.00000000000E+00 -0.00000000000E+00 -0.38601455197E+03  0.38601455197E+03  0.00000000000E+00 0. -1.
    9000007    1    1    2  501    0  0.58005741939E+03  0.13279469347E+03  0.15145372677E+03  0.73282963352E+03  0.40000000000E+03 0. -1.
   -9000007    1    1    2    0  502 -0.58005741939E+03 -0.13279469347E+03  0.12529357122E+04  0.14435889094E+04  0.40000000000E+03 0. -1.
<mgrwt>
<rscale>  2 0.71700840E+03</rscale>
<asrwt>0</asrwt>
<pdfrwt beam="1">  1       21 0.27544676E+00 0.71700840E+03</pdfrwt>
<pdfrwt beam="2">  1       21 0.59386855E-01 0.71700840E+03</pdfrwt>
<totfact> 0.85690280E+01</totfact>
</mgrwt>
</event>
<event>
 4    1  0.4863180E-002  0.4863482E+03  0.7818608E-02  0.1017405E+00
         21   -1    0    0  503  502  0.00000000000E+00  0.00000000000E+00  0.99436768150E+03  0.99436768150E+03  0.00000000000E+00 0.  1.
         21   -1    0    0  501  503 -0.00000000000E+00 -0.00000000000E+00 -0.44935062248E+03  0.44935062248E+03  0.00000000000E+00 0. -1.
    9000007    1    1    2  501    0  0.20283725025E+03  0.18812672612E+03 -0.22270279285E+03  0.53491228170E+03  0.40000000000E+03 0. -1.
   -9000007    1    1    2    0  502 -0.20283725025E+03 -0.18812672612E+03  0.76771985187E+03  0.90880602228E+03  0.40000000000E+03 0.  1.
<mgrwt>
<rscale>  2 0.48634824E+03</rscale>
<asrwt>0</asrwt>
<pdfrwt beam="1">  1       21 0.15297964E+00 0.48634824E+03</pdfrwt>
<pdfrwt beam="2">  1       21 0.69130865E-01 0.48634824E+03</pdfrwt>
<totfact> 0.44157488E+02</totfact>
</mgrwt>
</event>
<event>
 4    1  0.4863180E-002  0.4469053E+03  0.7818608E-02  0.1028649E+00
         21   -1    0    0  503  502  0.00000000000E+00  0.00000000000E+00  0.39063329516E+03  0.39063329516E+03  0.00000000000E+00 0.  1.
         21   -1    0    0  501  503 -0.00000000000E+00 -0.00000000000E+00 -0.52775190976E+03  0.52775190976E+03  0.00000000000E+00 0. -1.
    9000007    1    1    2  501    0  0.18178933827E+03  0.81712766672E+02 -0.14967529058E+03  0.47130354588E+03  0.40000000000E+03 0. -1.
   -9000007    1    1    2    0  502 -0.18178933827E+03 -0.81712766672E+02  0.12556675974E+02  0.44708165905E+03  0.40000000000E+03 0.  1.
<mgrwt>
<rscale>  2 0.44690529E+03</rscale>
<asrwt>0</asrwt>
<pdfrwt beam="1">  1       21 0.60097430E-01 0.44690529E+03</pdfrwt>
<pdfrwt beam="2">  1       21 0.81192601E-01 0.44690529E+03</pdfrwt>
<totfact> 0.29934797E+03</totfact>
</mgrwt>
</event>
<event>
 4    1  0.4863180E-002  0.5194569E+03  0.7818608E-02  0.1008822E+00
         21   -1    0    0  503  502  0.00000000000E+00  0.00000000000E+00  0.24561059716E+03  0.24561059716E+03  0.00000000000E+00 0.  1.
         21   -1    0    0  501  503 -0.00000000000E+00 -0.00000000000E+00 -0.12183610807E+04  0.12183610807E+04  0.00000000000E+00 0.  1.
    9000007    1    1    2  501    0 -0.31675430481E+03  0.97479126522E+02 -0.25691052784E+03  0.57951573666E+03  0.40000000000E+03 0.  1.
   -9000007    1    1    2    0  502  0.31675430481E+03 -0.97479126522E+02 -0.71583995568E+03  0.88445594117E+03  0.40000000000E+03 0.  1.
<mgrwt>
<rscale>  2 0.51945690E+03</rscale>
<asrwt>0</asrwt>
<pdfrwt beam="1">  1       21 0.37786246E-01 0.51945690E+03</pdfrwt>
<pdfrwt beam="2">  1       21 0.18744017E+00 0.51945690E+03</pdfrwt>
<totfact> 0.88925643E+02</totfact>
</mgrwt>
</event>
<event>
 4    1  0.4863180E-002  0.4607592E+03  0.7818608E-02  0.1024561E+00
         21   -1    0    0  501  502  0.00000000000E+00  0.00000000000E+00  0.46823401165E+03  0.46823401165E+03  0.00000000000E+00 0.  1.
         21   -1    0    0  502  503 -0.00000000000E+00 -0.00000000000E+00 -0.47477811710E+03  0.47477811710E+03  0.00000000000E+00 0.  1.
    9000007    1    1    2  501    0 -0.73478929253E+02  0.21656391491E+03 -0.10331535396E+03  0.47220032259E+03  0.40000000000E+03 0.  1.
   -9000007    1    1    2    0  503  0.73478929253E+02 -0.21656391491E+03  0.96771248505E+02  0.47081180616E+03  0.40000000000E+03 0.  1.
<mgrwt>
<rscale>  2 0.46075925E+03</rscale>
<asrwt>0</asrwt>
<pdfrwt beam="1">  1       21 0.72036002E-01 0.46075925E+03</pdfrwt>
<pdfrwt beam="2">  1       21 0.73042787E-01 0.46075925E+03</pdfrwt>
<totfact> 0.25356112E+03</totfact>
</mgrwt>
</event>
<event>
 4    1  0.4863180E-002  0.5876432E+03  0.7818608E-02  0.9931379E-01
         21   -1    0    0  501  502  0.00000000000E+00  0.00000000000E+00  0.56077798251E+03  0.56077798251E+03  0.00000000000E+00 0. -1.
         21   -1    0    0  502  503 -0.00000000000E+00 -0.00000000000E+00 -0.14115525678E+04  0.14115525678E+04  0.00000000000E+00 0. -1.
    9000007    1    1    2  501    0  0.18701855208E+03 -0.38774810261E+03  0.31505538719E+03  0.66677164524E+03  0.40000000000E+03 0. -1.
   -9000007    1    1    2    0  503 -0.18701855208E+03  0.38774810261E+03 -0.11658299725E+04  0.13055589051E+04  0.40000000000E+03 0. -1.
<mgrwt>
<rscale>  2 0.58764320E+03</rscale>
<asrwt>0</asrwt>
<pdfrwt beam="1">  1       21 0.86273537E-01 0.58764320E+03</pdfrwt>
<pdfrwt beam="2">  1       21 0.21716193E+00 0.58764320E+03</pdfrwt>
<totfact> 0.89569869E+01</totfact>
</mgrwt>
</event>
<event>
 4    1  0.4863180E-002  0.5904160E+03  0.7818608E-02  0.9925492E-01
         21   -1    0    0  501  502  0.00000000000E+00  0.00000000000E+00  0.17022559133E+04  0.17022559133E+04  0.00000000000E+00 0.  1.
         21   -1    0    0  502  503 -0.00000000000E+00 -0.00000000000E+00 -0.78602259614E+03  0.78602259614E+03  0.00000000000E+00 0. -1.
    9000007    1    1    2  501    0 -0.43266290667E+03  0.37334752142E+02  0.15279829695E+04  0.16380851716E+04  0.40000000000E+03 0.  1.
   -9000007    1    1    2    0  503  0.43266290667E+03 -0.37334752142E+02 -0.61174965232E+03  0.85019333780E+03  0.40000000000E+03 0. -1.
<mgrwt>
<rscale>  2 0.59041602E+03</rscale>
<asrwt>0</asrwt>
<pdfrwt beam="1">  1       21 0.26188552E+00 0.59041602E+03</pdfrwt>
<pdfrwt beam="2">  1       21 0.12092655E+00 0.59041602E+03</pdfrwt>
<totfact> 0.20381398E+01</totfact>
</mgrwt>
</event>
<event>
 4    1  0.4863180E-002  0.4197956E+03  0.7818608E-02  0.1037133E+00
         21   -1    0    0  503  502  0.00000000000E+00  0.00000000000E+00  0.11248889640E+04  0.11248889640E+04  0.00000000000E+00 0. -1.
         21   -1    0    0  501  503 -0.00000000000E+00 -0.00000000000E+00 -0.15690382861E+03  0.15690382861E+03  0.00000000000E+00 0. -1.
    9000007    1    1    2  501    0  0.64911021612E+01 -0.12722516500E+03  0.50910607933E+03  0.65986163476E+03  0.40000000000E+03 0. -1.
   -9000007    1    1    2    0  502 -0.64911021612E+01  0.12722516500E+03  0.45887905610E+03  0.62193115788E+03  0.40000000000E+03 0. -1.
<mgrwt>
<rscale>  2 0.41979564E+03</rscale>
<asrwt>0</asrwt>
<pdfrwt beam="1">  1       21 0.17305984E+00 0.41979564E+03</pdfrwt>
<pdfrwt beam="2">  1       21 0.24139051E-01 0.41979564E+03</pdfrwt>
<totfact> 0.28544860E+03</totfact>
</mgrwt>
</event>
<event>
 4    1  0.4863180E-002  0.4374091E+03  0.7818608E-02  0.1031545E+00
         21   -1    0    0  501  502  0.00000000000E+00  0.00000000000E+00  0.14191562998E+03  0.14191562998E+03  0.00000000000E+00 0. -1.
         21   -1    0    0  502  503 -0.00000000000E+00 -0.00000000000E+00 -0.17156374488E+04  0.17156374488E+04  0.00000000000E+00 0. -1.
    9000007    1    1    2  501    0  0.17538744533E+03  0.23790156639E+02 -0.35702120400E+03  0.56461568136E+03  0.40000000000E+03 0.  1.
   -9000007    1    1    2    0  503 -0.17538744533E+03 -0.23790156639E+02 -0.12167006148E+04  0.12929373974E+04  0.40000000000E+03 0.  1.
<mgrwt>
<rscale>  2 0.43740911E+03</rscale>
<asrwt>0</asrwt>
<pdfrwt beam="1">  1       21 0.21833174E-01 0.43740911E+03</pdfrwt>
<pdfrwt beam="2">  1       21 0.26394422E+00 0.43740911E+03</pdfrwt>
<totfact> 0.88604017E+02</totfact>
</mgrwt>
</event>
<event>
 4    1  0.4863180E-002  0.4276300E+03  0.7818608E-02  0.1034611E+00
         21   -1    0    0  503  502  0.00000000000E+00  0.00000000000E+00  0.37086745919E+03  0.37086745919E+03  0.00000000000E+00 0.  1.
         21   -1    0    0  501  503 -0.00000000000E+00 -0.00000000000E+00 -0.51092227899E+03  0.51092227899E+03  0.00000000000E+00 0.  1.
    9000007    1    1    2  501    0 -0.45717936919E+02  0.14414316436E+03  0.12363820538E+02  0.42780865541E+03  0.40000000000E+03 0. -1.
   -9000007    1    1    2    0  502  0.45717936919E+02 -0.14414316436E+03 -0.15241864034E+03  0.45398108277E+03  0.40000000000E+03 0. -1.
<mgrwt>
<rscale>  2 0.42762996E+03</rscale>
<asrwt>0</asrwt>
<pdfrwt beam="1">  1       21 0.57056532E-01 0.42762996E+03</pdfrwt>
<pdfrwt beam="2">  1       21 0.78603428E-01 0.42762996E+03</pdfrwt>
<totfact> 0.36379641E+03</totfact>
</mgrwt>
</event>
<event>
 4    1  0.4863180E-002  0.4938139E+03  0.7818608E-02  0.1015406E+00
         21   -1    0    0  501  502  0.00000000000E+00  0.00000000000E+00  0.36973587491E+03  0.36973587491E+03  0.00000000000E+00 0. -1.
         21   -1    0    0  502  503 -0.00000000000E+00 -0.00000000000E+00 -0.67507098101E+03  0.67507098101E+03  0.00000000000E+00 0. -1.
    9000007    1    1    2  501    0  0.89670741762E+02 -0.27533864961E+03 -0.73406705854E+02  0.49924018104E+03  0.40000000000E+03 0. -1.
   -9000007    1    1    2    0  503 -0.89670741762E+02  0.27533864961E+03 -0.23192840024E+03  0.54556667488E+03  0.40000000000E+03 0. -1.
<mgrwt>
<rscale>  2 0.49381395E+03</rscale>
<asrwt>0</asrwt>
<pdfrwt beam="1">  1       21 0.56882443E-01 0.49381395E+03</pdfrwt>
<pdfrwt beam="2">  1       21 0.10385707E+00 0.49381395E+03</pdfrwt>
<totfact> 0.18458468E+03</totfact>
</mgrwt>
</event>
<event>
 4    1  0.4863180E-002  0.5602437E+03  0.7818608E-02  0.9991503E-01
         21   -1    0    0  503  502  0.00000000000E+00  0.00000000000E+00  0.19330494971E+04  0.19330494971E+04  0.00000000000E+00 0. -1.
         21   -1    0    0  501  503 -0.00000000000E+00 -0.00000000000E+00 -0.53219843238E+03  0.53219843238E+03  0.00000000000E+00 0.  1.
    9000007    1    1    2  501    0  0.91953856936E+02 -0.38133650635E+03 -0.32710043686E+03  0.64874319933E+03  0.40000000000E+03 0.  1.
   -9000007    1    1    2    0  502 -0.91953856936E+02  0.38133650635E+03  0.17279515016E+04  0.18165047302E+04  0.40000000000E+03 0. -1.
<mgrwt>
<rscale>  2 0.56024374E+03</rscale>
<asrwt>0</asrwt>
<pdfrwt beam="1">  1       21 0.29739223E+00 0.56024374E+03</pdfrwt>
<pdfrwt beam="2">  1       21 0.81876683E-01 0.56024374E+03</pdfrwt>
<totfact> 0.32605227E+01</totfact>
</mgrwt>
</event>
<event>
 4    1  0.4863180E-002  0.4181452E+03  0.7818608E-02  0.1037672E+00
         21   -1    0    0  501  502  0.00000000000E+00  0.00000000000E+00  0.68851028648E+03  0.68851028648E+03  0.00000000000E+00 0.  1.
         21   -1    0    0  502  503 -0.00000000000E+00 -0.00000000000E+00 -0.26425730281E+03  0.26425730281E+03  0.00000000000E+00 0.  1.
    9000007    1    1    2  501    0  0.43509178016E+02 -0.11380830118E+03  0.30622253289E+03  0.51828333722E+03  0.40000000000E+03 0.  1.
   -9000007    1    1    2    0  503 -0.43509178016E+02  0.11380830118E+03  0.11803045077E+03  0.43448425207E+03  0.40000000000E+03 0.  1.
<mgrwt>
<rscale>  2 0.41814516E+03</rscale>
<asrwt>0</asrwt>
<pdfrwt beam="1">  1       21 0.10592466E+00 0.41814516E+03</pdfrwt>
<pdfrwt beam="2">  1       21 0.40654970E-01 0.41814516E+03</pdfrwt>
<totfact> 0.36791498E+03</totfact>
</mgrwt>
</event>
<event>
 4    1  0.4863180E-002  0.5040454E+03  0.7818608E-02  0.1012728E+00
         21   -1    0    0  503  502  0.00000000000E+00  0.00000000000E+00  0.85522201590E+03  0.85522201590E+03  0.00000000000E+00 0.  1.
         21   -1    0    0  501  503 -0.00000000000E+00 -0.00000000000E+00 -0.49703585005E+03  0.49703585005E+03  0.00000000000E+00 0. -1.
    9000007    1    1    2  501    0  0.25227420431E+03 -0.17441181676E+03 -0.24976378732E+03  0.56253329274E+03  0.40000000000E+03 0. -1.
   -9000007    1    1    2    0  502 -0.25227420431E+03  0.17441181676E+03  0.60794995316E+03  0.78972457321E+03  0.40000000000E+03 0.  1.
<mgrwt>
<rscale>  2 0.50404539E+03</rscale>
<asrwt>0</asrwt>
<pdfrwt beam="1">  1       21 0.13157262E+00 0.50404539E+03</pdfrwt>
<pdfrwt beam="2">  1       21 0.76467054E-01 0.50404539E+03</pdfrwt>
<totfact> 0.52176484E+02</totfact>
</mgrwt>
</event>
<event>
 4    1  0.4863180E-002  0.4449270E+03  0.7818608E-02  0.1029246E+00
         21   -1    0    0  501  502  0.00000000000E+00  0.00000000000E+00  0.46058996275E+03  0.46058996275E+03  0.00000000000E+00 0. -1.
         21   -1    0    0  502  503 -0.00000000000E+00 -0.00000000000E+00 -0.10441909126E+04  0.10441909126E+04  0.00000000000E+00 0. -1.
    9000007    1    1    2  501    0  0.35759715804E+02  0.19152361154E+03  0.28533379987E+03  0.52855976805E+03  0.40000000000E+03 0. -1.
   -9000007    1    1    2    0  503 -0.35759715804E+02 -0.19152361154E+03 -0.86893474970E+03  0.97622110728E+03  0.40000000000E+03 0. -1.
<mgrwt>
<rscale>  2 0.44492702E+03</rscale>
<asrwt>0</asrwt>
<pdfrwt beam="1">  1       21 0.70859994E-01 0.44492702E+03</pdfrwt>
<pdfrwt beam="2">  1       21 0.16064476E+00 0.44492702E+03</pdfrwt>
<totfact> 0.37189763E+02</totfact>
</mgrwt>
</event>
<event>
 4    1  0.4863180E-002  0.4365000E+03  0.7818608E-02  0.1031826E+00
         21   -1    0    0  501  502  0.00000000000E+00  0.00000000000E+00  0.60690110051E+03  0.60690110051E+03  0.00000000000E+00 0. -1.
         21   -1    0    0  502  503 -0.00000000000E+00 -0.00000000000E+00 -0.31747921742E+03  0.31747921742E+03  0.00000000000E+00 0. -1.
    9000007    1    1    2  501    0 -0.11586501356E+03 -0.13079585532E+03  0.19349098031E+03  0.47746310496E+03  0.40000000000E+03 0. -1.
   -9000007    1    1    2    0  503  0.11586501356E+03  0.13079585532E+03  0.95930902776E+02  0.44691721296E+03  0.40000000000E+03 0. -1.
<mgrwt>
<rscale>  2 0.43650001E+03</rscale>
<asrwt>0</asrwt>
<pdfrwt beam="1">  1       21 0.93369400E-01 0.43650001E+03</pdfrwt>
<pdfrwt beam="2">  1       21 0.48842957E-01 0.43650001E+03</pdfrwt>
<totfact> 0.33812267E+03</totfact>
</mgrwt>
</event>
<event>
 4    1  0.4863180E-002  0.4137973E+03  0.7818608E-02  0.1039104E+00
         21   -1    0    0  501  502  0.00000000000E+00  0.00000000000E+00  0.24227363516E+04  0.24227363516E+04  0.00000000000E+00 0. -1.
         21   -1    0    0  502  503 -0.00000000000E+00 -0.00000000000E+00 -0.92256235768E+02  0.92256235768E+02  0.00000000000E+00 0. -1.
    9000007    1    1    2  501    0  0.77270790682E+02  0.72508307084E+02  0.17734330980E+04  0.18210692416E+04  0.40000000000E+03 0. -1.
   -9000007    1    1    2    0  503 -0.77270790682E+02 -0.72508307084E+02  0.55704701779E+03  0.69392334570E+03  0.40000000000E+03 0. -1.
<mgrwt>
<rscale>  2 0.41379733E+03</rscale>
<asrwt>0</asrwt>
<pdfrwt beam="1">  1       21 0.37272862E+00 0.41379733E+03</pdfrwt>
<pdfrwt beam="2">  1       21 0.14193269E-01 0.41379733E+03</pdfrwt>
<totfact> 0.44222476E+02</totfact>
</mgrwt>
</event>
<event>
 4    1  0.4863180E-002  0.5342218E+03  0.7818608E-02  0.1005213E+00
         21   -1    0    0  503  502  0.00000000000E+00  0.00000000000E+00  0.51690836238E+03  0.51690836238E+03  0.00000000000E+00 0.  1.
         21   -1    0    0  501  503 -0.00000000000E+00 -0.00000000000E+00 -0.55552981043E+03  0.55552981043E+03  0.00000000000E+00 0.  1.
    9000007    1    1    2  501    0  0.16899768922E+03 -0.31117949347E+03 -0.61351188073E+02  0.53773307914E+03  0.40000000000E+03 0.  1.
   -9000007    1    1    2    0  502 -0.16899768922E+03  0.31117949347E+03  0.22729740022E+02  0.53470509367E+03  0.40000000000E+03 0.  1.
<mgrwt>
<rscale>  2 0.53422177E+03</rscale>
<asrwt>0</asrwt>
<pdfrwt beam="1">  1       21 0.79524364E-01 0.53422177E+03</pdfrwt>
<pdfrwt beam="2">  1       21 0.85466125E-01 0.53422177E+03</pdfrwt>
<totfact> 0.13716363E+03</totfact>
</mgrwt>
</event>
<event>
 4    1  0.4863180E-002  0.5925935E+03  0.7818608E-02  0.9920892E-01
         21   -1    0    0  501  502  0.00000000000E+00  0.00000000000E+00  0.43684235867E+03  0.43684235867E+03  0.00000000000E+00 0.  1.
         21   -1    0    0  502  503 -0.00000000000E+00 -0.00000000000E+00 -0.11353739851E+04  0.11353739851E+04  0.00000000000E+00 0. -1.
    9000007    1    1    2  501    0 -0.27961700666E+03  0.33612712453E+03  0.75503611678E+02  0.59738422279E+03  0.40000000000E+03 0.  1.
   -9000007    1    1    2    0  503  0.27961700666E+03 -0.33612712453E+03 -0.77403523809E+03  0.97483212096E+03  0.40000000000E+03 0. -1.
<mgrwt>
<rscale>  2 0.59259355E+03</rscale>
<asrwt>0</asrwt>
<pdfrwt beam="1">  1       21 0.67206518E-01 0.59259355E+03</pdfrwt>
<pdfrwt beam="2">  1       21 0.17467292E+00 0.59259355E+03</pdfrwt>
<totfact> 0.31004894E+02</totfact>
</mgrwt>
</event>
<event>
 4    1  0.4863180E-002  0.5163224E+03  0.7818608E-02  0.1009604E+00
         21   -1    0    0  501  502  0.00000000000E+00  0.00000000000E+00  0.60866430228E+03  0.60866430228E+03  0.00000000000E+00 0.  1.
         21   -1    0    0  502  503 -0.00000000000E+00 -0.00000000000E+00 -0.49034314270E+03  0.49034314270E+03  0.00000000000E+00 0. -1.
    9000007    1    1    2  501    0  0.31074914894E+03  0.10011868385E+03  0.23871355268E+03  0.56883472526E+03  0.40000000000E+03 0.  1.
   -9000007    1    1    2    0  503 -0.31074914894E+03 -0.10011868385E+03 -0.12039239311E+03  0.53017271973E+03  0.40000000000E+03 0. -1.
<mgrwt>
<rscale>  2 0.51632236E+03</rscale>
<asrwt>0</asrwt>
<pdfrwt beam="1">  1       21 0.93640661E-01 0.51632236E+03</pdfrwt>
<pdfrwt beam="2">  1       21 0.75437407E-01 0.51632236E+03</pdfrwt>
<totfact> 0.12543481E+03</totfact>
</mgrwt>
</event>
<event>
 4    1  0.4863180E-002  0.4252740E+03  0.7818608E-02  0.1035363E+00
         21   -1    0    0  503  502  0.00000000000E+00  0.00000000000E+00  0.15498676928E+03  0.15498676928E+03  0.00000000000E+00 0. -1.
         21   -1    0    0  501  503 -0.00000000000E+00 -0.00000000000E+00 -0.12472801117E+04  0.12472801117E+04  0.00000000000E+00 0. -1.
    9000007    1    1    2  501    0 -0.13266948052E+03  0.57068449731E+02 -0.36818587756E+03  0.56251119052E+03  0.40000000000E+03 0. -1.
   -9000007    1    1    2    0  502  0.13266948052E+03 -0.57068449731E+02 -0.72410746487E+03  0.83975569048E+03  0.40000000000E+03 0. -1.
<mgrwt>
<rscale>  2 0.42527403E+03</rscale>
<asrwt>0</asrwt>
<pdfrwt beam="1">  1       21 0.23844118E-01 0.42527403E+03</pdfrwt>
<pdfrwt beam="2">  1       21 0.19188925E+00 0.42527403E+03</pdfrwt>
<totfact> 0.21546561E+03</totfact>
</mgrwt>
</event>
<event>
 4    1  0.4863180E-002  0.4671059E+03  0.7818608E-02  0.1022740E+00
         21   -1    0    0  503  502  0.00000000000E+00  0.00000000000E+00  0.13321625061E+04  0.13321625061E+04  0.00000000000E+00 0. -1.
         21   -1    0    0  501  503 -0.00000000000E+00 -0.00000000000E+00 -0.19660977526E+03  0.19660977526E+03  0.00000000000E+00 0.  1.
    9000007    1    1    2  501    0 -0.14929558783E+03  0.18946962212E+03  0.88010568090E+03  0.99638040918E+03  0.40000000000E+03 0.  1.
   -9000007    1    1    2    0  502  0.14929558783E+03 -0.18946962212E+03  0.25544704998E+03  0.53239187221E+03  0.40000000000E+03 0.  1.
<mgrwt>
<rscale>  2 0.46710589E+03</rscale>
<asrwt>0</asrwt>
<pdfrwt beam="1">  1       21 0.20494807E+00 0.46710589E+03</pdfrwt>
<pdfrwt beam="2">  1       21 0.30247659E-01 0.46710589E+03</pdfrwt>
<totfact> 0.10845369E+03</totfact>
</mgrwt>
</event>
<event>
 4    1  0.4863180E-002  0.4132026E+03  0.7818608E-02  0.1039302E+00
         21   -1    0    0  501  502  0.00000000000E+00  0.00000000000E+00  0.97924043076E+03  0.97924043076E+03  0.00000000000E+00 0.  1.
         21   -1    0    0  502  503 -0.00000000000E+00 -0.00000000000E+00 -0.17435625413E+03  0.17435625413E+03  0.00000000000E+00 0.  1.
    9000007    1    1    2  501    0 -0.68662433192E+02 -0.77600741500E+02  0.40319197835E+03  0.57732155357E+03  0.40000000000E+03 0.  1.
   -9000007    1    1    2    0  503  0.68662433192E+02  0.77600741500E+02  0.40169219829E+03  0.57627513132E+03  0.40000000000E+03 0.  1.
<mgrwt>
<rscale>  2 0.41320262E+03</rscale>
<asrwt>0</asrwt>
<pdfrwt beam="1">  1       21 0.15065237E+00 0.41320262E+03</pdfrwt>
<pdfrwt beam="2">  1       21 0.26824040E-01 0.41320262E+03</pdfrwt>
<totfact> 0.34301339E+03</totfact>
</mgrwt>
</event>
<event>
 4    1  0.4863180E-002  0.4428596E+03  0.7818608E-02  0.1029873E+00
         21   -1    0    0  503  502  0.00000000000E+00  0.00000000000E+00  0.71769387340E+03  0.71769387340E+03  0.00000000000E+00 0.  1.
         21   -1    0    0  501  503 -0.00000000000E+00 -0.00000000000E+00 -0.91572607551E+03  0.91572607551E+03  0.00000000000E+00 0.  1.
    9000007    1    1    2  501    0 -0.18958010106E+03  0.13566013039E+02 -0.78309560583E+03  0.89964625232E+03  0.40000000000E+03 0.  1.
   -9000007    1    1    2    0  502  0.18958010106E+03 -0.13566013039E+02  0.58506340373E+03  0.73377369659E+03  0.40000000000E+03 0.  1.
<mgrwt>
<rscale>  2 0.44285963E+03</rscale>
<asrwt>0</asrwt>
<pdfrwt beam="1">  1       21 0.11041444E+00 0.44285963E+03</pdfrwt>
<pdfrwt beam="2">  1       21 0.14088093E+00 0.44285963E+03</pdfrwt>
<totfact> 0.18651613E+02</totfact>
</mgrwt>
</event>
