<event>
 3    1  0.1592492E-001  0.1250000E+03  0.7546771E-02  0.1235069E+00
         21   -1    0    0  502  501  0.00000000000E+00  0.00000000000E+00  0.50831851529E+02  0.50831851529E+02  0.00000000000E+00 0. -1.
         21   -1    0    0  501  502 -0.00000000000E+00 -0.00000000000E+00 -0.76846502390E+02  0.76846502390E+02  0.00000000000E+00 0. -1.
         25    1    1    2    0    0  0.00000000000E+00  0.00000000000E+00 -0.26014650861E+02  0.12767835392E+03  0.12500000000E+03 0.  0.
<mgrwt>
<rscale>  0 0.12500000E+03</rscale>
<asrwt>0</asrwt>
<pdfrwt beam="1">  1       21 0.78202849E-02 0.12500000E+03</pdfrwt>
<pdfrwt beam="2">  1       21 0.11822539E-01 0.12500000E+03</pdfrwt>
<totfact> 0.73677056E+06</totfact>
</mgrwt>
</event>
<event>
 3    1  0.1592492E-001  0.1250000E+03  0.7546771E-02  0.1235069E+00
         21   -1    0    0  502  501  0.00000000000E+00  0.00000000000E+00  0.39670211552E+02  0.39670211552E+02  0.00000000000E+00 0. -1.
         21   -1    0    0  501  502 -0.00000000000E+00 -0.00000000000E+00 -0.98468090972E+02  0.98468090972E+02  0.00000000000E+00 0. -1.
         25    1    1    2    0    0  0.00000000000E+00  0.00000000000E+00 -0.58797879419E+02  0.13813830252E+03  0.12500000000E+03 0.  0.
<mgrwt>
<rscale>  0 0.12500000E+03</rscale>
<asrwt>0</asrwt>
<pdfrwt beam="1">  1       21 0.61031094E-02 0.12500000E+03</pdfrwt>
<pdfrwt beam="2">  1       21 0.15148937E-01 0.12500000E+03</pdfrwt>
<totfact> 0.72283290E+06</totfact>
</mgrwt>
</event>
<event>
 3    1  0.1592492E-001  0.1250000E+03  0.7546771E-02  0.1235069E+00
         21   -1    0    0  502  501  0.00000000000E+00  0.00000000000E+00  0.16994789932E+03  0.16994789932E+03  0.00000000000E+00 0. -1.
         21   -1    0    0  501  502 -0.00000000000E+00 -0.00000000000E+00 -0.22984985491E+02  0.22984985491E+02  0.00000000000E+00 0. -1.
         25    1    1    2    0    0  0.00000000000E+00  0.00000000000E+00  0.14696291383E+03  0.19293288481E+03  0.12500000000E+03 0.  0.
<mgrwt>
<rscale>  0 0.12500000E+03</rscale>
<asrwt>0</asrwt>
<pdfrwt beam="1">  1       21 0.26145830E-01 0.12500000E+03</pdfrwt>
<pdfrwt beam="2">  1       21 0.35361517E-02 0.12500000E+03</pdfrwt>
<totfact> 0.65697976E+06</totfact>
</mgrwt>
</event>
<event>
 3    1  0.1592492E-001  0.1250000E+03  0.7546771E-02  0.1235069E+00
         21   -1    0    0  502  501  0.00000000000E+00  0.00000000000E+00  0.36608757538E+03  0.36608757538E+03  0.00000000000E+00 0. -1.
         21   -1    0    0  501  502 -0.00000000000E+00 -0.00000000000E+00 -0.10670261060E+02  0.10670261060E+02  0.00000000000E+00 0. -1.
         25    1    1    2    0    0  0.00000000000E+00  0.00000000000E+00  0.35541731432E+03  0.37675783644E+03  0.12500000000E+03 0.  0.
<mgrwt>
<rscale>  0 0.12500000E+03</rscale>
<asrwt>0</asrwt>
<pdfrwt beam="1">  1       21 0.56321156E-01 0.12500000E+03</pdfrwt>
<pdfrwt beam="2">  1       21 0.16415789E-02 0.12500000E+03</pdfrwt>
<totfact> 0.49620995E+06</totfact>
</mgrwt>
</event>
<event>
 3    1  0.1592492E-001  0.1250000E+03  0.7546771E-02  0.1235069E+00
         21   -1    0    0  502  501  0.00000000000E+00  0.00000000000E+00  0.41862668015E+03  0.41862668015E+03  0.00000000000E+00 0. -1.
         21   -1    0    0  501  502 -0.00000000000E+00 -0.00000000000E+00 -0.93311061747E+01  0.93311061747E+01  0.00000000000E+00 0. -1.
         25    1    1    2    0    0  0.00000000000E+00  0.00000000000E+00  0.40929557397E+03  0.42795778632E+03  0.12500000000E+03 0.  0.
<mgrwt>
<rscale>  0 0.12500000E+03</rscale>
<asrwt>0</asrwt>
<pdfrwt beam="1">  1       21 0.64404090E-01 0.12500000E+03</pdfrwt>
<pdfrwt beam="2">  1       21 0.14355551E-02 0.12500000E+03</pdfrwt>
<totfact> 0.46240596E+06</totfact>
</mgrwt>
</event>
<event>
 3    1  0.1592492E-001  0.1250000E+03  0.7546771E-02  0.1235069E+00
         21   -1    0    0  502  501  0.00000000000E+00  0.00000000000E+00  0.58049693965E+02  0.58049693965E+02  0.00000000000E+00 0. -1.
         21   -1    0    0  501  502 -0.00000000000E+00 -0.00000000000E+00 -0.67291483093E+02  0.67291483093E+02  0.00000000000E+00 0. -1.
         25    1    1    2    0    0  0.00000000000E+00  0.00000000000E+00 -0.92417891288E+01  0.12534117706E+03  0.12500000000E+03 0.  0.
<mgrwt>
<rscale>  0 0.12500000E+03</rscale>
<asrwt>0</asrwt>
<pdfrwt beam="1">  1       21 0.89307222E-02 0.12500000E+03</pdfrwt>
<pdfrwt beam="2">  1       21 0.10352536E-01 0.12500000E+03</pdfrwt>
<totfact> 0.73997513E+06</totfact>
</mgrwt>
</event>
<event>
 3    1  0.1592492E-001  0.1250000E+03  0.7546771E-02  0.1235069E+00
         21   -1    0    0  502  501  0.00000000000E+00  0.00000000000E+00  0.23165622977E+03  0.23165622977E+03  0.00000000000E+00 0.  1.
         21   -1    0    0  501  502 -0.00000000000E+00 -0.00000000000E+00 -0.16862270460E+02  0.16862270460E+02  0.00000000000E+00 0.  1.
         25    1    1    2    0    0  0.00000000000E+00  0.00000000000E+00  0.21479395931E+03  0.24851850023E+03  0.12500000000E+03 0.  0.
<mgrwt>
<rscale>  0 0.12500000E+03</rscale>
<asrwt>0</asrwt>
<pdfrwt beam="1">  1       21 0.35639418E-01 0.12500000E+03</pdfrwt>
<pdfrwt beam="2">  1       21 0.25941956E-02 0.12500000E+03</pdfrwt>
<totfact> 0.60017952E+06</totfact>
</mgrwt>
</event>
<event>
 3    1  0.1592492E-001  0.1250000E+03  0.7546771E-02  0.1235069E+00
         21   -1    0    0  502  501  0.00000000000E+00  0.00000000000E+00  0.23756211102E+02  0.23756211102E+02  0.00000000000E+00 0. -1.
         21   -1    0    0  501  502 -0.00000000000E+00 -0.00000000000E+00 -0.16443068228E+03  0.16443068228E+03  0.00000000000E+00 0. -1.
         25    1    1    2    0    0  0.00000000000E+00  0.00000000000E+00 -0.14067447118E+03  0.18818689339E+03  0.12500000000E+03 0.  0.
<mgrwt>
<rscale>  0 0.12500000E+03</rscale>
<asrwt>0</asrwt>
<pdfrwt beam="1">  1       21 0.36548017E-02 0.12500000E+03</pdfrwt>
<pdfrwt beam="2">  1       21 0.25297028E-01 0.12500000E+03</pdfrwt>
<totfact> 0.66224543E+06</totfact>
</mgrwt>
</event>
<event>
 3    1  0.1592492E-001  0.1250000E+03  0.7546771E-02  0.1235069E+00
         21   -1    0    0  502  501  0.00000000000E+00  0.00000000000E+00  0.33452507150E+01  0.33452507150E+01  0.00000000000E+00 0.  1.
         21   -1    0    0  501  502 -0.00000000000E+00 -0.00000000000E+00 -0.11677002212E+04  0.11677002212E+04  0.00000000000E+00 0.  1.
         25    1    1    2    0    0  0.00000000000E+00  0.00000000000E+00 -0.11643549705E+04  0.11710454719E+04  0.12500000000E+03 0.  0.
<mgrwt>
<rscale>  0 0.12500000E+03</rscale>
<asrwt>0</asrwt>
<pdfrwt beam="1">  1       21 0.51465380E-03 0.12500000E+03</pdfrwt>
<pdfrwt beam="2">  1       21 0.17964624E+00 0.12500000E+03</pdfrwt>
<totfact> 0.19730117E+06</totfact>
</mgrwt>
</event>
<event>
 3    1  0.1592492E-001  0.1250000E+03  0.7546771E-02  0.1235069E+00
         21   -1    0    0  502  501  0.00000000000E+00  0.00000000000E+00  0.40440568637E+02  0.40440568637E+02  0.00000000000E+00 0. -1.
         21   -1    0    0  501  502 -0.00000000000E+00 -0.00000000000E+00 -0.96592360882E+02  0.96592360882E+02  0.00000000000E+00 0. -1.
         25    1    1    2    0    0  0.00000000000E+00  0.00000000000E+00 -0.56151792245E+02  0.13703292952E+03  0.12500000000E+03 0.  0.
<mgrwt>
<rscale>  0 0.12500000E+03</rscale>
<asrwt>0</asrwt>
<pdfrwt beam="1">  1       21 0.62216260E-02 0.12500000E+03</pdfrwt>
<pdfrwt beam="2">  1       21 0.14860363E-01 0.12500000E+03</pdfrwt>
<totfact> 0.72428402E+06</totfact>
</mgrwt>
</event>
<event>
 3    1  0.1592492E-001  0.1250000E+03  0.7546771E-02  0.1235069E+00
         21   -1    0    0  502  501  0.00000000000E+00  0.00000000000E+00  0.22767269993E+03  0.22767269993E+03  0.00000000000E+00 0.  1.
         21   -1    0    0  501  502 -0.00000000000E+00 -0.00000000000E+00 -0.17157305207E+02  0.17157305207E+02  0.00000000000E+00 0.  1.
         25    1    1    2    0    0  0.00000000000E+00  0.00000000000E+00  0.21051539473E+03  0.24483000514E+03  0.12500000000E+03 0.  0.
<mgrwt>
<rscale>  0 0.12500000E+03</rscale>
<asrwt>0</asrwt>
<pdfrwt beam="1">  1       21 0.35026567E-01 0.12500000E+03</pdfrwt>
<pdfrwt beam="2">  1       21 0.26395856E-02 0.12500000E+03</pdfrwt>
<totfact> 0.60368381E+06</totfact>
</mgrwt>
</event>
<event>
 3    1  0.1592492E-001  0.1250000E+03  0.7546771E-02  0.1235069E+00
         21   -1    0    0  502  501  0.00000000000E+00  0.00000000000E+00  0.39375393561E+02  0.39375393561E+02  0.00000000000E+00 0.  1.
         21   -1    0    0  501  502 -0.00000000000E+00 -0.00000000000E+00 -0.99205357628E+02  0.99205357628E+02  0.00000000000E+00 0.  1.
         25    1    1    2    0    0  0.00000000000E+00  0.00000000000E+00 -0.59829964067E+02  0.13858075119E+03  0.12500000000E+03 0.  0.
<mgrwt>
<rscale>  0 0.12500000E+03</rscale>
<asrwt>0</asrwt>
<pdfrwt beam="1">  1       21 0.60577530E-02 0.12500000E+03</pdfrwt>
<pdfrwt beam="2">  1       21 0.15262362E-01 0.12500000E+03</pdfrwt>
<totfact> 0.72225134E+06</totfact>
</mgrwt>
</event>
<event>
 3    1  0.1592492E-001  0.1250000E+03  0.7546771E-02  0.1235069E+00
         21   -1    0    0  502  501  0.00000000000E+00  0.00000000000E+00  0.13894698323E+02  0.13894698323E+02  0.00000000000E+00 0. -1.
         21   -1    0    0  501  502 -0.00000000000E+00 -0.00000000000E+00 -0.28113240814E+03  0.28113240814E+03  0.00000000000E+00 0. -1.
         25    1    1    2    0    0  0.00000000000E+00  0.00000000000E+00 -0.26723770981E+03  0.29502710646E+03  0.12500000000E+03 0.  0.
<mgrwt>
<rscale>  0 0.12500000E+03</rscale>
<asrwt>0</asrwt>
<pdfrwt beam="1">  1       21 0.21376458E-02 0.12500000E+03</pdfrwt>
<pdfrwt beam="2">  1       21 0.43251142E-01 0.12500000E+03</pdfrwt>
<totfact> 0.55871987E+06</totfact>
</mgrwt>
</event>
<event>
 3    1  0.1592492E-001  0.1250000E+03  0.7546771E-02  0.1235069E+00
         21   -1    0    0  502  501  0.00000000000E+00  0.00000000000E+00  0.17981502034E+03  0.17981502034E+03  0.00000000000E+00 0.  1.
         21   -1    0    0  501  502 -0.00000000000E+00 -0.00000000000E+00 -0.21723713585E+02  0.21723713585E+02  0.00000000000E+00 0.  1.
         25    1    1    2    0    0  0.00000000000E+00  0.00000000000E+00  0.15809130675E+03  0.20153873392E+03  0.12500000000E+03 0.  0.
<mgrwt>
<rscale>  0 0.12500000E+03</rscale>
<asrwt>0</asrwt>
<pdfrwt beam="1">  1       21 0.27663848E-01 0.12500000E+03</pdfrwt>
<pdfrwt beam="2">  1       21 0.33421099E-02 0.12500000E+03</pdfrwt>
<totfact> 0.64760901E+06</totfact>
</mgrwt>
</event>
<event>
 3    1  0.1592492E-001  0.1250000E+03  0.7546771E-02  0.1235069E+00
         21   -1    0    0  502  501  0.00000000000E+00  0.00000000000E+00  0.70726149090E+02  0.70726149090E+02  0.00000000000E+00 0.  1.
         21   -1    0    0  501  502 -0.00000000000E+00 -0.00000000000E+00 -0.55230633227E+02  0.55230633227E+02  0.00000000000E+00 0.  1.
         25    1    1    2    0    0  0.00000000000E+00  0.00000000000E+00  0.15495515863E+02  0.12595678232E+03  0.12500000000E+03 0.  0.
<mgrwt>
<rscale>  0 0.12500000E+03</rscale>
<asrwt>0</asrwt>
<pdfrwt beam="1">  1       21 0.10880946E-01 0.12500000E+03</pdfrwt>
<pdfrwt beam="2">  1       21 0.84970205E-02 0.12500000E+03</pdfrwt>
<totfact> 0.73912000E+06</totfact>
</mgrwt>
</event>
<event>
 3    1  0.1592492E-001  0.1250000E+03  0.7546771E-02  0.1235069E+00
         21   -1    0    0  502  501  0.00000000000E+00  0.00000000000E+00  0.54808710869E+03  0.54808710869E+03  0.00000000000E+00 0.  1.
         21   -1    0    0  501  502 -0.00000000000E+00 -0.00000000000E+00 -0.71270605312E+01  0.71270605312E+01  0.00000000000E+00 0.  1.
         25    1    1    2    0    0  0.00000000000E+00  0.00000000000E+00  0.54096004816E+03  0.55521416922E+03  0.12500000000E+03 0.  0.
<mgrwt>
<rscale>  0 0.12500000E+03</rscale>
<asrwt>0</asrwt>
<pdfrwt beam="1">  1       21 0.84321061E-01 0.12500000E+03</pdfrwt>
<pdfrwt beam="2">  1       21 0.10964713E-02 0.12500000E+03</pdfrwt>
<totfact> 0.39199661E+06</totfact>
</mgrwt>
</event>
<event>
 3    1  0.1592492E-001  0.1250000E+03  0.7546771E-02  0.1235069E+00
         21   -1    0    0  502  501  0.00000000000E+00  0.00000000000E+00  0.59339452954E+01  0.59339452954E+01  0.00000000000E+00 0.  1.
         21   -1    0    0  501  502 -0.00000000000E+00 -0.00000000000E+00 -0.65828884588E+03  0.65828884588E+03  0.00000000000E+00 0.  1.
         25    1    1    2    0    0  0.00000000000E+00  0.00000000000E+00 -0.65235490058E+03  0.66422279117E+03  0.12500000000E+03 0.  0.
<mgrwt>
<rscale>  0 0.12500000E+03</rscale>
<asrwt>0</asrwt>
<pdfrwt beam="1">  1       21 0.91291537E-03 0.12500000E+03</pdfrwt>
<pdfrwt beam="2">  1       21 0.10127513E+00 0.12500000E+03</pdfrwt>
<totfact> 0.34335575E+06</totfact>
</mgrwt>
</event>
<event>
 3    1  0.1592492E-001  0.1250000E+03  0.7546771E-02  0.1235069E+00
         21   -1    0    0  502  501  0.00000000000E+00  0.00000000000E+00  0.36773049744E+02  0.36773049744E+02  0.00000000000E+00 0. -1.
         21   -1    0    0  501  502 -0.00000000000E+00 -0.00000000000E+00 -0.10622589171E+03  0.10622589171E+03  0.00000000000E+00 0. -1.
         25    1    1    2    0    0  0.00000000000E+00  0.00000000000E+00 -0.69452841968E+02  0.14299894146E+03  0.12500000000E+03 0.  0.
<mgrwt>
<rscale>  0 0.12500000E+03</rscale>
<asrwt>0</asrwt>
<pdfrwt beam="1">  1       21 0.56573923E-02 0.12500000E+03</pdfrwt>
<pdfrwt beam="2">  1       21 0.16342445E-01 0.12500000E+03</pdfrwt>
<totfact> 0.71650180E+06</totfact>
</mgrwt>
</event>
<event>
 3    1  0.1592492E-001  0.1250000E+03  0.7546771E-02  0.1235069E+00
         21   -1    0    0  502  501  0.00000000000E+00  0.00000000000E+00  0.38665309917E+01  0.38665309917E+01  0.00000000000E+00 0. -1.
         21   -1    0    0  501  502 -0.00000000000E+00 -0.00000000000E+00 -0.10102725178E+04  0.10102725178E+04  0.00000000000E+00 0. -1.
         25    1    1    2    0    0  0.00000000000E+00  0.00000000000E+00 -0.10064059868E+04  0.10141390487E+04  0.12500000000E+03 0.  0.
<mgrwt>
<rscale>  0 0.12500000E+03</rscale>
<asrwt>0</asrwt>
<pdfrwt beam="1">  1       21 0.59485120E-03 0.12500000E+03</pdfrwt>
<pdfrwt beam="2">  1       21 0.15542647E+00 0.12500000E+03</pdfrwt>
<totfact> 0.23268242E+06</totfact>
</mgrwt>
</event>
<event>
 3    1  0.1592492E-001  0.1250000E+03  0.7546771E-02  0.1235069E+00
         21   -1    0    0  502  501  0.00000000000E+00  0.00000000000E+00  0.19590363723E+03  0.19590363723E+03  0.00000000000E+00 0.  1.
         21   -1    0    0  501  502 -0.00000000000E+00 -0.00000000000E+00 -0.19939650204E+02  0.19939650204E+02  0.00000000000E+00 0.  1.
         25    1    1    2    0    0  0.00000000000E+00  0.00000000000E+00  0.17596398703E+03  0.21584328743E+03  0.12500000000E+03 0.  0.
<mgrwt>
<rscale>  0 0.12500000E+03</rscale>
<asrwt>0</asrwt>
<pdfrwt beam="1">  1       21 0.30139020E-01 0.12500000E+03</pdfrwt>
<pdfrwt beam="2">  1       21 0.30676386E-02 0.12500000E+03</pdfrwt>
<totfact> 0.63249951E+06</totfact>
</mgrwt>
</event>
<event>
 3    1  0.1592492E-001  0.1250000E+03  0.7546771E-02  0.1235069E+00
         21   -1    0    0  502  501  0.00000000000E+00  0.00000000000E+00  0.13381910923E+03  0.13381910923E+03  0.00000000000E+00 0.  1.
         21   -1    0    0  501  502 -0.00000000000E+00 -0.00000000000E+00 -0.29190524601E+02  0.29190524601E+02  0.00000000000E+00 0.  1.
         25    1    1    2    0    0  0.00000000000E+00  0.00000000000E+00  0.10462858463E+03  0.16300963383E+03  0.12500000000E+03 0.  0.
<mgrwt>
<rscale>  0 0.12500000E+03</rscale>
<asrwt>0</asrwt>
<pdfrwt beam="1">  1       21 0.20587555E-01 0.12500000E+03</pdfrwt>
<pdfrwt beam="2">  1       21 0.44908500E-02 0.12500000E+03</pdfrwt>
<totfact> 0.69153609E+06</totfact>
</mgrwt>
</event>
<event>
 3    1  0.1592492E-001  0.1250000E+03  0.7546771E-02  0.1235069E+00
         21   -1    0    0  502  501  0.00000000000E+00  0.00000000000E+00  0.19426143480E+01  0.19426143480E+01  0.00000000000E+00 0. -1.
         21   -1    0    0  501  502 -0.00000000000E+00 -0.00000000000E+00 -0.20108211411E+04  0.20108211411E+04  0.00000000000E+00 0. -1.
         25    1    1    2    0    0  0.00000000000E+00  0.00000000000E+00 -0.20088785268E+04  0.20127637555E+04  0.12500000000E+03 0.  0.
<mgrwt>
<rscale>  0 0.12500000E+03</rscale>
<asrwt>0</asrwt>
<pdfrwt beam="1">  1       21 0.29886194E-03 0.12500000E+03</pdfrwt>
<pdfrwt beam="2">  1       21 0.30935896E+00 0.12500000E+03</pdfrwt>
<totfact> 0.78240154E+05</totfact>
</mgrwt>
</event>
<event>
 3    1  0.1592492E-001  0.1250000E+03  0.7546771E-02  0.1235069E+00
         21   -1    0    0  502  501  0.00000000000E+00  0.00000000000E+00  0.31739295712E+02  0.31739295712E+02  0.00000000000E+00 0. -1.
         21   -1    0    0  501  502 -0.00000000000E+00 -0.00000000000E+00 -0.12307298925E+03  0.12307298925E+03  0.00000000000E+00 0. -1.
         25    1    1    2    0    0  0.00000000000E+00  0.00000000000E+00 -0.91333693541E+02  0.15481228496E+03  0.12500000000E+03 0.  0.
<mgrwt>
<rscale>  0 0.12500000E+03</rscale>
<asrwt>0</asrwt>
<pdfrwt beam="1">  1       21 0.48829686E-02 0.12500000E+03</pdfrwt>
<pdfrwt beam="2">  1       21 0.18934306E-01 0.12500000E+03</pdfrwt>
<totfact> 0.70158997E+06</totfact>
</mgrwt>
</event>
<event>
 3    1  0.1592492E-001  0.1250000E+03  0.7546771E-02  0.1235069E+00
         21   -1    0    0  502  501  0.00000000000E+00  0.00000000000E+00  0.23171599584E+02  0.23171599584E+02  0.00000000000E+00 0. -1.
         21   -1    0    0  501  502 -0.00000000000E+00 -0.00000000000E+00 -0.16857921206E+03  0.16857921206E+03  0.00000000000E+00 0. -1.
         25    1    1    2    0    0  0.00000000000E+00  0.00000000000E+00 -0.14540761247E+03  0.19175081164E+03  0.12500000000E+03 0.  0.
<mgrwt>
<rscale>  0 0.12500000E+03</rscale>
<asrwt>0</asrwt>
<pdfrwt beam="1">  1       21 0.35648616E-02 0.12500000E+03</pdfrwt>
<pdfrwt beam="2">  1       21 0.25935263E-01 0.12500000E+03</pdfrwt>
<totfact> 0.65828405E+06</totfact>
</mgrwt>
</event>
<event>
 3    1  0.1592492E-001  0.1250000E+03  0.7546771E-02  0.1235069E+00
         21   -1    0    0  502  501  0.00000000000E+00  0.00000000000E+00  0.17569614325E+02  0.17569614325E+02  0.00000000000E+00 0. -1.
         21   -1    0    0  501  502 -0.00000000000E+00 -0.00000000000E+00 -0.22232986608E+03  0.22232986608E+03  0.00000000000E+00 0. -1.
         25    1    1    2    0    0  0.00000000000E+00  0.00000000000E+00 -0.20476025175E+03  0.23989948040E+03  0.12500000000E+03 0.  0.
<mgrwt>
<rscale>  0 0.12500000E+03</rscale>
<asrwt>0</asrwt>
<pdfrwt beam="1">  1       21 0.27030175E-02 0.12500000E+03</pdfrwt>
<pdfrwt beam="2">  1       21 0.34204596E-01 0.12500000E+03</pdfrwt>
<totfact> 0.60842390E+06</totfact>
</mgrwt>
</event>
<event>
 3    1  0.1592492E-001  0.1250000E+03  0.7546771E-02  0.1235069E+00
         21   -1    0    0  502  501  0.00000000000E+00  0.00000000000E+00  0.90939726149E+01  0.90939726149E+01  0.00000000000E+00 0. -1.
         21   -1    0    0  501  502 -0.00000000000E+00 -0.00000000000E+00 -0.42954274940E+03  0.42954274940E+03  0.00000000000E+00 0. -1.
         25    1    1    2    0    0  0.00000000000E+00  0.00000000000E+00 -0.42044877679E+03  0.43863672202E+03  0.12500000000E+03 0.  0.
<mgrwt>
<rscale>  0 0.12500000E+03</rscale>
<asrwt>0</asrwt>
<pdfrwt beam="1">  1       21 0.13990730E-02 0.12500000E+03</pdfrwt>
<pdfrwt beam="2">  1       21 0.66083484E-01 0.12500000E+03</pdfrwt>
<totfact> 0.45579935E+06</totfact>
</mgrwt>
</event>
<event>
 3    1  0.1592492E-001  0.1250000E+03  0.7546771E-02  0.1235069E+00
         21   -1    0    0  502  501  0.00000000000E+00  0.00000000000E+00  0.14501952630E+03  0.14501952630E+03  0.00000000000E+00 0.  1.
         21   -1    0    0  501  502 -0.00000000000E+00 -0.00000000000E+00 -0.26936027856E+02  0.26936027856E+02  0.00000000000E+00 0.  1.
         25    1    1    2    0    0  0.00000000000E+00  0.00000000000E+00  0.11808349844E+03  0.17195555415E+03  0.12500000000E+03 0.  0.
<mgrwt>
<rscale>  0 0.12500000E+03</rscale>
<asrwt>0</asrwt>
<pdfrwt beam="1">  1       21 0.22310696E-01 0.12500000E+03</pdfrwt>
<pdfrwt beam="2">  1       21 0.41440044E-02 0.12500000E+03</pdfrwt>
<totfact> 0.68086569E+06</totfact>
</mgrwt>
</event>
<event>
 3    1  0.1592492E-001  0.1250000E+03  0.7546771E-02  0.1235069E+00
         21   -1    0    0  502  501  0.00000000000E+00  0.00000000000E+00  0.25185270792E+02  0.25185270792E+02  0.00000000000E+00 0. -1.
         21   -1    0    0  501  502 -0.00000000000E+00 -0.00000000000E+00 -0.15510057574E+03  0.15510057574E+03  0.00000000000E+00 0. -1.
         25    1    1    2    0    0  0.00000000000E+00  0.00000000000E+00 -0.12991530495E+03  0.18028584653E+03  0.12500000000E+03 0.  0.
<mgrwt>
<rscale>  0 0.12500000E+03</rscale>
<asrwt>0</asrwt>
<pdfrwt beam="1">  1       21 0.38746570E-02 0.12500000E+03</pdfrwt>
<pdfrwt beam="2">  1       21 0.23861627E-01 0.12500000E+03</pdfrwt>
<totfact> 0.67118760E+06</totfact>
</mgrwt>
</event>
<event>
 3    1  0.1592492E-001  0.1250000E+03  0.7546771E-02  0.1235069E+00
         21   -1    0    0  502  501  0.00000000000E+00  0.00000000000E+00  0.11586385860E+04  0.11586385860E+04  0.00000000000E+00 0. -1.
         21   -1    0    0  501  502 -0.00000000000E+00 -0.00000000000E+00 -0.33714136980E+01  0.33714136980E+01  0.00000000000E+00 0. -1.
         25    1    1    2    0    0  0.00000000000E+00  0.00000000000E+00  0.11552671723E+04  0.11620099997E+04  0.12500000000E+03 0.  0.
<mgrwt>
<rscale>  0 0.12500000E+03</rscale>
<asrwt>0</asrwt>
<pdfrwt beam="1">  1       21 0.17825177E+00 0.12500000E+03</pdfrwt>
<pdfrwt beam="2">  1       21 0.51867996E-03 0.12500000E+03</pdfrwt>
<totfact> 0.19917340E+06</totfact>
</mgrwt>
</event>
<event>
 3    1  0.1592492E-001  0.1250000E+03  0.7546771E-02  0.1235069E+00
         21   -1    0    0  502  501  0.00000000000E+00  0.00000000000E+00  0.81584248733E+02  0.81584248733E+02  0.00000000000E+00 0.  1.
         21   -1    0    0  501  502 -0.00000000000E+00 -0.00000000000E+00 -0.47879953063E+02  0.47879953063E+02  0.00000000000E+00 0.  1.
         25    1    1    2    0    0  0.00000000000E+00  0.00000000000E+00  0.33704295671E+02  0.12946420180E+03  0.12500000000E+03 0.  0.
<mgrwt>
<rscale>  0 0.12500000E+03</rscale>
<asrwt>0</asrwt>
<pdfrwt beam="1">  1       21 0.12551423E-01 0.12500000E+03</pdfrwt>
<pdfrwt beam="2">  1       21 0.73661466E-02 0.12500000E+03</pdfrwt>
<totfact> 0.73436612E+06</totfact>
</mgrwt>
</event>
<event>
 3    1  0.1592492E-001  0.1250000E+03  0.7546771E-02  0.1235069E+00
         21   -1    0    0  502  501  0.00000000000E+00  0.00000000000E+00  0.47938367502E+03  0.47938367502E+03  0.00000000000E+00 0. -1.
         21   -1    0    0  501  502 -0.00000000000E+00 -0.00000000000E+00 -0.81484835707E+01  0.81484835707E+01  0.00000000000E+00 0. -1.
         25    1    1    2    0    0  0.00000000000E+00  0.00000000000E+00  0.47123519145E+03  0.48753215859E+03  0.12500000000E+03 0.  0.
<mgrwt>
<rscale>  0 0.12500000E+03</rscale>
<asrwt>0</asrwt>
<pdfrwt beam="1">  1       21 0.73751313E-01 0.12500000E+03</pdfrwt>
<pdfrwt beam="2">  1       21 0.12536132E-02 0.12500000E+03</pdfrwt>
<totfact> 0.42728410E+06</totfact>
</mgrwt>
</event>
<event>
 3    1  0.1592492E-001  0.1250000E+03  0.7546771E-02  0.1235069E+00
         21   -1    0    0  502  501  0.00000000000E+00  0.00000000000E+00  0.10678913797E+03  0.10678913797E+03  0.00000000000E+00 0. -1.
         21   -1    0    0  501  502 -0.00000000000E+00 -0.00000000000E+00 -0.36579094787E+02  0.36579094787E+02  0.00000000000E+00 0. -1.
         25    1    1    2    0    0  0.00000000000E+00  0.00000000000E+00  0.70210043183E+02  0.14336823276E+03  0.12500000000E+03 0.  0.
<mgrwt>
<rscale>  0 0.12500000E+03</rscale>
<asrwt>0</asrwt>
<pdfrwt beam="1">  1       21 0.16429098E-01 0.12500000E+03</pdfrwt>
<pdfrwt beam="2">  1       21 0.56275531E-02 0.12500000E+03</pdfrwt>
<totfact> 0.71602585E+06</totfact>
</mgrwt>
</event>
<event>
 3    1  0.1592492E-001  0.1250000E+03  0.7546771E-02  0.1235069E+00
         21   -1    0    0  502  501  0.00000000000E+00  0.00000000000E+00  0.56117096070E+03  0.56117096070E+03  0.00000000000E+00 0. -1.
         21   -1    0    0  501  502 -0.00000000000E+00 -0.00000000000E+00 -0.69608911964E+01  0.69608911964E+01  0.00000000000E+00 0. -1.
         25    1    1    2    0    0  0.00000000000E+00  0.00000000000E+00  0.55421006950E+03  0.56813185189E+03  0.12500000000E+03 0.  0.
<mgrwt>
<rscale>  0 0.12500000E+03</rscale>
<asrwt>0</asrwt>
<pdfrwt beam="1">  1       21 0.86333959E-01 0.12500000E+03</pdfrwt>
<pdfrwt beam="2">  1       21 0.10709068E-02 0.12500000E+03</pdfrwt>
<totfact> 0.38574673E+06</totfact>
</mgrwt>
</event>
<event>
 3    1  0.1592492E-001  0.1250000E+03  0.7546771E-02  0.1235069E+00
         21   -1    0    0  502  501  0.00000000000E+00  0.00000000000E+00  0.41710074001E+01  0.41710074001E+01  0.00000000000E+00 0.  1.
         21   -1    0    0  501  502 -0.00000000000E+00 -0.00000000000E+00 -0.93652435138E+03  0.93652435138E+03  0.00000000000E+00 0.  1.
         25    1    1    2    0    0  0.00000000000E+00  0.00000000000E+00 -0.93235334398E+03  0.94069535878E+03  0.12500000000E+03 0.  0.
<mgrwt>
<rscale>  0 0.12500000E+03</rscale>
<asrwt>0</asrwt>
<pdfrwt beam="1">  1       21 0.64169349E-03 0.12500000E+03</pdfrwt>
<pdfrwt beam="2">  1       21 0.14408066E+00 0.12500000E+03</pdfrwt>
<totfact> 0.25162194E+06</totfact>
</mgrwt>
</event>
<event>
 3    1  0.1592492E-001  0.1250000E+03  0.7546771E-02  0.1235069E+00
         21   -1    0    0  502  501  0.00000000000E+00  0.00000000000E+00  0.64463017574E+01  0.64463017574E+01  0.00000000000E+00 0. -1.
         21   -1    0    0  501  502 -0.00000000000E+00 -0.00000000000E+00 -0.60596759925E+03  0.60596759925E+03  0.00000000000E+00 0. -1.
         25    1    1    2    0    0  0.00000000000E+00  0.00000000000E+00 -0.59952129750E+03  0.61241390101E+03  0.12500000000E+03 0.  0.
<mgrwt>
<rscale>  0 0.12500000E+03</rscale>
<asrwt>0</asrwt>
<pdfrwt beam="1">  1       21 0.99173880E-03 0.12500000E+03</pdfrwt>
<pdfrwt beam="2">  1       21 0.93225778E-01 0.12500000E+03</pdfrwt>
<totfact> 0.36537180E+06</totfact>
</mgrwt>
</event>
<event>
 3    1  0.1592492E-001  0.1250000E+03  0.7546771E-02  0.1235069E+00
         21   -1    0    0  502  501  0.00000000000E+00  0.00000000000E+00  0.11774543279E+02  0.11774543279E+02  0.00000000000E+00 0. -1.
         21   -1    0    0  501  502 -0.00000000000E+00 -0.00000000000E+00 -0.33175384449E+03  0.33175384449E+03  0.00000000000E+00 0. -1.
         25    1    1    2    0    0  0.00000000000E+00  0.00000000000E+00 -0.31997930121E+03  0.34352838777E+03  0.12500000000E+03 0.  0.
<mgrwt>
<rscale>  0 0.12500000E+03</rscale>
<asrwt>0</asrwt>
<pdfrwt beam="1">  1       21 0.18114684E-02 0.12500000E+03</pdfrwt>
<pdfrwt beam="2">  1       21 0.51039048E-01 0.12500000E+03</pdfrwt>
<totfact> 0.52019960E+06</totfact>
</mgrwt>
</event>
<event>
 3    1  0.1592492E-001  0.1250000E+03  0.7546771E-02  0.1235069E+00
         21   -1    0    0  502  501  0.00000000000E+00  0.00000000000E+00  0.65644355834E+01  0.65644355834E+01  0.00000000000E+00 0.  1.
         21   -1    0    0  501  502 -0.00000000000E+00 -0.00000000000E+00 -0.59506258388E+03  0.59506258388E+03  0.00000000000E+00 0.  1.
         25    1    1    2    0    0  0.00000000000E+00  0.00000000000E+00 -0.58849814830E+03  0.60162701946E+03  0.12500000000E+03 0.  0.
<mgrwt>
<rscale>  0 0.12500000E+03</rscale>
<asrwt>0</asrwt>
<pdfrwt beam="1">  1       21 0.10099132E-02 0.12500000E+03</pdfrwt>
<pdfrwt beam="2">  1       21 0.91548084E-01 0.12500000E+03</pdfrwt>
<totfact> 0.37019156E+06</totfact>
</mgrwt>
</event>
<event>
 3    1  0.1592492E-001  0.1250000E+03  0.7546771E-02  0.1235069E+00
         21   -1    0    0  502  501  0.00000000000E+00  0.00000000000E+00  0.25873280032E+03  0.25873280032E+03  0.00000000000E+00 0.  1.
         21   -1    0    0  501  502 -0.00000000000E+00 -0.00000000000E+00 -0.15097621930E+02  0.15097621930E+02  0.00000000000E+00 0.  1.
         25    1    1    2    0    0  0.00000000000E+00  0.00000000000E+00  0.24363517839E+03  0.27383042225E+03  0.12500000000E+03 0.  0.
<mgrwt>
<rscale>  0 0.12500000E+03</rscale>
<asrwt>0</asrwt>
<pdfrwt beam="1">  1       21 0.39805043E-01 0.12500000E+03</pdfrwt>
<pdfrwt beam="2">  1       21 0.23227112E-02 0.12500000E+03</pdfrwt>
<totfact> 0.57703588E+06</totfact>
</mgrwt>
</event>
<event>
 3    1  0.1592492E-001  0.1250000E+03  0.7546771E-02  0.1235069E+00
         21   -1    0    0  502  501  0.00000000000E+00  0.00000000000E+00  0.79998585733E+02  0.79998585733E+02  0.00000000000E+00 0. -1.
         21   -1    0    0  501  502 -0.00000000000E+00 -0.00000000000E+00 -0.48828988215E+02  0.48828988215E+02  0.00000000000E+00 0. -1.
         25    1    1    2    0    0  0.00000000000E+00  0.00000000000E+00  0.31169597518E+02  0.12882757395E+03  0.12500000000E+03 0.  0.
<mgrwt>
<rscale>  0 0.12500000E+03</rscale>
<asrwt>0</asrwt>
<pdfrwt beam="1">  1       21 0.12307475E-01 0.12500000E+03</pdfrwt>
<pdfrwt beam="2">  1       21 0.75121521E-02 0.12500000E+03</pdfrwt>
<totfact> 0.73522048E+06</totfact>
</mgrwt>
</event>
<event>
 3    1  0.1592492E-001  0.1250000E+03  0.7546771E-02  0.1235069E+00
         21   -1    0    0  502  501  0.00000000000E+00  0.00000000000E+00  0.12221828486E+03  0.12221828486E+03  0.00000000000E+00 0.  1.
         21   -1    0    0  501  502 -0.00000000000E+00 -0.00000000000E+00 -0.31961256897E+02  0.31961256897E+02  0.00000000000E+00 0.  1.
         25    1    1    2    0    0  0.00000000000E+00  0.00000000000E+00  0.90257027967E+02  0.15417954176E+03  0.12500000000E+03 0.  0.
<mgrwt>
<rscale>  0 0.12500000E+03</rscale>
<asrwt>0</asrwt>
<pdfrwt beam="1">  1       21 0.18802813E-01 0.12500000E+03</pdfrwt>
<pdfrwt beam="2">  1       21 0.49171165E-02 0.12500000E+03</pdfrwt>
<totfact> 0.70237775E+06</totfact>
</mgrwt>
</event>
<event>
 3    1  0.1592492E-001  0.1250000E+03  0.7546771E-02  0.1235069E+00
         21   -1    0    0  502  501  0.00000000000E+00  0.00000000000E+00  0.42825323304E+03  0.42825323304E+03  0.00000000000E+00 0.  1.
         21   -1    0    0  501  502 -0.00000000000E+00 -0.00000000000E+00 -0.91213555407E+01  0.91213555407E+01  0.00000000000E+00 0.  1.
         25    1    1    2    0    0  0.00000000000E+00  0.00000000000E+00  0.41913187750E+03  0.43737458858E+03  0.12500000000E+03 0.  0.
<mgrwt>
<rscale>  0 0.12500000E+03</rscale>
<asrwt>0</asrwt>
<pdfrwt beam="1">  1       21 0.65885097E-01 0.12500000E+03</pdfrwt>
<pdfrwt beam="2">  1       21 0.14032858E-02 0.12500000E+03</pdfrwt>
<totfact> 0.45657266E+06</totfact>
</mgrwt>
</event>
<event>
 3    1  0.1592492E-001  0.1250000E+03  0.7546771E-02  0.1235069E+00
         21   -1    0    0  502  501  0.00000000000E+00  0.00000000000E+00  0.58662660344E+01  0.58662660344E+01  0.00000000000E+00 0. -1.
         21   -1    0    0  501  502 -0.00000000000E+00 -0.00000000000E+00 -0.66588354109E+03  0.66588354109E+03  0.00000000000E+00 0. -1.
         25    1    1    2    0    0  0.00000000000E+00  0.00000000000E+00 -0.66001727506E+03  0.67174980713E+03  0.12500000000E+03 0.  0.
<mgrwt>
<rscale>  0 0.12500000E+03</rscale>
<asrwt>0</asrwt>
<pdfrwt beam="1">  1       21 0.90250279E-03 0.12500000E+03</pdfrwt>
<pdfrwt beam="2">  1       21 0.10244358E+00 0.12500000E+03</pdfrwt>
<totfact> 0.34027991E+06</totfact>
</mgrwt>
</event>
<event>
 3    1  0.1592492E-001  0.1250000E+03  0.7546771E-02  0.1235069E+00
         21   -1    0    0  502  501  0.00000000000E+00  0.00000000000E+00  0.21160825705E+03  0.21160825705E+03  0.00000000000E+00 0.  1.
         21   -1    0    0  501  502 -0.00000000000E+00 -0.00000000000E+00 -0.18459818414E+02  0.18459818414E+02  0.00000000000E+00 0.  1.
         25    1    1    2    0    0  0.00000000000E+00  0.00000000000E+00  0.19314843864E+03  0.23006807546E+03  0.12500000000E+03 0.  0.
<mgrwt>
<rscale>  0 0.12500000E+03</rscale>
<asrwt>0</asrwt>
<pdfrwt beam="1">  1       21 0.32555115E-01 0.12500000E+03</pdfrwt>
<pdfrwt beam="2">  1       21 0.28399722E-02 0.12500000E+03</pdfrwt>
<totfact> 0.61807206E+06</totfact>
</mgrwt>
</event>
<event>
 3    1  0.1592492E-001  0.1250000E+03  0.7546771E-02  0.1235069E+00
         21   -1    0    0  502  501  0.00000000000E+00  0.00000000000E+00  0.79292430741E+03  0.79292430741E+03  0.00000000000E+00 0.  1.
         21   -1    0    0  501  502 -0.00000000000E+00 -0.00000000000E+00 -0.49263844777E+01  0.49263844777E+01  0.00000000000E+00 0.  1.
         25    1    1    2    0    0  0.00000000000E+00  0.00000000000E+00  0.78799792293E+03  0.79785069189E+03  0.12500000000E+03 0.  0.
<mgrwt>
<rscale>  0 0.12500000E+03</rscale>
<asrwt>0</asrwt>
<pdfrwt beam="1">  1       21 0.12198825E+00 0.12500000E+03</pdfrwt>
<pdfrwt beam="2">  1       21 0.75790593E-03 0.12500000E+03</pdfrwt>
<totfact> 0.29434173E+06</totfact>
</mgrwt>
</event>
<event>
 3    1  0.1592492E-001  0.1250000E+03  0.7546771E-02  0.1235069E+00
         21   -1    0    0  502  501  0.00000000000E+00  0.00000000000E+00  0.23870988930E+02  0.23870988930E+02  0.00000000000E+00 0. -1.
         21   -1    0    0  501  502 -0.00000000000E+00 -0.00000000000E+00 -0.16364005745E+03  0.16364005745E+03  0.00000000000E+00 0. -1.
         25    1    1    2    0    0  0.00000000000E+00  0.00000000000E+00 -0.13976906852E+03  0.18751104638E+03  0.12500000000E+03 0.  0.
<mgrwt>
<rscale>  0 0.12500000E+03</rscale>
<asrwt>0</asrwt>
<pdfrwt beam="1">  1       21 0.36724598E-02 0.12500000E+03</pdfrwt>
<pdfrwt beam="2">  1       21 0.25175394E-01 0.12500000E+03</pdfrwt>
<totfact> 0.66300161E+06</totfact>
</mgrwt>
</event>
<event>
 3    1  0.1592492E-001  0.1250000E+03  0.7546771E-02  0.1235069E+00
         21   -1    0    0  502  501  0.00000000000E+00  0.00000000000E+00  0.17826920034E+04  0.17826920034E+04  0.00000000000E+00 0.  1.
         21   -1    0    0  501  502 -0.00000000000E+00 -0.00000000000E+00 -0.21912085725E+01  0.21912085725E+01  0.00000000000E+00 0.  1.
         25    1    1    2    0    0  0.00000000000E+00  0.00000000000E+00  0.17805007948E+04  0.17848832120E+04  0.12500000000E+03 0.  0.
<mgrwt>
<rscale>  0 0.12500000E+03</rscale>
<asrwt>0</asrwt>
<pdfrwt beam="1">  1       21 0.27425915E+00 0.12500000E+03</pdfrwt>
<pdfrwt beam="2">  1       21 0.33711044E-03 0.12500000E+03</pdfrwt>
<totfact> 0.10245056E+06</totfact>
</mgrwt>
</event>
<event>
 3    1  0.1592492E-001  0.1250000E+03  0.7546771E-02  0.1235069E+00
         21   -1    0    0  502  501  0.00000000000E+00  0.00000000000E+00  0.43772449911E+02  0.43772449911E+02  0.00000000000E+00 0. -1.
         21   -1    0    0  501  502 -0.00000000000E+00 -0.00000000000E+00 -0.89239921639E+02  0.89239921639E+02  0.00000000000E+00 0. -1.
         25    1    1    2    0    0  0.00000000000E+00  0.00000000000E+00 -0.45467471728E+02  0.13301237155E+03  0.12500000000E+03 0.  0.
<mgrwt>
<rscale>  0 0.12500000E+03</rscale>
<asrwt>0</asrwt>
<pdfrwt beam="1">  1       21 0.67342231E-02 0.12500000E+03</pdfrwt>
<pdfrwt beam="2">  1       21 0.13729219E-01 0.12500000E+03</pdfrwt>
<totfact> 0.72960746E+06</totfact>
</mgrwt>
</event>
<event>
 3    1  0.1592492E-001  0.1250000E+03  0.7546771E-02  0.1235069E+00
         21   -1    0    0  502  501  0.00000000000E+00  0.00000000000E+00  0.19289749251E+03  0.19289749251E+03  0.00000000000E+00 0.  1.
         21   -1    0    0  501  502 -0.00000000000E+00 -0.00000000000E+00 -0.20250392834E+02  0.20250392834E+02  0.00000000000E+00 0.  1.
         25    1    1    2    0    0  0.00000000000E+00  0.00000000000E+00  0.17264709967E+03  0.21314788534E+03  0.12500000000E+03 0.  0.
<mgrwt>
<rscale>  0 0.12500000E+03</rscale>
<asrwt>0</asrwt>
<pdfrwt beam="1">  1       21 0.29676536E-01 0.12500000E+03</pdfrwt>
<pdfrwt beam="2">  1       21 0.31154452E-02 0.12500000E+03</pdfrwt>
<totfact> 0.63529857E+06</totfact>
</mgrwt>
</event>
<event>
 3    1  0.1592492E-001  0.1250000E+03  0.7546771E-02  0.1235069E+00
         21   -1    0    0  502  501  0.00000000000E+00  0.00000000000E+00  0.70890132425E+02  0.70890132425E+02  0.00000000000E+00 0.  1.
         21   -1    0    0  501  502 -0.00000000000E+00 -0.00000000000E+00 -0.55102873508E+02  0.55102873508E+02  0.00000000000E+00 0.  1.
         25    1    1    2    0    0  0.00000000000E+00  0.00000000000E+00  0.15787258916E+02  0.12599300593E+03  0.12500000000E+03 0.  0.
<mgrwt>
<rscale>  0 0.12500000E+03</rscale>
<asrwt>0</asrwt>
<pdfrwt beam="1">  1       21 0.10906174E-01 0.12500000E+03</pdfrwt>
<pdfrwt beam="2">  1       21 0.84773651E-02 0.12500000E+03</pdfrwt>
<totfact> 0.73907003E+06</totfact>
</mgrwt>
</event>
<event>
 3    1  0.1592492E-001  0.1250000E+03  0.7546771E-02  0.1235069E+00
         21   -1    0    0  502  501  0.00000000000E+00  0.00000000000E+00  0.27053976486E+03  0.27053976486E+03  0.00000000000E+00 0.  1.
         21   -1    0    0  501  502 -0.00000000000E+00 -0.00000000000E+00 -0.14438727712E+02  0.14438727712E+02  0.00000000000E+00 0.  1.
         25    1    1    2    0    0  0.00000000000E+00  0.00000000000E+00  0.25610103715E+03  0.28497849257E+03  0.12500000000E+03 0.  0.
<mgrwt>
<rscale>  0 0.12500000E+03</rscale>
<asrwt>0</asrwt>
<pdfrwt beam="1">  1       21 0.41621498E-01 0.12500000E+03</pdfrwt>
<pdfrwt beam="2">  1       21 0.22213429E-02 0.12500000E+03</pdfrwt>
<totfact> 0.56728092E+06</totfact>
</mgrwt>
</event>
<event>
 3    1  0.1592492E-001  0.1250000E+03  0.7546771E-02  0.1235069E+00
         21   -1    0    0  502  501  0.00000000000E+00  0.00000000000E+00  0.32594896042E+02  0.32594896042E+02  0.00000000000E+00 0. -1.
         21   -1    0    0  501  502 -0.00000000000E+00 -0.00000000000E+00 -0.11984238253E+03  0.11984238253E+03  0.00000000000E+00 0. -1.
         25    1    1    2    0    0  0.00000000000E+00  0.00000000000E+00 -0.87247486486E+02  0.15243727857E+03  0.12500000000E+03 0.  0.
<mgrwt>
<rscale>  0 0.12500000E+03</rscale>
<asrwt>0</asrwt>
<pdfrwt beam="1">  1       21 0.50145994E-02 0.12500000E+03</pdfrwt>
<pdfrwt beam="2">  1       21 0.18437290E-01 0.12500000E+03</pdfrwt>
<totfact> 0.70454361E+06</totfact>
</mgrwt>
</event>
<event>
 3    1  0.1592492E-001  0.1250000E+03  0.7546771E-02  0.1235069E+00
         21   -1    0    0  502  501  0.00000000000E+00  0.00000000000E+00  0.12775345508E+04  0.12775345508E+04  0.00000000000E+00 0. -1.
         21   -1    0    0  501  502 -0.00000000000E+00 -0.00000000000E+00 -0.30576472453E+01  0.30576472453E+01  0.00000000000E+00 0. -1.
         25    1    1    2    0    0  0.00000000000E+00  0.00000000000E+00  0.12744769035E+04  0.12805921980E+04  0.12500000000E+03 0.  0.
<mgrwt>
<rscale>  0 0.12500000E+03</rscale>
<asrwt>0</asrwt>
<pdfrwt beam="1">  1       21 0.19654335E+00 0.12500000E+03</pdfrwt>
<pdfrwt beam="2">  1       21 0.47040829E-03 0.12500000E+03</pdfrwt>
<totfact> 0.17604509E+06</totfact>
</mgrwt>
</event>
<event>
 3    1  0.1592492E-001  0.1250000E+03  0.7546771E-02  0.1235069E+00
         21   -1    0    0  502  501  0.00000000000E+00  0.00000000000E+00  0.47073298045E+01  0.47073298045E+01  0.00000000000E+00 0.  1.
         21   -1    0    0  501  502 -0.00000000000E+00 -0.00000000000E+00 -0.82982288521E+03  0.82982288521E+03  0.00000000000E+00 0.  1.
         25    1    1    2    0    0  0.00000000000E+00  0.00000000000E+00 -0.82511555541E+03  0.83453021501E+03  0.12500000000E+03 0.  0.
<mgrwt>
<rscale>  0 0.12500000E+03</rscale>
<asrwt>0</asrwt>
<pdfrwt beam="1">  1       21 0.72420420E-03 0.12500000E+03</pdfrwt>
<pdfrwt beam="2">  1       21 0.12766513E+00 0.12500000E+03</pdfrwt>
<totfact> 0.28250241E+06</totfact>
</mgrwt>
</event>
<event>
 3    1  0.1592492E-001  0.1250000E+03  0.7546771E-02  0.1235069E+00
         21   -1    0    0  502  501  0.00000000000E+00  0.00000000000E+00  0.51047037382E+02  0.51047037382E+02  0.00000000000E+00 0. -1.
         21   -1    0    0  501  502 -0.00000000000E+00 -0.00000000000E+00 -0.76522560375E+02  0.76522560375E+02  0.00000000000E+00 0. -1.
         25    1    1    2    0    0  0.00000000000E+00  0.00000000000E+00 -0.25475522993E+02  0.12756959776E+03  0.12500000000E+03 0.  0.
<mgrwt>
<rscale>  0 0.12500000E+03</rscale>
<asrwt>0</asrwt>
<pdfrwt beam="1">  1       21 0.78533904E-02 0.12500000E+03</pdfrwt>
<pdfrwt beam="2">  1       21 0.11772702E-01 0.12500000E+03</pdfrwt>
<totfact> 0.73691786E+06</totfact>
</mgrwt>
</event>
<event>
 3    1  0.1592492E-001  0.1250000E+03  0.7546771E-02  0.1235069E+00
         21   -1    0    0  502  501  0.00000000000E+00  0.00000000000E+00  0.10943765947E+02  0.10943765947E+02  0.00000000000E+00 0.  1.
         21   -1    0    0  501  502 -0.00000000000E+00 -0.00000000000E+00 -0.35693837194E+03  0.35693837194E+03  0.00000000000E+00 0.  1.
         25    1    1    2    0    0  0.00000000000E+00  0.00000000000E+00 -0.34599460599E+03  0.36788213788E+03  0.12500000000E+03 0.  0.
<mgrwt>
<rscale>  0 0.12500000E+03</rscale>
<asrwt>0</asrwt>
<pdfrwt beam="1">  1       21 0.16836564E-02 0.12500000E+03</pdfrwt>
<pdfrwt beam="2">  1       21 0.54913592E-01 0.12500000E+03</pdfrwt>
<totfact> 0.50244298E+06</totfact>
</mgrwt>
</event>
<event>
 3    1  0.1592492E-001  0.1250000E+03  0.7546771E-02  0.1235069E+00
         21   -1    0    0  502  501  0.00000000000E+00  0.00000000000E+00  0.92325060359E+03  0.92325060359E+03  0.00000000000E+00 0.  1.
         21   -1    0    0  501  502 -0.00000000000E+00 -0.00000000000E+00 -0.42309747590E+01  0.42309747590E+01  0.00000000000E+00 0.  1.
         25    1    1    2    0    0  0.00000000000E+00  0.00000000000E+00  0.91901962883E+03  0.92748157835E+03  0.12500000000E+03 0.  0.
<mgrwt>
<rscale>  0 0.12500000E+03</rscale>
<asrwt>0</asrwt>
<pdfrwt beam="1">  1       21 0.14203839E+00 0.12500000E+03</pdfrwt>
<pdfrwt beam="2">  1       21 0.65091993E-03 0.12500000E+03</pdfrwt>
<totfact> 0.25524178E+06</totfact>
</mgrwt>
</event>
<event>
 3    1  0.1592492E-001  0.1250000E+03  0.7546771E-02  0.1235069E+00
         21   -1    0    0  502  501  0.00000000000E+00  0.00000000000E+00  0.14580354938E+01  0.14580354938E+01  0.00000000000E+00 0.  1.
         21   -1    0    0  501  502 -0.00000000000E+00 -0.00000000000E+00 -0.26791185924E+04  0.26791185924E+04  0.00000000000E+00 0.  1.
         25    1    1    2    0    0  0.00000000000E+00  0.00000000000E+00 -0.26776605569E+04  0.26805766279E+04  0.12500000000E+03 0.  0.
<mgrwt>
<rscale>  0 0.12500000E+03</rscale>
<asrwt>0</asrwt>
<pdfrwt beam="1">  1       21 0.22431365E-03 0.12500000E+03</pdfrwt>
<pdfrwt beam="2">  1       21 0.41217118E+00 0.12500000E+03</pdfrwt>
<totfact> 0.30280843E+05</totfact>
</mgrwt>
</event>
<event>
 3    1  0.1592492E-001  0.1250000E+03  0.7546771E-02  0.1235069E+00
         21   -1    0    0  502  501  0.00000000000E+00  0.00000000000E+00  0.19614038995E+03  0.19614038995E+03  0.00000000000E+00 0. -1.
         21   -1    0    0  501  502 -0.00000000000E+00 -0.00000000000E+00 -0.19915581900E+02  0.19915581900E+02  0.00000000000E+00 0. -1.
         25    1    1    2    0    0  0.00000000000E+00  0.00000000000E+00  0.17622480805E+03  0.21605597185E+03  0.12500000000E+03 0.  0.
<mgrwt>
<rscale>  0 0.12500000E+03</rscale>
<asrwt>0</asrwt>
<pdfrwt beam="1">  1       21 0.30175443E-01 0.12500000E+03</pdfrwt>
<pdfrwt beam="2">  1       21 0.30639358E-02 0.12500000E+03</pdfrwt>
<totfact> 0.63227958E+06</totfact>
</mgrwt>
</event>
<event>
 3    1  0.1592492E-001  0.1250000E+03  0.7546771E-02  0.1235069E+00
         21   -1    0    0  502  501  0.00000000000E+00  0.00000000000E+00  0.63364208462E+02  0.63364208462E+02  0.00000000000E+00 0. -1.
         21   -1    0    0  501  502 -0.00000000000E+00 -0.00000000000E+00 -0.61647578260E+02  0.61647578260E+02  0.00000000000E+00 0. -1.
         25    1    1    2    0    0  0.00000000000E+00  0.00000000000E+00  0.17166302018E+01  0.12501178672E+03  0.12500000000E+03 0.  0.
<mgrwt>
<rscale>  0 0.12500000E+03</rscale>
<asrwt>0</asrwt>
<pdfrwt beam="1">  1       21 0.97483398E-02 0.12500000E+03</pdfrwt>
<pdfrwt beam="2">  1       21 0.94842428E-02 0.12500000E+03</pdfrwt>
<totfact> 0.74041989E+06</totfact>
</mgrwt>
</event>
<event>
 3    1  0.1592492E-001  0.1250000E+03  0.7546771E-02  0.1235069E+00
         21   -1    0    0  502  501  0.00000000000E+00  0.00000000000E+00  0.69353537624E+02  0.69353537624E+02  0.00000000000E+00 0. -1.
         21   -1    0    0  501  502 -0.00000000000E+00 -0.00000000000E+00 -0.56323731042E+02  0.56323731042E+02  0.00000000000E+00 0. -1.
         25    1    1    2    0    0  0.00000000000E+00  0.00000000000E+00  0.13029806582E+02  0.12567726867E+03  0.12500000000E+03 0.  0.
<mgrwt>
<rscale>  0 0.12500000E+03</rscale>
<asrwt>0</asrwt>
<pdfrwt beam="1">  1       21 0.10669775E-01 0.12500000E+03</pdfrwt>
<pdfrwt beam="2">  1       21 0.86651895E-02 0.12500000E+03</pdfrwt>
<totfact> 0.73950694E+06</totfact>
</mgrwt>
</event>
<event>
 3    1  0.1592492E-001  0.1250000E+03  0.7546771E-02  0.1235069E+00
         21   -1    0    0  502  501  0.00000000000E+00  0.00000000000E+00  0.23135145055E+02  0.23135145055E+02  0.00000000000E+00 0.  1.
         21   -1    0    0  501  502 -0.00000000000E+00 -0.00000000000E+00 -0.16884484583E+03  0.16884484583E+03  0.00000000000E+00 0.  1.
         25    1    1    2    0    0  0.00000000000E+00  0.00000000000E+00 -0.14570970077E+03  0.19197999088E+03  0.12500000000E+03 0.  0.
<mgrwt>
<rscale>  0 0.12500000E+03</rscale>
<asrwt>0</asrwt>
<pdfrwt beam="1">  1       21 0.35592529E-02 0.12500000E+03</pdfrwt>
<pdfrwt beam="2">  1       21 0.25976131E-01 0.12500000E+03</pdfrwt>
<totfact> 0.65803079E+06</totfact>
</mgrwt>
</event>
<event>
 3    1  0.1592492E-001  0.1250000E+03  0.7546771E-02  0.1235069E+00
         21   -1    0    0  502  501  0.00000000000E+00  0.00000000000E+00  0.16947784481E+02  0.16947784481E+02  0.00000000000E+00 0. -1.
         21   -1    0    0  501  502 -0.00000000000E+00 -0.00000000000E+00 -0.23048735393E+03  0.23048735393E+03  0.00000000000E+00 0. -1.
         25    1    1    2    0    0  0.00000000000E+00  0.00000000000E+00 -0.21353956945E+03  0.24743513841E+03  0.12500000000E+03 0.  0.
<mgrwt>
<rscale>  0 0.12500000E+03</rscale>
<asrwt>0</asrwt>
<pdfrwt beam="1">  1       21 0.26073516E-02 0.12500000E+03</pdfrwt>
<pdfrwt beam="2">  1       21 0.35459591E-01 0.12500000E+03</pdfrwt>
<totfact> 0.60120512E+06</totfact>
</mgrwt>
</event>
<event>
 3    1  0.1592492E-001  0.1250000E+03  0.7546771E-02  0.1235069E+00
         21   -1    0    0  502  501  0.00000000000E+00  0.00000000000E+00  0.17308939516E+04  0.17308939516E+04  0.00000000000E+00 0. -1.
         21   -1    0    0  501  502 -0.00000000000E+00 -0.00000000000E+00 -0.22567818186E+01  0.22567818186E+01  0.00000000000E+00 0. -1.
         25    1    1    2    0    0  0.00000000000E+00  0.00000000000E+00  0.17286371698E+04  0.17331507334E+04  0.12500000000E+03 0.  0.
<mgrwt>
<rscale>  0 0.12500000E+03</rscale>
<asrwt>0</asrwt>
<pdfrwt beam="1">  1       21 0.26629032E+00 0.12500000E+03</pdfrwt>
<pdfrwt beam="2">  1       21 0.34719859E-03 0.12500000E+03</pdfrwt>
<totfact> 0.10861275E+06</totfact>
</mgrwt>
</event>
<event>
 3    1  0.1592492E-001  0.1250000E+03  0.7546771E-02  0.1235069E+00
         21   -1    0    0  502  501  0.00000000000E+00  0.00000000000E+00  0.49652678885E+01  0.49652678885E+01  0.00000000000E+00 0. -1.
         21   -1    0    0  501  502 -0.00000000000E+00 -0.00000000000E+00 -0.78671485361E+03  0.78671485361E+03  0.00000000000E+00 0. -1.
         25    1    1    2    0    0  0.00000000000E+00  0.00000000000E+00 -0.78174958572E+03  0.79168012150E+03  0.12500000000E+03 0.  0.
<mgrwt>
<rscale>  0 0.12500000E+03</rscale>
<asrwt>0</asrwt>
<pdfrwt beam="1">  1       21 0.76388708E-03 0.12500000E+03</pdfrwt>
<pdfrwt beam="2">  1       21 0.12103310E+00 0.12500000E+03</pdfrwt>
<totfact> 0.29640327E+06</totfact>
</mgrwt>
</event>
<event>
 3    1  0.1592492E-001  0.1250000E+03  0.7546771E-02  0.1235069E+00
         21   -1    0    0  502  501  0.00000000000E+00  0.00000000000E+00  0.23027075374E+03  0.23027075374E+03  0.00000000000E+00 0.  1.
         21   -1    0    0  501  502 -0.00000000000E+00 -0.00000000000E+00 -0.16963726121E+02  0.16963726121E+02  0.00000000000E+00 0.  1.
         25    1    1    2    0    0  0.00000000000E+00  0.00000000000E+00  0.21330702762E+03  0.24723447986E+03  0.12500000000E+03 0.  0.
<mgrwt>
<rscale>  0 0.12500000E+03</rscale>
<asrwt>0</asrwt>
<pdfrwt beam="1">  1       21 0.35426268E-01 0.12500000E+03</pdfrwt>
<pdfrwt beam="2">  1       21 0.26098042E-02 0.12500000E+03</pdfrwt>
<totfact> 0.60139541E+06</totfact>
</mgrwt>
</event>
<event>
 3    1  0.1592492E-001  0.1250000E+03  0.7546771E-02  0.1235069E+00
         21   -1    0    0  502  501  0.00000000000E+00  0.00000000000E+00  0.68015650226E+02  0.68015650226E+02  0.00000000000E+00 0.  1.
         21   -1    0    0  501  502 -0.00000000000E+00 -0.00000000000E+00 -0.57431635029E+02  0.57431635029E+02  0.00000000000E+00 0.  1.
         25    1    1    2    0    0  0.00000000000E+00  0.00000000000E+00  0.10584015197E+02  0.12544728525E+03  0.12500000000E+03 0.  0.
<mgrwt>
<rscale>  0 0.12500000E+03</rscale>
<asrwt>0</asrwt>
<pdfrwt beam="1">  1       21 0.10463946E-01 0.12500000E+03</pdfrwt>
<pdfrwt beam="2">  1       21 0.88356362E-02 0.12500000E+03</pdfrwt>
<totfact> 0.73982776E+06</totfact>
</mgrwt>
</event>
<event>
 3    1  0.1592492E-001  0.1250000E+03  0.7546771E-02  0.1235069E+00
         21   -1    0    0  502  501  0.00000000000E+00  0.00000000000E+00  0.41435564325E+02  0.41435564325E+02  0.00000000000E+00 0. -1.
         21   -1    0    0  501  502 -0.00000000000E+00 -0.00000000000E+00 -0.94272880402E+02  0.94272880402E+02  0.00000000000E+00 0. -1.
         25    1    1    2    0    0  0.00000000000E+00  0.00000000000E+00 -0.52837316078E+02  0.13570844473E+03  0.12500000000E+03 0.  0.
<mgrwt>
<rscale>  0 0.12500000E+03</rscale>
<asrwt>0</asrwt>
<pdfrwt beam="1">  1       21 0.63747022E-02 0.12500000E+03</pdfrwt>
<pdfrwt beam="2">  1       21 0.14503520E-01 0.12500000E+03</pdfrwt>
<totfact> 0.72602805E+06</totfact>
</mgrwt>
</event>
<event>
 3    1  0.1592492E-001  0.1250000E+03  0.7546771E-02  0.1235069E+00
         21   -1    0    0  502  501  0.00000000000E+00  0.00000000000E+00  0.87583459814E+01  0.87583459814E+01  0.00000000000E+00 0. -1.
         21   -1    0    0  501  502 -0.00000000000E+00 -0.00000000000E+00 -0.44600316182E+03  0.44600316182E+03  0.00000000000E+00 0. -1.
         25    1    1    2    0    0  0.00000000000E+00  0.00000000000E+00 -0.43724481584E+03  0.45476150780E+03  0.12500000000E+03 0.  0.
<mgrwt>
<rscale>  0 0.12500000E+03</rscale>
<asrwt>0</asrwt>
<pdfrwt beam="1">  1       21 0.13474377E-02 0.12500000E+03</pdfrwt>
<pdfrwt beam="2">  1       21 0.68615878E-01 0.12500000E+03</pdfrwt>
<totfact> 0.44608712E+06</totfact>
</mgrwt>
</event>
<event>
 3    1  0.1592492E-001  0.1250000E+03  0.7546771E-02  0.1235069E+00
         21   -1    0    0  502  501  0.00000000000E+00  0.00000000000E+00  0.81082923469E+02  0.81082923469E+02  0.00000000000E+00 0.  1.
         21   -1    0    0  501  502 -0.00000000000E+00 -0.00000000000E+00 -0.48175988641E+02  0.48175988641E+02  0.00000000000E+00 0.  1.
         25    1    1    2    0    0  0.00000000000E+00  0.00000000000E+00  0.32906934829E+02  0.12925891211E+03  0.12500000000E+03 0.  0.
<mgrwt>
<rscale>  0 0.12500000E+03</rscale>
<asrwt>0</asrwt>
<pdfrwt beam="1">  1       21 0.12474296E-01 0.12500000E+03</pdfrwt>
<pdfrwt beam="2">  1       21 0.74116906E-02 0.12500000E+03</pdfrwt>
<totfact> 0.73464132E+06</totfact>
</mgrwt>
</event>
<event>
 3    1  0.1592492E-001  0.1250000E+03  0.7546771E-02  0.1235069E+00
         21   -1    0    0  502  501  0.00000000000E+00  0.00000000000E+00  0.25458992763E+02  0.25458992763E+02  0.00000000000E+00 0.  1.
         21   -1    0    0  501  502 -0.00000000000E+00 -0.00000000000E+00 -0.15343301428E+03  0.15343301428E+03  0.00000000000E+00 0.  1.
         25    1    1    2    0    0  0.00000000000E+00  0.00000000000E+00 -0.12797402151E+03  0.17889200704E+03  0.12500000000E+03 0.  0.
<mgrwt>
<rscale>  0 0.12500000E+03</rscale>
<asrwt>0</asrwt>
<pdfrwt beam="1">  1       21 0.39167681E-02 0.12500000E+03</pdfrwt>
<pdfrwt beam="2">  1       21 0.23605079E-01 0.12500000E+03</pdfrwt>
<totfact> 0.67278869E+06</totfact>
</mgrwt>
</event>
<event>
 3    1  0.1592492E-001  0.1250000E+03  0.7546771E-02  0.1235069E+00
         21   -1    0    0  502  501  0.00000000000E+00  0.00000000000E+00  0.11714082197E+04  0.11714082197E+04  0.00000000000E+00 0.  1.
         21   -1    0    0  501  502 -0.00000000000E+00 -0.00000000000E+00 -0.33346615929E+01  0.33346615929E+01  0.00000000000E+00 0.  1.
         25    1    1    2    0    0  0.00000000000E+00  0.00000000000E+00  0.11680735581E+04  0.11747428813E+04  0.12500000000E+03 0.  0.
<mgrwt>
<rscale>  0 0.12500000E+03</rscale>
<asrwt>0</asrwt>
<pdfrwt beam="1">  1       21 0.18021632E+00 0.12500000E+03</pdfrwt>
<pdfrwt beam="2">  1       21 0.51302579E-03 0.12500000E+03</pdfrwt>
<totfact> 0.19654140E+06</totfact>
</mgrwt>
</event>
<event>
 3    1  0.1592492E-001  0.1250000E+03  0.7546771E-02  0.1235069E+00
         21   -1    0    0  502  501  0.00000000000E+00  0.00000000000E+00  0.39105049316E+02  0.39105049316E+02  0.00000000000E+00 0.  1.
         21   -1    0    0  501  502 -0.00000000000E+00 -0.00000000000E+00 -0.99891192271E+02  0.99891192271E+02  0.00000000000E+00 0.  1.
         25    1    1    2    0    0  0.00000000000E+00  0.00000000000E+00 -0.60786142956E+02  0.13899624159E+03  0.12500000000E+03 0.  0.
<mgrwt>
<rscale>  0 0.12500000E+03</rscale>
<asrwt>0</asrwt>
<pdfrwt beam="1">  1       21 0.60161614E-02 0.12500000E+03</pdfrwt>
<pdfrwt beam="2">  1       21 0.15367876E-01 0.12500000E+03</pdfrwt>
<totfact> 0.72170619E+06</totfact>
</mgrwt>
</event>
<event>
 3    1  0.1592492E-001  0.1250000E+03  0.7546771E-02  0.1235069E+00
         21   -1    0    0  502  501  0.00000000000E+00  0.00000000000E+00  0.93341239897E+01  0.93341239897E+01  0.00000000000E+00 0. -1.
         21   -1    0    0  501  502 -0.00000000000E+00 -0.00000000000E+00 -0.41849133398E+03  0.41849133398E+03  0.00000000000E+00 0. -1.
         25    1    1    2    0    0  0.00000000000E+00  0.00000000000E+00 -0.40915720999E+03  0.42782545797E+03  0.12500000000E+03 0.  0.
<mgrwt>
<rscale>  0 0.12500000E+03</rscale>
<asrwt>0</asrwt>
<pdfrwt beam="1">  1       21 0.14360190E-02 0.12500000E+03</pdfrwt>
<pdfrwt beam="2">  1       21 0.64383287E-01 0.12500000E+03</pdfrwt>
<totfact> 0.46248866E+06</totfact>
</mgrwt>
</event>
<event>
 3    1  0.1592492E-001  0.1250000E+03  0.7546771E-02  0.1235069E+00
         21   -1    0    0  502  501  0.00000000000E+00  0.00000000000E+00  0.17689597398E+02  0.17689597398E+02  0.00000000000E+00 0.  1.
         21   -1    0    0  501  502 -0.00000000000E+00 -0.00000000000E+00 -0.22082187130E+03  0.22082187130E+03  0.00000000000E+00 0.  1.
         25    1    1    2    0    0  0.00000000000E+00  0.00000000000E+00 -0.20313227390E+03  0.23851146870E+03  0.12500000000E+03 0.  0.
<mgrwt>
<rscale>  0 0.12500000E+03</rscale>
<asrwt>0</asrwt>
<pdfrwt beam="1">  1       21 0.27214766E-02 0.12500000E+03</pdfrwt>
<pdfrwt beam="2">  1       21 0.33972595E-01 0.12500000E+03</pdfrwt>
<totfact> 0.60977003E+06</totfact>
</mgrwt>
</event>
<event>
 3    1  0.1592492E-001  0.1250000E+03  0.7546771E-02  0.1235069E+00
         21   -1    0    0  502  501  0.00000000000E+00  0.00000000000E+00  0.70457817828E+02  0.70457817828E+02  0.00000000000E+00 0.  1.
         21   -1    0    0  501  502 -0.00000000000E+00 -0.00000000000E+00 -0.55440973343E+02  0.55440973343E+02  0.00000000000E+00 0.  1.
         25    1    1    2    0    0  0.00000000000E+00  0.00000000000E+00  0.15016844485E+02  0.12589879117E+03  0.12500000000E+03 0.  0.
<mgrwt>
<rscale>  0 0.12500000E+03</rscale>
<asrwt>0</asrwt>
<pdfrwt beam="1">  1       21 0.10839664E-01 0.12500000E+03</pdfrwt>
<pdfrwt beam="2">  1       21 0.85293804E-02 0.12500000E+03</pdfrwt>
<totfact> 0.73920007E+06</totfact>
</mgrwt>
</event>
<event>
 3    1  0.1592492E-001  0.1250000E+03  0.7546771E-02  0.1235069E+00
         21   -1    0    0  502  501  0.00000000000E+00  0.00000000000E+00  0.54578676859E+03  0.54578676859E+03  0.00000000000E+00 0.  1.
         21   -1    0    0  501  502 -0.00000000000E+00 -0.00000000000E+00 -0.71570991178E+01  0.71570991178E+01  0.00000000000E+00 0.  1.
         25    1    1    2    0    0  0.00000000000E+00  0.00000000000E+00  0.53862966948E+03  0.55294386771E+03  0.12500000000E+03 0.  0.
<mgrwt>
<rscale>  0 0.12500000E+03</rscale>
<asrwt>0</asrwt>
<pdfrwt beam="1">  1       21 0.83967162E-01 0.12500000E+03</pdfrwt>
<pdfrwt beam="2">  1       21 0.11010926E-02 0.12500000E+03</pdfrwt>
<totfact> 0.39311013E+06</totfact>
</mgrwt>
</event>
<event>
 3    1  0.1592492E-001  0.1250000E+03  0.7546771E-02  0.1235069E+00
         21   -1    0    0  502  501  0.00000000000E+00  0.00000000000E+00  0.12324187051E+02  0.12324187051E+02  0.00000000000E+00 0. -1.
         21   -1    0    0  501  502 -0.00000000000E+00 -0.00000000000E+00 -0.31695802603E+03  0.31695802603E+03  0.00000000000E+00 0. -1.
         25    1    1    2    0    0  0.00000000000E+00  0.00000000000E+00 -0.30463383897E+03  0.32928221308E+03  0.12500000000E+03 0.  0.
<mgrwt>
<rscale>  0 0.12500000E+03</rscale>
<asrwt>0</asrwt>
<pdfrwt beam="1">  1       21 0.18960287E-02 0.12500000E+03</pdfrwt>
<pdfrwt beam="2">  1       21 0.48762776E-01 0.12500000E+03</pdfrwt>
<totfact> 0.53105874E+06</totfact>
</mgrwt>
</event>
<event>
 3    1  0.1592492E-001  0.1250000E+03  0.7546771E-02  0.1235069E+00
         21   -1    0    0  502  501  0.00000000000E+00  0.00000000000E+00  0.17848192657E+03  0.17848192657E+03  0.00000000000E+00 0.  1.
         21   -1    0    0  501  502 -0.00000000000E+00 -0.00000000000E+00 -0.21885969493E+02  0.21885969493E+02  0.00000000000E+00 0.  1.
         25    1    1    2    0    0  0.00000000000E+00  0.00000000000E+00  0.15659595708E+03  0.20036789607E+03  0.12500000000E+03 0.  0.
<mgrwt>
<rscale>  0 0.12500000E+03</rscale>
<asrwt>0</asrwt>
<pdfrwt beam="1">  1       21 0.27458757E-01 0.12500000E+03</pdfrwt>
<pdfrwt beam="2">  1       21 0.33670723E-02 0.12500000E+03</pdfrwt>
<totfact> 0.64887411E+06</totfact>
</mgrwt>
</event>
<event>
 3    1  0.1592492E-001  0.1250000E+03  0.7546771E-02  0.1235069E+00
         21   -1    0    0  502  501  0.00000000000E+00  0.00000000000E+00  0.65234715392E+02  0.65234715392E+02  0.00000000000E+00 0. -1.
         21   -1    0    0  501  502 -0.00000000000E+00 -0.00000000000E+00 -0.59879927068E+02  0.59879927068E+02  0.00000000000E+00 0. -1.
         25    1    1    2    0    0  0.00000000000E+00  0.00000000000E+00  0.53547883238E+01  0.12511464246E+03  0.12500000000E+03 0.  0.
<mgrwt>
<rscale>  0 0.12500000E+03</rscale>
<asrwt>0</asrwt>
<pdfrwt beam="1">  1       21 0.10036110E-01 0.12500000E+03</pdfrwt>
<pdfrwt beam="2">  1       21 0.92122964E-02 0.12500000E+03</pdfrwt>
<totfact> 0.74028098E+06</totfact>
</mgrwt>
</event>
<event>
 3    1  0.1592492E-001  0.1250000E+03  0.7546771E-02  0.1235069E+00
         21   -1    0    0  502  501  0.00000000000E+00  0.00000000000E+00  0.22648971952E+02  0.22648971952E+02  0.00000000000E+00 0. -1.
         21   -1    0    0  501  502 -0.00000000000E+00 -0.00000000000E+00 -0.17246919676E+03  0.17246919676E+03  0.00000000000E+00 0. -1.
         25    1    1    2    0    0  0.00000000000E+00  0.00000000000E+00 -0.14982022481E+03  0.19511816871E+03  0.12500000000E+03 0.  0.
<mgrwt>
<rscale>  0 0.12500000E+03</rscale>
<asrwt>0</asrwt>
<pdfrwt beam="1">  1       21 0.34844572E-02 0.12500000E+03</pdfrwt>
<pdfrwt beam="2">  1       21 0.26533723E-01 0.12500000E+03</pdfrwt>
<totfact> 0.65458091E+06</totfact>
</mgrwt>
</event>
<event>
 3    1  0.1592492E-001  0.1250000E+03  0.7546771E-02  0.1235069E+00
         21   -1    0    0  502  501  0.00000000000E+00  0.00000000000E+00  0.24066754212E+03  0.24066754212E+03  0.00000000000E+00 0. -1.
         21   -1    0    0  501  502 -0.00000000000E+00 -0.00000000000E+00 -0.16230896637E+02  0.16230896637E+02  0.00000000000E+00 0. -1.
         25    1    1    2    0    0  0.00000000000E+00  0.00000000000E+00  0.22443664548E+03  0.25689843876E+03  0.12500000000E+03 0.  0.
<mgrwt>
<rscale>  0 0.12500000E+03</rscale>
<asrwt>0</asrwt>
<pdfrwt beam="1">  1       21 0.37025773E-01 0.12500000E+03</pdfrwt>
<pdfrwt beam="2">  1       21 0.24970612E-02 0.12500000E+03</pdfrwt>
<totfact> 0.59234724E+06</totfact>
</mgrwt>
</event>
<event>
 3    1  0.1592492E-001  0.1250000E+03  0.7546771E-02  0.1235069E+00
         21   -1    0    0  502  501  0.00000000000E+00  0.00000000000E+00  0.97354203557E+02  0.97354203557E+02  0.00000000000E+00 0. -1.
         21   -1    0    0  501  502 -0.00000000000E+00 -0.00000000000E+00 -0.40124102065E+02  0.40124102065E+02  0.00000000000E+00 0. -1.
         25    1    1    2    0    0  0.00000000000E+00  0.00000000000E+00  0.57230101492E+02  0.13747830562E+03  0.12500000000E+03 0.  0.
<mgrwt>
<rscale>  0 0.12500000E+03</rscale>
<asrwt>0</asrwt>
<pdfrwt beam="1">  1       21 0.14977570E-01 0.12500000E+03</pdfrwt>
<pdfrwt beam="2">  1       21 0.61729388E-02 0.12500000E+03</pdfrwt>
<totfact> 0.72369960E+06</totfact>
</mgrwt>
</event>
<event>
 3    1  0.1592492E-001  0.1250000E+03  0.7546771E-02  0.1235069E+00
         21   -1    0    0  502  501  0.00000000000E+00  0.00000000000E+00  0.27043991473E+02  0.27043991473E+02  0.00000000000E+00 0.  1.
         21   -1    0    0  501  502 -0.00000000000E+00 -0.00000000000E+00 -0.14444058688E+03  0.14444058688E+03  0.00000000000E+00 0.  1.
         25    1    1    2    0    0  0.00000000000E+00  0.00000000000E+00 -0.11739659541E+03  0.17148457835E+03  0.12500000000E+03 0.  0.
<mgrwt>
<rscale>  0 0.12500000E+03</rscale>
<asrwt>0</asrwt>
<pdfrwt beam="1">  1       21 0.41606141E-02 0.12500000E+03</pdfrwt>
<pdfrwt beam="2">  1       21 0.22221629E-01 0.12500000E+03</pdfrwt>
<totfact> 0.68142082E+06</totfact>
</mgrwt>
</event>
<event>
 3    1  0.1592492E-001  0.1250000E+03  0.7546771E-02  0.1235069E+00
         21   -1    0    0  502  501  0.00000000000E+00  0.00000000000E+00  0.68723597037E+01  0.68723597037E+01  0.00000000000E+00 0.  1.
         21   -1    0    0  501  502 -0.00000000000E+00 -0.00000000000E+00 -0.56840010832E+03  0.56840010832E+03  0.00000000000E+00 0.  1.
         25    1    1    2    0    0  0.00000000000E+00  0.00000000000E+00 -0.56152774861E+03  0.57527246802E+03  0.12500000000E+03 0.  0.
<mgrwt>
<rscale>  0 0.12500000E+03</rscale>
<asrwt>0</asrwt>
<pdfrwt beam="1">  1       21 0.10572861E-02 0.12500000E+03</pdfrwt>
<pdfrwt beam="2">  1       21 0.87446169E-01 0.12500000E+03</pdfrwt>
<totfact> 0.38235324E+06</totfact>
</mgrwt>
</event>
<event>
 3    1  0.1592492E-001  0.1250000E+03  0.7546771E-02  0.1235069E+00
         21   -1    0    0  502  501  0.00000000000E+00  0.00000000000E+00  0.39865161936E+03  0.39865161936E+03  0.00000000000E+00 0. -1.
         21   -1    0    0  501  502 -0.00000000000E+00 -0.00000000000E+00 -0.97986557945E+01  0.97986557945E+01  0.00000000000E+00 0. -1.
         25    1    1    2    0    0  0.00000000000E+00  0.00000000000E+00  0.38885296356E+03  0.40845027515E+03  0.12500000000E+03 0.  0.
<mgrwt>
<rscale>  0 0.12500000E+03</rscale>
<asrwt>0</asrwt>
<pdfrwt beam="1">  1       21 0.61331006E-01 0.12500000E+03</pdfrwt>
<pdfrwt beam="2">  1       21 0.15074858E-02 0.12500000E+03</pdfrwt>
<totfact> 0.47485863E+06</totfact>
</mgrwt>
</event>
<event>
 3    1  0.1592492E-001  0.1250000E+03  0.7546771E-02  0.1235069E+00
         21   -1    0    0  502  501  0.00000000000E+00  0.00000000000E+00  0.38957445525E+02  0.38957445525E+02  0.00000000000E+00 0. -1.
         21   -1    0    0  501  502 -0.00000000000E+00 -0.00000000000E+00 -0.10026966469E+03  0.10026966469E+03  0.00000000000E+00 0. -1.
         25    1    1    2    0    0  0.00000000000E+00  0.00000000000E+00 -0.61312219167E+02  0.13922711022E+03  0.12500000000E+03 0.  0.
<mgrwt>
<rscale>  0 0.12500000E+03</rscale>
<asrwt>0</asrwt>
<pdfrwt beam="1">  1       21 0.59934532E-02 0.12500000E+03</pdfrwt>
<pdfrwt beam="2">  1       21 0.15426102E-01 0.12500000E+03</pdfrwt>
<totfact> 0.72140368E+06</totfact>
</mgrwt>
</event>
<event>
 3    1  0.1592492E-001  0.1250000E+03  0.7546771E-02  0.1235069E+00
         21   -1    0    0  502  501  0.00000000000E+00  0.00000000000E+00  0.34389570858E+01  0.34389570858E+01  0.00000000000E+00 0. -1.
         21   -1    0    0  501  502 -0.00000000000E+00 -0.00000000000E+00 -0.11358821592E+04  0.11358821592E+04  0.00000000000E+00 0. -1.
         25    1    1    2    0    0  0.00000000000E+00  0.00000000000E+00 -0.11324432021E+04  0.11393211163E+04  0.12500000000E+03 0.  0.
<mgrwt>
<rscale>  0 0.12500000E+03</rscale>
<asrwt>0</asrwt>
<pdfrwt beam="1">  1       21 0.52906997E-03 0.12500000E+03</pdfrwt>
<pdfrwt beam="2">  1       21 0.17475122E+00 0.12500000E+03</pdfrwt>
<totfact> 0.20396045E+06</totfact>
</mgrwt>
</event>
<event>
 3    1  0.1592492E-001  0.1250000E+03  0.7546771E-02  0.1235069E+00
         21   -1    0    0  502  501  0.00000000000E+00  0.00000000000E+00  0.29361139270E+01  0.29361139270E+01  0.00000000000E+00 0. -1.
         21   -1    0    0  501  502 -0.00000000000E+00 -0.00000000000E+00 -0.13304149965E+04  0.13304149965E+04  0.00000000000E+00 0. -1.
         25    1    1    2    0    0  0.00000000000E+00  0.00000000000E+00 -0.13274788826E+04  0.13333511105E+04  0.12500000000E+03 0.  0.
<mgrwt>
<rscale>  0 0.12500000E+03</rscale>
<asrwt>0</asrwt>
<pdfrwt beam="1">  1       21 0.45170937E-03 0.12500000E+03</pdfrwt>
<pdfrwt beam="2">  1       21 0.20467944E+00 0.12500000E+03</pdfrwt>
<totfact> 0.16663928E+06</totfact>
</mgrwt>
</event>
<event>
 3    1  0.1592492E-001  0.1250000E+03  0.7546771E-02  0.1235069E+00
         21   -1    0    0  502  501  0.00000000000E+00  0.00000000000E+00  0.29610012202E+02  0.29610012202E+02  0.00000000000E+00 0. -1.
         21   -1    0    0  501  502 -0.00000000000E+00 -0.00000000000E+00 -0.13192328234E+03  0.13192328234E+03  0.00000000000E+00 0. -1.
         25    1    1    2    0    0  0.00000000000E+00  0.00000000000E+00 -0.10231327014E+03  0.16153329455E+03  0.12500000000E+03 0.  0.
<mgrwt>
<rscale>  0 0.12500000E+03</rscale>
<asrwt>0</asrwt>
<pdfrwt beam="1">  1       21 0.45553865E-02 0.12500000E+03</pdfrwt>
<pdfrwt beam="2">  1       21 0.20295890E-01 0.12500000E+03</pdfrwt>
<totfact> 0.69332627E+06</totfact>
</mgrwt>
</event>
<event>
 3    1  0.1592492E-001  0.1250000E+03  0.7546771E-02  0.1235069E+00
         21   -1    0    0  502  501  0.00000000000E+00  0.00000000000E+00  0.15270812541E+03  0.15270812541E+03  0.00000000000E+00 0.  1.
         21   -1    0    0  501  502 -0.00000000000E+00 -0.00000000000E+00 -0.25579843833E+02  0.25579843833E+02  0.00000000000E+00 0.  1.
         25    1    1    2    0    0  0.00000000000E+00  0.00000000000E+00  0.12712828158E+03  0.17828796924E+03  0.12500000000E+03 0.  0.
<mgrwt>
<rscale>  0 0.12500000E+03</rscale>
<asrwt>0</asrwt>
<pdfrwt beam="1">  1       21 0.23493557E-01 0.12500000E+03</pdfrwt>
<pdfrwt beam="2">  1       21 0.39353607E-02 0.12500000E+03</pdfrwt>
<totfact> 0.67348480E+06</totfact>
</mgrwt>
</event>
<event>
 3    1  0.1592492E-001  0.1250000E+03  0.7546771E-02  0.1235069E+00
         21   -1    0    0  502  501  0.00000000000E+00  0.00000000000E+00  0.15091346884E+04  0.15091346884E+04  0.00000000000E+00 0. -1.
         21   -1    0    0  501  502 -0.00000000000E+00 -0.00000000000E+00 -0.25884038250E+01  0.25884038250E+01  0.00000000000E+00 0. -1.
         25    1    1    2    0    0  0.00000000000E+00  0.00000000000E+00  0.15065462846E+04  0.15117230922E+04  0.12500000000E+03 0.  0.
<mgrwt>
<rscale>  0 0.12500000E+03</rscale>
<asrwt>0</asrwt>
<pdfrwt beam="1">  1       21 0.23217386E+00 0.12500000E+03</pdfrwt>
<pdfrwt beam="2">  1       21 0.39821718E-03 0.12500000E+03</pdfrwt>
<totfact> 0.13820038E+06</totfact>
</mgrwt>
</event>
<event>
 3    1  0.1592492E-001  0.1250000E+03  0.7546771E-02  0.1235069E+00
         21   -1    0    0  502  501  0.00000000000E+00  0.00000000000E+00  0.39029676525E+03  0.39029676525E+03  0.00000000000E+00 0. -1.
         21   -1    0    0  501  502 -0.00000000000E+00 -0.00000000000E+00 -0.10008409876E+02  0.10008409876E+02  0.00000000000E+00 0. -1.
         25    1    1    2    0    0  0.00000000000E+00  0.00000000000E+00  0.38028835537E+03  0.40030517513E+03  0.12500000000E+03 0.  0.
<mgrwt>
<rscale>  0 0.12500000E+03</rscale>
<asrwt>0</asrwt>
<pdfrwt beam="1">  1       21 0.60045644E-01 0.12500000E+03</pdfrwt>
<pdfrwt beam="2">  1       21 0.15397557E-02 0.12500000E+03</pdfrwt>
<totfact> 0.48021120E+06</totfact>
</mgrwt>
</event>
<event>
 3    1  0.1592492E-001  0.1250000E+03  0.7546771E-02  0.1235069E+00
         21   -1    0    0  502  501  0.00000000000E+00  0.00000000000E+00  0.70418056398E+02  0.70418056398E+02  0.00000000000E+00 0.  1.
         21   -1    0    0  501  502 -0.00000000000E+00 -0.00000000000E+00 -0.55472277990E+02  0.55472277990E+02  0.00000000000E+00 0.  1.
         25    1    1    2    0    0  0.00000000000E+00  0.00000000000E+00  0.14945778408E+02  0.12589033439E+03  0.12500000000E+03 0.  0.
<mgrwt>
<rscale>  0 0.12500000E+03</rscale>
<asrwt>0</asrwt>
<pdfrwt beam="1">  1       21 0.10833547E-01 0.12500000E+03</pdfrwt>
<pdfrwt beam="2">  1       21 0.85341966E-02 0.12500000E+03</pdfrwt>
<totfact> 0.73921176E+06</totfact>
</mgrwt>
</event>
<event>
 3    1  0.1592492E-001  0.1250000E+03  0.7546771E-02  0.1235069E+00
         21   -1    0    0  502  501  0.00000000000E+00  0.00000000000E+00  0.17055772283E+02  0.17055772283E+02  0.00000000000E+00 0.  1.
         21   -1    0    0  501  502 -0.00000000000E+00 -0.00000000000E+00 -0.22902803434E+03  0.22902803434E+03  0.00000000000E+00 0.  1.
         25    1    1    2    0    0  0.00000000000E+00  0.00000000000E+00 -0.21197226205E+03  0.24608380662E+03  0.12500000000E+03 0.  0.
<mgrwt>
<rscale>  0 0.12500000E+03</rscale>
<asrwt>0</asrwt>
<pdfrwt beam="1">  1       21 0.26239649E-02 0.12500000E+03</pdfrwt>
<pdfrwt beam="2">  1       21 0.35235083E-01 0.12500000E+03</pdfrwt>
<totfact> 0.60248864E+06</totfact>
</mgrwt>
</event>
<event>
 3    1  0.1592492E-001  0.1250000E+03  0.7546771E-02  0.1235069E+00
         21   -1    0    0  502  501  0.00000000000E+00  0.00000000000E+00  0.14520466925E+04  0.14520466925E+04  0.00000000000E+00 0.  1.
         21   -1    0    0  501  502 -0.00000000000E+00 -0.00000000000E+00 -0.26901683122E+01  0.26901683122E+01  0.00000000000E+00 0.  1.
         25    1    1    2    0    0  0.00000000000E+00  0.00000000000E+00  0.14493565242E+04  0.14547368608E+04  0.12500000000E+03 0.  0.
<mgrwt>
<rscale>  0 0.12500000E+03</rscale>
<asrwt>0</asrwt>
<pdfrwt beam="1">  1       21 0.22339117E+00 0.12500000E+03</pdfrwt>
<pdfrwt beam="2">  1       21 0.41387321E-03 0.12500000E+03</pdfrwt>
<totfact> 0.14677475E+06</totfact>
</mgrwt>
</event>
<event>
 3    1  0.1592492E-001  0.1250000E+03  0.7546771E-02  0.1235069E+00
         21   -1    0    0  502  501  0.00000000000E+00  0.00000000000E+00  0.65546688974E+01  0.65546688974E+01  0.00000000000E+00 0.  1.
         21   -1    0    0  501  502 -0.00000000000E+00 -0.00000000000E+00 -0.59594924796E+03  0.59594924796E+03  0.00000000000E+00 0.  1.
         25    1    1    2    0    0  0.00000000000E+00  0.00000000000E+00 -0.58939457906E+03  0.60250391685E+03  0.12500000000E+03 0.  0.
<mgrwt>
<rscale>  0 0.12500000E+03</rscale>
<asrwt>0</asrwt>
<pdfrwt beam="1">  1       21 0.10084109E-02 0.12500000E+03</pdfrwt>
<pdfrwt beam="2">  1       21 0.91684476E-01 0.12500000E+03</pdfrwt>
<totfact> 0.36979646E+06</totfact>
</mgrwt>
</event>
<event>
 3    1  0.1592492E-001  0.1250000E+03  0.7546771E-02  0.1235069E+00
         21   -1    0    0  502  501  0.00000000000E+00  0.00000000000E+00  0.79804110363E+03  0.79804110363E+03  0.00000000000E+00 0.  1.
         21   -1    0    0  501  502 -0.00000000000E+00 -0.00000000000E+00 -0.48947980025E+01  0.48947980025E+01  0.00000000000E+00 0.  1.
         25    1    1    2    0    0  0.00000000000E+00  0.00000000000E+00  0.79314630563E+03  0.80293590164E+03  0.12500000000E+03 0.  0.
<mgrwt>
<rscale>  0 0.12500000E+03</rscale>
<asrwt>0</asrwt>
<pdfrwt beam="1">  1       21 0.12277545E+00 0.12500000E+03</pdfrwt>
<pdfrwt beam="2">  1       21 0.75304648E-03 0.12500000E+03</pdfrwt>
<totfact> 0.29265792E+06</totfact>
</mgrwt>
</event>
<event>
 3    1  0.1592492E-001  0.1250000E+03  0.7546771E-02  0.1235069E+00
         21   -1    0    0  502  501  0.00000000000E+00  0.00000000000E+00  0.70688404234E+01  0.70688404234E+01  0.00000000000E+00 0. -1.
         21   -1    0    0  501  502 -0.00000000000E+00 -0.00000000000E+00 -0.55260124235E+03  0.55260124235E+03  0.00000000000E+00 0. -1.
         25    1    1    2    0    0  0.00000000000E+00  0.00000000000E+00 -0.54553240193E+03  0.55967008278E+03  0.12500000000E+03 0.  0.
<mgrwt>
<rscale>  0 0.12500000E+03</rscale>
<asrwt>0</asrwt>
<pdfrwt beam="1">  1       21 0.10875140E-02 0.12500000E+03</pdfrwt>
<pdfrwt beam="2">  1       21 0.85015570E-01 0.12500000E+03</pdfrwt>
<totfact> 0.38982424E+06</totfact>
</mgrwt>
</event>
<event>
 3    1  0.1592492E-001  0.1250000E+03  0.7546771E-02  0.1235069E+00
         21   -1    0    0  502  501  0.00000000000E+00  0.00000000000E+00  0.63429937561E+02  0.63429937561E+02  0.00000000000E+00 0. -1.
         21   -1    0    0  501  502 -0.00000000000E+00 -0.00000000000E+00 -0.61583696125E+02  0.61583696125E+02  0.00000000000E+00 0. -1.
         25    1    1    2    0    0  0.00000000000E+00  0.00000000000E+00  0.18462414354E+01  0.12501363369E+03  0.12500000000E+03 0.  0.
<mgrwt>
<rscale>  0 0.12500000E+03</rscale>
<asrwt>0</asrwt>
<pdfrwt beam="1">  1       21 0.97584520E-02 0.12500000E+03</pdfrwt>
<pdfrwt beam="2">  1       21 0.94744147E-02 0.12500000E+03</pdfrwt>
<totfact> 0.74041740E+06</totfact>
</mgrwt>
</event>
<event>
 3    1  0.1592492E-001  0.1250000E+03  0.7546771E-02  0.1235069E+00
         21   -1    0    0  502  501  0.00000000000E+00  0.00000000000E+00  0.48362424762E+01  0.48362424762E+01  0.00000000000E+00 0. -1.
         21   -1    0    0  501  502 -0.00000000000E+00 -0.00000000000E+00 -0.80770350519E+03  0.80770350519E+03  0.00000000000E+00 0. -1.
         25    1    1    2    0    0  0.00000000000E+00  0.00000000000E+00 -0.80286726271E+03  0.81253974767E+03  0.12500000000E+03 0.  0.
<mgrwt>
<rscale>  0 0.12500000E+03</rscale>
<asrwt>0</asrwt>
<pdfrwt beam="1">  1       21 0.74403742E-03 0.12500000E+03</pdfrwt>
<pdfrwt beam="2">  1       21 0.12426206E+00 0.12500000E+03</pdfrwt>
<totfact> 0.28951537E+06</totfact>
</mgrwt>
</event>
<event>
 3    1  0.1592492E-001  0.1250000E+03  0.7546771E-02  0.1235069E+00
         21   -1    0    0  502  501  0.00000000000E+00  0.00000000000E+00  0.12720124498E+03  0.12720124498E+03  0.00000000000E+00 0. -1.
         21   -1    0    0  501  502 -0.00000000000E+00 -0.00000000000E+00 -0.30709212009E+02  0.30709212009E+02  0.00000000000E+00 0. -1.
         25    1    1    2    0    0  0.00000000000E+00  0.00000000000E+00  0.96492032976E+02  0.15791045699E+03  0.12500000000E+03 0.  0.
<mgrwt>
<rscale>  0 0.12500000E+03</rscale>
<asrwt>0</asrwt>
<pdfrwt beam="1">  1       21 0.19569422E-01 0.12500000E+03</pdfrwt>
<pdfrwt beam="2">  1       21 0.47244942E-02 0.12500000E+03</pdfrwt>
<totfact> 0.69775721E+06</totfact>
</mgrwt>
</event>
<event>
 3    1  0.1592492E-001  0.1250000E+03  0.7546771E-02  0.1235069E+00
         21   -1    0    0  502  501  0.00000000000E+00  0.00000000000E+00  0.83327090056E+02  0.83327090056E+02  0.00000000000E+00 0. -1.
         21   -1    0    0  501  502 -0.00000000000E+00 -0.00000000000E+00 -0.46878512106E+02  0.46878512106E+02  0.00000000000E+00 0. -1.
         25    1    1    2    0    0  0.00000000000E+00  0.00000000000E+00  0.36448577950E+02  0.13020560216E+03  0.12500000000E+03 0.  0.
<mgrwt>
<rscale>  0 0.12500000E+03</rscale>
<asrwt>0</asrwt>
<pdfrwt beam="1">  1       21 0.12819552E-01 0.12500000E+03</pdfrwt>
<pdfrwt beam="2">  1       21 0.72120788E-02 0.12500000E+03</pdfrwt>
<totfact> 0.73337449E+06</totfact>
</mgrwt>
</event>
<event>
 3    1  0.1592492E-001  0.1250000E+03  0.7546771E-02  0.1235069E+00
         21   -1    0    0  502  501  0.00000000000E+00  0.00000000000E+00  0.94603727473E+02  0.94603727473E+02  0.00000000000E+00 0. -1.
         21   -1    0    0  501  502 -0.00000000000E+00 -0.00000000000E+00 -0.41290656345E+02  0.41290656345E+02  0.00000000000E+00 0. -1.
         25    1    1    2    0    0  0.00000000000E+00  0.00000000000E+00  0.53313071128E+02  0.13589438382E+03  0.12500000000E+03 0.  0.
<mgrwt>
<rscale>  0 0.12500000E+03</rscale>
<asrwt>0</asrwt>
<pdfrwt beam="1">  1       21 0.14554420E-01 0.12500000E+03</pdfrwt>
<pdfrwt beam="2">  1       21 0.63524087E-02 0.12500000E+03</pdfrwt>
<totfact> 0.72578266E+06</totfact>
</mgrwt>
</event>
<event>
 3    1  0.1592492E-001  0.1250000E+03  0.7546771E-02  0.1235069E+00
         21   -1    0    0  502  501  0.00000000000E+00  0.00000000000E+00  0.34928352752E+03  0.34928352752E+03  0.00000000000E+00 0. -1.
         21   -1    0    0  501  502 -0.00000000000E+00 -0.00000000000E+00 -0.11183607849E+02  0.11183607849E+02  0.00000000000E+00 0. -1.
         25    1    1    2    0    0  0.00000000000E+00  0.00000000000E+00  0.33809991967E+03  0.36046713537E+03  0.12500000000E+03 0.  0.
<mgrwt>
<rscale>  0 0.12500000E+03</rscale>
<asrwt>0</asrwt>
<pdfrwt beam="1">  1       21 0.53735919E-01 0.12500000E+03</pdfrwt>
<pdfrwt beam="2">  1       21 0.17205553E-02 0.12500000E+03</pdfrwt>
<totfact> 0.50774577E+06</totfact>
</mgrwt>
</event>
<event>
 3    1  0.1592492E-001  0.1250000E+03  0.7546771E-02  0.1235069E+00
         21   -1    0    0  502  501  0.00000000000E+00  0.00000000000E+00  0.32090917363E+01  0.32090917363E+01  0.00000000000E+00 0. -1.
         21   -1    0    0  501  502 -0.00000000000E+00 -0.00000000000E+00 -0.12172447287E+04  0.12172447287E+04  0.00000000000E+00 0. -1.
         25    1    1    2    0    0  0.00000000000E+00  0.00000000000E+00 -0.12140356370E+04  0.12204538205E+04  0.12500000000E+03 0.  0.
<mgrwt>
<rscale>  0 0.12500000E+03</rscale>
<asrwt>0</asrwt>
<pdfrwt beam="1">  1       21 0.49370612E-03 0.12500000E+03</pdfrwt>
<pdfrwt beam="2">  1       21 0.18726853E+00 0.12500000E+03</pdfrwt>
<totfact> 0.18740464E+06</totfact>
</mgrwt>
</event>
<event>
 3    1  0.1592492E-001  0.1250000E+03  0.7546771E-02  0.1235069E+00
         21   -1    0    0  502  501  0.00000000000E+00  0.00000000000E+00  0.34240409330E+01  0.34240409330E+01  0.00000000000E+00 0. -1.
         21   -1    0    0  501  502 -0.00000000000E+00 -0.00000000000E+00 -0.11408304037E+04  0.11408304037E+04  0.00000000000E+00 0. -1.
         25    1    1    2    0    0  0.00000000000E+00  0.00000000000E+00 -0.11374063628E+04  0.11442544447E+04  0.12500000000E+03 0.  0.
<mgrwt>
<rscale>  0 0.12500000E+03</rscale>
<asrwt>0</asrwt>
<pdfrwt beam="1">  1       21 0.52677458E-03 0.12500000E+03</pdfrwt>
<pdfrwt beam="2">  1       21 0.17551269E+00 0.12500000E+03</pdfrwt>
<totfact> 0.20290842E+06</totfact>
</mgrwt>
</event>
<event>
 3    1  0.1592492E-001  0.1250000E+03  0.7546771E-02  0.1235069E+00
         21   -1    0    0  502  501  0.00000000000E+00  0.00000000000E+00  0.46295323037E+03  0.46295323037E+03  0.00000000000E+00 0. -1.
         21   -1    0    0  501  502 -0.00000000000E+00 -0.00000000000E+00 -0.84376773803E+01  0.84376773803E+01  0.00000000000E+00 0. -1.
         25    1    1    2    0    0  0.00000000000E+00  0.00000000000E+00  0.45451555299E+03  0.47139090775E+03  0.12500000000E+03 0.  0.
<mgrwt>
<rscale>  0 0.12500000E+03</rscale>
<asrwt>0</asrwt>
<pdfrwt beam="1">  1       21 0.71223554E-01 0.12500000E+03</pdfrwt>
<pdfrwt beam="2">  1       21 0.12981046E-02 0.12500000E+03</pdfrwt>
<totfact> 0.43639355E+06</totfact>
</mgrwt>
</event>
<event>
 3    1  0.1592492E-001  0.1250000E+03  0.7546771E-02  0.1235069E+00
         21   -1    0    0  502  501  0.00000000000E+00  0.00000000000E+00  0.71695394928E+01  0.71695394928E+01  0.00000000000E+00 0. -1.
         21   -1    0    0  501  502 -0.00000000000E+00 -0.00000000000E+00 -0.54483973537E+03  0.54483973537E+03  0.00000000000E+00 0. -1.
         25    1    1    2    0    0  0.00000000000E+00  0.00000000000E+00 -0.53767019588E+03  0.55200927487E+03  0.12500000000E+03 0.  0.
<mgrwt>
<rscale>  0 0.12500000E+03</rscale>
<asrwt>0</asrwt>
<pdfrwt beam="1">  1       21 0.11030063E-02 0.12500000E+03</pdfrwt>
<pdfrwt beam="2">  1       21 0.83821480E-01 0.12500000E+03</pdfrwt>
<totfact> 0.39356981E+06</totfact>
</mgrwt>
</event>
<event>
 3    1  0.1592492E-001  0.1250000E+03  0.7546771E-02  0.1235069E+00
         21   -1    0    0  502  501  0.00000000000E+00  0.00000000000E+00  0.65296620382E+02  0.65296620382E+02  0.00000000000E+00 0.  1.
         21   -1    0    0  501  502 -0.00000000000E+00 -0.00000000000E+00 -0.59823157419E+02  0.59823157419E+02  0.00000000000E+00 0.  1.
         25    1    1    2    0    0  0.00000000000E+00  0.00000000000E+00  0.54734629628E+01  0.12511977780E+03  0.12500000000E+03 0.  0.
<mgrwt>
<rscale>  0 0.12500000E+03</rscale>
<asrwt>0</asrwt>
<pdfrwt beam="1">  1       21 0.10045634E-01 0.12500000E+03</pdfrwt>
<pdfrwt beam="2">  1       21 0.92035627E-02 0.12500000E+03</pdfrwt>
<totfact> 0.74027404E+06</totfact>
</mgrwt>
</event>
<event>
 3    1  0.1592492E-001  0.1250000E+03  0.7546771E-02  0.1235069E+00
         21   -1    0    0  502  501  0.00000000000E+00  0.00000000000E+00  0.90421491396E+02  0.90421491396E+02  0.00000000000E+00 0. -1.
         21   -1    0    0  501  502 -0.00000000000E+00 -0.00000000000E+00 -0.43200459755E+02  0.43200459755E+02  0.00000000000E+00 0. -1.
         25    1    1    2    0    0  0.00000000000E+00  0.00000000000E+00  0.47221031641E+02  0.13362195115E+03  0.12500000000E+03 0.  0.
<mgrwt>
<rscale>  0 0.12500000E+03</rscale>
<asrwt>0</asrwt>
<pdfrwt beam="1">  1       21 0.13910999E-01 0.12500000E+03</pdfrwt>
<pdfrwt beam="2">  1       21 0.66462246E-02 0.12500000E+03</pdfrwt>
<totfact> 0.72879459E+06</totfact>
</mgrwt>
</event>
<event>
 3    1  0.1592492E-001  0.1250000E+03  0.7546771E-02  0.1235069E+00
         21   -1    0    0  502  501  0.00000000000E+00  0.00000000000E+00  0.29608036818E+02  0.29608036818E+02  0.00000000000E+00 0. -1.
         21   -1    0    0  501  502 -0.00000000000E+00 -0.00000000000E+00 -0.13193208398E+03  0.13193208398E+03  0.00000000000E+00 0. -1.
         25    1    1    2    0    0  0.00000000000E+00  0.00000000000E+00 -0.10232404716E+03  0.16154012080E+03  0.12500000000E+03 0.  0.
<mgrwt>
<rscale>  0 0.12500000E+03</rscale>
<asrwt>0</asrwt>
<pdfrwt beam="1">  1       21 0.45550825E-02 0.12500000E+03</pdfrwt>
<pdfrwt beam="2">  1       21 0.20297244E-01 0.12500000E+03</pdfrwt>
<totfact> 0.69331797E+06</totfact>
</mgrwt>
</event>
<event>
 3    1  0.1592492E-001  0.1250000E+03  0.7546771E-02  0.1235069E+00
         21   -1    0    0  502  501  0.00000000000E+00  0.00000000000E+00  0.84582099005E+02  0.84582099005E+02  0.00000000000E+00 0. -1.
         21   -1    0    0  501  502 -0.00000000000E+00 -0.00000000000E+00 -0.46182939960E+02  0.46182939960E+02  0.00000000000E+00 0. -1.
         25    1    1    2    0    0  0.00000000000E+00  0.00000000000E+00  0.38399159045E+02  0.13076503896E+03  0.12500000000E+03 0.  0.
<mgrwt>
<rscale>  0 0.12500000E+03</rscale>
<asrwt>0</asrwt>
<pdfrwt beam="1">  1       21 0.13012631E-01 0.12500000E+03</pdfrwt>
<pdfrwt beam="2">  1       21 0.71050677E-02 0.12500000E+03</pdfrwt>
<totfact> 0.73262352E+06</totfact>
</mgrwt>
</event>
<event>
 3    1  0.1592492E-001  0.1250000E+03  0.7546771E-02  0.1235069E+00
         21   -1    0    0  502  501  0.00000000000E+00  0.00000000000E+00  0.83205506711E+02  0.83205506711E+02  0.00000000000E+00 0. -1.
         21   -1    0    0  501  502 -0.00000000000E+00 -0.00000000000E+00 -0.46947012937E+02  0.46947012937E+02  0.00000000000E+00 0. -1.
         25    1    1    2    0    0  0.00000000000E+00  0.00000000000E+00  0.36258493774E+02  0.13015251965E+03  0.12500000000E+03 0.  0.
<mgrwt>
<rscale>  0 0.12500000E+03</rscale>
<asrwt>0</asrwt>
<pdfrwt beam="1">  1       21 0.12800847E-01 0.12500000E+03</pdfrwt>
<pdfrwt beam="2">  1       21 0.72226174E-02 0.12500000E+03</pdfrwt>
<totfact> 0.73344538E+06</totfact>
</mgrwt>
</event>
<event>
 3    1  0.1592492E-001  0.1250000E+03  0.7546771E-02  0.1235069E+00
         21   -1    0    0  502  501  0.00000000000E+00  0.00000000000E+00  0.69201851137E+01  0.69201851137E+01  0.00000000000E+00 0. -1.
         21   -1    0    0  501  502 -0.00000000000E+00 -0.00000000000E+00 -0.56447189429E+03  0.56447189429E+03  0.00000000000E+00 0. -1.
         25    1    1    2    0    0  0.00000000000E+00  0.00000000000E+00 -0.55755170918E+03  0.57139207941E+03  0.12500000000E+03 0.  0.
<mgrwt>
<rscale>  0 0.12500000E+03</rscale>
<asrwt>0</asrwt>
<pdfrwt beam="1">  1       21 0.10646442E-02 0.12500000E+03</pdfrwt>
<pdfrwt beam="2">  1       21 0.86841803E-01 0.12500000E+03</pdfrwt>
<totfact> 0.38419203E+06</totfact>
</mgrwt>
</event>
<event>
 3    1  0.1592492E-001  0.1250000E+03  0.7546771E-02  0.1235069E+00
         21   -1    0    0  502  501  0.00000000000E+00  0.00000000000E+00  0.15086699239E+04  0.15086699239E+04  0.00000000000E+00 0. -1.
         21   -1    0    0  501  502 -0.00000000000E+00 -0.00000000000E+00 -0.25892012151E+01  0.25892012151E+01  0.00000000000E+00 0. -1.
         25    1    1    2    0    0  0.00000000000E+00  0.00000000000E+00  0.15060807226E+04  0.15112591251E+04  0.12500000000E+03 0.  0.
<mgrwt>
<rscale>  0 0.12500000E+03</rscale>
<asrwt>0</asrwt>
<pdfrwt beam="1">  1       21 0.23210236E+00 0.12500000E+03</pdfrwt>
<pdfrwt beam="2">  1       21 0.39833986E-03 0.12500000E+03</pdfrwt>
<totfact> 0.13826854E+06</totfact>
</mgrwt>
</event>
<event>
 3    1  0.1592492E-001  0.1250000E+03  0.7546771E-02  0.1235069E+00
         21   -1    0    0  502  501  0.00000000000E+00  0.00000000000E+00  0.47373758010E+02  0.47373758010E+02  0.00000000000E+00 0.  1.
         21   -1    0    0  501  502 -0.00000000000E+00 -0.00000000000E+00 -0.82455987536E+02  0.82455987536E+02  0.00000000000E+00 0.  1.
         25    1    1    2    0    0  0.00000000000E+00  0.00000000000E+00 -0.35082229526E+02  0.12982974555E+03  0.12500000000E+03 0.  0.
<mgrwt>
<rscale>  0 0.12500000E+03</rscale>
<asrwt>0</asrwt>
<pdfrwt beam="1">  1       21 0.72882705E-02 0.12500000E+03</pdfrwt>
<pdfrwt beam="2">  1       21 0.12685536E-01 0.12500000E+03</pdfrwt>
<totfact> 0.73387678E+06</totfact>
</mgrwt>
</event>
<event>
 3    1  0.1592492E-001  0.1250000E+03  0.7546771E-02  0.1235069E+00
         21   -1    0    0  502  501  0.00000000000E+00  0.00000000000E+00  0.17658226411E+03  0.17658226411E+03  0.00000000000E+00 0. -1.
         21   -1    0    0  501  502 -0.00000000000E+00 -0.00000000000E+00 -0.22121417571E+02  0.22121417571E+02  0.00000000000E+00 0. -1.
         25    1    1    2    0    0  0.00000000000E+00  0.00000000000E+00  0.15446084654E+03  0.19870368168E+03  0.12500000000E+03 0.  0.
<mgrwt>
<rscale>  0 0.12500000E+03</rscale>
<asrwt>0</asrwt>
<pdfrwt beam="1">  1       21 0.27166501E-01 0.12500000E+03</pdfrwt>
<pdfrwt beam="2">  1       21 0.34032951E-02 0.12500000E+03</pdfrwt>
<totfact> 0.65067928E+06</totfact>
</mgrwt>
</event>
<event>
 3    1  0.1592492E-001  0.1250000E+03  0.7546771E-02  0.1235069E+00
         21   -1    0    0  502  501  0.00000000000E+00  0.00000000000E+00  0.53714180824E+03  0.53714180824E+03  0.00000000000E+00 0. -1.
         21   -1    0    0  501  502 -0.00000000000E+00 -0.00000000000E+00 -0.72722881371E+01  0.72722881371E+01  0.00000000000E+00 0. -1.
         25    1    1    2    0    0  0.00000000000E+00  0.00000000000E+00  0.52986952011E+03  0.54441409638E+03  0.12500000000E+03 0.  0.
<mgrwt>
<rscale>  0 0.12500000E+03</rscale>
<asrwt>0</asrwt>
<pdfrwt beam="1">  1       21 0.82637170E-01 0.12500000E+03</pdfrwt>
<pdfrwt beam="2">  1       21 0.11188140E-02 0.12500000E+03</pdfrwt>
<totfact> 0.39733483E+06</totfact>
</mgrwt>
</event>
<event>
 3    1  0.1592492E-001  0.1250000E+03  0.7546771E-02  0.1235069E+00
         21   -1    0    0  502  501  0.00000000000E+00  0.00000000000E+00  0.14053572861E+03  0.14053572861E+03  0.00000000000E+00 0.  1.
         21   -1    0    0  501  502 -0.00000000000E+00 -0.00000000000E+00 -0.27795422834E+02  0.27795422834E+02  0.00000000000E+00 0.  1.
         25    1    1    2    0    0  0.00000000000E+00  0.00000000000E+00  0.11274030578E+03  0.16833115144E+03  0.12500000000E+03 0.  0.
<mgrwt>
<rscale>  0 0.12500000E+03</rscale>
<asrwt>0</asrwt>
<pdfrwt beam="1">  1       21 0.21620881E-01 0.12500000E+03</pdfrwt>
<pdfrwt beam="2">  1       21 0.42762190E-02 0.12500000E+03</pdfrwt>
<totfact> 0.68515576E+06</totfact>
</mgrwt>
</event>
<event>
 3    1  0.1592492E-001  0.1250000E+03  0.7546771E-02  0.1235069E+00
         21   -1    0    0  502  501  0.00000000000E+00  0.00000000000E+00  0.26302071739E+02  0.26302071739E+02  0.00000000000E+00 0. -1.
         21   -1    0    0  501  502 -0.00000000000E+00 -0.00000000000E+00 -0.14851491695E+03  0.14851491695E+03  0.00000000000E+00 0. -1.
         25    1    1    2    0    0  0.00000000000E+00  0.00000000000E+00 -0.12221284521E+03  0.17481698869E+03  0.12500000000E+03 0.  0.
<mgrwt>
<rscale>  0 0.12500000E+03</rscale>
<asrwt>0</asrwt>
<pdfrwt beam="1">  1       21 0.40464727E-02 0.12500000E+03</pdfrwt>
<pdfrwt beam="2">  1       21 0.22848448E-01 0.12500000E+03</pdfrwt>
<totfact> 0.67751147E+06</totfact>
</mgrwt>
</event>
<event>
 3    1  0.1592492E-001  0.1250000E+03  0.7546771E-02  0.1235069E+00
         21   -1    0    0  502  501  0.00000000000E+00  0.00000000000E+00  0.32369256377E+02  0.32369256377E+02  0.00000000000E+00 0. -1.
         21   -1    0    0  501  502 -0.00000000000E+00 -0.00000000000E+00 -0.12067778000E+03  0.12067778000E+03  0.00000000000E+00 0. -1.
         25    1    1    2    0    0  0.00000000000E+00  0.00000000000E+00 -0.88308523628E+02  0.15304703638E+03  0.12500000000E+03 0.  0.
<mgrwt>
<rscale>  0 0.12500000E+03</rscale>
<asrwt>0</asrwt>
<pdfrwt beam="1">  1       21 0.49798855E-02 0.12500000E+03</pdfrwt>
<pdfrwt beam="2">  1       21 0.18565813E-01 0.12500000E+03</pdfrwt>
<totfact> 0.70378503E+06</totfact>
</mgrwt>
</event>
<event>
 3    1  0.1592492E-001  0.1250000E+03  0.7546771E-02  0.1235069E+00
         21   -1    0    0  502  501  0.00000000000E+00  0.00000000000E+00  0.36471067381E+02  0.36471067381E+02  0.00000000000E+00 0.  1.
         21   -1    0    0  501  502 -0.00000000000E+00 -0.00000000000E+00 -0.10710544770E+03  0.10710544770E+03  0.00000000000E+00 0.  1.
         25    1    1    2    0    0  0.00000000000E+00  0.00000000000E+00 -0.70634380322E+02  0.14357651508E+03  0.12500000000E+03 0.  0.
<mgrwt>
<rscale>  0 0.12500000E+03</rscale>
<asrwt>0</asrwt>
<pdfrwt beam="1">  1       21 0.56109334E-02 0.12500000E+03</pdfrwt>
<pdfrwt beam="2">  1       21 0.16477761E-01 0.12500000E+03</pdfrwt>
<totfact> 0.71575771E+06</totfact>
</mgrwt>
</event>
<event>
 3    1  0.1592492E-001  0.1250000E+03  0.7546771E-02  0.1235069E+00
         21   -1    0    0  502  501  0.00000000000E+00  0.00000000000E+00  0.34502690400E+01  0.34502690400E+01  0.00000000000E+00 0.  1.
         21   -1    0    0  501  502 -0.00000000000E+00 -0.00000000000E+00 -0.11321580882E+04  0.11321580882E+04  0.00000000000E+00 0.  1.
         25    1    1    2    0    0  0.00000000000E+00  0.00000000000E+00 -0.11287078191E+04  0.11356083572E+04  0.12500000000E+03 0.  0.
<mgrwt>
<rscale>  0 0.12500000E+03</rscale>
<asrwt>0</asrwt>
<pdfrwt beam="1">  1       21 0.53081135E-03 0.12500000E+03</pdfrwt>
<pdfrwt beam="2">  1       21 0.17417793E+00 0.12500000E+03</pdfrwt>
<totfact> 0.20475645E+06</totfact>
</mgrwt>
</event>
<event>
 3    1  0.1592492E-001  0.1250000E+03  0.7546771E-02  0.1235069E+00
         21   -1    0    0  502  501  0.00000000000E+00  0.00000000000E+00  0.10880441608E+03  0.10880441608E+03  0.00000000000E+00 0. -1.
         21   -1    0    0  501  502 -0.00000000000E+00 -0.00000000000E+00 -0.35901575880E+02  0.35901575880E+02  0.00000000000E+00 0. -1.
         25    1    1    2    0    0  0.00000000000E+00  0.00000000000E+00  0.72902840202E+02  0.14470599196E+03  0.12500000000E+03 0.  0.
<mgrwt>
<rscale>  0 0.12500000E+03</rscale>
<asrwt>0</asrwt>
<pdfrwt beam="1">  1       21 0.16739141E-01 0.12500000E+03</pdfrwt>
<pdfrwt beam="2">  1       21 0.55233194E-02 0.12500000E+03</pdfrwt>
<totfact> 0.71430745E+06</totfact>
</mgrwt>
</event>
<event>
 3    1  0.1592492E-001  0.1250000E+03  0.7546771E-02  0.1235069E+00
         21   -1    0    0  502  501  0.00000000000E+00  0.00000000000E+00  0.58944069550E+03  0.58944069550E+03  0.00000000000E+00 0.  1.
         21   -1    0    0  501  502 -0.00000000000E+00 -0.00000000000E+00 -0.66270449764E+01  0.66270449764E+01  0.00000000000E+00 0.  1.
         25    1    1    2    0    0  0.00000000000E+00  0.00000000000E+00  0.58281365052E+03  0.59606774047E+03  0.12500000000E+03 0.  0.
<mgrwt>
<rscale>  0 0.12500000E+03</rscale>
<asrwt>0</asrwt>
<pdfrwt beam="1">  1       21 0.90683142E-01 0.12500000E+03</pdfrwt>
<pdfrwt beam="2">  1       21 0.10195458E-02 0.12500000E+03</pdfrwt>
<totfact> 0.37271080E+06</totfact>
</mgrwt>
</event>
<event>
 3    1  0.1592492E-001  0.1250000E+03  0.7546771E-02  0.1235069E+00
         21   -1    0    0  502  501  0.00000000000E+00  0.00000000000E+00  0.17226141322E+02  0.17226141322E+02  0.00000000000E+00 0. -1.
         21   -1    0    0  501  502 -0.00000000000E+00 -0.00000000000E+00 -0.22676291382E+03  0.22676291382E+03  0.00000000000E+00 0. -1.
         25    1    1    2    0    0  0.00000000000E+00  0.00000000000E+00 -0.20953677250E+03  0.24398905514E+03  0.12500000000E+03 0.  0.
<mgrwt>
<rscale>  0 0.12500000E+03</rscale>
<asrwt>0</asrwt>
<pdfrwt beam="1">  1       21 0.26501756E-02 0.12500000E+03</pdfrwt>
<pdfrwt beam="2">  1       21 0.34886603E-01 0.12500000E+03</pdfrwt>
<totfact> 0.60448772E+06</totfact>
</mgrwt>
</event>
<event>
 3    1  0.1592492E-001  0.1250000E+03  0.7546771E-02  0.1235069E+00
         21   -1    0    0  502  501  0.00000000000E+00  0.00000000000E+00  0.71348214246E+02  0.71348214246E+02  0.00000000000E+00 0.  1.
         21   -1    0    0  501  502 -0.00000000000E+00 -0.00000000000E+00 -0.54749092760E+02  0.54749092760E+02  0.00000000000E+00 0.  1.
         25    1    1    2    0    0  0.00000000000E+00  0.00000000000E+00  0.16599121485E+02  0.12609730701E+03  0.12500000000E+03 0.  0.
<mgrwt>
<rscale>  0 0.12500000E+03</rscale>
<asrwt>0</asrwt>
<pdfrwt beam="1">  1       21 0.10976648E-01 0.12500000E+03</pdfrwt>
<pdfrwt beam="2">  1       21 0.84229373E-02 0.12500000E+03</pdfrwt>
<totfact> 0.73892633E+06</totfact>
</mgrwt>
</event>
<event>
 3    1  0.1592492E-001  0.1250000E+03  0.7546771E-02  0.1235069E+00
         21   -1    0    0  502  501  0.00000000000E+00  0.00000000000E+00  0.12045106216E+03  0.12045106216E+03  0.00000000000E+00 0. -1.
         21   -1    0    0  501  502 -0.00000000000E+00 -0.00000000000E+00 -0.32430183097E+02  0.32430183097E+02  0.00000000000E+00 0. -1.
         25    1    1    2    0    0  0.00000000000E+00  0.00000000000E+00  0.88020879062E+02  0.15288124526E+03  0.12500000000E+03 0.  0.
<mgrwt>
<rscale>  0 0.12500000E+03</rscale>
<asrwt>0</asrwt>
<pdfrwt beam="1">  1       21 0.18530932E-01 0.12500000E+03</pdfrwt>
<pdfrwt beam="2">  1       21 0.49892590E-02 0.12500000E+03</pdfrwt>
<totfact> 0.70399113E+06</totfact>
</mgrwt>
</event>
<event>
 3    1  0.1592492E-001  0.1250000E+03  0.7546771E-02  0.1235069E+00
         21   -1    0    0  502  501  0.00000000000E+00  0.00000000000E+00  0.47431854270E+03  0.47431854270E+03  0.00000000000E+00 0. -1.
         21   -1    0    0  501  502 -0.00000000000E+00 -0.00000000000E+00 -0.82354992444E+01  0.82354992444E+01  0.00000000000E+00 0. -1.
         25    1    1    2    0    0  0.00000000000E+00  0.00000000000E+00  0.46608304345E+03  0.48255404194E+03  0.12500000000E+03 0.  0.
<mgrwt>
<rscale>  0 0.12500000E+03</rscale>
<asrwt>0</asrwt>
<pdfrwt beam="1">  1       21 0.72972062E-01 0.12500000E+03</pdfrwt>
<pdfrwt beam="2">  1       21 0.12670003E-02 0.12500000E+03</pdfrwt>
<totfact> 0.43006294E+06</totfact>
</mgrwt>
</event>
<event>
 3    1  0.1592492E-001  0.1250000E+03  0.7546771E-02  0.1235069E+00
         21   -1    0    0  502  501  0.00000000000E+00  0.00000000000E+00  0.13154816813E+02  0.13154816813E+02  0.00000000000E+00 0.  1.
         21   -1    0    0  501  502 -0.00000000000E+00 -0.00000000000E+00 -0.29694446191E+03  0.29694446191E+03  0.00000000000E+00 0.  1.
         25    1    1    2    0    0  0.00000000000E+00  0.00000000000E+00 -0.28378964510E+03  0.31009927873E+03  0.12500000000E+03 0.  0.
<mgrwt>
<rscale>  0 0.12500000E+03</rscale>
<asrwt>0</asrwt>
<pdfrwt beam="1">  1       21 0.20238180E-02 0.12500000E+03</pdfrwt>
<pdfrwt beam="2">  1       21 0.45683762E-01 0.12500000E+03</pdfrwt>
<totfact> 0.54627190E+06</totfact>
</mgrwt>
</event>
<event>
 3    1  0.1592492E-001  0.1250000E+03  0.7546771E-02  0.1235069E+00
         21   -1    0    0  502  501  0.00000000000E+00  0.00000000000E+00  0.29453152459E+02  0.29453152459E+02  0.00000000000E+00 0. -1.
         21   -1    0    0  501  502 -0.00000000000E+00 -0.00000000000E+00 -0.13262587105E+03  0.13262587105E+03  0.00000000000E+00 0. -1.
         25    1    1    2    0    0  0.00000000000E+00  0.00000000000E+00 -0.10317271859E+03  0.16207902351E+03  0.12500000000E+03 0.  0.
<mgrwt>
<rscale>  0 0.12500000E+03</rscale>
<asrwt>0</asrwt>
<pdfrwt beam="1">  1       21 0.45312541E-02 0.12500000E+03</pdfrwt>
<pdfrwt beam="2">  1       21 0.20403981E-01 0.12500000E+03</pdfrwt>
<totfact> 0.69266350E+06</totfact>
</mgrwt>
</event>
<event>
 3    1  0.1592492E-001  0.1250000E+03  0.7546771E-02  0.1235069E+00
         21   -1    0    0  502  501  0.00000000000E+00  0.00000000000E+00  0.11212839033E+04  0.11212839033E+04  0.00000000000E+00 0.  1.
         21   -1    0    0  501  502 -0.00000000000E+00 -0.00000000000E+00 -0.34837296679E+01  0.34837296679E+01  0.00000000000E+00 0.  1.
         25    1    1    2    0    0  0.00000000000E+00  0.00000000000E+00  0.11178001736E+04  0.11247676329E+04  0.12500000000E+03 0.  0.
<mgrwt>
<rscale>  0 0.12500000E+03</rscale>
<asrwt>0</asrwt>
<pdfrwt beam="1">  1       21 0.17250493E+00 0.12500000E+03</pdfrwt>
<pdfrwt beam="2">  1       21 0.53595931E-03 0.12500000E+03</pdfrwt>
<totfact> 0.20708874E+06</totfact>
</mgrwt>
</event>
<event>
 3    1  0.1592492E-001  0.1250000E+03  0.7546771E-02  0.1235069E+00
         21   -1    0    0  502  501  0.00000000000E+00  0.00000000000E+00  0.74733417083E+02  0.74733417083E+02  0.00000000000E+00 0. -1.
         21   -1    0    0  501  502 -0.00000000000E+00 -0.00000000000E+00 -0.52269120729E+02  0.52269120729E+02  0.00000000000E+00 0. -1.
         25    1    1    2    0    0  0.00000000000E+00  0.00000000000E+00  0.22464296354E+02  0.12700253781E+03  0.12500000000E+03 0.  0.
<mgrwt>
<rscale>  0 0.12500000E+03</rscale>
<asrwt>0</asrwt>
<pdfrwt beam="1">  1       21 0.11497449E-01 0.12500000E+03</pdfrwt>
<pdfrwt beam="2">  1       21 0.80414032E-02 0.12500000E+03</pdfrwt>
<totfact> 0.73768791E+06</totfact>
</mgrwt>
</event>
<event>
 3    1  0.1592492E-001  0.1250000E+03  0.7546771E-02  0.1235069E+00
         21   -1    0    0  502  501  0.00000000000E+00  0.00000000000E+00  0.27644054989E+01  0.27644054989E+01  0.00000000000E+00 0.  1.
         21   -1    0    0  501  502 -0.00000000000E+00 -0.00000000000E+00 -0.14130524634E+04  0.14130524634E+04  0.00000000000E+00 0.  1.
         25    1    1    2    0    0  0.00000000000E+00  0.00000000000E+00 -0.14102880579E+04  0.14158168689E+04  0.12500000000E+03 0.  0.
<mgrwt>
<rscale>  0 0.12500000E+03</rscale>
<asrwt>0</asrwt>
<pdfrwt beam="1">  1       21 0.42529248E-03 0.12500000E+03</pdfrwt>
<pdfrwt beam="2">  1       21 0.21739303E+00 0.12500000E+03</pdfrwt>
<totfact> 0.15289313E+06</totfact>
</mgrwt>
</event>
<event>
 3    1  0.1592492E-001  0.1250000E+03  0.7546771E-02  0.1235069E+00
         21   -1    0    0  502  501  0.00000000000E+00  0.00000000000E+00  0.50728748299E+02  0.50728748299E+02  0.00000000000E+00 0.  1.
         21   -1    0    0  501  502 -0.00000000000E+00 -0.00000000000E+00 -0.77002688435E+02  0.77002688435E+02  0.00000000000E+00 0.  1.
         25    1    1    2    0    0  0.00000000000E+00  0.00000000000E+00 -0.26273940136E+02  0.12773143673E+03  0.12500000000E+03 0.  0.
<mgrwt>
<rscale>  0 0.12500000E+03</rscale>
<asrwt>0</asrwt>
<pdfrwt beam="1">  1       21 0.78044229E-02 0.12500000E+03</pdfrwt>
<pdfrwt beam="2">  1       21 0.11846567E-01 0.12500000E+03</pdfrwt>
<totfact> 0.73669871E+06</totfact>
</mgrwt>
</event>
<event>
 3    1  0.1592492E-001  0.1250000E+03  0.7546771E-02  0.1235069E+00
         21   -1    0    0  502  501  0.00000000000E+00  0.00000000000E+00  0.38433890221E+03  0.38433890221E+03  0.00000000000E+00 0. -1.
         21   -1    0    0  501  502 -0.00000000000E+00 -0.00000000000E+00 -0.10163556116E+02  0.10163556116E+02  0.00000000000E+00 0. -1.
         25    1    1    2    0    0  0.00000000000E+00  0.00000000000E+00  0.37417534609E+03  0.39450245833E+03  0.12500000000E+03 0.  0.
<mgrwt>
<rscale>  0 0.12500000E+03</rscale>
<asrwt>0</asrwt>
<pdfrwt beam="1">  1       21 0.59129051E-01 0.12500000E+03</pdfrwt>
<pdfrwt beam="2">  1       21 0.15636243E-02 0.12500000E+03</pdfrwt>
<totfact> 0.48408152E+06</totfact>
</mgrwt>
</event>
<event>
 3    1  0.1592492E-001  0.1250000E+03  0.7546771E-02  0.1235069E+00
         21   -1    0    0  502  501  0.00000000000E+00  0.00000000000E+00  0.33033136712E+02  0.33033136712E+02  0.00000000000E+00 0.  1.
         21   -1    0    0  501  502 -0.00000000000E+00 -0.00000000000E+00 -0.11825246976E+03  0.11825246976E+03  0.00000000000E+00 0.  1.
         25    1    1    2    0    0  0.00000000000E+00  0.00000000000E+00 -0.85219333043E+02  0.15128560647E+03  0.12500000000E+03 0.  0.
<mgrwt>
<rscale>  0 0.12500000E+03</rscale>
<asrwt>0</asrwt>
<pdfrwt beam="1">  1       21 0.50820211E-02 0.12500000E+03</pdfrwt>
<pdfrwt beam="2">  1       21 0.18192688E-01 0.12500000E+03</pdfrwt>
<totfact> 0.70598077E+06</totfact>
</mgrwt>
</event>
<event>
 3    1  0.1592492E-001  0.1250000E+03  0.7546771E-02  0.1235069E+00
         21   -1    0    0  502  501  0.00000000000E+00  0.00000000000E+00  0.27086806540E+02  0.27086806540E+02  0.00000000000E+00 0. -1.
         21   -1    0    0  501  502 -0.00000000000E+00 -0.00000000000E+00 -0.14421227524E+03  0.14421227524E+03  0.00000000000E+00 0. -1.
         25    1    1    2    0    0  0.00000000000E+00  0.00000000000E+00 -0.11712546870E+03  0.17129908178E+03  0.12500000000E+03 0.  0.
<mgrwt>
<rscale>  0 0.12500000E+03</rscale>
<asrwt>0</asrwt>
<pdfrwt beam="1">  1       21 0.41672009E-02 0.12500000E+03</pdfrwt>
<pdfrwt beam="2">  1       21 0.22186504E-01 0.12500000E+03</pdfrwt>
<totfact> 0.68163969E+06</totfact>
</mgrwt>
</event>
<event>
 3    1  0.1592492E-001  0.1250000E+03  0.7546771E-02  0.1235069E+00
         21   -1    0    0  502  501  0.00000000000E+00  0.00000000000E+00  0.50057467078E+02  0.50057467078E+02  0.00000000000E+00 0.  1.
         21   -1    0    0  501  502 -0.00000000000E+00 -0.00000000000E+00 -0.78035310773E+02  0.78035310773E+02  0.00000000000E+00 0.  1.
         25    1    1    2    0    0  0.00000000000E+00  0.00000000000E+00 -0.27977843695E+02  0.12809277785E+03  0.12500000000E+03 0.  0.
<mgrwt>
<rscale>  0 0.12500000E+03</rscale>
<asrwt>0</asrwt>
<pdfrwt beam="1">  1       21 0.77011488E-02 0.12500000E+03</pdfrwt>
<pdfrwt beam="2">  1       21 0.12005432E-01 0.12500000E+03</pdfrwt>
<totfact> 0.73621030E+06</totfact>
</mgrwt>
</event>
<event>
 3    1  0.1592492E-001  0.1250000E+03  0.7546771E-02  0.1235069E+00
         21   -1    0    0  502  501  0.00000000000E+00  0.00000000000E+00  0.29484794575E+02  0.29484794575E+02  0.00000000000E+00 0. -1.
         21   -1    0    0  501  502 -0.00000000000E+00 -0.00000000000E+00 -0.13248354131E+03  0.13248354131E+03  0.00000000000E+00 0. -1.
         25    1    1    2    0    0  0.00000000000E+00  0.00000000000E+00 -0.10299874673E+03  0.16196833588E+03  0.12500000000E+03 0.  0.
<mgrwt>
<rscale>  0 0.12500000E+03</rscale>
<asrwt>0</asrwt>
<pdfrwt beam="1">  1       21 0.45361222E-02 0.12500000E+03</pdfrwt>
<pdfrwt beam="2">  1       21 0.20382083E-01 0.12500000E+03</pdfrwt>
<totfact> 0.69279783E+06</totfact>
</mgrwt>
</event>
<event>
 3    1  0.1592492E-001  0.1250000E+03  0.7546771E-02  0.1235069E+00
         21   -1    0    0  502  501  0.00000000000E+00  0.00000000000E+00  0.60090747924E+02  0.60090747924E+02  0.00000000000E+00 0. -1.
         21   -1    0    0  501  502 -0.00000000000E+00 -0.00000000000E+00 -0.65005847571E+02  0.65005847571E+02  0.00000000000E+00 0. -1.
         25    1    1    2    0    0  0.00000000000E+00  0.00000000000E+00 -0.49150996470E+01  0.12509659550E+03  0.12500000000E+03 0.  0.
<mgrwt>
<rscale>  0 0.12500000E+03</rscale>
<asrwt>0</asrwt>
<pdfrwt beam="1">  1       21 0.92447304E-02 0.12500000E+03</pdfrwt>
<pdfrwt beam="2">  1       21 0.10000900E-01 0.12500000E+03</pdfrwt>
<totfact> 0.74030535E+06</totfact>
</mgrwt>
</event>
<event>
 3    1  0.1592492E-001  0.1250000E+03  0.7546771E-02  0.1235069E+00
         21   -1    0    0  502  501  0.00000000000E+00  0.00000000000E+00  0.18981046988E+02  0.18981046988E+02  0.00000000000E+00 0.  1.
         21   -1    0    0  501  502 -0.00000000000E+00 -0.00000000000E+00 -0.20579739371E+03  0.20579739371E+03  0.00000000000E+00 0.  1.
         25    1    1    2    0    0  0.00000000000E+00  0.00000000000E+00 -0.18681634673E+03  0.22477844070E+03  0.12500000000E+03 0.  0.
<mgrwt>
<rscale>  0 0.12500000E+03</rscale>
<asrwt>0</asrwt>
<pdfrwt beam="1">  1       21 0.29201610E-02 0.12500000E+03</pdfrwt>
<pdfrwt beam="2">  1       21 0.31661138E-01 0.12500000E+03</pdfrwt>
<totfact> 0.62337427E+06</totfact>
</mgrwt>
</event>
<event>
 3    1  0.1592492E-001  0.1250000E+03  0.7546771E-02  0.1235069E+00
         21   -1    0    0  502  501  0.00000000000E+00  0.00000000000E+00  0.67588833328E+03  0.67588833328E+03  0.00000000000E+00 0.  1.
         21   -1    0    0  501  502 -0.00000000000E+00 -0.00000000000E+00 -0.57794310209E+01  0.57794310209E+01  0.00000000000E+00 0.  1.
         25    1    1    2    0    0  0.00000000000E+00  0.00000000000E+00  0.67010890226E+03  0.68166776430E+03  0.12500000000E+03 0.  0.
<mgrwt>
<rscale>  0 0.12500000E+03</rscale>
<asrwt>0</asrwt>
<pdfrwt beam="1">  1       21 0.10398276E+00 0.12500000E+03</pdfrwt>
<pdfrwt beam="2">  1       21 0.88914377E-03 0.12500000E+03</pdfrwt>
<totfact> 0.33628985E+06</totfact>
</mgrwt>
</event>
<event>
 3    1  0.1592492E-001  0.1250000E+03  0.7546771E-02  0.1235069E+00
         21   -1    0    0  502  501  0.00000000000E+00  0.00000000000E+00  0.19848240417E+04  0.19848240417E+04  0.00000000000E+00 0.  1.
         21   -1    0    0  501  502 -0.00000000000E+00 -0.00000000000E+00 -0.19680585875E+01  0.19680585875E+01  0.00000000000E+00 0.  1.
         25    1    1    2    0    0  0.00000000000E+00  0.00000000000E+00  0.19828559831E+04  0.19867921003E+04  0.12500000000E+03 0.  0.
<mgrwt>
<rscale>  0 0.12500000E+03</rscale>
<asrwt>0</asrwt>
<pdfrwt beam="1">  1       21 0.30535594E+00 0.12500000E+03</pdfrwt>
<pdfrwt beam="2">  1       21 0.30277983E-03 0.12500000E+03</pdfrwt>
<totfact> 0.80775855E+05</totfact>
</mgrwt>
</event>
<event>
 3    1  0.1592492E-001  0.1250000E+03  0.7546771E-02  0.1235069E+00
         21   -1    0    0  502  501  0.00000000000E+00  0.00000000000E+00  0.12713263635E+03  0.12713263635E+03  0.00000000000E+00 0. -1.
         21   -1    0    0  501  502 -0.00000000000E+00 -0.00000000000E+00 -0.30725784599E+02  0.30725784599E+02  0.00000000000E+00 0. -1.
         25    1    1    2    0    0  0.00000000000E+00  0.00000000000E+00  0.96406851753E+02  0.15785842095E+03  0.12500000000E+03 0.  0.
<mgrwt>
<rscale>  0 0.12500000E+03</rscale>
<asrwt>0</asrwt>
<pdfrwt beam="1">  1       21 0.19558867E-01 0.12500000E+03</pdfrwt>
<pdfrwt beam="2">  1       21 0.47270438E-02 0.12500000E+03</pdfrwt>
<totfact> 0.69782125E+06</totfact>
</mgrwt>
</event>
<event>
 3    1  0.1592492E-001  0.1250000E+03  0.7546771E-02  0.1235069E+00
         21   -1    0    0  502  501  0.00000000000E+00  0.00000000000E+00  0.11560708099E+03  0.11560708099E+03  0.00000000000E+00 0.  1.
         21   -1    0    0  501  502 -0.00000000000E+00 -0.00000000000E+00 -0.33789020244E+02  0.33789020244E+02  0.00000000000E+00 0.  1.
         25    1    1    2    0    0  0.00000000000E+00  0.00000000000E+00  0.81818060747E+02  0.14939610124E+03  0.12500000000E+03 0.  0.
<mgrwt>
<rscale>  0 0.12500000E+03</rscale>
<asrwt>0</asrwt>
<pdfrwt beam="1">  1       21 0.17785705E-01 0.12500000E+03</pdfrwt>
<pdfrwt beam="2">  1       21 0.51983109E-02 0.12500000E+03</pdfrwt>
<totfact> 0.70835144E+06</totfact>
</mgrwt>
</event>
<event>
 3    1  0.1592492E-001  0.1250000E+03  0.7546771E-02  0.1235069E+00
         21   -1    0    0  502  501  0.00000000000E+00  0.00000000000E+00  0.11884621406E+03  0.11884621406E+03  0.00000000000E+00 0. -1.
         21   -1    0    0  501  502 -0.00000000000E+00 -0.00000000000E+00 -0.32868106324E+02  0.32868106324E+02  0.00000000000E+00 0. -1.
         25    1    1    2    0    0  0.00000000000E+00  0.00000000000E+00  0.85978107739E+02  0.15171432039E+03  0.12500000000E+03 0.  0.
<mgrwt>
<rscale>  0 0.12500000E+03</rscale>
<asrwt>0</asrwt>
<pdfrwt beam="1">  1       21 0.18284033E-01 0.12500000E+03</pdfrwt>
<pdfrwt beam="2">  1       21 0.50566318E-02 0.12500000E+03</pdfrwt>
<totfact> 0.70544510E+06</totfact>
</mgrwt>
</event>
<event>
 3    1  0.1592492E-001  0.1250000E+03  0.7546771E-02  0.1235069E+00
         21   -1    0    0  502  501  0.00000000000E+00  0.00000000000E+00  0.10323778436E+03  0.10323778436E+03  0.00000000000E+00 0.  1.
         21   -1    0    0  501  502 -0.00000000000E+00 -0.00000000000E+00 -0.37837406373E+02  0.37837406373E+02  0.00000000000E+00 0.  1.
         25    1    1    2    0    0  0.00000000000E+00  0.00000000000E+00  0.65400377991E+02  0.14107519074E+03  0.12500000000E+03 0.  0.
<mgrwt>
<rscale>  0 0.12500000E+03</rscale>
<asrwt>0</asrwt>
<pdfrwt beam="1">  1       21 0.15882736E-01 0.12500000E+03</pdfrwt>
<pdfrwt beam="2">  1       21 0.58211395E-02 0.12500000E+03</pdfrwt>
<totfact> 0.71899254E+06</totfact>
</mgrwt>
</event>
<event>
 3    1  0.1592492E-001  0.1250000E+03  0.7546771E-02  0.1235069E+00
         21   -1    0    0  502  501  0.00000000000E+00  0.00000000000E+00  0.32336918025E+03  0.32336918025E+03  0.00000000000E+00 0.  1.
         21   -1    0    0  501  502 -0.00000000000E+00 -0.00000000000E+00 -0.12079846314E+02  0.12079846314E+02  0.00000000000E+00 0.  1.
         25    1    1    2    0    0  0.00000000000E+00  0.00000000000E+00  0.31128933394E+03  0.33544902656E+03  0.12500000000E+03 0.  0.
<mgrwt>
<rscale>  0 0.12500000E+03</rscale>
<asrwt>0</asrwt>
<pdfrwt beam="1">  1       21 0.49749098E-01 0.12500000E+03</pdfrwt>
<pdfrwt beam="2">  1       21 0.18584381E-02 0.12500000E+03</pdfrwt>
<totfact> 0.52631355E+06</totfact>
</mgrwt>
</event>
<event>
 3    1  0.1592492E-001  0.1250000E+03  0.7546771E-02  0.1235069E+00
         21   -1    0    0  502  501  0.00000000000E+00  0.00000000000E+00  0.28486883930E+02  0.28486883930E+02  0.00000000000E+00 0. -1.
         21   -1    0    0  501  502 -0.00000000000E+00 -0.00000000000E+00 -0.13712450999E+03  0.13712450999E+03  0.00000000000E+00 0. -1.
         25    1    1    2    0    0  0.00000000000E+00  0.00000000000E+00 -0.10863762606E+03  0.16561139392E+03  0.12500000000E+03 0.  0.
<mgrwt>
<rscale>  0 0.12500000E+03</rscale>
<asrwt>0</asrwt>
<pdfrwt beam="1">  1       21 0.43825976E-02 0.12500000E+03</pdfrwt>
<pdfrwt beam="2">  1       21 0.21096078E-01 0.12500000E+03</pdfrwt>
<totfact> 0.68840262E+06</totfact>
</mgrwt>
</event>
<event>
 3    1  0.1592492E-001  0.1250000E+03  0.7546771E-02  0.1235069E+00
         21   -1    0    0  502  501  0.00000000000E+00  0.00000000000E+00  0.25450810162E+03  0.25450810162E+03  0.00000000000E+00 0. -1.
         21   -1    0    0  501  502 -0.00000000000E+00 -0.00000000000E+00 -0.15348234399E+02  0.15348234399E+02  0.00000000000E+00 0. -1.
         25    1    1    2    0    0  0.00000000000E+00  0.00000000000E+00  0.23915986722E+03  0.26985633602E+03  0.12500000000E+03 0.  0.
<mgrwt>
<rscale>  0 0.12500000E+03</rscale>
<asrwt>0</asrwt>
<pdfrwt beam="1">  1       21 0.39155089E-01 0.12500000E+03</pdfrwt>
<pdfrwt beam="2">  1       21 0.23612670E-02 0.12500000E+03</pdfrwt>
<totfact> 0.58057495E+06</totfact>
</mgrwt>
</event>
<event>
 3    1  0.1592492E-001  0.1250000E+03  0.7546771E-02  0.1235069E+00
         21   -1    0    0  502  501  0.00000000000E+00  0.00000000000E+00  0.19004972664E+02  0.19004972664E+02  0.00000000000E+00 0. -1.
         21   -1    0    0  501  502 -0.00000000000E+00 -0.00000000000E+00 -0.20553831195E+03  0.20553831195E+03  0.00000000000E+00 0. -1.
         25    1    1    2    0    0  0.00000000000E+00  0.00000000000E+00 -0.18653333929E+03  0.22454328462E+03  0.12500000000E+03 0.  0.
<mgrwt>
<rscale>  0 0.12500000E+03</rscale>
<asrwt>0</asrwt>
<pdfrwt beam="1">  1       21 0.29238421E-02 0.12500000E+03</pdfrwt>
<pdfrwt beam="2">  1       21 0.31621278E-01 0.12500000E+03</pdfrwt>
<totfact> 0.62361147E+06</totfact>
</mgrwt>
</event>
<event>
 3    1  0.1592492E-001  0.1250000E+03  0.7546771E-02  0.1235069E+00
         21   -1    0    0  502  501  0.00000000000E+00  0.00000000000E+00  0.37093274538E+02  0.37093274538E+02  0.00000000000E+00 0.  1.
         21   -1    0    0  501  502 -0.00000000000E+00 -0.00000000000E+00 -0.10530884773E+03  0.10530884773E+03  0.00000000000E+00 0.  1.
         25    1    1    2    0    0  0.00000000000E+00  0.00000000000E+00 -0.68215573189E+02  0.14240212226E+03  0.12500000000E+03 0.  0.
<mgrwt>
<rscale>  0 0.12500000E+03</rscale>
<asrwt>0</asrwt>
<pdfrwt beam="1">  1       21 0.57066577E-02 0.12500000E+03</pdfrwt>
<pdfrwt beam="2">  1       21 0.16201361E-01 0.12500000E+03</pdfrwt>
<totfact> 0.71727247E+06</totfact>
</mgrwt>
</event>
<event>
 3    1  0.1592492E-001  0.1250000E+03  0.7546771E-02  0.1235069E+00
         21   -1    0    0  502  501  0.00000000000E+00  0.00000000000E+00  0.16128675125E+03  0.16128675125E+03  0.00000000000E+00 0. -1.
         21   -1    0    0  501  502 -0.00000000000E+00 -0.00000000000E+00 -0.24219286270E+02  0.24219286270E+02  0.00000000000E+00 0. -1.
         25    1    1    2    0    0  0.00000000000E+00  0.00000000000E+00  0.13706746498E+03  0.18550603752E+03  0.12500000000E+03 0.  0.
<mgrwt>
<rscale>  0 0.12500000E+03</rscale>
<asrwt>0</asrwt>
<pdfrwt beam="1">  1       21 0.24813346E-01 0.12500000E+03</pdfrwt>
<pdfrwt beam="2">  1       21 0.37260441E-02 0.12500000E+03</pdfrwt>
<totfact> 0.66525446E+06</totfact>
</mgrwt>
</event>
<event>
 3    1  0.1592492E-001  0.1250000E+03  0.7546771E-02  0.1235069E+00
         21   -1    0    0  502  501  0.00000000000E+00  0.00000000000E+00  0.34100523584E+03  0.34100523584E+03  0.00000000000E+00 0.  1.
         21   -1    0    0  501  502 -0.00000000000E+00 -0.00000000000E+00 -0.11455102706E+02  0.11455102706E+02  0.00000000000E+00 0.  1.
         25    1    1    2    0    0  0.00000000000E+00  0.00000000000E+00  0.32955013314E+03  0.35246033855E+03  0.12500000000E+03 0.  0.
<mgrwt>
<rscale>  0 0.12500000E+03</rscale>
<asrwt>0</asrwt>
<pdfrwt beam="1">  1       21 0.52462336E-01 0.12500000E+03</pdfrwt>
<pdfrwt beam="2">  1       21 0.17623238E-02 0.12500000E+03</pdfrwt>
<totfact> 0.51357244E+06</totfact>
</mgrwt>
</event>
<event>
 3    1  0.1592492E-001  0.1250000E+03  0.7546771E-02  0.1235069E+00
         21   -1    0    0  502  501  0.00000000000E+00  0.00000000000E+00  0.10163487803E+03  0.10163487803E+03  0.00000000000E+00 0.  1.
         21   -1    0    0  501  502 -0.00000000000E+00 -0.00000000000E+00 -0.38434148549E+02  0.38434148549E+02  0.00000000000E+00 0.  1.
         25    1    1    2    0    0  0.00000000000E+00  0.00000000000E+00  0.63200729481E+02  0.14006902658E+03  0.12500000000E+03 0.  0.
<mgrwt>
<rscale>  0 0.12500000E+03</rscale>
<asrwt>0</asrwt>
<pdfrwt beam="1">  1       21 0.15636135E-01 0.12500000E+03</pdfrwt>
<pdfrwt beam="2">  1       21 0.59129460E-02 0.12500000E+03</pdfrwt>
<totfact> 0.72030298E+06</totfact>
</mgrwt>
</event>
<event>
 3    1  0.1592492E-001  0.1250000E+03  0.7546771E-02  0.1235069E+00
         21   -1    0    0  502  501  0.00000000000E+00  0.00000000000E+00  0.14129562143E+01  0.14129562143E+01  0.00000000000E+00 0. -1.
         21   -1    0    0  501  502 -0.00000000000E+00 -0.00000000000E+00 -0.27645938074E+04  0.27645938074E+04  0.00000000000E+00 0. -1.
         25    1    1    2    0    0  0.00000000000E+00  0.00000000000E+00 -0.27631808511E+04  0.27660067636E+04  0.12500000000E+03 0.  0.
<mgrwt>
<rscale>  0 0.12500000E+03</rscale>
<asrwt>0</asrwt>
<pdfrwt beam="1">  1       21 0.21737910E-03 0.12500000E+03</pdfrwt>
<pdfrwt beam="2">  1       21 0.42531973E+00 0.12500000E+03</pdfrwt>
<totfact> 0.26275166E+05</totfact>
</mgrwt>
</event>
<event>
 3    1  0.1592492E-001  0.1250000E+03  0.7546771E-02  0.1235069E+00
         21   -1    0    0  502  501  0.00000000000E+00  0.00000000000E+00  0.70245296609E+02  0.70245296609E+02  0.00000000000E+00 0. -1.
         21   -1    0    0  501  502 -0.00000000000E+00 -0.00000000000E+00 -0.55608705331E+02  0.55608705331E+02  0.00000000000E+00 0. -1.
         25    1    1    2    0    0  0.00000000000E+00  0.00000000000E+00  0.14636591278E+02  0.12585400194E+03  0.12500000000E+03 0.  0.
<mgrwt>
<rscale>  0 0.12500000E+03</rscale>
<asrwt>0</asrwt>
<pdfrwt beam="1">  1       21 0.10806969E-01 0.12500000E+03</pdfrwt>
<pdfrwt beam="2">  1       21 0.85551854E-02 0.12500000E+03</pdfrwt>
<totfact> 0.73926199E+06</totfact>
</mgrwt>
</event>
<event>
 3    1  0.1592492E-001  0.1250000E+03  0.7546771E-02  0.1235069E+00
         21   -1    0    0  502  501  0.00000000000E+00  0.00000000000E+00  0.94346051789E+02  0.94346051789E+02  0.00000000000E+00 0.  1.
         21   -1    0    0  501  502 -0.00000000000E+00 -0.00000000000E+00 -0.41403428399E+02  0.41403428399E+02  0.00000000000E+00 0.  1.
         25    1    1    2    0    0  0.00000000000E+00  0.00000000000E+00  0.52942623389E+02  0.13574948019E+03  0.12500000000E+03 0.  0.
<mgrwt>
<rscale>  0 0.12500000E+03</rscale>
<asrwt>0</asrwt>
<pdfrwt beam="1">  1       21 0.14514777E-01 0.12500000E+03</pdfrwt>
<pdfrwt beam="2">  1       21 0.63697582E-02 0.12500000E+03</pdfrwt>
<totfact> 0.72597388E+06</totfact>
</mgrwt>
</event>
<event>
 3    1  0.1592492E-001  0.1250000E+03  0.7546771E-02  0.1235069E+00
         21   -1    0    0  502  501  0.00000000000E+00  0.00000000000E+00  0.10748536318E+02  0.10748536318E+02  0.00000000000E+00 0.  1.
         21   -1    0    0  501  502 -0.00000000000E+00 -0.00000000000E+00 -0.36342157522E+03  0.36342157522E+03  0.00000000000E+00 0.  1.
         25    1    1    2    0    0  0.00000000000E+00  0.00000000000E+00 -0.35267303890E+03  0.37417011154E+03  0.12500000000E+03 0.  0.
<mgrwt>
<rscale>  0 0.12500000E+03</rscale>
<asrwt>0</asrwt>
<pdfrwt beam="1">  1       21 0.16536210E-02 0.12500000E+03</pdfrwt>
<pdfrwt beam="2">  1       21 0.55911010E-01 0.12500000E+03</pdfrwt>
<totfact> 0.49801453E+06</totfact>
</mgrwt>
</event>
<event>
 3    1  0.1592492E-001  0.1250000E+03  0.7546771E-02  0.1235069E+00
         21   -1    0    0  502  501  0.00000000000E+00  0.00000000000E+00  0.50126361667E+01  0.50126361667E+01  0.00000000000E+00 0. -1.
         21   -1    0    0  501  502 -0.00000000000E+00 -0.00000000000E+00 -0.77928057615E+03  0.77928057615E+03  0.00000000000E+00 0. -1.
         25    1    1    2    0    0  0.00000000000E+00  0.00000000000E+00 -0.77426793998E+03  0.78429321231E+03  0.12500000000E+03 0.  0.
<mgrwt>
<rscale>  0 0.12500000E+03</rscale>
<asrwt>0</asrwt>
<pdfrwt beam="1">  1       21 0.77117483E-03 0.12500000E+03</pdfrwt>
<pdfrwt beam="2">  1       21 0.11988931E+00 0.12500000E+03</pdfrwt>
<totfact> 0.29889868E+06</totfact>
</mgrwt>
</event>
<event>
 3    1  0.1592492E-001  0.1250000E+03  0.7546771E-02  0.1235069E+00
         21   -1    0    0  502  501  0.00000000000E+00  0.00000000000E+00  0.33998725777E+03  0.33998725777E+03  0.00000000000E+00 0. -1.
         21   -1    0    0  501  502 -0.00000000000E+00 -0.00000000000E+00 -0.11489401178E+02  0.11489401178E+02  0.00000000000E+00 0. -1.
         25    1    1    2    0    0  0.00000000000E+00  0.00000000000E+00  0.32849785659E+03  0.35147665895E+03  0.12500000000E+03 0.  0.
<mgrwt>
<rscale>  0 0.12500000E+03</rscale>
<asrwt>0</asrwt>
<pdfrwt beam="1">  1       21 0.52305725E-01 0.12500000E+03</pdfrwt>
<pdfrwt beam="2">  1       21 0.17676004E-02 0.12500000E+03</pdfrwt>
<totfact> 0.51429564E+06</totfact>
</mgrwt>
</event>
<event>
 3    1  0.1592492E-001  0.1250000E+03  0.7546771E-02  0.1235069E+00
         21   -1    0    0  502  501  0.00000000000E+00  0.00000000000E+00  0.64666253569E+02  0.64666253569E+02  0.00000000000E+00 0. -1.
         21   -1    0    0  501  502 -0.00000000000E+00 -0.00000000000E+00 -0.60406313717E+02  0.60406313717E+02  0.00000000000E+00 0. -1.
         25    1    1    2    0    0  0.00000000000E+00  0.00000000000E+00  0.42599398514E+01  0.12507256729E+03  0.12500000000E+03 0.  0.
<mgrwt>
<rscale>  0 0.12500000E+03</rscale>
<asrwt>0</asrwt>
<pdfrwt beam="1">  1       21 0.99486544E-02 0.12500000E+03</pdfrwt>
<pdfrwt beam="2">  1       21 0.92932790E-02 0.12500000E+03</pdfrwt>
<totfact> 0.74033780E+06</totfact>
</mgrwt>
</event>
<event>
 3    1  0.1592492E-001  0.1250000E+03  0.7546771E-02  0.1235069E+00
         21   -1    0    0  502  501  0.00000000000E+00  0.00000000000E+00  0.25750389405E+03  0.25750389405E+03  0.00000000000E+00 0. -1.
         21   -1    0    0  501  502 -0.00000000000E+00 -0.00000000000E+00 -0.15169673509E+02  0.15169673509E+02  0.00000000000E+00 0. -1.
         25    1    1    2    0    0  0.00000000000E+00  0.00000000000E+00  0.24233422055E+03  0.27267356756E+03  0.12500000000E+03 0.  0.
<mgrwt>
<rscale>  0 0.12500000E+03</rscale>
<asrwt>0</asrwt>
<pdfrwt beam="1">  1       21 0.39615981E-01 0.12500000E+03</pdfrwt>
<pdfrwt beam="2">  1       21 0.23337961E-02 0.12500000E+03</pdfrwt>
<totfact> 0.57806412E+06</totfact>
</mgrwt>
</event>
<event>
 3    1  0.1592492E-001  0.1250000E+03  0.7546771E-02  0.1235069E+00
         21   -1    0    0  502  501  0.00000000000E+00  0.00000000000E+00  0.23708245057E+03  0.23708245057E+03  0.00000000000E+00 0.  1.
         21   -1    0    0  501  502 -0.00000000000E+00 -0.00000000000E+00 -0.16476335514E+02  0.16476335514E+02  0.00000000000E+00 0.  1.
         25    1    1    2    0    0  0.00000000000E+00  0.00000000000E+00  0.22060611505E+03  0.25355878608E+03  0.12500000000E+03 0.  0.
<mgrwt>
<rscale>  0 0.12500000E+03</rscale>
<asrwt>0</asrwt>
<pdfrwt beam="1">  1       21 0.36474221E-01 0.12500000E+03</pdfrwt>
<pdfrwt beam="2">  1       21 0.25348210E-02 0.12500000E+03</pdfrwt>
<totfact> 0.59544745E+06</totfact>
</mgrwt>
</event>
<event>
 3    1  0.1592492E-001  0.1250000E+03  0.7546771E-02  0.1235069E+00
         21   -1    0    0  502  501  0.00000000000E+00  0.00000000000E+00  0.50196423553E+01  0.50196423553E+01  0.00000000000E+00 0. -1.
         21   -1    0    0  501  502 -0.00000000000E+00 -0.00000000000E+00 -0.77819289175E+03  0.77819289175E+03  0.00000000000E+00 0. -1.
         25    1    1    2    0    0  0.00000000000E+00  0.00000000000E+00 -0.77317324940E+03  0.78321253411E+03  0.12500000000E+03 0.  0.
<mgrwt>
<rscale>  0 0.12500000E+03</rscale>
<asrwt>0</asrwt>
<pdfrwt beam="1">  1       21 0.77225254E-03 0.12500000E+03</pdfrwt>
<pdfrwt beam="2">  1       21 0.11972200E+00 0.12500000E+03</pdfrwt>
<totfact> 0.29926615E+06</totfact>
</mgrwt>
</event>
<event>
 3    1  0.1592492E-001  0.1250000E+03  0.7546771E-02  0.1235069E+00
         21   -1    0    0  502  501  0.00000000000E+00  0.00000000000E+00  0.12775857374E+04  0.12775857374E+04  0.00000000000E+00 0.  1.
         21   -1    0    0  501  502 -0.00000000000E+00 -0.00000000000E+00 -0.30575247404E+01  0.30575247404E+01  0.00000000000E+00 0.  1.
         25    1    1    2    0    0  0.00000000000E+00  0.00000000000E+00  0.12745282126E+04  0.12806432621E+04  0.12500000000E+03 0.  0.
<mgrwt>
<rscale>  0 0.12500000E+03</rscale>
<asrwt>0</asrwt>
<pdfrwt beam="1">  1       21 0.19655123E+00 0.12500000E+03</pdfrwt>
<pdfrwt beam="2">  1       21 0.47038944E-03 0.12500000E+03</pdfrwt>
<totfact> 0.17603573E+06</totfact>
</mgrwt>
</event>
<event>
 3    1  0.1592492E-001  0.1250000E+03  0.7546771E-02  0.1235069E+00
         21   -1    0    0  502  501  0.00000000000E+00  0.00000000000E+00  0.33233316658E+03  0.33233316658E+03  0.00000000000E+00 0.  1.
         21   -1    0    0  501  502 -0.00000000000E+00 -0.00000000000E+00 -0.11754017934E+02  0.11754017934E+02  0.00000000000E+00 0.  1.
         25    1    1    2    0    0  0.00000000000E+00  0.00000000000E+00  0.32057914864E+03  0.34408718451E+03  0.12500000000E+03 0.  0.
<mgrwt>
<rscale>  0 0.12500000E+03</rscale>
<asrwt>0</asrwt>
<pdfrwt beam="1">  1       21 0.51128172E-01 0.12500000E+03</pdfrwt>
<pdfrwt beam="2">  1       21 0.18083107E-02 0.12500000E+03</pdfrwt>
<totfact> 0.51978099E+06</totfact>
</mgrwt>
</event>
<event>
 3    1  0.1592492E-001  0.1250000E+03  0.7546771E-02  0.1235069E+00
         21   -1    0    0  502  501  0.00000000000E+00  0.00000000000E+00  0.64468871522E+02  0.64468871522E+02  0.00000000000E+00 0.  1.
         21   -1    0    0  501  502 -0.00000000000E+00 -0.00000000000E+00 -0.60591257575E+02  0.60591257575E+02  0.00000000000E+00 0.  1.
         25    1    1    2    0    0  0.00000000000E+00  0.00000000000E+00  0.38776139470E+01  0.12506012910E+03  0.12500000000E+03 0.  0.
<mgrwt>
<rscale>  0 0.12500000E+03</rscale>
<asrwt>0</asrwt>
<pdfrwt beam="1">  1       21 0.99182879E-02 0.12500000E+03</pdfrwt>
<pdfrwt beam="2">  1       21 0.93217319E-02 0.12500000E+03</pdfrwt>
<totfact> 0.74035460E+06</totfact>
</mgrwt>
</event>
<event>
 3    1  0.1592492E-001  0.1250000E+03  0.7546771E-02  0.1235069E+00
         21   -1    0    0  502  501  0.00000000000E+00  0.00000000000E+00  0.38025669086E+03  0.38025669086E+03  0.00000000000E+00 0. -1.
         21   -1    0    0  501  502 -0.00000000000E+00 -0.00000000000E+00 -0.10272666054E+02  0.10272666054E+02  0.00000000000E+00 0. -1.
         25    1    1    2    0    0  0.00000000000E+00  0.00000000000E+00  0.36998402481E+03  0.39052935691E+03  0.12500000000E+03 0.  0.
<mgrwt>
<rscale>  0 0.12500000E+03</rscale>
<asrwt>0</asrwt>
<pdfrwt beam="1">  1       21 0.58501019E-01 0.12500000E+03</pdfrwt>
<pdfrwt beam="2">  1       21 0.15804105E-02 0.12500000E+03</pdfrwt>
<totfact> 0.48675942E+06</totfact>
</mgrwt>
</event>
<event>
 3    1  0.1592492E-001  0.1250000E+03  0.7546771E-02  0.1235069E+00
         21   -1    0    0  502  501  0.00000000000E+00  0.00000000000E+00  0.50755585749E+01  0.50755585749E+01  0.00000000000E+00 0.  1.
         21   -1    0    0  501  502 -0.00000000000E+00 -0.00000000000E+00 -0.76961972605E+03  0.76961972605E+03  0.00000000000E+00 0.  1.
         25    1    1    2    0    0  0.00000000000E+00  0.00000000000E+00 -0.76454416748E+03  0.77469528463E+03  0.12500000000E+03 0.  0.
<mgrwt>
<rscale>  0 0.12500000E+03</rscale>
<asrwt>0</asrwt>
<pdfrwt beam="1">  1       21 0.78085527E-03 0.12500000E+03</pdfrwt>
<pdfrwt beam="2">  1       21 0.11840302E+00 0.12500000E+03</pdfrwt>
<totfact> 0.30218498E+06</totfact>
</mgrwt>
</event>
<event>
 3    1  0.1592492E-001  0.1250000E+03  0.7546771E-02  0.1235069E+00
         21   -1    0    0  502  501  0.00000000000E+00  0.00000000000E+00  0.18688818165E+03  0.18688818165E+03  0.00000000000E+00 0.  1.
         21   -1    0    0  501  502 -0.00000000000E+00 -0.00000000000E+00 -0.20901535696E+02  0.20901535696E+02  0.00000000000E+00 0.  1.
         25    1    1    2    0    0  0.00000000000E+00  0.00000000000E+00  0.16598664596E+03  0.20778971735E+03  0.12500000000E+03 0.  0.
<mgrwt>
<rscale>  0 0.12500000E+03</rscale>
<asrwt>0</asrwt>
<pdfrwt beam="1">  1       21 0.28752027E-01 0.12500000E+03</pdfrwt>
<pdfrwt beam="2">  1       21 0.32156210E-02 0.12500000E+03</pdfrwt>
<totfact> 0.64092836E+06</totfact>
</mgrwt>
</event>
<event>
 3    1  0.1592492E-001  0.1250000E+03  0.7546771E-02  0.1235069E+00
         21   -1    0    0  502  501  0.00000000000E+00  0.00000000000E+00  0.12668397915E+02  0.12668397915E+02  0.00000000000E+00 0. -1.
         21   -1    0    0  501  502 -0.00000000000E+00 -0.00000000000E+00 -0.30834601393E+03  0.30834601393E+03  0.00000000000E+00 0. -1.
         25    1    1    2    0    0  0.00000000000E+00  0.00000000000E+00 -0.29567761601E+03  0.32101441184E+03  0.12500000000E+03 0.  0.
<mgrwt>
<rscale>  0 0.12500000E+03</rscale>
<asrwt>0</asrwt>
<pdfrwt beam="1">  1       21 0.19489843E-02 0.12500000E+03</pdfrwt>
<pdfrwt beam="2">  1       21 0.47437848E-01 0.12500000E+03</pdfrwt>
<totfact> 0.53753053E+06</totfact>
</mgrwt>
</event>
<event>
 3    1  0.1592492E-001  0.1250000E+03  0.7546771E-02  0.1235069E+00
         21   -1    0    0  502  501  0.00000000000E+00  0.00000000000E+00  0.38128224524E+02  0.38128224524E+02  0.00000000000E+00 0. -1.
         21   -1    0    0  501  502 -0.00000000000E+00 -0.00000000000E+00 -0.10245035138E+03  0.10245035138E+03  0.00000000000E+00 0. -1.
         25    1    1    2    0    0  0.00000000000E+00  0.00000000000E+00 -0.64322126858E+02  0.14057857591E+03  0.12500000000E+03 0.  0.
<mgrwt>
<rscale>  0 0.12500000E+03</rscale>
<asrwt>0</asrwt>
<pdfrwt beam="1">  1       21 0.58658808E-02 0.12500000E+03</pdfrwt>
<pdfrwt beam="2">  1       21 0.15761592E-01 0.12500000E+03</pdfrwt>
<totfact> 0.71963866E+06</totfact>
</mgrwt>
</event>
<event>
 3    1  0.1592492E-001  0.1250000E+03  0.7546771E-02  0.1235069E+00
         21   -1    0    0  502  501  0.00000000000E+00  0.00000000000E+00  0.22148469101E+02  0.22148469101E+02  0.00000000000E+00 0.  1.
         21   -1    0    0  501  502 -0.00000000000E+00 -0.00000000000E+00 -0.17636659139E+03  0.17636659139E+03  0.00000000000E+00 0.  1.
         25    1    1    2    0    0  0.00000000000E+00  0.00000000000E+00 -0.15421812229E+03  0.19851506049E+03  0.12500000000E+03 0.  0.
<mgrwt>
<rscale>  0 0.12500000E+03</rscale>
<asrwt>0</asrwt>
<pdfrwt beam="1">  1       21 0.34074567E-02 0.12500000E+03</pdfrwt>
<pdfrwt beam="2">  1       21 0.27133323E-01 0.12500000E+03</pdfrwt>
<totfact> 0.65088347E+06</totfact>
</mgrwt>
</event>
<event>
 3    1  0.1592492E-001  0.1250000E+03  0.7546771E-02  0.1235069E+00
         21   -1    0    0  502  501  0.00000000000E+00  0.00000000000E+00  0.59596207330E+02  0.59596207330E+02  0.00000000000E+00 0.  1.
         21   -1    0    0  501  502 -0.00000000000E+00 -0.00000000000E+00 -0.65545278383E+02  0.65545278383E+02  0.00000000000E+00 0.  1.
         25    1    1    2    0    0  0.00000000000E+00  0.00000000000E+00 -0.59490710527E+01  0.12514148571E+03  0.12500000000E+03 0.  0.
<mgrwt>
<rscale>  0 0.12500000E+03</rscale>
<asrwt>0</asrwt>
<pdfrwt beam="1">  1       21 0.91686473E-02 0.12500000E+03</pdfrwt>
<pdfrwt beam="2">  1       21 0.10083889E-01 0.12500000E+03</pdfrwt>
<totfact> 0.74024473E+06</totfact>
</mgrwt>
</event>
<event>
 3    1  0.1592492E-001  0.1250000E+03  0.7546771E-02  0.1235069E+00
         21   -1    0    0  502  501  0.00000000000E+00  0.00000000000E+00  0.13596904467E+03  0.13596904467E+03  0.00000000000E+00 0.  1.
         21   -1    0    0  501  502 -0.00000000000E+00 -0.00000000000E+00 -0.28728965548E+02  0.28728965548E+02  0.00000000000E+00 0.  1.
         25    1    1    2    0    0  0.00000000000E+00  0.00000000000E+00  0.10724007913E+03  0.16469801022E+03  0.12500000000E+03 0.  0.
<mgrwt>
<rscale>  0 0.12500000E+03</rscale>
<asrwt>0</asrwt>
<pdfrwt beam="1">  1       21 0.20918314E-01 0.12500000E+03</pdfrwt>
<pdfrwt beam="2">  1       21 0.44198409E-02 0.12500000E+03</pdfrwt>
<totfact> 0.68949958E+06</totfact>
</mgrwt>
</event>
<event>
 3    1  0.1592492E-001  0.1250000E+03  0.7546771E-02  0.1235069E+00
         21   -1    0    0  502  501  0.00000000000E+00  0.00000000000E+00  0.68765321703E+03  0.68765321703E+03  0.00000000000E+00 0.  1.
         21   -1    0    0  501  502 -0.00000000000E+00 -0.00000000000E+00 -0.56805522075E+01  0.56805522075E+01  0.00000000000E+00 0.  1.
         25    1    1    2    0    0  0.00000000000E+00  0.00000000000E+00  0.68197266482E+03  0.69333376923E+03  0.12500000000E+03 0.  0.
<mgrwt>
<rscale>  0 0.12500000E+03</rscale>
<asrwt>0</asrwt>
<pdfrwt beam="1">  1       21 0.10579274E+00 0.12500000E+03</pdfrwt>
<pdfrwt beam="2">  1       21 0.87393165E-03 0.12500000E+03</pdfrwt>
<totfact> 0.33168750E+06</totfact>
</mgrwt>
</event>
<event>
 3    1  0.1592492E-001  0.1250000E+03  0.7546771E-02  0.1235069E+00
         21   -1    0    0  502  501  0.00000000000E+00  0.00000000000E+00  0.41879340620E+03  0.41879340620E+03  0.00000000000E+00 0.  1.
         21   -1    0    0  501  502 -0.00000000000E+00 -0.00000000000E+00 -0.93273913634E+01  0.93273913634E+01  0.00000000000E+00 0.  1.
         25    1    1    2    0    0  0.00000000000E+00  0.00000000000E+00  0.40946601483E+03  0.42812079756E+03  0.12500000000E+03 0.  0.
<mgrwt>
<rscale>  0 0.12500000E+03</rscale>
<asrwt>0</asrwt>
<pdfrwt beam="1">  1       21 0.64429740E-01 0.12500000E+03</pdfrwt>
<pdfrwt beam="2">  1       21 0.14349836E-02 0.12500000E+03</pdfrwt>
<totfact> 0.46230402E+06</totfact>
</mgrwt>
</event>
<event>
 3    1  0.1592492E-001  0.1250000E+03  0.7546771E-02  0.1235069E+00
         21   -1    0    0  502  501  0.00000000000E+00  0.00000000000E+00  0.70948129640E+02  0.70948129640E+02  0.00000000000E+00 0.  1.
         21   -1    0    0  501  502 -0.00000000000E+00 -0.00000000000E+00 -0.55057829146E+02  0.55057829146E+02  0.00000000000E+00 0.  1.
         25    1    1    2    0    0  0.00000000000E+00  0.00000000000E+00  0.15890300494E+02  0.12600595879E+03  0.12500000000E+03 0.  0.
<mgrwt>
<rscale>  0 0.12500000E+03</rscale>
<asrwt>0</asrwt>
<pdfrwt beam="1">  1       21 0.10915097E-01 0.12500000E+03</pdfrwt>
<pdfrwt beam="2">  1       21 0.84704352E-02 0.12500000E+03</pdfrwt>
<totfact> 0.73905217E+06</totfact>
</mgrwt>
</event>
<event>
 3    1  0.1592492E-001  0.1250000E+03  0.7546771E-02  0.1235069E+00
         21   -1    0    0  502  501  0.00000000000E+00  0.00000000000E+00  0.39303148485E+03  0.39303148485E+03  0.00000000000E+00 0. -1.
         21   -1    0    0  501  502 -0.00000000000E+00 -0.00000000000E+00 -0.99387711941E+01  0.99387711941E+01  0.00000000000E+00 0. -1.
         25    1    1    2    0    0  0.00000000000E+00  0.00000000000E+00  0.38309271365E+03  0.40297025604E+03  0.12500000000E+03 0.  0.
<mgrwt>
<rscale>  0 0.12500000E+03</rscale>
<asrwt>0</asrwt>
<pdfrwt beam="1">  1       21 0.60466370E-01 0.12500000E+03</pdfrwt>
<pdfrwt beam="2">  1       21 0.15290420E-02 0.12500000E+03</pdfrwt>
<totfact> 0.47844964E+06</totfact>
</mgrwt>
</event>
<event>
 3    1  0.1592492E-001  0.1250000E+03  0.7546771E-02  0.1235069E+00
         21   -1    0    0  502  501  0.00000000000E+00  0.00000000000E+00  0.49081309916E+01  0.49081309916E+01  0.00000000000E+00 0.  1.
         21   -1    0    0  501  502 -0.00000000000E+00 -0.00000000000E+00 -0.79587321664E+03  0.79587321664E+03  0.00000000000E+00 0.  1.
         25    1    1    2    0    0  0.00000000000E+00  0.00000000000E+00 -0.79096508565E+03  0.80078134763E+03  0.12500000000E+03 0.  0.
<mgrwt>
<rscale>  0 0.12500000E+03</rscale>
<asrwt>0</asrwt>
<pdfrwt beam="1">  1       21 0.75509766E-03 0.12500000E+03</pdfrwt>
<pdfrwt beam="2">  1       21 0.12244194E+00 0.12500000E+03</pdfrwt>
<totfact> 0.29336963E+06</totfact>
</mgrwt>
</event>
<event>
 3    1  0.1592492E-001  0.1250000E+03  0.7546771E-02  0.1235069E+00
         21   -1    0    0  502  501  0.00000000000E+00  0.00000000000E+00  0.15712888201E+03  0.15712888201E+03  0.00000000000E+00 0. -1.
         21   -1    0    0  501  502 -0.00000000000E+00 -0.00000000000E+00 -0.24860165427E+02  0.24860165427E+02  0.00000000000E+00 0. -1.
         25    1    1    2    0    0  0.00000000000E+00  0.00000000000E+00  0.13226871658E+03  0.18198904743E+03  0.12500000000E+03 0.  0.
<mgrwt>
<rscale>  0 0.12500000E+03</rscale>
<asrwt>0</asrwt>
<pdfrwt beam="1">  1       21 0.24173673E-01 0.12500000E+03</pdfrwt>
<pdfrwt beam="2">  1       21 0.38246409E-02 0.12500000E+03</pdfrwt>
<totfact> 0.66924089E+06</totfact>
</mgrwt>
</event>
<event>
 3    1  0.1592492E-001  0.1250000E+03  0.7546771E-02  0.1235069E+00
         21   -1    0    0  502  501  0.00000000000E+00  0.00000000000E+00  0.15534025646E+04  0.15534025646E+04  0.00000000000E+00 0. -1.
         21   -1    0    0  501  502 -0.00000000000E+00 -0.00000000000E+00 -0.25146411426E+01  0.25146411426E+01  0.00000000000E+00 0. -1.
         25    1    1    2    0    0  0.00000000000E+00  0.00000000000E+00  0.15508879235E+04  0.15559172058E+04  0.12500000000E+03 0.  0.
<mgrwt>
<rscale>  0 0.12500000E+03</rscale>
<asrwt>0</asrwt>
<pdfrwt beam="1">  1       21 0.23898424E+00 0.12500000E+03</pdfrwt>
<pdfrwt beam="2">  1       21 0.38686911E-03 0.12500000E+03</pdfrwt>
<totfact> 0.13183799E+06</totfact>
</mgrwt>
</event>
<event>
 3    1  0.1592492E-001  0.1250000E+03  0.7546771E-02  0.1235069E+00
         21   -1    0    0  502  501  0.00000000000E+00  0.00000000000E+00  0.69475318307E+03  0.69475318307E+03  0.00000000000E+00 0.  1.
         21   -1    0    0  501  502 -0.00000000000E+00 -0.00000000000E+00 -0.56225003284E+01  0.56225003284E+01  0.00000000000E+00 0.  1.
         25    1    1    2    0    0  0.00000000000E+00  0.00000000000E+00  0.68913068274E+03  0.70037568340E+03  0.12500000000E+03 0.  0.
<mgrwt>
<rscale>  0 0.12500000E+03</rscale>
<asrwt>0</asrwt>
<pdfrwt beam="1">  1       21 0.10688504E+00 0.12500000E+03</pdfrwt>
<pdfrwt beam="2">  1       21 0.86500060E-03 0.12500000E+03</pdfrwt>
<totfact> 0.32895677E+06</totfact>
</mgrwt>
</event>
<event>
 3    1  0.1592492E-001  0.1250000E+03  0.7546771E-02  0.1235069E+00
         21   -1    0    0  502  501  0.00000000000E+00  0.00000000000E+00  0.47980006001E+02  0.47980006001E+02  0.00000000000E+00 0. -1.
         21   -1    0    0  501  502 -0.00000000000E+00 -0.00000000000E+00 -0.81414120705E+02  0.81414120705E+02  0.00000000000E+00 0. -1.
         25    1    1    2    0    0  0.00000000000E+00  0.00000000000E+00 -0.33434114704E+02  0.12939412671E+03  0.12500000000E+03 0.  0.
<mgrwt>
<rscale>  0 0.12500000E+03</rscale>
<asrwt>0</asrwt>
<pdfrwt beam="1">  1       21 0.73815395E-02 0.12500000E+03</pdfrwt>
<pdfrwt beam="2">  1       21 0.12525249E-01 0.12500000E+03</pdfrwt>
<totfact> 0.73446003E+06</totfact>
</mgrwt>
</event>
<event>
 3    1  0.1592492E-001  0.1250000E+03  0.7546771E-02  0.1235069E+00
         21   -1    0    0  502  501  0.00000000000E+00  0.00000000000E+00  0.18891280049E+03  0.18891280049E+03  0.00000000000E+00 0.  1.
         21   -1    0    0  501  502 -0.00000000000E+00 -0.00000000000E+00 -0.20677529474E+02  0.20677529474E+02  0.00000000000E+00 0.  1.
         25    1    1    2    0    0  0.00000000000E+00  0.00000000000E+00  0.16823527101E+03  0.20959032996E+03  0.12500000000E+03 0.  0.
<mgrwt>
<rscale>  0 0.12500000E+03</rscale>
<asrwt>0</asrwt>
<pdfrwt beam="1">  1       21 0.29063507E-01 0.12500000E+03</pdfrwt>
<pdfrwt beam="2">  1       21 0.31811585E-02 0.12500000E+03</pdfrwt>
<totfact> 0.63902664E+06</totfact>
</mgrwt>
</event>
<event>
 3    1  0.1592492E-001  0.1250000E+03  0.7546771E-02  0.1235069E+00
         21   -1    0    0  502  501  0.00000000000E+00  0.00000000000E+00  0.91680564653E+03  0.91680564653E+03  0.00000000000E+00 0.  1.
         21   -1    0    0  501  502 -0.00000000000E+00 -0.00000000000E+00 -0.42607176502E+01  0.42607176502E+01  0.00000000000E+00 0.  1.
         25    1    1    2    0    0  0.00000000000E+00  0.00000000000E+00  0.91254492888E+03  0.92106636418E+03  0.12500000000E+03 0.  0.
<mgrwt>
<rscale>  0 0.12500000E+03</rscale>
<asrwt>0</asrwt>
<pdfrwt beam="1">  1       21 0.14104687E+00 0.12500000E+03</pdfrwt>
<pdfrwt beam="2">  1       21 0.65549575E-03 0.12500000E+03</pdfrwt>
<totfact> 0.25702400E+06</totfact>
</mgrwt>
</event>
<event>
 3    1  0.1592492E-001  0.1250000E+03  0.7546771E-02  0.1235069E+00
         21   -1    0    0  502  501  0.00000000000E+00  0.00000000000E+00  0.33966296640E+03  0.33966296640E+03  0.00000000000E+00 0.  1.
         21   -1    0    0  501  502 -0.00000000000E+00 -0.00000000000E+00 -0.11500370621E+02  0.11500370621E+02  0.00000000000E+00 0.  1.
         25    1    1    2    0    0  0.00000000000E+00  0.00000000000E+00  0.32816259578E+03  0.35116333702E+03  0.12500000000E+03 0.  0.
<mgrwt>
<rscale>  0 0.12500000E+03</rscale>
<asrwt>0</asrwt>
<pdfrwt beam="1">  1       21 0.52255833E-01 0.12500000E+03</pdfrwt>
<pdfrwt beam="2">  1       21 0.17692880E-02 0.12500000E+03</pdfrwt>
<totfact> 0.51452634E+06</totfact>
</mgrwt>
</event>
<event>
 3    1  0.1592492E-001  0.1250000E+03  0.7546771E-02  0.1235069E+00
         21   -1    0    0  502  501  0.00000000000E+00  0.00000000000E+00  0.10989687019E+02  0.10989687019E+02  0.00000000000E+00 0. -1.
         21   -1    0    0  501  502 -0.00000000000E+00 -0.00000000000E+00 -0.35544688335E+03  0.35544688335E+03  0.00000000000E+00 0. -1.
         25    1    1    2    0    0  0.00000000000E+00  0.00000000000E+00 -0.34445719633E+03  0.36643657037E+03  0.12500000000E+03 0.  0.
<mgrwt>
<rscale>  0 0.12500000E+03</rscale>
<asrwt>0</asrwt>
<pdfrwt beam="1">  1       21 0.16907210E-02 0.12500000E+03</pdfrwt>
<pdfrwt beam="2">  1       21 0.54684139E-01 0.12500000E+03</pdfrwt>
<totfact> 0.50346982E+06</totfact>
</mgrwt>
</event>
<event>
 3    1  0.1592492E-001  0.1250000E+03  0.7546771E-02  0.1235069E+00
         21   -1    0    0  502  501  0.00000000000E+00  0.00000000000E+00  0.26261191976E+02  0.26261191976E+02  0.00000000000E+00 0.  1.
         21   -1    0    0  501  502 -0.00000000000E+00 -0.00000000000E+00 -0.14874610427E+03  0.14874610427E+03  0.00000000000E+00 0.  1.
         25    1    1    2    0    0  0.00000000000E+00  0.00000000000E+00 -0.12248491230E+03  0.17500729625E+03  0.12500000000E+03 0.  0.
<mgrwt>
<rscale>  0 0.12500000E+03</rscale>
<asrwt>0</asrwt>
<pdfrwt beam="1">  1       21 0.40401833E-02 0.12500000E+03</pdfrwt>
<pdfrwt beam="2">  1       21 0.22884016E-01 0.12500000E+03</pdfrwt>
<totfact> 0.67728950E+06</totfact>
</mgrwt>
</event>
<event>
 3    1  0.1592492E-001  0.1250000E+03  0.7546771E-02  0.1235069E+00
         21   -1    0    0  502  501  0.00000000000E+00  0.00000000000E+00  0.35473793746E+02  0.35473793746E+02  0.00000000000E+00 0. -1.
         21   -1    0    0  501  502 -0.00000000000E+00 -0.00000000000E+00 -0.11011649975E+03  0.11011649975E+03  0.00000000000E+00 0. -1.
         25    1    1    2    0    0  0.00000000000E+00  0.00000000000E+00 -0.74642706000E+02  0.14559029349E+03  0.12500000000E+03 0.  0.
<mgrwt>
<rscale>  0 0.12500000E+03</rscale>
<asrwt>0</asrwt>
<pdfrwt beam="1">  1       21 0.54575067E-02 0.12500000E+03</pdfrwt>
<pdfrwt beam="2">  1       21 0.16941000E-01 0.12500000E+03</pdfrwt>
<totfact> 0.71317641E+06</totfact>
</mgrwt>
</event>
<event>
 3    1  0.1592492E-001  0.1250000E+03  0.7546771E-02  0.1235069E+00
         21   -1    0    0  502  501  0.00000000000E+00  0.00000000000E+00  0.21622067185E+03  0.21622067185E+03  0.00000000000E+00 0.  1.
         21   -1    0    0  501  502 -0.00000000000E+00 -0.00000000000E+00 -0.18066033958E+02  0.18066033958E+02  0.00000000000E+00 0.  1.
         25    1    1    2    0    0  0.00000000000E+00  0.00000000000E+00  0.19815463789E+03  0.23428670581E+03  0.12500000000E+03 0.  0.
<mgrwt>
<rscale>  0 0.12500000E+03</rscale>
<asrwt>0</asrwt>
<pdfrwt beam="1">  1       21 0.33264717E-01 0.12500000E+03</pdfrwt>
<pdfrwt beam="2">  1       21 0.27793900E-02 0.12500000E+03</pdfrwt>
<totfact> 0.61389948E+06</totfact>
</mgrwt>
</event>
<event>
 3    1  0.1592492E-001  0.1250000E+03  0.7546771E-02  0.1235069E+00
         21   -1    0    0  502  501  0.00000000000E+00  0.00000000000E+00  0.44161056505E+02  0.44161056505E+02  0.00000000000E+00 0.  1.
         21   -1    0    0  501  502 -0.00000000000E+00 -0.00000000000E+00 -0.88454631957E+02  0.88454631957E+02  0.00000000000E+00 0.  1.
         25    1    1    2    0    0  0.00000000000E+00  0.00000000000E+00 -0.44293575451E+02  0.13261568846E+03  0.12500000000E+03 0.  0.
<mgrwt>
<rscale>  0 0.12500000E+03</rscale>
<asrwt>0</asrwt>
<pdfrwt beam="1">  1       21 0.67940088E-02 0.12500000E+03</pdfrwt>
<pdfrwt beam="2">  1       21 0.13608405E-01 0.12500000E+03</pdfrwt>
<totfact> 0.73013760E+06</totfact>
</mgrwt>
</event>
<event>
 3    1  0.1592492E-001  0.1250000E+03  0.7546771E-02  0.1235069E+00
         21   -1    0    0  502  501  0.00000000000E+00  0.00000000000E+00  0.42575396081E+01  0.42575396081E+01  0.00000000000E+00 0. -1.
         21   -1    0    0  501  502 -0.00000000000E+00 -0.00000000000E+00 -0.91748999647E+03  0.91748999647E+03  0.00000000000E+00 0. -1.
         25    1    1    2    0    0  0.00000000000E+00  0.00000000000E+00 -0.91323245686E+03  0.92174753607E+03  0.12500000000E+03 0.  0.
<mgrwt>
<rscale>  0 0.12500000E+03</rscale>
<asrwt>0</asrwt>
<pdfrwt beam="1">  1       21 0.65500568E-03 0.12500000E+03</pdfrwt>
<pdfrwt beam="2">  1       21 0.14115240E+00 0.12500000E+03</pdfrwt>
<totfact> 0.25683353E+06</totfact>
</mgrwt>
</event>
<event>
 3    1  0.1592492E-001  0.1250000E+03  0.7546771E-02  0.1235069E+00
         21   -1    0    0  502  501  0.00000000000E+00  0.00000000000E+00  0.18254112178E+03  0.18254112178E+03  0.00000000000E+00 0.  1.
         21   -1    0    0  501  502 -0.00000000000E+00 -0.00000000000E+00 -0.21399287798E+02  0.21399287798E+02  0.00000000000E+00 0.  1.
         25    1    1    2    0    0  0.00000000000E+00  0.00000000000E+00  0.16114183398E+03  0.20394040958E+03  0.12500000000E+03 0.  0.
<mgrwt>
<rscale>  0 0.12500000E+03</rscale>
<asrwt>0</asrwt>
<pdfrwt beam="1">  1       21 0.28083248E-01 0.12500000E+03</pdfrwt>
<pdfrwt beam="2">  1       21 0.32921982E-02 0.12500000E+03</pdfrwt>
<totfact> 0.64502768E+06</totfact>
</mgrwt>
</event>
<event>
 3    1  0.1592492E-001  0.1250000E+03  0.7546771E-02  0.1235069E+00
         21   -1    0    0  502  501  0.00000000000E+00  0.00000000000E+00  0.53042596105E+02  0.53042596105E+02  0.00000000000E+00 0. -1.
         21   -1    0    0  501  502 -0.00000000000E+00 -0.00000000000E+00 -0.73643642787E+02  0.73643642787E+02  0.00000000000E+00 0. -1.
         25    1    1    2    0    0  0.00000000000E+00  0.00000000000E+00 -0.20601046682E+02  0.12668623889E+03  0.12500000000E+03 0.  0.
<mgrwt>
<rscale>  0 0.12500000E+03</rscale>
<asrwt>0</asrwt>
<pdfrwt beam="1">  1       21 0.81603994E-02 0.12500000E+03</pdfrwt>
<pdfrwt beam="2">  1       21 0.11329791E-01 0.12500000E+03</pdfrwt>
<totfact> 0.73811914E+06</totfact>
</mgrwt>
</event>
<event>
 3    1  0.1592492E-001  0.1250000E+03  0.7546771E-02  0.1235069E+00
         21   -1    0    0  502  501  0.00000000000E+00  0.00000000000E+00  0.19211615036E+04  0.19211615036E+04  0.00000000000E+00 0. -1.
         21   -1    0    0  501  502 -0.00000000000E+00 -0.00000000000E+00 -0.20332751790E+01  0.20332751790E+01  0.00000000000E+00 0. -1.
         25    1    1    2    0    0  0.00000000000E+00  0.00000000000E+00  0.19191282284E+04  0.19231947787E+04  0.12500000000E+03 0.  0.
<mgrwt>
<rscale>  0 0.12500000E+03</rscale>
<asrwt>0</asrwt>
<pdfrwt beam="1">  1       21 0.29556186E+00 0.12500000E+03</pdfrwt>
<pdfrwt beam="2">  1       21 0.31281310E-03 0.12500000E+03</pdfrwt>
<totfact> 0.87215840E+05</totfact>
</mgrwt>
</event>
<event>
 3    1  0.1592492E-001  0.1250000E+03  0.7546771E-02  0.1235069E+00
         21   -1    0    0  502  501  0.00000000000E+00  0.00000000000E+00  0.32338199628E+02  0.32338199628E+02  0.00000000000E+00 0. -1.
         21   -1    0    0  501  502 -0.00000000000E+00 -0.00000000000E+00 -0.12079367574E+03  0.12079367574E+03  0.00000000000E+00 0. -1.
         25    1    1    2    0    0  0.00000000000E+00  0.00000000000E+00 -0.88455476115E+02  0.15313187537E+03  0.12500000000E+03 0.  0.
<mgrwt>
<rscale>  0 0.12500000E+03</rscale>
<asrwt>0</asrwt>
<pdfrwt beam="1">  1       21 0.49751075E-02 0.12500000E+03</pdfrwt>
<pdfrwt beam="2">  1       21 0.18583643E-01 0.12500000E+03</pdfrwt>
<totfact> 0.70367962E+06</totfact>
</mgrwt>
</event>
<event>
 3    1  0.1592492E-001  0.1250000E+03  0.7546771E-02  0.1235069E+00
         21   -1    0    0  502  501  0.00000000000E+00  0.00000000000E+00  0.48536632484E+02  0.48536632484E+02  0.00000000000E+00 0.  1.
         21   -1    0    0  501  502 -0.00000000000E+00 -0.00000000000E+00 -0.80480449509E+02  0.80480449509E+02  0.00000000000E+00 0.  1.
         25    1    1    2    0    0  0.00000000000E+00  0.00000000000E+00 -0.31943817025E+02  0.12901708199E+03  0.12500000000E+03 0.  0.
<mgrwt>
<rscale>  0 0.12500000E+03</rscale>
<asrwt>0</asrwt>
<pdfrwt beam="1">  1       21 0.74671744E-02 0.12500000E+03</pdfrwt>
<pdfrwt beam="2">  1       21 0.12381607E-01 0.12500000E+03</pdfrwt>
<totfact> 0.73496587E+06</totfact>
</mgrwt>
</event>
<event>
 3    1  0.1592492E-001  0.1250000E+03  0.7546771E-02  0.1235069E+00
         21   -1    0    0  502  501  0.00000000000E+00  0.00000000000E+00  0.12603214265E+02  0.12603214265E+02  0.00000000000E+00 0. -1.
         21   -1    0    0  501  502 -0.00000000000E+00 -0.00000000000E+00 -0.30994077525E+03  0.30994077525E+03  0.00000000000E+00 0. -1.
         25    1    1    2    0    0  0.00000000000E+00  0.00000000000E+00 -0.29733756098E+03  0.32254398951E+03  0.12500000000E+03 0.  0.
<mgrwt>
<rscale>  0 0.12500000E+03</rscale>
<asrwt>0</asrwt>
<pdfrwt beam="1">  1       21 0.19389563E-02 0.12500000E+03</pdfrwt>
<pdfrwt beam="2">  1       21 0.47683190E-01 0.12500000E+03</pdfrwt>
<totfact> 0.53632361E+06</totfact>
</mgrwt>
</event>
<event>
 3    1  0.1592492E-001  0.1250000E+03  0.7546771E-02  0.1235069E+00
         21   -1    0    0  502  501  0.00000000000E+00  0.00000000000E+00  0.21794382923E+02  0.21794382923E+02  0.00000000000E+00 0. -1.
         21   -1    0    0  501  502 -0.00000000000E+00 -0.00000000000E+00 -0.17923196145E+03  0.17923196145E+03  0.00000000000E+00 0. -1.
         25    1    1    2    0    0  0.00000000000E+00  0.00000000000E+00 -0.15743757853E+03  0.20102634438E+03  0.12500000000E+03 0.  0.
<mgrwt>
<rscale>  0 0.12500000E+03</rscale>
<asrwt>0</asrwt>
<pdfrwt beam="1">  1       21 0.33529820E-02 0.12500000E+03</pdfrwt>
<pdfrwt beam="2">  1       21 0.27574148E-01 0.12500000E+03</pdfrwt>
<totfact> 0.64816211E+06</totfact>
</mgrwt>
</event>
<event>
 3    1  0.1592492E-001  0.1250000E+03  0.7546771E-02  0.1235069E+00
         21   -1    0    0  502  501  0.00000000000E+00  0.00000000000E+00  0.41228410233E+03  0.41228410233E+03  0.00000000000E+00 0.  1.
         21   -1    0    0  501  502 -0.00000000000E+00 -0.00000000000E+00 -0.94746558937E+01  0.94746558937E+01  0.00000000000E+00 0.  1.
         25    1    1    2    0    0  0.00000000000E+00  0.00000000000E+00  0.40280944643E+03  0.42175875822E+03  0.12500000000E+03 0.  0.
<mgrwt>
<rscale>  0 0.12500000E+03</rscale>
<asrwt>0</asrwt>
<pdfrwt beam="1">  1       21 0.63428310E-01 0.12500000E+03</pdfrwt>
<pdfrwt beam="2">  1       21 0.14576397E-02 0.12500000E+03</pdfrwt>
<totfact> 0.46630833E+06</totfact>
</mgrwt>
</event>
<event>
 3    1  0.1592492E-001  0.1250000E+03  0.7546771E-02  0.1235069E+00
         21   -1    0    0  502  501  0.00000000000E+00  0.00000000000E+00  0.27745342598E+02  0.27745342598E+02  0.00000000000E+00 0. -1.
         21   -1    0    0  501  502 -0.00000000000E+00 -0.00000000000E+00 -0.14078939506E+03  0.14078939506E+03  0.00000000000E+00 0. -1.
         25    1    1    2    0    0  0.00000000000E+00  0.00000000000E+00 -0.11304405246E+03  0.16853473765E+03  0.12500000000E+03 0.  0.
<mgrwt>
<rscale>  0 0.12500000E+03</rscale>
<asrwt>0</asrwt>
<pdfrwt beam="1">  1       21 0.42685142E-02 0.12500000E+03</pdfrwt>
<pdfrwt beam="2">  1       21 0.21659907E-01 0.12500000E+03</pdfrwt>
<totfact> 0.68491388E+06</totfact>
</mgrwt>
</event>
<event>
 3    1  0.1592492E-001  0.1250000E+03  0.7546771E-02  0.1235069E+00
         21   -1    0    0  502  501  0.00000000000E+00  0.00000000000E+00  0.22792444170E+02  0.22792444170E+02  0.00000000000E+00 0. -1.
         21   -1    0    0  501  502 -0.00000000000E+00 -0.00000000000E+00 -0.17138355022E+03  0.17138355022E+03  0.00000000000E+00 0. -1.
         25    1    1    2    0    0  0.00000000000E+00  0.00000000000E+00 -0.14859110605E+03  0.19417599439E+03  0.12500000000E+03 0.  0.
<mgrwt>
<rscale>  0 0.12500000E+03</rscale>
<asrwt>0</asrwt>
<pdfrwt beam="1">  1       21 0.35065297E-02 0.12500000E+03</pdfrwt>
<pdfrwt beam="2">  1       21 0.26366701E-01 0.12500000E+03</pdfrwt>
<totfact> 0.65561319E+06</totfact>
</mgrwt>
</event>
<event>
 3    1  0.1592492E-001  0.1250000E+03  0.7546771E-02  0.1235069E+00
         21   -1    0    0  502  501  0.00000000000E+00  0.00000000000E+00  0.10849470057E+04  0.10849470057E+04  0.00000000000E+00 0.  1.
         21   -1    0    0  501  502 -0.00000000000E+00 -0.00000000000E+00 -0.36004062681E+01  0.36004062681E+01  0.00000000000E+00 0.  1.
         25    1    1    2    0    0  0.00000000000E+00  0.00000000000E+00  0.10813465995E+04  0.10885474120E+04  0.12500000000E+03 0.  0.
<mgrwt>
<rscale>  0 0.12500000E+03</rscale>
<asrwt>0</asrwt>
<pdfrwt beam="1">  1       21 0.16691466E+00 0.12500000E+03</pdfrwt>
<pdfrwt beam="2">  1       21 0.55390952E-03 0.12500000E+03</pdfrwt>
<totfact> 0.21507959E+06</totfact>
</mgrwt>
</event>
<event>
 3    1  0.1592492E-001  0.1250000E+03  0.7546771E-02  0.1235069E+00
         21   -1    0    0  502  501  0.00000000000E+00  0.00000000000E+00  0.16383265490E+03  0.16383265490E+03  0.00000000000E+00 0. -1.
         21   -1    0    0  501  502 -0.00000000000E+00 -0.00000000000E+00 -0.23842926811E+02  0.23842926811E+02  0.00000000000E+00 0. -1.
         25    1    1    2    0    0  0.00000000000E+00  0.00000000000E+00  0.13998972809E+03  0.18767558171E+03  0.12500000000E+03 0.  0.
<mgrwt>
<rscale>  0 0.12500000E+03</rscale>
<asrwt>0</asrwt>
<pdfrwt beam="1">  1       21 0.25205023E-01 0.12500000E+03</pdfrwt>
<pdfrwt beam="2">  1       21 0.36681427E-02 0.12500000E+03</pdfrwt>
<totfact> 0.66281738E+06</totfact>
</mgrwt>
</event>
<event>
 3    1  0.1592492E-001  0.1250000E+03  0.7546771E-02  0.1235069E+00
         21   -1    0    0  502  501  0.00000000000E+00  0.00000000000E+00  0.26022309700E+03  0.26022309700E+03  0.00000000000E+00 0.  1.
         21   -1    0    0  501  502 -0.00000000000E+00 -0.00000000000E+00 -0.15011157907E+02  0.15011157907E+02  0.00000000000E+00 0.  1.
         25    1    1    2    0    0  0.00000000000E+00  0.00000000000E+00  0.24521193909E+03  0.27523425491E+03  0.12500000000E+03 0.  0.
<mgrwt>
<rscale>  0 0.12500000E+03</rscale>
<asrwt>0</asrwt>
<pdfrwt beam="1">  1       21 0.40034319E-01 0.12500000E+03</pdfrwt>
<pdfrwt beam="2">  1       21 0.23094091E-02 0.12500000E+03</pdfrwt>
<totfact> 0.57579219E+06</totfact>
</mgrwt>
</event>
<event>
 3    1  0.1592492E-001  0.1250000E+03  0.7546771E-02  0.1235069E+00
         21   -1    0    0  502  501  0.00000000000E+00  0.00000000000E+00  0.23237601069E+02  0.23237601069E+02  0.00000000000E+00 0. -1.
         21   -1    0    0  501  502 -0.00000000000E+00 -0.00000000000E+00 -0.16810039850E+03  0.16810039850E+03  0.00000000000E+00 0. -1.
         25    1    1    2    0    0  0.00000000000E+00  0.00000000000E+00 -0.14486279743E+03  0.19133799957E+03  0.12500000000E+03 0.  0.
<mgrwt>
<rscale>  0 0.12500000E+03</rscale>
<asrwt>0</asrwt>
<pdfrwt beam="1">  1       21 0.35750155E-02 0.12500000E+03</pdfrwt>
<pdfrwt beam="2">  1       21 0.25861600E-01 0.12500000E+03</pdfrwt>
<totfact> 0.65874066E+06</totfact>
</mgrwt>
</event>
<event>
 3    1  0.1592492E-001  0.1250000E+03  0.7546771E-02  0.1235069E+00
         21   -1    0    0  502  501  0.00000000000E+00  0.00000000000E+00  0.12873837287E+03  0.12873837287E+03  0.00000000000E+00 0.  1.
         21   -1    0    0  501  502 -0.00000000000E+00 -0.00000000000E+00 -0.30342545993E+02  0.30342545993E+02  0.00000000000E+00 0.  1.
         25    1    1    2    0    0  0.00000000000E+00  0.00000000000E+00  0.98395826879E+02  0.15908091887E+03  0.12500000000E+03 0.  0.
<mgrwt>
<rscale>  0 0.12500000E+03</rscale>
<asrwt>0</asrwt>
<pdfrwt beam="1">  1       21 0.19805903E-01 0.12500000E+03</pdfrwt>
<pdfrwt beam="2">  1       21 0.46680841E-02 0.12500000E+03</pdfrwt>
<totfact> 0.69631972E+06</totfact>
</mgrwt>
</event>
<event>
 3    1  0.1592492E-001  0.1250000E+03  0.7546771E-02  0.1235069E+00
         21   -1    0    0  502  501  0.00000000000E+00  0.00000000000E+00  0.34735712282E+02  0.34735712282E+02  0.00000000000E+00 0. -1.
         21   -1    0    0  501  502 -0.00000000000E+00 -0.00000000000E+00 -0.11245630918E+03  0.11245630918E+03  0.00000000000E+00 0. -1.
         25    1    1    2    0    0  0.00000000000E+00  0.00000000000E+00 -0.77720596901E+02  0.14719202146E+03  0.12500000000E+03 0.  0.
<mgrwt>
<rscale>  0 0.12500000E+03</rscale>
<asrwt>0</asrwt>
<pdfrwt beam="1">  1       21 0.53439556E-02 0.12500000E+03</pdfrwt>
<pdfrwt beam="2">  1       21 0.17300971E-01 0.12500000E+03</pdfrwt>
<totfact> 0.71113742E+06</totfact>
</mgrwt>
</event>
<event>
 3    1  0.1592492E-001  0.1250000E+03  0.7546771E-02  0.1235069E+00
         21   -1    0    0  502  501  0.00000000000E+00  0.00000000000E+00  0.53795373494E+02  0.53795373494E+02  0.00000000000E+00 0. -1.
         21   -1    0    0  501  502 -0.00000000000E+00 -0.00000000000E+00 -0.72613121655E+02  0.72613121655E+02  0.00000000000E+00 0. -1.
         25    1    1    2    0    0  0.00000000000E+00  0.00000000000E+00 -0.18817748161E+02  0.12640849515E+03  0.12500000000E+03 0.  0.
<mgrwt>
<rscale>  0 0.12500000E+03</rscale>
<asrwt>0</asrwt>
<pdfrwt beam="1">  1       21 0.82762113E-02 0.12500000E+03</pdfrwt>
<pdfrwt beam="2">  1       21 0.11171249E-01 0.12500000E+03</pdfrwt>
<totfact> 0.73849903E+06</totfact>
</mgrwt>
</event>
<event>
 3    1  0.1592492E-001  0.1250000E+03  0.7546771E-02  0.1235069E+00
         21   -1    0    0  502  501  0.00000000000E+00  0.00000000000E+00  0.64360283565E+02  0.64360283565E+02  0.00000000000E+00 0. -1.
         21   -1    0    0  501  502 -0.00000000000E+00 -0.00000000000E+00 -0.60693486473E+02  0.60693486473E+02  0.00000000000E+00 0. -1.
         25    1    1    2    0    0  0.00000000000E+00  0.00000000000E+00  0.36667970921E+01  0.12505377004E+03  0.12500000000E+03 0.  0.
<mgrwt>
<rscale>  0 0.12500000E+03</rscale>
<asrwt>0</asrwt>
<pdfrwt beam="1">  1       21 0.99015821E-02 0.12500000E+03</pdfrwt>
<pdfrwt beam="2">  1       21 0.93374595E-02 0.12500000E+03</pdfrwt>
<totfact> 0.74036319E+06</totfact>
</mgrwt>
</event>
<event>
 3    1  0.1592492E-001  0.1250000E+03  0.7546771E-02  0.1235069E+00
         21   -1    0    0  502  501  0.00000000000E+00  0.00000000000E+00  0.12267401388E+03  0.12267401388E+03  0.00000000000E+00 0.  1.
         21   -1    0    0  501  502 -0.00000000000E+00 -0.00000000000E+00 -0.31842522115E+02  0.31842522115E+02  0.00000000000E+00 0.  1.
         25    1    1    2    0    0  0.00000000000E+00  0.00000000000E+00  0.90831491767E+02  0.15451653600E+03  0.12500000000E+03 0.  0.
<mgrwt>
<rscale>  0 0.12500000E+03</rscale>
<asrwt>0</asrwt>
<pdfrwt beam="1">  1       21 0.18872925E-01 0.12500000E+03</pdfrwt>
<pdfrwt beam="2">  1       21 0.48988496E-02 0.12500000E+03</pdfrwt>
<totfact> 0.70195797E+06</totfact>
</mgrwt>
</event>
<event>
 3    1  0.1592492E-001  0.1250000E+03  0.7546771E-02  0.1235069E+00
         21   -1    0    0  502  501  0.00000000000E+00  0.00000000000E+00  0.11429405976E+02  0.11429405976E+02  0.00000000000E+00 0. -1.
         21   -1    0    0  501  502 -0.00000000000E+00 -0.00000000000E+00 -0.34177191782E+03  0.34177191782E+03  0.00000000000E+00 0. -1.
         25    1    1    2    0    0  0.00000000000E+00  0.00000000000E+00 -0.33034251184E+03  0.35320132380E+03  0.12500000000E+03 0.  0.
<mgrwt>
<rscale>  0 0.12500000E+03</rscale>
<asrwt>0</asrwt>
<pdfrwt beam="1">  1       21 0.17583703E-02 0.12500000E+03</pdfrwt>
<pdfrwt beam="2">  1       21 0.52580290E-01 0.12500000E+03</pdfrwt>
<totfact> 0.51302873E+06</totfact>
</mgrwt>
</event>
<event>
 3    1  0.1592492E-001  0.1250000E+03  0.7546771E-02  0.1235069E+00
         21   -1    0    0  502  501  0.00000000000E+00  0.00000000000E+00  0.13041068110E+04  0.13041068110E+04  0.00000000000E+00 0. -1.
         21   -1    0    0  501  502 -0.00000000000E+00 -0.00000000000E+00 -0.29953451413E+01  0.29953451413E+01  0.00000000000E+00 0. -1.
         25    1    1    2    0    0  0.00000000000E+00  0.00000000000E+00  0.13011114658E+04  0.13071021561E+04  0.12500000000E+03 0.  0.
<mgrwt>
<rscale>  0 0.12500000E+03</rscale>
<asrwt>0</asrwt>
<pdfrwt beam="1">  1       21 0.20063136E+00 0.12500000E+03</pdfrwt>
<pdfrwt beam="2">  1       21 0.46082337E-03 0.12500000E+03</pdfrwt>
<totfact> 0.17125348E+06</totfact>
</mgrwt>
</event>
<event>
 3    1  0.1592492E-001  0.1250000E+03  0.7546771E-02  0.1235069E+00
         21   -1    0    0  502  501  0.00000000000E+00  0.00000000000E+00  0.81627288742E+01  0.81627288742E+01  0.00000000000E+00 0.  1.
         21   -1    0    0  501  502 -0.00000000000E+00 -0.00000000000E+00 -0.47854707172E+03  0.47854707172E+03  0.00000000000E+00 0.  1.
         25    1    1    2    0    0  0.00000000000E+00  0.00000000000E+00 -0.47038434285E+03  0.48670980060E+03  0.12500000000E+03 0.  0.
<mgrwt>
<rscale>  0 0.12500000E+03</rscale>
<asrwt>0</asrwt>
<pdfrwt beam="1">  1       21 0.12558039E-02 0.12500000E+03</pdfrwt>
<pdfrwt beam="2">  1       21 0.73622659E-01 0.12500000E+03</pdfrwt>
<totfact> 0.42774110E+06</totfact>
</mgrwt>
</event>
<event>
 3    1  0.1592492E-001  0.1250000E+03  0.7546771E-02  0.1235069E+00
         21   -1    0    0  502  501  0.00000000000E+00  0.00000000000E+00  0.10288881738E+02  0.10288881738E+02  0.00000000000E+00 0.  1.
         21   -1    0    0  501  502 -0.00000000000E+00 -0.00000000000E+00 -0.37965739131E+03  0.37965739131E+03  0.00000000000E+00 0.  1.
         25    1    1    2    0    0  0.00000000000E+00  0.00000000000E+00 -0.36936850957E+03  0.38994627305E+03  0.12500000000E+03 0.  0.
<mgrwt>
<rscale>  0 0.12500000E+03</rscale>
<asrwt>0</asrwt>
<pdfrwt beam="1">  1       21 0.15829047E-02 0.12500000E+03</pdfrwt>
<pdfrwt beam="2">  1       21 0.58408836E-01 0.12500000E+03</pdfrwt>
<totfact> 0.48715428E+06</totfact>
</mgrwt>
</event>
<event>
 3    1  0.1592492E-001  0.1250000E+03  0.7546771E-02  0.1235069E+00
         21   -1    0    0  502  501  0.00000000000E+00  0.00000000000E+00  0.16370303659E+02  0.16370303659E+02  0.00000000000E+00 0.  1.
         21   -1    0    0  501  502 -0.00000000000E+00 -0.00000000000E+00 -0.23861805385E+03  0.23861805385E+03  0.00000000000E+00 0.  1.
         25    1    1    2    0    0  0.00000000000E+00  0.00000000000E+00 -0.22224775019E+03  0.25498835751E+03  0.12500000000E+03 0.  0.
<mgrwt>
<rscale>  0 0.12500000E+03</rscale>
<asrwt>0</asrwt>
<pdfrwt beam="1">  1       21 0.25185083E-02 0.12500000E+03</pdfrwt>
<pdfrwt beam="2">  1       21 0.36710470E-01 0.12500000E+03</pdfrwt>
<totfact> 0.59411696E+06</totfact>
</mgrwt>
</event>
<event>
 3    1  0.1592492E-001  0.1250000E+03  0.7546771E-02  0.1235069E+00
         21   -1    0    0  502  501  0.00000000000E+00  0.00000000000E+00  0.14693866848E+04  0.14693866848E+04  0.00000000000E+00 0.  1.
         21   -1    0    0  501  502 -0.00000000000E+00 -0.00000000000E+00 -0.26584220752E+01  0.26584220752E+01  0.00000000000E+00 0.  1.
         25    1    1    2    0    0  0.00000000000E+00  0.00000000000E+00  0.14667282627E+04  0.14720451069E+04  0.12500000000E+03 0.  0.
<mgrwt>
<rscale>  0 0.12500000E+03</rscale>
<asrwt>0</asrwt>
<pdfrwt beam="1">  1       21 0.22605884E+00 0.12500000E+03</pdfrwt>
<pdfrwt beam="2">  1       21 0.40898918E-03 0.12500000E+03</pdfrwt>
<totfact> 0.14412614E+06</totfact>
</mgrwt>
</event>
<event>
 3    1  0.1592492E-001  0.1250000E+03  0.7546771E-02  0.1235069E+00
         21   -1    0    0  502  501  0.00000000000E+00  0.00000000000E+00  0.14420392609E+04  0.14420392609E+04  0.00000000000E+00 0.  1.
         21   -1    0    0  501  502 -0.00000000000E+00 -0.00000000000E+00 -0.27088374817E+01  0.27088374817E+01  0.00000000000E+00 0.  1.
         25    1    1    2    0    0  0.00000000000E+00  0.00000000000E+00  0.14393304234E+04  0.14447480984E+04  0.12500000000E+03 0.  0.
<mgrwt>
<rscale>  0 0.12500000E+03</rscale>
<asrwt>0</asrwt>
<pdfrwt beam="1">  1       21 0.22185158E+00 0.12500000E+03</pdfrwt>
<pdfrwt beam="2">  1       21 0.41674538E-03 0.12500000E+03</pdfrwt>
<totfact> 0.14832331E+06</totfact>
</mgrwt>
</event>
<event>
 3    1  0.1592492E-001  0.1250000E+03  0.7546771E-02  0.1235069E+00
         21   -1    0    0  502  501  0.00000000000E+00  0.00000000000E+00  0.78413925464E+02  0.78413925464E+02  0.00000000000E+00 0.  1.
         21   -1    0    0  501  502 -0.00000000000E+00 -0.00000000000E+00 -0.49815769035E+02  0.49815769035E+02  0.00000000000E+00 0.  1.
         25    1    1    2    0    0  0.00000000000E+00  0.00000000000E+00  0.28598156429E+02  0.12822969450E+03  0.12500000000E+03 0.  0.
<mgrwt>
<rscale>  0 0.12500000E+03</rscale>
<asrwt>0</asrwt>
<pdfrwt beam="1">  1       21 0.12063681E-01 0.12500000E+03</pdfrwt>
<pdfrwt beam="2">  1       21 0.76639645E-02 0.12500000E+03</pdfrwt>
<totfact> 0.73602553E+06</totfact>
</mgrwt>
</event>
<event>
 3    1  0.1592492E-001  0.1250000E+03  0.7546771E-02  0.1235069E+00
         21   -1    0    0  502  501  0.00000000000E+00  0.00000000000E+00  0.26834870095E+03  0.26834870095E+03  0.00000000000E+00 0. -1.
         21   -1    0    0  501  502 -0.00000000000E+00 -0.00000000000E+00 -0.14556619749E+02  0.14556619749E+02  0.00000000000E+00 0. -1.
         25    1    1    2    0    0  0.00000000000E+00  0.00000000000E+00  0.25379208120E+03  0.28290532070E+03  0.12500000000E+03 0.  0.
<mgrwt>
<rscale>  0 0.12500000E+03</rscale>
<asrwt>0</asrwt>
<pdfrwt beam="1">  1       21 0.41284412E-01 0.12500000E+03</pdfrwt>
<pdfrwt beam="2">  1       21 0.22394802E-02 0.12500000E+03</pdfrwt>
<totfact> 0.56907420E+06</totfact>
</mgrwt>
</event>
<event>
 3    1  0.1592492E-001  0.1250000E+03  0.7546771E-02  0.1235069E+00
         21   -1    0    0  502  501  0.00000000000E+00  0.00000000000E+00  0.19668722838E+02  0.19668722838E+02  0.00000000000E+00 0.  1.
         21   -1    0    0  501  502 -0.00000000000E+00 -0.00000000000E+00 -0.19860211729E+03  0.19860211729E+03  0.00000000000E+00 0.  1.
         25    1    1    2    0    0  0.00000000000E+00  0.00000000000E+00 -0.17893339446E+03  0.21827084013E+03  0.12500000000E+03 0.  0.
<mgrwt>
<rscale>  0 0.12500000E+03</rscale>
<asrwt>0</asrwt>
<pdfrwt beam="1">  1       21 0.30259574E-02 0.12500000E+03</pdfrwt>
<pdfrwt beam="2">  1       21 0.30554172E-01 0.12500000E+03</pdfrwt>
<totfact> 0.62999717E+06</totfact>
</mgrwt>
</event>
<event>
 3    1  0.1592492E-001  0.1250000E+03  0.7546771E-02  0.1235069E+00
         21   -1    0    0  502  501  0.00000000000E+00  0.00000000000E+00  0.12411604794E+04  0.12411604794E+04  0.00000000000E+00 0.  1.
         21   -1    0    0  501  502 -0.00000000000E+00 -0.00000000000E+00 -0.31472561888E+01  0.31472561888E+01  0.00000000000E+00 0.  1.
         25    1    1    2    0    0  0.00000000000E+00  0.00000000000E+00  0.12380132232E+04  0.12443077355E+04  0.12500000000E+03 0.  0.
<mgrwt>
<rscale>  0 0.12500000E+03</rscale>
<asrwt>0</asrwt>
<pdfrwt beam="1">  1       21 0.19094738E+00 0.12500000E+03</pdfrwt>
<pdfrwt beam="2">  1       21 0.48419425E-03 0.12500000E+03</pdfrwt>
<totfact> 0.18282232E+06</totfact>
</mgrwt>
</event>
<event>
 3    1  0.1592492E-001  0.1250000E+03  0.7546771E-02  0.1235069E+00
         21   -1    0    0  502  501  0.00000000000E+00  0.00000000000E+00  0.53907377457E+02  0.53907377457E+02  0.00000000000E+00 0.  1.
         21   -1    0    0  501  502 -0.00000000000E+00 -0.00000000000E+00 -0.72462252557E+02  0.72462252557E+02  0.00000000000E+00 0.  1.
         25    1    1    2    0    0  0.00000000000E+00  0.00000000000E+00 -0.18554875100E+02  0.12636963001E+03  0.12500000000E+03 0.  0.
<mgrwt>
<rscale>  0 0.12500000E+03</rscale>
<asrwt>0</asrwt>
<pdfrwt beam="1">  1       21 0.82934427E-02 0.12500000E+03</pdfrwt>
<pdfrwt beam="2">  1       21 0.11148039E-01 0.12500000E+03</pdfrwt>
<totfact> 0.73855229E+06</totfact>
</mgrwt>
</event>
<event>
 3    1  0.1592492E-001  0.1250000E+03  0.7546771E-02  0.1235069E+00
         21   -1    0    0  502  501  0.00000000000E+00  0.00000000000E+00  0.45654256330E+02  0.45654256330E+02  0.00000000000E+00 0.  1.
         21   -1    0    0  501  502 -0.00000000000E+00 -0.00000000000E+00 -0.85561573311E+02  0.85561573311E+02  0.00000000000E+00 0.  1.
         25    1    1    2    0    0  0.00000000000E+00  0.00000000000E+00 -0.39907316981E+02  0.13121582964E+03  0.12500000000E+03 0.  0.
<mgrwt>
<rscale>  0 0.12500000E+03</rscale>
<asrwt>0</asrwt>
<pdfrwt beam="1">  1       21 0.70237318E-02 0.12500000E+03</pdfrwt>
<pdfrwt beam="2">  1       21 0.13163319E-01 0.12500000E+03</pdfrwt>
<totfact> 0.73201601E+06</totfact>
</mgrwt>
</event>
<event>
 3    1  0.1592492E-001  0.1250000E+03  0.7546771E-02  0.1235069E+00
         21   -1    0    0  502  501  0.00000000000E+00  0.00000000000E+00  0.11093836489E+02  0.11093836489E+02  0.00000000000E+00 0.  1.
         21   -1    0    0  501  502 -0.00000000000E+00 -0.00000000000E+00 -0.35210993095E+03  0.35210993095E+03  0.00000000000E+00 0.  1.
         25    1    1    2    0    0  0.00000000000E+00  0.00000000000E+00 -0.34101609446E+03  0.36320376744E+03  0.12500000000E+03 0.  0.
<mgrwt>
<rscale>  0 0.12500000E+03</rscale>
<asrwt>0</asrwt>
<pdfrwt beam="1">  1       21 0.17067441E-02 0.12500000E+03</pdfrwt>
<pdfrwt beam="2">  1       21 0.54170758E-01 0.12500000E+03</pdfrwt>
<totfact> 0.50577836E+06</totfact>
</mgrwt>
</event>
<event>
 3    1  0.1592492E-001  0.1250000E+03  0.7546771E-02  0.1235069E+00
         21   -1    0    0  502  501  0.00000000000E+00  0.00000000000E+00  0.35616854046E+03  0.35616854046E+03  0.00000000000E+00 0. -1.
         21   -1    0    0  501  502 -0.00000000000E+00 -0.00000000000E+00 -0.10967420073E+02  0.10967420073E+02  0.00000000000E+00 0. -1.
         25    1    1    2    0    0  0.00000000000E+00  0.00000000000E+00  0.34520112038E+03  0.36713596053E+03  0.12500000000E+03 0.  0.
<mgrwt>
<rscale>  0 0.12500000E+03</rscale>
<asrwt>0</asrwt>
<pdfrwt beam="1">  1       21 0.54795151E-01 0.12500000E+03</pdfrwt>
<pdfrwt beam="2">  1       21 0.16872957E-02 0.12500000E+03</pdfrwt>
<totfact> 0.50297264E+06</totfact>
</mgrwt>
</event>
<event>
 3    1  0.1592492E-001  0.1250000E+03  0.7546771E-02  0.1235069E+00
         21   -1    0    0  502  501  0.00000000000E+00  0.00000000000E+00  0.12810546021E+03  0.12810546021E+03  0.00000000000E+00 0.  1.
         21   -1    0    0  501  502 -0.00000000000E+00 -0.00000000000E+00 -0.30492455151E+02  0.30492455151E+02  0.00000000000E+00 0.  1.
         25    1    1    2    0    0  0.00000000000E+00  0.00000000000E+00  0.97613005059E+02  0.15859791536E+03  0.12500000000E+03 0.  0.
<mgrwt>
<rscale>  0 0.12500000E+03</rscale>
<asrwt>0</asrwt>
<pdfrwt beam="1">  1       21 0.19708532E-01 0.12500000E+03</pdfrwt>
<pdfrwt beam="2">  1       21 0.46911470E-02 0.12500000E+03</pdfrwt>
<totfact> 0.69691223E+06</totfact>
</mgrwt>
</event>
<event>
 3    1  0.1592492E-001  0.1250000E+03  0.7546771E-02  0.1235069E+00
         21   -1    0    0  502  501  0.00000000000E+00  0.00000000000E+00  0.40920002351E+01  0.40920002351E+01  0.00000000000E+00 0. -1.
         21   -1    0    0  501  502 -0.00000000000E+00 -0.00000000000E+00 -0.95460649452E+03  0.95460649452E+03  0.00000000000E+00 0. -1.
         25    1    1    2    0    0  0.00000000000E+00  0.00000000000E+00 -0.95051449429E+03  0.95869849476E+03  0.12500000000E+03 0.  0.
<mgrwt>
<rscale>  0 0.12500000E+03</rscale>
<asrwt>0</asrwt>
<pdfrwt beam="1">  1       21 0.62953853E-03 0.12500000E+03</pdfrwt>
<pdfrwt beam="2">  1       21 0.14686253E+00 0.12500000E+03</pdfrwt>
<totfact> 0.24679951E+06</totfact>
</mgrwt>
</event>
<event>
 3    1  0.1592492E-001  0.1250000E+03  0.7546771E-02  0.1235069E+00
         21   -1    0    0  502  501  0.00000000000E+00  0.00000000000E+00  0.13362417939E+01  0.13362417939E+01  0.00000000000E+00 0. -1.
         21   -1    0    0  501  502 -0.00000000000E+00 -0.00000000000E+00 -0.29233107494E+04  0.29233107494E+04  0.00000000000E+00 0. -1.
         25    1    1    2    0    0  0.00000000000E+00  0.00000000000E+00 -0.29219745077E+04  0.29246469912E+04  0.12500000000E+03 0.  0.
<mgrwt>
<rscale>  0 0.12500000E+03</rscale>
<asrwt>0</asrwt>
<pdfrwt beam="1">  1       21 0.20557524E-03 0.12500000E+03</pdfrwt>
<pdfrwt beam="2">  1       21 0.44974103E+00 0.12500000E+03</pdfrwt>
<totfact> 0.19923165E+05</totfact>
</mgrwt>
</event>
<event>
 3    1  0.1592492E-001  0.1250000E+03  0.7546771E-02  0.1235069E+00
         21   -1    0    0  502  501  0.00000000000E+00  0.00000000000E+00  0.15501237228E+03  0.15501237228E+03  0.00000000000E+00 0. -1.
         21   -1    0    0  501  502 -0.00000000000E+00 -0.00000000000E+00 -0.25199601442E+02  0.25199601442E+02  0.00000000000E+00 0. -1.
         25    1    1    2    0    0  0.00000000000E+00  0.00000000000E+00  0.12981277084E+03  0.18021197372E+03  0.12500000000E+03 0.  0.
<mgrwt>
<rscale>  0 0.12500000E+03</rscale>
<asrwt>0</asrwt>
<pdfrwt beam="1">  1       21 0.23848057E-01 0.12500000E+03</pdfrwt>
<pdfrwt beam="2">  1       21 0.38768618E-02 0.12500000E+03</pdfrwt>
<totfact> 0.67127228E+06</totfact>
</mgrwt>
</event>
<event>
 3    1  0.1592492E-001  0.1250000E+03  0.7546771E-02  0.1235069E+00
         21   -1    0    0  502  501  0.00000000000E+00  0.00000000000E+00  0.44786015062E+02  0.44786015062E+02  0.00000000000E+00 0. -1.
         21   -1    0    0  501  502 -0.00000000000E+00 -0.00000000000E+00 -0.87220307380E+02  0.87220307380E+02  0.00000000000E+00 0. -1.
         25    1    1    2    0    0  0.00000000000E+00  0.00000000000E+00 -0.42434292318E+02  0.13200632244E+03  0.12500000000E+03 0.  0.
<mgrwt>
<rscale>  0 0.12500000E+03</rscale>
<asrwt>0</asrwt>
<pdfrwt beam="1">  1       21 0.68901562E-02 0.12500000E+03</pdfrwt>
<pdfrwt beam="2">  1       21 0.13418509E-01 0.12500000E+03</pdfrwt>
<totfact> 0.73095381E+06</totfact>
</mgrwt>
</event>
<event>
 3    1  0.1592492E-001  0.1250000E+03  0.7546771E-02  0.1235069E+00
         21   -1    0    0  502  501  0.00000000000E+00  0.00000000000E+00  0.48155517866E+02  0.48155517866E+02  0.00000000000E+00 0. -1.
         21   -1    0    0  501  502 -0.00000000000E+00 -0.00000000000E+00 -0.81117391591E+02  0.81117391591E+02  0.00000000000E+00 0. -1.
         25    1    1    2    0    0  0.00000000000E+00  0.00000000000E+00 -0.32961873725E+02  0.12927290946E+03  0.12500000000E+03 0.  0.
<mgrwt>
<rscale>  0 0.12500000E+03</rscale>
<asrwt>0</asrwt>
<pdfrwt beam="1">  1       21 0.74085413E-02 0.12500000E+03</pdfrwt>
<pdfrwt beam="2">  1       21 0.12479599E-01 0.12500000E+03</pdfrwt>
<totfact> 0.73462255E+06</totfact>
</mgrwt>
</event>
<event>
 3    1  0.1592492E-001  0.1250000E+03  0.7546771E-02  0.1235069E+00
         21   -1    0    0  502  501  0.00000000000E+00  0.00000000000E+00  0.29032560632E+03  0.29032560632E+03  0.00000000000E+00 0. -1.
         21   -1    0    0  501  502 -0.00000000000E+00 -0.00000000000E+00 -0.13454720889E+02  0.13454720889E+02  0.00000000000E+00 0. -1.
         25    1    1    2    0    0  0.00000000000E+00  0.00000000000E+00  0.27687088543E+03  0.30378032721E+03  0.12500000000E+03 0.  0.
<mgrwt>
<rscale>  0 0.12500000E+03</rscale>
<asrwt>0</asrwt>
<pdfrwt beam="1">  1       21 0.44665473E-01 0.12500000E+03</pdfrwt>
<pdfrwt beam="2">  1       21 0.20699573E-02 0.12500000E+03</pdfrwt>
<totfact> 0.55143472E+06</totfact>
</mgrwt>
</event>
<event>
 3    1  0.1592492E-001  0.1250000E+03  0.7546771E-02  0.1235069E+00
         21   -1    0    0  502  501  0.00000000000E+00  0.00000000000E+00  0.36965704952E+02  0.36965704952E+02  0.00000000000E+00 0. -1.
         21   -1    0    0  501  502 -0.00000000000E+00 -0.00000000000E+00 -0.10567227123E+03  0.10567227123E+03  0.00000000000E+00 0. -1.
         25    1    1    2    0    0  0.00000000000E+00  0.00000000000E+00 -0.68706566282E+02  0.14263797619E+03  0.12500000000E+03 0.  0.
<mgrwt>
<rscale>  0 0.12500000E+03</rscale>
<asrwt>0</asrwt>
<pdfrwt beam="1">  1       21 0.56870315E-02 0.12500000E+03</pdfrwt>
<pdfrwt beam="2">  1       21 0.16257273E-01 0.12500000E+03</pdfrwt>
<totfact> 0.71696770E+06</totfact>
</mgrwt>
</event>
<event>
 3    1  0.1592492E-001  0.1250000E+03  0.7546771E-02  0.1235069E+00
         21   -1    0    0  502  501  0.00000000000E+00  0.00000000000E+00  0.36613855917E+01  0.36613855917E+01  0.00000000000E+00 0. -1.
         21   -1    0    0  501  502 -0.00000000000E+00 -0.00000000000E+00 -0.10668775255E+04  0.10668775255E+04  0.00000000000E+00 0. -1.
         25    1    1    2    0    0  0.00000000000E+00  0.00000000000E+00 -0.10632161399E+04  0.10705389111E+04  0.12500000000E+03 0.  0.
<mgrwt>
<rscale>  0 0.12500000E+03</rscale>
<asrwt>0</asrwt>
<pdfrwt beam="1">  1       21 0.56328938E-03 0.12500000E+03</pdfrwt>
<pdfrwt beam="2">  1       21 0.16413521E+00 0.12500000E+03</pdfrwt>
<totfact> 0.21918770E+06</totfact>
</mgrwt>
</event>
<event>
 3    1  0.1592492E-001  0.1250000E+03  0.7546771E-02  0.1235069E+00
         21   -1    0    0  502  501  0.00000000000E+00  0.00000000000E+00  0.41659649933E+02  0.41659649933E+02  0.00000000000E+00 0.  1.
         21   -1    0    0  501  502 -0.00000000000E+00 -0.00000000000E+00 -0.93765790310E+02  0.93765790310E+02  0.00000000000E+00 0.  1.
         25    1    1    2    0    0  0.00000000000E+00  0.00000000000E+00 -0.52106140378E+02  0.13542544024E+03  0.12500000000E+03 0.  0.
<mgrwt>
<rscale>  0 0.12500000E+03</rscale>
<asrwt>0</asrwt>
<pdfrwt beam="1">  1       21 0.64091769E-02 0.12500000E+03</pdfrwt>
<pdfrwt beam="2">  1       21 0.14425506E-01 0.12500000E+03</pdfrwt>
<totfact> 0.72640190E+06</totfact>
</mgrwt>
</event>
<event>
 3    1  0.1592492E-001  0.1250000E+03  0.7546771E-02  0.1235069E+00
         21   -1    0    0  502  501  0.00000000000E+00  0.00000000000E+00  0.10827171578E+03  0.10827171578E+03  0.00000000000E+00 0. -1.
         21   -1    0    0  501  502 -0.00000000000E+00 -0.00000000000E+00 -0.36078212779E+02  0.36078212779E+02  0.00000000000E+00 0. -1.
         25    1    1    2    0    0  0.00000000000E+00  0.00000000000E+00  0.72193503003E+02  0.14434992856E+03  0.12500000000E+03 0.  0.
<mgrwt>
<rscale>  0 0.12500000E+03</rscale>
<asrwt>0</asrwt>
<pdfrwt beam="1">  1       21 0.16657187E-01 0.12500000E+03</pdfrwt>
<pdfrwt beam="2">  1       21 0.55504943E-02 0.12500000E+03</pdfrwt>
<totfact> 0.71476396E+06</totfact>
</mgrwt>
</event>
<event>
 3    1  0.1592492E-001  0.1250000E+03  0.7546771E-02  0.1235069E+00
         21   -1    0    0  502  501  0.00000000000E+00  0.00000000000E+00  0.11474511397E+02  0.11474511397E+02  0.00000000000E+00 0.  1.
         21   -1    0    0  501  502 -0.00000000000E+00 -0.00000000000E+00 -0.34042843873E+03  0.34042843873E+03  0.00000000000E+00 0.  1.
         25    1    1    2    0    0  0.00000000000E+00  0.00000000000E+00 -0.32895392733E+03  0.35190295013E+03  0.12500000000E+03 0.  0.
<mgrwt>
<rscale>  0 0.12500000E+03</rscale>
<asrwt>0</asrwt>
<pdfrwt beam="1">  1       21 0.17653093E-02 0.12500000E+03</pdfrwt>
<pdfrwt beam="2">  1       21 0.52373609E-01 0.12500000E+03</pdfrwt>
<totfact> 0.51398199E+06</totfact>
</mgrwt>
</event>
<event>
 3    1  0.1592492E-001  0.1250000E+03  0.7546771E-02  0.1235069E+00
         21   -1    0    0  502  501  0.00000000000E+00  0.00000000000E+00  0.41813883408E+03  0.41813883408E+03  0.00000000000E+00 0. -1.
         21   -1    0    0  501  502 -0.00000000000E+00 -0.00000000000E+00 -0.93419928541E+01  0.93419928541E+01  0.00000000000E+00 0. -1.
         25    1    1    2    0    0  0.00000000000E+00  0.00000000000E+00  0.40879684122E+03  0.42748082693E+03  0.12500000000E+03 0.  0.
<mgrwt>
<rscale>  0 0.12500000E+03</rscale>
<asrwt>0</asrwt>
<pdfrwt beam="1">  1       21 0.64329037E-01 0.12500000E+03</pdfrwt>
<pdfrwt beam="2">  1       21 0.14372300E-02 0.12500000E+03</pdfrwt>
<totfact> 0.46270444E+06</totfact>
</mgrwt>
</event>
<event>
 3    1  0.1592492E-001  0.1250000E+03  0.7546771E-02  0.1235069E+00
         21   -1    0    0  502  501  0.00000000000E+00  0.00000000000E+00  0.71369412277E+02  0.71369412277E+02  0.00000000000E+00 0. -1.
         21   -1    0    0  501  502 -0.00000000000E+00 -0.00000000000E+00 -0.54732831270E+02  0.54732831270E+02  0.00000000000E+00 0. -1.
         25    1    1    2    0    0  0.00000000000E+00  0.00000000000E+00  0.16636581006E+02  0.12610224355E+03  0.12500000000E+03 0.  0.
<mgrwt>
<rscale>  0 0.12500000E+03</rscale>
<asrwt>0</asrwt>
<pdfrwt beam="1">  1       21 0.10979910E-01 0.12500000E+03</pdfrwt>
<pdfrwt beam="2">  1       21 0.84204356E-02 0.12500000E+03</pdfrwt>
<totfact> 0.73891954E+06</totfact>
</mgrwt>
</event>
<event>
 3    1  0.1592492E-001  0.1250000E+03  0.7546771E-02  0.1235069E+00
         21   -1    0    0  502  501  0.00000000000E+00  0.00000000000E+00  0.77240296327E+01  0.77240296327E+01  0.00000000000E+00 0. -1.
         21   -1    0    0  501  502 -0.00000000000E+00 -0.00000000000E+00 -0.50572695675E+03  0.50572695675E+03  0.00000000000E+00 0. -1.
         25    1    1    2    0    0  0.00000000000E+00  0.00000000000E+00 -0.49800292712E+03  0.51345098638E+03  0.12500000000E+03 0.  0.
<mgrwt>
<rscale>  0 0.12500000E+03</rscale>
<asrwt>0</asrwt>
<pdfrwt beam="1">  1       21 0.11883120E-02 0.12500000E+03</pdfrwt>
<pdfrwt beam="2">  1       21 0.77804166E-01 0.12500000E+03</pdfrwt>
<totfact> 0.41323858E+06</totfact>
</mgrwt>
</event>
<event>
 3    1  0.1592492E-001  0.1250000E+03  0.7546771E-02  0.1235069E+00
         21   -1    0    0  502  501  0.00000000000E+00  0.00000000000E+00  0.34505895622E+01  0.34505895622E+01  0.00000000000E+00 0.  1.
         21   -1    0    0  501  502 -0.00000000000E+00 -0.00000000000E+00 -0.11320529230E+04  0.11320529230E+04  0.00000000000E+00 0.  1.
         25    1    1    2    0    0  0.00000000000E+00  0.00000000000E+00 -0.11286023334E+04  0.11355035126E+04  0.12500000000E+03 0.  0.
<mgrwt>
<rscale>  0 0.12500000E+03</rscale>
<asrwt>0</asrwt>
<pdfrwt beam="1">  1       21 0.53086047E-03 0.12500000E+03</pdfrwt>
<pdfrwt beam="2">  1       21 0.17416181E+00 0.12500000E+03</pdfrwt>
<totfact> 0.20477887E+06</totfact>
</mgrwt>
</event>
<event>
 3    1  0.1592492E-001  0.1250000E+03  0.7546771E-02  0.1235069E+00
         21   -1    0    0  502  501  0.00000000000E+00  0.00000000000E+00  0.51840339307E+02  0.51840339307E+02  0.00000000000E+00 0. -1.
         21   -1    0    0  501  502 -0.00000000000E+00 -0.00000000000E+00 -0.75351551557E+02  0.75351551557E+02  0.00000000000E+00 0. -1.
         25    1    1    2    0    0  0.00000000000E+00  0.00000000000E+00 -0.23511212251E+02  0.12719189086E+03  0.12500000000E+03 0.  0.
<mgrwt>
<rscale>  0 0.12500000E+03</rscale>
<asrwt>0</asrwt>
<pdfrwt beam="1">  1       21 0.79754369E-02 0.12500000E+03</pdfrwt>
<pdfrwt beam="2">  1       21 0.11592546E-01 0.12500000E+03</pdfrwt>
<totfact> 0.73743037E+06</totfact>
</mgrwt>
</event>
<event>
 3    1  0.1592492E-001  0.1250000E+03  0.7546771E-02  0.1235069E+00
         21   -1    0    0  502  501  0.00000000000E+00  0.00000000000E+00  0.14251460311E+02  0.14251460311E+02  0.00000000000E+00 0.  1.
         21   -1    0    0  501  502 -0.00000000000E+00 -0.00000000000E+00 -0.27409471835E+03  0.27409471835E+03  0.00000000000E+00 0.  1.
         25    1    1    2    0    0  0.00000000000E+00  0.00000000000E+00 -0.25984325804E+03  0.28834617867E+03  0.12500000000E+03 0.  0.
<mgrwt>
<rscale>  0 0.12500000E+03</rscale>
<asrwt>0</asrwt>
<pdfrwt beam="1">  1       21 0.21925322E-02 0.12500000E+03</pdfrwt>
<pdfrwt beam="2">  1       21 0.42168421E-01 0.12500000E+03</pdfrwt>
<totfact> 0.56438773E+06</totfact>
</mgrwt>
</event>
<event>
 3    1  0.1592492E-001  0.1250000E+03  0.7546771E-02  0.1235069E+00
         21   -1    0    0  502  501  0.00000000000E+00  0.00000000000E+00  0.11364063011E+03  0.11364063011E+03  0.00000000000E+00 0.  1.
         21   -1    0    0  501  502 -0.00000000000E+00 -0.00000000000E+00 -0.34373709439E+02  0.34373709439E+02  0.00000000000E+00 0.  1.
         25    1    1    2    0    0  0.00000000000E+00  0.00000000000E+00  0.79266920673E+02  0.14801433955E+03  0.12500000000E+03 0.  0.
<mgrwt>
<rscale>  0 0.12500000E+03</rscale>
<asrwt>0</asrwt>
<pdfrwt beam="1">  1       21 0.17483174E-01 0.12500000E+03</pdfrwt>
<pdfrwt beam="2">  1       21 0.52882630E-02 0.12500000E+03</pdfrwt>
<totfact> 0.71009536E+06</totfact>
</mgrwt>
</event>
<event>
 3    1  0.1592492E-001  0.1250000E+03  0.7546771E-02  0.1235069E+00
         21   -1    0    0  502  501  0.00000000000E+00  0.00000000000E+00  0.99905018781E+02  0.99905018781E+02  0.00000000000E+00 0. -1.
         21   -1    0    0  501  502 -0.00000000000E+00 -0.00000000000E+00 -0.39099637312E+02  0.39099637312E+02  0.00000000000E+00 0. -1.
         25    1    1    2    0    0  0.00000000000E+00  0.00000000000E+00  0.60805381469E+02  0.13900465609E+03  0.12500000000E+03 0.  0.
<mgrwt>
<rscale>  0 0.12500000E+03</rscale>
<asrwt>0</asrwt>
<pdfrwt beam="1">  1       21 0.15370003E-01 0.12500000E+03</pdfrwt>
<pdfrwt beam="2">  1       21 0.60153289E-02 0.12500000E+03</pdfrwt>
<totfact> 0.72169516E+06</totfact>
</mgrwt>
</event>
<event>
 3    1  0.1592492E-001  0.1250000E+03  0.7546771E-02  0.1235069E+00
         21   -1    0    0  502  501  0.00000000000E+00  0.00000000000E+00  0.18729213289E+02  0.18729213289E+02  0.00000000000E+00 0.  1.
         21   -1    0    0  501  502 -0.00000000000E+00 -0.00000000000E+00 -0.20856455313E+03  0.20856455313E+03  0.00000000000E+00 0.  1.
         25    1    1    2    0    0  0.00000000000E+00  0.00000000000E+00 -0.18983533984E+03  0.22729376642E+03  0.12500000000E+03 0.  0.
<mgrwt>
<rscale>  0 0.12500000E+03</rscale>
<asrwt>0</asrwt>
<pdfrwt beam="1">  1       21 0.28814174E-02 0.12500000E+03</pdfrwt>
<pdfrwt beam="2">  1       21 0.32086855E-01 0.12500000E+03</pdfrwt>
<totfact> 0.62084332E+06</totfact>
</mgrwt>
</event>
<event>
 3    1  0.1592492E-001  0.1250000E+03  0.7546771E-02  0.1235069E+00
         21   -1    0    0  502  501  0.00000000000E+00  0.00000000000E+00  0.79024895642E+02  0.79024895642E+02  0.00000000000E+00 0.  1.
         21   -1    0    0  501  502 -0.00000000000E+00 -0.00000000000E+00 -0.49430625226E+02  0.49430625226E+02  0.00000000000E+00 0.  1.
         25    1    1    2    0    0  0.00000000000E+00  0.00000000000E+00  0.29594270416E+02  0.12845552087E+03  0.12500000000E+03 0.  0.
<mgrwt>
<rscale>  0 0.12500000E+03</rscale>
<asrwt>0</asrwt>
<pdfrwt beam="1">  1       21 0.12157676E-01 0.12500000E+03</pdfrwt>
<pdfrwt beam="2">  1       21 0.76047116E-02 0.12500000E+03</pdfrwt>
<totfact> 0.73572113E+06</totfact>
</mgrwt>
</event>
<event>
 3    1  0.1592492E-001  0.1250000E+03  0.7546771E-02  0.1235069E+00
         21   -1    0    0  502  501  0.00000000000E+00  0.00000000000E+00  0.18273838751E+04  0.18273838751E+04  0.00000000000E+00 0. -1.
         21   -1    0    0  501  502 -0.00000000000E+00 -0.00000000000E+00 -0.21376187309E+01  0.21376187309E+01  0.00000000000E+00 0. -1.
         25    1    1    2    0    0  0.00000000000E+00  0.00000000000E+00  0.18252462564E+04  0.18295214938E+04  0.12500000000E+03 0.  0.
<mgrwt>
<rscale>  0 0.12500000E+03</rscale>
<asrwt>0</asrwt>
<pdfrwt beam="1">  1       21 0.28113473E+00 0.12500000E+03</pdfrwt>
<pdfrwt beam="2">  1       21 0.32886588E-03 0.12500000E+03</pdfrwt>
<totfact> 0.97344622E+05</totfact>
</mgrwt>
</event>
<event>
 3    1  0.1592492E-001  0.1250000E+03  0.7546771E-02  0.1235069E+00
         21   -1    0    0  502  501  0.00000000000E+00  0.00000000000E+00  0.14474137073E+02  0.14474137073E+02  0.00000000000E+00 0. -1.
         21   -1    0    0  501  502 -0.00000000000E+00 -0.00000000000E+00 -0.26987791951E+03  0.26987791951E+03  0.00000000000E+00 0. -1.
         25    1    1    2    0    0  0.00000000000E+00  0.00000000000E+00 -0.25540378243E+03  0.28435205658E+03  0.12500000000E+03 0.  0.
<mgrwt>
<rscale>  0 0.12500000E+03</rscale>
<asrwt>0</asrwt>
<pdfrwt beam="1">  1       21 0.22267903E-02 0.12500000E+03</pdfrwt>
<pdfrwt beam="2">  1       21 0.41519681E-01 0.12500000E+03</pdfrwt>
<totfact> 0.56782177E+06</totfact>
</mgrwt>
</event>
<event>
 3    1  0.1592492E-001  0.1250000E+03  0.7546771E-02  0.1235069E+00
         21   -1    0    0  502  501  0.00000000000E+00  0.00000000000E+00  0.64297746863E+01  0.64297746863E+01  0.00000000000E+00 0.  1.
         21   -1    0    0  501  502 -0.00000000000E+00 -0.00000000000E+00 -0.60752517632E+03  0.60752517632E+03  0.00000000000E+00 0.  1.
         25    1    1    2    0    0  0.00000000000E+00  0.00000000000E+00 -0.60109540163E+03  0.61395495101E+03  0.12500000000E+03 0.  0.
<mgrwt>
<rscale>  0 0.12500000E+03</rscale>
<asrwt>0</asrwt>
<pdfrwt beam="1">  1       21 0.98919592E-03 0.12500000E+03</pdfrwt>
<pdfrwt beam="2">  1       21 0.93465429E-01 0.12500000E+03</pdfrwt>
<totfact> 0.36469040E+06</totfact>
</mgrwt>
</event>
<event>
 3    1  0.1592492E-001  0.1250000E+03  0.7546771E-02  0.1235069E+00
         21   -1    0    0  502  501  0.00000000000E+00  0.00000000000E+00  0.41307555520E+02  0.41307555520E+02  0.00000000000E+00 0. -1.
         21   -1    0    0  501  502 -0.00000000000E+00 -0.00000000000E+00 -0.94565024504E+02  0.94565024504E+02  0.00000000000E+00 0. -1.
         25    1    1    2    0    0  0.00000000000E+00  0.00000000000E+00 -0.53257468984E+02  0.13587258002E+03  0.12500000000E+03 0.  0.
<mgrwt>
<rscale>  0 0.12500000E+03</rscale>
<asrwt>0</asrwt>
<pdfrwt beam="1">  1       21 0.63550086E-02 0.12500000E+03</pdfrwt>
<pdfrwt beam="2">  1       21 0.14548465E-01 0.12500000E+03</pdfrwt>
<totfact> 0.72581142E+06</totfact>
</mgrwt>
</event>
<event>
 3    1  0.1592492E-001  0.1250000E+03  0.7546771E-02  0.1235069E+00
         21   -1    0    0  502  501  0.00000000000E+00  0.00000000000E+00  0.50283842865E+02  0.50283842865E+02  0.00000000000E+00 0. -1.
         21   -1    0    0  501  502 -0.00000000000E+00 -0.00000000000E+00 -0.77683999023E+02  0.77683999023E+02  0.00000000000E+00 0. -1.
         25    1    1    2    0    0  0.00000000000E+00  0.00000000000E+00 -0.27400156159E+02  0.12796784189E+03  0.12500000000E+03 0.  0.
<mgrwt>
<rscale>  0 0.12500000E+03</rscale>
<asrwt>0</asrwt>
<pdfrwt beam="1">  1       21 0.77359759E-02 0.12500000E+03</pdfrwt>
<pdfrwt beam="2">  1       21 0.11951384E-01 0.12500000E+03</pdfrwt>
<totfact> 0.73637904E+06</totfact>
</mgrwt>
</event>
<event>
 3    1  0.1592492E-001  0.1250000E+03  0.7546771E-02  0.1235069E+00
         21   -1    0    0  502  501  0.00000000000E+00  0.00000000000E+00  0.24839966601E+02  0.24839966601E+02  0.00000000000E+00 0.  1.
         21   -1    0    0  501  502 -0.00000000000E+00 -0.00000000000E+00 -0.15725665266E+03  0.15725665266E+03  0.00000000000E+00 0.  1.
         25    1    1    2    0    0  0.00000000000E+00  0.00000000000E+00 -0.13241668606E+03  0.18209661926E+03  0.12500000000E+03 0.  0.
<mgrwt>
<rscale>  0 0.12500000E+03</rscale>
<asrwt>0</asrwt>
<pdfrwt beam="1">  1       21 0.38215334E-02 0.12500000E+03</pdfrwt>
<pdfrwt beam="2">  1       21 0.24193331E-01 0.12500000E+03</pdfrwt>
<totfact> 0.66911830E+06</totfact>
</mgrwt>
</event>
<event>
 3    1  0.1592492E-001  0.1250000E+03  0.7546771E-02  0.1235069E+00
         21   -1    0    0  502  501  0.00000000000E+00  0.00000000000E+00  0.12456708043E+02  0.12456708043E+02  0.00000000000E+00 0. -1.
         21   -1    0    0  501  502 -0.00000000000E+00 -0.00000000000E+00 -0.31358606035E+03  0.31358606035E+03  0.00000000000E+00 0. -1.
         25    1    1    2    0    0  0.00000000000E+00  0.00000000000E+00 -0.30112935230E+03  0.32604276839E+03  0.12500000000E+03 0.  0.
<mgrwt>
<rscale>  0 0.12500000E+03</rscale>
<asrwt>0</asrwt>
<pdfrwt beam="1">  1       21 0.19164165E-02 0.12500000E+03</pdfrwt>
<pdfrwt beam="2">  1       21 0.48244012E-01 0.12500000E+03</pdfrwt>
<totfact> 0.53357930E+06</totfact>
</mgrwt>
</event>
<event>
 3    1  0.1592492E-001  0.1250000E+03  0.7546771E-02  0.1235069E+00
         21   -1    0    0  502  501  0.00000000000E+00  0.00000000000E+00  0.15464987262E+02  0.15464987262E+02  0.00000000000E+00 0. -1.
         21   -1    0    0  501  502 -0.00000000000E+00 -0.00000000000E+00 -0.25258669365E+03  0.25258669365E+03  0.00000000000E+00 0. -1.
         25    1    1    2    0    0  0.00000000000E+00  0.00000000000E+00 -0.23712170639E+03  0.26805168092E+03  0.12500000000E+03 0.  0.
<mgrwt>
<rscale>  0 0.12500000E+03</rscale>
<asrwt>0</asrwt>
<pdfrwt beam="1">  1       21 0.23792290E-02 0.12500000E+03</pdfrwt>
<pdfrwt beam="2">  1       21 0.38859489E-01 0.12500000E+03</pdfrwt>
<totfact> 0.58219062E+06</totfact>
</mgrwt>
</event>
<event>
 3    1  0.1592492E-001  0.1250000E+03  0.7546771E-02  0.1235069E+00
         21   -1    0    0  502  501  0.00000000000E+00  0.00000000000E+00  0.10465589991E+03  0.10465589991E+03  0.00000000000E+00 0. -1.
         21   -1    0    0  501  502 -0.00000000000E+00 -0.00000000000E+00 -0.37324699358E+02  0.37324699358E+02  0.00000000000E+00 0. -1.
         25    1    1    2    0    0  0.00000000000E+00  0.00000000000E+00  0.67331200547E+02  0.14198059926E+03  0.12500000000E+03 0.  0.
<mgrwt>
<rscale>  0 0.12500000E+03</rscale>
<asrwt>0</asrwt>
<pdfrwt beam="1">  1       21 0.16100908E-01 0.12500000E+03</pdfrwt>
<pdfrwt beam="2">  1       21 0.57422615E-02 0.12500000E+03</pdfrwt>
<totfact> 0.71781789E+06</totfact>
</mgrwt>
</event>
<event>
 3    1  0.1592492E-001  0.1250000E+03  0.7546771E-02  0.1235069E+00
         21   -1    0    0  502  501  0.00000000000E+00  0.00000000000E+00  0.11368456357E+03  0.11368456357E+03  0.00000000000E+00 0.  1.
         21   -1    0    0  501  502 -0.00000000000E+00 -0.00000000000E+00 -0.34360425701E+02  0.34360425701E+02  0.00000000000E+00 0.  1.
         25    1    1    2    0    0  0.00000000000E+00  0.00000000000E+00  0.79324137873E+02  0.14804498927E+03  0.12500000000E+03 0.  0.
<mgrwt>
<rscale>  0 0.12500000E+03</rscale>
<asrwt>0</asrwt>
<pdfrwt beam="1">  1       21 0.17489933E-01 0.12500000E+03</pdfrwt>
<pdfrwt beam="2">  1       21 0.52862194E-02 0.12500000E+03</pdfrwt>
<totfact> 0.71005658E+06</totfact>
</mgrwt>
</event>
<event>
 3    1  0.1592492E-001  0.1250000E+03  0.7546771E-02  0.1235069E+00
         21   -1    0    0  502  501  0.00000000000E+00  0.00000000000E+00  0.45145536959E+02  0.45145536959E+02  0.00000000000E+00 0. -1.
         21   -1    0    0  501  502 -0.00000000000E+00 -0.00000000000E+00 -0.86525718003E+02  0.86525718003E+02  0.00000000000E+00 0. -1.
         25    1    1    2    0    0  0.00000000000E+00  0.00000000000E+00 -0.41380181045E+02  0.13167125496E+03  0.12500000000E+03 0.  0.
<mgrwt>
<rscale>  0 0.12500000E+03</rscale>
<asrwt>0</asrwt>
<pdfrwt beam="1">  1       21 0.69454673E-02 0.12500000E+03</pdfrwt>
<pdfrwt beam="2">  1       21 0.13311649E-01 0.12500000E+03</pdfrwt>
<totfact> 0.73140357E+06</totfact>
</mgrwt>
</event>
<event>
 3    1  0.1592492E-001  0.1250000E+03  0.7546771E-02  0.1235069E+00
         21   -1    0    0  502  501  0.00000000000E+00  0.00000000000E+00  0.16069063228E+03  0.16069063228E+03  0.00000000000E+00 0.  1.
         21   -1    0    0  501  502 -0.00000000000E+00 -0.00000000000E+00 -0.24309133299E+02  0.24309133299E+02  0.00000000000E+00 0.  1.
         25    1    1    2    0    0  0.00000000000E+00  0.00000000000E+00  0.13638149898E+03  0.18499976558E+03  0.12500000000E+03 0.  0.
<mgrwt>
<rscale>  0 0.12500000E+03</rscale>
<asrwt>0</asrwt>
<pdfrwt beam="1">  1       21 0.24721635E-01 0.12500000E+03</pdfrwt>
<pdfrwt beam="2">  1       21 0.37398668E-02 0.12500000E+03</pdfrwt>
<totfact> 0.66582557E+06</totfact>
</mgrwt>
</event>
<event>
 3    1  0.1592492E-001  0.1250000E+03  0.7546771E-02  0.1235069E+00
         21   -1    0    0  502  501  0.00000000000E+00  0.00000000000E+00  0.76733234420E+02  0.76733234420E+02  0.00000000000E+00 0. -1.
         21   -1    0    0  501  502 -0.00000000000E+00 -0.00000000000E+00 -0.50906885778E+02  0.50906885778E+02  0.00000000000E+00 0. -1.
         25    1    1    2    0    0  0.00000000000E+00  0.00000000000E+00  0.25826348642E+02  0.12764012020E+03  0.12500000000E+03 0.  0.
<mgrwt>
<rscale>  0 0.12500000E+03</rscale>
<asrwt>0</asrwt>
<pdfrwt beam="1">  1       21 0.11805113E-01 0.12500000E+03</pdfrwt>
<pdfrwt beam="2">  1       21 0.78318286E-02 0.12500000E+03</pdfrwt>
<totfact> 0.73682233E+06</totfact>
</mgrwt>
</event>
<event>
 3    1  0.1592492E-001  0.1250000E+03  0.7546771E-02  0.1235069E+00
         21   -1    0    0  502  501  0.00000000000E+00  0.00000000000E+00  0.91178116064E+02  0.91178116064E+02  0.00000000000E+00 0. -1.
         21   -1    0    0  501  502 -0.00000000000E+00 -0.00000000000E+00 -0.42841968760E+02  0.42841968760E+02  0.00000000000E+00 0. -1.
         25    1    1    2    0    0  0.00000000000E+00  0.00000000000E+00  0.48336147304E+02  0.13402008482E+03  0.12500000000E+03 0.  0.
<mgrwt>
<rscale>  0 0.12500000E+03</rscale>
<asrwt>0</asrwt>
<pdfrwt beam="1">  1       21 0.14027402E-01 0.12500000E+03</pdfrwt>
<pdfrwt beam="2">  1       21 0.65910722E-02 0.12500000E+03</pdfrwt>
<totfact> 0.72826483E+06</totfact>
</mgrwt>
</event>
<event>
 3    1  0.1592492E-001  0.1250000E+03  0.7546771E-02  0.1235069E+00
         21   -1    0    0  502  501  0.00000000000E+00  0.00000000000E+00  0.69868979283E+01  0.69868979283E+01  0.00000000000E+00 0. -1.
         21   -1    0    0  501  502 -0.00000000000E+00 -0.00000000000E+00 -0.55908216208E+03  0.55908216208E+03  0.00000000000E+00 0. -1.
         25    1    1    2    0    0  0.00000000000E+00  0.00000000000E+00 -0.55209526415E+03  0.56606906001E+03  0.12500000000E+03 0.  0.
<mgrwt>
<rscale>  0 0.12500000E+03</rscale>
<asrwt>0</asrwt>
<pdfrwt beam="1">  1       21 0.10749073E-02 0.12500000E+03</pdfrwt>
<pdfrwt beam="2">  1       21 0.86012649E-01 0.12500000E+03</pdfrwt>
<totfact> 0.38673494E+06</totfact>
</mgrwt>
</event>
<event>
 3    1  0.1592492E-001  0.1250000E+03  0.7546771E-02  0.1235069E+00
         21   -1    0    0  502  501  0.00000000000E+00  0.00000000000E+00  0.48431771777E+02  0.48431771777E+02  0.00000000000E+00 0. -1.
         21   -1    0    0  501  502 -0.00000000000E+00 -0.00000000000E+00 -0.80654699522E+02  0.80654699522E+02  0.00000000000E+00 0. -1.
         25    1    1    2    0    0  0.00000000000E+00  0.00000000000E+00 -0.32222927745E+02  0.12908647130E+03  0.12500000000E+03 0.  0.
<mgrwt>
<rscale>  0 0.12500000E+03</rscale>
<asrwt>0</asrwt>
<pdfrwt beam="1">  1       21 0.74510419E-02 0.12500000E+03</pdfrwt>
<pdfrwt beam="2">  1       21 0.12408415E-01 0.12500000E+03</pdfrwt>
<totfact> 0.73487270E+06</totfact>
</mgrwt>
</event>
<event>
 3    1  0.1592492E-001  0.1250000E+03  0.7546771E-02  0.1235069E+00
         21   -1    0    0  502  501  0.00000000000E+00  0.00000000000E+00  0.13998844321E+02  0.13998844321E+02  0.00000000000E+00 0.  1.
         21   -1    0    0  501  502 -0.00000000000E+00 -0.00000000000E+00 -0.27904089155E+03  0.27904089155E+03  0.00000000000E+00 0.  1.
         25    1    1    2    0    0  0.00000000000E+00  0.00000000000E+00 -0.26504204723E+03  0.29303973587E+03  0.12500000000E+03 0.  0.
<mgrwt>
<rscale>  0 0.12500000E+03</rscale>
<asrwt>0</asrwt>
<pdfrwt beam="1">  1       21 0.21536685E-02 0.12500000E+03</pdfrwt>
<pdfrwt beam="2">  1       21 0.42929366E-01 0.12500000E+03</pdfrwt>
<totfact> 0.56039605E+06</totfact>
</mgrwt>
</event>
<event>
 3    1  0.1592492E-001  0.1250000E+03  0.7546771E-02  0.1235069E+00
         21   -1    0    0  502  501  0.00000000000E+00  0.00000000000E+00  0.19627222736E+02  0.19627222736E+02  0.00000000000E+00 0. -1.
         21   -1    0    0  501  502 -0.00000000000E+00 -0.00000000000E+00 -0.19902204467E+03  0.19902204467E+03  0.00000000000E+00 0. -1.
         25    1    1    2    0    0  0.00000000000E+00  0.00000000000E+00 -0.17939482193E+03  0.21864926740E+03  0.12500000000E+03 0.  0.
<mgrwt>
<rscale>  0 0.12500000E+03</rscale>
<asrwt>0</asrwt>
<pdfrwt beam="1">  1       21 0.30195728E-02 0.12500000E+03</pdfrwt>
<pdfrwt beam="2">  1       21 0.30618776E-01 0.12500000E+03</pdfrwt>
<totfact> 0.62960866E+06</totfact>
</mgrwt>
</event>
<event>
 3    1  0.1592492E-001  0.1250000E+03  0.7546771E-02  0.1235069E+00
         21   -1    0    0  502  501  0.00000000000E+00  0.00000000000E+00  0.15515676658E+03  0.15515676658E+03  0.00000000000E+00 0. -1.
         21   -1    0    0  501  502 -0.00000000000E+00 -0.00000000000E+00 -0.25176149814E+02  0.25176149814E+02  0.00000000000E+00 0. -1.
         25    1    1    2    0    0  0.00000000000E+00  0.00000000000E+00  0.12998061677E+03  0.18033291639E+03  0.12500000000E+03 0.  0.
<mgrwt>
<rscale>  0 0.12500000E+03</rscale>
<asrwt>0</asrwt>
<pdfrwt beam="1">  1       21 0.23870271E-01 0.12500000E+03</pdfrwt>
<pdfrwt beam="2">  1       21 0.38732539E-02 0.12500000E+03</pdfrwt>
<totfact> 0.67113366E+06</totfact>
</mgrwt>
</event>
<event>
 3    1  0.1592492E-001  0.1250000E+03  0.7546771E-02  0.1235069E+00
         21   -1    0    0  502  501  0.00000000000E+00  0.00000000000E+00  0.52231842689E+02  0.52231842689E+02  0.00000000000E+00 0. -1.
         21   -1    0    0  501  502 -0.00000000000E+00 -0.00000000000E+00 -0.74786754571E+02  0.74786754571E+02  0.00000000000E+00 0. -1.
         25    1    1    2    0    0  0.00000000000E+00  0.00000000000E+00 -0.22554911882E+02  0.12701859726E+03  0.12500000000E+03 0.  0.
<mgrwt>
<rscale>  0 0.12500000E+03</rscale>
<asrwt>0</asrwt>
<pdfrwt beam="1">  1       21 0.80356681E-02 0.12500000E+03</pdfrwt>
<pdfrwt beam="2">  1       21 0.11505655E-01 0.12500000E+03</pdfrwt>
<totfact> 0.73766605E+06</totfact>
</mgrwt>
</event>
<event>
 3    1  0.1592492E-001  0.1250000E+03  0.7546771E-02  0.1235069E+00
         21   -1    0    0  502  501  0.00000000000E+00  0.00000000000E+00  0.15055996914E+03  0.15055996914E+03  0.00000000000E+00 0.  1.
         21   -1    0    0  501  502 -0.00000000000E+00 -0.00000000000E+00 -0.25944811375E+02  0.25944811375E+02  0.00000000000E+00 0.  1.
         25    1    1    2    0    0  0.00000000000E+00  0.00000000000E+00  0.12461515777E+03  0.17650478052E+03  0.12500000000E+03 0.  0.
<mgrwt>
<rscale>  0 0.12500000E+03</rscale>
<asrwt>0</asrwt>
<pdfrwt beam="1">  1       21 0.23163072E-01 0.12500000E+03</pdfrwt>
<pdfrwt beam="2">  1       21 0.39915095E-02 0.12500000E+03</pdfrwt>
<totfact> 0.67554777E+06</totfact>
</mgrwt>
</event>
<event>
 3    1  0.1592492E-001  0.1250000E+03  0.7546771E-02  0.1235069E+00
         21   -1    0    0  502  501  0.00000000000E+00  0.00000000000E+00  0.15480887817E+03  0.15480887817E+03  0.00000000000E+00 0.  1.
         21   -1    0    0  501  502 -0.00000000000E+00 -0.00000000000E+00 -0.25232725965E+02  0.25232725965E+02  0.00000000000E+00 0.  1.
         25    1    1    2    0    0  0.00000000000E+00  0.00000000000E+00  0.12957615221E+03  0.18004160414E+03  0.12500000000E+03 0.  0.
<mgrwt>
<rscale>  0 0.12500000E+03</rscale>
<asrwt>0</asrwt>
<pdfrwt beam="1">  1       21 0.23816750E-01 0.12500000E+03</pdfrwt>
<pdfrwt beam="2">  1       21 0.38819579E-02 0.12500000E+03</pdfrwt>
<totfact> 0.67146764E+06</totfact>
</mgrwt>
</event>
<event>
 3    1  0.1592492E-001  0.1250000E+03  0.7546771E-02  0.1235069E+00
         21   -1    0    0  502  501  0.00000000000E+00  0.00000000000E+00  0.84001362149E+03  0.84001362149E+03  0.00000000000E+00 0.  1.
         21   -1    0    0  501  502 -0.00000000000E+00 -0.00000000000E+00 -0.46502222108E+01  0.46502222108E+01  0.00000000000E+00 0.  1.
         25    1    1    2    0    0  0.00000000000E+00  0.00000000000E+00  0.83536339927E+03  0.84466384370E+03  0.12500000000E+03 0.  0.
<mgrwt>
<rscale>  0 0.12500000E+03</rscale>
<asrwt>0</asrwt>
<pdfrwt beam="1">  1       21 0.12923274E+00 0.12500000E+03</pdfrwt>
<pdfrwt beam="2">  1       21 0.71541947E-03 0.12500000E+03</pdfrwt>
<totfact> 0.27935461E+06</totfact>
</mgrwt>
</event>
<event>
 3    1  0.1592492E-001  0.1250000E+03  0.7546771E-02  0.1235069E+00
         21   -1    0    0  502  501  0.00000000000E+00  0.00000000000E+00  0.17454525495E+01  0.17454525495E+01  0.00000000000E+00 0. -1.
         21   -1    0    0  501  502 -0.00000000000E+00 -0.00000000000E+00 -0.22379582883E+04  0.22379582883E+04  0.00000000000E+00 0. -1.
         25    1    1    2    0    0  0.00000000000E+00  0.00000000000E+00 -0.22362128358E+04  0.22397037409E+04  0.12500000000E+03 0.  0.
<mgrwt>
<rscale>  0 0.12500000E+03</rscale>
<asrwt>0</asrwt>
<pdfrwt beam="1">  1       21 0.26853331E-03 0.12500000E+03</pdfrwt>
<pdfrwt beam="2">  1       21 0.34429852E+00 0.12500000E+03</pdfrwt>
<totfact> 0.58380910E+05</totfact>
</mgrwt>
</event>
<event>
 3    1  0.1592492E-001  0.1250000E+03  0.7546771E-02  0.1235069E+00
         21   -1    0    0  502  501  0.00000000000E+00  0.00000000000E+00  0.77065834947E+02  0.77065834947E+02  0.00000000000E+00 0. -1.
         21   -1    0    0  501  502 -0.00000000000E+00 -0.00000000000E+00 -0.50687181975E+02  0.50687181975E+02  0.00000000000E+00 0. -1.
         25    1    1    2    0    0  0.00000000000E+00  0.00000000000E+00  0.26378652972E+02  0.12775301692E+03  0.12500000000E+03 0.  0.
<mgrwt>
<rscale>  0 0.12500000E+03</rscale>
<asrwt>0</asrwt>
<pdfrwt beam="1">  1       21 0.11856282E-01 0.12500000E+03</pdfrwt>
<pdfrwt beam="2">  1       21 0.77980280E-02 0.12500000E+03</pdfrwt>
<totfact> 0.73666951E+06</totfact>
</mgrwt>
</event>
<event>
 3    1  0.1592492E-001  0.1250000E+03  0.7546771E-02  0.1235069E+00
         21   -1    0    0  502  501  0.00000000000E+00  0.00000000000E+00  0.77114554062E+02  0.77114554062E+02  0.00000000000E+00 0. -1.
         21   -1    0    0  501  502 -0.00000000000E+00 -0.00000000000E+00 -0.50655159036E+02  0.50655159036E+02  0.00000000000E+00 0. -1.
         25    1    1    2    0    0  0.00000000000E+00  0.00000000000E+00  0.26459395026E+02  0.12776971310E+03  0.12500000000E+03 0.  0.
<mgrwt>
<rscale>  0 0.12500000E+03</rscale>
<asrwt>0</asrwt>
<pdfrwt beam="1">  1       21 0.11863778E-01 0.12500000E+03</pdfrwt>
<pdfrwt beam="2">  1       21 0.77931014E-02 0.12500000E+03</pdfrwt>
<totfact> 0.73664692E+06</totfact>
</mgrwt>
</event>
<event>
 3    1  0.1592492E-001  0.1250000E+03  0.7546771E-02  0.1235069E+00
         21   -1    0    0  502  501  0.00000000000E+00  0.00000000000E+00  0.44527447885E+01  0.44527447885E+01  0.00000000000E+00 0. -1.
         21   -1    0    0  501  502 -0.00000000000E+00 -0.00000000000E+00 -0.87726788432E+03  0.87726788432E+03  0.00000000000E+00 0. -1.
         25    1    1    2    0    0  0.00000000000E+00  0.00000000000E+00 -0.87281513953E+03  0.88172062911E+03  0.12500000000E+03 0.  0.
<mgrwt>
<rscale>  0 0.12500000E+03</rscale>
<asrwt>0</asrwt>
<pdfrwt beam="1">  1       21 0.68503713E-03 0.12500000E+03</pdfrwt>
<pdfrwt beam="2">  1       21 0.13496440E+00 0.12500000E+03</pdfrwt>
<totfact> 0.26826485E+06</totfact>
</mgrwt>
</event>
<event>
 3    1  0.1592492E-001  0.1250000E+03  0.7546771E-02  0.1235069E+00
         21   -1    0    0  502  501  0.00000000000E+00  0.00000000000E+00  0.19681725455E+02  0.19681725455E+02  0.00000000000E+00 0.  1.
         21   -1    0    0  501  502 -0.00000000000E+00 -0.00000000000E+00 -0.19847091196E+03  0.19847091196E+03  0.00000000000E+00 0.  1.
         25    1    1    2    0    0  0.00000000000E+00  0.00000000000E+00 -0.17878918651E+03  0.21815263742E+03  0.12500000000E+03 0.  0.
<mgrwt>
<rscale>  0 0.12500000E+03</rscale>
<asrwt>0</asrwt>
<pdfrwt beam="1">  1       21 0.30279578E-02 0.12500000E+03</pdfrwt>
<pdfrwt beam="2">  1       21 0.30533986E-01 0.12500000E+03</pdfrwt>
<totfact> 0.63011861E+06</totfact>
</mgrwt>
</event>
<event>
 3    1  0.1592492E-001  0.1250000E+03  0.7546771E-02  0.1235069E+00
         21   -1    0    0  502  501  0.00000000000E+00  0.00000000000E+00  0.40421672950E+03  0.40421672950E+03  0.00000000000E+00 0. -1.
         21   -1    0    0  501  502 -0.00000000000E+00 -0.00000000000E+00 -0.96637514356E+01  0.96637514356E+01  0.00000000000E+00 0. -1.
         25    1    1    2    0    0  0.00000000000E+00  0.00000000000E+00  0.39455297806E+03  0.41388048094E+03  0.12500000000E+03 0.  0.
<mgrwt>
<rscale>  0 0.12500000E+03</rscale>
<asrwt>0</asrwt>
<pdfrwt beam="1">  1       21 0.62187176E-01 0.12500000E+03</pdfrwt>
<pdfrwt beam="2">  1       21 0.14867313E-02 0.12500000E+03</pdfrwt>
<totfact> 0.47134104E+06</totfact>
</mgrwt>
</event>
<event>
 3    1  0.1592492E-001  0.1250000E+03  0.7546771E-02  0.1235069E+00
         21   -1    0    0  502  501  0.00000000000E+00  0.00000000000E+00  0.29214580059E+03  0.29214580059E+03  0.00000000000E+00 0.  1.
         21   -1    0    0  501  502 -0.00000000000E+00 -0.00000000000E+00 -0.13370892178E+02  0.13370892178E+02  0.00000000000E+00 0.  1.
         25    1    1    2    0    0  0.00000000000E+00  0.00000000000E+00  0.27877490841E+03  0.30551669277E+03  0.12500000000E+03 0.  0.
<mgrwt>
<rscale>  0 0.12500000E+03</rscale>
<asrwt>0</asrwt>
<pdfrwt beam="1">  1       21 0.44945503E-01 0.12500000E+03</pdfrwt>
<pdfrwt beam="2">  1       21 0.20570606E-02 0.12500000E+03</pdfrwt>
<totfact> 0.55000811E+06</totfact>
</mgrwt>
</event>
<event>
 3    1  0.1592492E-001  0.1250000E+03  0.7546771E-02  0.1235069E+00
         21   -1    0    0  502  501  0.00000000000E+00  0.00000000000E+00  0.12614865688E+02  0.12614865688E+02  0.00000000000E+00 0. -1.
         21   -1    0    0  501  502 -0.00000000000E+00 -0.00000000000E+00 -0.30965450576E+03  0.30965450576E+03  0.00000000000E+00 0. -1.
         25    1    1    2    0    0  0.00000000000E+00  0.00000000000E+00 -0.29703964008E+03  0.32226937145E+03  0.12500000000E+03 0.  0.
<mgrwt>
<rscale>  0 0.12500000E+03</rscale>
<asrwt>0</asrwt>
<pdfrwt beam="1">  1       21 0.19407484E-02 0.12500000E+03</pdfrwt>
<pdfrwt beam="2">  1       21 0.47639159E-01 0.12500000E+03</pdfrwt>
<totfact> 0.53653993E+06</totfact>
</mgrwt>
</event>
<event>
 3    1  0.1592492E-001  0.1250000E+03  0.7546771E-02  0.1235069E+00
         21   -1    0    0  502  501  0.00000000000E+00  0.00000000000E+00  0.15959627347E+02  0.15959627347E+02  0.00000000000E+00 0.  1.
         21   -1    0    0  501  502 -0.00000000000E+00 -0.00000000000E+00 -0.24475822116E+03  0.24475822116E+03  0.00000000000E+00 0.  1.
         25    1    1    2    0    0  0.00000000000E+00  0.00000000000E+00 -0.22879859382E+03  0.26071784851E+03  0.12500000000E+03 0.  0.
<mgrwt>
<rscale>  0 0.12500000E+03</rscale>
<asrwt>0</asrwt>
<pdfrwt beam="1">  1       21 0.24553273E-02 0.12500000E+03</pdfrwt>
<pdfrwt beam="2">  1       21 0.37655111E-01 0.12500000E+03</pdfrwt>
<totfact> 0.58883538E+06</totfact>
</mgrwt>
</event>
<event>
 3    1  0.1592492E-001  0.1250000E+03  0.7546771E-02  0.1235069E+00
         21   -1    0    0  502  501  0.00000000000E+00  0.00000000000E+00  0.23101412396E+01  0.23101412396E+01  0.00000000000E+00 0. -1.
         21   -1    0    0  501  502 -0.00000000000E+00 -0.00000000000E+00 -0.16909139290E+04  0.16909139290E+04  0.00000000000E+00 0. -1.
         25    1    1    2    0    0  0.00000000000E+00  0.00000000000E+00 -0.16886037878E+04  0.16932240703E+04  0.12500000000E+03 0.  0.
<mgrwt>
<rscale>  0 0.12500000E+03</rscale>
<asrwt>0</asrwt>
<pdfrwt beam="1">  1       21 0.35540649E-03 0.12500000E+03</pdfrwt>
<pdfrwt beam="2">  1       21 0.26014050E+00 0.12500000E+03</pdfrwt>
<totfact> 0.11354629E+06</totfact>
</mgrwt>
</event>
<event>
 3    1  0.1592492E-001  0.1250000E+03  0.7546771E-02  0.1235069E+00
         21   -1    0    0  502  501  0.00000000000E+00  0.00000000000E+00  0.76056698329E+01  0.76056698329E+01  0.00000000000E+00 0. -1.
         21   -1    0    0  501  502 -0.00000000000E+00 -0.00000000000E+00 -0.51359710398E+03  0.51359710398E+03  0.00000000000E+00 0. -1.
         25    1    1    2    0    0  0.00000000000E+00  0.00000000000E+00 -0.50599143415E+03  0.52120277382E+03  0.12500000000E+03 0.  0.
<mgrwt>
<rscale>  0 0.12500000E+03</rscale>
<asrwt>0</asrwt>
<pdfrwt beam="1">  1       21 0.11701025E-02 0.12500000E+03</pdfrwt>
<pdfrwt beam="2">  1       21 0.79014975E-01 0.12500000E+03</pdfrwt>
<totfact> 0.40917045E+06</totfact>
</mgrwt>
</event>
<event>
 3    1  0.1592492E-001  0.1250000E+03  0.7546771E-02  0.1235069E+00
         21   -1    0    0  502  501  0.00000000000E+00  0.00000000000E+00  0.11449684525E+04  0.11449684525E+04  0.00000000000E+00 0.  1.
         21   -1    0    0  501  502 -0.00000000000E+00 -0.00000000000E+00 -0.34116660519E+01  0.34116660519E+01  0.00000000000E+00 0.  1.
         25    1    1    2    0    0  0.00000000000E+00  0.00000000000E+00  0.11415567865E+04  0.11483801186E+04  0.12500000000E+03 0.  0.
<mgrwt>
<rscale>  0 0.12500000E+03</rscale>
<asrwt>0</asrwt>
<pdfrwt beam="1">  1       21 0.17614869E+00 0.12500000E+03</pdfrwt>
<pdfrwt beam="2">  1       21 0.52487261E-03 0.12500000E+03</pdfrwt>
<totfact> 0.20203433E+06</totfact>
</mgrwt>
</event>
<event>
 3    1  0.1592492E-001  0.1250000E+03  0.7546771E-02  0.1235069E+00
         21   -1    0    0  502  501  0.00000000000E+00  0.00000000000E+00  0.74318091847E+02  0.74318091847E+02  0.00000000000E+00 0. -1.
         21   -1    0    0  501  502 -0.00000000000E+00 -0.00000000000E+00 -0.52561225711E+02  0.52561225711E+02  0.00000000000E+00 0. -1.
         25    1    1    2    0    0  0.00000000000E+00  0.00000000000E+00  0.21756866136E+02  0.12687931756E+03  0.12500000000E+03 0.  0.
<mgrwt>
<rscale>  0 0.12500000E+03</rscale>
<asrwt>0</asrwt>
<pdfrwt beam="1">  1       21 0.11433553E-01 0.12500000E+03</pdfrwt>
<pdfrwt beam="2">  1       21 0.80863424E-02 0.12500000E+03</pdfrwt>
<totfact> 0.73785574E+06</totfact>
</mgrwt>
</event>
<event>
 3    1  0.1592492E-001  0.1250000E+03  0.7546771E-02  0.1235069E+00
         21   -1    0    0  502  501  0.00000000000E+00  0.00000000000E+00  0.15508466727E+04  0.15508466727E+04  0.00000000000E+00 0.  1.
         21   -1    0    0  501  502 -0.00000000000E+00 -0.00000000000E+00 -0.25187854278E+01  0.25187854278E+01  0.00000000000E+00 0.  1.
         25    1    1    2    0    0  0.00000000000E+00  0.00000000000E+00  0.15483278873E+04  0.15533654581E+04  0.12500000000E+03 0.  0.
<mgrwt>
<rscale>  0 0.12500000E+03</rscale>
<asrwt>0</asrwt>
<pdfrwt beam="1">  1       21 0.23859103E+00 0.12500000E+03</pdfrwt>
<pdfrwt beam="2">  1       21 0.38750669E-03 0.12500000E+03</pdfrwt>
<totfact> 0.13219847E+06</totfact>
</mgrwt>
</event>
<event>
 3    1  0.1592492E-001  0.1250000E+03  0.7546771E-02  0.1235069E+00
         21   -1    0    0  502  501  0.00000000000E+00  0.00000000000E+00  0.38115970844E+03  0.38115970844E+03  0.00000000000E+00 0. -1.
         21   -1    0    0  501  502 -0.00000000000E+00 -0.00000000000E+00 -0.10248328754E+02  0.10248328754E+02  0.00000000000E+00 0. -1.
         25    1    1    2    0    0  0.00000000000E+00  0.00000000000E+00  0.37091137968E+03  0.39140803719E+03  0.12500000000E+03 0.  0.
<mgrwt>
<rscale>  0 0.12500000E+03</rscale>
<asrwt>0</asrwt>
<pdfrwt beam="1">  1       21 0.58639944E-01 0.12500000E+03</pdfrwt>
<pdfrwt beam="2">  1       21 0.15766663E-02 0.12500000E+03</pdfrwt>
<totfact> 0.48616521E+06</totfact>
</mgrwt>
</event>
<event>
 3    1  0.1592492E-001  0.1250000E+03  0.7546771E-02  0.1235069E+00
         21   -1    0    0  502  501  0.00000000000E+00  0.00000000000E+00  0.12133110638E+03  0.12133110638E+03  0.00000000000E+00 0.  1.
         21   -1    0    0  501  502 -0.00000000000E+00 -0.00000000000E+00 -0.32194959037E+02  0.32194959037E+02  0.00000000000E+00 0.  1.
         25    1    1    2    0    0  0.00000000000E+00  0.00000000000E+00  0.89136147347E+02  0.15352606542E+03  0.12500000000E+03 0.  0.
<mgrwt>
<rscale>  0 0.12500000E+03</rscale>
<asrwt>0</asrwt>
<pdfrwt beam="1">  1       21 0.18666324E-01 0.12500000E+03</pdfrwt>
<pdfrwt beam="2">  1       21 0.49530707E-02 0.12500000E+03</pdfrwt>
<totfact> 0.70319022E+06</totfact>
</mgrwt>
</event>
<event>
 3    1  0.1592492E-001  0.1250000E+03  0.7546771E-02  0.1235069E+00
         21   -1    0    0  502  501  0.00000000000E+00  0.00000000000E+00  0.16311521229E+02  0.16311521229E+02  0.00000000000E+00 0. -1.
         21   -1    0    0  501  502 -0.00000000000E+00 -0.00000000000E+00 -0.23947797052E+03  0.23947797052E+03  0.00000000000E+00 0. -1.
         25    1    1    2    0    0  0.00000000000E+00  0.00000000000E+00 -0.22316644929E+03  0.25578949175E+03  0.12500000000E+03 0.  0.
<mgrwt>
<rscale>  0 0.12500000E+03</rscale>
<asrwt>0</asrwt>
<pdfrwt beam="1">  1       21 0.25094650E-02 0.12500000E+03</pdfrwt>
<pdfrwt beam="2">  1       21 0.36842762E-01 0.12500000E+03</pdfrwt>
<totfact> 0.59337360E+06</totfact>
</mgrwt>
</event>
<event>
 3    1  0.1592492E-001  0.1250000E+03  0.7546771E-02  0.1235069E+00
         21   -1    0    0  502  501  0.00000000000E+00  0.00000000000E+00  0.89980188646E+02  0.89980188646E+02  0.00000000000E+00 0.  1.
         21   -1    0    0  501  502 -0.00000000000E+00 -0.00000000000E+00 -0.43412333968E+02  0.43412333968E+02  0.00000000000E+00 0.  1.
         25    1    1    2    0    0  0.00000000000E+00  0.00000000000E+00  0.46567854677E+02  0.13339252261E+03  0.12500000000E+03 0.  0.
<mgrwt>
<rscale>  0 0.12500000E+03</rscale>
<asrwt>0</asrwt>
<pdfrwt beam="1">  1       21 0.13843106E-01 0.12500000E+03</pdfrwt>
<pdfrwt beam="2">  1       21 0.66788206E-02 0.12500000E+03</pdfrwt>
<totfact> 0.72910028E+06</totfact>
</mgrwt>
</event>
<event>
 3    1  0.1592492E-001  0.1250000E+03  0.7546771E-02  0.1235069E+00
         21   -1    0    0  502  501  0.00000000000E+00  0.00000000000E+00  0.54261559610E+03  0.54261559610E+03  0.00000000000E+00 0. -1.
         21   -1    0    0  501  502 -0.00000000000E+00 -0.00000000000E+00 -0.71989268795E+01  0.71989268795E+01  0.00000000000E+00 0. -1.
         25    1    1    2    0    0  0.00000000000E+00  0.00000000000E+00  0.53541666922E+03  0.54981452298E+03  0.12500000000E+03 0.  0.
<mgrwt>
<rscale>  0 0.12500000E+03</rscale>
<asrwt>0</asrwt>
<pdfrwt beam="1">  1       21 0.83479290E-01 0.12500000E+03</pdfrwt>
<pdfrwt beam="2">  1       21 0.11075276E-02 0.12500000E+03</pdfrwt>
<totfact> 0.39465252E+06</totfact>
</mgrwt>
</event>
<event>
 3    1  0.1592492E-001  0.1250000E+03  0.7546771E-02  0.1235069E+00
         21   -1    0    0  502  501  0.00000000000E+00  0.00000000000E+00  0.15438676456E+02  0.15438676456E+02  0.00000000000E+00 0.  1.
         21   -1    0    0  501  502 -0.00000000000E+00 -0.00000000000E+00 -0.25301715540E+03  0.25301715540E+03  0.00000000000E+00 0.  1.
         25    1    1    2    0    0  0.00000000000E+00  0.00000000000E+00 -0.23757847894E+03  0.26845583185E+03  0.12500000000E+03 0.  0.
<mgrwt>
<rscale>  0 0.12500000E+03</rscale>
<asrwt>0</asrwt>
<pdfrwt beam="1">  1       21 0.23751810E-02 0.12500000E+03</pdfrwt>
<pdfrwt beam="2">  1       21 0.38925716E-01 0.12500000E+03</pdfrwt>
<totfact> 0.58182812E+06</totfact>
</mgrwt>
</event>
<event>
 3    1  0.1592492E-001  0.1250000E+03  0.7546771E-02  0.1235069E+00
         21   -1    0    0  502  501  0.00000000000E+00  0.00000000000E+00  0.48342365295E+01  0.48342365295E+01  0.00000000000E+00 0.  1.
         21   -1    0    0  501  502 -0.00000000000E+00 -0.00000000000E+00 -0.80803865846E+03  0.80803865846E+03  0.00000000000E+00 0.  1.
         25    1    1    2    0    0  0.00000000000E+00  0.00000000000E+00 -0.80320442193E+03  0.81287289499E+03  0.12500000000E+03 0.  0.
<mgrwt>
<rscale>  0 0.12500000E+03</rscale>
<asrwt>0</asrwt>
<pdfrwt beam="1">  1       21 0.74372896E-03 0.12500000E+03</pdfrwt>
<pdfrwt beam="2">  1       21 0.12431360E+00 0.12500000E+03</pdfrwt>
<totfact> 0.28940730E+06</totfact>
</mgrwt>
</event>
<event>
 3    1  0.1592492E-001  0.1250000E+03  0.7546771E-02  0.1235069E+00
         21   -1    0    0  502  501  0.00000000000E+00  0.00000000000E+00  0.11203738870E+02  0.11203738870E+02  0.00000000000E+00 0. -1.
         21   -1    0    0  501  502 -0.00000000000E+00 -0.00000000000E+00 -0.34865593043E+03  0.34865593043E+03  0.00000000000E+00 0. -1.
         25    1    1    2    0    0  0.00000000000E+00  0.00000000000E+00 -0.33745219156E+03  0.35985966930E+03  0.12500000000E+03 0.  0.
<mgrwt>
<rscale>  0 0.12500000E+03</rscale>
<asrwt>0</asrwt>
<pdfrwt beam="1">  1       21 0.17236521E-02 0.12500000E+03</pdfrwt>
<pdfrwt beam="2">  1       21 0.53639375E-01 0.12500000E+03</pdfrwt>
<totfact> 0.50818409E+06</totfact>
</mgrwt>
</event>
<event>
 3    1  0.1592492E-001  0.1250000E+03  0.7546771E-02  0.1235069E+00
         21   -1    0    0  502  501  0.00000000000E+00  0.00000000000E+00  0.71062917093E+03  0.71062917093E+03  0.00000000000E+00 0. -1.
         21   -1    0    0  501  502 -0.00000000000E+00 -0.00000000000E+00 -0.54968894605E+01  0.54968894605E+01  0.00000000000E+00 0. -1.
         25    1    1    2    0    0  0.00000000000E+00  0.00000000000E+00  0.70513228147E+03  0.71612606039E+03  0.12500000000E+03 0.  0.
<mgrwt>
<rscale>  0 0.12500000E+03</rscale>
<asrwt>0</asrwt>
<pdfrwt beam="1">  1       21 0.10932749E+00 0.12500000E+03</pdfrwt>
<pdfrwt beam="2">  1       21 0.84567586E-03 0.12500000E+03</pdfrwt>
<totfact> 0.32297645E+06</totfact>
</mgrwt>
</event>
<event>
 3    1  0.1592492E-001  0.1250000E+03  0.7546771E-02  0.1235069E+00
         21   -1    0    0  502  501  0.00000000000E+00  0.00000000000E+00  0.26469036761E+02  0.26469036761E+02  0.00000000000E+00 0. -1.
         21   -1    0    0  501  502 -0.00000000000E+00 -0.00000000000E+00 -0.14757809418E+03  0.14757809418E+03  0.00000000000E+00 0. -1.
         25    1    1    2    0    0  0.00000000000E+00  0.00000000000E+00 -0.12110905742E+03  0.17404713094E+03  0.12500000000E+03 0.  0.
<mgrwt>
<rscale>  0 0.12500000E+03</rscale>
<asrwt>0</asrwt>
<pdfrwt beam="1">  1       21 0.40721595E-02 0.12500000E+03</pdfrwt>
<pdfrwt beam="2">  1       21 0.22704322E-01 0.12500000E+03</pdfrwt>
<totfact> 0.67841080E+06</totfact>
</mgrwt>
</event>
<event>
 3    1  0.1592492E-001  0.1250000E+03  0.7546771E-02  0.1235069E+00
         21   -1    0    0  502  501  0.00000000000E+00  0.00000000000E+00  0.41175647096E+03  0.41175647096E+03  0.00000000000E+00 0. -1.
         21   -1    0    0  501  502 -0.00000000000E+00 -0.00000000000E+00 -0.94867968702E+01  0.94867968702E+01  0.00000000000E+00 0. -1.
         25    1    1    2    0    0  0.00000000000E+00  0.00000000000E+00  0.40226967409E+03  0.42124326783E+03  0.12500000000E+03 0.  0.
<mgrwt>
<rscale>  0 0.12500000E+03</rscale>
<asrwt>0</asrwt>
<pdfrwt beam="1">  1       21 0.63347136E-01 0.12500000E+03</pdfrwt>
<pdfrwt beam="2">  1       21 0.14595075E-02 0.12500000E+03</pdfrwt>
<totfact> 0.46663510E+06</totfact>
</mgrwt>
</event>
<event>
 3    1  0.1592492E-001  0.1250000E+03  0.7546771E-02  0.1235069E+00
         21   -1    0    0  502  501  0.00000000000E+00  0.00000000000E+00  0.68872328611E+01  0.68872328611E+01  0.00000000000E+00 0.  1.
         21   -1    0    0  501  502 -0.00000000000E+00 -0.00000000000E+00 -0.56717263359E+03  0.56717263359E+03  0.00000000000E+00 0.  1.
         25    1    1    2    0    0  0.00000000000E+00  0.00000000000E+00 -0.56028540073E+03  0.57405986646E+03  0.12500000000E+03 0.  0.
<mgrwt>
<rscale>  0 0.12500000E+03</rscale>
<asrwt>0</asrwt>
<pdfrwt beam="1">  1       21 0.10595742E-02 0.12500000E+03</pdfrwt>
<pdfrwt beam="2">  1       21 0.87257338E-01 0.12500000E+03</pdfrwt>
<totfact> 0.38292643E+06</totfact>
</mgrwt>
</event>
<event>
 3    1  0.1592492E-001  0.1250000E+03  0.7546771E-02  0.1235069E+00
         21   -1    0    0  502  501  0.00000000000E+00  0.00000000000E+00  0.37558095099E+03  0.37558095099E+03  0.00000000000E+00 0. -1.
         21   -1    0    0  501  502 -0.00000000000E+00 -0.00000000000E+00 -0.10400554101E+02  0.10400554101E+02  0.00000000000E+00 0. -1.
         25    1    1    2    0    0  0.00000000000E+00  0.00000000000E+00  0.36518039689E+03  0.38598150509E+03  0.12500000000E+03 0.  0.
<mgrwt>
<rscale>  0 0.12500000E+03</rscale>
<asrwt>0</asrwt>
<pdfrwt beam="1">  1       21 0.57781674E-01 0.12500000E+03</pdfrwt>
<pdfrwt beam="2">  1       21 0.16000855E-02 0.12500000E+03</pdfrwt>
<totfact> 0.48985301E+06</totfact>
</mgrwt>
</event>
<event>
 3    1  0.1592492E-001  0.1250000E+03  0.7546771E-02  0.1235069E+00
         21   -1    0    0  502  501  0.00000000000E+00  0.00000000000E+00  0.18946953177E+02  0.18946953177E+02  0.00000000000E+00 0. -1.
         21   -1    0    0  501  502 -0.00000000000E+00 -0.00000000000E+00 -0.20616771274E+03  0.20616771274E+03  0.00000000000E+00 0. -1.
         25    1    1    2    0    0  0.00000000000E+00  0.00000000000E+00 -0.18722075956E+03  0.22511466592E+03  0.12500000000E+03 0.  0.
<mgrwt>
<rscale>  0 0.12500000E+03</rscale>
<asrwt>0</asrwt>
<pdfrwt beam="1">  1       21 0.29149159E-02 0.12500000E+03</pdfrwt>
<pdfrwt beam="2">  1       21 0.31718110E-01 0.12500000E+03</pdfrwt>
<totfact> 0.62303540E+06</totfact>
</mgrwt>
</event>
<event>
 3    1  0.1592492E-001  0.1250000E+03  0.7546771E-02  0.1235069E+00
         21   -1    0    0  502  501  0.00000000000E+00  0.00000000000E+00  0.65682438903E+02  0.65682438903E+02  0.00000000000E+00 0. -1.
         21   -1    0    0  501  502 -0.00000000000E+00 -0.00000000000E+00 -0.59471756305E+02  0.59471756305E+02  0.00000000000E+00 0. -1.
         25    1    1    2    0    0  0.00000000000E+00  0.00000000000E+00  0.62106825983E+01  0.12515419521E+03  0.12500000000E+03 0.  0.
<mgrwt>
<rscale>  0 0.12500000E+03</rscale>
<asrwt>0</asrwt>
<pdfrwt beam="1">  1       21 0.10104991E-01 0.12500000E+03</pdfrwt>
<pdfrwt beam="2">  1       21 0.91495009E-02 0.12500000E+03</pdfrwt>
<totfact> 0.74022757E+06</totfact>
</mgrwt>
</event>
<event>
 3    1  0.1592492E-001  0.1250000E+03  0.7546771E-02  0.1235069E+00
         21   -1    0    0  502  501  0.00000000000E+00  0.00000000000E+00  0.44509459069E+02  0.44509459069E+02  0.00000000000E+00 0. -1.
         21   -1    0    0  501  502 -0.00000000000E+00 -0.00000000000E+00 -0.87762243841E+02  0.87762243841E+02  0.00000000000E+00 0. -1.
         25    1    1    2    0    0  0.00000000000E+00  0.00000000000E+00 -0.43252784772E+02  0.13227170291E+03  0.12500000000E+03 0.  0.
<mgrwt>
<rscale>  0 0.12500000E+03</rscale>
<asrwt>0</asrwt>
<pdfrwt beam="1">  1       21 0.68476092E-02 0.12500000E+03</pdfrwt>
<pdfrwt beam="2">  1       21 0.13501883E-01 0.12500000E+03</pdfrwt>
<totfact> 0.73059807E+06</totfact>
</mgrwt>
</event>
<event>
 3    1  0.1592492E-001  0.1250000E+03  0.7546771E-02  0.1235069E+00
         21   -1    0    0  502  501  0.00000000000E+00  0.00000000000E+00  0.25582559497E+02  0.25582559497E+02  0.00000000000E+00 0.  1.
         21   -1    0    0  501  502 -0.00000000000E+00 -0.00000000000E+00 -0.15269191499E+03  0.15269191499E+03  0.00000000000E+00 0.  1.
         25    1    1    2    0    0  0.00000000000E+00  0.00000000000E+00 -0.12710935550E+03  0.17827447449E+03  0.12500000000E+03 0.  0.
<mgrwt>
<rscale>  0 0.12500000E+03</rscale>
<asrwt>0</asrwt>
<pdfrwt beam="1">  1       21 0.39357783E-02 0.12500000E+03</pdfrwt>
<pdfrwt beam="2">  1       21 0.23491064E-01 0.12500000E+03</pdfrwt>
<totfact> 0.67350036E+06</totfact>
</mgrwt>
</event>
<event>
 3    1  0.1592492E-001  0.1250000E+03  0.7546771E-02  0.1235069E+00
         21   -1    0    0  502  501  0.00000000000E+00  0.00000000000E+00  0.17111971879E+03  0.17111971879E+03  0.00000000000E+00 0. -1.
         21   -1    0    0  501  502 -0.00000000000E+00 -0.00000000000E+00 -0.22827585434E+02  0.22827585434E+02  0.00000000000E+00 0. -1.
         25    1    1    2    0    0  0.00000000000E+00  0.00000000000E+00  0.14829213335E+03  0.19394730422E+03  0.12500000000E+03 0.  0.
<mgrwt>
<rscale>  0 0.12500000E+03</rscale>
<asrwt>0</asrwt>
<pdfrwt beam="1">  1       21 0.26326110E-01 0.12500000E+03</pdfrwt>
<pdfrwt beam="2">  1       21 0.35119363E-02 0.12500000E+03</pdfrwt>
<totfact> 0.65586421E+06</totfact>
</mgrwt>
</event>
<event>
 3    1  0.1592492E-001  0.1250000E+03  0.7546771E-02  0.1235069E+00
         21   -1    0    0  502  501  0.00000000000E+00  0.00000000000E+00  0.64877751289E+01  0.64877751289E+01  0.00000000000E+00 0. -1.
         21   -1    0    0  501  502 -0.00000000000E+00 -0.00000000000E+00 -0.60209392625E+03  0.60209392625E+03  0.00000000000E+00 0. -1.
         25    1    1    2    0    0  0.00000000000E+00  0.00000000000E+00 -0.59560615112E+03  0.60858170138E+03  0.12500000000E+03 0.  0.
<mgrwt>
<rscale>  0 0.12500000E+03</rscale>
<asrwt>0</asrwt>
<pdfrwt beam="1">  1       21 0.99811947E-03 0.12500000E+03</pdfrwt>
<pdfrwt beam="2">  1       21 0.92629814E-01 0.12500000E+03</pdfrwt>
<totfact> 0.36707394E+06</totfact>
</mgrwt>
</event>
<event>
 3    1  0.1592492E-001  0.1250000E+03  0.7546771E-02  0.1235069E+00
         21   -1    0    0  502  501  0.00000000000E+00  0.00000000000E+00  0.10488847932E+03  0.10488847932E+03  0.00000000000E+00 0.  1.
         21   -1    0    0  501  502 -0.00000000000E+00 -0.00000000000E+00 -0.37241935677E+02  0.37241935677E+02  0.00000000000E+00 0.  1.
         25    1    1    2    0    0  0.00000000000E+00  0.00000000000E+00  0.67646543642E+02  0.14213041500E+03  0.12500000000E+03 0.  0.
<mgrwt>
<rscale>  0 0.12500000E+03</rscale>
<asrwt>0</asrwt>
<pdfrwt beam="1">  1       21 0.16136689E-01 0.12500000E+03</pdfrwt>
<pdfrwt beam="2">  1       21 0.57295286E-02 0.12500000E+03</pdfrwt>
<totfact> 0.71762393E+06</totfact>
</mgrwt>
</event>
<event>
 3    1  0.1592492E-001  0.1250000E+03  0.7546771E-02  0.1235069E+00
         21   -1    0    0  502  501  0.00000000000E+00  0.00000000000E+00  0.51746099303E+02  0.51746099303E+02  0.00000000000E+00 0.  1.
         21   -1    0    0  501  502 -0.00000000000E+00 -0.00000000000E+00 -0.75488781813E+02  0.75488781813E+02  0.00000000000E+00 0.  1.
         25    1    1    2    0    0  0.00000000000E+00  0.00000000000E+00 -0.23742682510E+02  0.12723488112E+03  0.12500000000E+03 0.  0.
<mgrwt>
<rscale>  0 0.12500000E+03</rscale>
<asrwt>0</asrwt>
<pdfrwt beam="1">  1       21 0.79609383E-02 0.12500000E+03</pdfrwt>
<pdfrwt beam="2">  1       21 0.11613659E-01 0.12500000E+03</pdfrwt>
<totfact> 0.73737195E+06</totfact>
</mgrwt>
</event>
<event>
 3    1  0.1592492E-001  0.1250000E+03  0.7546771E-02  0.1235069E+00
         21   -1    0    0  502  501  0.00000000000E+00  0.00000000000E+00  0.74397660827E+01  0.74397660827E+01  0.00000000000E+00 0.  1.
         21   -1    0    0  501  502 -0.00000000000E+00 -0.00000000000E+00 -0.52505010999E+03  0.52505010999E+03  0.00000000000E+00 0.  1.
         25    1    1    2    0    0  0.00000000000E+00  0.00000000000E+00 -0.51761034391E+03  0.53248987607E+03  0.12500000000E+03 0.  0.
<mgrwt>
<rscale>  0 0.12500000E+03</rscale>
<asrwt>0</asrwt>
<pdfrwt beam="1">  1       21 0.11445793E-02 0.12500000E+03</pdfrwt>
<pdfrwt beam="2">  1       21 0.80776948E-01 0.12500000E+03</pdfrwt>
<totfact> 0.40335160E+06</totfact>
</mgrwt>
</event>
<event>
 3    1  0.1592492E-001  0.1250000E+03  0.7546771E-02  0.1235069E+00
         21   -1    0    0  502  501  0.00000000000E+00  0.00000000000E+00  0.17825719709E+02  0.17825719709E+02  0.00000000000E+00 0.  1.
         21   -1    0    0  501  502 -0.00000000000E+00 -0.00000000000E+00 -0.21913561213E+03  0.21913561213E+03  0.00000000000E+00 0.  1.
         25    1    1    2    0    0  0.00000000000E+00  0.00000000000E+00 -0.20130989242E+03  0.23696133184E+03  0.12500000000E+03 0.  0.
<mgrwt>
<rscale>  0 0.12500000E+03</rscale>
<asrwt>0</asrwt>
<pdfrwt beam="1">  1       21 0.27424185E-02 0.12500000E+03</pdfrwt>
<pdfrwt beam="2">  1       21 0.33713170E-01 0.12500000E+03</pdfrwt>
<totfact> 0.61127954E+06</totfact>
</mgrwt>
</event>
<event>
 3    1  0.1592492E-001  0.1250000E+03  0.7546771E-02  0.1235069E+00
         21   -1    0    0  502  501  0.00000000000E+00  0.00000000000E+00  0.25032429335E+03  0.25032429335E+03  0.00000000000E+00 0.  1.
         21   -1    0    0  501  502 -0.00000000000E+00 -0.00000000000E+00 -0.15604757923E+02  0.15604757923E+02  0.00000000000E+00 0.  1.
         25    1    1    2    0    0  0.00000000000E+00  0.00000000000E+00  0.23471953543E+03  0.26592905128E+03  0.12500000000E+03 0.  0.
<mgrwt>
<rscale>  0 0.12500000E+03</rscale>
<asrwt>0</asrwt>
<pdfrwt beam="1">  1       21 0.38511427E-01 0.12500000E+03</pdfrwt>
<pdfrwt beam="2">  1       21 0.24007322E-02 0.12500000E+03</pdfrwt>
<totfact> 0.58410070E+06</totfact>
</mgrwt>
</event>
<event>
 3    1  0.1592492E-001  0.1250000E+03  0.7546771E-02  0.1235069E+00
         21   -1    0    0  502  501  0.00000000000E+00  0.00000000000E+00  0.19228883463E+03  0.19228883463E+03  0.00000000000E+00 0.  1.
         21   -1    0    0  501  502 -0.00000000000E+00 -0.00000000000E+00 -0.20314492037E+02  0.20314492037E+02  0.00000000000E+00 0.  1.
         25    1    1    2    0    0  0.00000000000E+00  0.00000000000E+00  0.17197434260E+03  0.21260332667E+03  0.12500000000E+03 0.  0.
<mgrwt>
<rscale>  0 0.12500000E+03</rscale>
<asrwt>0</asrwt>
<pdfrwt beam="1">  1       21 0.29582896E-01 0.12500000E+03</pdfrwt>
<pdfrwt beam="2">  1       21 0.31253066E-02 0.12500000E+03</pdfrwt>
<totfact> 0.63586673E+06</totfact>
</mgrwt>
</event>
<event>
 3    1  0.1592492E-001  0.1250000E+03  0.7546771E-02  0.1235069E+00
         21   -1    0    0  502  501  0.00000000000E+00  0.00000000000E+00  0.23717174681E+03  0.23717174681E+03  0.00000000000E+00 0.  1.
         21   -1    0    0  501  502 -0.00000000000E+00 -0.00000000000E+00 -0.16470132099E+02  0.16470132099E+02  0.00000000000E+00 0.  1.
         25    1    1    2    0    0  0.00000000000E+00  0.00000000000E+00  0.22070161471E+03  0.25364187891E+03  0.12500000000E+03 0.  0.
<mgrwt>
<rscale>  0 0.12500000E+03</rscale>
<asrwt>0</asrwt>
<pdfrwt beam="1">  1       21 0.36487959E-01 0.12500000E+03</pdfrwt>
<pdfrwt beam="2">  1       21 0.25338666E-02 0.12500000E+03</pdfrwt>
<totfact> 0.59536997E+06</totfact>
</mgrwt>
</event>
<event>
 3    1  0.1592492E-001  0.1250000E+03  0.7546771E-02  0.1235069E+00
         21   -1    0    0  502  501  0.00000000000E+00  0.00000000000E+00  0.35292383095E+02  0.35292383095E+02  0.00000000000E+00 0.  1.
         21   -1    0    0  501  502 -0.00000000000E+00 -0.00000000000E+00 -0.11068252290E+03  0.11068252290E+03  0.00000000000E+00 0.  1.
         25    1    1    2    0    0  0.00000000000E+00  0.00000000000E+00 -0.75390139803E+02  0.14597490599E+03  0.12500000000E+03 0.  0.
<mgrwt>
<rscale>  0 0.12500000E+03</rscale>
<asrwt>0</asrwt>
<pdfrwt beam="1">  1       21 0.54295975E-02 0.12500000E+03</pdfrwt>
<pdfrwt beam="2">  1       21 0.17028080E-01 0.12500000E+03</pdfrwt>
<totfact> 0.71268568E+06</totfact>
</mgrwt>
</event>
<event>
 3    1  0.1592492E-001  0.1250000E+03  0.7546771E-02  0.1235069E+00
         21   -1    0    0  502  501  0.00000000000E+00  0.00000000000E+00  0.94955841610E+02  0.94955841610E+02  0.00000000000E+00 0. -1.
         21   -1    0    0  501  502 -0.00000000000E+00 -0.00000000000E+00 -0.41137542817E+02  0.41137542817E+02  0.00000000000E+00 0. -1.
         25    1    1    2    0    0  0.00000000000E+00  0.00000000000E+00  0.53818298793E+02  0.13609338443E+03  0.12500000000E+03 0.  0.
<mgrwt>
<rscale>  0 0.12500000E+03</rscale>
<asrwt>0</asrwt>
<pdfrwt beam="1">  1       21 0.14608591E-01 0.12500000E+03</pdfrwt>
<pdfrwt beam="2">  1       21 0.63288528E-02 0.12500000E+03</pdfrwt>
<totfact> 0.72552023E+06</totfact>
</mgrwt>
</event>
<event>
 3    1  0.1592492E-001  0.1250000E+03  0.7546771E-02  0.1235069E+00
         21   -1    0    0  502  501  0.00000000000E+00  0.00000000000E+00  0.25717063693E+03  0.25717063693E+03  0.00000000000E+00 0. -1.
         21   -1    0    0  501  502 -0.00000000000E+00 -0.00000000000E+00 -0.15189331281E+02  0.15189331281E+02  0.00000000000E+00 0. -1.
         25    1    1    2    0    0  0.00000000000E+00  0.00000000000E+00  0.24198130565E+03  0.27235996821E+03  0.12500000000E+03 0.  0.
<mgrwt>
<rscale>  0 0.12500000E+03</rscale>
<asrwt>0</asrwt>
<pdfrwt beam="1">  1       21 0.39564710E-01 0.12500000E+03</pdfrwt>
<pdfrwt beam="2">  1       21 0.23368204E-02 0.12500000E+03</pdfrwt>
<totfact> 0.57834339E+06</totfact>
</mgrwt>
</event>
<event>
 3    1  0.1592492E-001  0.1250000E+03  0.7546771E-02  0.1235069E+00
         21   -1    0    0  502  501  0.00000000000E+00  0.00000000000E+00  0.93607956991E+02  0.93607956991E+02  0.00000000000E+00 0.  1.
         21   -1    0    0  501  502 -0.00000000000E+00 -0.00000000000E+00 -0.41729892688E+02  0.41729892688E+02  0.00000000000E+00 0.  1.
         25    1    1    2    0    0  0.00000000000E+00  0.00000000000E+00  0.51878064303E+02  0.13533784968E+03  0.12500000000E+03 0.  0.
<mgrwt>
<rscale>  0 0.12500000E+03</rscale>
<asrwt>0</asrwt>
<pdfrwt beam="1">  1       21 0.14401224E-01 0.12500000E+03</pdfrwt>
<pdfrwt beam="2">  1       21 0.64199835E-02 0.12500000E+03</pdfrwt>
<totfact> 0.72651769E+06</totfact>
</mgrwt>
</event>
<event>
 3    1  0.1592492E-001  0.1250000E+03  0.7546771E-02  0.1235069E+00
         21   -1    0    0  502  501  0.00000000000E+00  0.00000000000E+00  0.33080508601E+01  0.33080508601E+01  0.00000000000E+00 0.  1.
         21   -1    0    0  501  502 -0.00000000000E+00 -0.00000000000E+00 -0.11808313007E+04  0.11808313007E+04  0.00000000000E+00 0.  1.
         25    1    1    2    0    0  0.00000000000E+00  0.00000000000E+00 -0.11775232499E+04  0.11841393516E+04  0.12500000000E+03 0.  0.
<mgrwt>
<rscale>  0 0.12500000E+03</rscale>
<asrwt>0</asrwt>
<pdfrwt beam="1">  1       21 0.50893080E-03 0.12500000E+03</pdfrwt>
<pdfrwt beam="2">  1       21 0.18166639E+00 0.12500000E+03</pdfrwt>
<totfact> 0.19462338E+06</totfact>
</mgrwt>
</event>
<event>
 3    1  0.1592492E-001  0.1250000E+03  0.7546771E-02  0.1235069E+00
         21   -1    0    0  502  501  0.00000000000E+00  0.00000000000E+00  0.30232280504E+03  0.30232280504E+03  0.00000000000E+00 0. -1.
         21   -1    0    0  501  502 -0.00000000000E+00 -0.00000000000E+00 -0.12920791733E+02  0.12920791733E+02  0.00000000000E+00 0. -1.
         25    1    1    2    0    0  0.00000000000E+00  0.00000000000E+00  0.28940201331E+03  0.31524359678E+03  0.12500000000E+03 0.  0.
<mgrwt>
<rscale>  0 0.12500000E+03</rscale>
<asrwt>0</asrwt>
<pdfrwt beam="1">  1       21 0.46511195E-01 0.12500000E+03</pdfrwt>
<pdfrwt beam="2">  1       21 0.19878143E-02 0.12500000E+03</pdfrwt>
<totfact> 0.54212431E+06</totfact>
</mgrwt>
</event>
<event>
 3    1  0.1592492E-001  0.1250000E+03  0.7546771E-02  0.1235069E+00
         21   -1    0    0  502  501  0.00000000000E+00  0.00000000000E+00  0.34890965720E+01  0.34890965720E+01  0.00000000000E+00 0. -1.
         21   -1    0    0  501  502 -0.00000000000E+00 -0.00000000000E+00 -0.11195591522E+04  0.11195591522E+04  0.00000000000E+00 0. -1.
         25    1    1    2    0    0  0.00000000000E+00  0.00000000000E+00 -0.11160700556E+04  0.11230482487E+04  0.12500000000E+03 0.  0.
<mgrwt>
<rscale>  0 0.12500000E+03</rscale>
<asrwt>0</asrwt>
<pdfrwt beam="1">  1       21 0.53678374E-03 0.12500000E+03</pdfrwt>
<pdfrwt beam="2">  1       21 0.17223998E+00 0.12500000E+03</pdfrwt>
<totfact> 0.20745963E+06</totfact>
</mgrwt>
</event>
<event>
 3    1  0.1592492E-001  0.1250000E+03  0.7546771E-02  0.1235069E+00
         21   -1    0    0  502  501  0.00000000000E+00  0.00000000000E+00  0.53725666014E+02  0.53725666014E+02  0.00000000000E+00 0.  1.
         21   -1    0    0  501  502 -0.00000000000E+00 -0.00000000000E+00 -0.72707335056E+02  0.72707335056E+02  0.00000000000E+00 0.  1.
         25    1    1    2    0    0  0.00000000000E+00  0.00000000000E+00 -0.18981669042E+02  0.12643300107E+03  0.12500000000E+03 0.  0.
<mgrwt>
<rscale>  0 0.12500000E+03</rscale>
<asrwt>0</asrwt>
<pdfrwt beam="1">  1       21 0.82654871E-02 0.12500000E+03</pdfrwt>
<pdfrwt beam="2">  1       21 0.11185744E-01 0.12500000E+03</pdfrwt>
<totfact> 0.73846546E+06</totfact>
</mgrwt>
</event>
<event>
 3    1  0.1592492E-001  0.1250000E+03  0.7546771E-02  0.1235069E+00
         21   -1    0    0  502  501  0.00000000000E+00  0.00000000000E+00  0.38757154741E+03  0.38757154741E+03  0.00000000000E+00 0.  1.
         21   -1    0    0  501  502 -0.00000000000E+00 -0.00000000000E+00 -0.10078784230E+02  0.10078784230E+02  0.00000000000E+00 0.  1.
         25    1    1    2    0    0  0.00000000000E+00  0.00000000000E+00  0.37749276318E+03  0.39765033164E+03  0.12500000000E+03 0.  0.
<mgrwt>
<rscale>  0 0.12500000E+03</rscale>
<asrwt>0</asrwt>
<pdfrwt beam="1">  1       21 0.59626380E-01 0.12500000E+03</pdfrwt>
<pdfrwt beam="2">  1       21 0.15505825E-02 0.12500000E+03</pdfrwt>
<totfact> 0.48197598E+06</totfact>
</mgrwt>
</event>
<event>
 3    1  0.1592492E-001  0.1250000E+03  0.7546771E-02  0.1235069E+00
         21   -1    0    0  502  501  0.00000000000E+00  0.00000000000E+00  0.29816221410E+02  0.29816221410E+02  0.00000000000E+00 0. -1.
         21   -1    0    0  501  502 -0.00000000000E+00 -0.00000000000E+00 -0.13101089995E+03  0.13101089995E+03  0.00000000000E+00 0. -1.
         25    1    1    2    0    0  0.00000000000E+00  0.00000000000E+00 -0.10119467854E+03  0.16082712136E+03  0.12500000000E+03 0.  0.
<mgrwt>
<rscale>  0 0.12500000E+03</rscale>
<asrwt>0</asrwt>
<pdfrwt beam="1">  1       21 0.45871110E-02 0.12500000E+03</pdfrwt>
<pdfrwt beam="2">  1       21 0.20155523E-01 0.12500000E+03</pdfrwt>
<totfact> 0.69418571E+06</totfact>
</mgrwt>
</event>
<event>
 3    1  0.1592492E-001  0.1250000E+03  0.7546771E-02  0.1235069E+00
         21   -1    0    0  502  501  0.00000000000E+00  0.00000000000E+00  0.73082161608E+03  0.73082161608E+03  0.00000000000E+00 0. -1.
         21   -1    0    0  501  502 -0.00000000000E+00 -0.00000000000E+00 -0.53450115789E+01  0.53450115789E+01  0.00000000000E+00 0. -1.
         25    1    1    2    0    0  0.00000000000E+00  0.00000000000E+00  0.72547660450E+03  0.73616662765E+03  0.12500000000E+03 0.  0.
<mgrwt>
<rscale>  0 0.12500000E+03</rscale>
<asrwt>0</asrwt>
<pdfrwt beam="1">  1       21 0.11243402E+00 0.12500000E+03</pdfrwt>
<pdfrwt beam="2">  1       21 0.82231005E-03 0.12500000E+03</pdfrwt>
<totfact> 0.31561507E+06</totfact>
</mgrwt>
</event>
<event>
 3    1  0.1592492E-001  0.1250000E+03  0.7546771E-02  0.1235069E+00
         21   -1    0    0  502  501  0.00000000000E+00  0.00000000000E+00  0.21093156668E+03  0.21093156668E+03  0.00000000000E+00 0.  1.
         21   -1    0    0  501  502 -0.00000000000E+00 -0.00000000000E+00 -0.18519039428E+02  0.18519039428E+02  0.00000000000E+00 0.  1.
         25    1    1    2    0    0  0.00000000000E+00  0.00000000000E+00  0.19241252725E+03  0.22945060611E+03  0.12500000000E+03 0.  0.
<mgrwt>
<rscale>  0 0.12500000E+03</rscale>
<asrwt>0</asrwt>
<pdfrwt beam="1">  1       21 0.32451009E-01 0.12500000E+03</pdfrwt>
<pdfrwt beam="2">  1       21 0.28490831E-02 0.12500000E+03</pdfrwt>
<totfact> 0.61868697E+06</totfact>
</mgrwt>
</event>
<event>
 3    1  0.1592492E-001  0.1250000E+03  0.7546771E-02  0.1235069E+00
         21   -1    0    0  502  501  0.00000000000E+00  0.00000000000E+00  0.46830220423E+02  0.46830220423E+02  0.00000000000E+00 0. -1.
         21   -1    0    0  501  502 -0.00000000000E+00 -0.00000000000E+00 -0.83413017592E+02  0.83413017592E+02  0.00000000000E+00 0. -1.
         25    1    1    2    0    0  0.00000000000E+00  0.00000000000E+00 -0.36582797169E+02  0.13024323802E+03  0.12500000000E+03 0.  0.
<mgrwt>
<rscale>  0 0.12500000E+03</rscale>
<asrwt>0</asrwt>
<pdfrwt beam="1">  1       21 0.72046493E-02 0.12500000E+03</pdfrwt>
<pdfrwt beam="2">  1       21 0.12832772E-01 0.12500000E+03</pdfrwt>
<totfact> 0.73332424E+06</totfact>
</mgrwt>
</event>
<event>
 3    1  0.1592492E-001  0.1250000E+03  0.7546771E-02  0.1235069E+00
         21   -1    0    0  502  501  0.00000000000E+00  0.00000000000E+00  0.39782340800E+02  0.39782340800E+02  0.00000000000E+00 0.  1.
         21   -1    0    0  501  502 -0.00000000000E+00 -0.00000000000E+00 -0.98190551924E+02  0.98190551924E+02  0.00000000000E+00 0.  1.
         25    1    1    2    0    0  0.00000000000E+00  0.00000000000E+00 -0.58408211123E+02  0.13797289272E+03  0.12500000000E+03 0.  0.
<mgrwt>
<rscale>  0 0.12500000E+03</rscale>
<asrwt>0</asrwt>
<pdfrwt beam="1">  1       21 0.61203601E-02 0.12500000E+03</pdfrwt>
<pdfrwt beam="2">  1       21 0.15106239E-01 0.12500000E+03</pdfrwt>
<totfact> 0.72305060E+06</totfact>
</mgrwt>
</event>
<event>
 3    1  0.1592492E-001  0.1250000E+03  0.7546771E-02  0.1235069E+00
         21   -1    0    0  502  501  0.00000000000E+00  0.00000000000E+00  0.28870485954E+01  0.28870485954E+01  0.00000000000E+00 0.  1.
         21   -1    0    0  501  502 -0.00000000000E+00 -0.00000000000E+00 -0.13530253721E+04  0.13530253721E+04  0.00000000000E+00 0.  1.
         25    1    1    2    0    0  0.00000000000E+00  0.00000000000E+00 -0.13501383235E+04  0.13559124207E+04  0.12500000000E+03 0.  0.
<mgrwt>
<rscale>  0 0.12500000E+03</rscale>
<asrwt>0</asrwt>
<pdfrwt beam="1">  1       21 0.44416195E-03 0.12500000E+03</pdfrwt>
<pdfrwt beam="2">  1       21 0.20815745E+00 0.12500000E+03</pdfrwt>
<totfact> 0.16277376E+06</totfact>
</mgrwt>
</event>
<event>
 3    1  0.1592492E-001  0.1250000E+03  0.7546771E-02  0.1235069E+00
         21   -1    0    0  502  501  0.00000000000E+00  0.00000000000E+00  0.87051700260E+02  0.87051700260E+02  0.00000000000E+00 0.  1.
         21   -1    0    0  501  502 -0.00000000000E+00 -0.00000000000E+00 -0.44872759387E+02  0.44872759387E+02  0.00000000000E+00 0.  1.
         25    1    1    2    0    0  0.00000000000E+00  0.00000000000E+00  0.42178940873E+02  0.13192445965E+03  0.12500000000E+03 0.  0.
<mgrwt>
<rscale>  0 0.12500000E+03</rscale>
<asrwt>0</asrwt>
<pdfrwt beam="1">  1       21 0.13392569E-01 0.12500000E+03</pdfrwt>
<pdfrwt beam="2">  1       21 0.69035015E-02 0.12500000E+03</pdfrwt>
<totfact> 0.73106363E+06</totfact>
</mgrwt>
</event>
<event>
 3    1  0.1592492E-001  0.1250000E+03  0.7546771E-02  0.1235069E+00
         21   -1    0    0  502  501  0.00000000000E+00  0.00000000000E+00  0.22885229263E+03  0.22885229263E+03  0.00000000000E+00 0. -1.
         21   -1    0    0  501  502 -0.00000000000E+00 -0.00000000000E+00 -0.17068869860E+02  0.17068869860E+02  0.00000000000E+00 0. -1.
         25    1    1    2    0    0  0.00000000000E+00  0.00000000000E+00  0.21178342277E+03  0.24592116249E+03  0.12500000000E+03 0.  0.
<mgrwt>
<rscale>  0 0.12500000E+03</rscale>
<asrwt>0</asrwt>
<pdfrwt beam="1">  1       21 0.35208043E-01 0.12500000E+03</pdfrwt>
<pdfrwt beam="2">  1       21 0.26259801E-02 0.12500000E+03</pdfrwt>
<totfact> 0.60264346E+06</totfact>
</mgrwt>
</event>
<event>
 3    1  0.1592492E-001  0.1250000E+03  0.7546771E-02  0.1235069E+00
         21   -1    0    0  502  501  0.00000000000E+00  0.00000000000E+00  0.15661306779E+03  0.15661306779E+03  0.00000000000E+00 0.  1.
         21   -1    0    0  501  502 -0.00000000000E+00 -0.00000000000E+00 -0.24942043823E+02  0.24942043823E+02  0.00000000000E+00 0.  1.
         25    1    1    2    0    0  0.00000000000E+00  0.00000000000E+00  0.13167102397E+03  0.18155511161E+03  0.12500000000E+03 0.  0.
<mgrwt>
<rscale>  0 0.12500000E+03</rscale>
<asrwt>0</asrwt>
<pdfrwt beam="1">  1       21 0.24094318E-01 0.12500000E+03</pdfrwt>
<pdfrwt beam="2">  1       21 0.38372376E-02 0.12500000E+03</pdfrwt>
<totfact> 0.66973586E+06</totfact>
</mgrwt>
</event>
<event>
 3    1  0.1592492E-001  0.1250000E+03  0.7546771E-02  0.1235069E+00
         21   -1    0    0  502  501  0.00000000000E+00  0.00000000000E+00  0.16891573554E+02  0.16891573554E+02  0.00000000000E+00 0.  1.
         21   -1    0    0  501  502 -0.00000000000E+00 -0.00000000000E+00 -0.23125435812E+03  0.23125435812E+03  0.00000000000E+00 0.  1.
         25    1    1    2    0    0  0.00000000000E+00  0.00000000000E+00 -0.21436278457E+03  0.24814593168E+03  0.12500000000E+03 0.  0.
<mgrwt>
<rscale>  0 0.12500000E+03</rscale>
<asrwt>0</asrwt>
<pdfrwt beam="1">  1       21 0.25987035E-02 0.12500000E+03</pdfrwt>
<pdfrwt beam="2">  1       21 0.35577595E-01 0.12500000E+03</pdfrwt>
<totfact> 0.60053186E+06</totfact>
</mgrwt>
</event>
<event>
 3    1  0.1592492E-001  0.1250000E+03  0.7546771E-02  0.1235069E+00
         21   -1    0    0  502  501  0.00000000000E+00  0.00000000000E+00  0.13724777699E+02  0.13724777699E+02  0.00000000000E+00 0. -1.
         21   -1    0    0  501  502 -0.00000000000E+00 -0.00000000000E+00 -0.28461298869E+03  0.28461298869E+03  0.00000000000E+00 0. -1.
         25    1    1    2    0    0  0.00000000000E+00  0.00000000000E+00 -0.27088821099E+03  0.29833776639E+03  0.12500000000E+03 0.  0.
<mgrwt>
<rscale>  0 0.12500000E+03</rscale>
<asrwt>0</asrwt>
<pdfrwt beam="1">  1       21 0.21115044E-02 0.12500000E+03</pdfrwt>
<pdfrwt beam="2">  1       21 0.43786610E-01 0.12500000E+03</pdfrwt>
<totfact> 0.55594596E+06</totfact>
</mgrwt>
</event>
<event>
 3    1  0.1592492E-001  0.1250000E+03  0.7546771E-02  0.1235069E+00
         21   -1    0    0  502  501  0.00000000000E+00  0.00000000000E+00  0.10270698047E+03  0.10270698047E+03  0.00000000000E+00 0. -1.
         21   -1    0    0  501  502 -0.00000000000E+00 -0.00000000000E+00 -0.38032955329E+02  0.38032955329E+02  0.00000000000E+00 0. -1.
         25    1    1    2    0    0  0.00000000000E+00  0.00000000000E+00  0.64674025138E+02  0.14073993579E+03  0.12500000000E+03 0.  0.
<mgrwt>
<rscale>  0 0.12500000E+03</rscale>
<asrwt>0</asrwt>
<pdfrwt beam="1">  1       21 0.15801074E-01 0.12500000E+03</pdfrwt>
<pdfrwt beam="2">  1       21 0.58512239E-02 0.12500000E+03</pdfrwt>
<totfact> 0.71942858E+06</totfact>
</mgrwt>
</event>
<event>
 3    1  0.1592492E-001  0.1250000E+03  0.7546771E-02  0.1235069E+00
         21   -1    0    0  502  501  0.00000000000E+00  0.00000000000E+00  0.14675305851E+04  0.14675305851E+04  0.00000000000E+00 0.  1.
         21   -1    0    0  501  502 -0.00000000000E+00 -0.00000000000E+00 -0.26617843878E+01  0.26617843878E+01  0.00000000000E+00 0.  1.
         25    1    1    2    0    0  0.00000000000E+00  0.00000000000E+00  0.14648688007E+04  0.14701923695E+04  0.12500000000E+03 0.  0.
<mgrwt>
<rscale>  0 0.12500000E+03</rscale>
<asrwt>0</asrwt>
<pdfrwt beam="1">  1       21 0.22577329E+00 0.12500000E+03</pdfrwt>
<pdfrwt beam="2">  1       21 0.40950646E-03 0.12500000E+03</pdfrwt>
<totfact> 0.14440759E+06</totfact>
</mgrwt>
</event>
<event>
 3    1  0.1592492E-001  0.1250000E+03  0.7546771E-02  0.1235069E+00
         21   -1    0    0  502  501  0.00000000000E+00  0.00000000000E+00  0.12643650416E+03  0.12643650416E+03  0.00000000000E+00 0.  1.
         21   -1    0    0  501  502 -0.00000000000E+00 -0.00000000000E+00 -0.30894954158E+02  0.30894954158E+02  0.00000000000E+00 0.  1.
         25    1    1    2    0    0  0.00000000000E+00  0.00000000000E+00  0.95541550005E+02  0.15733145832E+03  0.12500000000E+03 0.  0.
<mgrwt>
<rscale>  0 0.12500000E+03</rscale>
<asrwt>0</asrwt>
<pdfrwt beam="1">  1       21 0.19451770E-01 0.12500000E+03</pdfrwt>
<pdfrwt beam="2">  1       21 0.47530699E-02 0.12500000E+03</pdfrwt>
<totfact> 0.69847042E+06</totfact>
</mgrwt>
</event>
<event>
 3    1  0.1592492E-001  0.1250000E+03  0.7546771E-02  0.1235069E+00
         21   -1    0    0  502  501  0.00000000000E+00  0.00000000000E+00  0.38909448470E+03  0.38909448470E+03  0.00000000000E+00 0. -1.
         21   -1    0    0  501  502 -0.00000000000E+00 -0.00000000000E+00 -0.10039335312E+02  0.10039335312E+02  0.00000000000E+00 0. -1.
         25    1    1    2    0    0  0.00000000000E+00  0.00000000000E+00  0.37905514939E+03  0.39913382001E+03  0.12500000000E+03 0.  0.
<mgrwt>
<rscale>  0 0.12500000E+03</rscale>
<asrwt>0</asrwt>
<pdfrwt beam="1">  1       21 0.59860678E-01 0.12500000E+03</pdfrwt>
<pdfrwt beam="2">  1       21 0.15445134E-02 0.12500000E+03</pdfrwt>
<totfact> 0.48098861E+06</totfact>
</mgrwt>
</event>
<event>
 3    1  0.1592492E-001  0.1250000E+03  0.7546771E-02  0.1235069E+00
         21   -1    0    0  502  501  0.00000000000E+00  0.00000000000E+00  0.13998543044E+03  0.13998543044E+03  0.00000000000E+00 0.  1.
         21   -1    0    0  501  502 -0.00000000000E+00 -0.00000000000E+00 -0.27904689707E+02  0.27904689707E+02  0.00000000000E+00 0.  1.
         25    1    1    2    0    0  0.00000000000E+00  0.00000000000E+00  0.11208074074E+03  0.16789012015E+03  0.12500000000E+03 0.  0.
<mgrwt>
<rscale>  0 0.12500000E+03</rscale>
<asrwt>0</asrwt>
<pdfrwt beam="1">  1       21 0.21536220E-01 0.12500000E+03</pdfrwt>
<pdfrwt beam="2">  1       21 0.42930293E-02 0.12500000E+03</pdfrwt>
<totfact> 0.68568030E+06</totfact>
</mgrwt>
</event>
<event>
 3    1  0.1592492E-001  0.1250000E+03  0.7546771E-02  0.1235069E+00
         21   -1    0    0  502  501  0.00000000000E+00  0.00000000000E+00  0.95692231945E+02  0.95692231945E+02  0.00000000000E+00 0. -1.
         21   -1    0    0  501  502 -0.00000000000E+00 -0.00000000000E+00 -0.40820972827E+02  0.40820972827E+02  0.00000000000E+00 0. -1.
         25    1    1    2    0    0  0.00000000000E+00  0.00000000000E+00  0.54871259118E+02  0.13651320477E+03  0.12500000000E+03 0.  0.
<mgrwt>
<rscale>  0 0.12500000E+03</rscale>
<asrwt>0</asrwt>
<pdfrwt beam="1">  1       21 0.14721882E-01 0.12500000E+03</pdfrwt>
<pdfrwt beam="2">  1       21 0.62801497E-02 0.12500000E+03</pdfrwt>
<totfact> 0.72496728E+06</totfact>
</mgrwt>
</event>
<event>
 3    1  0.1592492E-001  0.1250000E+03  0.7546771E-02  0.1235069E+00
         21   -1    0    0  502  501  0.00000000000E+00  0.00000000000E+00  0.46550826219E+02  0.46550826219E+02  0.00000000000E+00 0.  1.
         21   -1    0    0  501  502 -0.00000000000E+00 -0.00000000000E+00 -0.83913655617E+02  0.83913655617E+02  0.00000000000E+00 0.  1.
         25    1    1    2    0    0  0.00000000000E+00  0.00000000000E+00 -0.37362829399E+02  0.13046448184E+03  0.12500000000E+03 0.  0.
<mgrwt>
<rscale>  0 0.12500000E+03</rscale>
<asrwt>0</asrwt>
<pdfrwt beam="1">  1       21 0.71616656E-02 0.12500000E+03</pdfrwt>
<pdfrwt beam="2">  1       21 0.12909793E-01 0.12500000E+03</pdfrwt>
<totfact> 0.73302901E+06</totfact>
</mgrwt>
</event>
<event>
 3    1  0.1592492E-001  0.1250000E+03  0.7546771E-02  0.1235069E+00
         21   -1    0    0  502  501  0.00000000000E+00  0.00000000000E+00  0.11614137357E+03  0.11614137357E+03  0.00000000000E+00 0. -1.
         21   -1    0    0  501  502 -0.00000000000E+00 -0.00000000000E+00 -0.33633578456E+02  0.33633578456E+02  0.00000000000E+00 0. -1.
         25    1    1    2    0    0  0.00000000000E+00  0.00000000000E+00  0.82507795115E+02  0.14977495203E+03  0.12500000000E+03 0.  0.
<mgrwt>
<rscale>  0 0.12500000E+03</rscale>
<asrwt>0</asrwt>
<pdfrwt beam="1">  1       21 0.17867903E-01 0.12500000E+03</pdfrwt>
<pdfrwt beam="2">  1       21 0.51743967E-02 0.12500000E+03</pdfrwt>
<totfact> 0.70787482E+06</totfact>
</mgrwt>
</event>
<event>
 3    1  0.1592492E-001  0.1250000E+03  0.7546771E-02  0.1235069E+00
         21   -1    0    0  502  501  0.00000000000E+00  0.00000000000E+00  0.11960835882E+04  0.11960835882E+04  0.00000000000E+00 0. -1.
         21   -1    0    0  501  502 -0.00000000000E+00 -0.00000000000E+00 -0.32658670670E+01  0.32658670670E+01  0.00000000000E+00 0. -1.
         25    1    1    2    0    0  0.00000000000E+00  0.00000000000E+00  0.11928177211E+04  0.11993494552E+04  0.12500000000E+03 0.  0.
<mgrwt>
<rscale>  0 0.12500000E+03</rscale>
<asrwt>0</asrwt>
<pdfrwt beam="1">  1       21 0.18401251E+00 0.12500000E+03</pdfrwt>
<pdfrwt beam="2">  1       21 0.50244204E-03 0.12500000E+03</pdfrwt>
<totfact> 0.19156378E+06</totfact>
</mgrwt>
</event>
<event>
 3    1  0.1592492E-001  0.1250000E+03  0.7546771E-02  0.1235069E+00
         21   -1    0    0  502  501  0.00000000000E+00  0.00000000000E+00  0.48865201287E+01  0.48865201287E+01  0.00000000000E+00 0.  1.
         21   -1    0    0  501  502 -0.00000000000E+00 -0.00000000000E+00 -0.79939300302E+03  0.79939300302E+03  0.00000000000E+00 0.  1.
         25    1    1    2    0    0  0.00000000000E+00  0.00000000000E+00 -0.79450648289E+03  0.80427952315E+03  0.12500000000E+03 0.  0.
<mgrwt>
<rscale>  0 0.12500000E+03</rscale>
<asrwt>0</asrwt>
<pdfrwt beam="1">  1       21 0.75177285E-03 0.12500000E+03</pdfrwt>
<pdfrwt beam="2">  1       21 0.12298345E+00 0.12500000E+03</pdfrwt>
<totfact> 0.29221530E+06</totfact>
</mgrwt>
</event>
<event>
 3    1  0.1592492E-001  0.1250000E+03  0.7546771E-02  0.1235069E+00
         21   -1    0    0  502  501  0.00000000000E+00  0.00000000000E+00  0.19694928515E+02  0.19694928515E+02  0.00000000000E+00 0.  1.
         21   -1    0    0  501  502 -0.00000000000E+00 -0.00000000000E+00 -0.19833786130E+03  0.19833786130E+03  0.00000000000E+00 0.  1.
         25    1    1    2    0    0  0.00000000000E+00  0.00000000000E+00 -0.17864293278E+03  0.21803278981E+03  0.12500000000E+03 0.  0.
<mgrwt>
<rscale>  0 0.12500000E+03</rscale>
<asrwt>0</asrwt>
<pdfrwt beam="1">  1       21 0.30299891E-02 0.12500000E+03</pdfrwt>
<pdfrwt beam="2">  1       21 0.30513516E-01 0.12500000E+03</pdfrwt>
<totfact> 0.63024178E+06</totfact>
</mgrwt>
</event>
<event>
 3    1  0.1592492E-001  0.1250000E+03  0.7546771E-02  0.1235069E+00
         21   -1    0    0  502  501  0.00000000000E+00  0.00000000000E+00  0.27070988880E+03  0.27070988880E+03  0.00000000000E+00 0.  1.
         21   -1    0    0  501  502 -0.00000000000E+00 -0.00000000000E+00 -0.14429653890E+02  0.14429653890E+02  0.00000000000E+00 0.  1.
         25    1    1    2    0    0  0.00000000000E+00  0.00000000000E+00  0.25628023491E+03  0.28513954269E+03  0.12500000000E+03 0.  0.
<mgrwt>
<rscale>  0 0.12500000E+03</rscale>
<asrwt>0</asrwt>
<pdfrwt beam="1">  1       21 0.41647671E-01 0.12500000E+03</pdfrwt>
<pdfrwt beam="2">  1       21 0.22199470E-02 0.12500000E+03</pdfrwt>
<totfact> 0.56714200E+06</totfact>
</mgrwt>
</event>
<event>
 3    1  0.1592492E-001  0.1250000E+03  0.7546771E-02  0.1235069E+00
         21   -1    0    0  502  501  0.00000000000E+00  0.00000000000E+00  0.17318881729E+02  0.17318881729E+02  0.00000000000E+00 0. -1.
         21   -1    0    0  501  502 -0.00000000000E+00 -0.00000000000E+00 -0.22554862728E+03  0.22554862728E+03  0.00000000000E+00 0. -1.
         25    1    1    2    0    0  0.00000000000E+00  0.00000000000E+00 -0.20822974555E+03  0.24286750901E+03  0.12500000000E+03 0.  0.
<mgrwt>
<rscale>  0 0.12500000E+03</rscale>
<asrwt>0</asrwt>
<pdfrwt beam="1">  1       21 0.26644433E-02 0.12500000E+03</pdfrwt>
<pdfrwt beam="2">  1       21 0.34699789E-01 0.12500000E+03</pdfrwt>
<totfact> 0.60556278E+06</totfact>
</mgrwt>
</event>
<event>
 3    1  0.1592492E-001  0.1250000E+03  0.7546771E-02  0.1235069E+00
         21   -1    0    0  502  501  0.00000000000E+00  0.00000000000E+00  0.62084655443E+03  0.62084655443E+03  0.00000000000E+00 0. -1.
         21   -1    0    0  501  502 -0.00000000000E+00 -0.00000000000E+00 -0.62918123200E+01  0.62918123200E+01  0.00000000000E+00 0. -1.
         25    1    1    2    0    0  0.00000000000E+00  0.00000000000E+00  0.61455474211E+03  0.62713836675E+03  0.12500000000E+03 0.  0.
<mgrwt>
<rscale>  0 0.12500000E+03</rscale>
<asrwt>0</asrwt>
<pdfrwt beam="1">  1       21 0.95514806E-01 0.12500000E+03</pdfrwt>
<pdfrwt beam="2">  1       21 0.96797161E-03 0.12500000E+03</pdfrwt>
<totfact> 0.35893411E+06</totfact>
</mgrwt>
</event>
<event>
 3    1  0.1592492E-001  0.1250000E+03  0.7546771E-02  0.1235069E+00
         21   -1    0    0  502  501  0.00000000000E+00  0.00000000000E+00  0.90947287090E+03  0.90947287090E+03  0.00000000000E+00 0. -1.
         21   -1    0    0  501  502 -0.00000000000E+00 -0.00000000000E+00 -0.42950703918E+01  0.42950703918E+01  0.00000000000E+00 0. -1.
         25    1    1    2    0    0  0.00000000000E+00  0.00000000000E+00  0.90517780051E+03  0.91376794130E+03  0.12500000000E+03 0.  0.
<mgrwt>
<rscale>  0 0.12500000E+03</rscale>
<asrwt>0</asrwt>
<pdfrwt beam="1">  1       21 0.13991875E+00 0.12500000E+03</pdfrwt>
<pdfrwt beam="2">  1       21 0.66078078E-03 0.12500000E+03</pdfrwt>
<totfact> 0.25907128E+06</totfact>
</mgrwt>
</event>
<event>
 3    1  0.1592492E-001  0.1250000E+03  0.7546771E-02  0.1235069E+00
         21   -1    0    0  502  501  0.00000000000E+00  0.00000000000E+00  0.35642187972E+03  0.35642187972E+03  0.00000000000E+00 0.  1.
         21   -1    0    0  501  502 -0.00000000000E+00 -0.00000000000E+00 -0.10959624597E+02  0.10959624597E+02  0.00000000000E+00 0.  1.
         25    1    1    2    0    0  0.00000000000E+00  0.00000000000E+00  0.34546225512E+03  0.36738150432E+03  0.12500000000E+03 0.  0.
<mgrwt>
<rscale>  0 0.12500000E+03</rscale>
<asrwt>0</asrwt>
<pdfrwt beam="1">  1       21 0.54834127E-01 0.12500000E+03</pdfrwt>
<pdfrwt beam="2">  1       21 0.16860964E-02 0.12500000E+03</pdfrwt>
<totfact> 0.50279826E+06</totfact>
</mgrwt>
</event>
<event>
 3    1  0.1592492E-001  0.1250000E+03  0.7546771E-02  0.1235069E+00
         21   -1    0    0  502  501  0.00000000000E+00  0.00000000000E+00  0.71625826279E+02  0.71625826279E+02  0.00000000000E+00 0.  1.
         21   -1    0    0  501  502 -0.00000000000E+00 -0.00000000000E+00 -0.54536892667E+02  0.54536892667E+02  0.00000000000E+00 0.  1.
         25    1    1    2    0    0  0.00000000000E+00  0.00000000000E+00  0.17088933612E+02  0.12616271895E+03  0.12500000000E+03 0.  0.
<mgrwt>
<rscale>  0 0.12500000E+03</rscale>
<asrwt>0</asrwt>
<pdfrwt beam="1">  1       21 0.11019358E-01 0.12500000E+03</pdfrwt>
<pdfrwt beam="2">  1       21 0.83902912E-02 0.12500000E+03</pdfrwt>
<totfact> 0.73883634E+06</totfact>
</mgrwt>
</event>
<event>
 3    1  0.1592492E-001  0.1250000E+03  0.7546771E-02  0.1235069E+00
         21   -1    0    0  502  501  0.00000000000E+00  0.00000000000E+00  0.78821943929E+02  0.78821943929E+02  0.00000000000E+00 0.  1.
         21   -1    0    0  501  502 -0.00000000000E+00 -0.00000000000E+00 -0.49557899809E+02  0.49557899809E+02  0.00000000000E+00 0.  1.
         25    1    1    2    0    0  0.00000000000E+00  0.00000000000E+00  0.29264044120E+02  0.12837984374E+03  0.12500000000E+03 0.  0.
<mgrwt>
<rscale>  0 0.12500000E+03</rscale>
<asrwt>0</asrwt>
<pdfrwt beam="1">  1       21 0.12126453E-01 0.12500000E+03</pdfrwt>
<pdfrwt beam="2">  1       21 0.76242923E-02 0.12500000E+03</pdfrwt>
<totfact> 0.73582309E+06</totfact>
</mgrwt>
</event>
<event>
 3    1  0.1592492E-001  0.1250000E+03  0.7546771E-02  0.1235069E+00
         21   -1    0    0  502  501  0.00000000000E+00  0.00000000000E+00  0.24398343953E+02  0.24398343953E+02  0.00000000000E+00 0.  1.
         21   -1    0    0  501  502 -0.00000000000E+00 -0.00000000000E+00 -0.16010307944E+03  0.16010307944E+03  0.00000000000E+00 0.  1.
         25    1    1    2    0    0  0.00000000000E+00  0.00000000000E+00 -0.13570473549E+03  0.18450142339E+03  0.12500000000E+03 0.  0.
<mgrwt>
<rscale>  0 0.12500000E+03</rscale>
<asrwt>0</asrwt>
<pdfrwt beam="1">  1       21 0.37535914E-02 0.12500000E+03</pdfrwt>
<pdfrwt beam="2">  1       21 0.24631243E-01 0.12500000E+03</pdfrwt>
<totfact> 0.66638862E+06</totfact>
</mgrwt>
</event>
<event>
 3    1  0.1592492E-001  0.1250000E+03  0.7546771E-02  0.1235069E+00
         21   -1    0    0  502  501  0.00000000000E+00  0.00000000000E+00  0.28989188590E+03  0.28989188590E+03  0.00000000000E+00 0.  1.
         21   -1    0    0  501  502 -0.00000000000E+00 -0.00000000000E+00 -0.13474851108E+02  0.13474851108E+02  0.00000000000E+00 0.  1.
         25    1    1    2    0    0  0.00000000000E+00  0.00000000000E+00  0.27641703479E+03  0.30336673701E+03  0.12500000000E+03 0.  0.
<mgrwt>
<rscale>  0 0.12500000E+03</rscale>
<asrwt>0</asrwt>
<pdfrwt beam="1">  1       21 0.44598747E-01 0.12500000E+03</pdfrwt>
<pdfrwt beam="2">  1       21 0.20730542E-02 0.12500000E+03</pdfrwt>
<totfact> 0.55177542E+06</totfact>
</mgrwt>
</event>
<event>
 3    1  0.1592492E-001  0.1250000E+03  0.7546771E-02  0.1235069E+00
         21   -1    0    0  502  501  0.00000000000E+00  0.00000000000E+00  0.22045985874E+01  0.22045985874E+01  0.00000000000E+00 0.  1.
         21   -1    0    0  501  502 -0.00000000000E+00 -0.00000000000E+00 -0.17718645119E+04  0.17718645119E+04  0.00000000000E+00 0.  1.
         25    1    1    2    0    0  0.00000000000E+00  0.00000000000E+00 -0.17696599133E+04  0.17740691105E+04  0.12500000000E+03 0.  0.
<mgrwt>
<rscale>  0 0.12500000E+03</rscale>
<asrwt>0</asrwt>
<pdfrwt beam="1">  1       21 0.33916968E-03 0.12500000E+03</pdfrwt>
<pdfrwt beam="2">  1       21 0.27259401E+00 0.12500000E+03</pdfrwt>
<totfact> 0.10371618E+06</totfact>
</mgrwt>
</event>
<event>
 3    1  0.1592492E-001  0.1250000E+03  0.7546771E-02  0.1235069E+00
         21   -1    0    0  502  501  0.00000000000E+00  0.00000000000E+00  0.21645356466E+03  0.21645356466E+03  0.00000000000E+00 0.  1.
         21   -1    0    0  501  502 -0.00000000000E+00 -0.00000000000E+00 -0.18046595842E+02  0.18046595842E+02  0.00000000000E+00 0.  1.
         25    1    1    2    0    0  0.00000000000E+00  0.00000000000E+00  0.19840696881E+03  0.23450016050E+03  0.12500000000E+03 0.  0.
<mgrwt>
<rscale>  0 0.12500000E+03</rscale>
<asrwt>0</asrwt>
<pdfrwt beam="1">  1       21 0.33300547E-01 0.12500000E+03</pdfrwt>
<pdfrwt beam="2">  1       21 0.27763995E-02 0.12500000E+03</pdfrwt>
<totfact> 0.61368967E+06</totfact>
</mgrwt>
</event>
<event>
 3    1  0.1592492E-001  0.1250000E+03  0.7546771E-02  0.1235069E+00
         21   -1    0    0  502  501  0.00000000000E+00  0.00000000000E+00  0.48475673898E+02  0.48475673898E+02  0.00000000000E+00 0.  1.
         21   -1    0    0  501  502 -0.00000000000E+00 -0.00000000000E+00 -0.80581654382E+02  0.80581654382E+02  0.00000000000E+00 0.  1.
         25    1    1    2    0    0  0.00000000000E+00  0.00000000000E+00 -0.32105980483E+02  0.12905732828E+03  0.12500000000E+03 0.  0.
<mgrwt>
<rscale>  0 0.12500000E+03</rscale>
<asrwt>0</asrwt>
<pdfrwt beam="1">  1       21 0.74577961E-02 0.12500000E+03</pdfrwt>
<pdfrwt beam="2">  1       21 0.12397177E-01 0.12500000E+03</pdfrwt>
<totfact> 0.73491183E+06</totfact>
</mgrwt>
</event>
<event>
 3    1  0.1592492E-001  0.1250000E+03  0.7546771E-02  0.1235069E+00
         21   -1    0    0  502  501  0.00000000000E+00  0.00000000000E+00  0.24497759672E+02  0.24497759672E+02  0.00000000000E+00 0. -1.
         21   -1    0    0  501  502 -0.00000000000E+00 -0.00000000000E+00 -0.15945335624E+03  0.15945335624E+03  0.00000000000E+00 0. -1.
         25    1    1    2    0    0  0.00000000000E+00  0.00000000000E+00 -0.13495559656E+03  0.18395111591E+03  0.12500000000E+03 0.  0.
<mgrwt>
<rscale>  0 0.12500000E+03</rscale>
<asrwt>0</asrwt>
<pdfrwt beam="1">  1       21 0.37688860E-02 0.12500000E+03</pdfrwt>
<pdfrwt beam="2">  1       21 0.24531286E-01 0.12500000E+03</pdfrwt>
<totfact> 0.66701142E+06</totfact>
</mgrwt>
</event>
<event>
 3    1  0.1592492E-001  0.1250000E+03  0.7546771E-02  0.1235069E+00
         21   -1    0    0  502  501  0.00000000000E+00  0.00000000000E+00  0.39811696217E+02  0.39811696217E+02  0.00000000000E+00 0. -1.
         21   -1    0    0  501  502 -0.00000000000E+00 -0.00000000000E+00 -0.98118150474E+02  0.98118150474E+02  0.00000000000E+00 0. -1.
         25    1    1    2    0    0  0.00000000000E+00  0.00000000000E+00 -0.58306454257E+02  0.13792984669E+03  0.12500000000E+03 0.  0.
<mgrwt>
<rscale>  0 0.12500000E+03</rscale>
<asrwt>0</asrwt>
<pdfrwt beam="1">  1       21 0.61248763E-02 0.12500000E+03</pdfrwt>
<pdfrwt beam="2">  1       21 0.15095100E-01 0.12500000E+03</pdfrwt>
<totfact> 0.72310728E+06</totfact>
</mgrwt>
</event>
<event>
 3    1  0.1592492E-001  0.1250000E+03  0.7546771E-02  0.1235069E+00
         21   -1    0    0  502  501  0.00000000000E+00  0.00000000000E+00  0.95002259492E+01  0.95002259492E+01  0.00000000000E+00 0. -1.
         21   -1    0    0  501  502 -0.00000000000E+00 -0.00000000000E+00 -0.41117443110E+03  0.41117443110E+03  0.00000000000E+00 0. -1.
         25    1    1    2    0    0  0.00000000000E+00  0.00000000000E+00 -0.40167420515E+03  0.42067465705E+03  0.12500000000E+03 0.  0.
<mgrwt>
<rscale>  0 0.12500000E+03</rscale>
<asrwt>0</asrwt>
<pdfrwt beam="1">  1       21 0.14615732E-02 0.12500000E+03</pdfrwt>
<pdfrwt beam="2">  1       21 0.63257605E-01 0.12500000E+03</pdfrwt>
<totfact> 0.46699590E+06</totfact>
</mgrwt>
</event>
<event>
 3    1  0.1592492E-001  0.1250000E+03  0.7546771E-02  0.1235069E+00
         21   -1    0    0  502  501  0.00000000000E+00  0.00000000000E+00  0.58199675835E+02  0.58199675835E+02  0.00000000000E+00 0. -1.
         21   -1    0    0  501  502 -0.00000000000E+00 -0.00000000000E+00 -0.67118071432E+02  0.67118071432E+02  0.00000000000E+00 0. -1.
         25    1    1    2    0    0  0.00000000000E+00  0.00000000000E+00 -0.89183955971E+01  0.12531774727E+03  0.12500000000E+03 0.  0.
<mgrwt>
<rscale>  0 0.12500000E+03</rscale>
<asrwt>0</asrwt>
<pdfrwt beam="1">  1       21 0.89537963E-02 0.12500000E+03</pdfrwt>
<pdfrwt beam="2">  1       21 0.10325857E-01 0.12500000E+03</pdfrwt>
<totfact> 0.74000676E+06</totfact>
</mgrwt>
</event>
<event>
 3    1  0.1592492E-001  0.1250000E+03  0.7546771E-02  0.1235069E+00
         21   -1    0    0  502  501  0.00000000000E+00  0.00000000000E+00  0.54293896699E+03  0.54293896699E+03  0.00000000000E+00 0.  1.
         21   -1    0    0  501  502 -0.00000000000E+00 -0.00000000000E+00 -0.71946392458E+01  0.71946392458E+01  0.00000000000E+00 0.  1.
         25    1    1    2    0    0  0.00000000000E+00  0.00000000000E+00  0.53574432775E+03  0.55013360624E+03  0.12500000000E+03 0.  0.
<mgrwt>
<rscale>  0 0.12500000E+03</rscale>
<asrwt>0</asrwt>
<pdfrwt beam="1">  1       21 0.83529040E-01 0.12500000E+03</pdfrwt>
<pdfrwt beam="2">  1       21 0.11068680E-02 0.12500000E+03</pdfrwt>
<totfact> 0.39449485E+06</totfact>
</mgrwt>
</event>
<event>
 3    1  0.1592492E-001  0.1250000E+03  0.7546771E-02  0.1235069E+00
         21   -1    0    0  502  501  0.00000000000E+00  0.00000000000E+00  0.35386493338E+02  0.35386493338E+02  0.00000000000E+00 0. -1.
         21   -1    0    0  501  502 -0.00000000000E+00 -0.00000000000E+00 -0.11038816315E+03  0.11038816315E+03  0.00000000000E+00 0. -1.
         25    1    1    2    0    0  0.00000000000E+00  0.00000000000E+00 -0.75001669813E+02  0.14577465649E+03  0.12500000000E+03 0.  0.
<mgrwt>
<rscale>  0 0.12500000E+03</rscale>
<asrwt>0</asrwt>
<pdfrwt beam="1">  1       21 0.54440759E-02 0.12500000E+03</pdfrwt>
<pdfrwt beam="2">  1       21 0.16982794E-01 0.12500000E+03</pdfrwt>
<totfact> 0.71294109E+06</totfact>
</mgrwt>
</event>
<event>
 3    1  0.1592492E-001  0.1250000E+03  0.7546771E-02  0.1235069E+00
         21   -1    0    0  502  501  0.00000000000E+00  0.00000000000E+00  0.54680774194E+02  0.54680774194E+02  0.00000000000E+00 0.  1.
         21   -1    0    0  501  502 -0.00000000000E+00 -0.00000000000E+00 -0.71437357235E+02  0.71437357235E+02  0.00000000000E+00 0.  1.
         25    1    1    2    0    0  0.00000000000E+00  0.00000000000E+00 -0.16756583041E+02  0.12611813143E+03  0.12500000000E+03 0.  0.
<mgrwt>
<rscale>  0 0.12500000E+03</rscale>
<asrwt>0</asrwt>
<pdfrwt beam="1">  1       21 0.84124268E-02 0.12500000E+03</pdfrwt>
<pdfrwt beam="2">  1       21 0.10990363E-01 0.12500000E+03</pdfrwt>
<totfact> 0.73889767E+06</totfact>
</mgrwt>
</event>
<event>
 3    1  0.1592492E-001  0.1250000E+03  0.7546771E-02  0.1235069E+00
         21   -1    0    0  502  501  0.00000000000E+00  0.00000000000E+00  0.12946269892E+02  0.12946269892E+02  0.00000000000E+00 0. -1.
         21   -1    0    0  501  502 -0.00000000000E+00 -0.00000000000E+00 -0.30172783610E+03  0.30172783610E+03  0.00000000000E+00 0. -1.
         25    1    1    2    0    0  0.00000000000E+00  0.00000000000E+00 -0.28878156621E+03  0.31467410600E+03  0.12500000000E+03 0.  0.
<mgrwt>
<rscale>  0 0.12500000E+03</rscale>
<asrwt>0</asrwt>
<pdfrwt beam="1">  1       21 0.19917340E-02 0.12500000E+03</pdfrwt>
<pdfrwt beam="2">  1       21 0.46419664E-01 0.12500000E+03</pdfrwt>
<totfact> 0.54258111E+06</totfact>
</mgrwt>
</event>
<event>
 3    1  0.1592492E-001  0.1250000E+03  0.7546771E-02  0.1235069E+00
         21   -1    0    0  502  501  0.00000000000E+00  0.00000000000E+00  0.27577785175E+02  0.27577785175E+02  0.00000000000E+00 0. -1.
         21   -1    0    0  501  502 -0.00000000000E+00 -0.00000000000E+00 -0.14164480487E+03  0.14164480487E+03  0.00000000000E+00 0. -1.
         25    1    1    2    0    0  0.00000000000E+00  0.00000000000E+00 -0.11406701970E+03  0.16922259005E+03  0.12500000000E+03 0.  0.
<mgrwt>
<rscale>  0 0.12500000E+03</rscale>
<asrwt>0</asrwt>
<pdfrwt beam="1">  1       21 0.42427361E-02 0.12500000E+03</pdfrwt>
<pdfrwt beam="2">  1       21 0.21791509E-01 0.12500000E+03</pdfrwt>
<totfact> 0.68409785E+06</totfact>
</mgrwt>
</event>
<event>
 3    1  0.1592492E-001  0.1250000E+03  0.7546771E-02  0.1235069E+00
         21   -1    0    0  502  501  0.00000000000E+00  0.00000000000E+00  0.14257924338E+04  0.14257924338E+04  0.00000000000E+00 0. -1.
         21   -1    0    0  501  502 -0.00000000000E+00 -0.00000000000E+00 -0.27397045372E+01  0.27397045372E+01  0.00000000000E+00 0. -1.
         25    1    1    2    0    0  0.00000000000E+00  0.00000000000E+00  0.14230527293E+04  0.14285321383E+04  0.12500000000E+03 0.  0.
<mgrwt>
<rscale>  0 0.12500000E+03</rscale>
<asrwt>0</asrwt>
<pdfrwt beam="1">  1       21 0.21935209E+00 0.12500000E+03</pdfrwt>
<pdfrwt beam="2">  1       21 0.42149414E-03 0.12500000E+03</pdfrwt>
<totfact> 0.15086933E+06</totfact>
</mgrwt>
</event>
<event>
 3    1  0.1592492E-001  0.1250000E+03  0.7546771E-02  0.1235069E+00
         21   -1    0    0  502  501  0.00000000000E+00  0.00000000000E+00  0.27972354849E+03  0.27972354849E+03  0.00000000000E+00 0. -1.
         21   -1    0    0  501  502 -0.00000000000E+00 -0.00000000000E+00 -0.13964680561E+02  0.13964680561E+02  0.00000000000E+00 0. -1.
         25    1    1    2    0    0  0.00000000000E+00  0.00000000000E+00  0.26575886793E+03  0.29368822905E+03  0.12500000000E+03 0.  0.
<mgrwt>
<rscale>  0 0.12500000E+03</rscale>
<asrwt>0</asrwt>
<pdfrwt beam="1">  1       21 0.43034388E-01 0.12500000E+03</pdfrwt>
<pdfrwt beam="2">  1       21 0.21484126E-02 0.12500000E+03</pdfrwt>
<totfact> 0.55984821E+06</totfact>
</mgrwt>
</event>
<event>
 3    1  0.1592492E-001  0.1250000E+03  0.7546771E-02  0.1235069E+00
         21   -1    0    0  502  501  0.00000000000E+00  0.00000000000E+00  0.55595542386E+03  0.55595542386E+03  0.00000000000E+00 0.  1.
         21   -1    0    0  501  502 -0.00000000000E+00 -0.00000000000E+00 -0.70261928068E+01  0.70261928068E+01  0.00000000000E+00 0.  1.
         25    1    1    2    0    0  0.00000000000E+00  0.00000000000E+00  0.54892923105E+03  0.56298161667E+03  0.12500000000E+03 0.  0.
<mgrwt>
<rscale>  0 0.12500000E+03</rscale>
<asrwt>0</asrwt>
<pdfrwt beam="1">  1       21 0.85531569E-01 0.12500000E+03</pdfrwt>
<pdfrwt beam="2">  1       21 0.10809532E-02 0.12500000E+03</pdfrwt>
<totfact> 0.38822118E+06</totfact>
</mgrwt>
</event>
<event>
 3    1  0.1592492E-001  0.1250000E+03  0.7546771E-02  0.1235069E+00
         21   -1    0    0  502  501  0.00000000000E+00  0.00000000000E+00  0.82348565355E+02  0.82348565355E+02  0.00000000000E+00 0.  1.
         21   -1    0    0  501  502 -0.00000000000E+00 -0.00000000000E+00 -0.47435556201E+02  0.47435556201E+02  0.00000000000E+00 0.  1.
         25    1    1    2    0    0  0.00000000000E+00  0.00000000000E+00  0.34913009153E+02  0.12978412156E+03  0.12500000000E+03 0.  0.
<mgrwt>
<rscale>  0 0.12500000E+03</rscale>
<asrwt>0</asrwt>
<pdfrwt beam="1">  1       21 0.12669010E-01 0.12500000E+03</pdfrwt>
<pdfrwt beam="2">  1       21 0.72977779E-02 0.12500000E+03</pdfrwt>
<totfact> 0.73393781E+06</totfact>
</mgrwt>
</event>
<event>
 3    1  0.1592492E-001  0.1250000E+03  0.7546771E-02  0.1235069E+00
         21   -1    0    0  502  501  0.00000000000E+00  0.00000000000E+00  0.74143184106E+01  0.74143184106E+01  0.00000000000E+00 0. -1.
         21   -1    0    0  501  502 -0.00000000000E+00 -0.00000000000E+00 -0.52685220457E+03  0.52685220457E+03  0.00000000000E+00 0. -1.
         25    1    1    2    0    0  0.00000000000E+00  0.00000000000E+00 -0.51943788615E+03  0.53426652298E+03  0.12500000000E+03 0.  0.
<mgrwt>
<rscale>  0 0.12500000E+03</rscale>
<asrwt>0</asrwt>
<pdfrwt beam="1">  1       21 0.11406641E-02 0.12500000E+03</pdfrwt>
<pdfrwt beam="2">  1       21 0.81054206E-01 0.12500000E+03</pdfrwt>
<totfact> 0.40244667E+06</totfact>
</mgrwt>
</event>
<event>
 3    1  0.1592492E-001  0.1250000E+03  0.7546771E-02  0.1235069E+00
         21   -1    0    0  502  501  0.00000000000E+00  0.00000000000E+00  0.14558540200E+04  0.14558540200E+04  0.00000000000E+00 0. -1.
         21   -1    0    0  501  502 -0.00000000000E+00 -0.00000000000E+00 -0.26831330246E+01  0.26831330246E+01  0.00000000000E+00 0. -1.
         25    1    1    2    0    0  0.00000000000E+00  0.00000000000E+00  0.14531708870E+04  0.14585371530E+04  0.12500000000E+03 0.  0.
<mgrwt>
<rscale>  0 0.12500000E+03</rscale>
<asrwt>0</asrwt>
<pdfrwt beam="1">  1       21 0.22397691E+00 0.12500000E+03</pdfrwt>
<pdfrwt beam="2">  1       21 0.41279086E-03 0.12500000E+03</pdfrwt>
<totfact> 0.14618947E+06</totfact>
</mgrwt>
</event>
<event>
 3    1  0.1592492E-001  0.1250000E+03  0.7546771E-02  0.1235069E+00
         21   -1    0    0  502  501  0.00000000000E+00  0.00000000000E+00  0.56136402976E+02  0.56136402976E+02  0.00000000000E+00 0. -1.
         21   -1    0    0  501  502 -0.00000000000E+00 -0.00000000000E+00 -0.69584971479E+02  0.69584971479E+02  0.00000000000E+00 0. -1.
         25    1    1    2    0    0  0.00000000000E+00  0.00000000000E+00 -0.13448568504E+02  0.12572137445E+03  0.12500000000E+03 0.  0.
<mgrwt>
<rscale>  0 0.12500000E+03</rscale>
<asrwt>0</asrwt>
<pdfrwt beam="1">  1       21 0.86363698E-02 0.12500000E+03</pdfrwt>
<pdfrwt beam="2">  1       21 0.10705380E-01 0.12500000E+03</pdfrwt>
<totfact> 0.73944570E+06</totfact>
</mgrwt>
</event>
<event>
 3    1  0.1592492E-001  0.1250000E+03  0.7546771E-02  0.1235069E+00
         21   -1    0    0  502  501  0.00000000000E+00  0.00000000000E+00  0.14065370254E+02  0.14065370254E+02  0.00000000000E+00 0. -1.
         21   -1    0    0  501  502 -0.00000000000E+00 -0.00000000000E+00 -0.27772109297E+03  0.27772109297E+03  0.00000000000E+00 0. -1.
         25    1    1    2    0    0  0.00000000000E+00  0.00000000000E+00 -0.26365572272E+03  0.29178646323E+03  0.12500000000E+03 0.  0.
<mgrwt>
<rscale>  0 0.12500000E+03</rscale>
<asrwt>0</asrwt>
<pdfrwt beam="1">  1       21 0.21639030E-02 0.12500000E+03</pdfrwt>
<pdfrwt beam="2">  1       21 0.42726324E-01 0.12500000E+03</pdfrwt>
<totfact> 0.56145732E+06</totfact>
</mgrwt>
</event>
<event>
 3    1  0.1592492E-001  0.1250000E+03  0.7546771E-02  0.1235069E+00
         21   -1    0    0  502  501  0.00000000000E+00  0.00000000000E+00  0.34902203648E+02  0.34902203648E+02  0.00000000000E+00 0. -1.
         21   -1    0    0  501  502 -0.00000000000E+00 -0.00000000000E+00 -0.11191986728E+03  0.11191986728E+03  0.00000000000E+00 0. -1.
         25    1    1    2    0    0  0.00000000000E+00  0.00000000000E+00 -0.77017663630E+02  0.14682207093E+03  0.12500000000E+03 0.  0.
<mgrwt>
<rscale>  0 0.12500000E+03</rscale>
<asrwt>0</asrwt>
<pdfrwt beam="1">  1       21 0.53695697E-02 0.12500000E+03</pdfrwt>
<pdfrwt beam="2">  1       21 0.17218442E-01 0.12500000E+03</pdfrwt>
<totfact> 0.71160727E+06</totfact>
</mgrwt>
</event>
<event>
 3    1  0.1592492E-001  0.1250000E+03  0.7546771E-02  0.1235069E+00
         21   -1    0    0  502  501  0.00000000000E+00  0.00000000000E+00  0.42439401684E+03  0.42439401684E+03  0.00000000000E+00 0. -1.
         21   -1    0    0  501  502 -0.00000000000E+00 -0.00000000000E+00 -0.92043003553E+01  0.92043003553E+01  0.00000000000E+00 0. -1.
         25    1    1    2    0    0  0.00000000000E+00  0.00000000000E+00  0.41518971648E+03  0.43359831719E+03  0.12500000000E+03 0.  0.
<mgrwt>
<rscale>  0 0.12500000E+03</rscale>
<asrwt>0</asrwt>
<pdfrwt beam="1">  1       21 0.65291372E-01 0.12500000E+03</pdfrwt>
<pdfrwt beam="2">  1       21 0.14160465E-02 0.12500000E+03</pdfrwt>
<totfact> 0.45889836E+06</totfact>
</mgrwt>
</event>
<event>
 3    1  0.1592492E-001  0.1250000E+03  0.7546771E-02  0.1235069E+00
         21   -1    0    0  502  501  0.00000000000E+00  0.00000000000E+00  0.38478730800E+02  0.38478730800E+02  0.00000000000E+00 0. -1.
         21   -1    0    0  501  502 -0.00000000000E+00 -0.00000000000E+00 -0.10151712177E+03  0.10151712177E+03  0.00000000000E+00 0. -1.
         25    1    1    2    0    0  0.00000000000E+00  0.00000000000E+00 -0.63038390966E+02  0.13999585257E+03  0.12500000000E+03 0.  0.
<mgrwt>
<rscale>  0 0.12500000E+03</rscale>
<asrwt>0</asrwt>
<pdfrwt beam="1">  1       21 0.59198049E-02 0.12500000E+03</pdfrwt>
<pdfrwt beam="2">  1       21 0.15618018E-01 0.12500000E+03</pdfrwt>
<totfact> 0.72039850E+06</totfact>
</mgrwt>
</event>
<event>
 3    1  0.1592492E-001  0.1250000E+03  0.7546771E-02  0.1235069E+00
         21   -1    0    0  502  501  0.00000000000E+00  0.00000000000E+00  0.22079119420E+02  0.22079119420E+02  0.00000000000E+00 0.  1.
         21   -1    0    0  501  502 -0.00000000000E+00 -0.00000000000E+00 -0.17692055220E+03  0.17692055220E+03  0.00000000000E+00 0.  1.
         25    1    1    2    0    0  0.00000000000E+00  0.00000000000E+00 -0.15484143278E+03  0.19899967162E+03  0.12500000000E+03 0.  0.
<mgrwt>
<rscale>  0 0.12500000E+03</rscale>
<asrwt>0</asrwt>
<pdfrwt beam="1">  1       21 0.33967878E-02 0.12500000E+03</pdfrwt>
<pdfrwt beam="2">  1       21 0.27218545E-01 0.12500000E+03</pdfrwt>
<totfact> 0.65035806E+06</totfact>
</mgrwt>
</event>
<event>
 3    1  0.1592492E-001  0.1250000E+03  0.7546771E-02  0.1235069E+00
         21   -1    0    0  502  501  0.00000000000E+00  0.00000000000E+00  0.33294130093E+03  0.33294130093E+03  0.00000000000E+00 0. -1.
         21   -1    0    0  501  502 -0.00000000000E+00 -0.00000000000E+00 -0.11732548618E+02  0.11732548618E+02  0.00000000000E+00 0. -1.
         25    1    1    2    0    0  0.00000000000E+00  0.00000000000E+00  0.32120875231E+03  0.34467384954E+03  0.12500000000E+03 0.  0.
<mgrwt>
<rscale>  0 0.12500000E+03</rscale>
<asrwt>0</asrwt>
<pdfrwt beam="1">  1       21 0.51221731E-01 0.12500000E+03</pdfrwt>
<pdfrwt beam="2">  1       21 0.18050077E-02 0.12500000E+03</pdfrwt>
<totfact> 0.51934207E+06</totfact>
</mgrwt>
</event>
<event>
 3    1  0.1592492E-001  0.1250000E+03  0.7546771E-02  0.1235069E+00
         21   -1    0    0  502  501  0.00000000000E+00  0.00000000000E+00  0.14335384704E+03  0.14335384704E+03  0.00000000000E+00 0. -1.
         21   -1    0    0  501  502 -0.00000000000E+00 -0.00000000000E+00 -0.27249007129E+02  0.27249007129E+02  0.00000000000E+00 0. -1.
         25    1    1    2    0    0  0.00000000000E+00  0.00000000000E+00  0.11610483991E+03  0.17060285417E+03  0.12500000000E+03 0.  0.
<mgrwt>
<rscale>  0 0.12500000E+03</rscale>
<asrwt>0</asrwt>
<pdfrwt beam="1">  1       21 0.22054438E-01 0.12500000E+03</pdfrwt>
<pdfrwt beam="2">  1       21 0.41921550E-02 0.12500000E+03</pdfrwt>
<totfact> 0.68246243E+06</totfact>
</mgrwt>
</event>
<event>
 3    1  0.1592492E-001  0.1250000E+03  0.7546771E-02  0.1235069E+00
         21   -1    0    0  502  501  0.00000000000E+00  0.00000000000E+00  0.42833637302E+03  0.42833637302E+03  0.00000000000E+00 0.  1.
         21   -1    0    0  501  502 -0.00000000000E+00 -0.00000000000E+00 -0.91195850879E+01  0.91195850879E+01  0.00000000000E+00 0.  1.
         25    1    1    2    0    0  0.00000000000E+00  0.00000000000E+00  0.41921678793E+03  0.43745595811E+03  0.12500000000E+03 0.  0.
<mgrwt>
<rscale>  0 0.12500000E+03</rscale>
<asrwt>0</asrwt>
<pdfrwt beam="1">  1       21 0.65897888E-01 0.12500000E+03</pdfrwt>
<pdfrwt beam="2">  1       21 0.14030134E-02 0.12500000E+03</pdfrwt>
<totfact> 0.45652275E+06</totfact>
</mgrwt>
</event>
<event>
 3    1  0.1592492E-001  0.1250000E+03  0.7546771E-02  0.1235069E+00
         21   -1    0    0  502  501  0.00000000000E+00  0.00000000000E+00  0.24288612142E+02  0.24288612142E+02  0.00000000000E+00 0. -1.
         21   -1    0    0  501  502 -0.00000000000E+00 -0.00000000000E+00 -0.16082639787E+03  0.16082639787E+03  0.00000000000E+00 0. -1.
         25    1    1    2    0    0  0.00000000000E+00  0.00000000000E+00 -0.13653778573E+03  0.18511501001E+03  0.12500000000E+03 0.  0.
<mgrwt>
<rscale>  0 0.12500000E+03</rscale>
<asrwt>0</asrwt>
<pdfrwt beam="1">  1       21 0.37367095E-02 0.12500000E+03</pdfrwt>
<pdfrwt beam="2">  1       21 0.24742523E-01 0.12500000E+03</pdfrwt>
<totfact> 0.66569548E+06</totfact>
</mgrwt>
</event>
<event>
 3    1  0.1592492E-001  0.1250000E+03  0.7546771E-02  0.1235069E+00
         21   -1    0    0  502  501  0.00000000000E+00  0.00000000000E+00  0.29701077002E+01  0.29701077002E+01  0.00000000000E+00 0.  1.
         21   -1    0    0  501  502 -0.00000000000E+00 -0.00000000000E+00 -0.13151879980E+04  0.13151879980E+04  0.00000000000E+00 0.  1.
         25    1    1    2    0    0  0.00000000000E+00  0.00000000000E+00 -0.13122178903E+04  0.13181581057E+04  0.12500000000E+03 0.  0.
<mgrwt>
<rscale>  0 0.12500000E+03</rscale>
<asrwt>0</asrwt>
<pdfrwt beam="1">  1       21 0.45693833E-03 0.12500000E+03</pdfrwt>
<pdfrwt beam="2">  1       21 0.20233720E+00 0.12500000E+03</pdfrwt>
<totfact> 0.16929362E+06</totfact>
</mgrwt>
</event>
<event>
 3    1  0.1592492E-001  0.1250000E+03  0.7546771E-02  0.1235069E+00
         21   -1    0    0  502  501  0.00000000000E+00  0.00000000000E+00  0.83977018975E+01  0.83977018975E+01  0.00000000000E+00 0.  1.
         21   -1    0    0  501  502 -0.00000000000E+00 -0.00000000000E+00 -0.46515702125E+03  0.46515702125E+03  0.00000000000E+00 0.  1.
         25    1    1    2    0    0  0.00000000000E+00  0.00000000000E+00 -0.45675931935E+03  0.47355472315E+03  0.12500000000E+03 0.  0.
<mgrwt>
<rscale>  0 0.12500000E+03</rscale>
<asrwt>0</asrwt>
<pdfrwt beam="1">  1       21 0.12919537E-02 0.12500000E+03</pdfrwt>
<pdfrwt beam="2">  1       21 0.71562641E-01 0.12500000E+03</pdfrwt>
<totfact> 0.43515543E+06</totfact>
</mgrwt>
</event>
<event>
 3    1  0.1592492E-001  0.1250000E+03  0.7546771E-02  0.1235069E+00
         21   -1    0    0  502  501  0.00000000000E+00  0.00000000000E+00  0.11488972366E+04  0.11488972366E+04  0.00000000000E+00 0. -1.
         21   -1    0    0  501  502 -0.00000000000E+00 -0.00000000000E+00 -0.33999994739E+01  0.33999994739E+01  0.00000000000E+00 0. -1.
         25    1    1    2    0    0  0.00000000000E+00  0.00000000000E+00  0.11454972371E+04  0.11522972361E+04  0.12500000000E+03 0.  0.
<mgrwt>
<rscale>  0 0.12500000E+03</rscale>
<asrwt>0</asrwt>
<pdfrwt beam="1">  1       21 0.17675311E+00 0.12500000E+03</pdfrwt>
<pdfrwt beam="2">  1       21 0.52307776E-03 0.12500000E+03</pdfrwt>
<totfact> 0.20120748E+06</totfact>
</mgrwt>
</event>
<event>
 3    1  0.1592492E-001  0.1250000E+03  0.7546771E-02  0.1235069E+00
         21   -1    0    0  502  501  0.00000000000E+00  0.00000000000E+00  0.23605151810E+03  0.23605151810E+03  0.00000000000E+00 0. -1.
         21   -1    0    0  501  502 -0.00000000000E+00 -0.00000000000E+00 -0.16548294336E+02  0.16548294336E+02  0.00000000000E+00 0. -1.
         25    1    1    2    0    0  0.00000000000E+00  0.00000000000E+00  0.21950322376E+03  0.25259981243E+03  0.12500000000E+03 0.  0.
<mgrwt>
<rscale>  0 0.12500000E+03</rscale>
<asrwt>0</asrwt>
<pdfrwt beam="1">  1       21 0.36315616E-01 0.12500000E+03</pdfrwt>
<pdfrwt beam="2">  1       21 0.25458916E-02 0.12500000E+03</pdfrwt>
<totfact> 0.59634282E+06</totfact>
</mgrwt>
</event>
<event>
 3    1  0.1592492E-001  0.1250000E+03  0.7546771E-02  0.1235069E+00
         21   -1    0    0  502  501  0.00000000000E+00  0.00000000000E+00  0.20870609369E+03  0.20870609369E+03  0.00000000000E+00 0. -1.
         21   -1    0    0  501  502 -0.00000000000E+00 -0.00000000000E+00 -0.18716511488E+02  0.18716511488E+02  0.00000000000E+00 0. -1.
         25    1    1    2    0    0  0.00000000000E+00  0.00000000000E+00  0.18998958220E+03  0.22742260517E+03  0.12500000000E+03 0.  0.
<mgrwt>
<rscale>  0 0.12500000E+03</rscale>
<asrwt>0</asrwt>
<pdfrwt beam="1">  1       21 0.32108628E-01 0.12500000E+03</pdfrwt>
<pdfrwt beam="2">  1       21 0.28794634E-02 0.12500000E+03</pdfrwt>
<totfact> 0.62071415E+06</totfact>
</mgrwt>
</event>
<event>
 3    1  0.1592492E-001  0.1250000E+03  0.7546771E-02  0.1235069E+00
         21   -1    0    0  502  501  0.00000000000E+00  0.00000000000E+00  0.18118264346E+03  0.18118264346E+03  0.00000000000E+00 0.  1.
         21   -1    0    0  501  502 -0.00000000000E+00 -0.00000000000E+00 -0.21559736216E+02  0.21559736216E+02  0.00000000000E+00 0.  1.
         25    1    1    2    0    0  0.00000000000E+00  0.00000000000E+00  0.15962290725E+03  0.20274237968E+03  0.12500000000E+03 0.  0.
<mgrwt>
<rscale>  0 0.12500000E+03</rscale>
<asrwt>0</asrwt>
<pdfrwt beam="1">  1       21 0.27874252E-01 0.12500000E+03</pdfrwt>
<pdfrwt beam="2">  1       21 0.33168826E-02 0.12500000E+03</pdfrwt>
<totfact> 0.64631304E+06</totfact>
</mgrwt>
</event>
<event>
 3    1  0.1592492E-001  0.1250000E+03  0.7546771E-02  0.1235069E+00
         21   -1    0    0  502  501  0.00000000000E+00  0.00000000000E+00  0.93552117506E+02  0.93552117506E+02  0.00000000000E+00 0. -1.
         21   -1    0    0  501  502 -0.00000000000E+00 -0.00000000000E+00 -0.41754800470E+02  0.41754800470E+02  0.00000000000E+00 0. -1.
         25    1    1    2    0    0  0.00000000000E+00  0.00000000000E+00  0.51797317036E+02  0.13530691798E+03  0.12500000000E+03 0.  0.
<mgrwt>
<rscale>  0 0.12500000E+03</rscale>
<asrwt>0</asrwt>
<pdfrwt beam="1">  1       21 0.14392633E-01 0.12500000E+03</pdfrwt>
<pdfrwt beam="2">  1       21 0.64238155E-02 0.12500000E+03</pdfrwt>
<totfact> 0.72655860E+06</totfact>
</mgrwt>
</event>
<event>
 3    1  0.1592492E-001  0.1250000E+03  0.7546771E-02  0.1235069E+00
         21   -1    0    0  502  501  0.00000000000E+00  0.00000000000E+00  0.10274046118E+04  0.10274046118E+04  0.00000000000E+00 0.  1.
         21   -1    0    0  501  502 -0.00000000000E+00 -0.00000000000E+00 -0.38020561276E+01  0.38020561276E+01  0.00000000000E+00 0.  1.
         25    1    1    2    0    0  0.00000000000E+00  0.00000000000E+00  0.10236025557E+04  0.10312066680E+04  0.12500000000E+03 0.  0.
<mgrwt>
<rscale>  0 0.12500000E+03</rscale>
<asrwt>0</asrwt>
<pdfrwt beam="1">  1       21 0.15806203E+00 0.12500000E+03</pdfrwt>
<pdfrwt beam="2">  1       21 0.58493253E-03 0.12500000E+03</pdfrwt>
<totfact> 0.22849620E+06</totfact>
</mgrwt>
</event>
<event>
 3    1  0.1592492E-001  0.1250000E+03  0.7546771E-02  0.1235069E+00
         21   -1    0    0  502  501  0.00000000000E+00  0.00000000000E+00  0.29980894776E+02  0.29980894776E+02  0.00000000000E+00 0. -1.
         21   -1    0    0  501  502 -0.00000000000E+00 -0.00000000000E+00 -0.13029130815E+03  0.13029130815E+03  0.00000000000E+00 0. -1.
         25    1    1    2    0    0  0.00000000000E+00  0.00000000000E+00 -0.10031041338E+03  0.16027220293E+03  0.12500000000E+03 0.  0.
<mgrwt>
<rscale>  0 0.12500000E+03</rscale>
<asrwt>0</asrwt>
<pdfrwt beam="1">  1       21 0.46124454E-02 0.12500000E+03</pdfrwt>
<pdfrwt beam="2">  1       21 0.20044816E-01 0.12500000E+03</pdfrwt>
<totfact> 0.69486251E+06</totfact>
</mgrwt>
</event>
<event>
 3    1  0.1592492E-001  0.1250000E+03  0.7546771E-02  0.1235069E+00
         21   -1    0    0  502  501  0.00000000000E+00  0.00000000000E+00  0.33329925523E+02  0.33329925523E+02  0.00000000000E+00 0.  1.
         21   -1    0    0  501  502 -0.00000000000E+00 -0.00000000000E+00 -0.11719948181E+03  0.11719948181E+03  0.00000000000E+00 0.  1.
         25    1    1    2    0    0  0.00000000000E+00  0.00000000000E+00 -0.83869556283E+02  0.15052940733E+03  0.12500000000E+03 0.  0.
<mgrwt>
<rscale>  0 0.12500000E+03</rscale>
<asrwt>0</asrwt>
<pdfrwt beam="1">  1       21 0.51276809E-02 0.12500000E+03</pdfrwt>
<pdfrwt beam="2">  1       21 0.18030689E-01 0.12500000E+03</pdfrwt>
<totfact> 0.70692761E+06</totfact>
</mgrwt>
</event>
<event>
 3    1  0.1592492E-001  0.1250000E+03  0.7546771E-02  0.1235069E+00
         21   -1    0    0  502  501  0.00000000000E+00  0.00000000000E+00  0.45018589511E+01  0.45018589511E+01  0.00000000000E+00 0. -1.
         21   -1    0    0  501  502 -0.00000000000E+00 -0.00000000000E+00 -0.86769710967E+03  0.86769710967E+03  0.00000000000E+00 0. -1.
         25    1    1    2    0    0  0.00000000000E+00  0.00000000000E+00 -0.86319525072E+03  0.87219896862E+03  0.12500000000E+03 0.  0.
<mgrwt>
<rscale>  0 0.12500000E+03</rscale>
<asrwt>0</asrwt>
<pdfrwt beam="1">  1       21 0.69259435E-03 0.12500000E+03</pdfrwt>
<pdfrwt beam="2">  1       21 0.13349174E+00 0.12500000E+03</pdfrwt>
<totfact> 0.27105374E+06</totfact>
</mgrwt>
</event>
<event>
 3    1  0.1592492E-001  0.1250000E+03  0.7546771E-02  0.1235069E+00
         21   -1    0    0  502  501  0.00000000000E+00  0.00000000000E+00  0.95750496412E+02  0.95750496412E+02  0.00000000000E+00 0. -1.
         21   -1    0    0  501  502 -0.00000000000E+00 -0.00000000000E+00 -0.40796133142E+02  0.40796133142E+02  0.00000000000E+00 0. -1.
         25    1    1    2    0    0  0.00000000000E+00  0.00000000000E+00  0.54954363270E+02  0.13654662955E+03  0.12500000000E+03 0.  0.
<mgrwt>
<rscale>  0 0.12500000E+03</rscale>
<asrwt>0</asrwt>
<pdfrwt beam="1">  1       21 0.14730846E-01 0.12500000E+03</pdfrwt>
<pdfrwt beam="2">  1       21 0.62763282E-02 0.12500000E+03</pdfrwt>
<totfact> 0.72492330E+06</totfact>
</mgrwt>
</event>
<event>
 3    1  0.1592492E-001  0.1250000E+03  0.7546771E-02  0.1235069E+00
         21   -1    0    0  502  501  0.00000000000E+00  0.00000000000E+00  0.37280959847E+02  0.37280959847E+02  0.00000000000E+00 0.  1.
         21   -1    0    0  501  502 -0.00000000000E+00 -0.00000000000E+00 -0.10477868639E+03  0.10477868639E+03  0.00000000000E+00 0.  1.
         25    1    1    2    0    0  0.00000000000E+00  0.00000000000E+00 -0.67497726541E+02  0.14205964623E+03  0.12500000000E+03 0.  0.
<mgrwt>
<rscale>  0 0.12500000E+03</rscale>
<asrwt>0</asrwt>
<pdfrwt beam="1">  1       21 0.57355323E-02 0.12500000E+03</pdfrwt>
<pdfrwt beam="2">  1       21 0.16119798E-01 0.12500000E+03</pdfrwt>
<totfact> 0.71771554E+06</totfact>
</mgrwt>
</event>
<event>
 3    1  0.1592492E-001  0.1250000E+03  0.7546771E-02  0.1235069E+00
         21   -1    0    0  502  501  0.00000000000E+00  0.00000000000E+00  0.45326453536E+03  0.45326453536E+03  0.00000000000E+00 0. -1.
         21   -1    0    0  501  502 -0.00000000000E+00 -0.00000000000E+00 -0.86180358163E+01  0.86180358163E+01  0.00000000000E+00 0. -1.
         25    1    1    2    0    0  0.00000000000E+00  0.00000000000E+00  0.44464649955E+03  0.46188257118E+03  0.12500000000E+03 0.  0.
<mgrwt>
<rscale>  0 0.12500000E+03</rscale>
<asrwt>0</asrwt>
<pdfrwt beam="1">  1       21 0.69732987E-01 0.12500000E+03</pdfrwt>
<pdfrwt beam="2">  1       21 0.13258520E-02 0.12500000E+03</pdfrwt>
<totfact> 0.44189682E+06</totfact>
</mgrwt>
</event>
<event>
 3    1  0.1592492E-001  0.1250000E+03  0.7546771E-02  0.1235069E+00
         21   -1    0    0  502  501  0.00000000000E+00  0.00000000000E+00  0.59883877196E+02  0.59883877196E+02  0.00000000000E+00 0. -1.
         21   -1    0    0  501  502 -0.00000000000E+00 -0.00000000000E+00 -0.65230412307E+02  0.65230412307E+02  0.00000000000E+00 0. -1.
         25    1    1    2    0    0  0.00000000000E+00  0.00000000000E+00 -0.53465351108E+01  0.12511428950E+03  0.12500000000E+03 0.  0.
<mgrwt>
<rscale>  0 0.12500000E+03</rscale>
<asrwt>0</asrwt>
<pdfrwt beam="1">  1       21 0.92129042E-02 0.12500000E+03</pdfrwt>
<pdfrwt beam="2">  1       21 0.10035448E-01 0.12500000E+03</pdfrwt>
<totfact> 0.74028146E+06</totfact>
</mgrwt>
</event>
<event>
 3    1  0.1592492E-001  0.1250000E+03  0.7546771E-02  0.1235069E+00
         21   -1    0    0  502  501  0.00000000000E+00  0.00000000000E+00  0.43772942638E+02  0.43772942638E+02  0.00000000000E+00 0.  1.
         21   -1    0    0  501  502 -0.00000000000E+00 -0.00000000000E+00 -0.89238917117E+02  0.89238917117E+02  0.00000000000E+00 0.  1.
         25    1    1    2    0    0  0.00000000000E+00  0.00000000000E+00 -0.45465974479E+02  0.13301185975E+03  0.12500000000E+03 0.  0.
<mgrwt>
<rscale>  0 0.12500000E+03</rscale>
<asrwt>0</asrwt>
<pdfrwt beam="1">  1       21 0.67342990E-02 0.12500000E+03</pdfrwt>
<pdfrwt beam="2">  1       21 0.13729064E-01 0.12500000E+03</pdfrwt>
<totfact> 0.72960815E+06</totfact>
</mgrwt>
</event>
<event>
 3    1  0.1592492E-001  0.1250000E+03  0.7546771E-02  0.1235069E+00
         21   -1    0    0  502  501  0.00000000000E+00  0.00000000000E+00  0.17201481163E+03  0.17201481163E+03  0.00000000000E+00 0. -1.
         21   -1    0    0  501  502 -0.00000000000E+00 -0.00000000000E+00 -0.22708800266E+02  0.22708800266E+02  0.00000000000E+00 0. -1.
         25    1    1    2    0    0  0.00000000000E+00  0.00000000000E+00  0.14930601136E+03  0.19472361189E+03  0.12500000000E+03 0.  0.
<mgrwt>
<rscale>  0 0.12500000E+03</rscale>
<asrwt>0</asrwt>
<pdfrwt beam="1">  1       21 0.26463816E-01 0.12500000E+03</pdfrwt>
<pdfrwt beam="2">  1       21 0.34936617E-02 0.12500000E+03</pdfrwt>
<totfact> 0.65501285E+06</totfact>
</mgrwt>
</event>
<event>
 3    1  0.1592492E-001  0.1250000E+03  0.7546771E-02  0.1235069E+00
         21   -1    0    0  502  501  0.00000000000E+00  0.00000000000E+00  0.40255240227E+03  0.40255240227E+03  0.00000000000E+00 0. -1.
         21   -1    0    0  501  502 -0.00000000000E+00 -0.00000000000E+00 -0.97037055996E+01  0.97037055996E+01  0.00000000000E+00 0. -1.
         25    1    1    2    0    0  0.00000000000E+00  0.00000000000E+00  0.39284869667E+03  0.41225610787E+03  0.12500000000E+03 0.  0.
<mgrwt>
<rscale>  0 0.12500000E+03</rscale>
<asrwt>0</asrwt>
<pdfrwt beam="1">  1       21 0.61931126E-01 0.12500000E+03</pdfrwt>
<pdfrwt beam="2">  1       21 0.14928781E-02 0.12500000E+03</pdfrwt>
<totfact> 0.47238907E+06</totfact>
</mgrwt>
</event>
<event>
 3    1  0.1592492E-001  0.1250000E+03  0.7546771E-02  0.1235069E+00
         21   -1    0    0  502  501  0.00000000000E+00  0.00000000000E+00  0.23962929410E+02  0.23962929410E+02  0.00000000000E+00 0.  1.
         21   -1    0    0  501  502 -0.00000000000E+00 -0.00000000000E+00 -0.16301220661E+03  0.16301220661E+03  0.00000000000E+00 0.  1.
         25    1    1    2    0    0  0.00000000000E+00  0.00000000000E+00 -0.13904927720E+03  0.18697513602E+03  0.12500000000E+03 0.  0.
<mgrwt>
<rscale>  0 0.12500000E+03</rscale>
<asrwt>0</asrwt>
<pdfrwt beam="1">  1       21 0.36866045E-02 0.12500000E+03</pdfrwt>
<pdfrwt beam="2">  1       21 0.25078801E-01 0.12500000E+03</pdfrwt>
<totfact> 0.66360238E+06</totfact>
</mgrwt>
</event>
<event>
 3    1  0.1592492E-001  0.1250000E+03  0.7546771E-02  0.1235069E+00
         21   -1    0    0  502  501  0.00000000000E+00  0.00000000000E+00  0.55267249498E+03  0.55267249498E+03  0.00000000000E+00 0. -1.
         21   -1    0    0  501  502 -0.00000000000E+00 -0.00000000000E+00 -0.70679290819E+01  0.70679290819E+01  0.00000000000E+00 0. -1.
         25    1    1    2    0    0  0.00000000000E+00  0.00000000000E+00  0.54560456590E+03  0.55974042406E+03  0.12500000000E+03 0.  0.
<mgrwt>
<rscale>  0 0.12500000E+03</rscale>
<asrwt>0</asrwt>
<pdfrwt beam="1">  1       21 0.85026504E-01 0.12500000E+03</pdfrwt>
<pdfrwt beam="2">  1       21 0.10873741E-02 0.12500000E+03</pdfrwt>
<totfact> 0.38979017E+06</totfact>
</mgrwt>
</event>
<event>
 3    1  0.1592492E-001  0.1250000E+03  0.7546771E-02  0.1235069E+00
         21   -1    0    0  502  501  0.00000000000E+00  0.00000000000E+00  0.39797731403E+01  0.39797731403E+01  0.00000000000E+00 0.  1.
         21   -1    0    0  501  502 -0.00000000000E+00 -0.00000000000E+00 -0.98152579614E+03  0.98152579614E+03  0.00000000000E+00 0.  1.
         25    1    1    2    0    0  0.00000000000E+00  0.00000000000E+00 -0.97754602300E+03  0.98550556928E+03  0.12500000000E+03 0.  0.
<mgrwt>
<rscale>  0 0.12500000E+03</rscale>
<asrwt>0</asrwt>
<pdfrwt beam="1">  1       21 0.61227285E-03 0.12500000E+03</pdfrwt>
<pdfrwt beam="2">  1       21 0.15100395E+00 0.12500000E+03</pdfrwt>
<totfact> 0.23984267E+06</totfact>
</mgrwt>
</event>
<event>
 3    1  0.1592492E-001  0.1250000E+03  0.7546771E-02  0.1235069E+00
         21   -1    0    0  502  501  0.00000000000E+00  0.00000000000E+00  0.26615109523E+02  0.26615109523E+02  0.00000000000E+00 0.  1.
         21   -1    0    0  501  502 -0.00000000000E+00 -0.00000000000E+00 -0.14676813547E+03  0.14676813547E+03  0.00000000000E+00 0.  1.
         25    1    1    2    0    0  0.00000000000E+00  0.00000000000E+00 -0.12015302595E+03  0.17338324499E+03  0.12500000000E+03 0.  0.
<mgrwt>
<rscale>  0 0.12500000E+03</rscale>
<asrwt>0</asrwt>
<pdfrwt beam="1">  1       21 0.40946323E-02 0.12500000E+03</pdfrwt>
<pdfrwt beam="2">  1       21 0.22579713E-01 0.12500000E+03</pdfrwt>
<totfact> 0.67918817E+06</totfact>
</mgrwt>
</event>
<event>
 3    1  0.1592492E-001  0.1250000E+03  0.7546771E-02  0.1235069E+00
         21   -1    0    0  502  501  0.00000000000E+00  0.00000000000E+00  0.15763705669E+02  0.15763705669E+02  0.00000000000E+00 0.  1.
         21   -1    0    0  501  502 -0.00000000000E+00 -0.00000000000E+00 -0.24780023695E+03  0.24780023695E+03  0.00000000000E+00 0.  1.
         25    1    1    2    0    0  0.00000000000E+00  0.00000000000E+00 -0.23203653128E+03  0.26356394262E+03  0.12500000000E+03 0.  0.
<mgrwt>
<rscale>  0 0.12500000E+03</rscale>
<asrwt>0</asrwt>
<pdfrwt beam="1">  1       21 0.24251854E-02 0.12500000E+03</pdfrwt>
<pdfrwt beam="2">  1       21 0.38123114E-01 0.12500000E+03</pdfrwt>
<totfact> 0.58624148E+06</totfact>
</mgrwt>
</event>
<event>
 3    1  0.1592492E-001  0.1250000E+03  0.7546771E-02  0.1235069E+00
         21   -1    0    0  502  501  0.00000000000E+00  0.00000000000E+00  0.60583087034E+03  0.60583087034E+03  0.00000000000E+00 0.  1.
         21   -1    0    0  501  502 -0.00000000000E+00 -0.00000000000E+00 -0.64477566120E+01  0.64477566120E+01  0.00000000000E+00 0.  1.
         25    1    1    2    0    0  0.00000000000E+00  0.00000000000E+00  0.59938311373E+03  0.61227862695E+03  0.12500000000E+03 0.  0.
<mgrwt>
<rscale>  0 0.12500000E+03</rscale>
<asrwt>0</asrwt>
<pdfrwt beam="1">  1       21 0.93204704E-01 0.12500000E+03</pdfrwt>
<pdfrwt beam="2">  1       21 0.99196304E-03 0.12500000E+03</pdfrwt>
<totfact> 0.36543181E+06</totfact>
</mgrwt>
</event>
<event>
 3    1  0.1592492E-001  0.1250000E+03  0.7546771E-02  0.1235069E+00
         21   -1    0    0  502  501  0.00000000000E+00  0.00000000000E+00  0.20713520147E+01  0.20713520147E+01  0.00000000000E+00 0. -1.
         21   -1    0    0  501  502 -0.00000000000E+00 -0.00000000000E+00 -0.18858455599E+04  0.18858455599E+04  0.00000000000E+00 0. -1.
         25    1    1    2    0    0  0.00000000000E+00  0.00000000000E+00 -0.18837742079E+04  0.18879169119E+04  0.12500000000E+03 0.  0.
<mgrwt>
<rscale>  0 0.12500000E+03</rscale>
<asrwt>0</asrwt>
<pdfrwt beam="1">  1       21 0.31866867E-03 0.12500000E+03</pdfrwt>
<pdfrwt beam="2">  1       21 0.29013088E+00 0.12500000E+03</pdfrwt>
<totfact> 0.90936983E+05</totfact>
</mgrwt>
</event>
<event>
 3    1  0.1592492E-001  0.1250000E+03  0.7546771E-02  0.1235069E+00
         21   -1    0    0  502  501  0.00000000000E+00  0.00000000000E+00  0.91656050429E+02  0.91656050429E+02  0.00000000000E+00 0.  1.
         21   -1    0    0  501  502 -0.00000000000E+00 -0.00000000000E+00 -0.42618572170E+02  0.42618572170E+02  0.00000000000E+00 0.  1.
         25    1    1    2    0    0  0.00000000000E+00  0.00000000000E+00  0.49037478260E+02  0.13427462260E+03  0.12500000000E+03 0.  0.
<mgrwt>
<rscale>  0 0.12500000E+03</rscale>
<asrwt>0</asrwt>
<pdfrwt beam="1">  1       21 0.14100931E-01 0.12500000E+03</pdfrwt>
<pdfrwt beam="2">  1       21 0.65567034E-02 0.12500000E+03</pdfrwt>
<totfact> 0.72792661E+06</totfact>
</mgrwt>
</event>
<event>
 3    1  0.1592492E-001  0.1250000E+03  0.7546771E-02  0.1235069E+00
         21   -1    0    0  502  501  0.00000000000E+00  0.00000000000E+00  0.28720252555E+03  0.28720252555E+03  0.00000000000E+00 0.  1.
         21   -1    0    0  501  502 -0.00000000000E+00 -0.00000000000E+00 -0.13601029422E+02  0.13601029422E+02  0.00000000000E+00 0.  1.
         25    1    1    2    0    0  0.00000000000E+00  0.00000000000E+00  0.27360149613E+03  0.30080355497E+03  0.12500000000E+03 0.  0.
<mgrwt>
<rscale>  0 0.12500000E+03</rscale>
<asrwt>0</asrwt>
<pdfrwt beam="1">  1       21 0.44184999E-01 0.12500000E+03</pdfrwt>
<pdfrwt beam="2">  1       21 0.20924663E-02 0.12500000E+03</pdfrwt>
<totfact> 0.55389463E+06</totfact>
</mgrwt>
</event>
<event>
 3    1  0.1592492E-001  0.1250000E+03  0.7546771E-02  0.1235069E+00
         21   -1    0    0  502  501  0.00000000000E+00  0.00000000000E+00  0.30050210326E+02  0.30050210326E+02  0.00000000000E+00 0.  1.
         21   -1    0    0  501  502 -0.00000000000E+00 -0.00000000000E+00 -0.12999077070E+03  0.12999077070E+03  0.00000000000E+00 0.  1.
         25    1    1    2    0    0  0.00000000000E+00  0.00000000000E+00 -0.99940560376E+02  0.16004098103E+03  0.12500000000E+03 0.  0.
<mgrwt>
<rscale>  0 0.12500000E+03</rscale>
<asrwt>0</asrwt>
<pdfrwt beam="1">  1       21 0.46231093E-02 0.12500000E+03</pdfrwt>
<pdfrwt beam="2">  1       21 0.19998580E-01 0.12500000E+03</pdfrwt>
<totfact> 0.69514489E+06</totfact>
</mgrwt>
</event>
<event>
 3    1  0.1592492E-001  0.1250000E+03  0.7546771E-02  0.1235069E+00
         21   -1    0    0  502  501  0.00000000000E+00  0.00000000000E+00  0.51966701755E+03  0.51966701755E+03  0.00000000000E+00 0. -1.
         21   -1    0    0  501  502 -0.00000000000E+00 -0.00000000000E+00 -0.75168326411E+01  0.75168326411E+01  0.00000000000E+00 0. -1.
         25    1    1    2    0    0  0.00000000000E+00  0.00000000000E+00  0.51215018491E+03  0.52718385019E+03  0.12500000000E+03 0.  0.
<mgrwt>
<rscale>  0 0.12500000E+03</rscale>
<asrwt>0</asrwt>
<pdfrwt beam="1">  1       21 0.79948744E-01 0.12500000E+03</pdfrwt>
<pdfrwt beam="2">  1       21 0.11564362E-02 0.12500000E+03</pdfrwt>
<totfact> 0.40607196E+06</totfact>
</mgrwt>
</event>
<event>
 3    1  0.1592492E-001  0.1250000E+03  0.7546771E-02  0.1235069E+00
         21   -1    0    0  502  501  0.00000000000E+00  0.00000000000E+00  0.18001087061E+02  0.18001087061E+02  0.00000000000E+00 0.  1.
         21   -1    0    0  501  502 -0.00000000000E+00 -0.00000000000E+00 -0.21700078372E+03  0.21700078372E+03  0.00000000000E+00 0.  1.
         25    1    1    2    0    0  0.00000000000E+00  0.00000000000E+00 -0.19899969666E+03  0.23500187078E+03  0.12500000000E+03 0.  0.
<mgrwt>
<rscale>  0 0.12500000E+03</rscale>
<asrwt>0</asrwt>
<pdfrwt beam="1">  1       21 0.27693981E-02 0.12500000E+03</pdfrwt>
<pdfrwt beam="2">  1       21 0.33384735E-01 0.12500000E+03</pdfrwt>
<totfact> 0.61319701E+06</totfact>
</mgrwt>
</event>
<event>
 3    1  0.1592492E-001  0.1250000E+03  0.7546771E-02  0.1235069E+00
         21   -1    0    0  502  501  0.00000000000E+00  0.00000000000E+00  0.21310818438E+03  0.21310818438E+03  0.00000000000E+00 0.  1.
         21   -1    0    0  501  502 -0.00000000000E+00 -0.00000000000E+00 -0.18329891981E+02  0.18329891981E+02  0.00000000000E+00 0.  1.
         25    1    1    2    0    0  0.00000000000E+00  0.00000000000E+00  0.19477829240E+03  0.23143807637E+03  0.12500000000E+03 0.  0.
<mgrwt>
<rscale>  0 0.12500000E+03</rscale>
<asrwt>0</asrwt>
<pdfrwt beam="1">  1       21 0.32785873E-01 0.12500000E+03</pdfrwt>
<pdfrwt beam="2">  1       21 0.28199835E-02 0.12500000E+03</pdfrwt>
<totfact> 0.61671157E+06</totfact>
</mgrwt>
</event>
<event>
 3    1  0.1592492E-001  0.1250000E+03  0.7546771E-02  0.1235069E+00
         21   -1    0    0  502  501  0.00000000000E+00  0.00000000000E+00  0.73438125357E+03  0.73438125357E+03  0.00000000000E+00 0. -1.
         21   -1    0    0  501  502 -0.00000000000E+00 -0.00000000000E+00 -0.53191036413E+01  0.53191036413E+01  0.00000000000E+00 0. -1.
         25    1    1    2    0    0  0.00000000000E+00  0.00000000000E+00  0.72906214993E+03  0.73970035721E+03  0.12500000000E+03 0.  0.
<mgrwt>
<rscale>  0 0.12500000E+03</rscale>
<asrwt>0</asrwt>
<pdfrwt beam="1">  1       21 0.11298165E+00 0.12500000E+03</pdfrwt>
<pdfrwt beam="2">  1       21 0.81832422E-03 0.12500000E+03</pdfrwt>
<totfact> 0.31434491E+06</totfact>
</mgrwt>
</event>
<event>
 3    1  0.1592492E-001  0.1250000E+03  0.7546771E-02  0.1235069E+00
         21   -1    0    0  502  501  0.00000000000E+00  0.00000000000E+00  0.14508207432E+01  0.14508207432E+01  0.00000000000E+00 0.  1.
         21   -1    0    0  501  502 -0.00000000000E+00 -0.00000000000E+00 -0.26924415152E+04  0.26924415152E+04  0.00000000000E+00 0.  1.
         25    1    1    2    0    0  0.00000000000E+00  0.00000000000E+00 -0.26909906944E+04  0.26938923359E+04  0.12500000000E+03 0.  0.
<mgrwt>
<rscale>  0 0.12500000E+03</rscale>
<asrwt>0</asrwt>
<pdfrwt beam="1">  1       21 0.22320369E-03 0.12500000E+03</pdfrwt>
<pdfrwt beam="2">  1       21 0.41422084E+00 0.12500000E+03</pdfrwt>
<totfact> 0.29627980E+05</totfact>
</mgrwt>
</event>
<event>
 3    1  0.1592492E-001  0.1250000E+03  0.7546771E-02  0.1235069E+00
         21   -1    0    0  502  501  0.00000000000E+00  0.00000000000E+00  0.63293574105E+01  0.63293574105E+01  0.00000000000E+00 0. -1.
         21   -1    0    0  501  502 -0.00000000000E+00 -0.00000000000E+00 -0.61716375718E+03  0.61716375718E+03  0.00000000000E+00 0. -1.
         25    1    1    2    0    0  0.00000000000E+00  0.00000000000E+00 -0.61083439977E+03  0.62349311459E+03  0.12500000000E+03 0.  0.
<mgrwt>
<rscale>  0 0.12500000E+03</rscale>
<asrwt>0</asrwt>
<pdfrwt beam="1">  1       21 0.97374731E-03 0.12500000E+03</pdfrwt>
<pdfrwt beam="2">  1       21 0.94948268E-01 0.12500000E+03</pdfrwt>
<totfact> 0.36051285E+06</totfact>
</mgrwt>
</event>
<event>
 3    1  0.1592492E-001  0.1250000E+03  0.7546771E-02  0.1235069E+00
         21   -1    0    0  502  501  0.00000000000E+00  0.00000000000E+00  0.35115518241E+03  0.35115518241E+03  0.00000000000E+00 0.  1.
         21   -1    0    0  501  502 -0.00000000000E+00 -0.00000000000E+00 -0.11123999291E+02  0.11123999291E+02  0.00000000000E+00 0.  1.
         25    1    1    2    0    0  0.00000000000E+00  0.00000000000E+00  0.34003118312E+03  0.36227918170E+03  0.12500000000E+03 0.  0.
<mgrwt>
<rscale>  0 0.12500000E+03</rscale>
<asrwt>0</asrwt>
<pdfrwt beam="1">  1       21 0.54023866E-01 0.12500000E+03</pdfrwt>
<pdfrwt beam="2">  1       21 0.17113848E-02 0.12500000E+03</pdfrwt>
<totfact> 0.50644173E+06</totfact>
</mgrwt>
</event>
<event>
 3    1  0.1592492E-001  0.1250000E+03  0.7546771E-02  0.1235069E+00
         21   -1    0    0  502  501  0.00000000000E+00  0.00000000000E+00  0.53383682065E+03  0.53383682065E+03  0.00000000000E+00 0.  1.
         21   -1    0    0  501  502 -0.00000000000E+00 -0.00000000000E+00 -0.73173109252E+01  0.73173109252E+01  0.00000000000E+00 0.  1.
         25    1    1    2    0    0  0.00000000000E+00  0.00000000000E+00  0.52651950972E+03  0.54115413157E+03  0.12500000000E+03 0.  0.
<mgrwt>
<rscale>  0 0.12500000E+03</rscale>
<asrwt>0</asrwt>
<pdfrwt beam="1">  1       21 0.82128711E-01 0.12500000E+03</pdfrwt>
<pdfrwt beam="2">  1       21 0.11257406E-02 0.12500000E+03</pdfrwt>
<totfact> 0.39896672E+06</totfact>
</mgrwt>
</event>
<event>
 3    1  0.1592492E-001  0.1250000E+03  0.7546771E-02  0.1235069E+00
         21   -1    0    0  502  501  0.00000000000E+00  0.00000000000E+00  0.16936563430E+03  0.16936563430E+03  0.00000000000E+00 0. -1.
         21   -1    0    0  501  502 -0.00000000000E+00 -0.00000000000E+00 -0.23064005966E+02  0.23064005966E+02  0.00000000000E+00 0. -1.
         25    1    1    2    0    0  0.00000000000E+00  0.00000000000E+00  0.14630162833E+03  0.19242964027E+03  0.12500000000E+03 0.  0.
<mgrwt>
<rscale>  0 0.12500000E+03</rscale>
<asrwt>0</asrwt>
<pdfrwt beam="1">  1       21 0.26056251E-01 0.12500000E+03</pdfrwt>
<pdfrwt beam="2">  1       21 0.35483087E-02 0.12500000E+03</pdfrwt>
<totfact> 0.65753445E+06</totfact>
</mgrwt>
</event>
<event>
 3    1  0.1592492E-001  0.1250000E+03  0.7546771E-02  0.1235069E+00
         21   -1    0    0  502  501  0.00000000000E+00  0.00000000000E+00  0.13862944093E+03  0.13862944093E+03  0.00000000000E+00 0. -1.
         21   -1    0    0  501  502 -0.00000000000E+00 -0.00000000000E+00 -0.28177636538E+02  0.28177636538E+02  0.00000000000E+00 0. -1.
         25    1    1    2    0    0  0.00000000000E+00  0.00000000000E+00  0.11045180439E+03  0.16680707747E+03  0.12500000000E+03 0.  0.
<mgrwt>
<rscale>  0 0.12500000E+03</rscale>
<asrwt>0</asrwt>
<pdfrwt beam="1">  1       21 0.21327606E-01 0.12500000E+03</pdfrwt>
<pdfrwt beam="2">  1       21 0.43350211E-02 0.12500000E+03</pdfrwt>
<totfact> 0.68697163E+06</totfact>
</mgrwt>
</event>
<event>
 3    1  0.1592492E-001  0.1250000E+03  0.7546771E-02  0.1235069E+00
         21   -1    0    0  502  501  0.00000000000E+00  0.00000000000E+00  0.97533628707E+01  0.97533628707E+01  0.00000000000E+00 0. -1.
         21   -1    0    0  501  502 -0.00000000000E+00 -0.00000000000E+00 -0.40050288826E+03  0.40050288826E+03  0.00000000000E+00 0. -1.
         25    1    1    2    0    0  0.00000000000E+00  0.00000000000E+00 -0.39074952539E+03  0.41025625114E+03  0.12500000000E+03 0.  0.
<mgrwt>
<rscale>  0 0.12500000E+03</rscale>
<asrwt>0</asrwt>
<pdfrwt beam="1">  1       21 0.15005175E-02 0.12500000E+03</pdfrwt>
<pdfrwt beam="2">  1       21 0.61615824E-01 0.12500000E+03</pdfrwt>
<totfact> 0.47368425E+06</totfact>
</mgrwt>
</event>
<event>
 3    1  0.1592492E-001  0.1250000E+03  0.7546771E-02  0.1235069E+00
         21   -1    0    0  502  501  0.00000000000E+00  0.00000000000E+00  0.43982402503E+02  0.43982402503E+02  0.00000000000E+00 0. -1.
         21   -1    0    0  501  502 -0.00000000000E+00 -0.00000000000E+00 -0.88813929611E+02  0.88813929611E+02  0.00000000000E+00 0. -1.
         25    1    1    2    0    0  0.00000000000E+00  0.00000000000E+00 -0.44831527109E+02  0.13279633211E+03  0.12500000000E+03 0.  0.
<mgrwt>
<rscale>  0 0.12500000E+03</rscale>
<asrwt>0</asrwt>
<pdfrwt beam="1">  1       21 0.67665235E-02 0.12500000E+03</pdfrwt>
<pdfrwt beam="2">  1       21 0.13663681E-01 0.12500000E+03</pdfrwt>
<totfact> 0.72989607E+06</totfact>
</mgrwt>
</event>
<event>
 3    1  0.1592492E-001  0.1250000E+03  0.7546771E-02  0.1235069E+00
         21   -1    0    0  502  501  0.00000000000E+00  0.00000000000E+00  0.18034304674E+03  0.18034304674E+03  0.00000000000E+00 0.  1.
         21   -1    0    0  501  502 -0.00000000000E+00 -0.00000000000E+00 -0.21660108724E+02  0.21660108724E+02  0.00000000000E+00 0.  1.
         25    1    1    2    0    0  0.00000000000E+00  0.00000000000E+00  0.15868293802E+03  0.20200315546E+03  0.12500000000E+03 0.  0.
<mgrwt>
<rscale>  0 0.12500000E+03</rscale>
<asrwt>0</asrwt>
<pdfrwt beam="1">  1       21 0.27745083E-01 0.12500000E+03</pdfrwt>
<pdfrwt beam="2">  1       21 0.33323245E-02 0.12500000E+03</pdfrwt>
<totfact> 0.64710842E+06</totfact>
</mgrwt>
</event>
<event>
 3    1  0.1592492E-001  0.1250000E+03  0.7546771E-02  0.1235069E+00
         21   -1    0    0  502  501  0.00000000000E+00  0.00000000000E+00  0.14219971758E+02  0.14219971758E+02  0.00000000000E+00 0. -1.
         21   -1    0    0  501  502 -0.00000000000E+00 -0.00000000000E+00 -0.27470167076E+03  0.27470167076E+03  0.00000000000E+00 0. -1.
         25    1    1    2    0    0  0.00000000000E+00  0.00000000000E+00 -0.26048169900E+03  0.28892164252E+03  0.12500000000E+03 0.  0.
<mgrwt>
<rscale>  0 0.12500000E+03</rscale>
<asrwt>0</asrwt>
<pdfrwt beam="1">  1       21 0.21876878E-02 0.12500000E+03</pdfrwt>
<pdfrwt beam="2">  1       21 0.42261798E-01 0.12500000E+03</pdfrwt>
<totfact> 0.56389579E+06</totfact>
</mgrwt>
</event>
<event>
 3    1  0.1592492E-001  0.1250000E+03  0.7546771E-02  0.1235069E+00
         21   -1    0    0  502  501  0.00000000000E+00  0.00000000000E+00  0.26953497193E+02  0.26953497193E+02  0.00000000000E+00 0. -1.
         21   -1    0    0  501  502 -0.00000000000E+00 -0.00000000000E+00 -0.14492553497E+03  0.14492553497E+03  0.00000000000E+00 0. -1.
         25    1    1    2    0    0  0.00000000000E+00  0.00000000000E+00 -0.11797203778E+03  0.17187903216E+03  0.12500000000E+03 0.  0.
<mgrwt>
<rscale>  0 0.12500000E+03</rscale>
<asrwt>0</asrwt>
<pdfrwt beam="1">  1       21 0.41466919E-02 0.12500000E+03</pdfrwt>
<pdfrwt beam="2">  1       21 0.22296236E-01 0.12500000E+03</pdfrwt>
<totfact> 0.68095582E+06</totfact>
</mgrwt>
</event>
<event>
 3    1  0.1592492E-001  0.1250000E+03  0.7546771E-02  0.1235069E+00
         21   -1    0    0  502  501  0.00000000000E+00  0.00000000000E+00  0.25655221464E+03  0.25655221464E+03  0.00000000000E+00 0.  1.
         21   -1    0    0  501  502 -0.00000000000E+00 -0.00000000000E+00 -0.15225945352E+02  0.15225945352E+02  0.00000000000E+00 0.  1.
         25    1    1    2    0    0  0.00000000000E+00  0.00000000000E+00  0.24132626929E+03  0.27177815999E+03  0.12500000000E+03 0.  0.
<mgrwt>
<rscale>  0 0.12500000E+03</rscale>
<asrwt>0</asrwt>
<pdfrwt beam="1">  1       21 0.39469568E-01 0.12500000E+03</pdfrwt>
<pdfrwt beam="2">  1       21 0.23424533E-02 0.12500000E+03</pdfrwt>
<totfact> 0.57886209E+06</totfact>
</mgrwt>
</event>
<event>
 3    1  0.1592492E-001  0.1250000E+03  0.7546771E-02  0.1235069E+00
         21   -1    0    0  502  501  0.00000000000E+00  0.00000000000E+00  0.77868752177E+01  0.77868752177E+01  0.00000000000E+00 0.  1.
         21   -1    0    0  501  502 -0.00000000000E+00 -0.00000000000E+00 -0.50164538288E+03  0.50164538288E+03  0.00000000000E+00 0.  1.
         25    1    1    2    0    0  0.00000000000E+00  0.00000000000E+00 -0.49385850766E+03  0.50943225810E+03  0.12500000000E+03 0.  0.
<mgrwt>
<rscale>  0 0.12500000E+03</rscale>
<asrwt>0</asrwt>
<pdfrwt beam="1">  1       21 0.11979805E-02 0.12500000E+03</pdfrwt>
<pdfrwt beam="2">  1       21 0.77176233E-01 0.12500000E+03</pdfrwt>
<totfact> 0.41537108E+06</totfact>
</mgrwt>
</event>
<event>
 3    1  0.1592492E-001  0.1250000E+03  0.7546771E-02  0.1235069E+00
         21   -1    0    0  502  501  0.00000000000E+00  0.00000000000E+00  0.73448959531E+02  0.73448959531E+02  0.00000000000E+00 0. -1.
         21   -1    0    0  501  502 -0.00000000000E+00 -0.00000000000E+00 -0.53183190408E+02  0.53183190408E+02  0.00000000000E+00 0. -1.
         25    1    1    2    0    0  0.00000000000E+00  0.00000000000E+00  0.20265769123E+02  0.12663214994E+03  0.12500000000E+03 0.  0.
<mgrwt>
<rscale>  0 0.12500000E+03</rscale>
<asrwt>0</asrwt>
<pdfrwt beam="1">  1       21 0.11299840E-01 0.12500000E+03</pdfrwt>
<pdfrwt beam="2">  1       21 0.81820293E-02 0.12500000E+03</pdfrwt>
<totfact> 0.73819302E+06</totfact>
</mgrwt>
</event>
<event>
 3    1  0.1592492E-001  0.1250000E+03  0.7546771E-02  0.1235069E+00
         21   -1    0    0  502  501  0.00000000000E+00  0.00000000000E+00  0.90176703865E+02  0.90176703865E+02  0.00000000000E+00 0.  1.
         21   -1    0    0  501  502 -0.00000000000E+00 -0.00000000000E+00 -0.43317728777E+02  0.43317728777E+02  0.00000000000E+00 0.  1.
         25    1    1    2    0    0  0.00000000000E+00  0.00000000000E+00  0.46858975089E+02  0.13349443264E+03  0.12500000000E+03 0.  0.
<mgrwt>
<rscale>  0 0.12500000E+03</rscale>
<asrwt>0</asrwt>
<pdfrwt beam="1">  1       21 0.13873339E-01 0.12500000E+03</pdfrwt>
<pdfrwt beam="2">  1       21 0.66642660E-02 0.12500000E+03</pdfrwt>
<totfact> 0.72896446E+06</totfact>
</mgrwt>
</event>
<event>
 3    1  0.1592492E-001  0.1250000E+03  0.7546771E-02  0.1235069E+00
         21   -1    0    0  502  501  0.00000000000E+00  0.00000000000E+00  0.16188746123E+03  0.16188746123E+03  0.00000000000E+00 0.  1.
         21   -1    0    0  501  502 -0.00000000000E+00 -0.00000000000E+00 -0.24129416635E+02  0.24129416635E+02  0.00000000000E+00 0.  1.
         25    1    1    2    0    0  0.00000000000E+00  0.00000000000E+00  0.13775804459E+03  0.18601687786E+03  0.12500000000E+03 0.  0.
<mgrwt>
<rscale>  0 0.12500000E+03</rscale>
<asrwt>0</asrwt>
<pdfrwt beam="1">  1       21 0.24905763E-01 0.12500000E+03</pdfrwt>
<pdfrwt beam="2">  1       21 0.37122180E-02 0.12500000E+03</pdfrwt>
<totfact> 0.66467912E+06</totfact>
</mgrwt>
</event>
<event>
 3    1  0.1592492E-001  0.1250000E+03  0.7546771E-02  0.1235069E+00
         21   -1    0    0  502  501  0.00000000000E+00  0.00000000000E+00  0.38801389422E+02  0.38801389422E+02  0.00000000000E+00 0.  1.
         21   -1    0    0  501  502 -0.00000000000E+00 -0.00000000000E+00 -0.10067294131E+03  0.10067294131E+03  0.00000000000E+00 0.  1.
         25    1    1    2    0    0  0.00000000000E+00  0.00000000000E+00 -0.61871551887E+02  0.13947433073E+03  0.12500000000E+03 0.  0.
<mgrwt>
<rscale>  0 0.12500000E+03</rscale>
<asrwt>0</asrwt>
<pdfrwt beam="1">  1       21 0.59694446E-02 0.12500000E+03</pdfrwt>
<pdfrwt beam="2">  1       21 0.15488145E-01 0.12500000E+03</pdfrwt>
<totfact> 0.72108008E+06</totfact>
</mgrwt>
</event>
<event>
 3    1  0.1592492E-001  0.1250000E+03  0.7546771E-02  0.1235069E+00
         21   -1    0    0  502  501  0.00000000000E+00  0.00000000000E+00  0.15090160896E+03  0.15090160896E+03  0.00000000000E+00 0. -1.
         21   -1    0    0  501  502 -0.00000000000E+00 -0.00000000000E+00 -0.25886072567E+02  0.25886072567E+02  0.00000000000E+00 0. -1.
         25    1    1    2    0    0  0.00000000000E+00  0.00000000000E+00  0.12501553639E+03  0.17678768153E+03  0.12500000000E+03 0.  0.
<mgrwt>
<rscale>  0 0.12500000E+03</rscale>
<asrwt>0</asrwt>
<pdfrwt beam="1">  1       21 0.23215632E-01 0.12500000E+03</pdfrwt>
<pdfrwt beam="2">  1       21 0.39824728E-02 0.12500000E+03</pdfrwt>
<totfact> 0.67521968E+06</totfact>
</mgrwt>
</event>
<event>
 3    1  0.1592492E-001  0.1250000E+03  0.7546771E-02  0.1235069E+00
         21   -1    0    0  502  501  0.00000000000E+00  0.00000000000E+00  0.50493717104E+02  0.50493717104E+02  0.00000000000E+00 0. -1.
         21   -1    0    0  501  502 -0.00000000000E+00 -0.00000000000E+00 -0.77361109937E+02  0.77361109937E+02  0.00000000000E+00 0. -1.
         25    1    1    2    0    0  0.00000000000E+00  0.00000000000E+00 -0.26867392833E+02  0.12785482704E+03  0.12500000000E+03 0.  0.
<mgrwt>
<rscale>  0 0.12500000E+03</rscale>
<asrwt>0</asrwt>
<pdfrwt beam="1">  1       21 0.77682641E-02 0.12500000E+03</pdfrwt>
<pdfrwt beam="2">  1       21 0.11901709E-01 0.12500000E+03</pdfrwt>
<totfact> 0.73653179E+06</totfact>
</mgrwt>
</event>
<event>
 3    1  0.1592492E-001  0.1250000E+03  0.7546771E-02  0.1235069E+00
         21   -1    0    0  502  501  0.00000000000E+00  0.00000000000E+00  0.15944219970E+03  0.15944219970E+03  0.00000000000E+00 0. -1.
         21   -1    0    0  501  502 -0.00000000000E+00 -0.00000000000E+00 -0.24499473837E+02  0.24499473837E+02  0.00000000000E+00 0. -1.
         25    1    1    2    0    0  0.00000000000E+00  0.00000000000E+00  0.13494272586E+03  0.18394167354E+03  0.12500000000E+03 0.  0.
<mgrwt>
<rscale>  0 0.12500000E+03</rscale>
<asrwt>0</asrwt>
<pdfrwt beam="1">  1       21 0.24529569E-01 0.12500000E+03</pdfrwt>
<pdfrwt beam="2">  1       21 0.37691499E-02 0.12500000E+03</pdfrwt>
<totfact> 0.66702212E+06</totfact>
</mgrwt>
</event>
<event>
 3    1  0.1592492E-001  0.1250000E+03  0.7546771E-02  0.1235069E+00
         21   -1    0    0  502  501  0.00000000000E+00  0.00000000000E+00  0.23090643878E+01  0.23090643878E+01  0.00000000000E+00 0. -1.
         21   -1    0    0  501  502 -0.00000000000E+00 -0.00000000000E+00 -0.16917025011E+04  0.16917025011E+04  0.00000000000E+00 0. -1.
         25    1    1    2    0    0  0.00000000000E+00  0.00000000000E+00 -0.16893934367E+04  0.16940115655E+04  0.12500000000E+03 0.  0.
<mgrwt>
<rscale>  0 0.12500000E+03</rscale>
<asrwt>0</asrwt>
<pdfrwt beam="1">  1       21 0.35524191E-03 0.12500000E+03</pdfrwt>
<pdfrwt beam="2">  1       21 0.26026102E+00 0.12500000E+03</pdfrwt>
<totfact> 0.11344802E+06</totfact>
</mgrwt>
</event>
<event>
 3    1  0.1592492E-001  0.1250000E+03  0.7546771E-02  0.1235069E+00
         21   -1    0    0  502  501  0.00000000000E+00  0.00000000000E+00  0.44740693162E+03  0.44740693162E+03  0.00000000000E+00 0.  1.
         21   -1    0    0  501  502 -0.00000000000E+00 -0.00000000000E+00 -0.87308660728E+01  0.87308660728E+01  0.00000000000E+00 0.  1.
         25    1    1    2    0    0  0.00000000000E+00  0.00000000000E+00  0.43867606554E+03  0.45613779769E+03  0.12500000000E+03 0.  0.
<mgrwt>
<rscale>  0 0.12500000E+03</rscale>
<asrwt>0</asrwt>
<pdfrwt beam="1">  1       21 0.68831817E-01 0.12500000E+03</pdfrwt>
<pdfrwt beam="2">  1       21 0.13432105E-02 0.12500000E+03</pdfrwt>
<totfact> 0.44527267E+06</totfact>
</mgrwt>
</event>
<event>
 3    1  0.1592492E-001  0.1250000E+03  0.7546771E-02  0.1235069E+00
         21   -1    0    0  502  501  0.00000000000E+00  0.00000000000E+00  0.23236541672E+01  0.23236541672E+01  0.00000000000E+00 0.  1.
         21   -1    0    0  501  502 -0.00000000000E+00 -0.00000000000E+00 -0.16810806251E+04  0.16810806251E+04  0.00000000000E+00 0.  1.
         25    1    1    2    0    0  0.00000000000E+00  0.00000000000E+00 -0.16787569709E+04  0.16834042793E+04  0.12500000000E+03 0.  0.
<mgrwt>
<rscale>  0 0.12500000E+03</rscale>
<asrwt>0</asrwt>
<pdfrwt beam="1">  1       21 0.35748508E-03 0.12500000E+03</pdfrwt>
<pdfrwt beam="2">  1       21 0.25862792E+00 0.12500000E+03</pdfrwt>
<totfact> 0.11478510E+06</totfact>
</mgrwt>
</event>
<event>
 3    1  0.1592492E-001  0.1250000E+03  0.7546771E-02  0.1235069E+00
         21   -1    0    0  502  501  0.00000000000E+00  0.00000000000E+00  0.23694741882E+03  0.23694741882E+03  0.00000000000E+00 0.  1.
         21   -1    0    0  501  502 -0.00000000000E+00 -0.00000000000E+00 -0.16485725059E+02  0.16485725059E+02  0.00000000000E+00 0.  1.
         25    1    1    2    0    0  0.00000000000E+00  0.00000000000E+00  0.22046169376E+03  0.25343314387E+03  0.12500000000E+03 0.  0.
<mgrwt>
<rscale>  0 0.12500000E+03</rscale>
<asrwt>0</asrwt>
<pdfrwt beam="1">  1       21 0.36453447E-01 0.12500000E+03</pdfrwt>
<pdfrwt beam="2">  1       21 0.25362656E-02 0.12500000E+03</pdfrwt>
<totfact> 0.59556462E+06</totfact>
</mgrwt>
</event>
<event>
 3    1  0.1592492E-001  0.1250000E+03  0.7546771E-02  0.1235069E+00
         21   -1    0    0  502  501  0.00000000000E+00  0.00000000000E+00  0.11129312547E+03  0.11129312547E+03  0.00000000000E+00 0.  1.
         21   -1    0    0  501  502 -0.00000000000E+00 -0.00000000000E+00 -0.35098753705E+02  0.35098753705E+02  0.00000000000E+00 0.  1.
         25    1    1    2    0    0  0.00000000000E+00  0.00000000000E+00  0.76194371767E+02  0.14639187918E+03  0.12500000000E+03 0.  0.
<mgrwt>
<rscale>  0 0.12500000E+03</rscale>
<asrwt>0</asrwt>
<pdfrwt beam="1">  1       21 0.17122019E-01 0.12500000E+03</pdfrwt>
<pdfrwt beam="2">  1       21 0.53998083E-02 0.12500000E+03</pdfrwt>
<totfact> 0.71215446E+06</totfact>
</mgrwt>
</event>
<event>
 3    1  0.1592492E-001  0.1250000E+03  0.7546771E-02  0.1235069E+00
         21   -1    0    0  502  501  0.00000000000E+00  0.00000000000E+00  0.10337298117E+02  0.10337298117E+02  0.00000000000E+00 0. -1.
         21   -1    0    0  501  502 -0.00000000000E+00 -0.00000000000E+00 -0.37787920554E+03  0.37787920554E+03  0.00000000000E+00 0. -1.
         25    1    1    2    0    0  0.00000000000E+00  0.00000000000E+00 -0.36754190743E+03  0.38821650366E+03  0.12500000000E+03 0.  0.
<mgrwt>
<rscale>  0 0.12500000E+03</rscale>
<asrwt>0</asrwt>
<pdfrwt beam="1">  1       21 0.15903534E-02 0.12500000E+03</pdfrwt>
<pdfrwt beam="2">  1       21 0.58135267E-01 0.12500000E+03</pdfrwt>
<totfact> 0.48832883E+06</totfact>
</mgrwt>
</event>
<event>
 3    1  0.1592492E-001  0.1250000E+03  0.7546771E-02  0.1235069E+00
         21   -1    0    0  502  501  0.00000000000E+00  0.00000000000E+00  0.63880767524E+01  0.63880767524E+01  0.00000000000E+00 0.  1.
         21   -1    0    0  501  502 -0.00000000000E+00 -0.00000000000E+00 -0.61149077436E+03  0.61149077436E+03  0.00000000000E+00 0.  1.
         25    1    1    2    0    0  0.00000000000E+00  0.00000000000E+00 -0.60510269761E+03  0.61787885111E+03  0.12500000000E+03 0.  0.
<mgrwt>
<rscale>  0 0.12500000E+03</rscale>
<asrwt>0</asrwt>
<pdfrwt beam="1">  1       21 0.98278133E-03 0.12500000E+03</pdfrwt>
<pdfrwt beam="2">  1       21 0.94075476E-01 0.12500000E+03</pdfrwt>
<totfact> 0.36296373E+06</totfact>
</mgrwt>
</event>
<event>
 3    1  0.1592492E-001  0.1250000E+03  0.7546771E-02  0.1235069E+00
         21   -1    0    0  502  501  0.00000000000E+00  0.00000000000E+00  0.57715152053E+01  0.57715152053E+01  0.00000000000E+00 0.  1.
         21   -1    0    0  501  502 -0.00000000000E+00 -0.00000000000E+00 -0.67681533550E+03  0.67681533550E+03  0.00000000000E+00 0.  1.
         25    1    1    2    0    0  0.00000000000E+00  0.00000000000E+00 -0.67104382029E+03  0.68258685070E+03  0.12500000000E+03 0.  0.
<mgrwt>
<rscale>  0 0.12500000E+03</rscale>
<asrwt>0</asrwt>
<pdfrwt beam="1">  1       21 0.88792550E-03 0.12500000E+03</pdfrwt>
<pdfrwt beam="2">  1       21 0.10412543E+00 0.12500000E+03</pdfrwt>
<totfact> 0.33592356E+06</totfact>
</mgrwt>
</event>
<event>
 3    1  0.1592492E-001  0.1250000E+03  0.7546771E-02  0.1235069E+00
         21   -1    0    0  502  501  0.00000000000E+00  0.00000000000E+00  0.15558162690E+03  0.15558162690E+03  0.00000000000E+00 0.  1.
         21   -1    0    0  501  502 -0.00000000000E+00 -0.00000000000E+00 -0.25107399106E+02  0.25107399106E+02  0.00000000000E+00 0.  1.
         25    1    1    2    0    0  0.00000000000E+00  0.00000000000E+00  0.13047422779E+03  0.18068902600E+03  0.12500000000E+03 0.  0.
<mgrwt>
<rscale>  0 0.12500000E+03</rscale>
<asrwt>0</asrwt>
<pdfrwt beam="1">  1       21 0.23935634E-01 0.12500000E+03</pdfrwt>
<pdfrwt beam="2">  1       21 0.38626769E-02 0.12500000E+03</pdfrwt>
<totfact> 0.67072582E+06</totfact>
</mgrwt>
</event>
<event>
 3    1  0.1592492E-001  0.1250000E+03  0.7546771E-02  0.1235069E+00
         21   -1    0    0  502  501  0.00000000000E+00  0.00000000000E+00  0.67940776965E+02  0.67940776965E+02  0.00000000000E+00 0. -1.
         21   -1    0    0  501  502 -0.00000000000E+00 -0.00000000000E+00 -0.57494926824E+02  0.57494926824E+02  0.00000000000E+00 0. -1.
         25    1    1    2    0    0  0.00000000000E+00  0.00000000000E+00  0.10445850141E+02  0.12543570379E+03  0.12500000000E+03 0.  0.
<mgrwt>
<rscale>  0 0.12500000E+03</rscale>
<asrwt>0</asrwt>
<pdfrwt beam="1">  1       21 0.10452427E-01 0.12500000E+03</pdfrwt>
<pdfrwt beam="2">  1       21 0.88453734E-02 0.12500000E+03</pdfrwt>
<totfact> 0.73984400E+06</totfact>
</mgrwt>
</event>
<event>
 3    1  0.1592492E-001  0.1250000E+03  0.7546771E-02  0.1235069E+00
         21   -1    0    0  502  501  0.00000000000E+00  0.00000000000E+00  0.44815839668E+01  0.44815839668E+01  0.00000000000E+00 0.  1.
         21   -1    0    0  501  502 -0.00000000000E+00 -0.00000000000E+00 -0.87162262917E+03  0.87162262917E+03  0.00000000000E+00 0.  1.
         25    1    1    2    0    0  0.00000000000E+00  0.00000000000E+00 -0.86714104520E+03  0.87610421313E+03  0.12500000000E+03 0.  0.
<mgrwt>
<rscale>  0 0.12500000E+03</rscale>
<asrwt>0</asrwt>
<pdfrwt beam="1">  1       21 0.68947475E-03 0.12500000E+03</pdfrwt>
<pdfrwt beam="2">  1       21 0.13409573E+00 0.12500000E+03</pdfrwt>
<totfact> 0.26990504E+06</totfact>
</mgrwt>
</event>
<event>
 3    1  0.1592492E-001  0.1250000E+03  0.7546771E-02  0.1235069E+00
         21   -1    0    0  502  501  0.00000000000E+00  0.00000000000E+00  0.13893352227E+02  0.13893352227E+02  0.00000000000E+00 0. -1.
         21   -1    0    0  501  502 -0.00000000000E+00 -0.00000000000E+00 -0.28115964644E+03  0.28115964644E+03  0.00000000000E+00 0. -1.
         25    1    1    2    0    0  0.00000000000E+00  0.00000000000E+00 -0.26726629421E+03  0.29505299867E+03  0.12500000000E+03 0.  0.
<mgrwt>
<rscale>  0 0.12500000E+03</rscale>
<asrwt>0</asrwt>
<pdfrwt beam="1">  1       21 0.21374390E-02 0.12500000E+03</pdfrwt>
<pdfrwt beam="2">  1       21 0.43255325E-01 0.12500000E+03</pdfrwt>
<totfact> 0.55869813E+06</totfact>
</mgrwt>
</event>
<event>
 3    1  0.1592492E-001  0.1250000E+03  0.7546771E-02  0.1235069E+00
         21   -1    0    0  502  501  0.00000000000E+00  0.00000000000E+00  0.31398305453E+03  0.31398305453E+03  0.00000000000E+00 0.  1.
         21   -1    0    0  501  502 -0.00000000000E+00 -0.00000000000E+00 -0.12440958019E+02  0.12440958019E+02  0.00000000000E+00 0.  1.
         25    1    1    2    0    0  0.00000000000E+00  0.00000000000E+00  0.30154209652E+03  0.32642401255E+03  0.12500000000E+03 0.  0.
<mgrwt>
<rscale>  0 0.12500000E+03</rscale>
<asrwt>0</asrwt>
<pdfrwt beam="1">  1       21 0.48305079E-01 0.12500000E+03</pdfrwt>
<pdfrwt beam="2">  1       21 0.19139938E-02 0.12500000E+03</pdfrwt>
<totfact> 0.53328169E+06</totfact>
</mgrwt>
</event>
<event>
 3    1  0.1592492E-001  0.1250000E+03  0.7546771E-02  0.1235069E+00
         21   -1    0    0  502  501  0.00000000000E+00  0.00000000000E+00  0.14578054706E+04  0.14578054706E+04  0.00000000000E+00 0. -1.
         21   -1    0    0  501  502 -0.00000000000E+00 -0.00000000000E+00 -0.26795413235E+01  0.26795413235E+01  0.00000000000E+00 0. -1.
         25    1    1    2    0    0  0.00000000000E+00  0.00000000000E+00  0.14551259292E+04  0.14604850119E+04  0.12500000000E+03 0.  0.
<mgrwt>
<rscale>  0 0.12500000E+03</rscale>
<asrwt>0</asrwt>
<pdfrwt beam="1">  1       21 0.22427713E+00 0.12500000E+03</pdfrwt>
<pdfrwt beam="2">  1       21 0.41223829E-03 0.12500000E+03</pdfrwt>
<totfact> 0.14589031E+06</totfact>
</mgrwt>
</event>
<event>
 3    1  0.1592492E-001  0.1250000E+03  0.7546771E-02  0.1235069E+00
         21   -1    0    0  502  501  0.00000000000E+00  0.00000000000E+00  0.39944757236E+02  0.39944757236E+02  0.00000000000E+00 0.  1.
         21   -1    0    0  501  502 -0.00000000000E+00 -0.00000000000E+00 -0.97791306552E+02  0.97791306552E+02  0.00000000000E+00 0.  1.
         25    1    1    2    0    0  0.00000000000E+00  0.00000000000E+00 -0.57846549316E+02  0.13773606379E+03  0.12500000000E+03 0.  0.
<mgrwt>
<rscale>  0 0.12500000E+03</rscale>
<asrwt>0</asrwt>
<pdfrwt beam="1">  1       21 0.61453473E-02 0.12500000E+03</pdfrwt>
<pdfrwt beam="2">  1       21 0.15044816E-01 0.12500000E+03</pdfrwt>
<totfact> 0.72336184E+06</totfact>
</mgrwt>
</event>
<event>
 3    1  0.1592492E-001  0.1250000E+03  0.7546771E-02  0.1235069E+00
         21   -1    0    0  502  501  0.00000000000E+00  0.00000000000E+00  0.88245360989E+03  0.88245360989E+03  0.00000000000E+00 0. -1.
         21   -1    0    0  501  502 -0.00000000000E+00 -0.00000000000E+00 -0.44265782997E+01  0.44265782997E+01  0.00000000000E+00 0. -1.
         25    1    1    2    0    0  0.00000000000E+00  0.00000000000E+00  0.87802703159E+03  0.88688018819E+03  0.12500000000E+03 0.  0.
<mgrwt>
<rscale>  0 0.12500000E+03</rscale>
<asrwt>0</asrwt>
<pdfrwt beam="1">  1       21 0.13576195E+00 0.12500000E+03</pdfrwt>
<pdfrwt beam="2">  1       21 0.68101275E-03 0.12500000E+03</pdfrwt>
<totfact> 0.26677099E+06</totfact>
</mgrwt>
</event>
<event>
 3    1  0.1592492E-001  0.1250000E+03  0.7546771E-02  0.1235069E+00
         21   -1    0    0  502  501  0.00000000000E+00  0.00000000000E+00  0.38779916961E+02  0.38779916961E+02  0.00000000000E+00 0.  1.
         21   -1    0    0  501  502 -0.00000000000E+00 -0.00000000000E+00 -0.10072868397E+03  0.10072868397E+03  0.00000000000E+00 0.  1.
         25    1    1    2    0    0  0.00000000000E+00  0.00000000000E+00 -0.61948767009E+02  0.13950860093E+03  0.12500000000E+03 0.  0.
<mgrwt>
<rscale>  0 0.12500000E+03</rscale>
<asrwt>0</asrwt>
<pdfrwt beam="1">  1       21 0.59661411E-02 0.12500000E+03</pdfrwt>
<pdfrwt beam="2">  1       21 0.15496720E-01 0.12500000E+03</pdfrwt>
<totfact> 0.72103524E+06</totfact>
</mgrwt>
</event>
<event>
 3    1  0.1592492E-001  0.1250000E+03  0.7546771E-02  0.1235069E+00
         21   -1    0    0  502  501  0.00000000000E+00  0.00000000000E+00  0.14394929129E+03  0.14394929129E+03  0.00000000000E+00 0.  1.
         21   -1    0    0  501  502 -0.00000000000E+00 -0.00000000000E+00 -0.27136291988E+02  0.27136291988E+02  0.00000000000E+00 0.  1.
         25    1    1    2    0    0  0.00000000000E+00  0.00000000000E+00  0.11681299930E+03  0.17108558328E+03  0.12500000000E+03 0.  0.
<mgrwt>
<rscale>  0 0.12500000E+03</rscale>
<asrwt>0</asrwt>
<pdfrwt beam="1">  1       21 0.22146044E-01 0.12500000E+03</pdfrwt>
<pdfrwt beam="2">  1       21 0.41748142E-02 0.12500000E+03</pdfrwt>
<totfact> 0.68189179E+06</totfact>
</mgrwt>
</event>
<event>
 3    1  0.1592492E-001  0.1250000E+03  0.7546771E-02  0.1235069E+00
         21   -1    0    0  502  501  0.00000000000E+00  0.00000000000E+00  0.38976403497E+03  0.38976403497E+03  0.00000000000E+00 0. -1.
         21   -1    0    0  501  502 -0.00000000000E+00 -0.00000000000E+00 -0.10022089391E+02  0.10022089391E+02  0.00000000000E+00 0. -1.
         25    1    1    2    0    0  0.00000000000E+00  0.00000000000E+00  0.37974194558E+03  0.39978612436E+03  0.12500000000E+03 0.  0.
<mgrwt>
<rscale>  0 0.12500000E+03</rscale>
<asrwt>0</asrwt>
<pdfrwt beam="1">  1       21 0.59963686E-01 0.12500000E+03</pdfrwt>
<pdfrwt beam="2">  1       21 0.15418602E-02 0.12500000E+03</pdfrwt>
<totfact> 0.48055545E+06</totfact>
</mgrwt>
</event>
<event>
 3    1  0.1592492E-001  0.1250000E+03  0.7546771E-02  0.1235069E+00
         21   -1    0    0  502  501  0.00000000000E+00  0.00000000000E+00  0.11987112479E+03  0.11987112479E+03  0.00000000000E+00 0. -1.
         21   -1    0    0  501  502 -0.00000000000E+00 -0.00000000000E+00 -0.32587080556E+02  0.32587080556E+02  0.00000000000E+00 0. -1.
         25    1    1    2    0    0  0.00000000000E+00  0.00000000000E+00  0.87284044238E+02  0.15245820535E+03  0.12500000000E+03 0.  0.
<mgrwt>
<rscale>  0 0.12500000E+03</rscale>
<asrwt>0</asrwt>
<pdfrwt beam="1">  1       21 0.18441711E-01 0.12500000E+03</pdfrwt>
<pdfrwt beam="2">  1       21 0.50133971E-02 0.12500000E+03</pdfrwt>
<totfact> 0.70451755E+06</totfact>
</mgrwt>
</event>
<event>
 3    1  0.1592492E-001  0.1250000E+03  0.7546771E-02  0.1235069E+00
         21   -1    0    0  502  501  0.00000000000E+00  0.00000000000E+00  0.12435115080E+03  0.12435115080E+03  0.00000000000E+00 0.  1.
         21   -1    0    0  501  502 -0.00000000000E+00 -0.00000000000E+00 -0.31413058705E+02  0.31413058705E+02  0.00000000000E+00 0.  1.
         25    1    1    2    0    0  0.00000000000E+00  0.00000000000E+00  0.92938092093E+02  0.15576420950E+03  0.12500000000E+03 0.  0.
<mgrwt>
<rscale>  0 0.12500000E+03</rscale>
<asrwt>0</asrwt>
<pdfrwt beam="1">  1       21 0.19130946E-01 0.12500000E+03</pdfrwt>
<pdfrwt beam="2">  1       21 0.48327783E-02 0.12500000E+03</pdfrwt>
<totfact> 0.70040802E+06</totfact>
</mgrwt>
</event>
<event>
 3    1  0.1592492E-001  0.1250000E+03  0.7546771E-02  0.1235069E+00
         21   -1    0    0  502  501  0.00000000000E+00  0.00000000000E+00  0.53895344926E+01  0.53895344926E+01  0.00000000000E+00 0.  1.
         21   -1    0    0  501  502 -0.00000000000E+00 -0.00000000000E+00 -0.72478430286E+03  0.72478430286E+03  0.00000000000E+00 0.  1.
         25    1    1    2    0    0  0.00000000000E+00  0.00000000000E+00 -0.71939476837E+03  0.73017383736E+03  0.12500000000E+03 0.  0.
<mgrwt>
<rscale>  0 0.12500000E+03</rscale>
<asrwt>0</asrwt>
<pdfrwt beam="1">  1       21 0.82915877E-03 0.12500000E+03</pdfrwt>
<pdfrwt beam="2">  1       21 0.11150533E+00 0.12500000E+03</pdfrwt>
<totfact> 0.31778764E+06</totfact>
</mgrwt>
</event>
<event>
 3    1  0.1592492E-001  0.1250000E+03  0.7546771E-02  0.1235069E+00
         21   -1    0    0  502  501  0.00000000000E+00  0.00000000000E+00  0.75968903047E+01  0.75968903047E+01  0.00000000000E+00 0. -1.
         21   -1    0    0  501  502 -0.00000000000E+00 -0.00000000000E+00 -0.51419065477E+03  0.51419065477E+03  0.00000000000E+00 0. -1.
         25    1    1    2    0    0  0.00000000000E+00  0.00000000000E+00 -0.50659376447E+03  0.52178754508E+03  0.12500000000E+03 0.  0.
<mgrwt>
<rscale>  0 0.12500000E+03</rscale>
<asrwt>0</asrwt>
<pdfrwt beam="1">  1       21 0.11687521E-02 0.12500000E+03</pdfrwt>
<pdfrwt beam="2">  1       21 0.79106271E-01 0.12500000E+03</pdfrwt>
<totfact> 0.40886602E+06</totfact>
</mgrwt>
</event>
<event>
 3    1  0.1592492E-001  0.1250000E+03  0.7546771E-02  0.1235069E+00
         21   -1    0    0  502  501  0.00000000000E+00  0.00000000000E+00  0.56354446161E+02  0.56354446161E+02  0.00000000000E+00 0. -1.
         21   -1    0    0  501  502 -0.00000000000E+00 -0.00000000000E+00 -0.69315737552E+02  0.69315737552E+02  0.00000000000E+00 0. -1.
         25    1    1    2    0    0  0.00000000000E+00  0.00000000000E+00 -0.12961291391E+02  0.12567018371E+03  0.12500000000E+03 0.  0.
<mgrwt>
<rscale>  0 0.12500000E+03</rscale>
<asrwt>0</asrwt>
<pdfrwt beam="1">  1       21 0.86699148E-02 0.12500000E+03</pdfrwt>
<pdfrwt beam="2">  1       21 0.10663960E-01 0.12500000E+03</pdfrwt>
<totfact> 0.73951679E+06</totfact>
</mgrwt>
</event>
<event>
 3    1  0.1592492E-001  0.1250000E+03  0.7546771E-02  0.1235069E+00
         21   -1    0    0  502  501  0.00000000000E+00  0.00000000000E+00  0.11459501787E+04  0.11459501787E+04  0.00000000000E+00 0.  1.
         21   -1    0    0  501  502 -0.00000000000E+00 -0.00000000000E+00 -0.34087433053E+01  0.34087433053E+01  0.00000000000E+00 0.  1.
         25    1    1    2    0    0  0.00000000000E+00  0.00000000000E+00  0.11425414354E+04  0.11493589220E+04  0.12500000000E+03 0.  0.
<mgrwt>
<rscale>  0 0.12500000E+03</rscale>
<asrwt>0</asrwt>
<pdfrwt beam="1">  1       21 0.17629972E+00 0.12500000E+03</pdfrwt>
<pdfrwt beam="2">  1       21 0.52442296E-03 0.12500000E+03</pdfrwt>
<totfact> 0.20182736E+06</totfact>
</mgrwt>
</event>
<event>
 3    1  0.1592492E-001  0.1250000E+03  0.7546771E-02  0.1235069E+00
         21   -1    0    0  502  501  0.00000000000E+00  0.00000000000E+00  0.40374885924E+01  0.40374885924E+01  0.00000000000E+00 0.  1.
         21   -1    0    0  501  502 -0.00000000000E+00 -0.00000000000E+00 -0.96749499363E+03  0.96749499363E+03  0.00000000000E+00 0.  1.
         25    1    1    2    0    0  0.00000000000E+00  0.00000000000E+00 -0.96345750503E+03  0.97153248222E+03  0.12500000000E+03 0.  0.
<mgrwt>
<rscale>  0 0.12500000E+03</rscale>
<asrwt>0</asrwt>
<pdfrwt beam="1">  1       21 0.62115171E-03 0.12500000E+03</pdfrwt>
<pdfrwt beam="2">  1       21 0.14884548E+00 0.12500000E+03</pdfrwt>
<totfact> 0.24343614E+06</totfact>
</mgrwt>
</event>
<event>
 3    1  0.1592492E-001  0.1250000E+03  0.7546771E-02  0.1235069E+00
         21   -1    0    0  502  501  0.00000000000E+00  0.00000000000E+00  0.16512921220E+04  0.16512921220E+04  0.00000000000E+00 0. -1.
         21   -1    0    0  501  502 -0.00000000000E+00 -0.00000000000E+00 -0.23655717531E+01  0.23655717531E+01  0.00000000000E+00 0. -1.
         25    1    1    2    0    0  0.00000000000E+00  0.00000000000E+00  0.16489265503E+04  0.16536576938E+04  0.12500000000E+03 0.  0.
<mgrwt>
<rscale>  0 0.12500000E+03</rscale>
<asrwt>0</asrwt>
<pdfrwt beam="1">  1       21 0.25404402E+00 0.12500000E+03</pdfrwt>
<pdfrwt beam="2">  1       21 0.36393543E-03 0.12500000E+03</pdfrwt>
<totfact> 0.11860343E+06</totfact>
</mgrwt>
</event>
<event>
 3    1  0.1592492E-001  0.1250000E+03  0.7546771E-02  0.1235069E+00
         21   -1    0    0  502  501  0.00000000000E+00  0.00000000000E+00  0.27469597108E+03  0.27469597108E+03  0.00000000000E+00 0. -1.
         21   -1    0    0  501  502 -0.00000000000E+00 -0.00000000000E+00 -0.14220266808E+02  0.14220266808E+02  0.00000000000E+00 0. -1.
         25    1    1    2    0    0  0.00000000000E+00  0.00000000000E+00  0.26047570428E+03  0.28891623789E+03  0.12500000000E+03 0.  0.
<mgrwt>
<rscale>  0 0.12500000E+03</rscale>
<asrwt>0</asrwt>
<pdfrwt beam="1">  1       21 0.42260915E-01 0.12500000E+03</pdfrwt>
<pdfrwt beam="2">  1       21 0.21877336E-02 0.12500000E+03</pdfrwt>
<totfact> 0.56390044E+06</totfact>
</mgrwt>
</event>
<event>
 3    1  0.1592492E-001  0.1250000E+03  0.7546771E-02  0.1235069E+00
         21   -1    0    0  502  501  0.00000000000E+00  0.00000000000E+00  0.22525709056E+03  0.22525709056E+03  0.00000000000E+00 0.  1.
         21   -1    0    0  501  502 -0.00000000000E+00 -0.00000000000E+00 -0.17341296517E+02  0.17341296517E+02  0.00000000000E+00 0.  1.
         25    1    1    2    0    0  0.00000000000E+00  0.00000000000E+00  0.20791579405E+03  0.24259838708E+03  0.12500000000E+03 0.  0.
<mgrwt>
<rscale>  0 0.12500000E+03</rscale>
<asrwt>0</asrwt>
<pdfrwt beam="1">  1       21 0.34654935E-01 0.12500000E+03</pdfrwt>
<pdfrwt beam="2">  1       21 0.26678919E-02 0.12500000E+03</pdfrwt>
<totfact> 0.60582126E+06</totfact>
</mgrwt>
</event>
<event>
 3    1  0.1592492E-001  0.1250000E+03  0.7546771E-02  0.1235069E+00
         21   -1    0    0  502  501  0.00000000000E+00  0.00000000000E+00  0.13895995118E+03  0.13895995118E+03  0.00000000000E+00 0. -1.
         21   -1    0    0  501  502 -0.00000000000E+00 -0.00000000000E+00 -0.28110617246E+02  0.28110617246E+02  0.00000000000E+00 0. -1.
         25    1    1    2    0    0  0.00000000000E+00  0.00000000000E+00  0.11084933393E+03  0.16707056842E+03  0.12500000000E+03 0.  0.
<mgrwt>
<rscale>  0 0.12500000E+03</rscale>
<asrwt>0</asrwt>
<pdfrwt beam="1">  1       21 0.21378454E-01 0.12500000E+03</pdfrwt>
<pdfrwt beam="2">  1       21 0.43247104E-02 0.12500000E+03</pdfrwt>
<totfact> 0.68665704E+06</totfact>
</mgrwt>
</event>
<event>
 3    1  0.1592492E-001  0.1250000E+03  0.7546771E-02  0.1235069E+00
         21   -1    0    0  502  501  0.00000000000E+00  0.00000000000E+00  0.40098043510E+02  0.40098043510E+02  0.00000000000E+00 0.  1.
         21   -1    0    0  501  502 -0.00000000000E+00 -0.00000000000E+00 -0.97417471230E+02  0.97417471230E+02  0.00000000000E+00 0.  1.
         25    1    1    2    0    0  0.00000000000E+00  0.00000000000E+00 -0.57319427720E+02  0.13751551474E+03  0.12500000000E+03 0.  0.
<mgrwt>
<rscale>  0 0.12500000E+03</rscale>
<asrwt>0</asrwt>
<pdfrwt beam="1">  1       21 0.61689298E-02 0.12500000E+03</pdfrwt>
<pdfrwt beam="2">  1       21 0.14987303E-01 0.12500000E+03</pdfrwt>
<totfact> 0.72365082E+06</totfact>
</mgrwt>
</event>
<event>
 3    1  0.1592492E-001  0.1250000E+03  0.7546771E-02  0.1235069E+00
         21   -1    0    0  502  501  0.00000000000E+00  0.00000000000E+00  0.42043539418E+01  0.42043539418E+01  0.00000000000E+00 0. -1.
         21   -1    0    0  501  502 -0.00000000000E+00 -0.00000000000E+00 -0.92909637344E+03  0.92909637344E+03  0.00000000000E+00 0. -1.
         25    1    1    2    0    0  0.00000000000E+00  0.00000000000E+00 -0.92489201950E+03  0.93330072738E+03  0.12500000000E+03 0.  0.
<mgrwt>
<rscale>  0 0.12500000E+03</rscale>
<asrwt>0</asrwt>
<pdfrwt beam="1">  1       21 0.64682362E-03 0.12500000E+03</pdfrwt>
<pdfrwt beam="2">  1       21 0.14293792E+00 0.12500000E+03</pdfrwt>
<totfact> 0.25363899E+06</totfact>
</mgrwt>
</event>
<event>
 3    1  0.1592492E-001  0.1250000E+03  0.7546771E-02  0.1235069E+00
         21   -1    0    0  502  501  0.00000000000E+00  0.00000000000E+00  0.67008051550E+01  0.67008051550E+01  0.00000000000E+00 0.  1.
         21   -1    0    0  501  502 -0.00000000000E+00 -0.00000000000E+00 -0.58295233328E+03  0.58295233328E+03  0.00000000000E+00 0.  1.
         25    1    1    2    0    0  0.00000000000E+00  0.00000000000E+00 -0.57625152813E+03  0.58965313844E+03  0.12500000000E+03 0.  0.
<mgrwt>
<rscale>  0 0.12500000E+03</rscale>
<asrwt>0</asrwt>
<pdfrwt beam="1">  1       21 0.10308931E-02 0.12500000E+03</pdfrwt>
<pdfrwt beam="2">  1       21 0.89684971E-01 0.12500000E+03</pdfrwt>
<totfact> 0.37564774E+06</totfact>
</mgrwt>
</event>
<event>
 3    1  0.1592492E-001  0.1250000E+03  0.7546771E-02  0.1235069E+00
         21   -1    0    0  502  501  0.00000000000E+00  0.00000000000E+00  0.60407079246E+01  0.60407079246E+01  0.00000000000E+00 0.  1.
         21   -1    0    0  501  502 -0.00000000000E+00 -0.00000000000E+00 -0.64665434064E+03  0.64665434064E+03  0.00000000000E+00 0.  1.
         25    1    1    2    0    0  0.00000000000E+00  0.00000000000E+00 -0.64061363271E+03  0.65269504856E+03  0.12500000000E+03 0.  0.
<mgrwt>
<rscale>  0 0.12500000E+03</rscale>
<asrwt>0</asrwt>
<pdfrwt beam="1">  1       21 0.92933995E-03 0.12500000E+03</pdfrwt>
<pdfrwt beam="2">  1       21 0.99485254E-01 0.12500000E+03</pdfrwt>
<totfact> 0.34812703E+06</totfact>
</mgrwt>
</event>
<event>
 3    1  0.1592492E-001  0.1250000E+03  0.7546771E-02  0.1235069E+00
         21   -1    0    0  502  501  0.00000000000E+00  0.00000000000E+00  0.18337255034E+02  0.18337255034E+02  0.00000000000E+00 0. -1.
         21   -1    0    0  501  502 -0.00000000000E+00 -0.00000000000E+00 -0.21302261395E+03  0.21302261395E+03  0.00000000000E+00 0. -1.
         25    1    1    2    0    0  0.00000000000E+00  0.00000000000E+00 -0.19468535891E+03  0.23135986898E+03  0.12500000000E+03 0.  0.
<mgrwt>
<rscale>  0 0.12500000E+03</rscale>
<asrwt>0</asrwt>
<pdfrwt beam="1">  1       21 0.28211163E-02 0.12500000E+03</pdfrwt>
<pdfrwt beam="2">  1       21 0.32772708E-01 0.12500000E+03</pdfrwt>
<totfact> 0.61678910E+06</totfact>
</mgrwt>
</event>
<event>
 3    1  0.1592492E-001  0.1250000E+03  0.7546771E-02  0.1235069E+00
         21   -1    0    0  502  501  0.00000000000E+00  0.00000000000E+00  0.49489919077E+03  0.49489919077E+03  0.00000000000E+00 0. -1.
         21   -1    0    0  501  502 -0.00000000000E+00 -0.00000000000E+00 -0.78930215948E+01  0.78930215948E+01  0.00000000000E+00 0. -1.
         25    1    1    2    0    0  0.00000000000E+00  0.00000000000E+00  0.48700616918E+03  0.50279221237E+03  0.12500000000E+03 0.  0.
<mgrwt>
<rscale>  0 0.12500000E+03</rscale>
<asrwt>0</asrwt>
<pdfrwt beam="1">  1       21 0.76138312E-01 0.12500000E+03</pdfrwt>
<pdfrwt beam="2">  1       21 0.12143114E-02 0.12500000E+03</pdfrwt>
<totfact> 0.41893055E+06</totfact>
</mgrwt>
</event>
<event>
 3    1  0.1592492E-001  0.1250000E+03  0.7546771E-02  0.1235069E+00
         21   -1    0    0  502  501  0.00000000000E+00  0.00000000000E+00  0.48248324497E+02  0.48248324497E+02  0.00000000000E+00 0.  1.
         21   -1    0    0  501  502 -0.00000000000E+00 -0.00000000000E+00 -0.80961360643E+02  0.80961360643E+02  0.00000000000E+00 0.  1.
         25    1    1    2    0    0  0.00000000000E+00  0.00000000000E+00 -0.32713036147E+02  0.12920968514E+03  0.12500000000E+03 0.  0.
<mgrwt>
<rscale>  0 0.12500000E+03</rscale>
<asrwt>0</asrwt>
<pdfrwt beam="1">  1       21 0.74228192E-02 0.12500000E+03</pdfrwt>
<pdfrwt beam="2">  1       21 0.12455594E-01 0.12500000E+03</pdfrwt>
<totfact> 0.73470735E+06</totfact>
</mgrwt>
</event>
<event>
 3    1  0.1592492E-001  0.1250000E+03  0.7546771E-02  0.1235069E+00
         21   -1    0    0  502  501  0.00000000000E+00  0.00000000000E+00  0.13829108913E+03  0.13829108913E+03  0.00000000000E+00 0. -1.
         21   -1    0    0  501  502 -0.00000000000E+00 -0.00000000000E+00 -0.28246577741E+02  0.28246577741E+02  0.00000000000E+00 0. -1.
         25    1    1    2    0    0  0.00000000000E+00  0.00000000000E+00  0.11004451139E+03  0.16653766687E+03  0.12500000000E+03 0.  0.
<mgrwt>
<rscale>  0 0.12500000E+03</rscale>
<asrwt>0</asrwt>
<pdfrwt beam="1">  1       21 0.21275552E-01 0.12500000E+03</pdfrwt>
<pdfrwt beam="2">  1       21 0.43456274E-02 0.12500000E+03</pdfrwt>
<totfact> 0.68729356E+06</totfact>
</mgrwt>
</event>
<event>
 3    1  0.1592492E-001  0.1250000E+03  0.7546771E-02  0.1235069E+00
         21   -1    0    0  502  501  0.00000000000E+00  0.00000000000E+00  0.12250599516E+03  0.12250599516E+03  0.00000000000E+00 0.  1.
         21   -1    0    0  501  502 -0.00000000000E+00 -0.00000000000E+00 -0.31886194588E+02  0.31886194588E+02  0.00000000000E+00 0.  1.
         25    1    1    2    0    0  0.00000000000E+00  0.00000000000E+00  0.90619800575E+02  0.15439218975E+03  0.12500000000E+03 0.  0.
<mgrwt>
<rscale>  0 0.12500000E+03</rscale>
<asrwt>0</asrwt>
<pdfrwt beam="1">  1       21 0.18847076E-01 0.12500000E+03</pdfrwt>
<pdfrwt beam="2">  1       21 0.49055684E-02 0.12500000E+03</pdfrwt>
<totfact> 0.70211281E+06</totfact>
</mgrwt>
</event>
<event>
 3    1  0.1592492E-001  0.1250000E+03  0.7546771E-02  0.1235069E+00
         21   -1    0    0  502  501  0.00000000000E+00  0.00000000000E+00  0.38377705729E+03  0.38377705729E+03  0.00000000000E+00 0.  1.
         21   -1    0    0  501  502 -0.00000000000E+00 -0.00000000000E+00 -0.10178435438E+02  0.10178435438E+02  0.00000000000E+00 0.  1.
         25    1    1    2    0    0  0.00000000000E+00  0.00000000000E+00  0.37359862185E+03  0.39395549272E+03  0.12500000000E+03 0.  0.
<mgrwt>
<rscale>  0 0.12500000E+03</rscale>
<asrwt>0</asrwt>
<pdfrwt beam="1">  1       21 0.59042613E-01 0.12500000E+03</pdfrwt>
<pdfrwt beam="2">  1       21 0.15659134E-02 0.12500000E+03</pdfrwt>
<totfact> 0.48444882E+06</totfact>
</mgrwt>
</event>
<event>
 3    1  0.1592492E-001  0.1250000E+03  0.7546771E-02  0.1235069E+00
         21   -1    0    0  502  501  0.00000000000E+00  0.00000000000E+00  0.50562039711E+01  0.50562039711E+01  0.00000000000E+00 0. -1.
         21   -1    0    0  501  502 -0.00000000000E+00 -0.00000000000E+00 -0.77256574741E+03  0.77256574741E+03  0.00000000000E+00 0. -1.
         25    1    1    2    0    0  0.00000000000E+00  0.00000000000E+00 -0.76750954344E+03  0.77762195139E+03  0.12500000000E+03 0.  0.
<mgrwt>
<rscale>  0 0.12500000E+03</rscale>
<asrwt>0</asrwt>
<pdfrwt beam="1">  1       21 0.77787751E-03 0.12500000E+03</pdfrwt>
<pdfrwt beam="2">  1       21 0.11885627E+00 0.12500000E+03</pdfrwt>
<totfact> 0.30117758E+06</totfact>
</mgrwt>
</event>
<event>
 3    1  0.1592492E-001  0.1250000E+03  0.7546771E-02  0.1235069E+00
         21   -1    0    0  502  501  0.00000000000E+00  0.00000000000E+00  0.29641489020E+03  0.29641489020E+03  0.00000000000E+00 0.  1.
         21   -1    0    0  501  502 -0.00000000000E+00 -0.00000000000E+00 -0.13178319069E+02  0.13178319069E+02  0.00000000000E+00 0.  1.
         25    1    1    2    0    0  0.00000000000E+00  0.00000000000E+00  0.28323657113E+03  0.30959320927E+03  0.12500000000E+03 0.  0.
<mgrwt>
<rscale>  0 0.12500000E+03</rscale>
<asrwt>0</asrwt>
<pdfrwt beam="1">  1       21 0.45602286E-01 0.12500000E+03</pdfrwt>
<pdfrwt beam="2">  1       21 0.20274339E-02 0.12500000E+03</pdfrwt>
<totfact> 0.54668247E+06</totfact>
</mgrwt>
</event>
<event>
 3    1  0.1592492E-001  0.1250000E+03  0.7546771E-02  0.1235069E+00
         21   -1    0    0  502  501  0.00000000000E+00  0.00000000000E+00  0.24387896080E+02  0.24387896080E+02  0.00000000000E+00 0.  1.
         21   -1    0    0  501  502 -0.00000000000E+00 -0.00000000000E+00 -0.16017166824E+03  0.16017166824E+03  0.00000000000E+00 0.  1.
         25    1    1    2    0    0  0.00000000000E+00  0.00000000000E+00 -0.13578377216E+03  0.18455956432E+03  0.12500000000E+03 0.  0.
<mgrwt>
<rscale>  0 0.12500000E+03</rscale>
<asrwt>0</asrwt>
<pdfrwt beam="1">  1       21 0.37519839E-02 0.12500000E+03</pdfrwt>
<pdfrwt beam="2">  1       21 0.24641796E-01 0.12500000E+03</pdfrwt>
<totfact> 0.66632288E+06</totfact>
</mgrwt>
</event>
<event>
 3    1  0.1592492E-001  0.1250000E+03  0.7546771E-02  0.1235069E+00
         21   -1    0    0  502  501  0.00000000000E+00  0.00000000000E+00  0.22142460635E+03  0.22142460635E+03  0.00000000000E+00 0.  1.
         21   -1    0    0  501  502 -0.00000000000E+00 -0.00000000000E+00 -0.17641444934E+02  0.17641444934E+02  0.00000000000E+00 0.  1.
         25    1    1    2    0    0  0.00000000000E+00  0.00000000000E+00  0.20378316142E+03  0.23906605128E+03  0.12500000000E+03 0.  0.
<mgrwt>
<rscale>  0 0.12500000E+03</rscale>
<asrwt>0</asrwt>
<pdfrwt beam="1">  1       21 0.34065322E-01 0.12500000E+03</pdfrwt>
<pdfrwt beam="2">  1       21 0.27140686E-02 0.12500000E+03</pdfrwt>
<totfact> 0.60923157E+06</totfact>
</mgrwt>
</event>
<event>
 3    1  0.1592492E-001  0.1250000E+03  0.7546771E-02  0.1235069E+00
         21   -1    0    0  502  501  0.00000000000E+00  0.00000000000E+00  0.22005374593E+02  0.22005374593E+02  0.00000000000E+00 0. -1.
         21   -1    0    0  501  502 -0.00000000000E+00 -0.00000000000E+00 -0.17751345171E+03  0.17751345171E+03  0.00000000000E+00 0. -1.
         25    1    1    2    0    0  0.00000000000E+00  0.00000000000E+00 -0.15550807711E+03  0.19951882630E+03  0.12500000000E+03 0.  0.
<mgrwt>
<rscale>  0 0.12500000E+03</rscale>
<asrwt>0</asrwt>
<pdfrwt beam="1">  1       21 0.33854423E-02 0.12500000E+03</pdfrwt>
<pdfrwt beam="2">  1       21 0.27309761E-01 0.12500000E+03</pdfrwt>
<totfact> 0.64979428E+06</totfact>
</mgrwt>
</event>
<event>
 3    1  0.1592492E-001  0.1250000E+03  0.7546771E-02  0.1235069E+00
         21   -1    0    0  502  501  0.00000000000E+00  0.00000000000E+00  0.58172709959E+03  0.58172709959E+03  0.00000000000E+00 0. -1.
         21   -1    0    0  501  502 -0.00000000000E+00 -0.00000000000E+00 -0.67149183918E+01  0.67149183918E+01  0.00000000000E+00 0. -1.
         25    1    1    2    0    0  0.00000000000E+00  0.00000000000E+00  0.57501218119E+03  0.58844201798E+03  0.12500000000E+03 0.  0.
<mgrwt>
<rscale>  0 0.12500000E+03</rscale>
<asrwt>0</asrwt>
<pdfrwt beam="1">  1       21 0.89496437E-01 0.12500000E+03</pdfrwt>
<pdfrwt beam="2">  1       21 0.10330648E-02 0.12500000E+03</pdfrwt>
<totfact> 0.37620608E+06</totfact>
</mgrwt>
</event>
<event>
 3    1  0.1592492E-001  0.1250000E+03  0.7546771E-02  0.1235069E+00
         21   -1    0    0  502  501  0.00000000000E+00  0.00000000000E+00  0.23794359461E+03  0.23794359461E+03  0.00000000000E+00 0. -1.
         21   -1    0    0  501  502 -0.00000000000E+00 -0.00000000000E+00 -0.16416705843E+02  0.16416705843E+02  0.00000000000E+00 0. -1.
         25    1    1    2    0    0  0.00000000000E+00  0.00000000000E+00  0.22152688877E+03  0.25436030045E+03  0.12500000000E+03 0.  0.
<mgrwt>
<rscale>  0 0.12500000E+03</rscale>
<asrwt>0</asrwt>
<pdfrwt beam="1">  1       21 0.36606704E-01 0.12500000E+03</pdfrwt>
<pdfrwt beam="2">  1       21 0.25256472E-02 0.12500000E+03</pdfrwt>
<totfact> 0.59470086E+06</totfact>
</mgrwt>
</event>
<event>
 3    1  0.1592492E-001  0.1250000E+03  0.7546771E-02  0.1235069E+00
         21   -1    0    0  502  501  0.00000000000E+00  0.00000000000E+00  0.13790975546E+03  0.13790975546E+03  0.00000000000E+00 0.  1.
         21   -1    0    0  501  502 -0.00000000000E+00 -0.00000000000E+00 -0.28324682231E+02  0.28324682231E+02  0.00000000000E+00 0.  1.
         25    1    1    2    0    0  0.00000000000E+00  0.00000000000E+00  0.10958507323E+03  0.16623443769E+03  0.12500000000E+03 0.  0.
<mgrwt>
<rscale>  0 0.12500000E+03</rscale>
<asrwt>0</asrwt>
<pdfrwt beam="1">  1       21 0.21216885E-01 0.12500000E+03</pdfrwt>
<pdfrwt beam="2">  1       21 0.43576435E-02 0.12500000E+03</pdfrwt>
<totfact> 0.68765626E+06</totfact>
</mgrwt>
</event>
<event>
 3    1  0.1592492E-001  0.1250000E+03  0.7546771E-02  0.1235069E+00
         21   -1    0    0  502  501  0.00000000000E+00  0.00000000000E+00  0.28301229456E+03  0.28301229456E+03  0.00000000000E+00 0.  1.
         21   -1    0    0  501  502 -0.00000000000E+00 -0.00000000000E+00 -0.13802403906E+02  0.13802403906E+02  0.00000000000E+00 0.  1.
         25    1    1    2    0    0  0.00000000000E+00  0.00000000000E+00  0.26920989066E+03  0.29681469847E+03  0.12500000000E+03 0.  0.
<mgrwt>
<rscale>  0 0.12500000E+03</rscale>
<asrwt>0</asrwt>
<pdfrwt beam="1">  1       21 0.43540349E-01 0.12500000E+03</pdfrwt>
<pdfrwt beam="2">  1       21 0.21234470E-02 0.12500000E+03</pdfrwt>
<totfact> 0.55721929E+06</totfact>
</mgrwt>
</event>
<event>
 3    1  0.1592492E-001  0.1250000E+03  0.7546771E-02  0.1235069E+00
         21   -1    0    0  502  501  0.00000000000E+00  0.00000000000E+00  0.47974481077E+03  0.47974481077E+03  0.00000000000E+00 0.  1.
         21   -1    0    0  501  502 -0.00000000000E+00 -0.00000000000E+00 -0.81423496665E+01  0.81423496665E+01  0.00000000000E+00 0.  1.
         25    1    1    2    0    0  0.00000000000E+00  0.00000000000E+00  0.47160246110E+03  0.48788716044E+03  0.12500000000E+03 0.  0.
<mgrwt>
<rscale>  0 0.12500000E+03</rscale>
<asrwt>0</asrwt>
<pdfrwt beam="1">  1       21 0.73806872E-01 0.12500000E+03</pdfrwt>
<pdfrwt beam="2">  1       21 0.12526696E-02 0.12500000E+03</pdfrwt>
<totfact> 0.42708696E+06</totfact>
</mgrwt>
</event>
<event>
 3    1  0.1592492E-001  0.1250000E+03  0.7546771E-02  0.1235069E+00
         21   -1    0    0  502  501  0.00000000000E+00  0.00000000000E+00  0.11526456865E+02  0.11526456865E+02  0.00000000000E+00 0. -1.
         21   -1    0    0  501  502 -0.00000000000E+00 -0.00000000000E+00 -0.33889425396E+03  0.33889425396E+03  0.00000000000E+00 0. -1.
         25    1    1    2    0    0  0.00000000000E+00  0.00000000000E+00 -0.32736779709E+03  0.35042071082E+03  0.12500000000E+03 0.  0.
<mgrwt>
<rscale>  0 0.12500000E+03</rscale>
<asrwt>0</asrwt>
<pdfrwt beam="1">  1       21 0.17733013E-02 0.12500000E+03</pdfrwt>
<pdfrwt beam="2">  1       21 0.52137570E-01 0.12500000E+03</pdfrwt>
<totfact> 0.51507379E+06</totfact>
</mgrwt>
</event>
<event>
 3    1  0.1592492E-001  0.1250000E+03  0.7546771E-02  0.1235069E+00
         21   -1    0    0  502  501  0.00000000000E+00  0.00000000000E+00  0.17204880697E+02  0.17204880697E+02  0.00000000000E+00 0.  1.
         21   -1    0    0  501  502 -0.00000000000E+00 -0.00000000000E+00 -0.22704313204E+03  0.22704313204E+03  0.00000000000E+00 0.  1.
         25    1    1    2    0    0  0.00000000000E+00  0.00000000000E+00 -0.20983825135E+03  0.24424801274E+03  0.12500000000E+03 0.  0.
<mgrwt>
<rscale>  0 0.12500000E+03</rscale>
<asrwt>0</asrwt>
<pdfrwt beam="1">  1       21 0.26469048E-02 0.12500000E+03</pdfrwt>
<pdfrwt beam="2">  1       21 0.34929712E-01 0.12500000E+03</pdfrwt>
<totfact> 0.60423997E+06</totfact>
</mgrwt>
</event>
<event>
 3    1  0.1592492E-001  0.1250000E+03  0.7546771E-02  0.1235069E+00
         21   -1    0    0  502  501  0.00000000000E+00  0.00000000000E+00  0.84852950005E+02  0.84852950005E+02  0.00000000000E+00 0. -1.
         21   -1    0    0  501  502 -0.00000000000E+00 -0.00000000000E+00 -0.46035523806E+02  0.46035523806E+02  0.00000000000E+00 0. -1.
         25    1    1    2    0    0  0.00000000000E+00  0.00000000000E+00  0.38817426199E+02  0.13088847381E+03  0.12500000000E+03 0.  0.
<mgrwt>
<rscale>  0 0.12500000E+03</rscale>
<asrwt>0</asrwt>
<pdfrwt beam="1">  1       21 0.13054300E-01 0.12500000E+03</pdfrwt>
<pdfrwt beam="2">  1       21 0.70823883E-02 0.12500000E+03</pdfrwt>
<totfact> 0.73245704E+06</totfact>
</mgrwt>
</event>
<event>
 3    1  0.1592492E-001  0.1250000E+03  0.7546771E-02  0.1235069E+00
         21   -1    0    0  502  501  0.00000000000E+00  0.00000000000E+00  0.58668965041E+02  0.58668965041E+02  0.00000000000E+00 0. -1.
         21   -1    0    0  501  502 -0.00000000000E+00 -0.00000000000E+00 -0.66581198378E+02  0.66581198378E+02  0.00000000000E+00 0. -1.
         25    1    1    2    0    0  0.00000000000E+00  0.00000000000E+00 -0.79122333374E+01  0.12525016342E+03  0.12500000000E+03 0.  0.
<mgrwt>
<rscale>  0 0.12500000E+03</rscale>
<asrwt>0</asrwt>
<pdfrwt beam="1">  1       21 0.90259947E-02 0.12500000E+03</pdfrwt>
<pdfrwt beam="2">  1       21 0.10243261E-01 0.12500000E+03</pdfrwt>
<totfact> 0.74009799E+06</totfact>
</mgrwt>
</event>
<event>
 3    1  0.1592492E-001  0.1250000E+03  0.7546771E-02  0.1235069E+00
         21   -1    0    0  502  501  0.00000000000E+00  0.00000000000E+00  0.56756807683E+02  0.56756807683E+02  0.00000000000E+00 0. -1.
         21   -1    0    0  501  502 -0.00000000000E+00 -0.00000000000E+00 -0.68824343007E+02  0.68824343007E+02  0.00000000000E+00 0. -1.
         25    1    1    2    0    0  0.00000000000E+00  0.00000000000E+00 -0.12067535324E+02  0.12558115069E+03  0.12500000000E+03 0.  0.
<mgrwt>
<rscale>  0 0.12500000E+03</rscale>
<asrwt>0</asrwt>
<pdfrwt beam="1">  1       21 0.87318166E-02 0.12500000E+03</pdfrwt>
<pdfrwt beam="2">  1       21 0.10588360E-01 0.12500000E+03</pdfrwt>
<totfact> 0.73964069E+06</totfact>
</mgrwt>
</event>
<event>
 3    1  0.1592492E-001  0.1250000E+03  0.7546771E-02  0.1235069E+00
         21   -1    0    0  502  501  0.00000000000E+00  0.00000000000E+00  0.66702197515E+02  0.66702197515E+02  0.00000000000E+00 0.  1.
         21   -1    0    0  501  502 -0.00000000000E+00 -0.00000000000E+00 -0.58562538350E+02  0.58562538350E+02  0.00000000000E+00 0.  1.
         25    1    1    2    0    0  0.00000000000E+00  0.00000000000E+00  0.81396591644E+01  0.12526473586E+03  0.12500000000E+03 0.  0.
<mgrwt>
<rscale>  0 0.12500000E+03</rscale>
<asrwt>0</asrwt>
<pdfrwt beam="1">  1       21 0.10261877E-01 0.12500000E+03</pdfrwt>
<pdfrwt beam="2">  1       21 0.90096213E-02 0.12500000E+03</pdfrwt>
<totfact> 0.74007832E+06</totfact>
</mgrwt>
</event>
<event>
 3    1  0.1592492E-001  0.1250000E+03  0.7546771E-02  0.1235069E+00
         21   -1    0    0  502  501  0.00000000000E+00  0.00000000000E+00  0.60359907161E+03  0.60359907161E+03  0.00000000000E+00 0. -1.
         21   -1    0    0  501  502 -0.00000000000E+00 -0.00000000000E+00 -0.64715970977E+01  0.64715970977E+01  0.00000000000E+00 0. -1.
         25    1    1    2    0    0  0.00000000000E+00  0.00000000000E+00  0.59712747451E+03  0.61007066871E+03  0.12500000000E+03 0.  0.
<mgrwt>
<rscale>  0 0.12500000E+03</rscale>
<asrwt>0</asrwt>
<pdfrwt beam="1">  1       21 0.92861352E-01 0.12500000E+03</pdfrwt>
<pdfrwt beam="2">  1       21 0.99563079E-03 0.12500000E+03</pdfrwt>
<totfact> 0.36641135E+06</totfact>
</mgrwt>
</event>
<event>
 3    1  0.1592492E-001  0.1250000E+03  0.7546771E-02  0.1235069E+00
         21   -1    0    0  502  501  0.00000000000E+00  0.00000000000E+00  0.14211248373E+02  0.14211248373E+02  0.00000000000E+00 0.  1.
         21   -1    0    0  501  502 -0.00000000000E+00 -0.00000000000E+00 -0.27487029270E+03  0.27487029270E+03  0.00000000000E+00 0.  1.
         25    1    1    2    0    0  0.00000000000E+00  0.00000000000E+00 -0.26065904433E+03  0.28908154107E+03  0.12500000000E+03 0.  0.
<mgrwt>
<rscale>  0 0.12500000E+03</rscale>
<asrwt>0</asrwt>
<pdfrwt beam="1">  1       21 0.21863459E-02 0.12500000E+03</pdfrwt>
<pdfrwt beam="2">  1       21 0.42287737E-01 0.12500000E+03</pdfrwt>
<totfact> 0.56375924E+06</totfact>
</mgrwt>
</event>
<event>
 3    1  0.1592492E-001  0.1250000E+03  0.7546771E-02  0.1235069E+00
         21   -1    0    0  502  501  0.00000000000E+00  0.00000000000E+00  0.32511317584E+02  0.32511317584E+02  0.00000000000E+00 0.  1.
         21   -1    0    0  501  502 -0.00000000000E+00 -0.00000000000E+00 -0.12015046729E+03  0.12015046729E+03  0.00000000000E+00 0.  1.
         25    1    1    2    0    0  0.00000000000E+00  0.00000000000E+00 -0.87639149708E+02  0.15266178488E+03  0.12500000000E+03 0.  0.
<mgrwt>
<rscale>  0 0.12500000E+03</rscale>
<asrwt>0</asrwt>
<pdfrwt beam="1">  1       21 0.50017411E-02 0.12500000E+03</pdfrwt>
<pdfrwt beam="2">  1       21 0.18484688E-01 0.12500000E+03</pdfrwt>
<totfact> 0.70426412E+06</totfact>
</mgrwt>
</event>
<event>
 3    1  0.1592492E-001  0.1250000E+03  0.7546771E-02  0.1235069E+00
         21   -1    0    0  502  501  0.00000000000E+00  0.00000000000E+00  0.21519025070E+03  0.21519025070E+03  0.00000000000E+00 0. -1.
         21   -1    0    0  501  502 -0.00000000000E+00 -0.00000000000E+00 -0.18152541704E+02  0.18152541704E+02  0.00000000000E+00 0. -1.
         25    1    1    2    0    0  0.00000000000E+00  0.00000000000E+00  0.19703770899E+03  0.23334279240E+03  0.12500000000E+03 0.  0.
<mgrwt>
<rscale>  0 0.12500000E+03</rscale>
<asrwt>0</asrwt>
<pdfrwt beam="1">  1       21 0.33106191E-01 0.12500000E+03</pdfrwt>
<pdfrwt beam="2">  1       21 0.27926989E-02 0.12500000E+03</pdfrwt>
<totfact> 0.61482879E+06</totfact>
</mgrwt>
</event>
<event>
 3    1  0.1592492E-001  0.1250000E+03  0.7546771E-02  0.1235069E+00
         21   -1    0    0  502  501  0.00000000000E+00  0.00000000000E+00  0.59635326714E+03  0.59635326714E+03  0.00000000000E+00 0.  1.
         21   -1    0    0  501  502 -0.00000000000E+00 -0.00000000000E+00 -0.65502282208E+01  0.65502282208E+01  0.00000000000E+00 0.  1.
         25    1    1    2    0    0  0.00000000000E+00  0.00000000000E+00  0.58980303892E+03  0.60290349536E+03  0.12500000000E+03 0.  0.
<mgrwt>
<rscale>  0 0.12500000E+03</rscale>
<asrwt>0</asrwt>
<pdfrwt beam="1">  1       21 0.91746613E-01 0.12500000E+03</pdfrwt>
<pdfrwt beam="2">  1       21 0.10077279E-02 0.12500000E+03</pdfrwt>
<totfact> 0.36961665E+06</totfact>
</mgrwt>
</event>
<event>
 3    1  0.1592492E-001  0.1250000E+03  0.7546771E-02  0.1235069E+00
         21   -1    0    0  502  501  0.00000000000E+00  0.00000000000E+00  0.44400083093E+02  0.44400083093E+02  0.00000000000E+00 0. -1.
         21   -1    0    0  501  502 -0.00000000000E+00 -0.00000000000E+00 -0.87978438954E+02  0.87978438954E+02  0.00000000000E+00 0. -1.
         25    1    1    2    0    0  0.00000000000E+00  0.00000000000E+00 -0.43578355861E+02  0.13237852205E+03  0.12500000000E+03 0.  0.
<mgrwt>
<rscale>  0 0.12500000E+03</rscale>
<asrwt>0</asrwt>
<pdfrwt beam="1">  1       21 0.68307821E-02 0.12500000E+03</pdfrwt>
<pdfrwt beam="2">  1       21 0.13535144E-01 0.12500000E+03</pdfrwt>
<totfact> 0.73045501E+06</totfact>
</mgrwt>
</event>
<event>
 3    1  0.1592492E-001  0.1250000E+03  0.7546771E-02  0.1235069E+00
         21   -1    0    0  502  501  0.00000000000E+00  0.00000000000E+00  0.39453172498E+02  0.39453172498E+02  0.00000000000E+00 0.  1.
         21   -1    0    0  501  502 -0.00000000000E+00 -0.00000000000E+00 -0.99009781792E+02  0.99009781792E+02  0.00000000000E+00 0.  1.
         25    1    1    2    0    0  0.00000000000E+00  0.00000000000E+00 -0.59556609295E+02  0.13846295429E+03  0.12500000000E+03 0.  0.
<mgrwt>
<rscale>  0 0.12500000E+03</rscale>
<asrwt>0</asrwt>
<pdfrwt beam="1">  1       21 0.60697189E-02 0.12500000E+03</pdfrwt>
<pdfrwt beam="2">  1       21 0.15232274E-01 0.12500000E+03</pdfrwt>
<totfact> 0.72240607E+06</totfact>
</mgrwt>
</event>
<event>
 3    1  0.1592492E-001  0.1250000E+03  0.7546771E-02  0.1235069E+00
         21   -1    0    0  502  501  0.00000000000E+00  0.00000000000E+00  0.28407426387E+02  0.28407426387E+02  0.00000000000E+00 0. -1.
         21   -1    0    0  501  502 -0.00000000000E+00 -0.00000000000E+00 -0.13750805676E+03  0.13750805676E+03  0.00000000000E+00 0. -1.
         25    1    1    2    0    0  0.00000000000E+00  0.00000000000E+00 -0.10910063037E+03  0.16591548314E+03  0.12500000000E+03 0.  0.
<mgrwt>
<rscale>  0 0.12500000E+03</rscale>
<asrwt>0</asrwt>
<pdfrwt beam="1">  1       21 0.43703732E-02 0.12500000E+03</pdfrwt>
<pdfrwt beam="2">  1       21 0.21155086E-01 0.12500000E+03</pdfrwt>
<totfact> 0.68803815E+06</totfact>
</mgrwt>
</event>
<event>
 3    1  0.1592492E-001  0.1250000E+03  0.7546771E-02  0.1235069E+00
         21   -1    0    0  502  501  0.00000000000E+00  0.00000000000E+00  0.43257111969E+03  0.43257111969E+03  0.00000000000E+00 0. -1.
         21   -1    0    0  501  502 -0.00000000000E+00 -0.00000000000E+00 -0.90303069766E+01  0.90303069766E+01  0.00000000000E+00 0. -1.
         25    1    1    2    0    0  0.00000000000E+00  0.00000000000E+00  0.42354081271E+03  0.44160142667E+03  0.12500000000E+03 0.  0.
<mgrwt>
<rscale>  0 0.12500000E+03</rscale>
<asrwt>0</asrwt>
<pdfrwt beam="1">  1       21 0.66549387E-01 0.12500000E+03</pdfrwt>
<pdfrwt beam="2">  1       21 0.13892783E-02 0.12500000E+03</pdfrwt>
<totfact> 0.45399068E+06</totfact>
</mgrwt>
</event>
<event>
 3    1  0.1592492E-001  0.1250000E+03  0.7546771E-02  0.1235069E+00
         21   -1    0    0  502  501  0.00000000000E+00  0.00000000000E+00  0.54945354809E+02  0.54945354809E+02  0.00000000000E+00 0. -1.
         21   -1    0    0  501  502 -0.00000000000E+00 -0.00000000000E+00 -0.71093362006E+02  0.71093362006E+02  0.00000000000E+00 0. -1.
         25    1    1    2    0    0  0.00000000000E+00  0.00000000000E+00 -0.16148007196E+02  0.12603871682E+03  0.12500000000E+03 0.  0.
<mgrwt>
<rscale>  0 0.12500000E+03</rscale>
<asrwt>0</asrwt>
<pdfrwt beam="1">  1       21 0.84531315E-02 0.12500000E+03</pdfrwt>
<pdfrwt beam="2">  1       21 0.10937440E-01 0.12500000E+03</pdfrwt>
<totfact> 0.73900702E+06</totfact>
</mgrwt>
</event>
<event>
 3    1  0.1592492E-001  0.1250000E+03  0.7546771E-02  0.1235069E+00
         21   -1    0    0  502  501  0.00000000000E+00  0.00000000000E+00  0.74322784343E+03  0.74322784343E+03  0.00000000000E+00 0.  1.
         21   -1    0    0  501  502 -0.00000000000E+00 -0.00000000000E+00 -0.52557907169E+01  0.52557907169E+01  0.00000000000E+00 0.  1.
         25    1    1    2    0    0  0.00000000000E+00  0.00000000000E+00  0.73797205271E+03  0.74848363414E+03  0.12500000000E+03 0.  0.
<mgrwt>
<rscale>  0 0.12500000E+03</rscale>
<asrwt>0</asrwt>
<pdfrwt beam="1">  1       21 0.11434266E+00 0.12500000E+03</pdfrwt>
<pdfrwt beam="2">  1       21 0.80858378E-03 0.12500000E+03</pdfrwt>
<totfact> 0.31122282E+06</totfact>
</mgrwt>
</event>
<event>
 3    1  0.1592492E-001  0.1250000E+03  0.7546771E-02  0.1235069E+00
         21   -1    0    0  502  501  0.00000000000E+00  0.00000000000E+00  0.44730821789E+03  0.44730821789E+03  0.00000000000E+00 0. -1.
         21   -1    0    0  501  502 -0.00000000000E+00 -0.00000000000E+00 -0.87327928345E+01  0.87327928345E+01  0.00000000000E+00 0. -1.
         25    1    1    2    0    0  0.00000000000E+00  0.00000000000E+00  0.43857542506E+03  0.45604101073E+03  0.12500000000E+03 0.  0.
<mgrwt>
<rscale>  0 0.12500000E+03</rscale>
<asrwt>0</asrwt>
<pdfrwt beam="1">  1       21 0.68816631E-01 0.12500000E+03</pdfrwt>
<pdfrwt beam="2">  1       21 0.13435069E-02 0.12500000E+03</pdfrwt>
<totfact> 0.44532988E+06</totfact>
</mgrwt>
</event>
<event>
 3    1  0.1592492E-001  0.1250000E+03  0.7546771E-02  0.1235069E+00
         21   -1    0    0  502  501  0.00000000000E+00  0.00000000000E+00  0.67220078886E+03  0.67220078886E+03  0.00000000000E+00 0.  1.
         21   -1    0    0  501  502 -0.00000000000E+00 -0.00000000000E+00 -0.58111356975E+01  0.58111356975E+01  0.00000000000E+00 0.  1.
         25    1    1    2    0    0  0.00000000000E+00  0.00000000000E+00  0.66638965316E+03  0.67801192455E+03  0.12500000000E+03 0.  0.
<mgrwt>
<rscale>  0 0.12500000E+03</rscale>
<asrwt>0</asrwt>
<pdfrwt beam="1">  1       21 0.10341544E+00 0.12500000E+03</pdfrwt>
<pdfrwt beam="2">  1       21 0.89402141E-03 0.12500000E+03</pdfrwt>
<totfact> 0.33775235E+06</totfact>
</mgrwt>
</event>
<event>
 3    1  0.1592492E-001  0.1250000E+03  0.7546771E-02  0.1235069E+00
         21   -1    0    0  502  501  0.00000000000E+00  0.00000000000E+00  0.19874777146E+03  0.19874777146E+03  0.00000000000E+00 0. -1.
         21   -1    0    0  501  502 -0.00000000000E+00 -0.00000000000E+00 -0.19654308430E+02  0.19654308430E+02  0.00000000000E+00 0. -1.
         25    1    1    2    0    0  0.00000000000E+00  0.00000000000E+00  0.17909346303E+03  0.21840207989E+03  0.12500000000E+03 0.  0.
<mgrwt>
<rscale>  0 0.12500000E+03</rscale>
<asrwt>0</asrwt>
<pdfrwt beam="1">  1       21 0.30576579E-01 0.12500000E+03</pdfrwt>
<pdfrwt beam="2">  1       21 0.30237399E-02 0.12500000E+03</pdfrwt>
<totfact> 0.62986239E+06</totfact>
</mgrwt>
</event>
<event>
 3    1  0.1592492E-001  0.1250000E+03  0.7546771E-02  0.1235069E+00
         21   -1    0    0  502  501  0.00000000000E+00  0.00000000000E+00  0.13904738034E+03  0.13904738034E+03  0.00000000000E+00 0. -1.
         21   -1    0    0  501  502 -0.00000000000E+00 -0.00000000000E+00 -0.28092942064E+02  0.28092942064E+02  0.00000000000E+00 0. -1.
         25    1    1    2    0    0  0.00000000000E+00  0.00000000000E+00  0.11095443827E+03  0.16714032240E+03  0.12500000000E+03 0.  0.
<mgrwt>
<rscale>  0 0.12500000E+03</rscale>
<asrwt>0</asrwt>
<pdfrwt beam="1">  1       21 0.21391904E-01 0.12500000E+03</pdfrwt>
<pdfrwt beam="2">  1       21 0.43219912E-02 0.12500000E+03</pdfrwt>
<totfact> 0.68657380E+06</totfact>
</mgrwt>
</event>
<event>
 3    1  0.1592492E-001  0.1250000E+03  0.7546771E-02  0.1235069E+00
         21   -1    0    0  502  501  0.00000000000E+00  0.00000000000E+00  0.15395325515E+03  0.15395325515E+03  0.00000000000E+00 0.  1.
         21   -1    0    0  501  502 -0.00000000000E+00 -0.00000000000E+00 -0.25372961399E+02  0.25372961399E+02  0.00000000000E+00 0.  1.
         25    1    1    2    0    0  0.00000000000E+00  0.00000000000E+00  0.12858029375E+03  0.17932621654E+03  0.12500000000E+03 0.  0.
<mgrwt>
<rscale>  0 0.12500000E+03</rscale>
<asrwt>0</asrwt>
<pdfrwt beam="1">  1       21 0.23685116E-01 0.12500000E+03</pdfrwt>
<pdfrwt beam="2">  1       21 0.39035326E-02 0.12500000E+03</pdfrwt>
<totfact> 0.67228915E+06</totfact>
</mgrwt>
</event>
<event>
 3    1  0.1592492E-001  0.1250000E+03  0.7546771E-02  0.1235069E+00
         21   -1    0    0  502  501  0.00000000000E+00  0.00000000000E+00  0.70807643962E+03  0.70807643962E+03  0.00000000000E+00 0. -1.
         21   -1    0    0  501  502 -0.00000000000E+00 -0.00000000000E+00 -0.55167066455E+01  0.55167066455E+01  0.00000000000E+00 0. -1.
         25    1    1    2    0    0  0.00000000000E+00  0.00000000000E+00  0.70255973298E+03  0.71359314627E+03  0.12500000000E+03 0.  0.
<mgrwt>
<rscale>  0 0.12500000E+03</rscale>
<asrwt>0</asrwt>
<pdfrwt beam="1">  1       21 0.10893477E+00 0.12500000E+03</pdfrwt>
<pdfrwt beam="2">  1       21 0.84872466E-03 0.12500000E+03</pdfrwt>
<totfact> 0.32392643E+06</totfact>
</mgrwt>
</event>
<event>
 3    1  0.1592492E-001  0.1250000E+03  0.7546771E-02  0.1235069E+00
         21   -1    0    0  502  501  0.00000000000E+00  0.00000000000E+00  0.18708520196E+03  0.18708520196E+03  0.00000000000E+00 0.  1.
         21   -1    0    0  501  502 -0.00000000000E+00 -0.00000000000E+00 -0.20879524190E+02  0.20879524190E+02  0.00000000000E+00 0.  1.
         25    1    1    2    0    0  0.00000000000E+00  0.00000000000E+00  0.16620567777E+03  0.20796472615E+03  0.12500000000E+03 0.  0.
<mgrwt>
<rscale>  0 0.12500000E+03</rscale>
<asrwt>0</asrwt>
<pdfrwt beam="1">  1       21 0.28782338E-01 0.12500000E+03</pdfrwt>
<pdfrwt beam="2">  1       21 0.32122346E-02 0.12500000E+03</pdfrwt>
<totfact> 0.64074308E+06</totfact>
</mgrwt>
</event>
<event>
 3    1  0.1592492E-001  0.1250000E+03  0.7546771E-02  0.1235069E+00
         21   -1    0    0  502  501  0.00000000000E+00  0.00000000000E+00  0.17155884471E+02  0.17155884471E+02  0.00000000000E+00 0.  1.
         21   -1    0    0  501  502 -0.00000000000E+00 -0.00000000000E+00 -0.22769155427E+03  0.22769155427E+03  0.00000000000E+00 0.  1.
         25    1    1    2    0    0  0.00000000000E+00  0.00000000000E+00 -0.21053566980E+03  0.24484743874E+03  0.12500000000E+03 0.  0.
<mgrwt>
<rscale>  0 0.12500000E+03</rscale>
<asrwt>0</asrwt>
<pdfrwt beam="1">  1       21 0.26393672E-02 0.12500000E+03</pdfrwt>
<pdfrwt beam="2">  1       21 0.35029465E-01 0.12500000E+03</pdfrwt>
<totfact> 0.60366718E+06</totfact>
</mgrwt>
</event>
<event>
 3    1  0.1592492E-001  0.1250000E+03  0.7546771E-02  0.1235069E+00
         21   -1    0    0  502  501  0.00000000000E+00  0.00000000000E+00  0.15412052331E+03  0.15412052331E+03  0.00000000000E+00 0. -1.
         21   -1    0    0  501  502 -0.00000000000E+00 -0.00000000000E+00 -0.25345423933E+02  0.25345423933E+02  0.00000000000E+00 0. -1.
         25    1    1    2    0    0  0.00000000000E+00  0.00000000000E+00  0.12877509938E+03  0.17946594724E+03  0.12500000000E+03 0.  0.
<mgrwt>
<rscale>  0 0.12500000E+03</rscale>
<asrwt>0</asrwt>
<pdfrwt beam="1">  1       21 0.23710849E-01 0.12500000E+03</pdfrwt>
<pdfrwt beam="2">  1       21 0.38992961E-02 0.12500000E+03</pdfrwt>
<totfact> 0.67212854E+06</totfact>
</mgrwt>
</event>
<event>
 3    1  0.1592492E-001  0.1250000E+03  0.7546771E-02  0.1235069E+00
         21   -1    0    0  502  501  0.00000000000E+00  0.00000000000E+00  0.82831576503E+02  0.82831576503E+02  0.00000000000E+00 0. -1.
         21   -1    0    0  501  502 -0.00000000000E+00 -0.00000000000E+00 -0.47158947890E+02  0.47158947890E+02  0.00000000000E+00 0. -1.
         25    1    1    2    0    0  0.00000000000E+00  0.00000000000E+00  0.35672628613E+02  0.12999052439E+03  0.12500000000E+03 0.  0.
<mgrwt>
<rscale>  0 0.12500000E+03</rscale>
<asrwt>0</asrwt>
<pdfrwt beam="1">  1       21 0.12743319E-01 0.12500000E+03</pdfrwt>
<pdfrwt beam="2">  1       21 0.72552228E-02 0.12500000E+03</pdfrwt>
<totfact> 0.73366181E+06</totfact>
</mgrwt>
</event>
<event>
 3    1  0.1592492E-001  0.1250000E+03  0.7546771E-02  0.1235069E+00
         21   -1    0    0  502  501  0.00000000000E+00  0.00000000000E+00  0.16442643585E+04  0.16442643585E+04  0.00000000000E+00 0. -1.
         21   -1    0    0  501  502 -0.00000000000E+00 -0.00000000000E+00 -0.23756824624E+01  0.23756824624E+01  0.00000000000E+00 0. -1.
         25    1    1    2    0    0  0.00000000000E+00  0.00000000000E+00  0.16418886761E+04  0.16466400410E+04  0.12500000000E+03 0.  0.
<mgrwt>
<rscale>  0 0.12500000E+03</rscale>
<asrwt>0</asrwt>
<pdfrwt beam="1">  1       21 0.25296284E+00 0.12500000E+03</pdfrwt>
<pdfrwt beam="2">  1       21 0.36549092E-03 0.12500000E+03</pdfrwt>
<totfact> 0.11951832E+06</totfact>
</mgrwt>
</event>
<event>
 3    1  0.1592492E-001  0.1250000E+03  0.7546771E-02  0.1235069E+00
         21   -1    0    0  502  501  0.00000000000E+00  0.00000000000E+00  0.36283175287E+02  0.36283175287E+02  0.00000000000E+00 0. -1.
         21   -1    0    0  501  502 -0.00000000000E+00 -0.00000000000E+00 -0.10766009229E+03  0.10766009229E+03  0.00000000000E+00 0. -1.
         25    1    1    2    0    0  0.00000000000E+00  0.00000000000E+00 -0.71376917002E+02  0.14394326758E+03  0.12500000000E+03 0.  0.
<mgrwt>
<rscale>  0 0.12500000E+03</rscale>
<asrwt>0</asrwt>
<pdfrwt beam="1">  1       21 0.55820269E-02 0.12500000E+03</pdfrwt>
<pdfrwt beam="2">  1       21 0.16563091E-01 0.12500000E+03</pdfrwt>
<totfact> 0.71528610E+06</totfact>
</mgrwt>
</event>
<event>
 3    1  0.1592492E-001  0.1250000E+03  0.7546771E-02  0.1235069E+00
         21   -1    0    0  502  501  0.00000000000E+00  0.00000000000E+00  0.14127874737E+03  0.14127874737E+03  0.00000000000E+00 0. -1.
         21   -1    0    0  501  502 -0.00000000000E+00 -0.00000000000E+00 -0.27649240050E+02  0.27649240050E+02  0.00000000000E+00 0. -1.
         25    1    1    2    0    0  0.00000000000E+00  0.00000000000E+00  0.11362950732E+03  0.16892798742E+03  0.12500000000E+03 0.  0.
<mgrwt>
<rscale>  0 0.12500000E+03</rscale>
<asrwt>0</asrwt>
<pdfrwt beam="1">  1       21 0.21735192E-01 0.12500000E+03</pdfrwt>
<pdfrwt beam="2">  1       21 0.42537293E-02 0.12500000E+03</pdfrwt>
<totfact> 0.68444713E+06</totfact>
</mgrwt>
</event>
<event>
 3    1  0.1592492E-001  0.1250000E+03  0.7546771E-02  0.1235069E+00
         21   -1    0    0  502  501  0.00000000000E+00  0.00000000000E+00  0.80580225428E+02  0.80580225428E+02  0.00000000000E+00 0.  1.
         21   -1    0    0  501  502 -0.00000000000E+00 -0.00000000000E+00 -0.48476533533E+02  0.48476533533E+02  0.00000000000E+00 0.  1.
         25    1    1    2    0    0  0.00000000000E+00  0.00000000000E+00  0.32103691895E+02  0.12905675896E+03  0.12500000000E+03 0.  0.
<mgrwt>
<rscale>  0 0.12500000E+03</rscale>
<asrwt>0</asrwt>
<pdfrwt beam="1">  1       21 0.12396958E-01 0.12500000E+03</pdfrwt>
<pdfrwt beam="2">  1       21 0.74579282E-02 0.12500000E+03</pdfrwt>
<totfact> 0.73491259E+06</totfact>
</mgrwt>
</event>
<event>
 3    1  0.1592492E-001  0.1250000E+03  0.7546771E-02  0.1235069E+00
         21   -1    0    0  502  501  0.00000000000E+00  0.00000000000E+00  0.78387073053E+01  0.78387073053E+01  0.00000000000E+00 0.  1.
         21   -1    0    0  501  502 -0.00000000000E+00 -0.00000000000E+00 -0.49832834010E+03  0.49832834010E+03  0.00000000000E+00 0.  1.
         25    1    1    2    0    0  0.00000000000E+00  0.00000000000E+00 -0.49048963280E+03  0.50616704741E+03  0.12500000000E+03 0.  0.
<mgrwt>
<rscale>  0 0.12500000E+03</rscale>
<asrwt>0</asrwt>
<pdfrwt beam="1">  1       21 0.12059552E-02 0.12500000E+03</pdfrwt>
<pdfrwt beam="2">  1       21 0.76665886E-01 0.12500000E+03</pdfrwt>
<totfact> 0.41711585E+06</totfact>
</mgrwt>
</event>
<event>
 3    1  0.1592492E-001  0.1250000E+03  0.7546771E-02  0.1235069E+00
         21   -1    0    0  502  501  0.00000000000E+00  0.00000000000E+00  0.83586735479E+02  0.83586735479E+02  0.00000000000E+00 0. -1.
         21   -1    0    0  501  502 -0.00000000000E+00 -0.00000000000E+00 -0.46732893414E+02  0.46732893414E+02  0.00000000000E+00 0. -1.
         25    1    1    2    0    0  0.00000000000E+00  0.00000000000E+00  0.36853842065E+02  0.13031962889E+03  0.12500000000E+03 0.  0.
<mgrwt>
<rscale>  0 0.12500000E+03</rscale>
<asrwt>0</asrwt>
<pdfrwt beam="1">  1       21 0.12859498E-01 0.12500000E+03</pdfrwt>
<pdfrwt beam="2">  1       21 0.71896759E-02 0.12500000E+03</pdfrwt>
<totfact> 0.73322227E+06</totfact>
</mgrwt>
</event>
<event>
 3    1  0.1592492E-001  0.1250000E+03  0.7546771E-02  0.1235069E+00
         21   -1    0    0  502  501  0.00000000000E+00  0.00000000000E+00  0.31375305899E+03  0.31375305899E+03  0.00000000000E+00 0. -1.
         21   -1    0    0  501  502 -0.00000000000E+00 -0.00000000000E+00 -0.12450077818E+02  0.12450077818E+02  0.00000000000E+00 0. -1.
         25    1    1    2    0    0  0.00000000000E+00  0.00000000000E+00  0.30130298118E+03  0.32620313681E+03  0.12500000000E+03 0.  0.
<mgrwt>
<rscale>  0 0.12500000E+03</rscale>
<asrwt>0</asrwt>
<pdfrwt beam="1">  1       21 0.48269695E-01 0.12500000E+03</pdfrwt>
<pdfrwt beam="2">  1       21 0.19153968E-02 0.12500000E+03</pdfrwt>
<totfact> 0.53345411E+06</totfact>
</mgrwt>
</event>
<event>
 3    1  0.1592492E-001  0.1250000E+03  0.7546771E-02  0.1235069E+00
         21   -1    0    0  502  501  0.00000000000E+00  0.00000000000E+00  0.53707293699E+02  0.53707293699E+02  0.00000000000E+00 0. -1.
         21   -1    0    0  501  502 -0.00000000000E+00 -0.00000000000E+00 -0.72732206949E+02  0.72732206949E+02  0.00000000000E+00 0. -1.
         25    1    1    2    0    0  0.00000000000E+00  0.00000000000E+00 -0.19024913249E+02  0.12643950065E+03  0.12500000000E+03 0.  0.
<mgrwt>
<rscale>  0 0.12500000E+03</rscale>
<asrwt>0</asrwt>
<pdfrwt beam="1">  1       21 0.82626605E-02 0.12500000E+03</pdfrwt>
<pdfrwt beam="2">  1       21 0.11189570E-01 0.12500000E+03</pdfrwt>
<totfact> 0.73845656E+06</totfact>
</mgrwt>
</event>
<event>
 3    1  0.1592492E-001  0.1250000E+03  0.7546771E-02  0.1235069E+00
         21   -1    0    0  502  501  0.00000000000E+00  0.00000000000E+00  0.49434848632E+02  0.49434848632E+02  0.00000000000E+00 0. -1.
         21   -1    0    0  501  502 -0.00000000000E+00 -0.00000000000E+00 -0.79018144246E+02  0.79018144246E+02  0.00000000000E+00 0. -1.
         25    1    1    2    0    0  0.00000000000E+00  0.00000000000E+00 -0.29583295613E+02  0.12845299288E+03  0.12500000000E+03 0.  0.
<mgrwt>
<rscale>  0 0.12500000E+03</rscale>
<asrwt>0</asrwt>
<pdfrwt beam="1">  1       21 0.76053613E-02 0.12500000E+03</pdfrwt>
<pdfrwt beam="2">  1       21 0.12156638E-01 0.12500000E+03</pdfrwt>
<totfact> 0.73572453E+06</totfact>
</mgrwt>
</event>
<event>
 3    1  0.1592492E-001  0.1250000E+03  0.7546771E-02  0.1235069E+00
         21   -1    0    0  502  501  0.00000000000E+00  0.00000000000E+00  0.10214120126E+02  0.10214120126E+02  0.00000000000E+00 0. -1.
         21   -1    0    0  501  502 -0.00000000000E+00 -0.00000000000E+00 -0.38243626976E+03  0.38243626976E+03  0.00000000000E+00 0. -1.
         25    1    1    2    0    0  0.00000000000E+00  0.00000000000E+00 -0.37222214963E+03  0.39265038988E+03  0.12500000000E+03 0.  0.
<mgrwt>
<rscale>  0 0.12500000E+03</rscale>
<asrwt>0</asrwt>
<pdfrwt beam="1">  1       21 0.15714034E-02 0.12500000E+03</pdfrwt>
<pdfrwt beam="2">  1       21 0.58836338E-01 0.12500000E+03</pdfrwt>
<totfact> 0.48532698E+06</totfact>
</mgrwt>
</event>
<event>
 3    1  0.1592492E-001  0.1250000E+03  0.7546771E-02  0.1235069E+00
         21   -1    0    0  502  501  0.00000000000E+00  0.00000000000E+00  0.28211018627E+02  0.28211018627E+02  0.00000000000E+00 0.  1.
         21   -1    0    0  501  502 -0.00000000000E+00 -0.00000000000E+00 -0.13846540076E+03  0.13846540076E+03  0.00000000000E+00 0.  1.
         25    1    1    2    0    0  0.00000000000E+00  0.00000000000E+00 -0.11025438213E+03  0.16667641938E+03  0.12500000000E+03 0.  0.
<mgrwt>
<rscale>  0 0.12500000E+03</rscale>
<asrwt>0</asrwt>
<pdfrwt beam="1">  1       21 0.43401566E-02 0.12500000E+03</pdfrwt>
<pdfrwt beam="2">  1       21 0.21302370E-01 0.12500000E+03</pdfrwt>
<totfact> 0.68712772E+06</totfact>
</mgrwt>
</event>
<event>
 3    1  0.1592492E-001  0.1250000E+03  0.7546771E-02  0.1235069E+00
         21   -1    0    0  502  501  0.00000000000E+00  0.00000000000E+00  0.61617522377E+02  0.61617522377E+02  0.00000000000E+00 0. -1.
         21   -1    0    0  501  502 -0.00000000000E+00 -0.00000000000E+00 -0.63395116345E+02  0.63395116345E+02  0.00000000000E+00 0. -1.
         25    1    1    2    0    0  0.00000000000E+00  0.00000000000E+00 -0.17775939679E+01  0.12501263872E+03  0.12500000000E+03 0.  0.
<mgrwt>
<rscale>  0 0.12500000E+03</rscale>
<asrwt>0</asrwt>
<pdfrwt beam="1">  1       21 0.94796188E-02 0.12500000E+03</pdfrwt>
<pdfrwt beam="2">  1       21 0.97530948E-02 0.12500000E+03</pdfrwt>
<totfact> 0.74041874E+06</totfact>
</mgrwt>
</event>
<event>
 3    1  0.1592492E-001  0.1250000E+03  0.7546771E-02  0.1235069E+00
         21   -1    0    0  502  501  0.00000000000E+00  0.00000000000E+00  0.10900333172E+03  0.10900333172E+03  0.00000000000E+00 0.  1.
         21   -1    0    0  501  502 -0.00000000000E+00 -0.00000000000E+00 -0.35836060588E+02  0.35836060588E+02  0.00000000000E+00 0.  1.
         25    1    1    2    0    0  0.00000000000E+00  0.00000000000E+00  0.73167271136E+02  0.14483939231E+03  0.12500000000E+03 0.  0.
<mgrwt>
<rscale>  0 0.12500000E+03</rscale>
<asrwt>0</asrwt>
<pdfrwt beam="1">  1       21 0.16769743E-01 0.12500000E+03</pdfrwt>
<pdfrwt beam="2">  1       21 0.55132401E-02 0.12500000E+03</pdfrwt>
<totfact> 0.71413659E+06</totfact>
</mgrwt>
</event>
<event>
 3    1  0.1592492E-001  0.1250000E+03  0.7546771E-02  0.1235069E+00
         21   -1    0    0  502  501  0.00000000000E+00  0.00000000000E+00  0.67616326581E+02  0.67616326581E+02  0.00000000000E+00 0. -1.
         21   -1    0    0  501  502 -0.00000000000E+00 -0.00000000000E+00 -0.57770810654E+02  0.57770810654E+02  0.00000000000E+00 0. -1.
         25    1    1    2    0    0  0.00000000000E+00  0.00000000000E+00  0.98455159266E+01  0.12538713723E+03  0.12500000000E+03 0.  0.
<mgrwt>
<rscale>  0 0.12500000E+03</rscale>
<asrwt>0</asrwt>
<pdfrwt beam="1">  1       21 0.10402512E-01 0.12500000E+03</pdfrwt>
<pdfrwt beam="2">  1       21 0.88878171E-02 0.12500000E+03</pdfrwt>
<totfact> 0.73991220E+06</totfact>
</mgrwt>
</event>
<event>
 3    1  0.1592492E-001  0.1250000E+03  0.7546771E-02  0.1235069E+00
         21   -1    0    0  502  501  0.00000000000E+00  0.00000000000E+00  0.16120880801E+03  0.16120880801E+03  0.00000000000E+00 0.  1.
         21   -1    0    0  501  502 -0.00000000000E+00 -0.00000000000E+00 -0.24230996111E+02  0.24230996111E+02  0.00000000000E+00 0.  1.
         25    1    1    2    0    0  0.00000000000E+00  0.00000000000E+00  0.13697781190E+03  0.18543980412E+03  0.12500000000E+03 0.  0.
<mgrwt>
<rscale>  0 0.12500000E+03</rscale>
<asrwt>0</asrwt>
<pdfrwt beam="1">  1       21 0.24801354E-01 0.12500000E+03</pdfrwt>
<pdfrwt beam="2">  1       21 0.37278457E-02 0.12500000E+03</pdfrwt>
<totfact> 0.66532912E+06</totfact>
</mgrwt>
</event>
<event>
 3    1  0.1592492E-001  0.1250000E+03  0.7546771E-02  0.1235069E+00
         21   -1    0    0  502  501  0.00000000000E+00  0.00000000000E+00  0.96207269456E+01  0.96207269456E+01  0.00000000000E+00 0.  1.
         21   -1    0    0  501  502 -0.00000000000E+00 -0.00000000000E+00 -0.40602441189E+03  0.40602441189E+03  0.00000000000E+00 0.  1.
         25    1    1    2    0    0  0.00000000000E+00  0.00000000000E+00 -0.39640368494E+03  0.41564513883E+03  0.12500000000E+03 0.  0.
<mgrwt>
<rscale>  0 0.12500000E+03</rscale>
<asrwt>0</asrwt>
<pdfrwt beam="1">  1       21 0.14801119E-02 0.12500000E+03</pdfrwt>
<pdfrwt beam="2">  1       21 0.62465292E-01 0.12500000E+03</pdfrwt>
<totfact> 0.47020650E+06</totfact>
</mgrwt>
</event>
<event>
 3    1  0.1592492E-001  0.1250000E+03  0.7546771E-02  0.1235069E+00
         21   -1    0    0  502  501  0.00000000000E+00  0.00000000000E+00  0.24470172469E+03  0.24470172469E+03  0.00000000000E+00 0. -1.
         21   -1    0    0  501  502 -0.00000000000E+00 -0.00000000000E+00 -0.15963312089E+02  0.15963312089E+02  0.00000000000E+00 0. -1.
         25    1    1    2    0    0  0.00000000000E+00  0.00000000000E+00  0.22873841260E+03  0.26066503678E+03  0.12500000000E+03 0.  0.
<mgrwt>
<rscale>  0 0.12500000E+03</rscale>
<asrwt>0</asrwt>
<pdfrwt beam="1">  1       21 0.37646416E-01 0.12500000E+03</pdfrwt>
<pdfrwt beam="2">  1       21 0.24558943E-02 0.12500000E+03</pdfrwt>
<totfact> 0.58888371E+06</totfact>
</mgrwt>
</event>
<event>
 3    1  0.1592492E-001  0.1250000E+03  0.7546771E-02  0.1235069E+00
         21   -1    0    0  502  501  0.00000000000E+00  0.00000000000E+00  0.29111990917E+02  0.29111990917E+02  0.00000000000E+00 0. -1.
         21   -1    0    0  501  502 -0.00000000000E+00 -0.00000000000E+00 -0.13418010507E+03  0.13418010507E+03  0.00000000000E+00 0. -1.
         25    1    1    2    0    0  0.00000000000E+00  0.00000000000E+00 -0.10506811415E+03  0.16329209599E+03  0.12500000000E+03 0.  0.
<mgrwt>
<rscale>  0 0.12500000E+03</rscale>
<asrwt>0</asrwt>
<pdfrwt beam="1">  1       21 0.44787678E-02 0.12500000E+03</pdfrwt>
<pdfrwt beam="2">  1       21 0.20643093E-01 0.12500000E+03</pdfrwt>
<totfact> 0.69119458E+06</totfact>
</mgrwt>
</event>
<event>
 3    1  0.1592492E-001  0.1250000E+03  0.7546771E-02  0.1235069E+00
         21   -1    0    0  502  501  0.00000000000E+00  0.00000000000E+00  0.50094075285E+02  0.50094075285E+02  0.00000000000E+00 0.  1.
         21   -1    0    0  501  502 -0.00000000000E+00 -0.00000000000E+00 -0.77978283415E+02  0.77978283415E+02  0.00000000000E+00 0.  1.
         25    1    1    2    0    0  0.00000000000E+00  0.00000000000E+00 -0.27884208129E+02  0.12807235870E+03  0.12500000000E+03 0.  0.
<mgrwt>
<rscale>  0 0.12500000E+03</rscale>
<asrwt>0</asrwt>
<pdfrwt beam="1">  1       21 0.77067808E-02 0.12500000E+03</pdfrwt>
<pdfrwt beam="2">  1       21 0.11996659E-01 0.12500000E+03</pdfrwt>
<totfact> 0.73623787E+06</totfact>
</mgrwt>
</event>
<event>
 3    1  0.1592492E-001  0.1250000E+03  0.7546771E-02  0.1235069E+00
         21   -1    0    0  502  501  0.00000000000E+00  0.00000000000E+00  0.40759295597E+03  0.40759295597E+03  0.00000000000E+00 0.  1.
         21   -1    0    0  501  502 -0.00000000000E+00 -0.00000000000E+00 -0.95837034051E+01  0.95837034051E+01  0.00000000000E+00 0.  1.
         25    1    1    2    0    0  0.00000000000E+00  0.00000000000E+00  0.39800925256E+03  0.41717665937E+03  0.12500000000E+03 0.  0.
<mgrwt>
<rscale>  0 0.12500000E+03</rscale>
<asrwt>0</asrwt>
<pdfrwt beam="1">  1       21 0.62706595E-01 0.12500000E+03</pdfrwt>
<pdfrwt beam="2">  1       21 0.14744162E-02 0.12500000E+03</pdfrwt>
<totfact> 0.46922532E+06</totfact>
</mgrwt>
</event>
<event>
 3    1  0.1592492E-001  0.1250000E+03  0.7546771E-02  0.1235069E+00
         21   -1    0    0  502  501  0.00000000000E+00  0.00000000000E+00  0.19769532440E+02  0.19769532440E+02  0.00000000000E+00 0.  1.
         21   -1    0    0  501  502 -0.00000000000E+00 -0.00000000000E+00 -0.19758939731E+03  0.19758939731E+03  0.00000000000E+00 0.  1.
         25    1    1    2    0    0  0.00000000000E+00  0.00000000000E+00 -0.17781986487E+03  0.21735892975E+03  0.12500000000E+03 0.  0.
<mgrwt>
<rscale>  0 0.12500000E+03</rscale>
<asrwt>0</asrwt>
<pdfrwt beam="1">  1       21 0.30414665E-02 0.12500000E+03</pdfrwt>
<pdfrwt beam="2">  1       21 0.30398369E-01 0.12500000E+03</pdfrwt>
<totfact> 0.63093512E+06</totfact>
</mgrwt>
</event>
<event>
 3    1  0.1592492E-001  0.1250000E+03  0.7546771E-02  0.1235069E+00
         21   -1    0    0  502  501  0.00000000000E+00  0.00000000000E+00  0.33029112237E+03  0.33029112237E+03  0.00000000000E+00 0. -1.
         21   -1    0    0  501  502 -0.00000000000E+00 -0.00000000000E+00 -0.11826687838E+02  0.11826687838E+02  0.00000000000E+00 0. -1.
         25    1    1    2    0    0  0.00000000000E+00  0.00000000000E+00  0.31846443453E+03  0.34211781021E+03  0.12500000000E+03 0.  0.
<mgrwt>
<rscale>  0 0.12500000E+03</rscale>
<asrwt>0</asrwt>
<pdfrwt beam="1">  1       21 0.50814012E-01 0.12500000E+03</pdfrwt>
<pdfrwt beam="2">  1       21 0.18194907E-02 0.12500000E+03</pdfrwt>
<totfact> 0.52125877E+06</totfact>
</mgrwt>
</event>
<event>
 3    1  0.1592492E-001  0.1250000E+03  0.7546771E-02  0.1235069E+00
         21   -1    0    0  502  501  0.00000000000E+00  0.00000000000E+00  0.22626726686E+03  0.22626726686E+03  0.00000000000E+00 0. -1.
         21   -1    0    0  501  502 -0.00000000000E+00 -0.00000000000E+00 -0.17263875832E+02  0.17263875832E+02  0.00000000000E+00 0. -1.
         25    1    1    2    0    0  0.00000000000E+00  0.00000000000E+00  0.20900339103E+03  0.24353114269E+03  0.12500000000E+03 0.  0.
<mgrwt>
<rscale>  0 0.12500000E+03</rscale>
<asrwt>0</asrwt>
<pdfrwt beam="1">  1       21 0.34810347E-01 0.12500000E+03</pdfrwt>
<pdfrwt beam="2">  1       21 0.26559811E-02 0.12500000E+03</pdfrwt>
<totfact> 0.60492627E+06</totfact>
</mgrwt>
</event>
<event>
 3    1  0.1592492E-001  0.1250000E+03  0.7546771E-02  0.1235069E+00
         21   -1    0    0  502  501  0.00000000000E+00  0.00000000000E+00  0.38964694547E+02  0.38964694547E+02  0.00000000000E+00 0.  1.
         21   -1    0    0  501  502 -0.00000000000E+00 -0.00000000000E+00 -0.10025101044E+03  0.10025101044E+03  0.00000000000E+00 0.  1.
         25    1    1    2    0    0  0.00000000000E+00  0.00000000000E+00 -0.61286315898E+02  0.13921570499E+03  0.12500000000E+03 0.  0.
<mgrwt>
<rscale>  0 0.12500000E+03</rscale>
<asrwt>0</asrwt>
<pdfrwt beam="1">  1       21 0.59945686E-02 0.12500000E+03</pdfrwt>
<pdfrwt beam="2">  1       21 0.15423232E-01 0.12500000E+03</pdfrwt>
<totfact> 0.72141862E+06</totfact>
</mgrwt>
</event>
<event>
 3    1  0.1592492E-001  0.1250000E+03  0.7546771E-02  0.1235069E+00
         21   -1    0    0  502  501  0.00000000000E+00  0.00000000000E+00  0.79796821980E+02  0.79796821980E+02  0.00000000000E+00 0.  1.
         21   -1    0    0  501  502 -0.00000000000E+00 -0.00000000000E+00 -0.48952450776E+02  0.48952450776E+02  0.00000000000E+00 0.  1.
         25    1    1    2    0    0  0.00000000000E+00  0.00000000000E+00  0.30844371204E+02  0.12874927276E+03  0.12500000000E+03 0.  0.
<mgrwt>
<rscale>  0 0.12500000E+03</rscale>
<asrwt>0</asrwt>
<pdfrwt beam="1">  1       21 0.12276434E-01 0.12500000E+03</pdfrwt>
<pdfrwt beam="2">  1       21 0.75311463E-02 0.12500000E+03</pdfrwt>
<totfact> 0.73532576E+06</totfact>
</mgrwt>
</event>
<event>
 3    1  0.1592492E-001  0.1250000E+03  0.7546771E-02  0.1235069E+00
         21   -1    0    0  502  501  0.00000000000E+00  0.00000000000E+00  0.10288021978E+04  0.10288021978E+04  0.00000000000E+00 0.  1.
         21   -1    0    0  501  502 -0.00000000000E+00 -0.00000000000E+00 -0.37968911889E+01  0.37968911889E+01  0.00000000000E+00 0.  1.
         25    1    1    2    0    0  0.00000000000E+00  0.00000000000E+00  0.10250053066E+04  0.10325990890E+04  0.12500000000E+03 0.  0.
<mgrwt>
<rscale>  0 0.12500000E+03</rscale>
<asrwt>0</asrwt>
<pdfrwt beam="1">  1       21 0.15827704E+00 0.12500000E+03</pdfrwt>
<pdfrwt beam="2">  1       21 0.58413792E-03 0.12500000E+03</pdfrwt>
<totfact> 0.22815865E+06</totfact>
</mgrwt>
</event>
<event>
 3    1  0.1592492E-001  0.1250000E+03  0.7546771E-02  0.1235069E+00
         21   -1    0    0  502  501  0.00000000000E+00  0.00000000000E+00  0.37276697123E+03  0.37276697123E+03  0.00000000000E+00 0. -1.
         21   -1    0    0  501  502 -0.00000000000E+00 -0.00000000000E+00 -0.10479066821E+02  0.10479066821E+02  0.00000000000E+00 0. -1.
         25    1    1    2    0    0  0.00000000000E+00  0.00000000000E+00  0.36228790440E+03  0.38324603805E+03  0.12500000000E+03 0.  0.
<mgrwt>
<rscale>  0 0.12500000E+03</rscale>
<asrwt>0</asrwt>
<pdfrwt beam="1">  1       21 0.57348754E-01 0.12500000E+03</pdfrwt>
<pdfrwt beam="2">  1       21 0.16121644E-02 0.12500000E+03</pdfrwt>
<totfact> 0.49172848E+06</totfact>
</mgrwt>
</event>
<event>
 3    1  0.1592492E-001  0.1250000E+03  0.7546771E-02  0.1235069E+00
         21   -1    0    0  502  501  0.00000000000E+00  0.00000000000E+00  0.74378677054E+01  0.74378677054E+01  0.00000000000E+00 0.  1.
         21   -1    0    0  501  502 -0.00000000000E+00 -0.00000000000E+00 -0.52518411925E+03  0.52518411925E+03  0.00000000000E+00 0.  1.
         25    1    1    2    0    0  0.00000000000E+00  0.00000000000E+00 -0.51774625155E+03  0.53262198696E+03  0.12500000000E+03 0.  0.
<mgrwt>
<rscale>  0 0.12500000E+03</rscale>
<asrwt>0</asrwt>
<pdfrwt beam="1">  1       21 0.11442870E-02 0.12500000E+03</pdfrwt>
<pdfrwt beam="2">  1       21 0.80797581E-01 0.12500000E+03</pdfrwt>
<totfact> 0.40328415E+06</totfact>
</mgrwt>
</event>
<event>
 3    1  0.1592492E-001  0.1250000E+03  0.7546771E-02  0.1235069E+00
         21   -1    0    0  502  501  0.00000000000E+00  0.00000000000E+00  0.35488466770E+02  0.35488466770E+02  0.00000000000E+00 0.  1.
         21   -1    0    0  501  502 -0.00000000000E+00 -0.00000000000E+00 -0.11007097109E+03  0.11007097109E+03  0.00000000000E+00 0.  1.
         25    1    1    2    0    0  0.00000000000E+00  0.00000000000E+00 -0.74582504324E+02  0.14555943786E+03  0.12500000000E+03 0.  0.
<mgrwt>
<rscale>  0 0.12500000E+03</rscale>
<asrwt>0</asrwt>
<pdfrwt beam="1">  1       21 0.54597641E-02 0.12500000E+03</pdfrwt>
<pdfrwt beam="2">  1       21 0.16933996E-01 0.12500000E+03</pdfrwt>
<totfact> 0.71321581E+06</totfact>
</mgrwt>
</event>
<event>
 3    1  0.1592492E-001  0.1250000E+03  0.7546771E-02  0.1235069E+00
         21   -1    0    0  502  501  0.00000000000E+00  0.00000000000E+00  0.30724810265E+03  0.30724810265E+03  0.00000000000E+00 0. -1.
         21   -1    0    0  501  502 -0.00000000000E+00 -0.00000000000E+00 -0.12713666793E+02  0.12713666793E+02  0.00000000000E+00 0. -1.
         25    1    1    2    0    0  0.00000000000E+00  0.00000000000E+00  0.29453443586E+03  0.31996176944E+03  0.12500000000E+03 0.  0.
<mgrwt>
<rscale>  0 0.12500000E+03</rscale>
<asrwt>0</asrwt>
<pdfrwt beam="1">  1       21 0.47268933E-01 0.12500000E+03</pdfrwt>
<pdfrwt beam="2">  1       21 0.19559490E-02 0.12500000E+03</pdfrwt>
<totfact> 0.53836375E+06</totfact>
</mgrwt>
</event>
<event>
 3    1  0.1592492E-001  0.1250000E+03  0.7546771E-02  0.1235069E+00
         21   -1    0    0  502  501  0.00000000000E+00  0.00000000000E+00  0.43494342906E+03  0.43494342906E+03  0.00000000000E+00 0.  1.
         21   -1    0    0  501  502 -0.00000000000E+00 -0.00000000000E+00 -0.89810530266E+01  0.89810530266E+01  0.00000000000E+00 0.  1.
         25    1    1    2    0    0  0.00000000000E+00  0.00000000000E+00  0.42596237604E+03  0.44392448209E+03  0.12500000000E+03 0.  0.
<mgrwt>
<rscale>  0 0.12500000E+03</rscale>
<asrwt>0</asrwt>
<pdfrwt beam="1">  1       21 0.66914357E-01 0.12500000E+03</pdfrwt>
<pdfrwt beam="2">  1       21 0.13817008E-02 0.12500000E+03</pdfrwt>
<totfact> 0.45258065E+06</totfact>
</mgrwt>
</event>
<event>
 3    1  0.1592492E-001  0.1250000E+03  0.7546771E-02  0.1235069E+00
         21   -1    0    0  502  501  0.00000000000E+00  0.00000000000E+00  0.37378483707E+02  0.37378483707E+02  0.00000000000E+00 0.  1.
         21   -1    0    0  501  502 -0.00000000000E+00 -0.00000000000E+00 -0.10450530927E+03  0.10450530927E+03  0.00000000000E+00 0.  1.
         25    1    1    2    0    0  0.00000000000E+00  0.00000000000E+00 -0.67126825565E+02  0.14188379298E+03  0.12500000000E+03 0.  0.
<mgrwt>
<rscale>  0 0.12500000E+03</rscale>
<asrwt>0</asrwt>
<pdfrwt beam="1">  1       21 0.57505361E-02 0.12500000E+03</pdfrwt>
<pdfrwt beam="2">  1       21 0.16077740E-01 0.12500000E+03</pdfrwt>
<totfact> 0.71794328E+06</totfact>
</mgrwt>
</event>
<event>
 3    1  0.1592492E-001  0.1250000E+03  0.7546771E-02  0.1235069E+00
         21   -1    0    0  502  501  0.00000000000E+00  0.00000000000E+00  0.50307851849E+03  0.50307851849E+03  0.00000000000E+00 0.  1.
         21   -1    0    0  501  502 -0.00000000000E+00 -0.00000000000E+00 -0.77646925012E+01  0.77646925012E+01  0.00000000000E+00 0.  1.
         25    1    1    2    0    0  0.00000000000E+00  0.00000000000E+00  0.49531382599E+03  0.51084321099E+03  0.12500000000E+03 0.  0.
<mgrwt>
<rscale>  0 0.12500000E+03</rscale>
<asrwt>0</asrwt>
<pdfrwt beam="1">  1       21 0.77396670E-01 0.12500000E+03</pdfrwt>
<pdfrwt beam="2">  1       21 0.11945685E-02 0.12500000E+03</pdfrwt>
<totfact> 0.41462067E+06</totfact>
</mgrwt>
</event>
<event>
 3    1  0.1592492E-001  0.1250000E+03  0.7546771E-02  0.1235069E+00
         21   -1    0    0  502  501  0.00000000000E+00  0.00000000000E+00  0.14857551080E+02  0.14857551080E+02  0.00000000000E+00 0. -1.
         21   -1    0    0  501  502 -0.00000000000E+00 -0.00000000000E+00 -0.26291344913E+03  0.26291344913E+03  0.00000000000E+00 0. -1.
         25    1    1    2    0    0  0.00000000000E+00  0.00000000000E+00 -0.24805589805E+03  0.27777100021E+03  0.12500000000E+03 0.  0.
<mgrwt>
<rscale>  0 0.12500000E+03</rscale>
<asrwt>0</asrwt>
<pdfrwt beam="1">  1       21 0.22857772E-02 0.12500000E+03</pdfrwt>
<pdfrwt beam="2">  1       21 0.40448221E-01 0.12500000E+03</pdfrwt>
<totfact> 0.57355609E+06</totfact>
</mgrwt>
</event>
<event>
 3    1  0.1592492E-001  0.1250000E+03  0.7546771E-02  0.1235069E+00
         21   -1    0    0  502  501  0.00000000000E+00  0.00000000000E+00  0.15655409002E+03  0.15655409002E+03  0.00000000000E+00 0.  1.
         21   -1    0    0  501  502 -0.00000000000E+00 -0.00000000000E+00 -0.24951440102E+02  0.24951440102E+02  0.00000000000E+00 0.  1.
         25    1    1    2    0    0  0.00000000000E+00  0.00000000000E+00  0.13160264992E+03  0.18150553013E+03  0.12500000000E+03 0.  0.
<mgrwt>
<rscale>  0 0.12500000E+03</rscale>
<asrwt>0</asrwt>
<pdfrwt beam="1">  1       21 0.24085244E-01 0.12500000E+03</pdfrwt>
<pdfrwt beam="2">  1       21 0.38386832E-02 0.12500000E+03</pdfrwt>
<totfact> 0.66979246E+06</totfact>
</mgrwt>
</event>
<event>
 3    1  0.1592492E-001  0.1250000E+03  0.7546771E-02  0.1235069E+00
         21   -1    0    0  502  501  0.00000000000E+00  0.00000000000E+00  0.26509543548E+03  0.26509543548E+03  0.00000000000E+00 0.  1.
         21   -1    0    0  501  502 -0.00000000000E+00 -0.00000000000E+00 -0.14735259371E+02  0.14735259371E+02  0.00000000000E+00 0.  1.
         25    1    1    2    0    0  0.00000000000E+00  0.00000000000E+00  0.25036017611E+03  0.27983069486E+03  0.12500000000E+03 0.  0.
<mgrwt>
<rscale>  0 0.12500000E+03</rscale>
<asrwt>0</asrwt>
<pdfrwt beam="1">  1       21 0.40783910E-01 0.12500000E+03</pdfrwt>
<pdfrwt beam="2">  1       21 0.22669632E-02 0.12500000E+03</pdfrwt>
<totfact> 0.57175112E+06</totfact>
</mgrwt>
</event>
<event>
 3    1  0.1592492E-001  0.1250000E+03  0.7546771E-02  0.1235069E+00
         21   -1    0    0  502  501  0.00000000000E+00  0.00000000000E+00  0.89360913779E+02  0.89360913779E+02  0.00000000000E+00 0.  1.
         21   -1    0    0  501  502 -0.00000000000E+00 -0.00000000000E+00 -0.43713183257E+02  0.43713183257E+02  0.00000000000E+00 0.  1.
         25    1    1    2    0    0  0.00000000000E+00  0.00000000000E+00  0.45647730523E+02  0.13307409704E+03  0.12500000000E+03 0.  0.
<mgrwt>
<rscale>  0 0.12500000E+03</rscale>
<asrwt>0</asrwt>
<pdfrwt beam="1">  1       21 0.13747833E-01 0.12500000E+03</pdfrwt>
<pdfrwt beam="2">  1       21 0.67251051E-02 0.12500000E+03</pdfrwt>
<totfact> 0.72952505E+06</totfact>
</mgrwt>
</event>
<event>
 3    1  0.1592492E-001  0.1250000E+03  0.7546771E-02  0.1235069E+00
         21   -1    0    0  502  501  0.00000000000E+00  0.00000000000E+00  0.16370683152E+03  0.16370683152E+03  0.00000000000E+00 0.  1.
         21   -1    0    0  501  502 -0.00000000000E+00 -0.00000000000E+00 -0.23861252239E+02  0.23861252239E+02  0.00000000000E+00 0.  1.
         25    1    1    2    0    0  0.00000000000E+00  0.00000000000E+00  0.13984557928E+03  0.18756808376E+03  0.12500000000E+03 0.  0.
<mgrwt>
<rscale>  0 0.12500000E+03</rscale>
<asrwt>0</asrwt>
<pdfrwt beam="1">  1       21 0.25185666E-01 0.12500000E+03</pdfrwt>
<pdfrwt beam="2">  1       21 0.36709620E-02 0.12500000E+03</pdfrwt>
<totfact> 0.66293774E+06</totfact>
</mgrwt>
</event>
<event>
 3    1  0.1592492E-001  0.1250000E+03  0.7546771E-02  0.1235069E+00
         21   -1    0    0  502  501  0.00000000000E+00  0.00000000000E+00  0.19260951397E+02  0.19260951397E+02  0.00000000000E+00 0. -1.
         21   -1    0    0  501  502 -0.00000000000E+00 -0.00000000000E+00 -0.20280670044E+03  0.20280670044E+03  0.00000000000E+00 0. -1.
         25    1    1    2    0    0  0.00000000000E+00  0.00000000000E+00 -0.18354574904E+03  0.22206765183E+03  0.12500000000E+03 0.  0.
<mgrwt>
<rscale>  0 0.12500000E+03</rscale>
<asrwt>0</asrwt>
<pdfrwt beam="1">  1       21 0.29632233E-02 0.12500000E+03</pdfrwt>
<pdfrwt beam="2">  1       21 0.31201030E-01 0.12500000E+03</pdfrwt>
<totfact> 0.62611817E+06</totfact>
</mgrwt>
</event>
<event>
 3    1  0.1592492E-001  0.1250000E+03  0.7546771E-02  0.1235069E+00
         21   -1    0    0  502  501  0.00000000000E+00  0.00000000000E+00  0.34334015175E+03  0.34334015175E+03  0.00000000000E+00 0. -1.
         21   -1    0    0  501  502 -0.00000000000E+00 -0.00000000000E+00 -0.11377201239E+02  0.11377201239E+02  0.00000000000E+00 0. -1.
         25    1    1    2    0    0  0.00000000000E+00  0.00000000000E+00  0.33196295051E+03  0.35471735299E+03  0.12500000000E+03 0.  0.
<mgrwt>
<rscale>  0 0.12500000E+03</rscale>
<asrwt>0</asrwt>
<pdfrwt beam="1">  1       21 0.52821554E-01 0.12500000E+03</pdfrwt>
<pdfrwt beam="2">  1       21 0.17503389E-02 0.12500000E+03</pdfrwt>
<totfact> 0.51191922E+06</totfact>
</mgrwt>
</event>
<event>
 3    1  0.1592492E-001  0.1250000E+03  0.7546771E-02  0.1235069E+00
         21   -1    0    0  502  501  0.00000000000E+00  0.00000000000E+00  0.26483281670E+02  0.26483281670E+02  0.00000000000E+00 0. -1.
         21   -1    0    0  501  502 -0.00000000000E+00 -0.00000000000E+00 -0.14749871442E+03  0.14749871442E+03  0.00000000000E+00 0. -1.
         25    1    1    2    0    0  0.00000000000E+00  0.00000000000E+00 -0.12101543275E+03  0.17398199609E+03  0.12500000000E+03 0.  0.
<mgrwt>
<rscale>  0 0.12500000E+03</rscale>
<asrwt>0</asrwt>
<pdfrwt beam="1">  1       21 0.40743511E-02 0.12500000E+03</pdfrwt>
<pdfrwt beam="2">  1       21 0.22692109E-01 0.12500000E+03</pdfrwt>
<totfact> 0.67848700E+06</totfact>
</mgrwt>
</event>
<event>
 3    1  0.1592492E-001  0.1250000E+03  0.7546771E-02  0.1235069E+00
         21   -1    0    0  502  501  0.00000000000E+00  0.00000000000E+00  0.58850095090E+01  0.58850095090E+01  0.00000000000E+00 0.  1.
         21   -1    0    0  501  502 -0.00000000000E+00 -0.00000000000E+00 -0.66376273378E+03  0.66376273378E+03  0.00000000000E+00 0.  1.
         25    1    1    2    0    0  0.00000000000E+00  0.00000000000E+00 -0.65787772427E+03  0.66964774329E+03  0.12500000000E+03 0.  0.
<mgrwt>
<rscale>  0 0.12500000E+03</rscale>
<asrwt>0</asrwt>
<pdfrwt beam="1">  1       21 0.90538566E-03 0.12500000E+03</pdfrwt>
<pdfrwt beam="2">  1       21 0.10211739E+00 0.12500000E+03</pdfrwt>
<totfact> 0.34113452E+06</totfact>
</mgrwt>
</event>
<event>
 3    1  0.1592492E-001  0.1250000E+03  0.7546771E-02  0.1235069E+00
         21   -1    0    0  502  501  0.00000000000E+00  0.00000000000E+00  0.27367893516E+02  0.27367893516E+02  0.00000000000E+00 0. -1.
         21   -1    0    0  501  502 -0.00000000000E+00 -0.00000000000E+00 -0.14273111658E+03  0.14273111658E+03  0.00000000000E+00 0. -1.
         25    1    1    2    0    0  0.00000000000E+00  0.00000000000E+00 -0.11536322307E+03  0.17009901010E+03  0.12500000000E+03 0.  0.
<mgrwt>
<rscale>  0 0.12500000E+03</rscale>
<asrwt>0</asrwt>
<pdfrwt beam="1">  1       21 0.42104451E-02 0.12500000E+03</pdfrwt>
<pdfrwt beam="2">  1       21 0.21958634E-01 0.12500000E+03</pdfrwt>
<totfact> 0.68305900E+06</totfact>
</mgrwt>
</event>
<event>
 3    1  0.1592492E-001  0.1250000E+03  0.7546771E-02  0.1235069E+00
         21   -1    0    0  502  501  0.00000000000E+00  0.00000000000E+00  0.20348102981E+03  0.20348102981E+03  0.00000000000E+00 0.  1.
         21   -1    0    0  501  502 -0.00000000000E+00 -0.00000000000E+00 -0.19197121243E+02  0.19197121243E+02  0.00000000000E+00 0.  1.
         25    1    1    2    0    0  0.00000000000E+00  0.00000000000E+00  0.18428390857E+03  0.22267815105E+03  0.12500000000E+03 0.  0.
<mgrwt>
<rscale>  0 0.12500000E+03</rscale>
<asrwt>0</asrwt>
<pdfrwt beam="1">  1       21 0.31304772E-01 0.12500000E+03</pdfrwt>
<pdfrwt beam="2">  1       21 0.29534034E-02 0.12500000E+03</pdfrwt>
<totfact> 0.62549838E+06</totfact>
</mgrwt>
</event>
<event>
 3    1  0.1592492E-001  0.1250000E+03  0.7546771E-02  0.1235069E+00
         21   -1    0    0  502  501  0.00000000000E+00  0.00000000000E+00  0.30123034356E+02  0.30123034356E+02  0.00000000000E+00 0.  1.
         21   -1    0    0  501  502 -0.00000000000E+00 -0.00000000000E+00 -0.12967651113E+03  0.12967651113E+03  0.00000000000E+00 0.  1.
         25    1    1    2    0    0  0.00000000000E+00  0.00000000000E+00 -0.99553476774E+02  0.15979954549E+03  0.12500000000E+03 0.  0.
<mgrwt>
<rscale>  0 0.12500000E+03</rscale>
<asrwt>0</asrwt>
<pdfrwt beam="1">  1       21 0.46343131E-02 0.12500000E+03</pdfrwt>
<pdfrwt beam="2">  1       21 0.19950232E-01 0.12500000E+03</pdfrwt>
<totfact> 0.69543998E+06</totfact>
</mgrwt>
</event>
<event>
 3    1  0.1592492E-001  0.1250000E+03  0.7546771E-02  0.1235069E+00
         21   -1    0    0  502  501  0.00000000000E+00  0.00000000000E+00  0.18621207088E+03  0.18621207088E+03  0.00000000000E+00 0. -1.
         21   -1    0    0  501  502 -0.00000000000E+00 -0.00000000000E+00 -0.20977426338E+02  0.20977426338E+02  0.00000000000E+00 0. -1.
         25    1    1    2    0    0  0.00000000000E+00  0.00000000000E+00  0.16523464454E+03  0.20718949722E+03  0.12500000000E+03 0.  0.
<mgrwt>
<rscale>  0 0.12500000E+03</rscale>
<asrwt>0</asrwt>
<pdfrwt beam="1">  1       21 0.28648010E-01 0.12500000E+03</pdfrwt>
<pdfrwt beam="2">  1       21 0.32272965E-02 0.12500000E+03</pdfrwt>
<totfact> 0.64156451E+06</totfact>
</mgrwt>
</event>
<event>
 3    1  0.1592492E-001  0.1250000E+03  0.7546771E-02  0.1235069E+00
         21   -1    0    0  502  501  0.00000000000E+00  0.00000000000E+00  0.93619158891E+01  0.93619158891E+01  0.00000000000E+00 0.  1.
         21   -1    0    0  501  502 -0.00000000000E+00 -0.00000000000E+00 -0.41724899543E+03  0.41724899543E+03  0.00000000000E+00 0.  1.
         25    1    1    2    0    0  0.00000000000E+00  0.00000000000E+00 -0.40788707954E+03  0.42661091132E+03  0.12500000000E+03 0.  0.
<mgrwt>
<rscale>  0 0.12500000E+03</rscale>
<asrwt>0</asrwt>
<pdfrwt beam="1">  1       21 0.14402946E-02 0.12500000E+03</pdfrwt>
<pdfrwt beam="2">  1       21 0.64192161E-01 0.12500000E+03</pdfrwt>
<totfact> 0.46324949E+06</totfact>
</mgrwt>
</event>
<event>
 3    1  0.1592492E-001  0.1250000E+03  0.7546771E-02  0.1235069E+00
         21   -1    0    0  502  501  0.00000000000E+00  0.00000000000E+00  0.39944316055E+01  0.39944316055E+01  0.00000000000E+00 0.  1.
         21   -1    0    0  501  502 -0.00000000000E+00 -0.00000000000E+00 -0.97792386646E+03  0.97792386646E+03  0.00000000000E+00 0.  1.
         25    1    1    2    0    0  0.00000000000E+00  0.00000000000E+00 -0.97392943486E+03  0.98191829807E+03  0.12500000000E+03 0.  0.
<mgrwt>
<rscale>  0 0.12500000E+03</rscale>
<asrwt>0</asrwt>
<pdfrwt beam="1">  1       21 0.61452804E-03 0.12500000E+03</pdfrwt>
<pdfrwt beam="2">  1       21 0.15044980E+00 0.12500000E+03</pdfrwt>
<totfact> 0.24075865E+06</totfact>
</mgrwt>
</event>
<event>
 3    1  0.1592492E-001  0.1250000E+03  0.7546771E-02  0.1235069E+00
         21   -1    0    0  502  501  0.00000000000E+00  0.00000000000E+00  0.26514198370E+02  0.26514198370E+02  0.00000000000E+00 0.  1.
         21   -1    0    0  501  502 -0.00000000000E+00 -0.00000000000E+00 -0.14732672455E+03  0.14732672455E+03  0.00000000000E+00 0.  1.
         25    1    1    2    0    0  0.00000000000E+00  0.00000000000E+00 -0.12081252618E+03  0.17384092292E+03  0.12500000000E+03 0.  0.
<mgrwt>
<rscale>  0 0.12500000E+03</rscale>
<asrwt>0</asrwt>
<pdfrwt beam="1">  1       21 0.40791075E-02 0.12500000E+03</pdfrwt>
<pdfrwt beam="2">  1       21 0.22665650E-01 0.12500000E+03</pdfrwt>
<totfact> 0.67865208E+06</totfact>
</mgrwt>
</event>
<event>
 3    1  0.1592492E-001  0.1250000E+03  0.7546771E-02  0.1235069E+00
         21   -1    0    0  502  501  0.00000000000E+00  0.00000000000E+00  0.22545816526E+03  0.22545816526E+03  0.00000000000E+00 0. -1.
         21   -1    0    0  501  502 -0.00000000000E+00 -0.00000000000E+00 -0.17325830695E+02  0.17325830695E+02  0.00000000000E+00 0. -1.
         25    1    1    2    0    0  0.00000000000E+00  0.00000000000E+00  0.20813233456E+03  0.24278399595E+03  0.12500000000E+03 0.  0.
<mgrwt>
<rscale>  0 0.12500000E+03</rscale>
<asrwt>0</asrwt>
<pdfrwt beam="1">  1       21 0.34685869E-01 0.12500000E+03</pdfrwt>
<pdfrwt beam="2">  1       21 0.26655126E-02 0.12500000E+03</pdfrwt>
<totfact> 0.60564298E+06</totfact>
</mgrwt>
</event>
<event>
 3    1  0.1592492E-001  0.1250000E+03  0.7546771E-02  0.1235069E+00
         21   -1    0    0  502  501  0.00000000000E+00  0.00000000000E+00  0.24269542650E+03  0.24269542650E+03  0.00000000000E+00 0.  1.
         21   -1    0    0  501  502 -0.00000000000E+00 -0.00000000000E+00 -0.16095276522E+02  0.16095276522E+02  0.00000000000E+00 0.  1.
         25    1    1    2    0    0  0.00000000000E+00  0.00000000000E+00  0.22660014997E+03  0.25879070302E+03  0.12500000000E+03 0.  0.
<mgrwt>
<rscale>  0 0.12500000E+03</rscale>
<asrwt>0</asrwt>
<pdfrwt beam="1">  1       21 0.37337755E-01 0.12500000E+03</pdfrwt>
<pdfrwt beam="2">  1       21 0.24761966E-02 0.12500000E+03</pdfrwt>
<totfact> 0.59060290E+06</totfact>
</mgrwt>
</event>
<event>
 3    1  0.1592492E-001  0.1250000E+03  0.7546771E-02  0.1235069E+00
         21   -1    0    0  502  501  0.00000000000E+00  0.00000000000E+00  0.16144149869E+02  0.16144149869E+02  0.00000000000E+00 0. -1.
         21   -1    0    0  501  502 -0.00000000000E+00 -0.00000000000E+00 -0.24196071219E+03  0.24196071219E+03  0.00000000000E+00 0. -1.
         25    1    1    2    0    0  0.00000000000E+00  0.00000000000E+00 -0.22581656232E+03  0.25810486206E+03  0.12500000000E+03 0.  0.
<mgrwt>
<rscale>  0 0.12500000E+03</rscale>
<asrwt>0</asrwt>
<pdfrwt beam="1">  1       21 0.24837155E-02 0.12500000E+03</pdfrwt>
<pdfrwt beam="2">  1       21 0.37224722E-01 0.12500000E+03</pdfrwt>
<totfact> 0.59123411E+06</totfact>
</mgrwt>
</event>
<event>
 3    1  0.1592492E-001  0.1250000E+03  0.7546771E-02  0.1235069E+00
         21   -1    0    0  502  501  0.00000000000E+00  0.00000000000E+00  0.26461979768E+03  0.26461979768E+03  0.00000000000E+00 0. -1.
         21   -1    0    0  501  502 -0.00000000000E+00 -0.00000000000E+00 -0.14761745094E+02  0.14761745094E+02  0.00000000000E+00 0. -1.
         25    1    1    2    0    0  0.00000000000E+00  0.00000000000E+00  0.24985805258E+03  0.27938154277E+03  0.12500000000E+03 0.  0.
<mgrwt>
<rscale>  0 0.12500000E+03</rscale>
<asrwt>0</asrwt>
<pdfrwt beam="1">  1       21 0.40710735E-01 0.12500000E+03</pdfrwt>
<pdfrwt beam="2">  1       21 0.22710379E-02 0.12500000E+03</pdfrwt>
<totfact> 0.57214392E+06</totfact>
</mgrwt>
</event>
<event>
 3    1  0.1592492E-001  0.1250000E+03  0.7546771E-02  0.1235069E+00
         21   -1    0    0  502  501  0.00000000000E+00  0.00000000000E+00  0.24498473338E+03  0.24498473338E+03  0.00000000000E+00 0.  1.
         21   -1    0    0  501  502 -0.00000000000E+00 -0.00000000000E+00 -0.15944871119E+02  0.15944871119E+02  0.00000000000E+00 0.  1.
         25    1    1    2    0    0  0.00000000000E+00  0.00000000000E+00  0.22903986226E+03  0.26092960450E+03  0.12500000000E+03 0.  0.
<mgrwt>
<rscale>  0 0.12500000E+03</rscale>
<asrwt>0</asrwt>
<pdfrwt beam="1">  1       21 0.37689956E-01 0.12500000E+03</pdfrwt>
<pdfrwt beam="2">  1       21 0.24530573E-02 0.12500000E+03</pdfrwt>
<totfact> 0.58864173E+06</totfact>
</mgrwt>
</event>
<event>
 3    1  0.1592492E-001  0.1250000E+03  0.7546771E-02  0.1235069E+00
         21   -1    0    0  502  501  0.00000000000E+00  0.00000000000E+00  0.32413208388E+03  0.32413208388E+03  0.00000000000E+00 0. -1.
         21   -1    0    0  501  502 -0.00000000000E+00 -0.00000000000E+00 -0.12051414205E+02  0.12051414205E+02  0.00000000000E+00 0. -1.
         25    1    1    2    0    0  0.00000000000E+00  0.00000000000E+00  0.31208066968E+03  0.33618349809E+03  0.12500000000E+03 0.  0.
<mgrwt>
<rscale>  0 0.12500000E+03</rscale>
<asrwt>0</asrwt>
<pdfrwt beam="1">  1       21 0.49866468E-01 0.12500000E+03</pdfrwt>
<pdfrwt beam="2">  1       21 0.18540640E-02 0.12500000E+03</pdfrwt>
<totfact> 0.52575297E+06</totfact>
</mgrwt>
</event>
<event>
 3    1  0.1592492E-001  0.1250000E+03  0.7546771E-02  0.1235069E+00
         21   -1    0    0  502  501  0.00000000000E+00  0.00000000000E+00  0.26544253303E+03  0.26544253303E+03  0.00000000000E+00 0. -1.
         21   -1    0    0  501  502 -0.00000000000E+00 -0.00000000000E+00 -0.14715991275E+02  0.14715991275E+02  0.00000000000E+00 0. -1.
         25    1    1    2    0    0  0.00000000000E+00  0.00000000000E+00  0.25072654175E+03  0.28015852430E+03  0.12500000000E+03 0.  0.
<mgrwt>
<rscale>  0 0.12500000E+03</rscale>
<asrwt>0</asrwt>
<pdfrwt beam="1">  1       21 0.40837309E-01 0.12500000E+03</pdfrwt>
<pdfrwt beam="2">  1       21 0.22639989E-02 0.12500000E+03</pdfrwt>
<totfact> 0.57146470E+06</totfact>
</mgrwt>
</event>
<event>
 3    1  0.1592492E-001  0.1250000E+03  0.7546771E-02  0.1235069E+00
         21   -1    0    0  502  501  0.00000000000E+00  0.00000000000E+00  0.62237280840E+01  0.62237280840E+01  0.00000000000E+00 0.  1.
         21   -1    0    0  501  502 -0.00000000000E+00 -0.00000000000E+00 -0.62763828164E+03  0.62763828164E+03  0.00000000000E+00 0.  1.
         25    1    1    2    0    0  0.00000000000E+00  0.00000000000E+00 -0.62141455355E+03  0.63386200972E+03  0.12500000000E+03 0.  0.
<mgrwt>
<rscale>  0 0.12500000E+03</rscale>
<asrwt>0</asrwt>
<pdfrwt beam="1">  1       21 0.95749621E-03 0.12500000E+03</pdfrwt>
<pdfrwt beam="2">  1       21 0.96559778E-01 0.12500000E+03</pdfrwt>
<totfact> 0.35604686E+06</totfact>
</mgrwt>
</event>
<event>
 3    1  0.1592492E-001  0.1250000E+03  0.7546771E-02  0.1235069E+00
         21   -1    0    0  502  501  0.00000000000E+00  0.00000000000E+00  0.39268071642E+02  0.39268071642E+02  0.00000000000E+00 0. -1.
         21   -1    0    0  501  502 -0.00000000000E+00 -0.00000000000E+00 -0.99476491630E+02  0.99476491630E+02  0.00000000000E+00 0. -1.
         25    1    1    2    0    0  0.00000000000E+00  0.00000000000E+00 -0.60208419988E+02  0.13874456327E+03  0.12500000000E+03 0.  0.
<mgrwt>
<rscale>  0 0.12500000E+03</rscale>
<asrwt>0</asrwt>
<pdfrwt beam="1">  1       21 0.60412418E-02 0.12500000E+03</pdfrwt>
<pdfrwt beam="2">  1       21 0.15304076E-01 0.12500000E+03</pdfrwt>
<totfact> 0.72203629E+06</totfact>
</mgrwt>
</event>
<event>
 3    1  0.1592492E-001  0.1250000E+03  0.7546771E-02  0.1235069E+00
         21   -1    0    0  502  501  0.00000000000E+00  0.00000000000E+00  0.36604949660E+02  0.36604949660E+02  0.00000000000E+00 0.  1.
         21   -1    0    0  501  502 -0.00000000000E+00 -0.00000000000E+00 -0.10671371048E+03  0.10671371048E+03  0.00000000000E+00 0.  1.
         25    1    1    2    0    0  0.00000000000E+00  0.00000000000E+00 -0.70108760816E+02  0.14331866014E+03  0.12500000000E+03 0.  0.
<mgrwt>
<rscale>  0 0.12500000E+03</rscale>
<asrwt>0</asrwt>
<pdfrwt beam="1">  1       21 0.56315308E-02 0.12500000E+03</pdfrwt>
<pdfrwt beam="2">  1       21 0.16417494E-01 0.12500000E+03</pdfrwt>
<totfact> 0.71608970E+06</totfact>
</mgrwt>
</event>
<event>
 3    1  0.1592492E-001  0.1250000E+03  0.7546771E-02  0.1235069E+00
         21   -1    0    0  502  501  0.00000000000E+00  0.00000000000E+00  0.99842866454E+01  0.99842866454E+01  0.00000000000E+00 0. -1.
         21   -1    0    0  501  502 -0.00000000000E+00 -0.00000000000E+00 -0.39123976892E+03  0.39123976892E+03  0.00000000000E+00 0. -1.
         25    1    1    2    0    0  0.00000000000E+00  0.00000000000E+00 -0.38125548228E+03  0.40122405557E+03  0.12500000000E+03 0.  0.
<mgrwt>
<rscale>  0 0.12500000E+03</rscale>
<asrwt>0</asrwt>
<pdfrwt beam="1">  1       21 0.15360445E-02 0.12500000E+03</pdfrwt>
<pdfrwt beam="2">  1       21 0.60190719E-01 0.12500000E+03</pdfrwt>
<totfact> 0.47960272E+06</totfact>
</mgrwt>
</event>
<event>
 3    1  0.1592492E-001  0.1250000E+03  0.7546771E-02  0.1235069E+00
         21   -1    0    0  502  501  0.00000000000E+00  0.00000000000E+00  0.12047548203E+03  0.12047548203E+03  0.00000000000E+00 0. -1.
         21   -1    0    0  501  502 -0.00000000000E+00 -0.00000000000E+00 -0.32423609635E+02  0.32423609635E+02  0.00000000000E+00 0. -1.
         25    1    1    2    0    0  0.00000000000E+00  0.00000000000E+00  0.88051872396E+02  0.15289909167E+03  0.12500000000E+03 0.  0.
<mgrwt>
<rscale>  0 0.12500000E+03</rscale>
<asrwt>0</asrwt>
<pdfrwt beam="1">  1       21 0.18534689E-01 0.12500000E+03</pdfrwt>
<pdfrwt beam="2">  1       21 0.49882477E-02 0.12500000E+03</pdfrwt>
<totfact> 0.70396894E+06</totfact>
</mgrwt>
</event>
<event>
 3    1  0.1592492E-001  0.1250000E+03  0.7546771E-02  0.1235069E+00
         21   -1    0    0  502  501  0.00000000000E+00  0.00000000000E+00  0.34118158268E+02  0.34118158268E+02  0.00000000000E+00 0. -1.
         21   -1    0    0  501  502 -0.00000000000E+00 -0.00000000000E+00 -0.11449181897E+03  0.11449181897E+03  0.00000000000E+00 0. -1.
         25    1    1    2    0    0  0.00000000000E+00  0.00000000000E+00 -0.80373660702E+02  0.14860997724E+03  0.12500000000E+03 0.  0.
<mgrwt>
<rscale>  0 0.12500000E+03</rscale>
<asrwt>0</asrwt>
<pdfrwt beam="1">  1       21 0.52489475E-02 0.12500000E+03</pdfrwt>
<pdfrwt beam="2">  1       21 0.17614126E-01 0.12500000E+03</pdfrwt>
<totfact> 0.70934252E+06</totfact>
</mgrwt>
</event>
<event>
 3    1  0.1592492E-001  0.1250000E+03  0.7546771E-02  0.1235069E+00
         21   -1    0    0  502  501  0.00000000000E+00  0.00000000000E+00  0.20857413538E+01  0.20857413538E+01  0.00000000000E+00 0. -1.
         21   -1    0    0  501  502 -0.00000000000E+00 -0.00000000000E+00 -0.18728352837E+04  0.18728352837E+04  0.00000000000E+00 0. -1.
         25    1    1    2    0    0  0.00000000000E+00  0.00000000000E+00 -0.18707495423E+04  0.18749210250E+04  0.12500000000E+03 0.  0.
<mgrwt>
<rscale>  0 0.12500000E+03</rscale>
<asrwt>0</asrwt>
<pdfrwt beam="1">  1       21 0.32088144E-03 0.12500000E+03</pdfrwt>
<pdfrwt beam="2">  1       21 0.28813016E+00 0.12500000E+03</pdfrwt>
<totfact> 0.92335850E+05</totfact>
</mgrwt>
</event>
<event>
 3    1  0.1592492E-001  0.1250000E+03  0.7546771E-02  0.1235069E+00
         21   -1    0    0  502  501  0.00000000000E+00  0.00000000000E+00  0.14915234777E+02  0.14915234777E+02  0.00000000000E+00 0. -1.
         21   -1    0    0  501  502 -0.00000000000E+00 -0.00000000000E+00 -0.26189664852E+03  0.26189664852E+03  0.00000000000E+00 0. -1.
         25    1    1    2    0    0  0.00000000000E+00  0.00000000000E+00 -0.24698141374E+03  0.27681188330E+03  0.12500000000E+03 0.  0.
<mgrwt>
<rscale>  0 0.12500000E+03</rscale>
<asrwt>0</asrwt>
<pdfrwt beam="1">  1       21 0.22946515E-02 0.12500000E+03</pdfrwt>
<pdfrwt beam="2">  1       21 0.40291792E-01 0.12500000E+03</pdfrwt>
<totfact> 0.57439982E+06</totfact>
</mgrwt>
</event>
<event>
 3    1  0.1592492E-001  0.1250000E+03  0.7546771E-02  0.1235069E+00
         21   -1    0    0  502  501  0.00000000000E+00  0.00000000000E+00  0.64110850271E+02  0.64110850271E+02  0.00000000000E+00 0.  1.
         21   -1    0    0  501  502 -0.00000000000E+00 -0.00000000000E+00 -0.60929623979E+02  0.60929623979E+02  0.00000000000E+00 0.  1.
         25    1    1    2    0    0  0.00000000000E+00  0.00000000000E+00  0.31812262920E+01  0.12504047425E+03  0.12500000000E+03 0.  0.
<mgrwt>
<rscale>  0 0.12500000E+03</rscale>
<asrwt>0</asrwt>
<pdfrwt beam="1">  1       21 0.98632077E-02 0.12500000E+03</pdfrwt>
<pdfrwt beam="2">  1       21 0.93737884E-02 0.12500000E+03</pdfrwt>
<totfact> 0.74038115E+06</totfact>
</mgrwt>
</event>
<event>
 3    1  0.1592492E-001  0.1250000E+03  0.7546771E-02  0.1235069E+00
         21   -1    0    0  502  501  0.00000000000E+00  0.00000000000E+00  0.54353411404E+03  0.54353411404E+03  0.00000000000E+00 0.  1.
         21   -1    0    0  501  502 -0.00000000000E+00 -0.00000000000E+00 -0.71867614177E+01  0.71867614177E+01  0.00000000000E+00 0.  1.
         25    1    1    2    0    0  0.00000000000E+00  0.00000000000E+00  0.53634735263E+03  0.55072087546E+03  0.12500000000E+03 0.  0.
<mgrwt>
<rscale>  0 0.12500000E+03</rscale>
<asrwt>0</asrwt>
<pdfrwt beam="1">  1       21 0.83620601E-01 0.12500000E+03</pdfrwt>
<pdfrwt beam="2">  1       21 0.11056560E-02 0.12500000E+03</pdfrwt>
<totfact> 0.39420489E+06</totfact>
</mgrwt>
</event>
<event>
 3    1  0.1592492E-001  0.1250000E+03  0.7546771E-02  0.1235069E+00
         21   -1    0    0  502  501  0.00000000000E+00  0.00000000000E+00  0.36459347300E+03  0.36459347300E+03  0.00000000000E+00 0.  1.
         21   -1    0    0  501  502 -0.00000000000E+00 -0.00000000000E+00 -0.10713987740E+02  0.10713987740E+02  0.00000000000E+00 0.  1.
         25    1    1    2    0    0  0.00000000000E+00  0.00000000000E+00  0.35387948526E+03  0.37530746074E+03  0.12500000000E+03 0.  0.
<mgrwt>
<rscale>  0 0.12500000E+03</rscale>
<asrwt>0</asrwt>
<pdfrwt beam="1">  1       21 0.56091294E-01 0.12500000E+03</pdfrwt>
<pdfrwt beam="2">  1       21 0.16483061E-02 0.12500000E+03</pdfrwt>
<totfact> 0.49722013E+06</totfact>
</mgrwt>
</event>
<event>
 3    1  0.1592492E-001  0.1250000E+03  0.7546771E-02  0.1235069E+00
         21   -1    0    0  502  501  0.00000000000E+00  0.00000000000E+00  0.15647490686E+02  0.15647490686E+02  0.00000000000E+00 0.  1.
         21   -1    0    0  501  502 -0.00000000000E+00 -0.00000000000E+00 -0.24964066625E+03  0.24964066625E+03  0.00000000000E+00 0.  1.
         25    1    1    2    0    0  0.00000000000E+00  0.00000000000E+00 -0.23399317556E+03  0.26528815693E+03  0.12500000000E+03 0.  0.
<mgrwt>
<rscale>  0 0.12500000E+03</rscale>
<asrwt>0</asrwt>
<pdfrwt beam="1">  1       21 0.24073063E-02 0.12500000E+03</pdfrwt>
<pdfrwt beam="2">  1       21 0.38406255E-01 0.12500000E+03</pdfrwt>
<totfact> 0.58467949E+06</totfact>
</mgrwt>
</event>
<event>
 3    1  0.1592492E-001  0.1250000E+03  0.7546771E-02  0.1235069E+00
         21   -1    0    0  502  501  0.00000000000E+00  0.00000000000E+00  0.44541078058E+03  0.44541078058E+03  0.00000000000E+00 0.  1.
         21   -1    0    0  501  502 -0.00000000000E+00 -0.00000000000E+00 -0.87699942846E+01  0.87699942846E+01  0.00000000000E+00 0.  1.
         25    1    1    2    0    0  0.00000000000E+00  0.00000000000E+00  0.43664078630E+03  0.45418077487E+03  0.12500000000E+03 0.  0.
<mgrwt>
<rscale>  0 0.12500000E+03</rscale>
<asrwt>0</asrwt>
<pdfrwt beam="1">  1       21 0.68524718E-01 0.12500000E+03</pdfrwt>
<pdfrwt beam="2">  1       21 0.13492302E-02 0.12500000E+03</pdfrwt>
<totfact> 0.44643160E+06</totfact>
</mgrwt>
</event>
<event>
 3    1  0.1592492E-001  0.1250000E+03  0.7546771E-02  0.1235069E+00
         21   -1    0    0  502  501  0.00000000000E+00  0.00000000000E+00  0.13566536784E+03  0.13566536784E+03  0.00000000000E+00 0. -1.
         21   -1    0    0  501  502 -0.00000000000E+00 -0.00000000000E+00 -0.28793273200E+02  0.28793273200E+02  0.00000000000E+00 0. -1.
         25    1    1    2    0    0  0.00000000000E+00  0.00000000000E+00  0.10687209464E+03  0.16445864104E+03  0.12500000000E+03 0.  0.
<mgrwt>
<rscale>  0 0.12500000E+03</rscale>
<asrwt>0</asrwt>
<pdfrwt beam="1">  1       21 0.20871595E-01 0.12500000E+03</pdfrwt>
<pdfrwt beam="2">  1       21 0.44297344E-02 0.12500000E+03</pdfrwt>
<totfact> 0.68978761E+06</totfact>
</mgrwt>
</event>
<event>
 3    1  0.1592492E-001  0.1250000E+03  0.7546771E-02  0.1235069E+00
         21   -1    0    0  502  501  0.00000000000E+00  0.00000000000E+00  0.72588776755E+01  0.72588776755E+01  0.00000000000E+00 0. -1.
         21   -1    0    0  501  502 -0.00000000000E+00 -0.00000000000E+00 -0.53813415443E+03  0.53813415443E+03  0.00000000000E+00 0. -1.
         25    1    1    2    0    0  0.00000000000E+00  0.00000000000E+00 -0.53087527675E+03  0.54539303210E+03  0.12500000000E+03 0.  0.
<mgrwt>
<rscale>  0 0.12500000E+03</rscale>
<asrwt>0</asrwt>
<pdfrwt beam="1">  1       21 0.11167500E-02 0.12500000E+03</pdfrwt>
<pdfrwt beam="2">  1       21 0.82789900E-01 0.12500000E+03</pdfrwt>
<totfact> 0.39684649E+06</totfact>
</mgrwt>
</event>
<event>
 3    1  0.1592492E-001  0.1250000E+03  0.7546771E-02  0.1235069E+00
         21   -1    0    0  502  501  0.00000000000E+00  0.00000000000E+00  0.13978078475E+02  0.13978078475E+02  0.00000000000E+00 0.  1.
         21   -1    0    0  501  502 -0.00000000000E+00 -0.00000000000E+00 -0.27945543495E+03  0.27945543495E+03  0.00000000000E+00 0.  1.
         25    1    1    2    0    0  0.00000000000E+00  0.00000000000E+00 -0.26547735647E+03  0.29343351342E+03  0.12500000000E+03 0.  0.
<mgrwt>
<rscale>  0 0.12500000E+03</rscale>
<asrwt>0</asrwt>
<pdfrwt beam="1">  1       21 0.21504737E-02 0.12500000E+03</pdfrwt>
<pdfrwt beam="2">  1       21 0.42993142E-01 0.12500000E+03</pdfrwt>
<totfact> 0.56006328E+06</totfact>
</mgrwt>
</event>
<event>
 3    1  0.1592492E-001  0.1250000E+03  0.7546771E-02  0.1235069E+00
         21   -1    0    0  502  501  0.00000000000E+00  0.00000000000E+00  0.30219669317E+02  0.30219669317E+02  0.00000000000E+00 0.  1.
         21   -1    0    0  501  502 -0.00000000000E+00 -0.00000000000E+00 -0.12926183801E+03  0.12926183801E+03  0.00000000000E+00 0.  1.
         25    1    1    2    0    0  0.00000000000E+00  0.00000000000E+00 -0.99042168692E+02  0.15948150733E+03  0.12500000000E+03 0.  0.
<mgrwt>
<rscale>  0 0.12500000E+03</rscale>
<asrwt>0</asrwt>
<pdfrwt beam="1">  1       21 0.46491800E-02 0.12500000E+03</pdfrwt>
<pdfrwt beam="2">  1       21 0.19886436E-01 0.12500000E+03</pdfrwt>
<totfact> 0.69582906E+06</totfact>
</mgrwt>
</event>
<event>
 3    1  0.1592492E-001  0.1250000E+03  0.7546771E-02  0.1235069E+00
         21   -1    0    0  502  501  0.00000000000E+00  0.00000000000E+00  0.12498782086E+03  0.12498782086E+03  0.00000000000E+00 0. -1.
         21   -1    0    0  501  502 -0.00000000000E+00 -0.00000000000E+00 -0.31253045081E+02  0.31253045081E+02  0.00000000000E+00 0. -1.
         25    1    1    2    0    0  0.00000000000E+00  0.00000000000E+00  0.93734775781E+02  0.15624086594E+03  0.12500000000E+03 0.  0.
<mgrwt>
<rscale>  0 0.12500000E+03</rscale>
<asrwt>0</asrwt>
<pdfrwt beam="1">  1       21 0.19228895E-01 0.12500000E+03</pdfrwt>
<pdfrwt beam="2">  1       21 0.48081608E-02 0.12500000E+03</pdfrwt>
<totfact> 0.69981763E+06</totfact>
</mgrwt>
</event>
<event>
 3    1  0.1592492E-001  0.1250000E+03  0.7546771E-02  0.1235069E+00
         21   -1    0    0  502  501  0.00000000000E+00  0.00000000000E+00  0.49548343102E+02  0.49548343102E+02  0.00000000000E+00 0.  1.
         21   -1    0    0  501  502 -0.00000000000E+00 -0.00000000000E+00 -0.78837146824E+02  0.78837146824E+02  0.00000000000E+00 0.  1.
         25    1    1    2    0    0  0.00000000000E+00  0.00000000000E+00 -0.29288803722E+02  0.12838548993E+03  0.12500000000E+03 0.  0.
<mgrwt>
<rscale>  0 0.12500000E+03</rscale>
<asrwt>0</asrwt>
<pdfrwt beam="1">  1       21 0.76228220E-02 0.12500000E+03</pdfrwt>
<pdfrwt beam="2">  1       21 0.12128792E-01 0.12500000E+03</pdfrwt>
<totfact> 0.73581548E+06</totfact>
</mgrwt>
</event>
<event>
 3    1  0.1592492E-001  0.1250000E+03  0.7546771E-02  0.1235069E+00
         21   -1    0    0  502  501  0.00000000000E+00  0.00000000000E+00  0.16542390913E+03  0.16542390913E+03  0.00000000000E+00 0. -1.
         21   -1    0    0  501  502 -0.00000000000E+00 -0.00000000000E+00 -0.23613575695E+02  0.23613575695E+02  0.00000000000E+00 0. -1.
         25    1    1    2    0    0  0.00000000000E+00  0.00000000000E+00  0.14181033343E+03  0.18903748482E+03  0.12500000000E+03 0.  0.
<mgrwt>
<rscale>  0 0.12500000E+03</rscale>
<asrwt>0</asrwt>
<pdfrwt beam="1">  1       21 0.25449831E-01 0.12500000E+03</pdfrwt>
<pdfrwt beam="2">  1       21 0.36328579E-02 0.12500000E+03</pdfrwt>
<totfact> 0.66129599E+06</totfact>
</mgrwt>
</event>
<event>
 3    1  0.1592492E-001  0.1250000E+03  0.7546771E-02  0.1235069E+00
         21   -1    0    0  502  501  0.00000000000E+00  0.00000000000E+00  0.45476099113E+02  0.45476099113E+02  0.00000000000E+00 0.  1.
         21   -1    0    0  501  502 -0.00000000000E+00 -0.00000000000E+00 -0.85896769429E+02  0.85896769429E+02  0.00000000000E+00 0.  1.
         25    1    1    2    0    0  0.00000000000E+00  0.00000000000E+00 -0.40420670316E+02  0.13137286854E+03  0.12500000000E+03 0.  0.
<mgrwt>
<rscale>  0 0.12500000E+03</rscale>
<asrwt>0</asrwt>
<pdfrwt beam="1">  1       21 0.69963230E-02 0.12500000E+03</pdfrwt>
<pdfrwt beam="2">  1       21 0.13214888E-01 0.12500000E+03</pdfrwt>
<totfact> 0.73180468E+06</totfact>
</mgrwt>
</event>
<event>
 3    1  0.1592492E-001  0.1250000E+03  0.7546771E-02  0.1235069E+00
         21   -1    0    0  502  501  0.00000000000E+00  0.00000000000E+00  0.64086252862E+02  0.64086252862E+02  0.00000000000E+00 0.  1.
         21   -1    0    0  501  502 -0.00000000000E+00 -0.00000000000E+00 -0.60953009819E+02  0.60953009819E+02  0.00000000000E+00 0.  1.
         25    1    1    2    0    0  0.00000000000E+00  0.00000000000E+00  0.31332430429E+01  0.12503926268E+03  0.12500000000E+03 0.  0.
<mgrwt>
<rscale>  0 0.12500000E+03</rscale>
<asrwt>0</asrwt>
<pdfrwt beam="1">  1       21 0.98594235E-02 0.12500000E+03</pdfrwt>
<pdfrwt beam="2">  1       21 0.93773861E-02 0.12500000E+03</pdfrwt>
<totfact> 0.74038278E+06</totfact>
</mgrwt>
</event>
<event>
 3    1  0.1592492E-001  0.1250000E+03  0.7546771E-02  0.1235069E+00
         21   -1    0    0  502  501  0.00000000000E+00  0.00000000000E+00  0.42575771352E+01  0.42575771352E+01  0.00000000000E+00 0.  1.
         21   -1    0    0  501  502 -0.00000000000E+00 -0.00000000000E+00 -0.91748190953E+03  0.91748190953E+03  0.00000000000E+00 0.  1.
         25    1    1    2    0    0  0.00000000000E+00  0.00000000000E+00 -0.91322433240E+03  0.92173948667E+03  0.12500000000E+03 0.  0.
<mgrwt>
<rscale>  0 0.12500000E+03</rscale>
<asrwt>0</asrwt>
<pdfrwt beam="1">  1       21 0.65501200E-03 0.12500000E+03</pdfrwt>
<pdfrwt beam="2">  1       21 0.14115103E+00 0.12500000E+03</pdfrwt>
<totfact> 0.25683599E+06</totfact>
</mgrwt>
</event>
<event>
 3    1  0.1592492E-001  0.1250000E+03  0.7546771E-02  0.1235069E+00
         21   -1    0    0  502  501  0.00000000000E+00  0.00000000000E+00  0.61570903130E+03  0.61570903130E+03  0.00000000000E+00 0.  1.
         21   -1    0    0  501  502 -0.00000000000E+00 -0.00000000000E+00 -0.63443116820E+01  0.63443116820E+01  0.00000000000E+00 0.  1.
         25    1    1    2    0    0  0.00000000000E+00  0.00000000000E+00  0.60936471962E+03  0.62205334298E+03  0.12500000000E+03 0.  0.
<mgrwt>
<rscale>  0 0.12500000E+03</rscale>
<asrwt>0</asrwt>
<pdfrwt beam="1">  1       21 0.94724419E-01 0.12500000E+03</pdfrwt>
<pdfrwt beam="2">  1       21 0.97604844E-03 0.12500000E+03</pdfrwt>
<totfact> 0.36113927E+06</totfact>
</mgrwt>
</event>
<event>
 3    1  0.1592492E-001  0.1250000E+03  0.7546771E-02  0.1235069E+00
         21   -1    0    0  502  501  0.00000000000E+00  0.00000000000E+00  0.14091257324E+02  0.14091257324E+02  0.00000000000E+00 0. -1.
         21   -1    0    0  501  502 -0.00000000000E+00 -0.00000000000E+00 -0.27721089113E+03  0.27721089113E+03  0.00000000000E+00 0. -1.
         25    1    1    2    0    0  0.00000000000E+00  0.00000000000E+00 -0.26311963381E+03  0.29130214846E+03  0.12500000000E+03 0.  0.
<mgrwt>
<rscale>  0 0.12500000E+03</rscale>
<asrwt>0</asrwt>
<pdfrwt beam="1">  1       21 0.21678857E-02 0.12500000E+03</pdfrwt>
<pdfrwt beam="2">  1       21 0.42647831E-01 0.12500000E+03</pdfrwt>
<totfact> 0.56186833E+06</totfact>
</mgrwt>
</event>
<event>
 3    1  0.1592492E-001  0.1250000E+03  0.7546771E-02  0.1235069E+00
         21   -1    0    0  502  501  0.00000000000E+00  0.00000000000E+00  0.76951368278E+01  0.76951368278E+01  0.00000000000E+00 0. -1.
         21   -1    0    0  501  502 -0.00000000000E+00 -0.00000000000E+00 -0.50762580152E+03  0.50762580152E+03  0.00000000000E+00 0. -1.
         25    1    1    2    0    0  0.00000000000E+00  0.00000000000E+00 -0.49993066469E+03  0.51532093835E+03  0.12500000000E+03 0.  0.
<mgrwt>
<rscale>  0 0.12500000E+03</rscale>
<asrwt>0</asrwt>
<pdfrwt beam="1">  1       21 0.11838670E-02 0.12500000E+03</pdfrwt>
<pdfrwt beam="2">  1       21 0.78096293E-01 0.12500000E+03</pdfrwt>
<totfact> 0.41225181E+06</totfact>
</mgrwt>
</event>
<event>
 3    1  0.1592492E-001  0.1250000E+03  0.7546771E-02  0.1235069E+00
         21   -1    0    0  502  501  0.00000000000E+00  0.00000000000E+00  0.93789957134E+03  0.93789957134E+03  0.00000000000E+00 0. -1.
         21   -1    0    0  501  502 -0.00000000000E+00 -0.00000000000E+00 -0.41648915506E+01  0.41648915506E+01  0.00000000000E+00 0. -1.
         25    1    1    2    0    0  0.00000000000E+00  0.00000000000E+00  0.93373467979E+03  0.94206446289E+03  0.12500000000E+03 0.  0.
<mgrwt>
<rscale>  0 0.12500000E+03</rscale>
<asrwt>0</asrwt>
<pdfrwt beam="1">  1       21 0.14429207E+00 0.12500000E+03</pdfrwt>
<pdfrwt beam="2">  1       21 0.64075329E-03 0.12500000E+03</pdfrwt>
<totfact> 0.25125110E+06</totfact>
</mgrwt>
</event>
<event>
 3    1  0.1592492E-001  0.1250000E+03  0.7546771E-02  0.1235069E+00
         21   -1    0    0  502  501  0.00000000000E+00  0.00000000000E+00  0.82906654907E+02  0.82906654907E+02  0.00000000000E+00 0. -1.
         21   -1    0    0  501  502 -0.00000000000E+00 -0.00000000000E+00 -0.47116241807E+02  0.47116241807E+02  0.00000000000E+00 0. -1.
         25    1    1    2    0    0  0.00000000000E+00  0.00000000000E+00  0.35790413101E+02  0.13002289671E+03  0.12500000000E+03 0.  0.
<mgrwt>
<rscale>  0 0.12500000E+03</rscale>
<asrwt>0</asrwt>
<pdfrwt beam="1">  1       21 0.12754870E-01 0.12500000E+03</pdfrwt>
<pdfrwt beam="2">  1       21 0.72486526E-02 0.12500000E+03</pdfrwt>
<totfact> 0.73361855E+06</totfact>
</mgrwt>
</event>
<event>
 3    1  0.1592492E-001  0.1250000E+03  0.7546771E-02  0.1235069E+00
         21   -1    0    0  502  501  0.00000000000E+00  0.00000000000E+00  0.62334254652E+02  0.62334254652E+02  0.00000000000E+00 0.  1.
         21   -1    0    0  501  502 -0.00000000000E+00 -0.00000000000E+00 -0.62666186061E+02  0.62666186061E+02  0.00000000000E+00 0.  1.
         25    1    1    2    0    0  0.00000000000E+00  0.00000000000E+00 -0.33193140864E+00  0.12500044071E+03  0.12500000000E+03 0.  0.
<mgrwt>
<rscale>  0 0.12500000E+03</rscale>
<asrwt>0</asrwt>
<pdfrwt beam="1">  1       21 0.95898854E-02 0.12500000E+03</pdfrwt>
<pdfrwt beam="2">  1       21 0.96409517E-02 0.12500000E+03</pdfrwt>
<totfact> 0.74043522E+06</totfact>
</mgrwt>
</event>
<event>
 3    1  0.1592492E-001  0.1250000E+03  0.7546771E-02  0.1235069E+00
         21   -1    0    0  502  501  0.00000000000E+00  0.00000000000E+00  0.57703477770E+01  0.57703477770E+01  0.00000000000E+00 0. -1.
         21   -1    0    0  501  502 -0.00000000000E+00 -0.00000000000E+00 -0.67695226544E+03  0.67695226544E+03  0.00000000000E+00 0. -1.
         25    1    1    2    0    0  0.00000000000E+00  0.00000000000E+00 -0.67118191766E+03  0.68272261321E+03  0.12500000000E+03 0.  0.
<mgrwt>
<rscale>  0 0.12500000E+03</rscale>
<asrwt>0</asrwt>
<pdfrwt beam="1">  1       21 0.88774607E-03 0.12500000E+03</pdfrwt>
<pdfrwt beam="2">  1       21 0.10414647E+00 0.12500000E+03</pdfrwt>
<totfact> 0.33586958E+06</totfact>
</mgrwt>
</event>
<event>
 3    1  0.1592492E-001  0.1250000E+03  0.7546771E-02  0.1235069E+00
         21   -1    0    0  502  501  0.00000000000E+00  0.00000000000E+00  0.36122382815E+03  0.36122382815E+03  0.00000000000E+00 0.  1.
         21   -1    0    0  501  502 -0.00000000000E+00 -0.00000000000E+00 -0.10813932237E+02  0.10813932237E+02  0.00000000000E+00 0.  1.
         25    1    1    2    0    0  0.00000000000E+00  0.00000000000E+00  0.35040989591E+03  0.37203776038E+03  0.12500000000E+03 0.  0.
<mgrwt>
<rscale>  0 0.12500000E+03</rscale>
<asrwt>0</asrwt>
<pdfrwt beam="1">  1       21 0.55572888E-01 0.12500000E+03</pdfrwt>
<pdfrwt beam="2">  1       21 0.16636822E-02 0.12500000E+03</pdfrwt>
<totfact> 0.49950939E+06</totfact>
</mgrwt>
</event>
<event>
 3    1  0.1592492E-001  0.1250000E+03  0.7546771E-02  0.1235069E+00
         21   -1    0    0  502  501  0.00000000000E+00  0.00000000000E+00  0.39071873565E+01  0.39071873565E+01  0.00000000000E+00 0. -1.
         21   -1    0    0  501  502 -0.00000000000E+00 -0.00000000000E+00 -0.99976009431E+03  0.99976009431E+03  0.00000000000E+00 0. -1.
         25    1    1    2    0    0  0.00000000000E+00  0.00000000000E+00 -0.99585290695E+03  0.10036672817E+04  0.12500000000E+03 0.  0.
<mgrwt>
<rscale>  0 0.12500000E+03</rscale>
<asrwt>0</asrwt>
<pdfrwt beam="1">  1       21 0.60110620E-03 0.12500000E+03</pdfrwt>
<pdfrwt beam="2">  1       21 0.15380913E+00 0.12500000E+03</pdfrwt>
<totfact> 0.23527337E+06</totfact>
</mgrwt>
</event>
<event>
 3    1  0.1592492E-001  0.1250000E+03  0.7546771E-02  0.1235069E+00
         21   -1    0    0  502  501  0.00000000000E+00  0.00000000000E+00  0.98369411640E+03  0.98369411640E+03  0.00000000000E+00 0.  1.
         21   -1    0    0  501  502 -0.00000000000E+00 -0.00000000000E+00 -0.39710006748E+01  0.39710006748E+01  0.00000000000E+00 0.  1.
         25    1    1    2    0    0  0.00000000000E+00  0.00000000000E+00  0.97972311572E+03  0.98766511707E+03  0.12500000000E+03 0.  0.
<mgrwt>
<rscale>  0 0.12500000E+03</rscale>
<asrwt>0</asrwt>
<pdfrwt beam="1">  1       21 0.15133736E+00 0.12500000E+03</pdfrwt>
<pdfrwt beam="2">  1       21 0.61092396E-03 0.12500000E+03</pdfrwt>
<totfact> 0.23929373E+06</totfact>
</mgrwt>
</event>
<event>
 3    1  0.1592492E-001  0.1250000E+03  0.7546771E-02  0.1235069E+00
         21   -1    0    0  502  501  0.00000000000E+00  0.00000000000E+00  0.44719529509E+01  0.44719529509E+01  0.00000000000E+00 0. -1.
         21   -1    0    0  501  502 -0.00000000000E+00 -0.00000000000E+00 -0.87349979816E+03  0.87349979816E+03  0.00000000000E+00 0. -1.
         25    1    1    2    0    0  0.00000000000E+00  0.00000000000E+00 -0.86902784521E+03  0.87797175111E+03  0.12500000000E+03 0.  0.
<mgrwt>
<rscale>  0 0.12500000E+03</rscale>
<asrwt>0</asrwt>
<pdfrwt beam="1">  1       21 0.68799262E-03 0.12500000E+03</pdfrwt>
<pdfrwt beam="2">  1       21 0.13438461E+00 0.12500000E+03</pdfrwt>
<totfact> 0.26935804E+06</totfact>
</mgrwt>
</event>
<event>
 3    1  0.1592492E-001  0.1250000E+03  0.7546771E-02  0.1235069E+00
         21   -1    0    0  502  501  0.00000000000E+00  0.00000000000E+00  0.20129857044E+02  0.20129857044E+02  0.00000000000E+00 0. -1.
         21   -1    0    0  501  502 -0.00000000000E+00 -0.00000000000E+00 -0.19405254550E+03  0.19405254550E+03  0.00000000000E+00 0. -1.
         25    1    1    2    0    0  0.00000000000E+00  0.00000000000E+00 -0.17392268846E+03  0.21418240255E+03  0.12500000000E+03 0.  0.
<mgrwt>
<rscale>  0 0.12500000E+03</rscale>
<asrwt>0</asrwt>
<pdfrwt beam="1">  1       21 0.30969012E-02 0.12500000E+03</pdfrwt>
<pdfrwt beam="2">  1       21 0.29854237E-01 0.12500000E+03</pdfrwt>
<totfact> 0.63422168E+06</totfact>
</mgrwt>
</event>
<event>
 3    1  0.1592492E-001  0.1250000E+03  0.7546771E-02  0.1235069E+00
         21   -1    0    0  502  501  0.00000000000E+00  0.00000000000E+00  0.39614985952E+02  0.39614985952E+02  0.00000000000E+00 0. -1.
         21   -1    0    0  501  502 -0.00000000000E+00 -0.00000000000E+00 -0.98605361231E+02  0.98605361231E+02  0.00000000000E+00 0. -1.
         25    1    1    2    0    0  0.00000000000E+00  0.00000000000E+00 -0.58990375279E+02  0.13822034718E+03  0.12500000000E+03 0.  0.
<mgrwt>
<rscale>  0 0.12500000E+03</rscale>
<asrwt>0</asrwt>
<pdfrwt beam="1">  1       21 0.60946133E-02 0.12500000E+03</pdfrwt>
<pdfrwt beam="2">  1       21 0.15170055E-01 0.12500000E+03</pdfrwt>
<totfact> 0.72272498E+06</totfact>
</mgrwt>
</event>
<event>
 3    1  0.1592492E-001  0.1250000E+03  0.7546771E-02  0.1235069E+00
         21   -1    0    0  502  501  0.00000000000E+00  0.00000000000E+00  0.44695183420E+02  0.44695183420E+02  0.00000000000E+00 0. -1.
         21   -1    0    0  501  502 -0.00000000000E+00 -0.00000000000E+00 -0.87397560568E+02  0.87397560568E+02  0.00000000000E+00 0. -1.
         25    1    1    2    0    0  0.00000000000E+00  0.00000000000E+00 -0.42702377148E+02  0.13209274399E+03  0.12500000000E+03 0.  0.
<mgrwt>
<rscale>  0 0.12500000E+03</rscale>
<asrwt>0</asrwt>
<pdfrwt beam="1">  1       21 0.68761821E-02 0.12500000E+03</pdfrwt>
<pdfrwt beam="2">  1       21 0.13445778E-01 0.12500000E+03</pdfrwt>
<totfact> 0.73083792E+06</totfact>
</mgrwt>
</event>
<event>
 3    1  0.1592492E-001  0.1250000E+03  0.7546771E-02  0.1235069E+00
         21   -1    0    0  502  501  0.00000000000E+00  0.00000000000E+00  0.15207745450E+01  0.15207745450E+01  0.00000000000E+00 0. -1.
         21   -1    0    0  501  502 -0.00000000000E+00 -0.00000000000E+00 -0.25685924405E+04  0.25685924405E+04  0.00000000000E+00 0. -1.
         25    1    1    2    0    0  0.00000000000E+00  0.00000000000E+00 -0.25670716660E+04  0.25701132151E+04  0.12500000000E+03 0.  0.
<mgrwt>
<rscale>  0 0.12500000E+03</rscale>
<asrwt>0</asrwt>
<pdfrwt beam="1">  1       21 0.23396698E-03 0.12500000E+03</pdfrwt>
<pdfrwt beam="2">  1       21 0.39516526E+00 0.12500000E+03</pdfrwt>
<totfact> 0.36116899E+05</totfact>
</mgrwt>
</event>
<event>
 3    1  0.1592492E-001  0.1250000E+03  0.7546771E-02  0.1235069E+00
         21   -1    0    0  502  501  0.00000000000E+00  0.00000000000E+00  0.47180909727E+01  0.47180909727E+01  0.00000000000E+00 0. -1.
         21   -1    0    0  501  502 -0.00000000000E+00 -0.00000000000E+00 -0.82793019945E+03  0.82793019945E+03  0.00000000000E+00 0. -1.
         25    1    1    2    0    0  0.00000000000E+00  0.00000000000E+00 -0.82321210847E+03  0.83264829042E+03  0.12500000000E+03 0.  0.
<mgrwt>
<rscale>  0 0.12500000E+03</rscale>
<asrwt>0</asrwt>
<pdfrwt beam="1">  1       21 0.72586079E-03 0.12500000E+03</pdfrwt>
<pdfrwt beam="2">  1       21 0.12737376E+00 0.12500000E+03</pdfrwt>
<totfact> 0.28309315E+06</totfact>
</mgrwt>
</event>
<event>
 3    1  0.1592492E-001  0.1250000E+03  0.7546771E-02  0.1235069E+00
         21   -1    0    0  502  501  0.00000000000E+00  0.00000000000E+00  0.46574969526E+02  0.46574969526E+02  0.00000000000E+00 0.  1.
         21   -1    0    0  501  502 -0.00000000000E+00 -0.00000000000E+00 -0.83870156863E+02  0.83870156863E+02  0.00000000000E+00 0.  1.
         25    1    1    2    0    0  0.00000000000E+00  0.00000000000E+00 -0.37295187338E+02  0.13044512639E+03  0.12500000000E+03 0.  0.
<mgrwt>
<rscale>  0 0.12500000E+03</rscale>
<asrwt>0</asrwt>
<pdfrwt beam="1">  1       21 0.71653800E-02 0.12500000E+03</pdfrwt>
<pdfrwt beam="2">  1       21 0.12903101E-01 0.12500000E+03</pdfrwt>
<totfact> 0.73305483E+06</totfact>
</mgrwt>
</event>
<event>
 3    1  0.1592492E-001  0.1250000E+03  0.7546771E-02  0.1235069E+00
         21   -1    0    0  502  501  0.00000000000E+00  0.00000000000E+00  0.49637233331E+01  0.49637233331E+01  0.00000000000E+00 0.  1.
         21   -1    0    0  501  502 -0.00000000000E+00 -0.00000000000E+00 -0.78695965465E+03  0.78695965465E+03  0.00000000000E+00 0.  1.
         25    1    1    2    0    0  0.00000000000E+00  0.00000000000E+00 -0.78199593132E+03  0.79192337799E+03  0.12500000000E+03 0.  0.
<mgrwt>
<rscale>  0 0.12500000E+03</rscale>
<asrwt>0</asrwt>
<pdfrwt beam="1">  1       21 0.76364959E-03 0.12500000E+03</pdfrwt>
<pdfrwt beam="2">  1       21 0.12107074E+00 0.12500000E+03</pdfrwt>
<totfact> 0.29632165E+06</totfact>
</mgrwt>
</event>
<event>
 3    1  0.1592492E-001  0.1250000E+03  0.7546771E-02  0.1235069E+00
         21   -1    0    0  502  501  0.00000000000E+00  0.00000000000E+00  0.23488444885E+03  0.23488444885E+03  0.00000000000E+00 0. -1.
         21   -1    0    0  501  502 -0.00000000000E+00 -0.00000000000E+00 -0.16630517768E+02  0.16630517768E+02  0.00000000000E+00 0. -1.
         25    1    1    2    0    0  0.00000000000E+00  0.00000000000E+00  0.21825393108E+03  0.25151496662E+03  0.12500000000E+03 0.  0.
<mgrwt>
<rscale>  0 0.12500000E+03</rscale>
<asrwt>0</asrwt>
<pdfrwt beam="1">  1       21 0.36136067E-01 0.12500000E+03</pdfrwt>
<pdfrwt beam="2">  1       21 0.25585414E-02 0.12500000E+03</pdfrwt>
<totfact> 0.59735851E+06</totfact>
</mgrwt>
</event>
<event>
 3    1  0.1592492E-001  0.1250000E+03  0.7546771E-02  0.1235069E+00
         21   -1    0    0  502  501  0.00000000000E+00  0.00000000000E+00  0.16416858636E+02  0.16416858636E+02  0.00000000000E+00 0.  1.
         21   -1    0    0  501  502 -0.00000000000E+00 -0.00000000000E+00 -0.23794138005E+03  0.23794138005E+03  0.00000000000E+00 0.  1.
         25    1    1    2    0    0  0.00000000000E+00  0.00000000000E+00 -0.22152452142E+03  0.25435823869E+03  0.12500000000E+03 0.  0.
<mgrwt>
<rscale>  0 0.12500000E+03</rscale>
<asrwt>0</asrwt>
<pdfrwt beam="1">  1       21 0.25256705E-02 0.12500000E+03</pdfrwt>
<pdfrwt beam="2">  1       21 0.36606367E-01 0.12500000E+03</pdfrwt>
<totfact> 0.59470277E+06</totfact>
</mgrwt>
</event>
<event>
 3    1  0.1592492E-001  0.1250000E+03  0.7546771E-02  0.1235069E+00
         21   -1    0    0  502  501  0.00000000000E+00  0.00000000000E+00  0.29281257016E+02  0.29281257016E+02  0.00000000000E+00 0.  1.
         21   -1    0    0  501  502 -0.00000000000E+00 -0.00000000000E+00 -0.13340445043E+03  0.13340445043E+03  0.00000000000E+00 0.  1.
         25    1    1    2    0    0  0.00000000000E+00  0.00000000000E+00 -0.10412319341E+03  0.16268570744E+03  0.12500000000E+03 0.  0.
<mgrwt>
<rscale>  0 0.12500000E+03</rscale>
<asrwt>0</asrwt>
<pdfrwt beam="1">  1       21 0.45048089E-02 0.12500000E+03</pdfrwt>
<pdfrwt beam="2">  1       21 0.20523761E-01 0.12500000E+03</pdfrwt>
<totfact> 0.69192812E+06</totfact>
</mgrwt>
</event>
<event>
 3    1  0.1592492E-001  0.1250000E+03  0.7546771E-02  0.1235069E+00
         21   -1    0    0  502  501  0.00000000000E+00  0.00000000000E+00  0.32027384329E+02  0.32027384329E+02  0.00000000000E+00 0.  1.
         21   -1    0    0  501  502 -0.00000000000E+00 -0.00000000000E+00 -0.12196593890E+03  0.12196593890E+03  0.00000000000E+00 0.  1.
         25    1    1    2    0    0  0.00000000000E+00  0.00000000000E+00 -0.89938554567E+02  0.15399332322E+03  0.12500000000E+03 0.  0.
<mgrwt>
<rscale>  0 0.12500000E+03</rscale>
<asrwt>0</asrwt>
<pdfrwt beam="1">  1       21 0.49272898E-02 0.12500000E+03</pdfrwt>
<pdfrwt beam="2">  1       21 0.18763991E-01 0.12500000E+03</pdfrwt>
<totfact> 0.70260992E+06</totfact>
</mgrwt>
</event>
<event>
 3    1  0.1592492E-001  0.1250000E+03  0.7546771E-02  0.1235069E+00
         21   -1    0    0  502  501  0.00000000000E+00  0.00000000000E+00  0.66609105151E+03  0.66609105151E+03  0.00000000000E+00 0.  1.
         21   -1    0    0  501  502 -0.00000000000E+00 -0.00000000000E+00 -0.58644384895E+01  0.58644384895E+01  0.00000000000E+00 0.  1.
         25    1    1    2    0    0  0.00000000000E+00  0.00000000000E+00  0.66022661302E+03  0.67195549000E+03  0.12500000000E+03 0.  0.
<mgrwt>
<rscale>  0 0.12500000E+03</rscale>
<asrwt>0</asrwt>
<pdfrwt beam="1">  1       21 0.10247549E+00 0.12500000E+03</pdfrwt>
<pdfrwt beam="2">  1       21 0.90222183E-03 0.12500000E+03</pdfrwt>
<totfact> 0.34019649E+06</totfact>
</mgrwt>
</event>
<event>
 3    1  0.1592492E-001  0.1250000E+03  0.7546771E-02  0.1235069E+00
         21   -1    0    0  502  501  0.00000000000E+00  0.00000000000E+00  0.32443679890E+02  0.32443679890E+02  0.00000000000E+00 0. -1.
         21   -1    0    0  501  502 -0.00000000000E+00 -0.00000000000E+00 -0.12040095369E+03  0.12040095369E+03  0.00000000000E+00 0. -1.
         25    1    1    2    0    0  0.00000000000E+00  0.00000000000E+00 -0.87957273800E+02  0.15284463358E+03  0.12500000000E+03 0.  0.
<mgrwt>
<rscale>  0 0.12500000E+03</rscale>
<asrwt>0</asrwt>
<pdfrwt beam="1">  1       21 0.49913353E-02 0.12500000E+03</pdfrwt>
<pdfrwt beam="2">  1       21 0.18523224E-01 0.12500000E+03</pdfrwt>
<totfact> 0.70403665E+06</totfact>
</mgrwt>
</event>
<event>
 3    1  0.1592492E-001  0.1250000E+03  0.7546771E-02  0.1235069E+00
         21   -1    0    0  502  501  0.00000000000E+00  0.00000000000E+00  0.34131015678E+02  0.34131015678E+02  0.00000000000E+00 0. -1.
         21   -1    0    0  501  502 -0.00000000000E+00 -0.00000000000E+00 -0.11444868904E+03  0.11444868904E+03  0.00000000000E+00 0. -1.
         25    1    1    2    0    0  0.00000000000E+00  0.00000000000E+00 -0.80317673361E+02  0.14857970472E+03  0.12500000000E+03 0.  0.
<mgrwt>
<rscale>  0 0.12500000E+03</rscale>
<asrwt>0</asrwt>
<pdfrwt beam="1">  1       21 0.52509255E-02 0.12500000E+03</pdfrwt>
<pdfrwt beam="2">  1       21 0.17607491E-01 0.12500000E+03</pdfrwt>
<totfact> 0.70938075E+06</totfact>
</mgrwt>
</event>
<event>
 3    1  0.1592492E-001  0.1250000E+03  0.7546771E-02  0.1235069E+00
         21   -1    0    0  502  501  0.00000000000E+00  0.00000000000E+00  0.23919580920E+02  0.23919580920E+02  0.00000000000E+00 0. -1.
         21   -1    0    0  501  502 -0.00000000000E+00 -0.00000000000E+00 -0.16330762705E+03  0.16330762705E+03  0.00000000000E+00 0. -1.
         25    1    1    2    0    0  0.00000000000E+00  0.00000000000E+00 -0.13938804613E+03  0.18722720797E+03  0.12500000000E+03 0.  0.
<mgrwt>
<rscale>  0 0.12500000E+03</rscale>
<asrwt>0</asrwt>
<pdfrwt beam="1">  1       21 0.36799355E-02 0.12500000E+03</pdfrwt>
<pdfrwt beam="2">  1       21 0.25124251E-01 0.12500000E+03</pdfrwt>
<totfact> 0.66331967E+06</totfact>
</mgrwt>
</event>
<event>
 3    1  0.1592492E-001  0.1250000E+03  0.7546771E-02  0.1235069E+00
         21   -1    0    0  502  501  0.00000000000E+00  0.00000000000E+00  0.13018321766E+02  0.13018321766E+02  0.00000000000E+00 0. -1.
         21   -1    0    0  501  502 -0.00000000000E+00 -0.00000000000E+00 -0.30005787768E+03  0.30005787768E+03  0.00000000000E+00 0. -1.
         25    1    1    2    0    0  0.00000000000E+00  0.00000000000E+00 -0.28703955592E+03  0.31307619945E+03  0.12500000000E+03 0.  0.
<mgrwt>
<rscale>  0 0.12500000E+03</rscale>
<asrwt>0</asrwt>
<pdfrwt beam="1">  1       21 0.20028188E-02 0.12500000E+03</pdfrwt>
<pdfrwt beam="2">  1       21 0.46162750E-01 0.12500000E+03</pdfrwt>
<totfact> 0.54386620E+06</totfact>
</mgrwt>
</event>
<event>
 3    1  0.1592492E-001  0.1250000E+03  0.7546771E-02  0.1235069E+00
         21   -1    0    0  502  501  0.00000000000E+00  0.00000000000E+00  0.37387738358E+02  0.37387738358E+02  0.00000000000E+00 0.  1.
         21   -1    0    0  501  502 -0.00000000000E+00 -0.00000000000E+00 -0.10447944090E+03  0.10447944090E+03  0.00000000000E+00 0.  1.
         25    1    1    2    0    0  0.00000000000E+00  0.00000000000E+00 -0.67091702539E+02  0.14186717925E+03  0.12500000000E+03 0.  0.
<mgrwt>
<rscale>  0 0.12500000E+03</rscale>
<asrwt>0</asrwt>
<pdfrwt beam="1">  1       21 0.57519597E-02 0.12500000E+03</pdfrwt>
<pdfrwt beam="2">  1       21 0.16073760E-01 0.12500000E+03</pdfrwt>
<totfact> 0.71796480E+06</totfact>
</mgrwt>
</event>
<event>
 3    1  0.1592492E-001  0.1250000E+03  0.7546771E-02  0.1235069E+00
         21   -1    0    0  502  501  0.00000000000E+00  0.00000000000E+00  0.30251785279E+02  0.30251785279E+02  0.00000000000E+00 0.  1.
         21   -1    0    0  501  502 -0.00000000000E+00 -0.00000000000E+00 -0.12912461080E+03  0.12912461080E+03  0.00000000000E+00 0.  1.
         25    1    1    2    0    0  0.00000000000E+00  0.00000000000E+00 -0.98872825517E+02  0.15937639607E+03  0.12500000000E+03 0.  0.
<mgrwt>
<rscale>  0 0.12500000E+03</rscale>
<asrwt>0</asrwt>
<pdfrwt beam="1">  1       21 0.46541208E-02 0.12500000E+03</pdfrwt>
<pdfrwt beam="2">  1       21 0.19865325E-01 0.12500000E+03</pdfrwt>
<totfact> 0.69595774E+06</totfact>
</mgrwt>
</event>
<event>
 3    1  0.1592492E-001  0.1250000E+03  0.7546771E-02  0.1235069E+00
         21   -1    0    0  502  501  0.00000000000E+00  0.00000000000E+00  0.27718385659E+02  0.27718385659E+02  0.00000000000E+00 0.  1.
         21   -1    0    0  501  502 -0.00000000000E+00 -0.00000000000E+00 -0.14092631685E+03  0.14092631685E+03  0.00000000000E+00 0.  1.
         25    1    1    2    0    0  0.00000000000E+00  0.00000000000E+00 -0.11320793120E+03  0.16864470251E+03  0.12500000000E+03 0.  0.
<mgrwt>
<rscale>  0 0.12500000E+03</rscale>
<asrwt>0</asrwt>
<pdfrwt beam="1">  1       21 0.42643669E-02 0.12500000E+03</pdfrwt>
<pdfrwt beam="2">  1       21 0.21680972E-01 0.12500000E+03</pdfrwt>
<totfact> 0.68478330E+06</totfact>
</mgrwt>
</event>
<event>
 3    1  0.1592492E-001  0.1250000E+03  0.7546771E-02  0.1235069E+00
         21   -1    0    0  502  501  0.00000000000E+00  0.00000000000E+00  0.12377573820E+03  0.12377573820E+03  0.00000000000E+00 0.  1.
         21   -1    0    0  501  502 -0.00000000000E+00 -0.00000000000E+00 -0.31559092732E+02  0.31559092732E+02  0.00000000000E+00 0.  1.
         25    1    1    2    0    0  0.00000000000E+00  0.00000000000E+00  0.92216645473E+02  0.15533483094E+03  0.12500000000E+03 0.  0.
<mgrwt>
<rscale>  0 0.12500000E+03</rscale>
<asrwt>0</asrwt>
<pdfrwt beam="1">  1       21 0.19042421E-01 0.12500000E+03</pdfrwt>
<pdfrwt beam="2">  1       21 0.48552451E-02 0.12500000E+03</pdfrwt>
<totfact> 0.70094068E+06</totfact>
</mgrwt>
</event>
<event>
 3    1  0.1592492E-001  0.1250000E+03  0.7546771E-02  0.1235069E+00
         21   -1    0    0  502  501  0.00000000000E+00  0.00000000000E+00  0.21996095880E+02  0.21996095880E+02  0.00000000000E+00 0.  1.
         21   -1    0    0  501  502 -0.00000000000E+00 -0.00000000000E+00 -0.17758833301E+03  0.17758833301E+03  0.00000000000E+00 0.  1.
         25    1    1    2    0    0  0.00000000000E+00  0.00000000000E+00 -0.15559223713E+03  0.19958442889E+03  0.12500000000E+03 0.  0.
<mgrwt>
<rscale>  0 0.12500000E+03</rscale>
<asrwt>0</asrwt>
<pdfrwt beam="1">  1       21 0.33840147E-02 0.12500000E+03</pdfrwt>
<pdfrwt beam="2">  1       21 0.27321283E-01 0.12500000E+03</pdfrwt>
<totfact> 0.64972309E+06</totfact>
</mgrwt>
</event>
<event>
 3    1  0.1592492E-001  0.1250000E+03  0.7546771E-02  0.1235069E+00
         21   -1    0    0  502  501  0.00000000000E+00  0.00000000000E+00  0.94357865285E+02  0.94357865285E+02  0.00000000000E+00 0.  1.
         21   -1    0    0  501  502 -0.00000000000E+00 -0.00000000000E+00 -0.41398244738E+02  0.41398244738E+02  0.00000000000E+00 0.  1.
         25    1    1    2    0    0  0.00000000000E+00  0.00000000000E+00  0.52959620547E+02  0.13575611002E+03  0.12500000000E+03 0.  0.
<mgrwt>
<rscale>  0 0.12500000E+03</rscale>
<asrwt>0</asrwt>
<pdfrwt beam="1">  1       21 0.14516595E-01 0.12500000E+03</pdfrwt>
<pdfrwt beam="2">  1       21 0.63689608E-02 0.12500000E+03</pdfrwt>
<totfact> 0.72596513E+06</totfact>
</mgrwt>
</event>
<event>
 3    1  0.1592492E-001  0.1250000E+03  0.7546771E-02  0.1235069E+00
         21   -1    0    0  502  501  0.00000000000E+00  0.00000000000E+00  0.15397093277E+02  0.15397093277E+02  0.00000000000E+00 0.  1.
         21   -1    0    0  501  502 -0.00000000000E+00 -0.00000000000E+00 -0.25370048292E+03  0.25370048292E+03  0.00000000000E+00 0.  1.
         25    1    1    2    0    0  0.00000000000E+00  0.00000000000E+00 -0.23830338964E+03  0.26909757620E+03  0.12500000000E+03 0.  0.
<mgrwt>
<rscale>  0 0.12500000E+03</rscale>
<asrwt>0</asrwt>
<pdfrwt beam="1">  1       21 0.23687836E-02 0.12500000E+03</pdfrwt>
<pdfrwt beam="2">  1       21 0.39030844E-01 0.12500000E+03</pdfrwt>
<totfact> 0.58125331E+06</totfact>
</mgrwt>
</event>
<event>
 3    1  0.1592492E-001  0.1250000E+03  0.7546771E-02  0.1235069E+00
         21   -1    0    0  502  501  0.00000000000E+00  0.00000000000E+00  0.15658729965E+03  0.15658729965E+03  0.00000000000E+00 0.  1.
         21   -1    0    0  501  502 -0.00000000000E+00 -0.00000000000E+00 -0.24946148306E+02  0.24946148306E+02  0.00000000000E+00 0.  1.
         25    1    1    2    0    0  0.00000000000E+00  0.00000000000E+00  0.13164115135E+03  0.18153344796E+03  0.12500000000E+03 0.  0.
<mgrwt>
<rscale>  0 0.12500000E+03</rscale>
<asrwt>0</asrwt>
<pdfrwt beam="1">  1       21 0.24090353E-01 0.12500000E+03</pdfrwt>
<pdfrwt beam="2">  1       21 0.38378691E-02 0.12500000E+03</pdfrwt>
<totfact> 0.66976059E+06</totfact>
</mgrwt>
</event>
<event>
 3    1  0.1592492E-001  0.1250000E+03  0.7546771E-02  0.1235069E+00
         21   -1    0    0  502  501  0.00000000000E+00  0.00000000000E+00  0.13647285441E+02  0.13647285441E+02  0.00000000000E+00 0.  1.
         21   -1    0    0  501  502 -0.00000000000E+00 -0.00000000000E+00 -0.28622908320E+03  0.28622908320E+03  0.00000000000E+00 0.  1.
         25    1    1    2    0    0  0.00000000000E+00  0.00000000000E+00 -0.27258179776E+03  0.29987636864E+03  0.12500000000E+03 0.  0.
<mgrwt>
<rscale>  0 0.12500000E+03</rscale>
<asrwt>0</asrwt>
<pdfrwt beam="1">  1       21 0.20995824E-02 0.12500000E+03</pdfrwt>
<pdfrwt beam="2">  1       21 0.44035243E-01 0.12500000E+03</pdfrwt>
<totfact> 0.55466449E+06</totfact>
</mgrwt>
</event>
<event>
 3    1  0.1592492E-001  0.1250000E+03  0.7546771E-02  0.1235069E+00
         21   -1    0    0  502  501  0.00000000000E+00  0.00000000000E+00  0.14878205094E+01  0.14878205094E+01  0.00000000000E+00 0.  1.
         21   -1    0    0  501  502 -0.00000000000E+00 -0.00000000000E+00 -0.26254847110E+04  0.26254847110E+04  0.00000000000E+00 0.  1.
         25    1    1    2    0    0  0.00000000000E+00  0.00000000000E+00 -0.26239968905E+04  0.26269725315E+04  0.12500000000E+03 0.  0.
<mgrwt>
<rscale>  0 0.12500000E+03</rscale>
<asrwt>0</asrwt>
<pdfrwt beam="1">  1       21 0.22889769E-03 0.12500000E+03</pdfrwt>
<pdfrwt beam="2">  1       21 0.40391679E+00 0.12500000E+03</pdfrwt>
<totfact> 0.33018509E+05</totfact>
</mgrwt>
</event>
<event>
 3    1  0.1592492E-001  0.1250000E+03  0.7546771E-02  0.1235069E+00
         21   -1    0    0  502  501  0.00000000000E+00  0.00000000000E+00  0.11146544081E+03  0.11146544081E+03  0.00000000000E+00 0. -1.
         21   -1    0    0  501  502 -0.00000000000E+00 -0.00000000000E+00 -0.35044494253E+02  0.35044494253E+02  0.00000000000E+00 0. -1.
         25    1    1    2    0    0  0.00000000000E+00  0.00000000000E+00  0.76420946560E+02  0.14650993507E+03  0.12500000000E+03 0.  0.
<mgrwt>
<rscale>  0 0.12500000E+03</rscale>
<asrwt>0</asrwt>
<pdfrwt beam="1">  1       21 0.17148529E-01 0.12500000E+03</pdfrwt>
<pdfrwt beam="2">  1       21 0.53914607E-02 0.12500000E+03</pdfrwt>
<totfact> 0.71200421E+06</totfact>
</mgrwt>
</event>
<event>
 3    1  0.1592492E-001  0.1250000E+03  0.7546771E-02  0.1235069E+00
         21   -1    0    0  502  501  0.00000000000E+00  0.00000000000E+00  0.10605113446E+03  0.10605113446E+03  0.00000000000E+00 0. -1.
         21   -1    0    0  501  502 -0.00000000000E+00 -0.00000000000E+00 -0.36833646524E+02  0.36833646524E+02  0.00000000000E+00 0. -1.
         25    1    1    2    0    0  0.00000000000E+00  0.00000000000E+00  0.69217487933E+02  0.14288478098E+03  0.12500000000E+03 0.  0.
<mgrwt>
<rscale>  0 0.12500000E+03</rscale>
<asrwt>0</asrwt>
<pdfrwt beam="1">  1       21 0.16315559E-01 0.12500000E+03</pdfrwt>
<pdfrwt beam="2">  1       21 0.56667149E-02 0.12500000E+03</pdfrwt>
<totfact> 0.71664908E+06</totfact>
</mgrwt>
</event>
<event>
 3    1  0.1592492E-001  0.1250000E+03  0.7546771E-02  0.1235069E+00
         21   -1    0    0  502  501  0.00000000000E+00  0.00000000000E+00  0.53876336433E+02  0.53876336433E+02  0.00000000000E+00 0. -1.
         21   -1    0    0  501  502 -0.00000000000E+00 -0.00000000000E+00 -0.72504001916E+02  0.72504001916E+02  0.00000000000E+00 0. -1.
         25    1    1    2    0    0  0.00000000000E+00  0.00000000000E+00 -0.18627665483E+02  0.12638033835E+03  0.12500000000E+03 0.  0.
<mgrwt>
<rscale>  0 0.12500000E+03</rscale>
<asrwt>0</asrwt>
<pdfrwt beam="1">  1       21 0.82886671E-02 0.12500000E+03</pdfrwt>
<pdfrwt beam="2">  1       21 0.11154462E-01 0.12500000E+03</pdfrwt>
<totfact> 0.73853761E+06</totfact>
</mgrwt>
</event>
<event>
 3    1  0.1592492E-001  0.1250000E+03  0.7546771E-02  0.1235069E+00
         21   -1    0    0  502  501  0.00000000000E+00  0.00000000000E+00  0.82693843269E+02  0.82693843269E+02  0.00000000000E+00 0. -1.
         21   -1    0    0  501  502 -0.00000000000E+00 -0.00000000000E+00 -0.47237494904E+02  0.47237494904E+02  0.00000000000E+00 0. -1.
         25    1    1    2    0    0  0.00000000000E+00  0.00000000000E+00  0.35456348365E+02  0.12993133817E+03  0.12500000000E+03 0.  0.
<mgrwt>
<rscale>  0 0.12500000E+03</rscale>
<asrwt>0</asrwt>
<pdfrwt beam="1">  1       21 0.12722130E-01 0.12500000E+03</pdfrwt>
<pdfrwt beam="2">  1       21 0.72673069E-02 0.12500000E+03</pdfrwt>
<totfact> 0.73374093E+06</totfact>
</mgrwt>
</event>
<event>
 3    1  0.1592492E-001  0.1250000E+03  0.7546771E-02  0.1235069E+00
         21   -1    0    0  502  501  0.00000000000E+00  0.00000000000E+00  0.32024281942E+01  0.32024281942E+01  0.00000000000E+00 0. -1.
         21   -1    0    0  501  502 -0.00000000000E+00 -0.00000000000E+00 -0.12197775448E+04  0.12197775448E+04  0.00000000000E+00 0. -1.
         25    1    1    2    0    0  0.00000000000E+00  0.00000000000E+00 -0.12165751166E+04  0.12229799730E+04  0.12500000000E+03 0.  0.
<mgrwt>
<rscale>  0 0.12500000E+03</rscale>
<asrwt>0</asrwt>
<pdfrwt beam="1">  1       21 0.49268109E-03 0.12500000E+03</pdfrwt>
<pdfrwt beam="2">  1       21 0.18765815E+00 0.12500000E+03</pdfrwt>
<totfact> 0.18691357E+06</totfact>
</mgrwt>
</event>
<event>
 3    1  0.1592492E-001  0.1250000E+03  0.7546771E-02  0.1235069E+00
         21   -1    0    0  502  501  0.00000000000E+00  0.00000000000E+00  0.91024476850E+02  0.91024476850E+02  0.00000000000E+00 0. -1.
         21   -1    0    0  501  502 -0.00000000000E+00 -0.00000000000E+00 -0.42914281248E+02  0.42914281248E+02  0.00000000000E+00 0. -1.
         25    1    1    2    0    0  0.00000000000E+00  0.00000000000E+00  0.48110195602E+02  0.13393875810E+03  0.12500000000E+03 0.  0.
<mgrwt>
<rscale>  0 0.12500000E+03</rscale>
<asrwt>0</asrwt>
<pdfrwt beam="1">  1       21 0.14003766E-01 0.12500000E+03</pdfrwt>
<pdfrwt beam="2">  1       21 0.66021971E-02 0.12500000E+03</pdfrwt>
<totfact> 0.72837297E+06</totfact>
</mgrwt>
</event>
<event>
 3    1  0.1592492E-001  0.1250000E+03  0.7546771E-02  0.1235069E+00
         21   -1    0    0  502  501  0.00000000000E+00  0.00000000000E+00  0.18994049662E+03  0.18994049662E+03  0.00000000000E+00 0. -1.
         21   -1    0    0  501  502 -0.00000000000E+00 -0.00000000000E+00 -0.20565651189E+02  0.20565651189E+02  0.00000000000E+00 0. -1.
         25    1    1    2    0    0  0.00000000000E+00  0.00000000000E+00  0.16937484543E+03  0.21050614780E+03  0.12500000000E+03 0.  0.
<mgrwt>
<rscale>  0 0.12500000E+03</rscale>
<asrwt>0</asrwt>
<pdfrwt beam="1">  1       21 0.29221614E-01 0.12500000E+03</pdfrwt>
<pdfrwt beam="2">  1       21 0.31639465E-02 0.12500000E+03</pdfrwt>
<totfact> 0.63806323E+06</totfact>
</mgrwt>
</event>
<event>
 3    1  0.1592492E-001  0.1250000E+03  0.7546771E-02  0.1235069E+00
         21   -1    0    0  502  501  0.00000000000E+00  0.00000000000E+00  0.49423162213E+02  0.49423162213E+02  0.00000000000E+00 0. -1.
         21   -1    0    0  501  502 -0.00000000000E+00 -0.00000000000E+00 -0.79036828586E+02  0.79036828586E+02  0.00000000000E+00 0. -1.
         25    1    1    2    0    0  0.00000000000E+00  0.00000000000E+00 -0.29613666374E+02  0.12845999080E+03  0.12500000000E+03 0.  0.
<mgrwt>
<rscale>  0 0.12500000E+03</rscale>
<asrwt>0</asrwt>
<pdfrwt beam="1">  1       21 0.76035635E-02 0.12500000E+03</pdfrwt>
<pdfrwt beam="2">  1       21 0.12159512E-01 0.12500000E+03</pdfrwt>
<totfact> 0.73571511E+06</totfact>
</mgrwt>
</event>
<event>
 3    1  0.1592492E-001  0.1250000E+03  0.7546771E-02  0.1235069E+00
         21   -1    0    0  502  501  0.00000000000E+00  0.00000000000E+00  0.14457214136E+02  0.14457214136E+02  0.00000000000E+00 0. -1.
         21   -1    0    0  501  502 -0.00000000000E+00 -0.00000000000E+00 -0.27019382595E+03  0.27019382595E+03  0.00000000000E+00 0. -1.
         25    1    1    2    0    0  0.00000000000E+00  0.00000000000E+00 -0.25573661182E+03  0.28465104009E+03  0.12500000000E+03 0.  0.
<mgrwt>
<rscale>  0 0.12500000E+03</rscale>
<asrwt>0</asrwt>
<pdfrwt beam="1">  1       21 0.22241868E-02 0.12500000E+03</pdfrwt>
<pdfrwt beam="2">  1       21 0.41568281E-01 0.12500000E+03</pdfrwt>
<totfact> 0.56756352E+06</totfact>
</mgrwt>
</event>
<event>
 3    1  0.1592492E-001  0.1250000E+03  0.7546771E-02  0.1235069E+00
         21   -1    0    0  502  501  0.00000000000E+00  0.00000000000E+00  0.12424303412E+02  0.12424303412E+02  0.00000000000E+00 0.  1.
         21   -1    0    0  501  502 -0.00000000000E+00 -0.00000000000E+00 -0.31440394446E+03  0.31440394446E+03  0.00000000000E+00 0.  1.
         25    1    1    2    0    0  0.00000000000E+00  0.00000000000E+00 -0.30197964105E+03  0.32682824787E+03  0.12500000000E+03 0.  0.
<mgrwt>
<rscale>  0 0.12500000E+03</rscale>
<asrwt>0</asrwt>
<pdfrwt beam="1">  1       21 0.19114316E-02 0.12500000E+03</pdfrwt>
<pdfrwt beam="2">  1       21 0.48369830E-01 0.12500000E+03</pdfrwt>
<totfact> 0.53296640E+06</totfact>
</mgrwt>
</event>
<event>
 3    1  0.1592492E-001  0.1250000E+03  0.7546771E-02  0.1235069E+00
         21   -1    0    0  502  501  0.00000000000E+00  0.00000000000E+00  0.75537147218E+01  0.75537147218E+01  0.00000000000E+00 0.  1.
         21   -1    0    0  501  502 -0.00000000000E+00 -0.00000000000E+00 -0.51712966982E+03  0.51712966982E+03  0.00000000000E+00 0.  1.
         25    1    1    2    0    0  0.00000000000E+00  0.00000000000E+00 -0.50957595510E+03  0.52468338454E+03  0.12500000000E+03 0.  0.
<mgrwt>
<rscale>  0 0.12500000E+03</rscale>
<asrwt>0</asrwt>
<pdfrwt beam="1">  1       21 0.11621095E-02 0.12500000E+03</pdfrwt>
<pdfrwt beam="2">  1       21 0.79558439E-01 0.12500000E+03</pdfrwt>
<totfact> 0.40736302E+06</totfact>
</mgrwt>
</event>
<event>
 3    1  0.1592492E-001  0.1250000E+03  0.7546771E-02  0.1235069E+00
         21   -1    0    0  502  501  0.00000000000E+00  0.00000000000E+00  0.20757906724E+02  0.20757906724E+02  0.00000000000E+00 0.  1.
         21   -1    0    0  501  502 -0.00000000000E+00 -0.00000000000E+00 -0.18818130614E+03  0.18818130614E+03  0.00000000000E+00 0.  1.
         25    1    1    2    0    0  0.00000000000E+00  0.00000000000E+00 -0.16742339941E+03  0.20893921286E+03  0.12500000000E+03 0.  0.
<mgrwt>
<rscale>  0 0.12500000E+03</rscale>
<asrwt>0</asrwt>
<pdfrwt beam="1">  1       21 0.31935241E-02 0.12500000E+03</pdfrwt>
<pdfrwt beam="2">  1       21 0.28950970E-01 0.12500000E+03</pdfrwt>
<totfact> 0.63971315E+06</totfact>
</mgrwt>
</event>
<event>
 3    1  0.1592492E-001  0.1250000E+03  0.7546771E-02  0.1235069E+00
         21   -1    0    0  502  501  0.00000000000E+00  0.00000000000E+00  0.11757714506E+04  0.11757714506E+04  0.00000000000E+00 0. -1.
         21   -1    0    0  501  502 -0.00000000000E+00 -0.00000000000E+00 -0.33222868253E+01  0.33222868253E+01  0.00000000000E+00 0. -1.
         25    1    1    2    0    0  0.00000000000E+00  0.00000000000E+00  0.11724491638E+04  0.11790937375E+04  0.12500000000E+03 0.  0.
<mgrwt>
<rscale>  0 0.12500000E+03</rscale>
<asrwt>0</asrwt>
<pdfrwt beam="1">  1       21 0.18088758E+00 0.12500000E+03</pdfrwt>
<pdfrwt beam="2">  1       21 0.51112199E-03 0.12500000E+03</pdfrwt>
<totfact> 0.19565093E+06</totfact>
</mgrwt>
</event>
<event>
 3    1  0.1592492E-001  0.1250000E+03  0.7546771E-02  0.1235069E+00
         21   -1    0    0  502  501  0.00000000000E+00  0.00000000000E+00  0.90608586007E+02  0.90608586007E+02  0.00000000000E+00 0. -1.
         21   -1    0    0  501  502 -0.00000000000E+00 -0.00000000000E+00 -0.43111256583E+02  0.43111256583E+02  0.00000000000E+00 0. -1.
         25    1    1    2    0    0  0.00000000000E+00  0.00000000000E+00  0.47497329424E+02  0.13371984259E+03  0.12500000000E+03 0.  0.
<mgrwt>
<rscale>  0 0.12500000E+03</rscale>
<asrwt>0</asrwt>
<pdfrwt beam="1">  1       21 0.13939782E-01 0.12500000E+03</pdfrwt>
<pdfrwt beam="2">  1       21 0.66325010E-02 0.12500000E+03</pdfrwt>
<totfact> 0.72866425E+06</totfact>
</mgrwt>
</event>
<event>
 3    1  0.1592492E-001  0.1250000E+03  0.7546771E-02  0.1235069E+00
         21   -1    0    0  502  501  0.00000000000E+00  0.00000000000E+00  0.14467878074E+04  0.14467878074E+04  0.00000000000E+00 0.  1.
         21   -1    0    0  501  502 -0.00000000000E+00 -0.00000000000E+00 -0.26999467233E+01  0.26999467233E+01  0.00000000000E+00 0.  1.
         25    1    1    2    0    0  0.00000000000E+00  0.00000000000E+00  0.14440878607E+04  0.14494877541E+04  0.12500000000E+03 0.  0.
<mgrwt>
<rscale>  0 0.12500000E+03</rscale>
<asrwt>0</asrwt>
<pdfrwt beam="1">  1       21 0.22258212E+00 0.12500000E+03</pdfrwt>
<pdfrwt beam="2">  1       21 0.41537758E-03 0.12500000E+03</pdfrwt>
<totfact> 0.14758667E+06</totfact>
</mgrwt>
</event>
<event>
 3    1  0.1592492E-001  0.1250000E+03  0.7546771E-02  0.1235069E+00
         21   -1    0    0  502  501  0.00000000000E+00  0.00000000000E+00  0.35281332653E+01  0.35281332653E+01  0.00000000000E+00 0. -1.
         21   -1    0    0  501  502 -0.00000000000E+00 -0.00000000000E+00 -0.11071718969E+04  0.11071718969E+04  0.00000000000E+00 0. -1.
         25    1    1    2    0    0  0.00000000000E+00  0.00000000000E+00 -0.11036437637E+04  0.11107000302E+04  0.12500000000E+03 0.  0.
<mgrwt>
<rscale>  0 0.12500000E+03</rscale>
<asrwt>0</asrwt>
<pdfrwt beam="1">  1       21 0.54278921E-03 0.12500000E+03</pdfrwt>
<pdfrwt beam="2">  1       21 0.17033430E+00 0.12500000E+03</pdfrwt>
<totfact> 0.21014979E+06</totfact>
</mgrwt>
</event>
<event>
 3    1  0.1592492E-001  0.1250000E+03  0.7546771E-02  0.1235069E+00
         21   -1    0    0  502  501  0.00000000000E+00  0.00000000000E+00  0.53811914329E+02  0.53811914329E+02  0.00000000000E+00 0.  1.
         21   -1    0    0  501  502 -0.00000000000E+00 -0.00000000000E+00 -0.72590801660E+02  0.72590801660E+02  0.00000000000E+00 0.  1.
         25    1    1    2    0    0  0.00000000000E+00  0.00000000000E+00 -0.18778887331E+02  0.12640271599E+03  0.12500000000E+03 0.  0.
<mgrwt>
<rscale>  0 0.12500000E+03</rscale>
<asrwt>0</asrwt>
<pdfrwt beam="1">  1       21 0.82787561E-02 0.12500000E+03</pdfrwt>
<pdfrwt beam="2">  1       21 0.11167816E-01 0.12500000E+03</pdfrwt>
<totfact> 0.73850695E+06</totfact>
</mgrwt>
</event>
<event>
 3    1  0.1592492E-001  0.1250000E+03  0.7546771E-02  0.1235069E+00
         21   -1    0    0  502  501  0.00000000000E+00  0.00000000000E+00  0.38956933986E+03  0.38956933986E+03  0.00000000000E+00 0. -1.
         21   -1    0    0  501  502 -0.00000000000E+00 -0.00000000000E+00 -0.10027098132E+02  0.10027098132E+02  0.00000000000E+00 0. -1.
         25    1    1    2    0    0  0.00000000000E+00  0.00000000000E+00  0.37954224173E+03  0.39959643799E+03  0.12500000000E+03 0.  0.
<mgrwt>
<rscale>  0 0.12500000E+03</rscale>
<asrwt>0</asrwt>
<pdfrwt beam="1">  1       21 0.59933733E-01 0.12500000E+03</pdfrwt>
<pdfrwt beam="2">  1       21 0.15426308E-02 0.12500000E+03</pdfrwt>
<totfact> 0.48068135E+06</totfact>
</mgrwt>
</event>
<event>
 3    1  0.1592492E-001  0.1250000E+03  0.7546771E-02  0.1235069E+00
         21   -1    0    0  502  501  0.00000000000E+00  0.00000000000E+00  0.88489470786E+02  0.88489470786E+02  0.00000000000E+00 0.  1.
         21   -1    0    0  501  502 -0.00000000000E+00 -0.00000000000E+00 -0.44143670036E+02  0.44143670036E+02  0.00000000000E+00 0.  1.
         25    1    1    2    0    0  0.00000000000E+00  0.00000000000E+00  0.44345800750E+02  0.13263314082E+03  0.12500000000E+03 0.  0.
<mgrwt>
<rscale>  0 0.12500000E+03</rscale>
<asrwt>0</asrwt>
<pdfrwt beam="1">  1       21 0.13613765E-01 0.12500000E+03</pdfrwt>
<pdfrwt beam="2">  1       21 0.67913339E-02 0.12500000E+03</pdfrwt>
<totfact> 0.73011426E+06</totfact>
</mgrwt>
</event>
<event>
 3    1  0.1592492E-001  0.1250000E+03  0.7546771E-02  0.1235069E+00
         21   -1    0    0  502  501  0.00000000000E+00  0.00000000000E+00  0.46500906031E+01  0.46500906031E+01  0.00000000000E+00 0.  1.
         21   -1    0    0  501  502 -0.00000000000E+00 -0.00000000000E+00 -0.84003739570E+03  0.84003739570E+03  0.00000000000E+00 0.  1.
         25    1    1    2    0    0  0.00000000000E+00  0.00000000000E+00 -0.83538730510E+03  0.84468748630E+03  0.12500000000E+03 0.  0.
<mgrwt>
<rscale>  0 0.12500000E+03</rscale>
<asrwt>0</asrwt>
<pdfrwt beam="1">  1       21 0.71539892E-03 0.12500000E+03</pdfrwt>
<pdfrwt beam="2">  1       21 0.12923646E+00 0.12500000E+03</pdfrwt>
<totfact> 0.27934722E+06</totfact>
</mgrwt>
</event>
<event>
 3    1  0.1592492E-001  0.1250000E+03  0.7546771E-02  0.1235069E+00
         21   -1    0    0  502  501  0.00000000000E+00  0.00000000000E+00  0.17096194601E+01  0.17096194601E+01  0.00000000000E+00 0. -1.
         21   -1    0    0  501  502 -0.00000000000E+00 -0.00000000000E+00 -0.22848651943E+04  0.22848651943E+04  0.00000000000E+00 0. -1.
         25    1    1    2    0    0  0.00000000000E+00  0.00000000000E+00 -0.22831555749E+04  0.22865748138E+04  0.12500000000E+03 0.  0.
<mgrwt>
<rscale>  0 0.12500000E+03</rscale>
<asrwt>0</asrwt>
<pdfrwt beam="1">  1       21 0.26301851E-03 0.12500000E+03</pdfrwt>
<pdfrwt beam="2">  1       21 0.35151755E+00 0.12500000E+03</pdfrwt>
<totfact> 0.54758900E+05</totfact>
</mgrwt>
</event>
<event>
 3    1  0.1592492E-001  0.1250000E+03  0.7546771E-02  0.1235069E+00
         21   -1    0    0  502  501  0.00000000000E+00  0.00000000000E+00  0.28758406942E+01  0.28758406942E+01  0.00000000000E+00 0.  1.
         21   -1    0    0  501  502 -0.00000000000E+00 -0.00000000000E+00 -0.13582984648E+04  0.13582984648E+04  0.00000000000E+00 0.  1.
         25    1    1    2    0    0  0.00000000000E+00  0.00000000000E+00 -0.13554226241E+04  0.13611743055E+04  0.12500000000E+03 0.  0.
<mgrwt>
<rscale>  0 0.12500000E+03</rscale>
<asrwt>0</asrwt>
<pdfrwt beam="1">  1       21 0.44243825E-03 0.12500000E+03</pdfrwt>
<pdfrwt beam="2">  1       21 0.20896842E+00 0.12500000E+03</pdfrwt>
<totfact> 0.16188519E+06</totfact>
</mgrwt>
</event>
<event>
 3    1  0.1592492E-001  0.1250000E+03  0.7546771E-02  0.1235069E+00
         21   -1    0    0  502  501  0.00000000000E+00  0.00000000000E+00  0.32237760946E+02  0.32237760946E+02  0.00000000000E+00 0.  1.
         21   -1    0    0  501  502 -0.00000000000E+00 -0.00000000000E+00 -0.12117001570E+03  0.12117001570E+03  0.00000000000E+00 0.  1.
         25    1    1    2    0    0  0.00000000000E+00  0.00000000000E+00 -0.88932254754E+02  0.15340777665E+03  0.12500000000E+03 0.  0.
<mgrwt>
<rscale>  0 0.12500000E+03</rscale>
<asrwt>0</asrwt>
<pdfrwt beam="1">  1       21 0.49596556E-02 0.12500000E+03</pdfrwt>
<pdfrwt beam="2">  1       21 0.18641540E-01 0.12500000E+03</pdfrwt>
<totfact> 0.70333701E+06</totfact>
</mgrwt>
</event>
<event>
 3    1  0.1592492E-001  0.1250000E+03  0.7546771E-02  0.1235069E+00
         21   -1    0    0  502  501  0.00000000000E+00  0.00000000000E+00  0.29616426333E+02  0.29616426333E+02  0.00000000000E+00 0.  1.
         21   -1    0    0  501  502 -0.00000000000E+00 -0.00000000000E+00 -0.13189471127E+03  0.13189471127E+03  0.00000000000E+00 0.  1.
         25    1    1    2    0    0  0.00000000000E+00  0.00000000000E+00 -0.10227828493E+03  0.16151113760E+03  0.12500000000E+03 0.  0.
<mgrwt>
<rscale>  0 0.12500000E+03</rscale>
<asrwt>0</asrwt>
<pdfrwt beam="1">  1       21 0.45563733E-02 0.12500000E+03</pdfrwt>
<pdfrwt beam="2">  1       21 0.20291494E-01 0.12500000E+03</pdfrwt>
<totfact> 0.69335321E+06</totfact>
</mgrwt>
</event>
<event>
 3    1  0.1592492E-001  0.1250000E+03  0.7546771E-02  0.1235069E+00
         21   -1    0    0  502  501  0.00000000000E+00  0.00000000000E+00  0.16698035846E+03  0.16698035846E+03  0.00000000000E+00 0.  1.
         21   -1    0    0  501  502 -0.00000000000E+00 -0.00000000000E+00 -0.23393469963E+02  0.23393469963E+02  0.00000000000E+00 0.  1.
         25    1    1    2    0    0  0.00000000000E+00  0.00000000000E+00  0.14358688850E+03  0.19037382842E+03  0.12500000000E+03 0.  0.
<mgrwt>
<rscale>  0 0.12500000E+03</rscale>
<asrwt>0</asrwt>
<pdfrwt beam="1">  1       21 0.25689285E-01 0.12500000E+03</pdfrwt>
<pdfrwt beam="2">  1       21 0.35989955E-02 0.12500000E+03</pdfrwt>
<totfact> 0.65980941E+06</totfact>
</mgrwt>
</event>
<event>
 3    1  0.1592492E-001  0.1250000E+03  0.7546771E-02  0.1235069E+00
         21   -1    0    0  502  501  0.00000000000E+00  0.00000000000E+00  0.32625403603E+02  0.32625403603E+02  0.00000000000E+00 0.  1.
         21   -1    0    0  501  502 -0.00000000000E+00 -0.00000000000E+00 -0.11973031958E+03  0.11973031958E+03  0.00000000000E+00 0.  1.
         25    1    1    2    0    0  0.00000000000E+00  0.00000000000E+00 -0.87104915981E+02  0.15235572319E+03  0.12500000000E+03 0.  0.
<mgrwt>
<rscale>  0 0.12500000E+03</rscale>
<asrwt>0</asrwt>
<pdfrwt beam="1">  1       21 0.50192928E-02 0.12500000E+03</pdfrwt>
<pdfrwt beam="2">  1       21 0.18420049E-01 0.12500000E+03</pdfrwt>
<totfact> 0.70464519E+06</totfact>
</mgrwt>
</event>
<event>
 3    1  0.1592492E-001  0.1250000E+03  0.7546771E-02  0.1235069E+00
         21   -1    0    0  502  501  0.00000000000E+00  0.00000000000E+00  0.21196352016E+03  0.21196352016E+03  0.00000000000E+00 0.  1.
         21   -1    0    0  501  502 -0.00000000000E+00 -0.00000000000E+00 -0.18428878691E+02  0.18428878691E+02  0.00000000000E+00 0.  1.
         25    1    1    2    0    0  0.00000000000E+00  0.00000000000E+00  0.19353464147E+03  0.23039239885E+03  0.12500000000E+03 0.  0.
<mgrwt>
<rscale>  0 0.12500000E+03</rscale>
<asrwt>0</asrwt>
<pdfrwt beam="1">  1       21 0.32609771E-01 0.12500000E+03</pdfrwt>
<pdfrwt beam="2">  1       21 0.28352123E-02 0.12500000E+03</pdfrwt>
<totfact> 0.61774951E+06</totfact>
</mgrwt>
</event>
<event>
 3    1  0.1592492E-001  0.1250000E+03  0.7546771E-02  0.1235069E+00
         21   -1    0    0  502  501  0.00000000000E+00  0.00000000000E+00  0.51027013002E+01  0.51027013002E+01  0.00000000000E+00 0.  1.
         21   -1    0    0  501  502 -0.00000000000E+00 -0.00000000000E+00 -0.76552589897E+03  0.76552589897E+03  0.00000000000E+00 0.  1.
         25    1    1    2    0    0  0.00000000000E+00  0.00000000000E+00 -0.76042319767E+03  0.77062860027E+03  0.12500000000E+03 0.  0.
<mgrwt>
<rscale>  0 0.12500000E+03</rscale>
<asrwt>0</asrwt>
<pdfrwt beam="1">  1       21 0.78503147E-03 0.12500000E+03</pdfrwt>
<pdfrwt beam="2">  1       21 0.11777314E+00 0.12500000E+03</pdfrwt>
<totfact> 0.30356252E+06</totfact>
</mgrwt>
</event>
<event>
 3    1  0.1592492E-001  0.1250000E+03  0.7546771E-02  0.1235069E+00
         21   -1    0    0  502  501  0.00000000000E+00  0.00000000000E+00  0.11230314987E+02  0.11230314987E+02  0.00000000000E+00 0. -1.
         21   -1    0    0  501  502 -0.00000000000E+00 -0.00000000000E+00 -0.34783084932E+03  0.34783084932E+03  0.00000000000E+00 0. -1.
         25    1    1    2    0    0  0.00000000000E+00  0.00000000000E+00 -0.33660053433E+03  0.35906116431E+03  0.12500000000E+03 0.  0.
<mgrwt>
<rscale>  0 0.12500000E+03</rscale>
<asrwt>0</asrwt>
<pdfrwt beam="1">  1       21 0.17277412E-02 0.12500000E+03</pdfrwt>
<pdfrwt beam="2">  1       21 0.53512424E-01 0.12500000E+03</pdfrwt>
<totfact> 0.50876130E+06</totfact>
</mgrwt>
</event>
<event>
 3    1  0.1592492E-001  0.1250000E+03  0.7546771E-02  0.1235069E+00
         21   -1    0    0  502  501  0.00000000000E+00  0.00000000000E+00  0.15153444463E+03  0.15153444463E+03  0.00000000000E+00 0.  1.
         21   -1    0    0  501  502 -0.00000000000E+00 -0.00000000000E+00 -0.25777967574E+02  0.25777967574E+02  0.00000000000E+00 0.  1.
         25    1    1    2    0    0  0.00000000000E+00  0.00000000000E+00  0.12575647705E+03  0.17731241220E+03  0.12500000000E+03 0.  0.
<mgrwt>
<rscale>  0 0.12500000E+03</rscale>
<asrwt>0</asrwt>
<pdfrwt beam="1">  1       21 0.23312991E-01 0.12500000E+03</pdfrwt>
<pdfrwt beam="2">  1       21 0.39658413E-02 0.12500000E+03</pdfrwt>
<totfact> 0.67461193E+06</totfact>
</mgrwt>
</event>
<event>
 3    1  0.1592492E-001  0.1250000E+03  0.7546771E-02  0.1235069E+00
         21   -1    0    0  502  501  0.00000000000E+00  0.00000000000E+00  0.44424526647E+03  0.44424526647E+03  0.00000000000E+00 0.  1.
         21   -1    0    0  501  502 -0.00000000000E+00 -0.00000000000E+00 -0.87930030883E+01  0.87930030883E+01  0.00000000000E+00 0.  1.
         25    1    1    2    0    0  0.00000000000E+00  0.00000000000E+00  0.43545226338E+03  0.45303826956E+03  0.12500000000E+03 0.  0.
<mgrwt>
<rscale>  0 0.12500000E+03</rscale>
<asrwt>0</asrwt>
<pdfrwt beam="1">  1       21 0.68345408E-01 0.12500000E+03</pdfrwt>
<pdfrwt beam="2">  1       21 0.13527701E-02 0.12500000E+03</pdfrwt>
<totfact> 0.44711029E+06</totfact>
</mgrwt>
</event>
<event>
 3    1  0.1592492E-001  0.1250000E+03  0.7546771E-02  0.1235069E+00
         21   -1    0    0  502  501  0.00000000000E+00  0.00000000000E+00  0.21449091791E+03  0.21449091791E+03  0.00000000000E+00 0. -1.
         21   -1    0    0  501  502 -0.00000000000E+00 -0.00000000000E+00 -0.18211726809E+02  0.18211726809E+02  0.00000000000E+00 0. -1.
         25    1    1    2    0    0  0.00000000000E+00  0.00000000000E+00  0.19627919110E+03  0.23270264472E+03  0.12500000000E+03 0.  0.
<mgrwt>
<rscale>  0 0.12500000E+03</rscale>
<asrwt>0</asrwt>
<pdfrwt beam="1">  1       21 0.32998601E-01 0.12500000E+03</pdfrwt>
<pdfrwt beam="2">  1       21 0.28018043E-02 0.12500000E+03</pdfrwt>
<totfact> 0.61546044E+06</totfact>
</mgrwt>
</event>
<event>
 3    1  0.1592492E-001  0.1250000E+03  0.7546771E-02  0.1235069E+00
         21   -1    0    0  502  501  0.00000000000E+00  0.00000000000E+00  0.90214195279E+01  0.90214195279E+01  0.00000000000E+00 0.  1.
         21   -1    0    0  501  502 -0.00000000000E+00 -0.00000000000E+00 -0.43299726699E+03  0.43299726699E+03  0.00000000000E+00 0.  1.
         25    1    1    2    0    0  0.00000000000E+00  0.00000000000E+00 -0.42397584747E+03  0.44201868652E+03  0.12500000000E+03 0.  0.
<mgrwt>
<rscale>  0 0.12500000E+03</rscale>
<asrwt>0</asrwt>
<pdfrwt beam="1">  1       21 0.13879106E-02 0.12500000E+03</pdfrwt>
<pdfrwt beam="2">  1       21 0.66614969E-01 0.12500000E+03</pdfrwt>
<totfact> 0.45373692E+06</totfact>
</mgrwt>
</event>
<event>
 3    1  0.1592492E-001  0.1250000E+03  0.7546771E-02  0.1235069E+00
         21   -1    0    0  502  501  0.00000000000E+00  0.00000000000E+00  0.41966747547E+02  0.41966747547E+02  0.00000000000E+00 0.  1.
         21   -1    0    0  501  502 -0.00000000000E+00 -0.00000000000E+00 -0.93079645870E+02  0.93079645870E+02  0.00000000000E+00 0.  1.
         25    1    1    2    0    0  0.00000000000E+00  0.00000000000E+00 -0.51112898323E+02  0.13504639342E+03  0.12500000000E+03 0.  0.
<mgrwt>
<rscale>  0 0.12500000E+03</rscale>
<asrwt>0</asrwt>
<pdfrwt beam="1">  1       21 0.64564228E-02 0.12500000E+03</pdfrwt>
<pdfrwt beam="2">  1       21 0.14319945E-01 0.12500000E+03</pdfrwt>
<totfact> 0.72690330E+06</totfact>
</mgrwt>
</event>
<event>
 3    1  0.1592492E-001  0.1250000E+03  0.7546771E-02  0.1235069E+00
         21   -1    0    0  502  501  0.00000000000E+00  0.00000000000E+00  0.46707805597E+03  0.46707805597E+03  0.00000000000E+00 0. -1.
         21   -1    0    0  501  502 -0.00000000000E+00 -0.00000000000E+00 -0.83631631803E+01  0.83631631803E+01  0.00000000000E+00 0. -1.
         25    1    1    2    0    0  0.00000000000E+00  0.00000000000E+00  0.45871489279E+03  0.47544121915E+03  0.12500000000E+03 0.  0.
<mgrwt>
<rscale>  0 0.12500000E+03</rscale>
<asrwt>0</asrwt>
<pdfrwt beam="1">  1       21 0.71858142E-01 0.12500000E+03</pdfrwt>
<pdfrwt beam="2">  1       21 0.12866409E-02 0.12500000E+03</pdfrwt>
<totfact> 0.43408056E+06</totfact>
</mgrwt>
</event>
<event>
 3    1  0.1592492E-001  0.1250000E+03  0.7546771E-02  0.1235069E+00
         21   -1    0    0  502  501  0.00000000000E+00  0.00000000000E+00  0.13428130195E+02  0.13428130195E+02  0.00000000000E+00 0. -1.
         21   -1    0    0  501  502 -0.00000000000E+00 -0.00000000000E+00 -0.29090051581E+03  0.29090051581E+03  0.00000000000E+00 0. -1.
         25    1    1    2    0    0  0.00000000000E+00  0.00000000000E+00 -0.27747238562E+03  0.30432864601E+03  0.12500000000E+03 0.  0.
<mgrwt>
<rscale>  0 0.12500000E+03</rscale>
<asrwt>0</asrwt>
<pdfrwt beam="1">  1       21 0.20658663E-02 0.12500000E+03</pdfrwt>
<pdfrwt beam="2">  1       21 0.44753924E-01 0.12500000E+03</pdfrwt>
<totfact> 0.55098355E+06</totfact>
</mgrwt>
</event>
<event>
 3    1  0.1592492E-001  0.1250000E+03  0.7546771E-02  0.1235069E+00
         21   -1    0    0  502  501  0.00000000000E+00  0.00000000000E+00  0.18768815510E+02  0.18768815510E+02  0.00000000000E+00 0. -1.
         21   -1    0    0  501  502 -0.00000000000E+00 -0.00000000000E+00 -0.20812448169E+03  0.20812448169E+03  0.00000000000E+00 0. -1.
         25    1    1    2    0    0  0.00000000000E+00  0.00000000000E+00 -0.18935566618E+03  0.22689329720E+03  0.12500000000E+03 0.  0.
<mgrwt>
<rscale>  0 0.12500000E+03</rscale>
<asrwt>0</asrwt>
<pdfrwt beam="1">  1       21 0.28875099E-02 0.12500000E+03</pdfrwt>
<pdfrwt beam="2">  1       21 0.32019153E-01 0.12500000E+03</pdfrwt>
<totfact> 0.62124514E+06</totfact>
</mgrwt>
</event>
<event>
 3    1  0.1592492E-001  0.1250000E+03  0.7546771E-02  0.1235069E+00
         21   -1    0    0  502  501  0.00000000000E+00  0.00000000000E+00  0.73322569084E+01  0.73322569084E+01  0.00000000000E+00 0.  1.
         21   -1    0    0  501  502 -0.00000000000E+00 -0.00000000000E+00 -0.53274865417E+03  0.53274865417E+03  0.00000000000E+00 0.  1.
         25    1    1    2    0    0  0.00000000000E+00  0.00000000000E+00 -0.52541639726E+03  0.54008091108E+03  0.12500000000E+03 0.  0.
<mgrwt>
<rscale>  0 0.12500000E+03</rscale>
<asrwt>0</asrwt>
<pdfrwt beam="1">  1       21 0.11280396E-02 0.12500000E+03</pdfrwt>
<pdfrwt beam="2">  1       21 0.81961323E-01 0.12500000E+03</pdfrwt>
<totfact> 0.39950603E+06</totfact>
</mgrwt>
</event>
<event>
 3    1  0.1592492E-001  0.1250000E+03  0.7546771E-02  0.1235069E+00
         21   -1    0    0  502  501  0.00000000000E+00  0.00000000000E+00  0.19224862643E+03  0.19224862643E+03  0.00000000000E+00 0. -1.
         21   -1    0    0  501  502 -0.00000000000E+00 -0.00000000000E+00 -0.20318740750E+02  0.20318740750E+02  0.00000000000E+00 0. -1.
         25    1    1    2    0    0  0.00000000000E+00  0.00000000000E+00  0.17192988568E+03  0.21256736718E+03  0.12500000000E+03 0.  0.
<mgrwt>
<rscale>  0 0.12500000E+03</rscale>
<asrwt>0</asrwt>
<pdfrwt beam="1">  1       21 0.29576711E-01 0.12500000E+03</pdfrwt>
<pdfrwt beam="2">  1       21 0.31259602E-02 0.12500000E+03</pdfrwt>
<totfact> 0.63590428E+06</totfact>
</mgrwt>
</event>
<event>
 3    1  0.1592492E-001  0.1250000E+03  0.7546771E-02  0.1235069E+00
         21   -1    0    0  502  501  0.00000000000E+00  0.00000000000E+00  0.11935378289E+02  0.11935378289E+02  0.00000000000E+00 0.  1.
         21   -1    0    0  501  502 -0.00000000000E+00 -0.00000000000E+00 -0.32728330057E+03  0.32728330057E+03  0.00000000000E+00 0.  1.
         25    1    1    2    0    0  0.00000000000E+00  0.00000000000E+00 -0.31534792228E+03  0.33921867886E+03  0.12500000000E+03 0.  0.
<mgrwt>
<rscale>  0 0.12500000E+03</rscale>
<asrwt>0</asrwt>
<pdfrwt beam="1">  1       21 0.18362124E-02 0.12500000E+03</pdfrwt>
<pdfrwt beam="2">  1       21 0.50351268E-01 0.12500000E+03</pdfrwt>
<totfact> 0.52344658E+06</totfact>
</mgrwt>
</event>
<event>
 3    1  0.1592492E-001  0.1250000E+03  0.7546771E-02  0.1235069E+00
         21   -1    0    0  502  501  0.00000000000E+00  0.00000000000E+00  0.12235745458E+02  0.12235745458E+02  0.00000000000E+00 0. -1.
         21   -1    0    0  501  502 -0.00000000000E+00 -0.00000000000E+00 -0.31924904073E+03  0.31924904073E+03  0.00000000000E+00 0. -1.
         25    1    1    2    0    0  0.00000000000E+00  0.00000000000E+00 -0.30701329527E+03  0.33148478619E+03  0.12500000000E+03 0.  0.
<mgrwt>
<rscale>  0 0.12500000E+03</rscale>
<asrwt>0</asrwt>
<pdfrwt beam="1">  1       21 0.18824224E-02 0.12500000E+03</pdfrwt>
<pdfrwt beam="2">  1       21 0.49115235E-01 0.12500000E+03</pdfrwt>
<totfact> 0.52935600E+06</totfact>
</mgrwt>
</event>
<event>
 3    1  0.1592492E-001  0.1250000E+03  0.7546771E-02  0.1235069E+00
         21   -1    0    0  502  501  0.00000000000E+00  0.00000000000E+00  0.11664039702E+04  0.11664039702E+04  0.00000000000E+00 0. -1.
         21   -1    0    0  501  502 -0.00000000000E+00 -0.00000000000E+00 -0.33489683674E+01  0.33489683674E+01  0.00000000000E+00 0. -1.
         25    1    1    2    0    0  0.00000000000E+00  0.00000000000E+00  0.11630550019E+04  0.11697529386E+04  0.12500000000E+03 0.  0.
<mgrwt>
<rscale>  0 0.12500000E+03</rscale>
<asrwt>0</asrwt>
<pdfrwt beam="1">  1       21 0.17944644E+00 0.12500000E+03</pdfrwt>
<pdfrwt beam="2">  1       21 0.51522683E-03 0.12500000E+03</pdfrwt>
<totfact> 0.19756823E+06</totfact>
</mgrwt>
</event>
<event>
 3    1  0.1592492E-001  0.1250000E+03  0.7546771E-02  0.1235069E+00
         21   -1    0    0  502  501  0.00000000000E+00  0.00000000000E+00  0.18280381805E+03  0.18280381805E+03  0.00000000000E+00 0.  1.
         21   -1    0    0  501  502 -0.00000000000E+00 -0.00000000000E+00 -0.21368536181E+02  0.21368536181E+02  0.00000000000E+00 0.  1.
         25    1    1    2    0    0  0.00000000000E+00  0.00000000000E+00  0.16143528186E+03  0.20417235423E+03  0.12500000000E+03 0.  0.
<mgrwt>
<rscale>  0 0.12500000E+03</rscale>
<asrwt>0</asrwt>
<pdfrwt beam="1">  1       21 0.28123663E-01 0.12500000E+03</pdfrwt>
<pdfrwt beam="2">  1       21 0.32874672E-02 0.12500000E+03</pdfrwt>
<totfact> 0.64477935E+06</totfact>
</mgrwt>
</event>
<event>
 3    1  0.1592492E-001  0.1250000E+03  0.7546771E-02  0.1235069E+00
         21   -1    0    0  502  501  0.00000000000E+00  0.00000000000E+00  0.31486716029E+02  0.31486716029E+02  0.00000000000E+00 0.  1.
         21   -1    0    0  501  502 -0.00000000000E+00 -0.00000000000E+00 -0.12406025437E+03  0.12406025437E+03  0.00000000000E+00 0.  1.
         25    1    1    2    0    0  0.00000000000E+00  0.00000000000E+00 -0.92573538345E+02  0.15554697040E+03  0.12500000000E+03 0.  0.
<mgrwt>
<rscale>  0 0.12500000E+03</rscale>
<asrwt>0</asrwt>
<pdfrwt beam="1">  1       21 0.48441101E-02 0.12500000E+03</pdfrwt>
<pdfrwt beam="2">  1       21 0.19086193E-01 0.12500000E+03</pdfrwt>
<totfact> 0.70067741E+06</totfact>
</mgrwt>
</event>
<event>
 3    1  0.1592492E-001  0.1250000E+03  0.7546771E-02  0.1235069E+00
         21   -1    0    0  502  501  0.00000000000E+00  0.00000000000E+00  0.53464769656E+03  0.53464769656E+03  0.00000000000E+00 0. -1.
         21   -1    0    0  501  502 -0.00000000000E+00 -0.00000000000E+00 -0.73062130916E+01  0.73062130916E+01  0.00000000000E+00 0. -1.
         25    1    1    2    0    0  0.00000000000E+00  0.00000000000E+00  0.52734148347E+03  0.54195390965E+03  0.12500000000E+03 0.  0.
<mgrwt>
<rscale>  0 0.12500000E+03</rscale>
<asrwt>0</asrwt>
<pdfrwt beam="1">  1       21 0.82253461E-01 0.12500000E+03</pdfrwt>
<pdfrwt beam="2">  1       21 0.11240332E-02 0.12500000E+03</pdfrwt>
<totfact> 0.39856547E+06</totfact>
</mgrwt>
</event>
<event>
 3    1  0.1592492E-001  0.1250000E+03  0.7546771E-02  0.1235069E+00
         21   -1    0    0  502  501  0.00000000000E+00  0.00000000000E+00  0.93558126929E+01  0.93558126929E+01  0.00000000000E+00 0. -1.
         21   -1    0    0  501  502 -0.00000000000E+00 -0.00000000000E+00 -0.41752118477E+03  0.41752118477E+03  0.00000000000E+00 0. -1.
         25    1    1    2    0    0  0.00000000000E+00  0.00000000000E+00 -0.40816537207E+03  0.42687699746E+03  0.12500000000E+03 0.  0.
<mgrwt>
<rscale>  0 0.12500000E+03</rscale>
<asrwt>0</asrwt>
<pdfrwt beam="1">  1       21 0.14393560E-02 0.12500000E+03</pdfrwt>
<pdfrwt beam="2">  1       21 0.64234020E-01 0.12500000E+03</pdfrwt>
<totfact> 0.46308270E+06</totfact>
</mgrwt>
</event>
<event>
 3    1  0.1592492E-001  0.1250000E+03  0.7546771E-02  0.1235069E+00
         21   -1    0    0  502  501  0.00000000000E+00  0.00000000000E+00  0.32587874149E+01  0.32587874149E+01  0.00000000000E+00 0. -1.
         21   -1    0    0  501  502 -0.00000000000E+00 -0.00000000000E+00 -0.11986820565E+04  0.11986820565E+04  0.00000000000E+00 0. -1.
         25    1    1    2    0    0  0.00000000000E+00  0.00000000000E+00 -0.11954232690E+04  0.12019408439E+04  0.12500000000E+03 0.  0.
<mgrwt>
<rscale>  0 0.12500000E+03</rscale>
<asrwt>0</asrwt>
<pdfrwt beam="1">  1       21 0.50135239E-03 0.12500000E+03</pdfrwt>
<pdfrwt beam="2">  1       21 0.18441245E+00 0.12500000E+03</pdfrwt>
<totfact> 0.19104752E+06</totfact>
</mgrwt>
</event>
<event>
 3    1  0.1592492E-001  0.1250000E+03  0.7546771E-02  0.1235069E+00
         21   -1    0    0  502  501  0.00000000000E+00  0.00000000000E+00  0.45436205713E+02  0.45436205713E+02  0.00000000000E+00 0. -1.
         21   -1    0    0  501  502 -0.00000000000E+00 -0.00000000000E+00 -0.85972187569E+02  0.85972187569E+02  0.00000000000E+00 0. -1.
         25    1    1    2    0    0  0.00000000000E+00  0.00000000000E+00 -0.40535981856E+02  0.13140839328E+03  0.12500000000E+03 0.  0.
<mgrwt>
<rscale>  0 0.12500000E+03</rscale>
<asrwt>0</asrwt>
<pdfrwt beam="1">  1       21 0.69901855E-02 0.12500000E+03</pdfrwt>
<pdfrwt beam="2">  1       21 0.13226490E-01 0.12500000E+03</pdfrwt>
<totfact> 0.73175690E+06</totfact>
</mgrwt>
</event>
<event>
 3    1  0.1592492E-001  0.1250000E+03  0.7546771E-02  0.1235069E+00
         21   -1    0    0  502  501  0.00000000000E+00  0.00000000000E+00  0.95298360755E+01  0.95298360755E+01  0.00000000000E+00 0.  1.
         21   -1    0    0  501  502 -0.00000000000E+00 -0.00000000000E+00 -0.40989687221E+03  0.40989687221E+03  0.00000000000E+00 0.  1.
         25    1    1    2    0    0  0.00000000000E+00  0.00000000000E+00 -0.40036703613E+03  0.41942670828E+03  0.12500000000E+03 0.  0.
<mgrwt>
<rscale>  0 0.12500000E+03</rscale>
<asrwt>0</asrwt>
<pdfrwt beam="1">  1       21 0.14661288E-02 0.12500000E+03</pdfrwt>
<pdfrwt beam="2">  1       21 0.63061048E-01 0.12500000E+03</pdfrwt>
<totfact> 0.46778942E+06</totfact>
</mgrwt>
</event>
<event>
 3    1  0.1592492E-001  0.1250000E+03  0.7546771E-02  0.1235069E+00
         21   -1    0    0  502  501  0.00000000000E+00  0.00000000000E+00  0.58593051210E+02  0.58593051210E+02  0.00000000000E+00 0. -1.
         21   -1    0    0  501  502 -0.00000000000E+00 -0.00000000000E+00 -0.66667461744E+02  0.66667461744E+02  0.00000000000E+00 0. -1.
         25    1    1    2    0    0  0.00000000000E+00  0.00000000000E+00 -0.80744105348E+01  0.12526051295E+03  0.12500000000E+03 0.  0.
<mgrwt>
<rscale>  0 0.12500000E+03</rscale>
<asrwt>0</asrwt>
<pdfrwt beam="1">  1       21 0.90143156E-02 0.12500000E+03</pdfrwt>
<pdfrwt beam="2">  1       21 0.10256533E-01 0.12500000E+03</pdfrwt>
<totfact> 0.74008402E+06</totfact>
</mgrwt>
</event>
<event>
 3    1  0.1592492E-001  0.1250000E+03  0.7546771E-02  0.1235069E+00
         21   -1    0    0  502  501  0.00000000000E+00  0.00000000000E+00  0.76051099950E+01  0.76051099950E+01  0.00000000000E+00 0.  1.
         21   -1    0    0  501  502 -0.00000000000E+00 -0.00000000000E+00 -0.51363491160E+03  0.51363491160E+03  0.00000000000E+00 0.  1.
         25    1    1    2    0    0  0.00000000000E+00  0.00000000000E+00 -0.50602980160E+03  0.52124002159E+03  0.12500000000E+03 0.  0.
<mgrwt>
<rscale>  0 0.12500000E+03</rscale>
<asrwt>0</asrwt>
<pdfrwt beam="1">  1       21 0.11700169E-02 0.12500000E+03</pdfrwt>
<pdfrwt beam="2">  1       21 0.79020757E-01 0.12500000E+03</pdfrwt>
<totfact> 0.40915116E+06</totfact>
</mgrwt>
</event>
<event>
 3    1  0.1592492E-001  0.1250000E+03  0.7546771E-02  0.1235069E+00
         21   -1    0    0  502  501  0.00000000000E+00  0.00000000000E+00  0.54924234553E+03  0.54924234553E+03  0.00000000000E+00 0.  1.
         21   -1    0    0  501  502 -0.00000000000E+00 -0.00000000000E+00 -0.71120699848E+01  0.71120699848E+01  0.00000000000E+00 0.  1.
         25    1    1    2    0    0  0.00000000000E+00  0.00000000000E+00  0.54213027554E+03  0.55635441551E+03  0.12500000000E+03 0.  0.
<mgrwt>
<rscale>  0 0.12500000E+03</rscale>
<asrwt>0</asrwt>
<pdfrwt beam="1">  1       21 0.84498789E-01 0.12500000E+03</pdfrwt>
<pdfrwt beam="2">  1       21 0.10941651E-02 0.12500000E+03</pdfrwt>
<totfact> 0.39143907E+06</totfact>
</mgrwt>
</event>
<event>
 3    1  0.1592492E-001  0.1250000E+03  0.7546771E-02  0.1235069E+00
         21   -1    0    0  502  501  0.00000000000E+00  0.00000000000E+00  0.33303276554E+02  0.33303276554E+02  0.00000000000E+00 0.  1.
         21   -1    0    0  501  502 -0.00000000000E+00 -0.00000000000E+00 -0.11729326373E+03  0.11729326373E+03  0.00000000000E+00 0.  1.
         25    1    1    2    0    0  0.00000000000E+00  0.00000000000E+00 -0.83989987177E+02  0.15059654029E+03  0.12500000000E+03 0.  0.
<mgrwt>
<rscale>  0 0.12500000E+03</rscale>
<asrwt>0</asrwt>
<pdfrwt beam="1">  1       21 0.51235810E-02 0.12500000E+03</pdfrwt>
<pdfrwt beam="2">  1       21 0.18045117E-01 0.12500000E+03</pdfrwt>
<totfact> 0.70684345E+06</totfact>
</mgrwt>
</event>
<event>
 3    1  0.1592492E-001  0.1250000E+03  0.7546771E-02  0.1235069E+00
         21   -1    0    0  502  501  0.00000000000E+00  0.00000000000E+00  0.50250697231E+02  0.50250697231E+02  0.00000000000E+00 0. -1.
         21   -1    0    0  501  502 -0.00000000000E+00 -0.00000000000E+00 -0.77735239813E+02  0.77735239813E+02  0.00000000000E+00 0. -1.
         25    1    1    2    0    0  0.00000000000E+00  0.00000000000E+00 -0.27484542582E+02  0.12798593704E+03  0.12500000000E+03 0.  0.
<mgrwt>
<rscale>  0 0.12500000E+03</rscale>
<asrwt>0</asrwt>
<pdfrwt beam="1">  1       21 0.77308764E-02 0.12500000E+03</pdfrwt>
<pdfrwt beam="2">  1       21 0.11959268E-01 0.12500000E+03</pdfrwt>
<totfact> 0.73635459E+06</totfact>
</mgrwt>
</event>
<event>
 3    1  0.1592492E-001  0.1250000E+03  0.7546771E-02  0.1235069E+00
         21   -1    0    0  502  501  0.00000000000E+00  0.00000000000E+00  0.35794895989E+02  0.35794895989E+02  0.00000000000E+00 0.  1.
         21   -1    0    0  501  502 -0.00000000000E+00 -0.00000000000E+00 -0.10912868698E+03  0.10912868698E+03  0.00000000000E+00 0.  1.
         25    1    1    2    0    0  0.00000000000E+00  0.00000000000E+00 -0.73333790994E+02  0.14492358297E+03  0.12500000000E+03 0.  0.
<mgrwt>
<rscale>  0 0.12500000E+03</rscale>
<asrwt>0</asrwt>
<pdfrwt beam="1">  1       21 0.55069071E-02 0.12500000E+03</pdfrwt>
<pdfrwt beam="2">  1       21 0.16789029E-01 0.12500000E+03</pdfrwt>
<totfact> 0.71402879E+06</totfact>
</mgrwt>
</event>
<event>
 3    1  0.1592492E-001  0.1250000E+03  0.7546771E-02  0.1235069E+00
         21   -1    0    0  502  501  0.00000000000E+00  0.00000000000E+00  0.84248323443E+02  0.84248323443E+02  0.00000000000E+00 0. -1.
         21   -1    0    0  501  502 -0.00000000000E+00 -0.00000000000E+00 -0.46365907835E+02  0.46365907835E+02  0.00000000000E+00 0. -1.
         25    1    1    2    0    0  0.00000000000E+00  0.00000000000E+00  0.37882415608E+02  0.13061423128E+03  0.12500000000E+03 0.  0.
<mgrwt>
<rscale>  0 0.12500000E+03</rscale>
<asrwt>0</asrwt>
<pdfrwt beam="1">  1       21 0.12961281E-01 0.12500000E+03</pdfrwt>
<pdfrwt beam="2">  1       21 0.71332166E-02 0.12500000E+03</pdfrwt>
<totfact> 0.73282705E+06</totfact>
</mgrwt>
</event>
<event>
 3    1  0.1592492E-001  0.1250000E+03  0.7546771E-02  0.1235069E+00
         21   -1    0    0  502  501  0.00000000000E+00  0.00000000000E+00  0.22010080305E+02  0.22010080305E+02  0.00000000000E+00 0.  1.
         21   -1    0    0  501  502 -0.00000000000E+00 -0.00000000000E+00 -0.17747549967E+03  0.17747549967E+03  0.00000000000E+00 0.  1.
         25    1    1    2    0    0  0.00000000000E+00  0.00000000000E+00 -0.15546541937E+03  0.19948557998E+03  0.12500000000E+03 0.  0.
<mgrwt>
<rscale>  0 0.12500000E+03</rscale>
<asrwt>0</asrwt>
<pdfrwt beam="1">  1       21 0.33861660E-02 0.12500000E+03</pdfrwt>
<pdfrwt beam="2">  1       21 0.27303924E-01 0.12500000E+03</pdfrwt>
<totfact> 0.64983034E+06</totfact>
</mgrwt>
</event>
<event>
 3    1  0.1592492E-001  0.1250000E+03  0.7546771E-02  0.1235069E+00
         21   -1    0    0  502  501  0.00000000000E+00  0.00000000000E+00  0.34074932132E+03  0.34074932132E+03  0.00000000000E+00 0. -1.
         21   -1    0    0  501  502 -0.00000000000E+00 -0.00000000000E+00 -0.11463705885E+02  0.11463705885E+02  0.00000000000E+00 0. -1.
         25    1    1    2    0    0  0.00000000000E+00  0.00000000000E+00  0.32928561544E+03  0.35221302720E+03  0.12500000000E+03 0.  0.
<mgrwt>
<rscale>  0 0.12500000E+03</rscale>
<asrwt>0</asrwt>
<pdfrwt beam="1">  1       21 0.52422965E-01 0.12500000E+03</pdfrwt>
<pdfrwt beam="2">  1       21 0.17636473E-02 0.12500000E+03</pdfrwt>
<totfact> 0.51375411E+06</totfact>
</mgrwt>
</event>
<event>
 3    1  0.1592492E-001  0.1250000E+03  0.7546771E-02  0.1235069E+00
         21   -1    0    0  502  501  0.00000000000E+00  0.00000000000E+00  0.15549210108E+02  0.15549210108E+02  0.00000000000E+00 0.  1.
         21   -1    0    0  501  502 -0.00000000000E+00 -0.00000000000E+00 -0.25121854890E+03  0.25121854890E+03  0.00000000000E+00 0.  1.
         25    1    1    2    0    0  0.00000000000E+00  0.00000000000E+00 -0.23566933879E+03  0.26676775901E+03  0.12500000000E+03 0.  0.
<mgrwt>
<rscale>  0 0.12500000E+03</rscale>
<asrwt>0</asrwt>
<pdfrwt beam="1">  1       21 0.23921862E-02 0.12500000E+03</pdfrwt>
<pdfrwt beam="2">  1       21 0.38649007E-01 0.12500000E+03</pdfrwt>
<totfact> 0.58334470E+06</totfact>
</mgrwt>
</event>
<event>
 3    1  0.1592492E-001  0.1250000E+03  0.7546771E-02  0.1235069E+00
         21   -1    0    0  502  501  0.00000000000E+00  0.00000000000E+00  0.13162188640E+04  0.13162188640E+04  0.00000000000E+00 0. -1.
         21   -1    0    0  501  502 -0.00000000000E+00 -0.00000000000E+00 -0.29677815041E+01  0.29677815041E+01  0.00000000000E+00 0. -1.
         25    1    1    2    0    0  0.00000000000E+00  0.00000000000E+00  0.13132510825E+04  0.13191866455E+04  0.12500000000E+03 0.  0.
<mgrwt>
<rscale>  0 0.12500000E+03</rscale>
<asrwt>0</asrwt>
<pdfrwt beam="1">  1       21 0.20249474E+00 0.12500000E+03</pdfrwt>
<pdfrwt beam="2">  1       21 0.45658282E-03 0.12500000E+03</pdfrwt>
<totfact> 0.16911376E+06</totfact>
</mgrwt>
</event>
<event>
 3    1  0.1592492E-001  0.1250000E+03  0.7546771E-02  0.1235069E+00
         21   -1    0    0  502  501  0.00000000000E+00  0.00000000000E+00  0.20095303473E+02  0.20095303473E+02  0.00000000000E+00 0. -1.
         21   -1    0    0  501  502 -0.00000000000E+00 -0.00000000000E+00 -0.19438621592E+03  0.19438621592E+03  0.00000000000E+00 0. -1.
         25    1    1    2    0    0  0.00000000000E+00  0.00000000000E+00 -0.17429091245E+03  0.21448151940E+03  0.12500000000E+03 0.  0.
<mgrwt>
<rscale>  0 0.12500000E+03</rscale>
<asrwt>0</asrwt>
<pdfrwt beam="1">  1       21 0.30915851E-02 0.12500000E+03</pdfrwt>
<pdfrwt beam="2">  1       21 0.29905572E-01 0.12500000E+03</pdfrwt>
<totfact> 0.63391091E+06</totfact>
</mgrwt>
</event>
<event>
 3    1  0.1592492E-001  0.1250000E+03  0.7546771E-02  0.1235069E+00
         21   -1    0    0  502  501  0.00000000000E+00  0.00000000000E+00  0.19570418273E+02  0.19570418273E+02  0.00000000000E+00 0. -1.
         21   -1    0    0  501  502 -0.00000000000E+00 -0.00000000000E+00 -0.19959971961E+03  0.19959971961E+03  0.00000000000E+00 0. -1.
         25    1    1    2    0    0  0.00000000000E+00  0.00000000000E+00 -0.18002930134E+03  0.21917013789E+03  0.12500000000E+03 0.  0.
<mgrwt>
<rscale>  0 0.12500000E+03</rscale>
<asrwt>0</asrwt>
<pdfrwt beam="1">  1       21 0.30108338E-02 0.12500000E+03</pdfrwt>
<pdfrwt beam="2">  1       21 0.30707647E-01 0.12500000E+03</pdfrwt>
<totfact> 0.62907460E+06</totfact>
</mgrwt>
</event>
<event>
 3    1  0.1592492E-001  0.1250000E+03  0.7546771E-02  0.1235069E+00
         21   -1    0    0  502  501  0.00000000000E+00  0.00000000000E+00  0.22383052583E+03  0.22383052583E+03  0.00000000000E+00 0.  1.
         21   -1    0    0  501  502 -0.00000000000E+00 -0.00000000000E+00 -0.17451819788E+02  0.17451819788E+02  0.00000000000E+00 0.  1.
         25    1    1    2    0    0  0.00000000000E+00  0.00000000000E+00  0.20637870605E+03  0.24128234562E+03  0.12500000000E+03 0.  0.
<mgrwt>
<rscale>  0 0.12500000E+03</rscale>
<asrwt>0</asrwt>
<pdfrwt beam="1">  1       21 0.34435463E-01 0.12500000E+03</pdfrwt>
<pdfrwt beam="2">  1       21 0.26848955E-02 0.12500000E+03</pdfrwt>
<totfact> 0.60708794E+06</totfact>
</mgrwt>
</event>
<event>
 3    1  0.1592492E-001  0.1250000E+03  0.7546771E-02  0.1235069E+00
         21   -1    0    0  502  501  0.00000000000E+00  0.00000000000E+00  0.15762562697E+02  0.15762562697E+02  0.00000000000E+00 0.  1.
         21   -1    0    0  501  502 -0.00000000000E+00 -0.00000000000E+00 -0.24781820539E+03  0.24781820539E+03  0.00000000000E+00 0.  1.
         25    1    1    2    0    0  0.00000000000E+00  0.00000000000E+00 -0.23205564269E+03  0.26358076809E+03  0.12500000000E+03 0.  0.
<mgrwt>
<rscale>  0 0.12500000E+03</rscale>
<asrwt>0</asrwt>
<pdfrwt beam="1">  1       21 0.24250096E-02 0.12500000E+03</pdfrwt>
<pdfrwt beam="2">  1       21 0.38125878E-01 0.12500000E+03</pdfrwt>
<totfact> 0.58622621E+06</totfact>
</mgrwt>
</event>
<event>
 3    1  0.1592492E-001  0.1250000E+03  0.7546771E-02  0.1235069E+00
         21   -1    0    0  502  501  0.00000000000E+00  0.00000000000E+00  0.90702773969E+02  0.90702773969E+02  0.00000000000E+00 0.  1.
         21   -1    0    0  501  502 -0.00000000000E+00 -0.00000000000E+00 -0.43066488808E+02  0.43066488808E+02  0.00000000000E+00 0.  1.
         25    1    1    2    0    0  0.00000000000E+00  0.00000000000E+00  0.47636285160E+02  0.13376926278E+03  0.12500000000E+03 0.  0.
<mgrwt>
<rscale>  0 0.12500000E+03</rscale>
<asrwt>0</asrwt>
<pdfrwt beam="1">  1       21 0.13954273E-01 0.12500000E+03</pdfrwt>
<pdfrwt beam="2">  1       21 0.66256137E-02 0.12500000E+03</pdfrwt>
<totfact> 0.72859847E+06</totfact>
</mgrwt>
</event>
<event>
 3    1  0.1592492E-001  0.1250000E+03  0.7546771E-02  0.1235069E+00
         21   -1    0    0  502  501  0.00000000000E+00  0.00000000000E+00  0.10084582405E+03  0.10084582405E+03  0.00000000000E+00 0. -1.
         21   -1    0    0  501  502 -0.00000000000E+00 -0.00000000000E+00 -0.38734871144E+02  0.38734871144E+02  0.00000000000E+00 0. -1.
         25    1    1    2    0    0  0.00000000000E+00  0.00000000000E+00  0.62110952907E+02  0.13958069519E+03  0.12500000000E+03 0.  0.
<mgrwt>
<rscale>  0 0.12500000E+03</rscale>
<asrwt>0</asrwt>
<pdfrwt beam="1">  1       21 0.15514742E-01 0.12500000E+03</pdfrwt>
<pdfrwt beam="2">  1       21 0.59592110E-02 0.12500000E+03</pdfrwt>
<totfact> 0.72094095E+06</totfact>
</mgrwt>
</event>
<event>
 3    1  0.1592492E-001  0.1250000E+03  0.7546771E-02  0.1235069E+00
         21   -1    0    0  502  501  0.00000000000E+00  0.00000000000E+00  0.55881378970E+02  0.55881378970E+02  0.00000000000E+00 0. -1.
         21   -1    0    0  501  502 -0.00000000000E+00 -0.00000000000E+00 -0.69902534118E+02  0.69902534118E+02  0.00000000000E+00 0. -1.
         25    1    1    2    0    0  0.00000000000E+00  0.00000000000E+00 -0.14021155147E+02  0.12578391309E+03  0.12500000000E+03 0.  0.
<mgrwt>
<rscale>  0 0.12500000E+03</rscale>
<asrwt>0</asrwt>
<pdfrwt beam="1">  1       21 0.85971353E-02 0.12500000E+03</pdfrwt>
<pdfrwt beam="2">  1       21 0.10754236E-01 0.12500000E+03</pdfrwt>
<totfact> 0.73935900E+06</totfact>
</mgrwt>
</event>
<event>
 3    1  0.1592492E-001  0.1250000E+03  0.7546771E-02  0.1235069E+00
         21   -1    0    0  502  501  0.00000000000E+00  0.00000000000E+00  0.22662502857E+03  0.22662502857E+03  0.00000000000E+00 0.  1.
         21   -1    0    0  501  502 -0.00000000000E+00 -0.00000000000E+00 -0.17236622207E+02  0.17236622207E+02  0.00000000000E+00 0.  1.
         25    1    1    2    0    0  0.00000000000E+00  0.00000000000E+00  0.20938840636E+03  0.24386165077E+03  0.12500000000E+03 0.  0.
<mgrwt>
<rscale>  0 0.12500000E+03</rscale>
<asrwt>0</asrwt>
<pdfrwt beam="1">  1       21 0.34865387E-01 0.12500000E+03</pdfrwt>
<pdfrwt beam="2">  1       21 0.26517882E-02 0.12500000E+03</pdfrwt>
<totfact> 0.60460969E+06</totfact>
</mgrwt>
</event>
<event>
 3    1  0.1592492E-001  0.1250000E+03  0.7546771E-02  0.1235069E+00
         21   -1    0    0  502  501  0.00000000000E+00  0.00000000000E+00  0.67747250698E+01  0.67747250698E+01  0.00000000000E+00 0.  1.
         21   -1    0    0  501  502 -0.00000000000E+00 -0.00000000000E+00 -0.57659166383E+03  0.57659166383E+03  0.00000000000E+00 0.  1.
         25    1    1    2    0    0  0.00000000000E+00  0.00000000000E+00 -0.56981693876E+03  0.58336638890E+03  0.12500000000E+03 0.  0.
<mgrwt>
<rscale>  0 0.12500000E+03</rscale>
<asrwt>0</asrwt>
<pdfrwt beam="1">  1       21 0.10422651E-02 0.12500000E+03</pdfrwt>
<pdfrwt beam="2">  1       21 0.88706434E-01 0.12500000E+03</pdfrwt>
<totfact> 0.37855825E+06</totfact>
</mgrwt>
</event>
<event>
 3    1  0.1592492E-001  0.1250000E+03  0.7546771E-02  0.1235069E+00
         21   -1    0    0  502  501  0.00000000000E+00  0.00000000000E+00  0.17501396898E+03  0.17501396898E+03  0.00000000000E+00 0. -1.
         21   -1    0    0  501  502 -0.00000000000E+00 -0.00000000000E+00 -0.22319646956E+02  0.22319646956E+02  0.00000000000E+00 0. -1.
         25    1    1    2    0    0  0.00000000000E+00  0.00000000000E+00  0.15269432202E+03  0.19733361593E+03  0.12500000000E+03 0.  0.
<mgrwt>
<rscale>  0 0.12500000E+03</rscale>
<asrwt>0</asrwt>
<pdfrwt beam="1">  1       21 0.26925225E-01 0.12500000E+03</pdfrwt>
<pdfrwt beam="2">  1       21 0.34337920E-02 0.12500000E+03</pdfrwt>
<totfact> 0.65216517E+06</totfact>
</mgrwt>
</event>
<event>
 3    1  0.1592492E-001  0.1250000E+03  0.7546771E-02  0.1235069E+00
         21   -1    0    0  502  501  0.00000000000E+00  0.00000000000E+00  0.12195944354E+03  0.12195944354E+03  0.00000000000E+00 0. -1.
         21   -1    0    0  501  502 -0.00000000000E+00 -0.00000000000E+00 -0.32029090052E+02  0.32029090052E+02  0.00000000000E+00 0. -1.
         25    1    1    2    0    0  0.00000000000E+00  0.00000000000E+00  0.89930353491E+02  0.15398853360E+03  0.12500000000E+03 0.  0.
<mgrwt>
<rscale>  0 0.12500000E+03</rscale>
<asrwt>0</asrwt>
<pdfrwt beam="1">  1       21 0.18762991E-01 0.12500000E+03</pdfrwt>
<pdfrwt beam="2">  1       21 0.49275524E-02 0.12500000E+03</pdfrwt>
<totfact> 0.70261589E+06</totfact>
</mgrwt>
</event>
<event>
 3    1  0.1592492E-001  0.1250000E+03  0.7546771E-02  0.1235069E+00
         21   -1    0    0  502  501  0.00000000000E+00  0.00000000000E+00  0.19736264312E+01  0.19736264312E+01  0.00000000000E+00 0. -1.
         21   -1    0    0  501  502 -0.00000000000E+00 -0.00000000000E+00 -0.19792246081E+04  0.19792246081E+04  0.00000000000E+00 0. -1.
         25    1    1    2    0    0  0.00000000000E+00  0.00000000000E+00 -0.19772509817E+04  0.19811982346E+04  0.12500000000E+03 0.  0.
<mgrwt>
<rscale>  0 0.12500000E+03</rscale>
<asrwt>0</asrwt>
<pdfrwt beam="1">  1       21 0.30363595E-03 0.12500000E+03</pdfrwt>
<pdfrwt beam="2">  1       21 0.30449498E+00 0.12500000E+03</pdfrwt>
<totfact> 0.81328626E+05</totfact>
</mgrwt>
</event>
<event>
 3    1  0.1592492E-001  0.1250000E+03  0.7546771E-02  0.1235069E+00
         21   -1    0    0  502  501  0.00000000000E+00  0.00000000000E+00  0.53395900815E+03  0.53395900815E+03  0.00000000000E+00 0.  1.
         21   -1    0    0  501  502 -0.00000000000E+00 -0.00000000000E+00 -0.73156364822E+01  0.73156364822E+01  0.00000000000E+00 0.  1.
         25    1    1    2    0    0  0.00000000000E+00  0.00000000000E+00  0.52664337166E+03  0.54127464463E+03  0.12500000000E+03 0.  0.
<mgrwt>
<rscale>  0 0.12500000E+03</rscale>
<asrwt>0</asrwt>
<pdfrwt beam="1">  1       21 0.82147509E-01 0.12500000E+03</pdfrwt>
<pdfrwt beam="2">  1       21 0.11254830E-02 0.12500000E+03</pdfrwt>
<totfact> 0.39890623E+06</totfact>
</mgrwt>
</event>
<event>
 3    1  0.1592492E-001  0.1250000E+03  0.7546771E-02  0.1235069E+00
         21   -1    0    0  502  501  0.00000000000E+00  0.00000000000E+00  0.38288666087E+03  0.38288666087E+03  0.00000000000E+00 0. -1.
         21   -1    0    0  501  502 -0.00000000000E+00 -0.00000000000E+00 -0.10202105216E+02  0.10202105216E+02  0.00000000000E+00 0. -1.
         25    1    1    2    0    0  0.00000000000E+00  0.00000000000E+00  0.37268455566E+03  0.39308876609E+03  0.12500000000E+03 0.  0.
<mgrwt>
<rscale>  0 0.12500000E+03</rscale>
<asrwt>0</asrwt>
<pdfrwt beam="1">  1       21 0.58905629E-01 0.12500000E+03</pdfrwt>
<pdfrwt beam="2">  1       21 0.15695549E-02 0.12500000E+03</pdfrwt>
<totfact> 0.48503174E+06</totfact>
</mgrwt>
</event>
<event>
 3    1  0.1592492E-001  0.1250000E+03  0.7546771E-02  0.1235069E+00
         21   -1    0    0  502  501  0.00000000000E+00  0.00000000000E+00  0.59844344212E+02  0.59844344212E+02  0.00000000000E+00 0. -1.
         21   -1    0    0  501  502 -0.00000000000E+00 -0.00000000000E+00 -0.65273503310E+02  0.65273503310E+02  0.00000000000E+00 0. -1.
         25    1    1    2    0    0  0.00000000000E+00  0.00000000000E+00 -0.54291590986E+01  0.12511784752E+03  0.12500000000E+03 0.  0.
<mgrwt>
<rscale>  0 0.12500000E+03</rscale>
<asrwt>0</asrwt>
<pdfrwt beam="1">  1       21 0.92068222E-02 0.12500000E+03</pdfrwt>
<pdfrwt beam="2">  1       21 0.10042077E-01 0.12500000E+03</pdfrwt>
<totfact> 0.74027665E+06</totfact>
</mgrwt>
</event>
<event>
 3    1  0.1592492E-001  0.1250000E+03  0.7546771E-02  0.1235069E+00
         21   -1    0    0  502  501  0.00000000000E+00  0.00000000000E+00  0.66611999445E+03  0.66611999445E+03  0.00000000000E+00 0. -1.
         21   -1    0    0  501  502 -0.00000000000E+00 -0.00000000000E+00 -0.58641836794E+01  0.58641836794E+01  0.00000000000E+00 0. -1.
         25    1    1    2    0    0  0.00000000000E+00  0.00000000000E+00  0.66025581078E+03  0.67198417813E+03  0.12500000000E+03 0.  0.
<mgrwt>
<rscale>  0 0.12500000E+03</rscale>
<asrwt>0</asrwt>
<pdfrwt beam="1">  1       21 0.10247994E+00 0.12500000E+03</pdfrwt>
<pdfrwt beam="2">  1       21 0.90218263E-03 0.12500000E+03</pdfrwt>
<totfact> 0.34018485E+06</totfact>
</mgrwt>
</event>
<event>
 3    1  0.1592492E-001  0.1250000E+03  0.7546771E-02  0.1235069E+00
         21   -1    0    0  502  501  0.00000000000E+00  0.00000000000E+00  0.26948754373E+03  0.26948754373E+03  0.00000000000E+00 0. -1.
         21   -1    0    0  501  502 -0.00000000000E+00 -0.00000000000E+00 -0.14495104100E+02  0.14495104100E+02  0.00000000000E+00 0. -1.
         25    1    1    2    0    0  0.00000000000E+00  0.00000000000E+00  0.25499243963E+03  0.28398264783E+03  0.12500000000E+03 0.  0.
<mgrwt>
<rscale>  0 0.12500000E+03</rscale>
<asrwt>0</asrwt>
<pdfrwt beam="1">  1       21 0.41459618E-01 0.12500000E+03</pdfrwt>
<pdfrwt beam="2">  1       21 0.22300162E-02 0.12500000E+03</pdfrwt>
<totfact> 0.56814115E+06</totfact>
</mgrwt>
</event>
<event>
 3    1  0.1592492E-001  0.1250000E+03  0.7546771E-02  0.1235069E+00
         21   -1    0    0  502  501  0.00000000000E+00  0.00000000000E+00  0.15903225996E+03  0.15903225996E+03  0.00000000000E+00 0. -1.
         21   -1    0    0  501  502 -0.00000000000E+00 -0.00000000000E+00 -0.24562626482E+02  0.24562626482E+02  0.00000000000E+00 0. -1.
         25    1    1    2    0    0  0.00000000000E+00  0.00000000000E+00  0.13446963347E+03  0.18359488644E+03  0.12500000000E+03 0.  0.
<mgrwt>
<rscale>  0 0.12500000E+03</rscale>
<asrwt>0</asrwt>
<pdfrwt beam="1">  1       21 0.24466501E-01 0.12500000E+03</pdfrwt>
<pdfrwt beam="2">  1       21 0.37788657E-02 0.12500000E+03</pdfrwt>
<totfact> 0.66741517E+06</totfact>
</mgrwt>
</event>
<event>
 3    1  0.1592492E-001  0.1250000E+03  0.7546771E-02  0.1235069E+00
         21   -1    0    0  502  501  0.00000000000E+00  0.00000000000E+00  0.45963037828E+03  0.45963037828E+03  0.00000000000E+00 0. -1.
         21   -1    0    0  501  502 -0.00000000000E+00 -0.00000000000E+00 -0.84986767293E+01  0.84986767293E+01  0.00000000000E+00 0. -1.
         25    1    1    2    0    0  0.00000000000E+00  0.00000000000E+00  0.45113170155E+03  0.46812905501E+03  0.12500000000E+03 0.  0.
<mgrwt>
<rscale>  0 0.12500000E+03</rscale>
<asrwt>0</asrwt>
<pdfrwt beam="1">  1       21 0.70712346E-01 0.12500000E+03</pdfrwt>
<pdfrwt beam="2">  1       21 0.13074891E-02 0.12500000E+03</pdfrwt>
<totfact> 0.43826978E+06</totfact>
</mgrwt>
</event>
<event>
 3    1  0.1592492E-001  0.1250000E+03  0.7546771E-02  0.1235069E+00
         21   -1    0    0  502  501  0.00000000000E+00  0.00000000000E+00  0.11380479611E+03  0.11380479611E+03  0.00000000000E+00 0. -1.
         21   -1    0    0  501  502 -0.00000000000E+00 -0.00000000000E+00 -0.34324124583E+02  0.34324124583E+02  0.00000000000E+00 0. -1.
         25    1    1    2    0    0  0.00000000000E+00  0.00000000000E+00  0.79480671530E+02  0.14812892070E+03  0.12500000000E+03 0.  0.
<mgrwt>
<rscale>  0 0.12500000E+03</rscale>
<asrwt>0</asrwt>
<pdfrwt beam="1">  1       21 0.17508430E-01 0.12500000E+03</pdfrwt>
<pdfrwt beam="2">  1       21 0.52806346E-02 0.12500000E+03</pdfrwt>
<totfact> 0.70995041E+06</totfact>
</mgrwt>
</event>
<event>
 3    1  0.1592492E-001  0.1250000E+03  0.7546771E-02  0.1235069E+00
         21   -1    0    0  502  501  0.00000000000E+00  0.00000000000E+00  0.17927189734E+02  0.17927189734E+02  0.00000000000E+00 0. -1.
         21   -1    0    0  501  502 -0.00000000000E+00 -0.00000000000E+00 -0.21789527850E+03  0.21789527850E+03  0.00000000000E+00 0. -1.
         25    1    1    2    0    0  0.00000000000E+00  0.00000000000E+00 -0.19996808877E+03  0.23582246824E+03  0.12500000000E+03 0.  0.
<mgrwt>
<rscale>  0 0.12500000E+03</rscale>
<asrwt>0</asrwt>
<pdfrwt beam="1">  1       21 0.27580292E-02 0.12500000E+03</pdfrwt>
<pdfrwt beam="2">  1       21 0.33522351E-01 0.12500000E+03</pdfrwt>
<totfact> 0.61239271E+06</totfact>
</mgrwt>
</event>
<event>
 3    1  0.1592492E-001  0.1250000E+03  0.7546771E-02  0.1235069E+00
         21   -1    0    0  502  501  0.00000000000E+00  0.00000000000E+00  0.26350160587E+02  0.26350160587E+02  0.00000000000E+00 0. -1.
         21   -1    0    0  501  502 -0.00000000000E+00 -0.00000000000E+00 -0.14824387833E+03  0.14824387833E+03  0.00000000000E+00 0. -1.
         25    1    1    2    0    0  0.00000000000E+00  0.00000000000E+00 -0.12189371774E+03  0.17459403892E+03  0.12500000000E+03 0.  0.
<mgrwt>
<rscale>  0 0.12500000E+03</rscale>
<asrwt>0</asrwt>
<pdfrwt beam="1">  1       21 0.40538708E-02 0.12500000E+03</pdfrwt>
<pdfrwt beam="2">  1       21 0.22806751E-01 0.12500000E+03</pdfrwt>
<totfact> 0.67777168E+06</totfact>
</mgrwt>
</event>
<event>
 3    1  0.1592492E-001  0.1250000E+03  0.7546771E-02  0.1235069E+00
         21   -1    0    0  502  501  0.00000000000E+00  0.00000000000E+00  0.83061835218E+01  0.83061835218E+01  0.00000000000E+00 0. -1.
         21   -1    0    0  501  502 -0.00000000000E+00 -0.00000000000E+00 -0.47028216867E+03  0.47028216867E+03  0.00000000000E+00 0. -1.
         25    1    1    2    0    0  0.00000000000E+00  0.00000000000E+00 -0.46197598515E+03  0.47858835219E+03  0.12500000000E+03 0.  0.
<mgrwt>
<rscale>  0 0.12500000E+03</rscale>
<asrwt>0</asrwt>
<pdfrwt beam="1">  1       21 0.12778740E-02 0.12500000E+03</pdfrwt>
<pdfrwt beam="2">  1       21 0.72351123E-01 0.12500000E+03</pdfrwt>
<totfact> 0.43229588E+06</totfact>
</mgrwt>
</event>
<event>
 3    1  0.1592492E-001  0.1250000E+03  0.7546771E-02  0.1235069E+00
         21   -1    0    0  502  501  0.00000000000E+00  0.00000000000E+00  0.15373311169E+03  0.15373311169E+03  0.00000000000E+00 0.  1.
         21   -1    0    0  501  502 -0.00000000000E+00 -0.00000000000E+00 -0.25409295090E+02  0.25409295090E+02  0.00000000000E+00 0.  1.
         25    1    1    2    0    0  0.00000000000E+00  0.00000000000E+00  0.12832381660E+03  0.17914240678E+03  0.12500000000E+03 0.  0.
<mgrwt>
<rscale>  0 0.12500000E+03</rscale>
<asrwt>0</asrwt>
<pdfrwt beam="1">  1       21 0.23651247E-01 0.12500000E+03</pdfrwt>
<pdfrwt beam="2">  1       21 0.39091224E-02 0.12500000E+03</pdfrwt>
<totfact> 0.67250053E+06</totfact>
</mgrwt>
</event>
<event>
 3    1  0.1592492E-001  0.1250000E+03  0.7546771E-02  0.1235069E+00
         21   -1    0    0  502  501  0.00000000000E+00  0.00000000000E+00  0.17040233748E+03  0.17040233748E+03  0.00000000000E+00 0.  1.
         21   -1    0    0  501  502 -0.00000000000E+00 -0.00000000000E+00 -0.22923687890E+02  0.22923687890E+02  0.00000000000E+00 0.  1.
         25    1    1    2    0    0  0.00000000000E+00  0.00000000000E+00  0.14747864959E+03  0.19332602537E+03  0.12500000000E+03 0.  0.
<mgrwt>
<rscale>  0 0.12500000E+03</rscale>
<asrwt>0</asrwt>
<pdfrwt beam="1">  1       21 0.26215743E-01 0.12500000E+03</pdfrwt>
<pdfrwt beam="2">  1       21 0.35267213E-02 0.12500000E+03</pdfrwt>
<totfact> 0.65654701E+06</totfact>
</mgrwt>
</event>
<event>
 3    1  0.1592492E-001  0.1250000E+03  0.7546771E-02  0.1235069E+00
         21   -1    0    0  502  501  0.00000000000E+00  0.00000000000E+00  0.52934342301E+02  0.52934342301E+02  0.00000000000E+00 0. -1.
         21   -1    0    0  501  502 -0.00000000000E+00 -0.00000000000E+00 -0.73794248312E+02  0.73794248312E+02  0.00000000000E+00 0. -1.
         25    1    1    2    0    0  0.00000000000E+00  0.00000000000E+00 -0.20859906012E+02  0.12672859061E+03  0.12500000000E+03 0.  0.
<mgrwt>
<rscale>  0 0.12500000E+03</rscale>
<asrwt>0</asrwt>
<pdfrwt beam="1">  1       21 0.81437450E-02 0.12500000E+03</pdfrwt>
<pdfrwt beam="2">  1       21 0.11352961E-01 0.12500000E+03</pdfrwt>
<totfact> 0.73806132E+06</totfact>
</mgrwt>
</event>
<event>
 3    1  0.1592492E-001  0.1250000E+03  0.7546771E-02  0.1235069E+00
         21   -1    0    0  502  501  0.00000000000E+00  0.00000000000E+00  0.86448439205E+01  0.86448439205E+01  0.00000000000E+00 0. -1.
         21   -1    0    0  501  502 -0.00000000000E+00 -0.00000000000E+00 -0.45185893880E+03  0.45185893880E+03  0.00000000000E+00 0. -1.
         25    1    1    2    0    0  0.00000000000E+00  0.00000000000E+00 -0.44321409488E+03  0.46050378272E+03  0.12500000000E+03 0.  0.
<mgrwt>
<rscale>  0 0.12500000E+03</rscale>
<asrwt>0</asrwt>
<pdfrwt beam="1">  1       21 0.13299758E-02 0.12500000E+03</pdfrwt>
<pdfrwt beam="2">  1       21 0.69516769E-01 0.12500000E+03</pdfrwt>
<totfact> 0.44270341E+06</totfact>
</mgrwt>
</event>
<event>
 3    1  0.1592492E-001  0.1250000E+03  0.7546771E-02  0.1235069E+00
         21   -1    0    0  502  501  0.00000000000E+00  0.00000000000E+00  0.10800948125E+02  0.10800948125E+02  0.00000000000E+00 0.  1.
         21   -1    0    0  501  502 -0.00000000000E+00 -0.00000000000E+00 -0.36165806510E+03  0.36165806510E+03  0.00000000000E+00 0.  1.
         25    1    1    2    0    0  0.00000000000E+00  0.00000000000E+00 -0.35085711698E+03  0.37245901323E+03  0.12500000000E+03 0.  0.
<mgrwt>
<rscale>  0 0.12500000E+03</rscale>
<asrwt>0</asrwt>
<pdfrwt beam="1">  1       21 0.16616845E-02 0.12500000E+03</pdfrwt>
<pdfrwt beam="2">  1       21 0.55639696E-01 0.12500000E+03</pdfrwt>
<totfact> 0.49921351E+06</totfact>
</mgrwt>
</event>
<event>
 3    1  0.1592492E-001  0.1250000E+03  0.7546771E-02  0.1235069E+00
         21   -1    0    0  502  501  0.00000000000E+00  0.00000000000E+00  0.48910842819E+03  0.48910842819E+03  0.00000000000E+00 0.  1.
         21   -1    0    0  501  502 -0.00000000000E+00 -0.00000000000E+00 -0.79864704324E+01  0.79864704324E+01  0.00000000000E+00 0.  1.
         25    1    1    2    0    0  0.00000000000E+00  0.00000000000E+00  0.48112195776E+03  0.49709489863E+03  0.12500000000E+03 0.  0.
<mgrwt>
<rscale>  0 0.12500000E+03</rscale>
<asrwt>0</asrwt>
<pdfrwt beam="1">  1       21 0.75247427E-01 0.12500000E+03</pdfrwt>
<pdfrwt beam="2">  1       21 0.12286881E-02 0.12500000E+03</pdfrwt>
<totfact> 0.42202068E+06</totfact>
</mgrwt>
</event>
<event>
 3    1  0.1592492E-001  0.1250000E+03  0.7546771E-02  0.1235069E+00
         21   -1    0    0  502  501  0.00000000000E+00  0.00000000000E+00  0.26890328632E+03  0.26890328632E+03  0.00000000000E+00 0. -1.
         21   -1    0    0  501  502 -0.00000000000E+00 -0.00000000000E+00 -0.14526598218E+02  0.14526598218E+02  0.00000000000E+00 0. -1.
         25    1    1    2    0    0  0.00000000000E+00  0.00000000000E+00  0.25437668811E+03  0.28342988454E+03  0.12500000000E+03 0.  0.
<mgrwt>
<rscale>  0 0.12500000E+03</rscale>
<asrwt>0</asrwt>
<pdfrwt beam="1">  1       21 0.41369733E-01 0.12500000E+03</pdfrwt>
<pdfrwt beam="2">  1       21 0.22348615E-02 0.12500000E+03</pdfrwt>
<totfact> 0.56861957E+06</totfact>
</mgrwt>
</event>
<event>
 3    1  0.1592492E-001  0.1250000E+03  0.7546771E-02  0.1235069E+00
         21   -1    0    0  502  501  0.00000000000E+00  0.00000000000E+00  0.60799632818E+02  0.60799632818E+02  0.00000000000E+00 0. -1.
         21   -1    0    0  501  502 -0.00000000000E+00 -0.00000000000E+00 -0.64247920899E+02  0.64247920899E+02  0.00000000000E+00 0. -1.
         25    1    1    2    0    0  0.00000000000E+00  0.00000000000E+00 -0.34482880809E+01  0.12504755372E+03  0.12500000000E+03 0.  0.
<mgrwt>
<rscale>  0 0.12500000E+03</rscale>
<asrwt>0</asrwt>
<pdfrwt beam="1">  1       21 0.93537897E-02 0.12500000E+03</pdfrwt>
<pdfrwt beam="2">  1       21 0.98842954E-02 0.12500000E+03</pdfrwt>
<totfact> 0.74037158E+06</totfact>
</mgrwt>
</event>
<event>
 3    1  0.1592492E-001  0.1250000E+03  0.7546771E-02  0.1235069E+00
         21   -1    0    0  502  501  0.00000000000E+00  0.00000000000E+00  0.10534437187E+03  0.10534437187E+03  0.00000000000E+00 0. -1.
         21   -1    0    0  501  502 -0.00000000000E+00 -0.00000000000E+00 -0.37080765975E+02  0.37080765975E+02  0.00000000000E+00 0. -1.
         25    1    1    2    0    0  0.00000000000E+00  0.00000000000E+00  0.68263605894E+02  0.14242513784E+03  0.12500000000E+03 0.  0.
<mgrwt>
<rscale>  0 0.12500000E+03</rscale>
<asrwt>0</asrwt>
<pdfrwt beam="1">  1       21 0.16206826E-01 0.12500000E+03</pdfrwt>
<pdfrwt beam="2">  1       21 0.57047333E-02 0.12500000E+03</pdfrwt>
<totfact> 0.71724272E+06</totfact>
</mgrwt>
</event>
<event>
 3    1  0.1592492E-001  0.1250000E+03  0.7546771E-02  0.1235069E+00
         21   -1    0    0  502  501  0.00000000000E+00  0.00000000000E+00  0.20238814424E+02  0.20238814424E+02  0.00000000000E+00 0. -1.
         21   -1    0    0  501  502 -0.00000000000E+00 -0.00000000000E+00 -0.19300784711E+03  0.19300784711E+03  0.00000000000E+00 0. -1.
         25    1    1    2    0    0  0.00000000000E+00  0.00000000000E+00 -0.17276903269E+03  0.21324666154E+03  0.12500000000E+03 0.  0.
<mgrwt>
<rscale>  0 0.12500000E+03</rscale>
<asrwt>0</asrwt>
<pdfrwt beam="1">  1       21 0.31136638E-02 0.12500000E+03</pdfrwt>
<pdfrwt beam="2">  1       21 0.29693515E-01 0.12500000E+03</pdfrwt>
<totfact> 0.63519561E+06</totfact>
</mgrwt>
</event>
<event>
 3    1  0.1592492E-001  0.1250000E+03  0.7546771E-02  0.1235069E+00
         21   -1    0    0  502  501  0.00000000000E+00  0.00000000000E+00  0.71815233436E+02  0.71815233436E+02  0.00000000000E+00 0.  1.
         21   -1    0    0  501  502 -0.00000000000E+00 -0.00000000000E+00 -0.54393055806E+02  0.54393055806E+02  0.00000000000E+00 0.  1.
         25    1    1    2    0    0  0.00000000000E+00  0.00000000000E+00  0.17422177630E+02  0.12620828924E+03  0.12500000000E+03 0.  0.
<mgrwt>
<rscale>  0 0.12500000E+03</rscale>
<asrwt>0</asrwt>
<pdfrwt beam="1">  1       21 0.11048497E-01 0.12500000E+03</pdfrwt>
<pdfrwt beam="2">  1       21 0.83681624E-02 0.12500000E+03</pdfrwt>
<totfact> 0.73877371E+06</totfact>
</mgrwt>
</event>
<event>
 3    1  0.1592492E-001  0.1250000E+03  0.7546771E-02  0.1235069E+00
         21   -1    0    0  502  501  0.00000000000E+00  0.00000000000E+00  0.14691353916E+03  0.14691353916E+03  0.00000000000E+00 0.  1.
         21   -1    0    0  501  502 -0.00000000000E+00 -0.00000000000E+00 -0.26588767940E+02  0.26588767940E+02  0.00000000000E+00 0.  1.
         25    1    1    2    0    0  0.00000000000E+00  0.00000000000E+00  0.12032477122E+03  0.17350230710E+03  0.12500000000E+03 0.  0.
<mgrwt>
<rscale>  0 0.12500000E+03</rscale>
<asrwt>0</asrwt>
<pdfrwt beam="1">  1       21 0.22602082E-01 0.12500000E+03</pdfrwt>
<pdfrwt beam="2">  1       21 0.40905798E-02 0.12500000E+03</pdfrwt>
<totfact> 0.67904863E+06</totfact>
</mgrwt>
</event>
<event>
 3    1  0.1592492E-001  0.1250000E+03  0.7546771E-02  0.1235069E+00
         21   -1    0    0  502  501  0.00000000000E+00  0.00000000000E+00  0.31815326794E+02  0.31815326794E+02  0.00000000000E+00 0.  1.
         21   -1    0    0  501  502 -0.00000000000E+00 -0.00000000000E+00 -0.12277887401E+03  0.12277887401E+03  0.00000000000E+00 0.  1.
         25    1    1    2    0    0  0.00000000000E+00  0.00000000000E+00 -0.90963547213E+02  0.15459420080E+03  0.12500000000E+03 0.  0.
<mgrwt>
<rscale>  0 0.12500000E+03</rscale>
<asrwt>0</asrwt>
<pdfrwt beam="1">  1       21 0.48946657E-02 0.12500000E+03</pdfrwt>
<pdfrwt beam="2">  1       21 0.18889057E-01 0.12500000E+03</pdfrwt>
<totfact> 0.70186130E+06</totfact>
</mgrwt>
</event>
<event>
 3    1  0.1592492E-001  0.1250000E+03  0.7546771E-02  0.1235069E+00
         21   -1    0    0  502  501  0.00000000000E+00  0.00000000000E+00  0.58049369476E+02  0.58049369476E+02  0.00000000000E+00 0. -1.
         21   -1    0    0  501  502 -0.00000000000E+00 -0.00000000000E+00 -0.67291859244E+02  0.67291859244E+02  0.00000000000E+00 0. -1.
         25    1    1    2    0    0  0.00000000000E+00  0.00000000000E+00 -0.92424897685E+01  0.12534122872E+03  0.12500000000E+03 0.  0.
<mgrwt>
<rscale>  0 0.12500000E+03</rscale>
<asrwt>0</asrwt>
<pdfrwt beam="1">  1       21 0.89306723E-02 0.12500000E+03</pdfrwt>
<pdfrwt beam="2">  1       21 0.10352594E-01 0.12500000E+03</pdfrwt>
<totfact> 0.73997506E+06</totfact>
</mgrwt>
</event>
<event>
 3    1  0.1592492E-001  0.1250000E+03  0.7546771E-02  0.1235069E+00
         21   -1    0    0  502  501  0.00000000000E+00  0.00000000000E+00  0.10333570439E+02  0.10333570439E+02  0.00000000000E+00 0. -1.
         21   -1    0    0  501  502 -0.00000000000E+00 -0.00000000000E+00 -0.37801551971E+03  0.37801551971E+03  0.00000000000E+00 0. -1.
         25    1    1    2    0    0  0.00000000000E+00  0.00000000000E+00 -0.36768194927E+03  0.38834909015E+03  0.12500000000E+03 0.  0.
<mgrwt>
<rscale>  0 0.12500000E+03</rscale>
<asrwt>0</asrwt>
<pdfrwt beam="1">  1       21 0.15897800E-02 0.12500000E+03</pdfrwt>
<pdfrwt beam="2">  1       21 0.58156237E-01 0.12500000E+03</pdfrwt>
<totfact> 0.48823865E+06</totfact>
</mgrwt>
</event>
<event>
 3    1  0.1592492E-001  0.1250000E+03  0.7546771E-02  0.1235069E+00
         21   -1    0    0  502  501  0.00000000000E+00  0.00000000000E+00  0.96314024960E+02  0.96314024960E+02  0.00000000000E+00 0. -1.
         21   -1    0    0  501  502 -0.00000000000E+00 -0.00000000000E+00 -0.40557437005E+02  0.40557437005E+02  0.00000000000E+00 0. -1.
         25    1    1    2    0    0  0.00000000000E+00  0.00000000000E+00  0.55756587955E+02  0.13687146196E+03  0.12500000000E+03 0.  0.
<mgrwt>
<rscale>  0 0.12500000E+03</rscale>
<asrwt>0</asrwt>
<pdfrwt beam="1">  1       21 0.14817542E-01 0.12500000E+03</pdfrwt>
<pdfrwt beam="2">  1       21 0.62396057E-02 0.12500000E+03</pdfrwt>
<totfact> 0.72449614E+06</totfact>
</mgrwt>
</event>
<event>
 3    1  0.1592492E-001  0.1250000E+03  0.7546771E-02  0.1235069E+00
         21   -1    0    0  502  501  0.00000000000E+00  0.00000000000E+00  0.24350346706E+01  0.24350346706E+01  0.00000000000E+00 0. -1.
         21   -1    0    0  501  502 -0.00000000000E+00 -0.00000000000E+00 -0.16041866045E+04  0.16041866045E+04  0.00000000000E+00 0. -1.
         25    1    1    2    0    0  0.00000000000E+00  0.00000000000E+00 -0.16017515698E+04  0.16066216391E+04  0.12500000000E+03 0.  0.
<mgrwt>
<rscale>  0 0.12500000E+03</rscale>
<asrwt>0</asrwt>
<pdfrwt beam="1">  1       21 0.37462184E-03 0.12500000E+03</pdfrwt>
<pdfrwt beam="2">  1       21 0.24679720E+00 0.12500000E+03</pdfrwt>
<totfact> 0.12484179E+06</totfact>
</mgrwt>
</event>
<event>
 3    1  0.1592492E-001  0.1250000E+03  0.7546771E-02  0.1235069E+00
         21   -1    0    0  502  501  0.00000000000E+00  0.00000000000E+00  0.34281545762E+03  0.34281545762E+03  0.00000000000E+00 0.  1.
         21   -1    0    0  501  502 -0.00000000000E+00 -0.00000000000E+00 -0.11394614546E+02  0.11394614546E+02  0.00000000000E+00 0.  1.
         25    1    1    2    0    0  0.00000000000E+00  0.00000000000E+00  0.33142084307E+03  0.35421007217E+03  0.12500000000E+03 0.  0.
<mgrwt>
<rscale>  0 0.12500000E+03</rscale>
<asrwt>0</asrwt>
<pdfrwt beam="1">  1       21 0.52740832E-01 0.12500000E+03</pdfrwt>
<pdfrwt beam="2">  1       21 0.17530179E-02 0.12500000E+03</pdfrwt>
<totfact> 0.51229005E+06</totfact>
</mgrwt>
</event>
<event>
 3    1  0.1592492E-001  0.1250000E+03  0.7546771E-02  0.1235069E+00
         21   -1    0    0  502  501  0.00000000000E+00  0.00000000000E+00  0.67687690527E+01  0.67687690527E+01  0.00000000000E+00 0.  1.
         21   -1    0    0  501  502 -0.00000000000E+00 -0.00000000000E+00 -0.57709902193E+03  0.57709902193E+03  0.00000000000E+00 0.  1.
         25    1    1    2    0    0  0.00000000000E+00  0.00000000000E+00 -0.57033025288E+03  0.58386779098E+03  0.12500000000E+03 0.  0.
<mgrwt>
<rscale>  0 0.12500000E+03</rscale>
<asrwt>0</asrwt>
<pdfrwt beam="1">  1       21 0.10413490E-02 0.12500000E+03</pdfrwt>
<pdfrwt beam="2">  1       21 0.88784472E-01 0.12500000E+03</pdfrwt>
<totfact> 0.37832499E+06</totfact>
</mgrwt>
</event>
<event>
 3    1  0.1592492E-001  0.1250000E+03  0.7546771E-02  0.1235069E+00
         21   -1    0    0  502  501  0.00000000000E+00  0.00000000000E+00  0.21417337280E+03  0.21417337280E+03  0.00000000000E+00 0. -1.
         21   -1    0    0  501  502 -0.00000000000E+00 -0.00000000000E+00 -0.18238728507E+02  0.18238728507E+02  0.00000000000E+00 0. -1.
         25    1    1    2    0    0  0.00000000000E+00  0.00000000000E+00  0.19593464430E+03  0.23241210131E+03  0.12500000000E+03 0.  0.
<mgrwt>
<rscale>  0 0.12500000E+03</rscale>
<asrwt>0</asrwt>
<pdfrwt beam="1">  1       21 0.32949748E-01 0.12500000E+03</pdfrwt>
<pdfrwt beam="2">  1       21 0.28059584E-02 0.12500000E+03</pdfrwt>
<totfact> 0.61574750E+06</totfact>
</mgrwt>
</event>
<event>
 3    1  0.1592492E-001  0.1250000E+03  0.7546771E-02  0.1235069E+00
         21   -1    0    0  502  501  0.00000000000E+00  0.00000000000E+00  0.68919833325E+01  0.68919833325E+01  0.00000000000E+00 0. -1.
         21   -1    0    0  501  502 -0.00000000000E+00 -0.00000000000E+00 -0.56678169571E+03  0.56678169571E+03  0.00000000000E+00 0. -1.
         25    1    1    2    0    0  0.00000000000E+00  0.00000000000E+00 -0.55988971238E+03  0.57367367905E+03  0.12500000000E+03 0.  0.
<mgrwt>
<rscale>  0 0.12500000E+03</rscale>
<asrwt>0</asrwt>
<pdfrwt beam="1">  1       21 0.10603050E-02 0.12500000E+03</pdfrwt>
<pdfrwt beam="2">  1       21 0.87197195E-01 0.12500000E+03</pdfrwt>
<totfact> 0.38310925E+06</totfact>
</mgrwt>
</event>
<event>
 3    1  0.1592492E-001  0.1250000E+03  0.7546771E-02  0.1235069E+00
         21   -1    0    0  502  501  0.00000000000E+00  0.00000000000E+00  0.22392180303E+03  0.22392180303E+03  0.00000000000E+00 0.  1.
         21   -1    0    0  501  502 -0.00000000000E+00 -0.00000000000E+00 -0.17444705907E+02  0.17444705907E+02  0.00000000000E+00 0.  1.
         25    1    1    2    0    0  0.00000000000E+00  0.00000000000E+00  0.20647709712E+03  0.24136650894E+03  0.12500000000E+03 0.  0.
<mgrwt>
<rscale>  0 0.12500000E+03</rscale>
<asrwt>0</asrwt>
<pdfrwt beam="1">  1       21 0.34449506E-01 0.12500000E+03</pdfrwt>
<pdfrwt beam="2">  1       21 0.26838011E-02 0.12500000E+03</pdfrwt>
<totfact> 0.60700680E+06</totfact>
</mgrwt>
</event>
<event>
 3    1  0.1592492E-001  0.1250000E+03  0.7546771E-02  0.1235069E+00
         21   -1    0    0  502  501  0.00000000000E+00  0.00000000000E+00  0.99250498205E+02  0.99250498205E+02  0.00000000000E+00 0.  1.
         21   -1    0    0  501  502 -0.00000000000E+00 -0.00000000000E+00 -0.39357485057E+02  0.39357485057E+02  0.00000000000E+00 0.  1.
         25    1    1    2    0    0  0.00000000000E+00  0.00000000000E+00  0.59893013148E+02  0.13860798326E+03  0.12500000000E+03 0.  0.
<mgrwt>
<rscale>  0 0.12500000E+03</rscale>
<asrwt>0</asrwt>
<pdfrwt beam="1">  1       21 0.15269307E-01 0.12500000E+03</pdfrwt>
<pdfrwt beam="2">  1       21 0.60549977E-02 0.12500000E+03</pdfrwt>
<totfact> 0.72221558E+06</totfact>
</mgrwt>
</event>
<event>
 3    1  0.1592492E-001  0.1250000E+03  0.7546771E-02  0.1235069E+00
         21   -1    0    0  502  501  0.00000000000E+00  0.00000000000E+00  0.58258102603E+02  0.58258102603E+02  0.00000000000E+00 0. -1.
         21   -1    0    0  501  502 -0.00000000000E+00 -0.00000000000E+00 -0.67050759044E+02  0.67050759044E+02  0.00000000000E+00 0. -1.
         25    1    1    2    0    0  0.00000000000E+00  0.00000000000E+00 -0.87926564408E+01  0.12530886165E+03  0.12500000000E+03 0.  0.
<mgrwt>
<rscale>  0 0.12500000E+03</rscale>
<asrwt>0</asrwt>
<pdfrwt beam="1">  1       21 0.89627850E-02 0.12500000E+03</pdfrwt>
<pdfrwt beam="2">  1       21 0.10315501E-01 0.12500000E+03</pdfrwt>
<totfact> 0.74001875E+06</totfact>
</mgrwt>
</event>
<event>
 3    1  0.1592492E-001  0.1250000E+03  0.7546771E-02  0.1235069E+00
         21   -1    0    0  502  501  0.00000000000E+00  0.00000000000E+00  0.67593247128E+02  0.67593247128E+02  0.00000000000E+00 0.  1.
         21   -1    0    0  501  502 -0.00000000000E+00 -0.00000000000E+00 -0.57790536274E+02  0.57790536274E+02  0.00000000000E+00 0.  1.
         25    1    1    2    0    0  0.00000000000E+00  0.00000000000E+00  0.98027108539E+01  0.12538378340E+03  0.12500000000E+03 0.  0.
<mgrwt>
<rscale>  0 0.12500000E+03</rscale>
<asrwt>0</asrwt>
<pdfrwt beam="1">  1       21 0.10398961E-01 0.12500000E+03</pdfrwt>
<pdfrwt beam="2">  1       21 0.88908517E-02 0.12500000E+03</pdfrwt>
<totfact> 0.73991692E+06</totfact>
</mgrwt>
</event>
<event>
 3    1  0.1592492E-001  0.1250000E+03  0.7546771E-02  0.1235069E+00
         21   -1    0    0  502  501  0.00000000000E+00  0.00000000000E+00  0.11043628137E+03  0.11043628137E+03  0.00000000000E+00 0.  1.
         21   -1    0    0  501  502 -0.00000000000E+00 -0.00000000000E+00 -0.35371075080E+02  0.35371075080E+02  0.00000000000E+00 0.  1.
         25    1    1    2    0    0  0.00000000000E+00  0.00000000000E+00  0.75065206293E+02  0.14580735645E+03  0.12500000000E+03 0.  0.
<mgrwt>
<rscale>  0 0.12500000E+03</rscale>
<asrwt>0</asrwt>
<pdfrwt beam="1">  1       21 0.16990197E-01 0.12500000E+03</pdfrwt>
<pdfrwt beam="2">  1       21 0.54417039E-02 0.12500000E+03</pdfrwt>
<totfact> 0.71289937E+06</totfact>
</mgrwt>
</event>
<event>
 3    1  0.1592492E-001  0.1250000E+03  0.7546771E-02  0.1235069E+00
         21   -1    0    0  502  501  0.00000000000E+00  0.00000000000E+00  0.11634790551E+03  0.11634790551E+03  0.00000000000E+00 0.  1.
         21   -1    0    0  501  502 -0.00000000000E+00 -0.00000000000E+00 -0.33573874689E+02  0.33573874689E+02  0.00000000000E+00 0.  1.
         25    1    1    2    0    0  0.00000000000E+00  0.00000000000E+00  0.82774030822E+02  0.14992178020E+03  0.12500000000E+03 0.  0.
<mgrwt>
<rscale>  0 0.12500000E+03</rscale>
<asrwt>0</asrwt>
<pdfrwt beam="1">  1       21 0.17899678E-01 0.12500000E+03</pdfrwt>
<pdfrwt beam="2">  1       21 0.51652116E-02 0.12500000E+03</pdfrwt>
<totfact> 0.70769028E+06</totfact>
</mgrwt>
</event>
<event>
 3    1  0.1592492E-001  0.1250000E+03  0.7546771E-02  0.1235069E+00
         21   -1    0    0  502  501  0.00000000000E+00  0.00000000000E+00  0.63945558458E+03  0.63945558458E+03  0.00000000000E+00 0. -1.
         21   -1    0    0  501  502 -0.00000000000E+00 -0.00000000000E+00 -0.61087119953E+01  0.61087119953E+01  0.00000000000E+00 0. -1.
         25    1    1    2    0    0  0.00000000000E+00  0.00000000000E+00  0.63334687258E+03  0.64556429658E+03  0.12500000000E+03 0.  0.
<mgrwt>
<rscale>  0 0.12500000E+03</rscale>
<asrwt>0</asrwt>
<pdfrwt beam="1">  1       21 0.98377729E-01 0.12500000E+03</pdfrwt>
<pdfrwt beam="2">  1       21 0.93980235E-03 0.12500000E+03</pdfrwt>
<totfact> 0.35109699E+06</totfact>
</mgrwt>
</event>
<event>
 3    1  0.1592492E-001  0.1250000E+03  0.7546771E-02  0.1235069E+00
         21   -1    0    0  502  501  0.00000000000E+00  0.00000000000E+00  0.23400255469E+03  0.23400255469E+03  0.00000000000E+00 0.  1.
         21   -1    0    0  501  502 -0.00000000000E+00 -0.00000000000E+00 -0.16693193821E+02  0.16693193821E+02  0.00000000000E+00 0.  1.
         25    1    1    2    0    0  0.00000000000E+00  0.00000000000E+00  0.21730936087E+03  0.25069574851E+03  0.12500000000E+03 0.  0.
<mgrwt>
<rscale>  0 0.12500000E+03</rscale>
<asrwt>0</asrwt>
<pdfrwt beam="1">  1       21 0.36000391E-01 0.12500000E+03</pdfrwt>
<pdfrwt beam="2">  1       21 0.25681838E-02 0.12500000E+03</pdfrwt>
<totfact> 0.59812748E+06</totfact>
</mgrwt>
</event>
<event>
 3    1  0.1592492E-001  0.1250000E+03  0.7546771E-02  0.1235069E+00
         21   -1    0    0  502  501  0.00000000000E+00  0.00000000000E+00  0.31247865008E+03  0.31247865008E+03  0.00000000000E+00 0.  1.
         21   -1    0    0  501  502 -0.00000000000E+00 -0.00000000000E+00 -0.12500854055E+02  0.12500854055E+02  0.00000000000E+00 0.  1.
         25    1    1    2    0    0  0.00000000000E+00  0.00000000000E+00  0.29997779602E+03  0.32497950413E+03  0.12500000000E+03 0.  0.
<mgrwt>
<rscale>  0 0.12500000E+03</rscale>
<asrwt>0</asrwt>
<pdfrwt beam="1">  1       21 0.48073633E-01 0.12500000E+03</pdfrwt>
<pdfrwt beam="2">  1       21 0.19232086E-02 0.12500000E+03</pdfrwt>
<totfact> 0.53441089E+06</totfact>
</mgrwt>
</event>
<event>
 3    1  0.1592492E-001  0.1250000E+03  0.7546771E-02  0.1235069E+00
         21   -1    0    0  502  501  0.00000000000E+00  0.00000000000E+00  0.30648104558E+03  0.30648104558E+03  0.00000000000E+00 0.  1.
         21   -1    0    0  501  502 -0.00000000000E+00 -0.00000000000E+00 -0.12745486405E+02  0.12745486405E+02  0.00000000000E+00 0.  1.
         25    1    1    2    0    0  0.00000000000E+00  0.00000000000E+00  0.29373555918E+03  0.31922653199E+03  0.12500000000E+03 0.  0.
<mgrwt>
<rscale>  0 0.12500000E+03</rscale>
<asrwt>0</asrwt>
<pdfrwt beam="1">  1       21 0.47150924E-01 0.12500000E+03</pdfrwt>
<pdfrwt beam="2">  1       21 0.19608443E-02 0.12500000E+03</pdfrwt>
<totfact> 0.53894696E+06</totfact>
</mgrwt>
</event>
<event>
 3    1  0.1592492E-001  0.1250000E+03  0.7546771E-02  0.1235069E+00
         21   -1    0    0  502  501  0.00000000000E+00  0.00000000000E+00  0.13359945062E+03  0.13359945062E+03  0.00000000000E+00 0. -1.
         21   -1    0    0  501  502 -0.00000000000E+00 -0.00000000000E+00 -0.29238518436E+02  0.29238518436E+02  0.00000000000E+00 0. -1.
         25    1    1    2    0    0  0.00000000000E+00  0.00000000000E+00  0.10436093219E+03  0.16283796906E+03  0.12500000000E+03 0.  0.
<mgrwt>
<rscale>  0 0.12500000E+03</rscale>
<asrwt>0</asrwt>
<pdfrwt beam="1">  1       21 0.20553761E-01 0.12500000E+03</pdfrwt>
<pdfrwt beam="2">  1       21 0.44982337E-02 0.12500000E+03</pdfrwt>
<totfact> 0.69174379E+06</totfact>
</mgrwt>
</event>
<event>
 3    1  0.1592492E-001  0.1250000E+03  0.7546771E-02  0.1235069E+00
         21   -1    0    0  502  501  0.00000000000E+00  0.00000000000E+00  0.34935982327E+02  0.34935982327E+02  0.00000000000E+00 0. -1.
         21   -1    0    0  501  502 -0.00000000000E+00 -0.00000000000E+00 -0.11181165491E+03  0.11181165491E+03  0.00000000000E+00 0. -1.
         25    1    1    2    0    0  0.00000000000E+00  0.00000000000E+00 -0.76875672586E+02  0.14674763724E+03  0.12500000000E+03 0.  0.
<mgrwt>
<rscale>  0 0.12500000E+03</rscale>
<asrwt>0</asrwt>
<pdfrwt beam="1">  1       21 0.53747667E-02 0.12500000E+03</pdfrwt>
<pdfrwt beam="2">  1       21 0.17201793E-01 0.12500000E+03</pdfrwt>
<totfact> 0.71170189E+06</totfact>
</mgrwt>
</event>
<event>
 3    1  0.1592492E-001  0.1250000E+03  0.7546771E-02  0.1235069E+00
         21   -1    0    0  502  501  0.00000000000E+00  0.00000000000E+00  0.87566270002E+01  0.87566270002E+01  0.00000000000E+00 0.  1.
         21   -1    0    0  501  502 -0.00000000000E+00 -0.00000000000E+00 -0.44609071506E+03  0.44609071506E+03  0.00000000000E+00 0.  1.
         25    1    1    2    0    0  0.00000000000E+00  0.00000000000E+00 -0.43733408806E+03  0.45484734206E+03  0.12500000000E+03 0.  0.
<mgrwt>
<rscale>  0 0.12500000E+03</rscale>
<asrwt>0</asrwt>
<pdfrwt beam="1">  1       21 0.13471732E-02 0.12500000E+03</pdfrwt>
<pdfrwt beam="2">  1       21 0.68629348E-01 0.12500000E+03</pdfrwt>
<totfact> 0.44603626E+06</totfact>
</mgrwt>
</event>
<event>
 3    1  0.1592492E-001  0.1250000E+03  0.7546771E-02  0.1235069E+00
         21   -1    0    0  502  501  0.00000000000E+00  0.00000000000E+00  0.14902280443E+01  0.14902280443E+01  0.00000000000E+00 0.  1.
         21   -1    0    0  501  502 -0.00000000000E+00 -0.00000000000E+00 -0.26212431144E+04  0.26212431144E+04  0.00000000000E+00 0.  1.
         25    1    1    2    0    0  0.00000000000E+00  0.00000000000E+00 -0.26197528863E+04  0.26227333424E+04  0.12500000000E+03 0.  0.
<mgrwt>
<rscale>  0 0.12500000E+03</rscale>
<asrwt>0</asrwt>
<pdfrwt beam="1">  1       21 0.22926588E-03 0.12500000E+03</pdfrwt>
<pdfrwt beam="2">  1       21 0.40326813E+00 0.12500000E+03</pdfrwt>
<totfact> 0.33241172E+05</totfact>
</mgrwt>
</event>
<event>
 3    1  0.1592492E-001  0.1250000E+03  0.7546771E-02  0.1235069E+00
         21   -1    0    0  502  501  0.00000000000E+00  0.00000000000E+00  0.91100841548E+03  0.91100841548E+03  0.00000000000E+00 0. -1.
         21   -1    0    0  501  502 -0.00000000000E+00 -0.00000000000E+00 -0.42878308626E+01  0.42878308626E+01  0.00000000000E+00 0. -1.
         25    1    1    2    0    0  0.00000000000E+00  0.00000000000E+00  0.90672058462E+03  0.91529624634E+03  0.12500000000E+03 0.  0.
<mgrwt>
<rscale>  0 0.12500000E+03</rscale>
<asrwt>0</asrwt>
<pdfrwt beam="1">  1       21 0.14015499E+00 0.12500000E+03</pdfrwt>
<pdfrwt beam="2">  1       21 0.65966701E-03 0.12500000E+03</pdfrwt>
<totfact> 0.25864086E+06</totfact>
</mgrwt>
</event>
<event>
 3    1  0.1592492E-001  0.1250000E+03  0.7546771E-02  0.1235069E+00
         21   -1    0    0  502  501  0.00000000000E+00  0.00000000000E+00  0.77996687065E+02  0.77996687065E+02  0.00000000000E+00 0.  1.
         21   -1    0    0  501  502 -0.00000000000E+00 -0.00000000000E+00 -0.50082255375E+02  0.50082255375E+02  0.00000000000E+00 0.  1.
         25    1    1    2    0    0  0.00000000000E+00  0.00000000000E+00  0.27914431689E+02  0.12807894244E+03  0.12500000000E+03 0.  0.
<mgrwt>
<rscale>  0 0.12500000E+03</rscale>
<asrwt>0</asrwt>
<pdfrwt beam="1">  1       21 0.11999490E-01 0.12500000E+03</pdfrwt>
<pdfrwt beam="2">  1       21 0.77049623E-02 0.12500000E+03</pdfrwt>
<totfact> 0.73622898E+06</totfact>
</mgrwt>
</event>
<event>
 3    1  0.1592492E-001  0.1250000E+03  0.7546771E-02  0.1235069E+00
         21   -1    0    0  502  501  0.00000000000E+00  0.00000000000E+00  0.95519556805E+03  0.95519556805E+03  0.00000000000E+00 0. -1.
         21   -1    0    0  501  502 -0.00000000000E+00 -0.00000000000E+00 -0.40894766796E+01  0.40894766796E+01  0.00000000000E+00 0. -1.
         25    1    1    2    0    0  0.00000000000E+00  0.00000000000E+00  0.95110609137E+03  0.95928504473E+03  0.12500000000E+03 0.  0.
<mgrwt>
<rscale>  0 0.12500000E+03</rscale>
<asrwt>0</asrwt>
<pdfrwt beam="1">  1       21 0.14695299E+00 0.12500000E+03</pdfrwt>
<pdfrwt beam="2">  1       21 0.62915102E-03 0.12500000E+03</pdfrwt>
<totfact> 0.24664476E+06</totfact>
</mgrwt>
</event>
<event>
 3    1  0.1592492E-001  0.1250000E+03  0.7546771E-02  0.1235069E+00
         21   -1    0    0  502  501  0.00000000000E+00  0.00000000000E+00  0.49934874996E+02  0.49934874996E+02  0.00000000000E+00 0. -1.
         21   -1    0    0  501  502 -0.00000000000E+00 -0.00000000000E+00 -0.78226890531E+02  0.78226890531E+02  0.00000000000E+00 0. -1.
         25    1    1    2    0    0  0.00000000000E+00  0.00000000000E+00 -0.28292015536E+02  0.12816176553E+03  0.12500000000E+03 0.  0.
<mgrwt>
<rscale>  0 0.12500000E+03</rscale>
<asrwt>0</asrwt>
<pdfrwt beam="1">  1       21 0.76822884E-02 0.12500000E+03</pdfrwt>
<pdfrwt beam="2">  1       21 0.12034906E-01 0.12500000E+03</pdfrwt>
<totfact> 0.73611718E+06</totfact>
</mgrwt>
</event>
<event>
 3    1  0.1592492E-001  0.1250000E+03  0.7546771E-02  0.1235069E+00
         21   -1    0    0  502  501  0.00000000000E+00  0.00000000000E+00  0.11694492548E+03  0.11694492548E+03  0.00000000000E+00 0.  1.
         21   -1    0    0  501  502 -0.00000000000E+00 -0.00000000000E+00 -0.33402475431E+02  0.33402475431E+02  0.00000000000E+00 0.  1.
         25    1    1    2    0    0  0.00000000000E+00  0.00000000000E+00  0.83542450044E+02  0.15034740091E+03  0.12500000000E+03 0.  0.
<mgrwt>
<rscale>  0 0.12500000E+03</rscale>
<asrwt>0</asrwt>
<pdfrwt beam="1">  1       21 0.17991527E-01 0.12500000E+03</pdfrwt>
<pdfrwt beam="2">  1       21 0.51388424E-02 0.12500000E+03</pdfrwt>
<totfact> 0.70715589E+06</totfact>
</mgrwt>
</event>
<event>
 3    1  0.1592492E-001  0.1250000E+03  0.7546771E-02  0.1235069E+00
         21   -1    0    0  502  501  0.00000000000E+00  0.00000000000E+00  0.27581843353E+02  0.27581843353E+02  0.00000000000E+00 0. -1.
         21   -1    0    0  501  502 -0.00000000000E+00 -0.00000000000E+00 -0.14162396436E+03  0.14162396436E+03  0.00000000000E+00 0. -1.
         25    1    1    2    0    0  0.00000000000E+00  0.00000000000E+00 -0.11404212100E+03  0.16920580771E+03  0.12500000000E+03 0.  0.
<mgrwt>
<rscale>  0 0.12500000E+03</rscale>
<asrwt>0</asrwt>
<pdfrwt beam="1">  1       21 0.42433606E-02 0.12500000E+03</pdfrwt>
<pdfrwt beam="2">  1       21 0.21788302E-01 0.12500000E+03</pdfrwt>
<totfact> 0.68411774E+06</totfact>
</mgrwt>
</event>
<event>
 3    1  0.1592492E-001  0.1250000E+03  0.7546771E-02  0.1235069E+00
         21   -1    0    0  502  501  0.00000000000E+00  0.00000000000E+00  0.14333825796E+03  0.14333825796E+03  0.00000000000E+00 0.  1.
         21   -1    0    0  501  502 -0.00000000000E+00 -0.00000000000E+00 -0.27251970658E+02  0.27251970658E+02  0.00000000000E+00 0.  1.
         25    1    1    2    0    0  0.00000000000E+00  0.00000000000E+00  0.11608628730E+03  0.17059022862E+03  0.12500000000E+03 0.  0.
<mgrwt>
<rscale>  0 0.12500000E+03</rscale>
<asrwt>0</asrwt>
<pdfrwt beam="1">  1       21 0.22052039E-01 0.12500000E+03</pdfrwt>
<pdfrwt beam="2">  1       21 0.41926110E-02 0.12500000E+03</pdfrwt>
<totfact> 0.68247736E+06</totfact>
</mgrwt>
</event>
<event>
 3    1  0.1592492E-001  0.1250000E+03  0.7546771E-02  0.1235069E+00
         21   -1    0    0  502  501  0.00000000000E+00  0.00000000000E+00  0.10425672799E+04  0.10425672799E+04  0.00000000000E+00 0.  1.
         21   -1    0    0  501  502 -0.00000000000E+00 -0.00000000000E+00 -0.37467605932E+01  0.37467605932E+01  0.00000000000E+00 0.  1.
         25    1    1    2    0    0  0.00000000000E+00  0.00000000000E+00  0.10388205193E+04  0.10463140405E+04  0.12500000000E+03 0.  0.
<mgrwt>
<rscale>  0 0.12500000E+03</rscale>
<asrwt>0</asrwt>
<pdfrwt beam="1">  1       21 0.16039473E+00 0.12500000E+03</pdfrwt>
<pdfrwt beam="2">  1       21 0.57642554E-03 0.12500000E+03</pdfrwt>
<totfact> 0.22486573E+06</totfact>
</mgrwt>
</event>
<event>
 3    1  0.1592492E-001  0.1250000E+03  0.7546771E-02  0.1235069E+00
         21   -1    0    0  502  501  0.00000000000E+00  0.00000000000E+00  0.20181254057E+03  0.20181254057E+03  0.00000000000E+00 0.  1.
         21   -1    0    0  501  502 -0.00000000000E+00 -0.00000000000E+00 -0.19355833830E+02  0.19355833830E+02  0.00000000000E+00 0.  1.
         25    1    1    2    0    0  0.00000000000E+00  0.00000000000E+00  0.18245670674E+03  0.22116837440E+03  0.12500000000E+03 0.  0.
<mgrwt>
<rscale>  0 0.12500000E+03</rscale>
<asrwt>0</asrwt>
<pdfrwt beam="1">  1       21 0.31048082E-01 0.12500000E+03</pdfrwt>
<pdfrwt beam="2">  1       21 0.29778207E-02 0.12500000E+03</pdfrwt>
<totfact> 0.62703312E+06</totfact>
</mgrwt>
</event>
<event>
 3    1  0.1592492E-001  0.1250000E+03  0.7546771E-02  0.1235069E+00
         21   -1    0    0  502  501  0.00000000000E+00  0.00000000000E+00  0.35242814262E+03  0.35242814262E+03  0.00000000000E+00 0.  1.
         21   -1    0    0  501  502 -0.00000000000E+00 -0.00000000000E+00 -0.11083819728E+02  0.11083819728E+02  0.00000000000E+00 0.  1.
         25    1    1    2    0    0  0.00000000000E+00  0.00000000000E+00  0.34134432289E+03  0.36351196235E+03  0.12500000000E+03 0.  0.
<mgrwt>
<rscale>  0 0.12500000E+03</rscale>
<asrwt>0</asrwt>
<pdfrwt beam="1">  1       21 0.54219706E-01 0.12500000E+03</pdfrwt>
<pdfrwt beam="2">  1       21 0.17052033E-02 0.12500000E+03</pdfrwt>
<totfact> 0.50555759E+06</totfact>
</mgrwt>
</event>
<event>
 3    1  0.1592492E-001  0.1250000E+03  0.7546771E-02  0.1235069E+00
         21   -1    0    0  502  501  0.00000000000E+00  0.00000000000E+00  0.35085819345E+02  0.35085819345E+02  0.00000000000E+00 0. -1.
         21   -1    0    0  501  502 -0.00000000000E+00 -0.00000000000E+00 -0.11133415360E+03  0.11133415360E+03  0.00000000000E+00 0. -1.
         25    1    1    2    0    0  0.00000000000E+00  0.00000000000E+00 -0.76248334250E+02  0.14641997294E+03  0.12500000000E+03 0.  0.
<mgrwt>
<rscale>  0 0.12500000E+03</rscale>
<asrwt>0</asrwt>
<pdfrwt beam="1">  1       21 0.53978185E-02 0.12500000E+03</pdfrwt>
<pdfrwt beam="2">  1       21 0.17128331E-01 0.12500000E+03</pdfrwt>
<totfact> 0.71211870E+06</totfact>
</mgrwt>
</event>
<event>
 3    1  0.1592492E-001  0.1250000E+03  0.7546771E-02  0.1235069E+00
         21   -1    0    0  502  501  0.00000000000E+00  0.00000000000E+00  0.56322383472E+03  0.56322383472E+03  0.00000000000E+00 0.  1.
         21   -1    0    0  501  502 -0.00000000000E+00 -0.00000000000E+00 -0.69355196978E+01  0.69355196978E+01  0.00000000000E+00 0.  1.
         25    1    1    2    0    0  0.00000000000E+00  0.00000000000E+00  0.55628831502E+03  0.57015935442E+03  0.12500000000E+03 0.  0.
<mgrwt>
<rscale>  0 0.12500000E+03</rscale>
<asrwt>0</asrwt>
<pdfrwt beam="1">  1       21 0.86649785E-01 0.12500000E+03</pdfrwt>
<pdfrwt beam="2">  1       21 0.10670035E-02 0.12500000E+03</pdfrwt>
<totfact> 0.38477883E+06</totfact>
</mgrwt>
</event>
<event>
 3    1  0.1592492E-001  0.1250000E+03  0.7546771E-02  0.1235069E+00
         21   -1    0    0  502  501  0.00000000000E+00  0.00000000000E+00  0.35944326200E+03  0.35944326200E+03  0.00000000000E+00 0. -1.
         21   -1    0    0  501  502 -0.00000000000E+00 -0.00000000000E+00 -0.10867500974E+02  0.10867500974E+02  0.00000000000E+00 0. -1.
         25    1    1    2    0    0  0.00000000000E+00  0.00000000000E+00  0.34857576103E+03  0.37031076297E+03  0.12500000000E+03 0.  0.
<mgrwt>
<rscale>  0 0.12500000E+03</rscale>
<asrwt>0</asrwt>
<pdfrwt beam="1">  1       21 0.55298954E-01 0.12500000E+03</pdfrwt>
<pdfrwt beam="2">  1       21 0.16719235E-02 0.12500000E+03</pdfrwt>
<totfact> 0.50072525E+06</totfact>
</mgrwt>
</event>
<event>
 3    1  0.1592492E-001  0.1250000E+03  0.7546771E-02  0.1235069E+00
         21   -1    0    0  502  501  0.00000000000E+00  0.00000000000E+00  0.10601247886E+03  0.10601247886E+03  0.00000000000E+00 0. -1.
         21   -1    0    0  501  502 -0.00000000000E+00 -0.00000000000E+00 -0.36847077269E+02  0.36847077269E+02  0.00000000000E+00 0. -1.
         25    1    1    2    0    0  0.00000000000E+00  0.00000000000E+00  0.69165401592E+02  0.14285955613E+03  0.12500000000E+03 0.  0.
<mgrwt>
<rscale>  0 0.12500000E+03</rscale>
<asrwt>0</asrwt>
<pdfrwt beam="1">  1       21 0.16309612E-01 0.12500000E+03</pdfrwt>
<pdfrwt beam="2">  1       21 0.56687812E-02 0.12500000E+03</pdfrwt>
<totfact> 0.71668163E+06</totfact>
</mgrwt>
</event>
<event>
 3    1  0.1592492E-001  0.1250000E+03  0.7546771E-02  0.1235069E+00
         21   -1    0    0  502  501  0.00000000000E+00  0.00000000000E+00  0.62747362041E+03  0.62747362041E+03  0.00000000000E+00 0. -1.
         21   -1    0    0  501  502 -0.00000000000E+00 -0.00000000000E+00 -0.62253613107E+01  0.62253613107E+01  0.00000000000E+00 0. -1.
         25    1    1    2    0    0  0.00000000000E+00  0.00000000000E+00  0.62124825910E+03  0.63369898172E+03  0.12500000000E+03 0.  0.
<mgrwt>
<rscale>  0 0.12500000E+03</rscale>
<asrwt>0</asrwt>
<pdfrwt beam="1">  1       21 0.96534354E-01 0.12500000E+03</pdfrwt>
<pdfrwt beam="2">  1       21 0.95774839E-03 0.12500000E+03</pdfrwt>
<totfact> 0.35611673E+06</totfact>
</mgrwt>
</event>
<event>
 3    1  0.1592492E-001  0.1250000E+03  0.7546771E-02  0.1235069E+00
         21   -1    0    0  502  501  0.00000000000E+00  0.00000000000E+00  0.23230073157E+02  0.23230073157E+02  0.00000000000E+00 0. -1.
         21   -1    0    0  501  502 -0.00000000000E+00 -0.00000000000E+00 -0.16815487294E+03  0.16815487294E+03  0.00000000000E+00 0. -1.
         25    1    1    2    0    0  0.00000000000E+00  0.00000000000E+00 -0.14492479978E+03  0.19138494610E+03  0.12500000000E+03 0.  0.
<mgrwt>
<rscale>  0 0.12500000E+03</rscale>
<asrwt>0</asrwt>
<pdfrwt beam="1">  1       21 0.35738574E-02 0.12500000E+03</pdfrwt>
<pdfrwt beam="2">  1       21 0.25869981E-01 0.12500000E+03</pdfrwt>
<totfact> 0.65868870E+06</totfact>
</mgrwt>
</event>
<event>
 3    1  0.1592492E-001  0.1250000E+03  0.7546771E-02  0.1235069E+00
         21   -1    0    0  502  501  0.00000000000E+00  0.00000000000E+00  0.15332548797E+03  0.15332548797E+03  0.00000000000E+00 0.  1.
         21   -1    0    0  501  502 -0.00000000000E+00 -0.00000000000E+00 -0.25476847012E+02  0.25476847012E+02  0.00000000000E+00 0.  1.
         25    1    1    2    0    0  0.00000000000E+00  0.00000000000E+00  0.12784864096E+03  0.17880233498E+03  0.12500000000E+03 0.  0.
<mgrwt>
<rscale>  0 0.12500000E+03</rscale>
<asrwt>0</asrwt>
<pdfrwt beam="1">  1       21 0.23588536E-01 0.12500000E+03</pdfrwt>
<pdfrwt beam="2">  1       21 0.39195150E-02 0.12500000E+03</pdfrwt>
<totfact> 0.67289195E+06</totfact>
</mgrwt>
</event>
<event>
 3    1  0.1592492E-001  0.1250000E+03  0.7546771E-02  0.1235069E+00
         21   -1    0    0  502  501  0.00000000000E+00  0.00000000000E+00  0.44743347694E+02  0.44743347694E+02  0.00000000000E+00 0. -1.
         21   -1    0    0  501  502 -0.00000000000E+00 -0.00000000000E+00 -0.87303480882E+02  0.87303480882E+02  0.00000000000E+00 0. -1.
         25    1    1    2    0    0  0.00000000000E+00  0.00000000000E+00 -0.42560133188E+02  0.13204682858E+03  0.12500000000E+03 0.  0.
<mgrwt>
<rscale>  0 0.12500000E+03</rscale>
<asrwt>0</asrwt>
<pdfrwt beam="1">  1       21 0.68835919E-02 0.12500000E+03</pdfrwt>
<pdfrwt beam="2">  1       21 0.13431305E-01 0.12500000E+03</pdfrwt>
<totfact> 0.73089948E+06</totfact>
</mgrwt>
</event>
<event>
 3    1  0.1592492E-001  0.1250000E+03  0.7546771E-02  0.1235069E+00
         21   -1    0    0  502  501  0.00000000000E+00  0.00000000000E+00  0.18281207795E+02  0.18281207795E+02  0.00000000000E+00 0. -1.
         21   -1    0    0  501  502 -0.00000000000E+00 -0.00000000000E+00 -0.21367570697E+03  0.21367570697E+03  0.00000000000E+00 0. -1.
         25    1    1    2    0    0  0.00000000000E+00  0.00000000000E+00 -0.19539449918E+03  0.23195691477E+03  0.12500000000E+03 0.  0.
<mgrwt>
<rscale>  0 0.12500000E+03</rscale>
<asrwt>0</asrwt>
<pdfrwt beam="1">  1       21 0.28124935E-02 0.12500000E+03</pdfrwt>
<pdfrwt beam="2">  1       21 0.32873186E-01 0.12500000E+03</pdfrwt>
<totfact> 0.61619769E+06</totfact>
</mgrwt>
</event>
<event>
 3    1  0.1592492E-001  0.1250000E+03  0.7546771E-02  0.1235069E+00
         21   -1    0    0  502  501  0.00000000000E+00  0.00000000000E+00  0.10394486165E+02  0.10394486165E+02  0.00000000000E+00 0. -1.
         21   -1    0    0  501  502 -0.00000000000E+00 -0.00000000000E+00 -0.37580020194E+03  0.37580020194E+03  0.00000000000E+00 0. -1.
         25    1    1    2    0    0  0.00000000000E+00  0.00000000000E+00 -0.36540571577E+03  0.38619468810E+03  0.12500000000E+03 0.  0.
<mgrwt>
<rscale>  0 0.12500000E+03</rscale>
<asrwt>0</asrwt>
<pdfrwt beam="1">  1       21 0.15991521E-02 0.12500000E+03</pdfrwt>
<pdfrwt beam="2">  1       21 0.57815403E-01 0.12500000E+03</pdfrwt>
<totfact> 0.48970732E+06</totfact>
</mgrwt>
</event>
<event>
 3    1  0.1592492E-001  0.1250000E+03  0.7546771E-02  0.1235069E+00
         21   -1    0    0  502  501  0.00000000000E+00  0.00000000000E+00  0.95960320454E+01  0.95960320454E+01  0.00000000000E+00 0. -1.
         21   -1    0    0  501  502 -0.00000000000E+00 -0.00000000000E+00 -0.40706929505E+03  0.40706929505E+03  0.00000000000E+00 0. -1.
         25    1    1    2    0    0  0.00000000000E+00  0.00000000000E+00 -0.39747326300E+03  0.41666532710E+03  0.12500000000E+03 0.  0.
<mgrwt>
<rscale>  0 0.12500000E+03</rscale>
<asrwt>0</asrwt>
<pdfrwt beam="1">  1       21 0.14763123E-02 0.12500000E+03</pdfrwt>
<pdfrwt beam="2">  1       21 0.62626057E-01 0.12500000E+03</pdfrwt>
<totfact> 0.46955247E+06</totfact>
</mgrwt>
</event>
<event>
 3    1  0.1592492E-001  0.1250000E+03  0.7546771E-02  0.1235069E+00
         21   -1    0    0  502  501  0.00000000000E+00  0.00000000000E+00  0.44186116925E+02  0.44186116925E+02  0.00000000000E+00 0. -1.
         21   -1    0    0  501  502 -0.00000000000E+00 -0.00000000000E+00 -0.88404464384E+02  0.88404464384E+02  0.00000000000E+00 0. -1.
         25    1    1    2    0    0  0.00000000000E+00  0.00000000000E+00 -0.44218347459E+02  0.13259058131E+03  0.12500000000E+03 0.  0.
<mgrwt>
<rscale>  0 0.12500000E+03</rscale>
<asrwt>0</asrwt>
<pdfrwt beam="1">  1       21 0.67978643E-02 0.12500000E+03</pdfrwt>
<pdfrwt beam="2">  1       21 0.13600687E-01 0.12500000E+03</pdfrwt>
<totfact> 0.73017119E+06</totfact>
</mgrwt>
</event>
<event>
 3    1  0.1592492E-001  0.1250000E+03  0.7546771E-02  0.1235069E+00
         21   -1    0    0  502  501  0.00000000000E+00  0.00000000000E+00  0.27335158761E+02  0.27335158761E+02  0.00000000000E+00 0. -1.
         21   -1    0    0  501  502 -0.00000000000E+00 -0.00000000000E+00 -0.14290204181E+03  0.14290204181E+03  0.00000000000E+00 0. -1.
         25    1    1    2    0    0  0.00000000000E+00  0.00000000000E+00 -0.11556688305E+03  0.17023720057E+03  0.12500000000E+03 0.  0.
<mgrwt>
<rscale>  0 0.12500000E+03</rscale>
<asrwt>0</asrwt>
<pdfrwt beam="1">  1       21 0.42054091E-02 0.12500000E+03</pdfrwt>
<pdfrwt beam="2">  1       21 0.21984929E-01 0.12500000E+03</pdfrwt>
<totfact> 0.68289528E+06</totfact>
</mgrwt>
</event>
<event>
 3    1  0.1592492E-001  0.1250000E+03  0.7546771E-02  0.1235069E+00
         21   -1    0    0  502  501  0.00000000000E+00  0.00000000000E+00  0.28502407508E+01  0.28502407508E+01  0.00000000000E+00 0. -1.
         21   -1    0    0  501  502 -0.00000000000E+00 -0.00000000000E+00 -0.13704982637E+04  0.13704982637E+04  0.00000000000E+00 0. -1.
         25    1    1    2    0    0  0.00000000000E+00  0.00000000000E+00 -0.13676480229E+04  0.13733485044E+04  0.12500000000E+03 0.  0.
<mgrwt>
<rscale>  0 0.12500000E+03</rscale>
<asrwt>0</asrwt>
<pdfrwt beam="1">  1       21 0.43849704E-03 0.12500000E+03</pdfrwt>
<pdfrwt beam="2">  1       21 0.21084663E+00 0.12500000E+03</pdfrwt>
<totfact> 0.15984235E+06</totfact>
</mgrwt>
</event>
<event>
 3    1  0.1592492E-001  0.1250000E+03  0.7546771E-02  0.1235069E+00
         21   -1    0    0  502  501  0.00000000000E+00  0.00000000000E+00  0.26500165363E+01  0.26500165363E+01  0.00000000000E+00 0.  1.
         21   -1    0    0  501  502 -0.00000000000E+00 -0.00000000000E+00 -0.14740474056E+04  0.14740474056E+04  0.00000000000E+00 0.  1.
         25    1    1    2    0    0  0.00000000000E+00  0.00000000000E+00 -0.14713973890E+04  0.14766974221E+04  0.12500000000E+03 0.  0.
<mgrwt>
<rscale>  0 0.12500000E+03</rscale>
<asrwt>0</asrwt>
<pdfrwt beam="1">  1       21 0.40769382E-03 0.12500000E+03</pdfrwt>
<pdfrwt beam="2">  1       21 0.22677710E+00 0.12500000E+03</pdfrwt>
<totfact> 0.14342035E+06</totfact>
</mgrwt>
</event>
<event>
 3    1  0.1592492E-001  0.1250000E+03  0.7546771E-02  0.1235069E+00
         21   -1    0    0  502  501  0.00000000000E+00  0.00000000000E+00  0.49748818998E+03  0.49748818998E+03  0.00000000000E+00 0.  1.
         21   -1    0    0  501  502 -0.00000000000E+00 -0.00000000000E+00 -0.78519451892E+01  0.78519451892E+01  0.00000000000E+00 0.  1.
         25    1    1    2    0    0  0.00000000000E+00  0.00000000000E+00  0.48963624479E+03  0.50534013517E+03  0.12500000000E+03 0.  0.
<mgrwt>
<rscale>  0 0.12500000E+03</rscale>
<asrwt>0</asrwt>
<pdfrwt beam="1">  1       21 0.76536620E-01 0.12500000E+03</pdfrwt>
<pdfrwt beam="2">  1       21 0.12079920E-02 0.12500000E+03</pdfrwt>
<totfact> 0.41755944E+06</totfact>
</mgrwt>
</event>
<event>
 3    1  0.1592492E-001  0.1250000E+03  0.7546771E-02  0.1235069E+00
         21   -1    0    0  502  501  0.00000000000E+00  0.00000000000E+00  0.42769910462E+02  0.42769910462E+02  0.00000000000E+00 0.  1.
         21   -1    0    0  501  502 -0.00000000000E+00 -0.00000000000E+00 -0.91331732002E+02  0.91331732002E+02  0.00000000000E+00 0.  1.
         25    1    1    2    0    0  0.00000000000E+00  0.00000000000E+00 -0.48561821540E+02  0.13410164246E+03  0.12500000000E+03 0.  0.
<mgrwt>
<rscale>  0 0.12500000E+03</rscale>
<asrwt>0</asrwt>
<pdfrwt beam="1">  1       21 0.65799862E-02 0.12500000E+03</pdfrwt>
<pdfrwt beam="2">  1       21 0.14051036E-01 0.12500000E+03</pdfrwt>
<totfact> 0.72815642E+06</totfact>
</mgrwt>
</event>
<event>
 3    1  0.1592492E-001  0.1250000E+03  0.7546771E-02  0.1235069E+00
         21   -1    0    0  502  501  0.00000000000E+00  0.00000000000E+00  0.51327750386E+02  0.51327750386E+02  0.00000000000E+00 0.  1.
         21   -1    0    0  501  502 -0.00000000000E+00 -0.00000000000E+00 -0.76104056200E+02  0.76104056200E+02  0.00000000000E+00 0.  1.
         25    1    1    2    0    0  0.00000000000E+00  0.00000000000E+00 -0.24776305814E+02  0.12743180659E+03  0.12500000000E+03 0.  0.
<mgrwt>
<rscale>  0 0.12500000E+03</rscale>
<asrwt>0</asrwt>
<pdfrwt beam="1">  1       21 0.78965771E-02 0.12500000E+03</pdfrwt>
<pdfrwt beam="2">  1       21 0.11708316E-01 0.12500000E+03</pdfrwt>
<totfact> 0.73710465E+06</totfact>
</mgrwt>
</event>
<event>
 3    1  0.1592492E-001  0.1250000E+03  0.7546771E-02  0.1235069E+00
         21   -1    0    0  502  501  0.00000000000E+00  0.00000000000E+00  0.44169994444E+02  0.44169994444E+02  0.00000000000E+00 0.  1.
         21   -1    0    0  501  502 -0.00000000000E+00 -0.00000000000E+00 -0.88436732882E+02  0.88436732882E+02  0.00000000000E+00 0.  1.
         25    1    1    2    0    0  0.00000000000E+00  0.00000000000E+00 -0.44266738438E+02  0.13260672733E+03  0.12500000000E+03 0.  0.
<mgrwt>
<rscale>  0 0.12500000E+03</rscale>
<asrwt>0</asrwt>
<pdfrwt beam="1">  1       21 0.67953838E-02 0.12500000E+03</pdfrwt>
<pdfrwt beam="2">  1       21 0.13605651E-01 0.12500000E+03</pdfrwt>
<totfact> 0.73014959E+06</totfact>
</mgrwt>
</event>
<event>
 3    1  0.1592492E-001  0.1250000E+03  0.7546771E-02  0.1235069E+00
         21   -1    0    0  502  501  0.00000000000E+00  0.00000000000E+00  0.48943756160E+02  0.48943756160E+02  0.00000000000E+00 0. -1.
         21   -1    0    0  501  502 -0.00000000000E+00 -0.00000000000E+00 -0.79810997489E+02  0.79810997489E+02  0.00000000000E+00 0. -1.
         25    1    1    2    0    0  0.00000000000E+00  0.00000000000E+00 -0.30867241329E+02  0.12875475365E+03  0.12500000000E+03 0.  0.
<mgrwt>
<rscale>  0 0.12500000E+03</rscale>
<asrwt>0</asrwt>
<pdfrwt beam="1">  1       21 0.75298086E-02 0.12500000E+03</pdfrwt>
<pdfrwt beam="2">  1       21 0.12278615E-01 0.12500000E+03</pdfrwt>
<totfact> 0.73531839E+06</totfact>
</mgrwt>
</event>
<event>
 3    1  0.1592492E-001  0.1250000E+03  0.7546771E-02  0.1235069E+00
         21   -1    0    0  502  501  0.00000000000E+00  0.00000000000E+00  0.10887057269E+02  0.10887057269E+02  0.00000000000E+00 0.  1.
         21   -1    0    0  501  502 -0.00000000000E+00 -0.00000000000E+00 -0.35879759825E+03  0.35879759825E+03  0.00000000000E+00 0.  1.
         25    1    1    2    0    0  0.00000000000E+00  0.00000000000E+00 -0.34791054098E+03  0.36968465552E+03  0.12500000000E+03 0.  0.
<mgrwt>
<rscale>  0 0.12500000E+03</rscale>
<asrwt>0</asrwt>
<pdfrwt beam="1">  1       21 0.16749320E-02 0.12500000E+03</pdfrwt>
<pdfrwt beam="2">  1       21 0.55199627E-01 0.12500000E+03</pdfrwt>
<totfact> 0.50116718E+06</totfact>
</mgrwt>
</event>
<event>
 3    1  0.1592492E-001  0.1250000E+03  0.7546771E-02  0.1235069E+00
         21   -1    0    0  502  501  0.00000000000E+00  0.00000000000E+00  0.98695637923E+01  0.98695637923E+01  0.00000000000E+00 0. -1.
         21   -1    0    0  501  502 -0.00000000000E+00 -0.00000000000E+00 -0.39578750208E+03  0.39578750208E+03  0.00000000000E+00 0. -1.
         25    1    1    2    0    0  0.00000000000E+00  0.00000000000E+00 -0.38591793829E+03  0.40565706588E+03  0.12500000000E+03 0.  0.
<mgrwt>
<rscale>  0 0.12500000E+03</rscale>
<asrwt>0</asrwt>
<pdfrwt beam="1">  1       21 0.15183945E-02 0.12500000E+03</pdfrwt>
<pdfrwt beam="2">  1       21 0.60890380E-01 0.12500000E+03</pdfrwt>
<totfact> 0.47668376E+06</totfact>
</mgrwt>
</event>
<event>
 3    1  0.1592492E-001  0.1250000E+03  0.7546771E-02  0.1235069E+00
         21   -1    0    0  502  501  0.00000000000E+00  0.00000000000E+00  0.14756373586E+02  0.14756373586E+02  0.00000000000E+00 0.  1.
         21   -1    0    0  501  502 -0.00000000000E+00 -0.00000000000E+00 -0.26471612264E+03  0.26471612264E+03  0.00000000000E+00 0.  1.
         25    1    1    2    0    0  0.00000000000E+00  0.00000000000E+00 -0.24995974905E+03  0.27947249622E+03  0.12500000000E+03 0.  0.
<mgrwt>
<rscale>  0 0.12500000E+03</rscale>
<asrwt>0</asrwt>
<pdfrwt beam="1">  1       21 0.22702113E-02 0.12500000E+03</pdfrwt>
<pdfrwt beam="2">  1       21 0.40725559E-01 0.12500000E+03</pdfrwt>
<totfact> 0.57206432E+06</totfact>
</mgrwt>
</event>
<event>
 3    1  0.1592492E-001  0.1250000E+03  0.7546771E-02  0.1235069E+00
         21   -1    0    0  502  501  0.00000000000E+00  0.00000000000E+00  0.21376290821E+01  0.21376290821E+01  0.00000000000E+00 0.  1.
         21   -1    0    0  501  502 -0.00000000000E+00 -0.00000000000E+00 -0.18273750262E+04  0.18273750262E+04  0.00000000000E+00 0.  1.
         25    1    1    2    0    0  0.00000000000E+00  0.00000000000E+00 -0.18252373971E+04  0.18295126553E+04  0.12500000000E+03 0.  0.
<mgrwt>
<rscale>  0 0.12500000E+03</rscale>
<asrwt>0</asrwt>
<pdfrwt beam="1">  1       21 0.32886606E-03 0.12500000E+03</pdfrwt>
<pdfrwt beam="2">  1       21 0.28113458E+00 0.12500000E+03</pdfrwt>
<totfact> 0.97344732E+05</totfact>
</mgrwt>
</event>
<event>
 3    1  0.1592492E-001  0.1250000E+03  0.7546771E-02  0.1235069E+00
         21   -1    0    0  502  501  0.00000000000E+00  0.00000000000E+00  0.13446635358E+03  0.13446635358E+03  0.00000000000E+00 0. -1.
         21   -1    0    0  501  502 -0.00000000000E+00 -0.00000000000E+00 -0.29050018061E+02  0.29050018061E+02  0.00000000000E+00 0. -1.
         25    1    1    2    0    0  0.00000000000E+00  0.00000000000E+00  0.10541633551E+03  0.16351637164E+03  0.12500000000E+03 0.  0.
<mgrwt>
<rscale>  0 0.12500000E+03</rscale>
<asrwt>0</asrwt>
<pdfrwt beam="1">  1       21 0.20687131E-01 0.12500000E+03</pdfrwt>
<pdfrwt beam="2">  1       21 0.44692336E-02 0.12500000E+03</pdfrwt>
<totfact> 0.69092366E+06</totfact>
</mgrwt>
</event>
<event>
 3    1  0.1592492E-001  0.1250000E+03  0.7546771E-02  0.1235069E+00
         21   -1    0    0  502  501  0.00000000000E+00  0.00000000000E+00  0.18077987553E+03  0.18077987553E+03  0.00000000000E+00 0. -1.
         21   -1    0    0  501  502 -0.00000000000E+00 -0.00000000000E+00 -0.21607770160E+02  0.21607770160E+02  0.00000000000E+00 0. -1.
         25    1    1    2    0    0  0.00000000000E+00  0.00000000000E+00  0.15917210537E+03  0.20238764569E+03  0.12500000000E+03 0.  0.
<mgrwt>
<rscale>  0 0.12500000E+03</rscale>
<asrwt>0</asrwt>
<pdfrwt beam="1">  1       21 0.27812288E-01 0.12500000E+03</pdfrwt>
<pdfrwt beam="2">  1       21 0.33242725E-02 0.12500000E+03</pdfrwt>
<totfact> 0.64669450E+06</totfact>
</mgrwt>
</event>
<event>
 3    1  0.1592492E-001  0.1250000E+03  0.7546771E-02  0.1235069E+00
         21   -1    0    0  502  501  0.00000000000E+00  0.00000000000E+00  0.41267857638E+03  0.41267857638E+03  0.00000000000E+00 0. -1.
         21   -1    0    0  501  502 -0.00000000000E+00 -0.00000000000E+00 -0.94655991940E+01  0.94655991940E+01  0.00000000000E+00 0. -1.
         25    1    1    2    0    0  0.00000000000E+00  0.00000000000E+00  0.40321297719E+03  0.42214417558E+03  0.12500000000E+03 0.  0.
<mgrwt>
<rscale>  0 0.12500000E+03</rscale>
<asrwt>0</asrwt>
<pdfrwt beam="1">  1       21 0.63488998E-01 0.12500000E+03</pdfrwt>
<pdfrwt beam="2">  1       21 0.14562464E-02 0.12500000E+03</pdfrwt>
<totfact> 0.46606424E+06</totfact>
</mgrwt>
</event>
<event>
 3    1  0.1592492E-001  0.1250000E+03  0.7546771E-02  0.1235069E+00
         21   -1    0    0  502  501  0.00000000000E+00  0.00000000000E+00  0.17101904040E+03  0.17101904040E+03  0.00000000000E+00 0. -1.
         21   -1    0    0  501  502 -0.00000000000E+00 -0.00000000000E+00 -0.22841023964E+02  0.22841023964E+02  0.00000000000E+00 0. -1.
         25    1    1    2    0    0  0.00000000000E+00  0.00000000000E+00  0.14817801644E+03  0.19386006436E+03  0.12500000000E+03 0.  0.
<mgrwt>
<rscale>  0 0.12500000E+03</rscale>
<asrwt>0</asrwt>
<pdfrwt beam="1">  1       21 0.26310621E-01 0.12500000E+03</pdfrwt>
<pdfrwt beam="2">  1       21 0.35140038E-02 0.12500000E+03</pdfrwt>
<totfact> 0.65596002E+06</totfact>
</mgrwt>
</event>
<event>
 3    1  0.1592492E-001  0.1250000E+03  0.7546771E-02  0.1235069E+00
         21   -1    0    0  502  501  0.00000000000E+00  0.00000000000E+00  0.20180867546E+02  0.20180867546E+02  0.00000000000E+00 0.  1.
         21   -1    0    0  501  502 -0.00000000000E+00 -0.00000000000E+00 -0.19356204539E+03  0.19356204539E+03  0.00000000000E+00 0.  1.
         25    1    1    2    0    0  0.00000000000E+00  0.00000000000E+00 -0.17338117785E+03  0.21374291294E+03  0.12500000000E+03 0.  0.
<mgrwt>
<rscale>  0 0.12500000E+03</rscale>
<asrwt>0</asrwt>
<pdfrwt beam="1">  1       21 0.31047489E-02 0.12500000E+03</pdfrwt>
<pdfrwt beam="2">  1       21 0.29778776E-01 0.12500000E+03</pdfrwt>
<totfact> 0.63467878E+06</totfact>
</mgrwt>
</event>
<event>
 3    1  0.1592492E-001  0.1250000E+03  0.7546771E-02  0.1235069E+00
         21   -1    0    0  502  501  0.00000000000E+00  0.00000000000E+00  0.51212128614E+02  0.51212128614E+02  0.00000000000E+00 0.  1.
         21   -1    0    0  501  502 -0.00000000000E+00 -0.00000000000E+00 -0.76275876550E+02  0.76275876550E+02  0.00000000000E+00 0.  1.
         25    1    1    2    0    0  0.00000000000E+00  0.00000000000E+00 -0.25063747937E+02  0.12748800516E+03  0.12500000000E+03 0.  0.
<mgrwt>
<rscale>  0 0.12500000E+03</rscale>
<asrwt>0</asrwt>
<pdfrwt beam="1">  1       21 0.78787890E-02 0.12500000E+03</pdfrwt>
<pdfrwt beam="2">  1       21 0.11734750E-01 0.12500000E+03</pdfrwt>
<totfact> 0.73702844E+06</totfact>
</mgrwt>
</event>
<event>
 3    1  0.1592492E-001  0.1250000E+03  0.7546771E-02  0.1235069E+00
         21   -1    0    0  502  501  0.00000000000E+00  0.00000000000E+00  0.25408705840E+03  0.25408705840E+03  0.00000000000E+00 0. -1.
         21   -1    0    0  501  502 -0.00000000000E+00 -0.00000000000E+00 -0.15373667690E+02  0.15373667690E+02  0.00000000000E+00 0. -1.
         25    1    1    2    0    0  0.00000000000E+00  0.00000000000E+00  0.23871339071E+03  0.26946072608E+03  0.12500000000E+03 0.  0.
<mgrwt>
<rscale>  0 0.12500000E+03</rscale>
<asrwt>0</asrwt>
<pdfrwt beam="1">  1       21 0.39090314E-01 0.12500000E+03</pdfrwt>
<pdfrwt beam="2">  1       21 0.23651798E-02 0.12500000E+03</pdfrwt>
<totfact> 0.58092848E+06</totfact>
</mgrwt>
</event>
<event>
 3    1  0.1592492E-001  0.1250000E+03  0.7546771E-02  0.1235069E+00
         21   -1    0    0  502  501  0.00000000000E+00  0.00000000000E+00  0.54079384358E+02  0.54079384358E+02  0.00000000000E+00 0. -1.
         21   -1    0    0  501  502 -0.00000000000E+00 -0.00000000000E+00 -0.72231776422E+02  0.72231776422E+02  0.00000000000E+00 0. -1.
         25    1    1    2    0    0  0.00000000000E+00  0.00000000000E+00 -0.18152392063E+02  0.12631116078E+03  0.12500000000E+03 0.  0.
<mgrwt>
<rscale>  0 0.12500000E+03</rscale>
<asrwt>0</asrwt>
<pdfrwt beam="1">  1       21 0.83199053E-02 0.12500000E+03</pdfrwt>
<pdfrwt beam="2">  1       21 0.11112581E-01 0.12500000E+03</pdfrwt>
<totfact> 0.73863247E+06</totfact>
</mgrwt>
</event>
<event>
 3    1  0.1592492E-001  0.1250000E+03  0.7546771E-02  0.1235069E+00
         21   -1    0    0  502  501  0.00000000000E+00  0.00000000000E+00  0.14170784090E+03  0.14170784090E+03  0.00000000000E+00 0. -1.
         21   -1    0    0  501  502 -0.00000000000E+00 -0.00000000000E+00 -0.27565517724E+02  0.27565517724E+02  0.00000000000E+00 0. -1.
         25    1    1    2    0    0  0.00000000000E+00  0.00000000000E+00  0.11414232318E+03  0.16927335863E+03  0.12500000000E+03 0.  0.
<mgrwt>
<rscale>  0 0.12500000E+03</rscale>
<asrwt>0</asrwt>
<pdfrwt beam="1">  1       21 0.21801206E-01 0.12500000E+03</pdfrwt>
<pdfrwt beam="2">  1       21 0.42408490E-02 0.12500000E+03</pdfrwt>
<totfact> 0.68403769E+06</totfact>
</mgrwt>
</event>
<event>
 3    1  0.1592492E-001  0.1250000E+03  0.7546771E-02  0.1235069E+00
         21   -1    0    0  502  501  0.00000000000E+00  0.00000000000E+00  0.19525918537E+03  0.19525918537E+03  0.00000000000E+00 0.  1.
         21   -1    0    0  501  502 -0.00000000000E+00 -0.00000000000E+00 -0.20005460909E+02  0.20005460909E+02  0.00000000000E+00 0.  1.
         25    1    1    2    0    0  0.00000000000E+00  0.00000000000E+00  0.17525372446E+03  0.21526464628E+03  0.12500000000E+03 0.  0.
<mgrwt>
<rscale>  0 0.12500000E+03</rscale>
<asrwt>0</asrwt>
<pdfrwt beam="1">  1       21 0.30039873E-01 0.12500000E+03</pdfrwt>
<pdfrwt beam="2">  1       21 0.30777633E-02 0.12500000E+03</pdfrwt>
<totfact> 0.63309857E+06</totfact>
</mgrwt>
</event>
<event>
 3    1  0.1592492E-001  0.1250000E+03  0.7546771E-02  0.1235069E+00
         21   -1    0    0  502  501  0.00000000000E+00  0.00000000000E+00  0.13077819160E+03  0.13077819160E+03  0.00000000000E+00 0. -1.
         21   -1    0    0  501  502 -0.00000000000E+00 -0.00000000000E+00 -0.29869276766E+02  0.29869276766E+02  0.00000000000E+00 0. -1.
         25    1    1    2    0    0  0.00000000000E+00  0.00000000000E+00  0.10090891484E+03  0.16064746837E+03  0.12500000000E+03 0.  0.
<mgrwt>
<rscale>  0 0.12500000E+03</rscale>
<asrwt>0</asrwt>
<pdfrwt beam="1">  1       21 0.20119721E-01 0.12500000E+03</pdfrwt>
<pdfrwt beam="2">  1       21 0.45952734E-02 0.12500000E+03</pdfrwt>
<totfact> 0.69440469E+06</totfact>
</mgrwt>
</event>
<event>
 3    1  0.1592492E-001  0.1250000E+03  0.7546771E-02  0.1235069E+00
         21   -1    0    0  502  501  0.00000000000E+00  0.00000000000E+00  0.30103263486E+02  0.30103263486E+02  0.00000000000E+00 0.  1.
         21   -1    0    0  501  502 -0.00000000000E+00 -0.00000000000E+00 -0.12976167856E+03  0.12976167856E+03  0.00000000000E+00 0.  1.
         25    1    1    2    0    0  0.00000000000E+00  0.00000000000E+00 -0.99658415073E+02  0.15986494204E+03  0.12500000000E+03 0.  0.
<mgrwt>
<rscale>  0 0.12500000E+03</rscale>
<asrwt>0</asrwt>
<pdfrwt beam="1">  1       21 0.46312715E-02 0.12500000E+03</pdfrwt>
<pdfrwt beam="2">  1       21 0.19963334E-01 0.12500000E+03</pdfrwt>
<totfact> 0.69536003E+06</totfact>
</mgrwt>
</event>
<event>
 3    1  0.1592492E-001  0.1250000E+03  0.7546771E-02  0.1235069E+00
         21   -1    0    0  502  501  0.00000000000E+00  0.00000000000E+00  0.36424139894E+02  0.36424139894E+02  0.00000000000E+00 0. -1.
         21   -1    0    0  501  502 -0.00000000000E+00 -0.00000000000E+00 -0.10724343832E+03  0.10724343832E+03  0.00000000000E+00 0. -1.
         25    1    1    2    0    0  0.00000000000E+00  0.00000000000E+00 -0.70819298424E+02  0.14366757821E+03  0.12500000000E+03 0.  0.
<mgrwt>
<rscale>  0 0.12500000E+03</rscale>
<asrwt>0</asrwt>
<pdfrwt beam="1">  1       21 0.56037139E-02 0.12500000E+03</pdfrwt>
<pdfrwt beam="2">  1       21 0.16498990E-01 0.12500000E+03</pdfrwt>
<totfact> 0.71564055E+06</totfact>
</mgrwt>
</event>
<event>
 3    1  0.1592492E-001  0.1250000E+03  0.7546771E-02  0.1235069E+00
         21   -1    0    0  502  501  0.00000000000E+00  0.00000000000E+00  0.18146339866E+03  0.18146339866E+03  0.00000000000E+00 0.  1.
         21   -1    0    0  501  502 -0.00000000000E+00 -0.00000000000E+00 -0.21526379583E+02  0.21526379583E+02  0.00000000000E+00 0.  1.
         25    1    1    2    0    0  0.00000000000E+00  0.00000000000E+00  0.15993701908E+03  0.20298977824E+03  0.12500000000E+03 0.  0.
<mgrwt>
<rscale>  0 0.12500000E+03</rscale>
<asrwt>0</asrwt>
<pdfrwt beam="1">  1       21 0.27917445E-01 0.12500000E+03</pdfrwt>
<pdfrwt beam="2">  1       21 0.33117508E-02 0.12500000E+03</pdfrwt>
<totfact> 0.64604723E+06</totfact>
</mgrwt>
</event>
<event>
 3    1  0.1592492E-001  0.1250000E+03  0.7546771E-02  0.1235069E+00
         21   -1    0    0  502  501  0.00000000000E+00  0.00000000000E+00  0.38510392654E+02  0.38510392654E+02  0.00000000000E+00 0.  1.
         21   -1    0    0  501  502 -0.00000000000E+00 -0.00000000000E+00 -0.10143365805E+03  0.10143365805E+03  0.00000000000E+00 0.  1.
         25    1    1    2    0    0  0.00000000000E+00  0.00000000000E+00 -0.62923265398E+02  0.13994405071E+03  0.12500000000E+03 0.  0.
<mgrwt>
<rscale>  0 0.12500000E+03</rscale>
<asrwt>0</asrwt>
<pdfrwt beam="1">  1       21 0.59246758E-02 0.12500000E+03</pdfrwt>
<pdfrwt beam="2">  1       21 0.15605178E-01 0.12500000E+03</pdfrwt>
<totfact> 0.72046613E+06</totfact>
</mgrwt>
</event>
<event>
 3    1  0.1592492E-001  0.1250000E+03  0.7546771E-02  0.1235069E+00
         21   -1    0    0  502  501  0.00000000000E+00  0.00000000000E+00  0.11895266405E+03  0.11895266405E+03  0.00000000000E+00 0. -1.
         21   -1    0    0  501  502 -0.00000000000E+00 -0.00000000000E+00 -0.32838692864E+02  0.32838692864E+02  0.00000000000E+00 0. -1.
         25    1    1    2    0    0  0.00000000000E+00  0.00000000000E+00  0.86113971183E+02  0.15179135691E+03  0.12500000000E+03 0.  0.
<mgrwt>
<rscale>  0 0.12500000E+03</rscale>
<asrwt>0</asrwt>
<pdfrwt beam="1">  1       21 0.18300410E-01 0.12500000E+03</pdfrwt>
<pdfrwt beam="2">  1       21 0.50521066E-02 0.12500000E+03</pdfrwt>
<totfact> 0.70534893E+06</totfact>
</mgrwt>
</event>
<event>
 3    1  0.1592492E-001  0.1250000E+03  0.7546771E-02  0.1235069E+00
         21   -1    0    0  502  501  0.00000000000E+00  0.00000000000E+00  0.16716982044E+02  0.16716982044E+02  0.00000000000E+00 0. -1.
         21   -1    0    0  501  502 -0.00000000000E+00 -0.00000000000E+00 -0.23366956964E+03  0.23366956964E+03  0.00000000000E+00 0. -1.
         25    1    1    2    0    0  0.00000000000E+00  0.00000000000E+00 -0.21695258760E+03  0.25038655169E+03  0.12500000000E+03 0.  0.
<mgrwt>
<rscale>  0 0.12500000E+03</rscale>
<asrwt>0</asrwt>
<pdfrwt beam="1">  1       21 0.25718434E-02 0.12500000E+03</pdfrwt>
<pdfrwt beam="2">  1       21 0.35949165E-01 0.12500000E+03</pdfrwt>
<totfact> 0.59841815E+06</totfact>
</mgrwt>
</event>
<event>
 3    1  0.1592492E-001  0.1250000E+03  0.7546771E-02  0.1235069E+00
         21   -1    0    0  502  501  0.00000000000E+00  0.00000000000E+00  0.17786947239E+02  0.17786947239E+02  0.00000000000E+00 0.  1.
         21   -1    0    0  501  502 -0.00000000000E+00 -0.00000000000E+00 -0.21961328988E+03  0.21961328988E+03  0.00000000000E+00 0.  1.
         25    1    1    2    0    0  0.00000000000E+00  0.00000000000E+00 -0.20182634264E+03  0.23740023712E+03  0.12500000000E+03 0.  0.
<mgrwt>
<rscale>  0 0.12500000E+03</rscale>
<asrwt>0</asrwt>
<pdfrwt beam="1">  1       21 0.27364536E-02 0.12500000E+03</pdfrwt>
<pdfrwt beam="2">  1       21 0.33786657E-01 0.12500000E+03</pdfrwt>
<totfact> 0.61085148E+06</totfact>
</mgrwt>
</event>
<event>
 3    1  0.1592492E-001  0.1250000E+03  0.7546771E-02  0.1235069E+00
         21   -1    0    0  502  501  0.00000000000E+00  0.00000000000E+00  0.86805368719E+02  0.86805368719E+02  0.00000000000E+00 0. -1.
         21   -1    0    0  501  502 -0.00000000000E+00 -0.00000000000E+00 -0.45000096856E+02  0.45000096856E+02  0.00000000000E+00 0. -1.
         25    1    1    2    0    0  0.00000000000E+00  0.00000000000E+00  0.41805271863E+02  0.13180546558E+03  0.12500000000E+03 0.  0.
<mgrwt>
<rscale>  0 0.12500000E+03</rscale>
<asrwt>0</asrwt>
<pdfrwt beam="1">  1       21 0.13354672E-01 0.12500000E+03</pdfrwt>
<pdfrwt beam="2">  1       21 0.69230918E-02 0.12500000E+03</pdfrwt>
<totfact> 0.73122334E+06</totfact>
</mgrwt>
</event>
<event>
 3    1  0.1592492E-001  0.1250000E+03  0.7546771E-02  0.1235069E+00
         21   -1    0    0  502  501  0.00000000000E+00  0.00000000000E+00  0.85148708811E+02  0.85148708811E+02  0.00000000000E+00 0. -1.
         21   -1    0    0  501  502 -0.00000000000E+00 -0.00000000000E+00 -0.45875622244E+02  0.45875622244E+02  0.00000000000E+00 0. -1.
         25    1    1    2    0    0  0.00000000000E+00  0.00000000000E+00  0.39273086567E+02  0.13102433106E+03  0.12500000000E+03 0.  0.
<mgrwt>
<rscale>  0 0.12500000E+03</rscale>
<asrwt>0</asrwt>
<pdfrwt beam="1">  1       21 0.13099801E-01 0.12500000E+03</pdfrwt>
<pdfrwt beam="2">  1       21 0.70577880E-02 0.12500000E+03</pdfrwt>
<totfact> 0.73227392E+06</totfact>
</mgrwt>
</event>
<event>
 3    1  0.1592492E-001  0.1250000E+03  0.7546771E-02  0.1235069E+00
         21   -1    0    0  502  501  0.00000000000E+00  0.00000000000E+00  0.26850163097E+03  0.26850163097E+03  0.00000000000E+00 0.  1.
         21   -1    0    0  501  502 -0.00000000000E+00 -0.00000000000E+00 -0.14548328760E+02  0.14548328760E+02  0.00000000000E+00 0.  1.
         25    1    1    2    0    0  0.00000000000E+00  0.00000000000E+00  0.25395330221E+03  0.28304995973E+03  0.12500000000E+03 0.  0.
<mgrwt>
<rscale>  0 0.12500000E+03</rscale>
<asrwt>0</asrwt>
<pdfrwt beam="1">  1       21 0.41307940E-01 0.12500000E+03</pdfrwt>
<pdfrwt beam="2">  1       21 0.22382046E-02 0.12500000E+03</pdfrwt>
<totfact> 0.56894879E+06</totfact>
</mgrwt>
</event>
<event>
 3    1  0.1592492E-001  0.1250000E+03  0.7546771E-02  0.1235069E+00
         21   -1    0    0  502  501  0.00000000000E+00  0.00000000000E+00  0.13937116145E+02  0.13937116145E+02  0.00000000000E+00 0. -1.
         21   -1    0    0  501  502 -0.00000000000E+00 -0.00000000000E+00 -0.28027677744E+03  0.28027677744E+03  0.00000000000E+00 0. -1.
         25    1    1    2    0    0  0.00000000000E+00  0.00000000000E+00 -0.26633966130E+03  0.29421389359E+03  0.12500000000E+03 0.  0.
<mgrwt>
<rscale>  0 0.12500000E+03</rscale>
<asrwt>0</asrwt>
<pdfrwt beam="1">  1       21 0.21441718E-02 0.12500000E+03</pdfrwt>
<pdfrwt beam="2">  1       21 0.43119503E-01 0.12500000E+03</pdfrwt>
<totfact> 0.55940476E+06</totfact>
</mgrwt>
</event>
<event>
 3    1  0.1592492E-001  0.1250000E+03  0.7546771E-02  0.1235069E+00
         21   -1    0    0  502  501  0.00000000000E+00  0.00000000000E+00  0.61214311264E+03  0.61214311264E+03  0.00000000000E+00 0.  1.
         21   -1    0    0  501  502 -0.00000000000E+00 -0.00000000000E+00 -0.63812692152E+01  0.63812692152E+01  0.00000000000E+00 0.  1.
         25    1    1    2    0    0  0.00000000000E+00  0.00000000000E+00  0.60576184342E+03  0.61852438185E+03  0.12500000000E+03 0.  0.
<mgrwt>
<rscale>  0 0.12500000E+03</rscale>
<asrwt>0</asrwt>
<pdfrwt beam="1">  1       21 0.94175817E-01 0.12500000E+03</pdfrwt>
<pdfrwt beam="2">  1       21 0.98173421E-03 0.12500000E+03</pdfrwt>
<totfact> 0.36268080E+06</totfact>
</mgrwt>
</event>
<event>
 3    1  0.1592492E-001  0.1250000E+03  0.7546771E-02  0.1235069E+00
         21   -1    0    0  502  501  0.00000000000E+00  0.00000000000E+00  0.17893198963E+02  0.17893198963E+02  0.00000000000E+00 0. -1.
         21   -1    0    0  501  502 -0.00000000000E+00 -0.00000000000E+00 -0.21830920274E+03  0.21830920274E+03  0.00000000000E+00 0. -1.
         25    1    1    2    0    0  0.00000000000E+00  0.00000000000E+00 -0.20041600377E+03  0.23620240170E+03  0.12500000000E+03 0.  0.
<mgrwt>
<rscale>  0 0.12500000E+03</rscale>
<asrwt>0</asrwt>
<pdfrwt beam="1">  1       21 0.27527998E-02 0.12500000E+03</pdfrwt>
<pdfrwt beam="2">  1       21 0.33586031E-01 0.12500000E+03</pdfrwt>
<totfact> 0.61202095E+06</totfact>
</mgrwt>
</event>
<event>
 3    1  0.1592492E-001  0.1250000E+03  0.7546771E-02  0.1235069E+00
         21   -1    0    0  502  501  0.00000000000E+00  0.00000000000E+00  0.11665728817E+04  0.11665728817E+04  0.00000000000E+00 0. -1.
         21   -1    0    0  501  502 -0.00000000000E+00 -0.00000000000E+00 -0.33484834606E+01  0.33484834606E+01  0.00000000000E+00 0. -1.
         25    1    1    2    0    0  0.00000000000E+00  0.00000000000E+00  0.11632243982E+04  0.11699213652E+04  0.12500000000E+03 0.  0.
<mgrwt>
<rscale>  0 0.12500000E+03</rscale>
<asrwt>0</asrwt>
<pdfrwt beam="1">  1       21 0.17947243E+00 0.12500000E+03</pdfrwt>
<pdfrwt beam="2">  1       21 0.51515223E-03 0.12500000E+03</pdfrwt>
<totfact> 0.19753347E+06</totfact>
</mgrwt>
</event>
<event>
 3    1  0.1592492E-001  0.1250000E+03  0.7546771E-02  0.1235069E+00
         21   -1    0    0  502  501  0.00000000000E+00  0.00000000000E+00  0.74459089786E+02  0.74459089786E+02  0.00000000000E+00 0.  1.
         21   -1    0    0  501  502 -0.00000000000E+00 -0.00000000000E+00 -0.52461694216E+02  0.52461694216E+02  0.00000000000E+00 0.  1.
         25    1    1    2    0    0  0.00000000000E+00  0.00000000000E+00  0.21997395570E+02  0.12692078400E+03  0.12500000000E+03 0.  0.
<mgrwt>
<rscale>  0 0.12500000E+03</rscale>
<asrwt>0</asrwt>
<pdfrwt beam="1">  1       21 0.11455245E-01 0.12500000E+03</pdfrwt>
<pdfrwt beam="2">  1       21 0.80710298E-02 0.12500000E+03</pdfrwt>
<totfact> 0.73779924E+06</totfact>
</mgrwt>
</event>
<event>
 3    1  0.1592492E-001  0.1250000E+03  0.7546771E-02  0.1235069E+00
         21   -1    0    0  502  501  0.00000000000E+00  0.00000000000E+00  0.14445249384E+04  0.14445249384E+04  0.00000000000E+00 0.  1.
         21   -1    0    0  501  502 -0.00000000000E+00 -0.00000000000E+00 -0.27041762285E+01  0.27041762285E+01  0.00000000000E+00 0.  1.
         25    1    1    2    0    0  0.00000000000E+00  0.00000000000E+00  0.14418207622E+04  0.14472291147E+04  0.12500000000E+03 0.  0.
<mgrwt>
<rscale>  0 0.12500000E+03</rscale>
<asrwt>0</asrwt>
<pdfrwt beam="1">  1       21 0.22223399E+00 0.12500000E+03</pdfrwt>
<pdfrwt beam="2">  1       21 0.41602827E-03 0.12500000E+03</pdfrwt>
<totfact> 0.14793729E+06</totfact>
</mgrwt>
</event>
<event>
 3    1  0.1592492E-001  0.1250000E+03  0.7546771E-02  0.1235069E+00
         21   -1    0    0  502  501  0.00000000000E+00  0.00000000000E+00  0.91325923996E+01  0.91325923996E+01  0.00000000000E+00 0. -1.
         21   -1    0    0  501  502 -0.00000000000E+00 -0.00000000000E+00 -0.42772630477E+03  0.42772630477E+03  0.00000000000E+00 0. -1.
         25    1    1    2    0    0  0.00000000000E+00  0.00000000000E+00 -0.41859371237E+03  0.43685889717E+03  0.12500000000E+03 0.  0.
<mgrwt>
<rscale>  0 0.12500000E+03</rscale>
<asrwt>0</asrwt>
<pdfrwt beam="1">  1       21 0.14050141E-02 0.12500000E+03</pdfrwt>
<pdfrwt beam="2">  1       21 0.65804053E-01 0.12500000E+03</pdfrwt>
<totfact> 0.45688912E+06</totfact>
</mgrwt>
</event>
<event>
 3    1  0.1592492E-001  0.1250000E+03  0.7546771E-02  0.1235069E+00
         21   -1    0    0  502  501  0.00000000000E+00  0.00000000000E+00  0.19565864720E+02  0.19565864720E+02  0.00000000000E+00 0. -1.
         21   -1    0    0  501  502 -0.00000000000E+00 -0.00000000000E+00 -0.19964617234E+03  0.19964617234E+03  0.00000000000E+00 0. -1.
         25    1    1    2    0    0  0.00000000000E+00  0.00000000000E+00 -0.18008030762E+03  0.21921203706E+03  0.12500000000E+03 0.  0.
<mgrwt>
<rscale>  0 0.12500000E+03</rscale>
<asrwt>0</asrwt>
<pdfrwt beam="1">  1       21 0.30101330E-02 0.12500000E+03</pdfrwt>
<pdfrwt beam="2">  1       21 0.30714796E-01 0.12500000E+03</pdfrwt>
<totfact> 0.62903166E+06</totfact>
</mgrwt>
</event>
<event>
 3    1  0.1592492E-001  0.1250000E+03  0.7546771E-02  0.1235069E+00
         21   -1    0    0  502  501  0.00000000000E+00  0.00000000000E+00  0.52268232409E+03  0.52268232409E+03  0.00000000000E+00 0. -1.
         21   -1    0    0  501  502 -0.00000000000E+00 -0.00000000000E+00 -0.74734687208E+01  0.74734687208E+01  0.00000000000E+00 0. -1.
         25    1    1    2    0    0  0.00000000000E+00  0.00000000000E+00  0.51520885537E+03  0.53015579281E+03  0.12500000000E+03 0.  0.
<mgrwt>
<rscale>  0 0.12500000E+03</rscale>
<asrwt>0</asrwt>
<pdfrwt beam="1">  1       21 0.80412636E-01 0.12500000E+03</pdfrwt>
<pdfrwt beam="2">  1       21 0.11497648E-02 0.12500000E+03</pdfrwt>
<totfact> 0.40454504E+06</totfact>
</mgrwt>
</event>
<event>
 3    1  0.1592492E-001  0.1250000E+03  0.7546771E-02  0.1235069E+00
         21   -1    0    0  502  501  0.00000000000E+00  0.00000000000E+00  0.11323724805E+03  0.11323724805E+03  0.00000000000E+00 0. -1.
         21   -1    0    0  501  502 -0.00000000000E+00 -0.00000000000E+00 -0.34496157999E+02  0.34496157999E+02  0.00000000000E+00 0. -1.
         25    1    1    2    0    0  0.00000000000E+00  0.00000000000E+00  0.78741090049E+02  0.14773340605E+03  0.12500000000E+03 0.  0.
<mgrwt>
<rscale>  0 0.12500000E+03</rscale>
<asrwt>0</asrwt>
<pdfrwt beam="1">  1       21 0.17421115E-01 0.12500000E+03</pdfrwt>
<pdfrwt beam="2">  1       21 0.53071013E-02 0.12500000E+03</pdfrwt>
<totfact> 0.71045101E+06</totfact>
</mgrwt>
</event>
<event>
 3    1  0.1592492E-001  0.1250000E+03  0.7546771E-02  0.1235069E+00
         21   -1    0    0  502  501  0.00000000000E+00  0.00000000000E+00  0.58383521757E+02  0.58383521757E+02  0.00000000000E+00 0. -1.
         21   -1    0    0  501  502 -0.00000000000E+00 -0.00000000000E+00 -0.66906720980E+02  0.66906720980E+02  0.00000000000E+00 0. -1.
         25    1    1    2    0    0  0.00000000000E+00  0.00000000000E+00 -0.85231992227E+01  0.12529024274E+03  0.12500000000E+03 0.  0.
<mgrwt>
<rscale>  0 0.12500000E+03</rscale>
<asrwt>0</asrwt>
<pdfrwt beam="1">  1       21 0.89820803E-02 0.12500000E+03</pdfrwt>
<pdfrwt beam="2">  1       21 0.10293342E-01 0.12500000E+03</pdfrwt>
<totfact> 0.74004389E+06</totfact>
</mgrwt>
</event>
<event>
 3    1  0.1592492E-001  0.1250000E+03  0.7546771E-02  0.1235069E+00
         21   -1    0    0  502  501  0.00000000000E+00  0.00000000000E+00  0.27021991691E+02  0.27021991691E+02  0.00000000000E+00 0. -1.
         21   -1    0    0  501  502 -0.00000000000E+00 -0.00000000000E+00 -0.14455818226E+03  0.14455818226E+03  0.00000000000E+00 0. -1.
         25    1    1    2    0    0  0.00000000000E+00  0.00000000000E+00 -0.11753619057E+03  0.17158017395E+03  0.12500000000E+03 0.  0.
<mgrwt>
<rscale>  0 0.12500000E+03</rscale>
<asrwt>0</asrwt>
<pdfrwt beam="1">  1       21 0.41572296E-02 0.12500000E+03</pdfrwt>
<pdfrwt beam="2">  1       21 0.22239720E-01 0.12500000E+03</pdfrwt>
<totfact> 0.68130807E+06</totfact>
</mgrwt>
</event>
<event>
 3    1  0.1592492E-001  0.1250000E+03  0.7546771E-02  0.1235069E+00
         21   -1    0    0  502  501  0.00000000000E+00  0.00000000000E+00  0.74527921470E+02  0.74527921470E+02  0.00000000000E+00 0. -1.
         21   -1    0    0  501  502 -0.00000000000E+00 -0.00000000000E+00 -0.52413242218E+02  0.52413242218E+02  0.00000000000E+00 0. -1.
         25    1    1    2    0    0  0.00000000000E+00  0.00000000000E+00  0.22114679252E+02  0.12694116369E+03  0.12500000000E+03 0.  0.
<mgrwt>
<rscale>  0 0.12500000E+03</rscale>
<asrwt>0</asrwt>
<pdfrwt beam="1">  1       21 0.11465834E-01 0.12500000E+03</pdfrwt>
<pdfrwt beam="2">  1       21 0.80635758E-02 0.12500000E+03</pdfrwt>
<totfact> 0.73777148E+06</totfact>
</mgrwt>
</event>
<event>
 3    1  0.1592492E-001  0.1250000E+03  0.7546771E-02  0.1235069E+00
         21   -1    0    0  502  501  0.00000000000E+00  0.00000000000E+00  0.15107466836E+04  0.15107466836E+04  0.00000000000E+00 0. -1.
         21   -1    0    0  501  502 -0.00000000000E+00 -0.00000000000E+00 -0.25856419493E+01  0.25856419493E+01  0.00000000000E+00 0. -1.
         25    1    1    2    0    0  0.00000000000E+00  0.00000000000E+00  0.15081610417E+04  0.15133323256E+04  0.12500000000E+03 0.  0.
<mgrwt>
<rscale>  0 0.12500000E+03</rscale>
<asrwt>0</asrwt>
<pdfrwt beam="1">  1       21 0.23242186E+00 0.12500000E+03</pdfrwt>
<pdfrwt beam="2">  1       21 0.39779228E-03 0.12500000E+03</pdfrwt>
<totfact> 0.13796420E+06</totfact>
</mgrwt>
</event>
<event>
 3    1  0.1592492E-001  0.1250000E+03  0.7546771E-02  0.1235069E+00
         21   -1    0    0  502  501  0.00000000000E+00  0.00000000000E+00  0.17384235264E+02  0.17384235264E+02  0.00000000000E+00 0.  1.
         21   -1    0    0  501  502 -0.00000000000E+00 -0.00000000000E+00 -0.22470070962E+03  0.22470070962E+03  0.00000000000E+00 0.  1.
         25    1    1    2    0    0  0.00000000000E+00  0.00000000000E+00 -0.20731647436E+03  0.24208494489E+03  0.12500000000E+03 0.  0.
<mgrwt>
<rscale>  0 0.12500000E+03</rscale>
<asrwt>0</asrwt>
<pdfrwt beam="1">  1       21 0.26744979E-02 0.12500000E+03</pdfrwt>
<pdfrwt beam="2">  1       21 0.34569338E-01 0.12500000E+03</pdfrwt>
<totfact> 0.60631490E+06</totfact>
</mgrwt>
</event>
<event>
 3    1  0.1592492E-001  0.1250000E+03  0.7546771E-02  0.1235069E+00
         21   -1    0    0  502  501  0.00000000000E+00  0.00000000000E+00  0.48403634318E+02  0.48403634318E+02  0.00000000000E+00 0.  1.
         21   -1    0    0  501  502 -0.00000000000E+00 -0.00000000000E+00 -0.80701584810E+02  0.80701584810E+02  0.00000000000E+00 0.  1.
         25    1    1    2    0    0  0.00000000000E+00  0.00000000000E+00 -0.32297950492E+02  0.12910521913E+03  0.12500000000E+03 0.  0.
<mgrwt>
<rscale>  0 0.12500000E+03</rscale>
<asrwt>0</asrwt>
<pdfrwt beam="1">  1       21 0.74467131E-02 0.12500000E+03</pdfrwt>
<pdfrwt beam="2">  1       21 0.12415628E-01 0.12500000E+03</pdfrwt>
<totfact> 0.73484754E+06</totfact>
</mgrwt>
</event>
<event>
 3    1  0.1592492E-001  0.1250000E+03  0.7546771E-02  0.1235069E+00
         21   -1    0    0  502  501  0.00000000000E+00  0.00000000000E+00  0.42322585578E+02  0.42322585578E+02  0.00000000000E+00 0. -1.
         21   -1    0    0  501  502 -0.00000000000E+00 -0.00000000000E+00 -0.92297054792E+02  0.92297054792E+02  0.00000000000E+00 0. -1.
         25    1    1    2    0    0  0.00000000000E+00  0.00000000000E+00 -0.49974469215E+02  0.13461964037E+03  0.12500000000E+03 0.  0.
<mgrwt>
<rscale>  0 0.12500000E+03</rscale>
<asrwt>0</asrwt>
<pdfrwt beam="1">  1       21 0.65111671E-02 0.12500000E+03</pdfrwt>
<pdfrwt beam="2">  1       21 0.14199547E-01 0.12500000E+03</pdfrwt>
<totfact> 0.72746873E+06</totfact>
</mgrwt>
</event>
<event>
 3    1  0.1592492E-001  0.1250000E+03  0.7546771E-02  0.1235069E+00
         21   -1    0    0  502  501  0.00000000000E+00  0.00000000000E+00  0.35779604365E+03  0.35779604365E+03  0.00000000000E+00 0. -1.
         21   -1    0    0  501  502 -0.00000000000E+00 -0.00000000000E+00 -0.10917532682E+02  0.10917532682E+02  0.00000000000E+00 0. -1.
         25    1    1    2    0    0  0.00000000000E+00  0.00000000000E+00  0.34687851096E+03  0.36871357633E+03  0.12500000000E+03 0.  0.
<mgrwt>
<rscale>  0 0.12500000E+03</rscale>
<asrwt>0</asrwt>
<pdfrwt beam="1">  1       21 0.55045536E-01 0.12500000E+03</pdfrwt>
<pdfrwt beam="2">  1       21 0.16796207E-02 0.12500000E+03</pdfrwt>
<totfact> 0.50185388E+06</totfact>
</mgrwt>
</event>
<event>
 3    1  0.1592492E-001  0.1250000E+03  0.7546771E-02  0.1235069E+00
         21   -1    0    0  502  501  0.00000000000E+00  0.00000000000E+00  0.11458809723E+03  0.11458809723E+03  0.00000000000E+00 0.  1.
         21   -1    0    0  501  502 -0.00000000000E+00 -0.00000000000E+00 -0.34089491792E+02  0.34089491792E+02  0.00000000000E+00 0.  1.
         25    1    1    2    0    0  0.00000000000E+00  0.00000000000E+00  0.80498605436E+02  0.14867758902E+03  0.12500000000E+03 0.  0.
<mgrwt>
<rscale>  0 0.12500000E+03</rscale>
<asrwt>0</asrwt>
<pdfrwt beam="1">  1       21 0.17628938E-01 0.12500000E+03</pdfrwt>
<pdfrwt beam="2">  1       21 0.52445373E-02 0.12500000E+03</pdfrwt>
<totfact> 0.70925717E+06</totfact>
</mgrwt>
</event>
<event>
 3    1  0.1592492E-001  0.1250000E+03  0.7546771E-02  0.1235069E+00
         21   -1    0    0  502  501  0.00000000000E+00  0.00000000000E+00  0.16676057023E+02  0.16676057023E+02  0.00000000000E+00 0. -1.
         21   -1    0    0  501  502 -0.00000000000E+00 -0.00000000000E+00 -0.23424302247E+03  0.23424302247E+03  0.00000000000E+00 0. -1.
         25    1    1    2    0    0  0.00000000000E+00  0.00000000000E+00 -0.21756696545E+03  0.25091907950E+03  0.12500000000E+03 0.  0.
<mgrwt>
<rscale>  0 0.12500000E+03</rscale>
<asrwt>0</asrwt>
<pdfrwt beam="1">  1       21 0.25655474E-02 0.12500000E+03</pdfrwt>
<pdfrwt beam="2">  1       21 0.36037386E-01 0.12500000E+03</pdfrwt>
<totfact> 0.59791768E+06</totfact>
</mgrwt>
</event>
<event>
 3    1  0.1592492E-001  0.1250000E+03  0.7546771E-02  0.1235069E+00
         21   -1    0    0  502  501  0.00000000000E+00  0.00000000000E+00  0.42743644702E+02  0.42743644702E+02  0.00000000000E+00 0. -1.
         21   -1    0    0  501  502 -0.00000000000E+00 -0.00000000000E+00 -0.91387854901E+02  0.91387854901E+02  0.00000000000E+00 0. -1.
         25    1    1    2    0    0  0.00000000000E+00  0.00000000000E+00 -0.48644210199E+02  0.13413149960E+03  0.12500000000E+03 0.  0.
<mgrwt>
<rscale>  0 0.12500000E+03</rscale>
<asrwt>0</asrwt>
<pdfrwt beam="1">  1       21 0.65759454E-02 0.12500000E+03</pdfrwt>
<pdfrwt beam="2">  1       21 0.14059670E-01 0.12500000E+03</pdfrwt>
<totfact> 0.72811674E+06</totfact>
</mgrwt>
</event>
<event>
 3    1  0.1592492E-001  0.1250000E+03  0.7546771E-02  0.1235069E+00
         21   -1    0    0  502  501  0.00000000000E+00  0.00000000000E+00  0.76293408139E+02  0.76293408139E+02  0.00000000000E+00 0. -1.
         21   -1    0    0  501  502 -0.00000000000E+00 -0.00000000000E+00 -0.51200360494E+02  0.51200360494E+02  0.00000000000E+00 0. -1.
         25    1    1    2    0    0  0.00000000000E+00  0.00000000000E+00  0.25093047645E+02  0.12749376863E+03  0.12500000000E+03 0.  0.
<mgrwt>
<rscale>  0 0.12500000E+03</rscale>
<asrwt>0</asrwt>
<pdfrwt beam="1">  1       21 0.11737447E-01 0.12500000E+03</pdfrwt>
<pdfrwt beam="2">  1       21 0.78769785E-02 0.12500000E+03</pdfrwt>
<totfact> 0.73702063E+06</totfact>
</mgrwt>
</event>
<event>
 3    1  0.1592492E-001  0.1250000E+03  0.7546771E-02  0.1235069E+00
         21   -1    0    0  502  501  0.00000000000E+00  0.00000000000E+00  0.30408442939E+03  0.30408442939E+03  0.00000000000E+00 0. -1.
         21   -1    0    0  501  502 -0.00000000000E+00 -0.00000000000E+00 -0.12845938899E+02  0.12845938899E+02  0.00000000000E+00 0. -1.
         25    1    1    2    0    0  0.00000000000E+00  0.00000000000E+00  0.29123849049E+03  0.31693036829E+03  0.12500000000E+03 0.  0.
<mgrwt>
<rscale>  0 0.12500000E+03</rscale>
<asrwt>0</asrwt>
<pdfrwt beam="1">  1       21 0.46782214E-01 0.12500000E+03</pdfrwt>
<pdfrwt beam="2">  1       21 0.19762985E-02 0.12500000E+03</pdfrwt>
<totfact> 0.54077498E+06</totfact>
</mgrwt>
</event>
<event>
 3    1  0.1592492E-001  0.1250000E+03  0.7546771E-02  0.1235069E+00
         21   -1    0    0  502  501  0.00000000000E+00  0.00000000000E+00  0.27342310276E+03  0.27342310276E+03  0.00000000000E+00 0. -1.
         21   -1    0    0  501  502 -0.00000000000E+00 -0.00000000000E+00 -0.14286466507E+02  0.14286466507E+02  0.00000000000E+00 0. -1.
         25    1    1    2    0    0  0.00000000000E+00  0.00000000000E+00  0.25913663626E+03  0.28770956927E+03  0.12500000000E+03 0.  0.
<mgrwt>
<rscale>  0 0.12500000E+03</rscale>
<asrwt>0</asrwt>
<pdfrwt beam="1">  1       21 0.42065089E-01 0.12500000E+03</pdfrwt>
<pdfrwt beam="2">  1       21 0.21979181E-02 0.12500000E+03</pdfrwt>
<totfact> 0.56493279E+06</totfact>
</mgrwt>
</event>
<event>
 3    1  0.1592492E-001  0.1250000E+03  0.7546771E-02  0.1235069E+00
         21   -1    0    0  502  501  0.00000000000E+00  0.00000000000E+00  0.66634112606E+03  0.66634112606E+03  0.00000000000E+00 0.  1.
         21   -1    0    0  501  502 -0.00000000000E+00 -0.00000000000E+00 -0.58622375946E+01  0.58622375946E+01  0.00000000000E+00 0.  1.
         25    1    1    2    0    0  0.00000000000E+00  0.00000000000E+00  0.66047888847E+03  0.67220336366E+03  0.12500000000E+03 0.  0.
<mgrwt>
<rscale>  0 0.12500000E+03</rscale>
<asrwt>0</asrwt>
<pdfrwt beam="1">  1       21 0.10251396E+00 0.12500000E+03</pdfrwt>
<pdfrwt beam="2">  1       21 0.90188323E-03 0.12500000E+03</pdfrwt>
<totfact> 0.34009594E+06</totfact>
</mgrwt>
</event>
<event>
 3    1  0.1592492E-001  0.1250000E+03  0.7546771E-02  0.1235069E+00
         21   -1    0    0  502  501  0.00000000000E+00  0.00000000000E+00  0.16317914230E+03  0.16317914230E+03  0.00000000000E+00 0.  1.
         21   -1    0    0  501  502 -0.00000000000E+00 -0.00000000000E+00 -0.23938414829E+02  0.23938414829E+02  0.00000000000E+00 0.  1.
         25    1    1    2    0    0  0.00000000000E+00  0.00000000000E+00  0.13924072748E+03  0.18711755713E+03  0.12500000000E+03 0.  0.
<mgrwt>
<rscale>  0 0.12500000E+03</rscale>
<asrwt>0</asrwt>
<pdfrwt beam="1">  1       21 0.25104483E-01 0.12500000E+03</pdfrwt>
<pdfrwt beam="2">  1       21 0.36828332E-02 0.12500000E+03</pdfrwt>
<totfact> 0.66344263E+06</totfact>
</mgrwt>
</event>
<event>
 3    1  0.1592492E-001  0.1250000E+03  0.7546771E-02  0.1235069E+00
         21   -1    0    0  502  501  0.00000000000E+00  0.00000000000E+00  0.22890465783E+01  0.22890465783E+01  0.00000000000E+00 0. -1.
         21   -1    0    0  501  502 -0.00000000000E+00 -0.00000000000E+00 -0.17064965113E+04  0.17064965113E+04  0.00000000000E+00 0. -1.
         25    1    1    2    0    0  0.00000000000E+00  0.00000000000E+00 -0.17042074647E+04  0.17087855579E+04  0.12500000000E+03 0.  0.
<mgrwt>
<rscale>  0 0.12500000E+03</rscale>
<asrwt>0</asrwt>
<pdfrwt beam="1">  1       21 0.35216235E-03 0.12500000E+03</pdfrwt>
<pdfrwt beam="2">  1       21 0.26253692E+00 0.12500000E+03</pdfrwt>
<totfact> 0.11160464E+06</totfact>
</mgrwt>
</event>
<event>
 3    1  0.1592492E-001  0.1250000E+03  0.7546771E-02  0.1235069E+00
         21   -1    0    0  502  501  0.00000000000E+00  0.00000000000E+00  0.31399788406E+02  0.31399788406E+02  0.00000000000E+00 0.  1.
         21   -1    0    0  501  502 -0.00000000000E+00 -0.00000000000E+00 -0.12440370456E+03  0.12440370456E+03  0.00000000000E+00 0.  1.
         25    1    1    2    0    0  0.00000000000E+00  0.00000000000E+00 -0.93003916149E+02  0.15580349296E+03  0.12500000000E+03 0.  0.
<mgrwt>
<rscale>  0 0.12500000E+03</rscale>
<asrwt>0</asrwt>
<pdfrwt beam="1">  1       21 0.48307366E-02 0.12500000E+03</pdfrwt>
<pdfrwt beam="2">  1       21 0.19139032E-01 0.12500000E+03</pdfrwt>
<totfact> 0.70035932E+06</totfact>
</mgrwt>
</event>
<event>
 3    1  0.1592492E-001  0.1250000E+03  0.7546771E-02  0.1235069E+00
         21   -1    0    0  502  501  0.00000000000E+00  0.00000000000E+00  0.72214006806E+02  0.72214006806E+02  0.00000000000E+00 0. -1.
         21   -1    0    0  501  502 -0.00000000000E+00 -0.00000000000E+00 -0.54092691609E+02  0.54092691609E+02  0.00000000000E+00 0. -1.
         25    1    1    2    0    0  0.00000000000E+00  0.00000000000E+00  0.18121315197E+02  0.12630669841E+03  0.12500000000E+03 0.  0.
<mgrwt>
<rscale>  0 0.12500000E+03</rscale>
<asrwt>0</asrwt>
<pdfrwt beam="1">  1       21 0.11109847E-01 0.12500000E+03</pdfrwt>
<pdfrwt beam="2">  1       21 0.83219525E-02 0.12500000E+03</pdfrwt>
<totfact> 0.73863860E+06</totfact>
</mgrwt>
</event>
<event>
 3    1  0.1592492E-001  0.1250000E+03  0.7546771E-02  0.1235069E+00
         21   -1    0    0  502  501  0.00000000000E+00  0.00000000000E+00  0.39982516733E+01  0.39982516733E+01  0.00000000000E+00 0.  1.
         21   -1    0    0  501  502 -0.00000000000E+00 -0.00000000000E+00 -0.97698952421E+03  0.97698952421E+03  0.00000000000E+00 0.  1.
         25    1    1    2    0    0  0.00000000000E+00  0.00000000000E+00 -0.97299127254E+03  0.98098777588E+03  0.12500000000E+03 0.  0.
<mgrwt>
<rscale>  0 0.12500000E+03</rscale>
<asrwt>0</asrwt>
<pdfrwt beam="1">  1       21 0.61511589E-03 0.12500000E+03</pdfrwt>
<pdfrwt beam="2">  1       21 0.15030602E+00 0.12500000E+03</pdfrwt>
<totfact> 0.24099705E+06</totfact>
</mgrwt>
</event>
<event>
 3    1  0.1592492E-001  0.1250000E+03  0.7546771E-02  0.1235069E+00
         21   -1    0    0  502  501  0.00000000000E+00  0.00000000000E+00  0.26399334243E+03  0.26399334243E+03  0.00000000000E+00 0. -1.
         21   -1    0    0  501  502 -0.00000000000E+00 -0.00000000000E+00 -0.14796774661E+02  0.14796774661E+02  0.00000000000E+00 0. -1.
         25    1    1    2    0    0  0.00000000000E+00  0.00000000000E+00  0.24919656777E+03  0.27879011709E+03  0.12500000000E+03 0.  0.
<mgrwt>
<rscale>  0 0.12500000E+03</rscale>
<asrwt>0</asrwt>
<pdfrwt beam="1">  1       21 0.40614357E-01 0.12500000E+03</pdfrwt>
<pdfrwt beam="2">  1       21 0.22764271E-02 0.12500000E+03</pdfrwt>
<totfact> 0.57266183E+06</totfact>
</mgrwt>
</event>
<event>
 3    1  0.1592492E-001  0.1250000E+03  0.7546771E-02  0.1235069E+00
         21   -1    0    0  502  501  0.00000000000E+00  0.00000000000E+00  0.24377511362E+02  0.24377511362E+02  0.00000000000E+00 0.  1.
         21   -1    0    0  501  502 -0.00000000000E+00 -0.00000000000E+00 -0.16023990070E+03  0.16023990070E+03  0.00000000000E+00 0.  1.
         25    1    1    2    0    0  0.00000000000E+00  0.00000000000E+00 -0.13586238934E+03  0.18461741206E+03  0.12500000000E+03 0.  0.
<mgrwt>
<rscale>  0 0.12500000E+03</rscale>
<asrwt>0</asrwt>
<pdfrwt beam="1">  1       21 0.37503864E-02 0.12500000E+03</pdfrwt>
<pdfrwt beam="2">  1       21 0.24652292E-01 0.12500000E+03</pdfrwt>
<totfact> 0.66625749E+06</totfact>
</mgrwt>
</event>
<event>
 3    1  0.1592492E-001  0.1250000E+03  0.7546771E-02  0.1235069E+00
         21   -1    0    0  502  501  0.00000000000E+00  0.00000000000E+00  0.46501713822E+01  0.46501713822E+01  0.00000000000E+00 0. -1.
         21   -1    0    0  501  502 -0.00000000000E+00 -0.00000000000E+00 -0.84002280324E+03  0.84002280324E+03  0.00000000000E+00 0. -1.
         25    1    1    2    0    0  0.00000000000E+00  0.00000000000E+00 -0.83537263186E+03  0.84467297463E+03  0.12500000000E+03 0.  0.
<mgrwt>
<rscale>  0 0.12500000E+03</rscale>
<asrwt>0</asrwt>
<pdfrwt beam="1">  1       21 0.71541076E-03 0.12500000E+03</pdfrwt>
<pdfrwt beam="2">  1       21 0.12923432E+00 0.12500000E+03</pdfrwt>
<totfact> 0.27935148E+06</totfact>
</mgrwt>
</event>
<event>
 3    1  0.1592492E-001  0.1250000E+03  0.7546771E-02  0.1235069E+00
         21   -1    0    0  502  501  0.00000000000E+00  0.00000000000E+00  0.10877061370E+03  0.10877061370E+03  0.00000000000E+00 0. -1.
         21   -1    0    0  501  502 -0.00000000000E+00 -0.00000000000E+00 -0.35912732926E+02  0.35912732926E+02  0.00000000000E+00 0. -1.
         25    1    1    2    0    0  0.00000000000E+00  0.00000000000E+00  0.72857880774E+02  0.14468334663E+03  0.12500000000E+03 0.  0.
<mgrwt>
<rscale>  0 0.12500000E+03</rscale>
<asrwt>0</asrwt>
<pdfrwt beam="1">  1       21 0.16733940E-01 0.12500000E+03</pdfrwt>
<pdfrwt beam="2">  1       21 0.55250359E-02 0.12500000E+03</pdfrwt>
<totfact> 0.71433647E+06</totfact>
</mgrwt>
</event>
<event>
 3    1  0.1592492E-001  0.1250000E+03  0.7546771E-02  0.1235069E+00
         21   -1    0    0  502  501  0.00000000000E+00  0.00000000000E+00  0.52210384992E+02  0.52210384992E+02  0.00000000000E+00 0.  1.
         21   -1    0    0  501  502 -0.00000000000E+00 -0.00000000000E+00 -0.74817490823E+02  0.74817490823E+02  0.00000000000E+00 0.  1.
         25    1    1    2    0    0  0.00000000000E+00  0.00000000000E+00 -0.22607105830E+02  0.12702787581E+03  0.12500000000E+03 0.  0.
<mgrwt>
<rscale>  0 0.12500000E+03</rscale>
<asrwt>0</asrwt>
<pdfrwt beam="1">  1       21 0.80323669E-02 0.12500000E+03</pdfrwt>
<pdfrwt beam="2">  1       21 0.11510383E-01 0.12500000E+03</pdfrwt>
<totfact> 0.73765342E+06</totfact>
</mgrwt>
</event>
<event>
 3    1  0.1592492E-001  0.1250000E+03  0.7546771E-02  0.1235069E+00
         21   -1    0    0  502  501  0.00000000000E+00  0.00000000000E+00  0.80346161606E+02  0.80346161606E+02  0.00000000000E+00 0. -1.
         21   -1    0    0  501  502 -0.00000000000E+00 -0.00000000000E+00 -0.48617754998E+02  0.48617754998E+02  0.00000000000E+00 0. -1.
         25    1    1    2    0    0  0.00000000000E+00  0.00000000000E+00  0.31728406608E+02  0.12896391660E+03  0.12500000000E+03 0.  0.
<mgrwt>
<rscale>  0 0.12500000E+03</rscale>
<asrwt>0</asrwt>
<pdfrwt beam="1">  1       21 0.12360948E-01 0.12500000E+03</pdfrwt>
<pdfrwt beam="2">  1       21 0.74796546E-02 0.12500000E+03</pdfrwt>
<totfact> 0.73503727E+06</totfact>
</mgrwt>
</event>
<event>
 3    1  0.1592492E-001  0.1250000E+03  0.7546771E-02  0.1235069E+00
         21   -1    0    0  502  501  0.00000000000E+00  0.00000000000E+00  0.44627114980E+02  0.44627114980E+02  0.00000000000E+00 0.  1.
         21   -1    0    0  501  502 -0.00000000000E+00 -0.00000000000E+00 -0.87530865523E+02  0.87530865523E+02  0.00000000000E+00 0.  1.
         25    1    1    2    0    0  0.00000000000E+00  0.00000000000E+00 -0.42903750544E+02  0.13215798050E+03  0.12500000000E+03 0.  0.
<mgrwt>
<rscale>  0 0.12500000E+03</rscale>
<asrwt>0</asrwt>
<pdfrwt beam="1">  1       21 0.68657100E-02 0.12500000E+03</pdfrwt>
<pdfrwt beam="2">  1       21 0.13466287E-01 0.12500000E+03</pdfrwt>
<totfact> 0.73075046E+06</totfact>
</mgrwt>
</event>
<event>
 3    1  0.1592492E-001  0.1250000E+03  0.7546771E-02  0.1235069E+00
         21   -1    0    0  502  501  0.00000000000E+00  0.00000000000E+00  0.10587857673E+02  0.10587857673E+02  0.00000000000E+00 0. -1.
         21   -1    0    0  501  502 -0.00000000000E+00 -0.00000000000E+00 -0.36893676895E+03  0.36893676895E+03  0.00000000000E+00 0. -1.
         25    1    1    2    0    0  0.00000000000E+00  0.00000000000E+00 -0.35834891128E+03  0.37952462662E+03  0.12500000000E+03 0.  0.
<mgrwt>
<rscale>  0 0.12500000E+03</rscale>
<asrwt>0</asrwt>
<pdfrwt beam="1">  1       21 0.16289010E-02 0.12500000E+03</pdfrwt>
<pdfrwt beam="2">  1       21 0.56759508E-01 0.12500000E+03</pdfrwt>
<totfact> 0.49429174E+06</totfact>
</mgrwt>
</event>
<event>
 3    1  0.1592492E-001  0.1250000E+03  0.7546771E-02  0.1235069E+00
         21   -1    0    0  502  501  0.00000000000E+00  0.00000000000E+00  0.62604738353E+01  0.62604738353E+01  0.00000000000E+00 0. -1.
         21   -1    0    0  501  502 -0.00000000000E+00 -0.00000000000E+00 -0.62395436876E+03  0.62395436876E+03  0.00000000000E+00 0. -1.
         25    1    1    2    0    0  0.00000000000E+00  0.00000000000E+00 -0.61769389492E+03  0.63021484259E+03  0.12500000000E+03 0.  0.
<mgrwt>
<rscale>  0 0.12500000E+03</rscale>
<asrwt>0</asrwt>
<pdfrwt beam="1">  1       21 0.96314983E-03 0.12500000E+03</pdfrwt>
<pdfrwt beam="2">  1       21 0.95992979E-01 0.12500000E+03</pdfrwt>
<totfact> 0.35760896E+06</totfact>
</mgrwt>
</event>
<event>
 3    1  0.1592492E-001  0.1250000E+03  0.7546771E-02  0.1235069E+00
         21   -1    0    0  502  501  0.00000000000E+00  0.00000000000E+00  0.16489940023E+03  0.16489940023E+03  0.00000000000E+00 0. -1.
         21   -1    0    0  501  502 -0.00000000000E+00 -0.00000000000E+00 -0.23688685310E+02  0.23688685310E+02  0.00000000000E+00 0. -1.
         25    1    1    2    0    0  0.00000000000E+00  0.00000000000E+00  0.14121071492E+03  0.18858808554E+03  0.12500000000E+03 0.  0.
<mgrwt>
<rscale>  0 0.12500000E+03</rscale>
<asrwt>0</asrwt>
<pdfrwt beam="1">  1       21 0.25369138E-01 0.12500000E+03</pdfrwt>
<pdfrwt beam="2">  1       21 0.36444132E-02 0.12500000E+03</pdfrwt>
<totfact> 0.66179730E+06</totfact>
</mgrwt>
</event>
<event>
 3    1  0.1592492E-001  0.1250000E+03  0.7546771E-02  0.1235069E+00
         21   -1    0    0  502  501  0.00000000000E+00  0.00000000000E+00  0.21437378223E+04  0.21437378223E+04  0.00000000000E+00 0. -1.
         21   -1    0    0  501  502 -0.00000000000E+00 -0.00000000000E+00 -0.18221677853E+01  0.18221677853E+01  0.00000000000E+00 0. -1.
         25    1    1    2    0    0  0.00000000000E+00  0.00000000000E+00  0.21419156545E+04  0.21455599901E+04  0.12500000000E+03 0.  0.
<mgrwt>
<rscale>  0 0.12500000E+03</rscale>
<asrwt>0</asrwt>
<pdfrwt beam="1">  1       21 0.32980380E+00 0.12500000E+03</pdfrwt>
<pdfrwt beam="2">  1       21 0.28033522E-03 0.12500000E+03</pdfrwt>
<totfact> 0.66139730E+05</totfact>
</mgrwt>
</event>
<event>
 3    1  0.1592492E-001  0.1250000E+03  0.7546771E-02  0.1235069E+00
         21   -1    0    0  502  501  0.00000000000E+00  0.00000000000E+00  0.30176473994E+03  0.30176473994E+03  0.00000000000E+00 0. -1.
         21   -1    0    0  501  502 -0.00000000000E+00 -0.00000000000E+00 -0.12944686648E+02  0.12944686648E+02  0.00000000000E+00 0. -1.
         25    1    1    2    0    0  0.00000000000E+00  0.00000000000E+00  0.28882005329E+03  0.31470942659E+03  0.12500000000E+03 0.  0.
<mgrwt>
<rscale>  0 0.12500000E+03</rscale>
<asrwt>0</asrwt>
<pdfrwt beam="1">  1       21 0.46425339E-01 0.12500000E+03</pdfrwt>
<pdfrwt beam="2">  1       21 0.19914905E-02 0.12500000E+03</pdfrwt>
<totfact> 0.54255277E+06</totfact>
</mgrwt>
</event>
<event>
 3    1  0.1592492E-001  0.1250000E+03  0.7546771E-02  0.1235069E+00
         21   -1    0    0  502  501  0.00000000000E+00  0.00000000000E+00  0.63004769924E+03  0.63004769924E+03  0.00000000000E+00 0. -1.
         21   -1    0    0  501  502 -0.00000000000E+00 -0.00000000000E+00 -0.61999274098E+01  0.61999274098E+01  0.00000000000E+00 0. -1.
         25    1    1    2    0    0  0.00000000000E+00  0.00000000000E+00  0.62384777183E+03  0.63624762665E+03  0.12500000000E+03 0.  0.
<mgrwt>
<rscale>  0 0.12500000E+03</rscale>
<asrwt>0</asrwt>
<pdfrwt beam="1">  1       21 0.96930365E-01 0.12500000E+03</pdfrwt>
<pdfrwt beam="2">  1       21 0.95383548E-03 0.12500000E+03</pdfrwt>
<totfact> 0.35503046E+06</totfact>
</mgrwt>
</event>
<event>
 3    1  0.1592492E-001  0.1250000E+03  0.7546771E-02  0.1235069E+00
         21   -1    0    0  502  501  0.00000000000E+00  0.00000000000E+00  0.61513243840E+02  0.61513243840E+02  0.00000000000E+00 0. -1.
         21   -1    0    0  501  502 -0.00000000000E+00 -0.00000000000E+00 -0.63502585072E+02  0.63502585072E+02  0.00000000000E+00 0. -1.
         25    1    1    2    0    0  0.00000000000E+00  0.00000000000E+00 -0.19893412314E+01  0.12501582891E+03  0.12500000000E+03 0.  0.
<mgrwt>
<rscale>  0 0.12500000E+03</rscale>
<asrwt>0</asrwt>
<pdfrwt beam="1">  1       21 0.94635760E-02 0.12500000E+03</pdfrwt>
<pdfrwt beam="2">  1       21 0.97696285E-02 0.12500000E+03</pdfrwt>
<totfact> 0.74041443E+06</totfact>
</mgrwt>
</event>
<event>
 3    1  0.1592492E-001  0.1250000E+03  0.7546771E-02  0.1235069E+00
         21   -1    0    0  502  501  0.00000000000E+00  0.00000000000E+00  0.63091252830E+03  0.63091252830E+03  0.00000000000E+00 0.  1.
         21   -1    0    0  501  502 -0.00000000000E+00 -0.00000000000E+00 -0.61914288032E+01  0.61914288032E+01  0.00000000000E+00 0.  1.
         25    1    1    2    0    0  0.00000000000E+00  0.00000000000E+00  0.62472109949E+03  0.63710395710E+03  0.12500000000E+03 0.  0.
<mgrwt>
<rscale>  0 0.12500000E+03</rscale>
<asrwt>0</asrwt>
<pdfrwt beam="1">  1       21 0.97063415E-01 0.12500000E+03</pdfrwt>
<pdfrwt beam="2">  1       21 0.95252800E-03 0.12500000E+03</pdfrwt>
<totfact> 0.35466637E+06</totfact>
</mgrwt>
</event>
<event>
 3    1  0.1592492E-001  0.1250000E+03  0.7546771E-02  0.1235069E+00
         21   -1    0    0  502  501  0.00000000000E+00  0.00000000000E+00  0.24496404483E+02  0.24496404483E+02  0.00000000000E+00 0.  1.
         21   -1    0    0  501  502 -0.00000000000E+00 -0.00000000000E+00 -0.15946217751E+03  0.15946217751E+03  0.00000000000E+00 0.  1.
         25    1    1    2    0    0  0.00000000000E+00  0.00000000000E+00 -0.13496577302E+03  0.18395858199E+03  0.12500000000E+03 0.  0.
<mgrwt>
<rscale>  0 0.12500000E+03</rscale>
<asrwt>0</asrwt>
<pdfrwt beam="1">  1       21 0.37686777E-02 0.12500000E+03</pdfrwt>
<pdfrwt beam="2">  1       21 0.24532642E-01 0.12500000E+03</pdfrwt>
<totfact> 0.66700297E+06</totfact>
</mgrwt>
</event>
<event>
 3    1  0.1592492E-001  0.1250000E+03  0.7546771E-02  0.1235069E+00
         21   -1    0    0  502  501  0.00000000000E+00  0.00000000000E+00  0.22339086427E+03  0.22339086427E+03  0.00000000000E+00 0.  1.
         21   -1    0    0  501  502 -0.00000000000E+00 -0.00000000000E+00 -0.17486167184E+02  0.17486167184E+02  0.00000000000E+00 0.  1.
         25    1    1    2    0    0  0.00000000000E+00  0.00000000000E+00  0.20590469709E+03  0.24087703146E+03  0.12500000000E+03 0.  0.
<mgrwt>
<rscale>  0 0.12500000E+03</rscale>
<asrwt>0</asrwt>
<pdfrwt beam="1">  1       21 0.34367823E-01 0.12500000E+03</pdfrwt>
<pdfrwt beam="2">  1       21 0.26901797E-02 0.12500000E+03</pdfrwt>
<totfact> 0.60747898E+06</totfact>
</mgrwt>
</event>
<event>
 3    1  0.1592492E-001  0.1250000E+03  0.7546771E-02  0.1235069E+00
         21   -1    0    0  502  501  0.00000000000E+00  0.00000000000E+00  0.11485643090E+02  0.11485643090E+02  0.00000000000E+00 0.  1.
         21   -1    0    0  501  502 -0.00000000000E+00 -0.00000000000E+00 -0.34009850119E+03  0.34009850119E+03  0.00000000000E+00 0.  1.
         25    1    1    2    0    0  0.00000000000E+00  0.00000000000E+00 -0.32861285810E+03  0.35158414428E+03  0.12500000000E+03 0.  0.
<mgrwt>
<rscale>  0 0.12500000E+03</rscale>
<asrwt>0</asrwt>
<pdfrwt beam="1">  1       21 0.17670220E-02 0.12500000E+03</pdfrwt>
<pdfrwt beam="2">  1       21 0.52322848E-01 0.12500000E+03</pdfrwt>
<totfact> 0.51421650E+06</totfact>
</mgrwt>
</event>
<event>
 3    1  0.1592492E-001  0.1250000E+03  0.7546771E-02  0.1235069E+00
         21   -1    0    0  502  501  0.00000000000E+00  0.00000000000E+00  0.48396713833E+03  0.48396713833E+03  0.00000000000E+00 0. -1.
         21   -1    0    0  501  502 -0.00000000000E+00 -0.00000000000E+00 -0.80713124727E+01  0.80713124727E+01  0.00000000000E+00 0. -1.
         25    1    1    2    0    0  0.00000000000E+00  0.00000000000E+00  0.47589582586E+03  0.49203845081E+03  0.12500000000E+03 0.  0.
<mgrwt>
<rscale>  0 0.12500000E+03</rscale>
<asrwt>0</asrwt>
<pdfrwt beam="1">  1       21 0.74456460E-01 0.12500000E+03</pdfrwt>
<pdfrwt beam="2">  1       21 0.12417408E-02 0.12500000E+03</pdfrwt>
<totfact> 0.42479168E+06</totfact>
</mgrwt>
</event>
<event>
 3    1  0.1592492E-001  0.1250000E+03  0.7546771E-02  0.1235069E+00
         21   -1    0    0  502  501  0.00000000000E+00  0.00000000000E+00  0.10727603821E+03  0.10727603821E+03  0.00000000000E+00 0. -1.
         21   -1    0    0  501  502 -0.00000000000E+00 -0.00000000000E+00 -0.36413071038E+02  0.36413071038E+02  0.00000000000E+00 0. -1.
         25    1    1    2    0    0  0.00000000000E+00  0.00000000000E+00  0.70862967173E+02  0.14368910925E+03  0.12500000000E+03 0.  0.
<mgrwt>
<rscale>  0 0.12500000E+03</rscale>
<asrwt>0</asrwt>
<pdfrwt beam="1">  1       21 0.16504006E-01 0.12500000E+03</pdfrwt>
<pdfrwt beam="2">  1       21 0.56020110E-02 0.12500000E+03</pdfrwt>
<totfact> 0.71561286E+06</totfact>
</mgrwt>
</event>
<event>
 3    1  0.1592492E-001  0.1250000E+03  0.7546771E-02  0.1235069E+00
         21   -1    0    0  502  501  0.00000000000E+00  0.00000000000E+00  0.35482780180E+02  0.35482780180E+02  0.00000000000E+00 0.  1.
         21   -1    0    0  501  502 -0.00000000000E+00 -0.00000000000E+00 -0.11008861144E+03  0.11008861144E+03  0.00000000000E+00 0.  1.
         25    1    1    2    0    0  0.00000000000E+00  0.00000000000E+00 -0.74605831258E+02  0.14557139162E+03  0.12500000000E+03 0.  0.
<mgrwt>
<rscale>  0 0.12500000E+03</rscale>
<asrwt>0</asrwt>
<pdfrwt beam="1">  1       21 0.54588894E-02 0.12500000E+03</pdfrwt>
<pdfrwt beam="2">  1       21 0.16936709E-01 0.12500000E+03</pdfrwt>
<totfact> 0.71320055E+06</totfact>
</mgrwt>
</event>
<event>
 3    1  0.1592492E-001  0.1250000E+03  0.7546771E-02  0.1235069E+00
         21   -1    0    0  502  501  0.00000000000E+00  0.00000000000E+00  0.14988596022E+04  0.14988596022E+04  0.00000000000E+00 0.  1.
         21   -1    0    0  501  502 -0.00000000000E+00 -0.00000000000E+00 -0.26061480302E+01  0.26061480302E+01  0.00000000000E+00 0.  1.
         25    1    1    2    0    0  0.00000000000E+00  0.00000000000E+00  0.14962534542E+04  0.15014657503E+04  0.12500000000E+03 0.  0.
<mgrwt>
<rscale>  0 0.12500000E+03</rscale>
<asrwt>0</asrwt>
<pdfrwt beam="1">  1       21 0.23059310E+00 0.12500000E+03</pdfrwt>
<pdfrwt beam="2">  1       21 0.40094705E-03 0.12500000E+03</pdfrwt>
<totfact> 0.13971398E+06</totfact>
</mgrwt>
</event>
<event>
 3    1  0.1592492E-001  0.1250000E+03  0.7546771E-02  0.1235069E+00
         21   -1    0    0  502  501  0.00000000000E+00  0.00000000000E+00  0.22760948894E+02  0.22760948894E+02  0.00000000000E+00 0.  1.
         21   -1    0    0  501  502 -0.00000000000E+00 -0.00000000000E+00 -0.17162070080E+03  0.17162070080E+03  0.00000000000E+00 0.  1.
         25    1    1    2    0    0  0.00000000000E+00  0.00000000000E+00 -0.14885975191E+03  0.19438164969E+03  0.12500000000E+03 0.  0.
<mgrwt>
<rscale>  0 0.12500000E+03</rscale>
<asrwt>0</asrwt>
<pdfrwt beam="1">  1       21 0.35016845E-02 0.12500000E+03</pdfrwt>
<pdfrwt beam="2">  1       21 0.26403184E-01 0.12500000E+03</pdfrwt>
<totfact> 0.65538763E+06</totfact>
</mgrwt>
</event>
<event>
 3    1  0.1592492E-001  0.1250000E+03  0.7546771E-02  0.1235069E+00
         21   -1    0    0  502  501  0.00000000000E+00  0.00000000000E+00  0.20756047778E+02  0.20756047778E+02  0.00000000000E+00 0.  1.
         21   -1    0    0  501  502 -0.00000000000E+00 -0.00000000000E+00 -0.18819815997E+03  0.18819815997E+03  0.00000000000E+00 0.  1.
         25    1    1    2    0    0  0.00000000000E+00  0.00000000000E+00 -0.16744211219E+03  0.20895420775E+03  0.12500000000E+03 0.  0.
<mgrwt>
<rscale>  0 0.12500000E+03</rscale>
<asrwt>0</asrwt>
<pdfrwt beam="1">  1       21 0.31932381E-02 0.12500000E+03</pdfrwt>
<pdfrwt beam="2">  1       21 0.28953564E-01 0.12500000E+03</pdfrwt>
<totfact> 0.63969733E+06</totfact>
</mgrwt>
</event>
<event>
 3    1  0.1592492E-001  0.1250000E+03  0.7546771E-02  0.1235069E+00
         21   -1    0    0  502  501  0.00000000000E+00  0.00000000000E+00  0.10356180567E+02  0.10356180567E+02  0.00000000000E+00 0. -1.
         21   -1    0    0  501  502 -0.00000000000E+00 -0.00000000000E+00 -0.37719021743E+03  0.37719021743E+03  0.00000000000E+00 0. -1.
         25    1    1    2    0    0  0.00000000000E+00  0.00000000000E+00 -0.36683403686E+03  0.38754639800E+03  0.12500000000E+03 0.  0.
<mgrwt>
<rscale>  0 0.12500000E+03</rscale>
<asrwt>0</asrwt>
<pdfrwt beam="1">  1       21 0.15932589E-02 0.12500000E+03</pdfrwt>
<pdfrwt beam="2">  1       21 0.58029253E-01 0.12500000E+03</pdfrwt>
<totfact> 0.48878509E+06</totfact>
</mgrwt>
</event>
<event>
 3    1  0.1592492E-001  0.1250000E+03  0.7546771E-02  0.1235069E+00
         21   -1    0    0  502  501  0.00000000000E+00  0.00000000000E+00  0.11339513561E+04  0.11339513561E+04  0.00000000000E+00 0.  1.
         21   -1    0    0  501  502 -0.00000000000E+00 -0.00000000000E+00 -0.34448126713E+01  0.34448126713E+01  0.00000000000E+00 0.  1.
         25    1    1    2    0    0  0.00000000000E+00  0.00000000000E+00  0.11305065434E+04  0.11373961687E+04  0.12500000000E+03 0.  0.
<mgrwt>
<rscale>  0 0.12500000E+03</rscale>
<asrwt>0</asrwt>
<pdfrwt beam="1">  1       21 0.17445376E+00 0.12500000E+03</pdfrwt>
<pdfrwt beam="2">  1       21 0.52997209E-03 0.12500000E+03</pdfrwt>
<totfact> 0.20437304E+06</totfact>
</mgrwt>
</event>
<event>
 3    1  0.1592492E-001  0.1250000E+03  0.7546771E-02  0.1235069E+00
         21   -1    0    0  502  501  0.00000000000E+00  0.00000000000E+00  0.31475283040E+03  0.31475283040E+03  0.00000000000E+00 0. -1.
         21   -1    0    0  501  502 -0.00000000000E+00 -0.00000000000E+00 -0.12410531766E+02  0.12410531766E+02  0.00000000000E+00 0. -1.
         25    1    1    2    0    0  0.00000000000E+00  0.00000000000E+00  0.30234229863E+03  0.32716336217E+03  0.12500000000E+03 0.  0.
<mgrwt>
<rscale>  0 0.12500000E+03</rscale>
<asrwt>0</asrwt>
<pdfrwt beam="1">  1       21 0.48423506E-01 0.12500000E+03</pdfrwt>
<pdfrwt beam="2">  1       21 0.19093128E-02 0.12500000E+03</pdfrwt>
<totfact> 0.53270523E+06</totfact>
</mgrwt>
</event>
<event>
 3    1  0.1592492E-001  0.1250000E+03  0.7546771E-02  0.1235069E+00
         21   -1    0    0  502  501  0.00000000000E+00  0.00000000000E+00  0.50916330811E+02  0.50916330811E+02  0.00000000000E+00 0. -1.
         21   -1    0    0  501  502 -0.00000000000E+00 -0.00000000000E+00 -0.76719000324E+02  0.76719000324E+02  0.00000000000E+00 0. -1.
         25    1    1    2    0    0  0.00000000000E+00  0.00000000000E+00 -0.25802669513E+02  0.12763533114E+03  0.12500000000E+03 0.  0.
<mgrwt>
<rscale>  0 0.12500000E+03</rscale>
<asrwt>0</asrwt>
<pdfrwt beam="1">  1       21 0.78332817E-02 0.12500000E+03</pdfrwt>
<pdfrwt beam="2">  1       21 0.11802923E-01 0.12500000E+03</pdfrwt>
<totfact> 0.73682882E+06</totfact>
</mgrwt>
</event>
<event>
 3    1  0.1592492E-001  0.1250000E+03  0.7546771E-02  0.1235069E+00
         21   -1    0    0  502  501  0.00000000000E+00  0.00000000000E+00  0.13513657005E+03  0.13513657005E+03  0.00000000000E+00 0. -1.
         21   -1    0    0  501  502 -0.00000000000E+00 -0.00000000000E+00 -0.28905943066E+02  0.28905943066E+02  0.00000000000E+00 0. -1.
         25    1    1    2    0    0  0.00000000000E+00  0.00000000000E+00  0.10623062698E+03  0.16404251311E+03  0.12500000000E+03 0.  0.
<mgrwt>
<rscale>  0 0.12500000E+03</rscale>
<asrwt>0</asrwt>
<pdfrwt beam="1">  1       21 0.20790241E-01 0.12500000E+03</pdfrwt>
<pdfrwt beam="2">  1       21 0.44470682E-02 0.12500000E+03</pdfrwt>
<totfact> 0.69028888E+06</totfact>
</mgrwt>
</event>
<event>
 3    1  0.1592492E-001  0.1250000E+03  0.7546771E-02  0.1235069E+00
         21   -1    0    0  502  501  0.00000000000E+00  0.00000000000E+00  0.41747153519E+02  0.41747153519E+02  0.00000000000E+00 0. -1.
         21   -1    0    0  501  502 -0.00000000000E+00 -0.00000000000E+00 -0.93569253726E+02  0.93569253726E+02  0.00000000000E+00 0. -1.
         25    1    1    2    0    0  0.00000000000E+00  0.00000000000E+00 -0.51822100207E+02  0.13531640725E+03  0.12500000000E+03 0.  0.
<mgrwt>
<rscale>  0 0.12500000E+03</rscale>
<asrwt>0</asrwt>
<pdfrwt beam="1">  1       21 0.64226391E-02 0.12500000E+03</pdfrwt>
<pdfrwt beam="2">  1       21 0.14395270E-01 0.12500000E+03</pdfrwt>
<totfact> 0.72654605E+06</totfact>
</mgrwt>
</event>
<event>
 3    1  0.1592492E-001  0.1250000E+03  0.7546771E-02  0.1235069E+00
         21   -1    0    0  502  501  0.00000000000E+00  0.00000000000E+00  0.16890657679E+03  0.16890657679E+03  0.00000000000E+00 0.  1.
         21   -1    0    0  501  502 -0.00000000000E+00 -0.00000000000E+00 -0.23126689761E+02  0.23126689761E+02  0.00000000000E+00 0.  1.
         25    1    1    2    0    0  0.00000000000E+00  0.00000000000E+00  0.14577988703E+03  0.19203326655E+03  0.12500000000E+03 0.  0.
<mgrwt>
<rscale>  0 0.12500000E+03</rscale>
<asrwt>0</asrwt>
<pdfrwt beam="1">  1       21 0.25985626E-01 0.12500000E+03</pdfrwt>
<pdfrwt beam="2">  1       21 0.35579524E-02 0.12500000E+03</pdfrwt>
<totfact> 0.65797196E+06</totfact>
</mgrwt>
</event>
<event>
 3    1  0.1592492E-001  0.1250000E+03  0.7546771E-02  0.1235069E+00
         21   -1    0    0  502  501  0.00000000000E+00  0.00000000000E+00  0.34810821185E+01  0.34810821185E+01  0.00000000000E+00 0. -1.
         21   -1    0    0  501  502 -0.00000000000E+00 -0.00000000000E+00 -0.11221366997E+04  0.11221366997E+04  0.00000000000E+00 0. -1.
         25    1    1    2    0    0  0.00000000000E+00  0.00000000000E+00 -0.11186556176E+04  0.11256177819E+04  0.12500000000E+03 0.  0.
<mgrwt>
<rscale>  0 0.12500000E+03</rscale>
<asrwt>0</asrwt>
<pdfrwt beam="1">  1       21 0.53555018E-03 0.12500000E+03</pdfrwt>
<pdfrwt beam="2">  1       21 0.17263671E+00 0.12500000E+03</pdfrwt>
<totfact> 0.20690455E+06</totfact>
</mgrwt>
</event>
<event>
 3    1  0.1592492E-001  0.1250000E+03  0.7546771E-02  0.1235069E+00
         21   -1    0    0  502  501  0.00000000000E+00  0.00000000000E+00  0.22848527771E+03  0.22848527771E+03  0.00000000000E+00 0. -1.
         21   -1    0    0  501  502 -0.00000000000E+00 -0.00000000000E+00 -0.17096287512E+02  0.17096287512E+02  0.00000000000E+00 0. -1.
         25    1    1    2    0    0  0.00000000000E+00  0.00000000000E+00  0.21138899019E+03  0.24558156522E+03  0.12500000000E+03 0.  0.
<mgrwt>
<rscale>  0 0.12500000E+03</rscale>
<asrwt>0</asrwt>
<pdfrwt beam="1">  1       21 0.35151579E-01 0.12500000E+03</pdfrwt>
<pdfrwt beam="2">  1       21 0.26301982E-02 0.12500000E+03</pdfrwt>
<totfact> 0.60296691E+06</totfact>
</mgrwt>
</event>
<event>
 3    1  0.1592492E-001  0.1250000E+03  0.7546771E-02  0.1235069E+00
         21   -1    0    0  502  501  0.00000000000E+00  0.00000000000E+00  0.76167884470E+02  0.76167884470E+02  0.00000000000E+00 0.  1.
         21   -1    0    0  501  502 -0.00000000000E+00 -0.00000000000E+00 -0.51284738012E+02  0.51284738012E+02  0.00000000000E+00 0.  1.
         25    1    1    2    0    0  0.00000000000E+00  0.00000000000E+00  0.24883146458E+02  0.12745262248E+03  0.12500000000E+03 0.  0.
<mgrwt>
<rscale>  0 0.12500000E+03</rscale>
<asrwt>0</asrwt>
<pdfrwt beam="1">  1       21 0.11718136E-01 0.12500000E+03</pdfrwt>
<pdfrwt beam="2">  1       21 0.78899597E-02 0.12500000E+03</pdfrwt>
<totfact> 0.73707642E+06</totfact>
</mgrwt>
</event>
<event>
 3    1  0.1592492E-001  0.1250000E+03  0.7546771E-02  0.1235069E+00
         21   -1    0    0  502  501  0.00000000000E+00  0.00000000000E+00  0.47589743923E+01  0.47589743923E+01  0.00000000000E+00 0. -1.
         21   -1    0    0  501  502 -0.00000000000E+00 -0.00000000000E+00 -0.82081761278E+03  0.82081761278E+03  0.00000000000E+00 0. -1.
         25    1    1    2    0    0  0.00000000000E+00  0.00000000000E+00 -0.81605863839E+03  0.82557658717E+03  0.12500000000E+03 0.  0.
<mgrwt>
<rscale>  0 0.12500000E+03</rscale>
<asrwt>0</asrwt>
<pdfrwt beam="1">  1       21 0.73215049E-03 0.12500000E+03</pdfrwt>
<pdfrwt beam="2">  1       21 0.12627953E+00 0.12500000E+03</pdfrwt>
<totfact> 0.28532778E+06</totfact>
</mgrwt>
</event>
<event>
 3    1  0.1592492E-001  0.1250000E+03  0.7546771E-02  0.1235069E+00
         21   -1    0    0  502  501  0.00000000000E+00  0.00000000000E+00  0.10523093004E+02  0.10523093004E+02  0.00000000000E+00 0.  1.
         21   -1    0    0  501  502 -0.00000000000E+00 -0.00000000000E+00 -0.37120740058E+03  0.37120740058E+03  0.00000000000E+00 0.  1.
         25    1    1    2    0    0  0.00000000000E+00  0.00000000000E+00 -0.36068430758E+03  0.38173049358E+03  0.12500000000E+03 0.  0.
<mgrwt>
<rscale>  0 0.12500000E+03</rscale>
<asrwt>0</asrwt>
<pdfrwt beam="1">  1       21 0.16189374E-02 0.12500000E+03</pdfrwt>
<pdfrwt beam="2">  1       21 0.57108829E-01 0.12500000E+03</pdfrwt>
<totfact> 0.49277081E+06</totfact>
</mgrwt>
</event>
<event>
 3    1  0.1592492E-001  0.1250000E+03  0.7546771E-02  0.1235069E+00
         21   -1    0    0  502  501  0.00000000000E+00  0.00000000000E+00  0.11748008613E+02  0.11748008613E+02  0.00000000000E+00 0.  1.
         21   -1    0    0  501  502 -0.00000000000E+00 -0.00000000000E+00 -0.33250316107E+03  0.33250316107E+03  0.00000000000E+00 0.  1.
         25    1    1    2    0    0  0.00000000000E+00  0.00000000000E+00 -0.32075515246E+03  0.34425116968E+03  0.12500000000E+03 0.  0.
<mgrwt>
<rscale>  0 0.12500000E+03</rscale>
<asrwt>0</asrwt>
<pdfrwt beam="1">  1       21 0.18073858E-02 0.12500000E+03</pdfrwt>
<pdfrwt beam="2">  1       21 0.51154337E-01 0.12500000E+03</pdfrwt>
<totfact> 0.51965819E+06</totfact>
</mgrwt>
</event>
<event>
 3    1  0.1592492E-001  0.1250000E+03  0.7546771E-02  0.1235069E+00
         21   -1    0    0  502  501  0.00000000000E+00  0.00000000000E+00  0.76107443993E+02  0.76107443993E+02  0.00000000000E+00 0.  1.
         21   -1    0    0  501  502 -0.00000000000E+00 -0.00000000000E+00 -0.51325465619E+02  0.51325465619E+02  0.00000000000E+00 0.  1.
         25    1    1    2    0    0  0.00000000000E+00  0.00000000000E+00  0.24781978374E+02  0.12743290961E+03  0.12500000000E+03 0.  0.
<mgrwt>
<rscale>  0 0.12500000E+03</rscale>
<asrwt>0</asrwt>
<pdfrwt beam="1">  1       21 0.11708838E-01 0.12500000E+03</pdfrwt>
<pdfrwt beam="2">  1       21 0.78962254E-02 0.12500000E+03</pdfrwt>
<totfact> 0.73710315E+06</totfact>
</mgrwt>
</event>
<event>
 3    1  0.1592492E-001  0.1250000E+03  0.7546771E-02  0.1235069E+00
         21   -1    0    0  502  501  0.00000000000E+00  0.00000000000E+00  0.30966418014E+03  0.30966418014E+03  0.00000000000E+00 0.  1.
         21   -1    0    0  501  502 -0.00000000000E+00 -0.00000000000E+00 -0.12614471581E+02  0.12614471581E+02  0.00000000000E+00 0.  1.
         25    1    1    2    0    0  0.00000000000E+00  0.00000000000E+00  0.29704970856E+03  0.32227865172E+03  0.12500000000E+03 0.  0.
<mgrwt>
<rscale>  0 0.12500000E+03</rscale>
<asrwt>0</asrwt>
<pdfrwt beam="1">  1       21 0.47640637E-01 0.12500000E+03</pdfrwt>
<pdfrwt beam="2">  1       21 0.19406882E-02 0.12500000E+03</pdfrwt>
<totfact> 0.53653266E+06</totfact>
</mgrwt>
</event>
<event>
 3    1  0.1592492E-001  0.1250000E+03  0.7546771E-02  0.1235069E+00
         21   -1    0    0  502  501  0.00000000000E+00  0.00000000000E+00  0.65733288068E+02  0.65733288068E+02  0.00000000000E+00 0.  1.
         21   -1    0    0  501  502 -0.00000000000E+00 -0.00000000000E+00 -0.59425750861E+02  0.59425750861E+02  0.00000000000E+00 0.  1.
         25    1    1    2    0    0  0.00000000000E+00  0.00000000000E+00  0.63075372067E+01  0.12515903893E+03  0.12500000000E+03 0.  0.
<mgrwt>
<rscale>  0 0.12500000E+03</rscale>
<asrwt>0</asrwt>
<pdfrwt beam="1">  1       21 0.10112814E-01 0.12500000E+03</pdfrwt>
<pdfrwt beam="2">  1       21 0.91424232E-02 0.12500000E+03</pdfrwt>
<totfact> 0.74022103E+06</totfact>
</mgrwt>
</event>
<event>
 3    1  0.1592492E-001  0.1250000E+03  0.7546771E-02  0.1235069E+00
         21   -1    0    0  502  501  0.00000000000E+00  0.00000000000E+00  0.12234018571E+02  0.12234018571E+02  0.00000000000E+00 0. -1.
         21   -1    0    0  501  502 -0.00000000000E+00 -0.00000000000E+00 -0.31929410418E+03  0.31929410418E+03  0.00000000000E+00 0. -1.
         25    1    1    2    0    0  0.00000000000E+00  0.00000000000E+00 -0.30706008561E+03  0.33152812275E+03  0.12500000000E+03 0.  0.
<mgrwt>
<rscale>  0 0.12500000E+03</rscale>
<asrwt>0</asrwt>
<pdfrwt beam="1">  1       21 0.18821565E-02 0.12500000E+03</pdfrwt>
<pdfrwt beam="2">  1       21 0.49122174E-01 0.12500000E+03</pdfrwt>
<totfact> 0.52932255E+06</totfact>
</mgrwt>
</event>
<event>
 3    1  0.1592492E-001  0.1250000E+03  0.7546771E-02  0.1235069E+00
         21   -1    0    0  502  501  0.00000000000E+00  0.00000000000E+00  0.15036519029E+03  0.15036519029E+03  0.00000000000E+00 0.  1.
         21   -1    0    0  501  502 -0.00000000000E+00 -0.00000000000E+00 -0.25978419556E+02  0.25978419556E+02  0.00000000000E+00 0.  1.
         25    1    1    2    0    0  0.00000000000E+00  0.00000000000E+00  0.12438677074E+03  0.17634360985E+03  0.12500000000E+03 0.  0.
<mgrwt>
<rscale>  0 0.12500000E+03</rscale>
<asrwt>0</asrwt>
<pdfrwt beam="1">  1       21 0.23133106E-01 0.12500000E+03</pdfrwt>
<pdfrwt beam="2">  1       21 0.39966800E-02 0.12500000E+03</pdfrwt>
<totfact> 0.67573482E+06</totfact>
</mgrwt>
</event>
<event>
 3    1  0.1592492E-001  0.1250000E+03  0.7546771E-02  0.1235069E+00
         21   -1    0    0  502  501  0.00000000000E+00  0.00000000000E+00  0.40404734424E+01  0.40404734424E+01  0.00000000000E+00 0. -1.
         21   -1    0    0  501  502 -0.00000000000E+00 -0.00000000000E+00 -0.96678026863E+03  0.96678026863E+03  0.00000000000E+00 0. -1.
         25    1    1    2    0    0  0.00000000000E+00  0.00000000000E+00 -0.96273979519E+03  0.97082074207E+03  0.12500000000E+03 0.  0.
<mgrwt>
<rscale>  0 0.12500000E+03</rscale>
<asrwt>0</asrwt>
<pdfrwt beam="1">  1       21 0.62161155E-03 0.12500000E+03</pdfrwt>
<pdfrwt beam="2">  1       21 0.14873537E+00 0.12500000E+03</pdfrwt>
<totfact> 0.24362132E+06</totfact>
</mgrwt>
</event>
<event>
 3    1  0.1592492E-001  0.1250000E+03  0.7546771E-02  0.1235069E+00
         21   -1    0    0  502  501  0.00000000000E+00  0.00000000000E+00  0.19081099792E+03  0.19081099792E+03  0.00000000000E+00 0.  1.
         21   -1    0    0  501  502 -0.00000000000E+00 -0.00000000000E+00 -0.20471828368E+02  0.20471828368E+02  0.00000000000E+00 0.  1.
         25    1    1    2    0    0  0.00000000000E+00  0.00000000000E+00  0.17033916955E+03  0.21128282628E+03  0.12500000000E+03 0.  0.
<mgrwt>
<rscale>  0 0.12500000E+03</rscale>
<asrwt>0</asrwt>
<pdfrwt beam="1">  1       21 0.29355537E-01 0.12500000E+03</pdfrwt>
<pdfrwt beam="2">  1       21 0.31495122E-02 0.12500000E+03</pdfrwt>
<totfact> 0.63724821E+06</totfact>
</mgrwt>
</event>
<event>
 3    1  0.1592492E-001  0.1250000E+03  0.7546771E-02  0.1235069E+00
         21   -1    0    0  502  501  0.00000000000E+00  0.00000000000E+00  0.44727020159E+02  0.44727020159E+02  0.00000000000E+00 0. -1.
         21   -1    0    0  501  502 -0.00000000000E+00 -0.00000000000E+00 -0.87335350894E+02  0.87335350894E+02  0.00000000000E+00 0. -1.
         25    1    1    2    0    0  0.00000000000E+00  0.00000000000E+00 -0.42608330735E+02  0.13206237105E+03  0.12500000000E+03 0.  0.
<mgrwt>
<rscale>  0 0.12500000E+03</rscale>
<asrwt>0</asrwt>
<pdfrwt beam="1">  1       21 0.68810801E-02 0.12500000E+03</pdfrwt>
<pdfrwt beam="2">  1       21 0.13436208E-01 0.12500000E+03</pdfrwt>
<totfact> 0.73087864E+06</totfact>
</mgrwt>
</event>
<event>
 3    1  0.1592492E-001  0.1250000E+03  0.7546771E-02  0.1235069E+00
         21   -1    0    0  502  501  0.00000000000E+00  0.00000000000E+00  0.96859548753E+02  0.96859548753E+02  0.00000000000E+00 0. -1.
         21   -1    0    0  501  502 -0.00000000000E+00 -0.00000000000E+00 -0.40329012992E+02  0.40329012992E+02  0.00000000000E+00 0. -1.
         25    1    1    2    0    0  0.00000000000E+00  0.00000000000E+00  0.56530535761E+02  0.13718856174E+03  0.12500000000E+03 0.  0.
<mgrwt>
<rscale>  0 0.12500000E+03</rscale>
<asrwt>0</asrwt>
<pdfrwt beam="1">  1       21 0.14901469E-01 0.12500000E+03</pdfrwt>
<pdfrwt beam="2">  1       21 0.62044636E-02 0.12500000E+03</pdfrwt>
<totfact> 0.72407969E+06</totfact>
</mgrwt>
</event>
<event>
 3    1  0.1592492E-001  0.1250000E+03  0.7546771E-02  0.1235069E+00
         21   -1    0    0  502  501  0.00000000000E+00  0.00000000000E+00  0.26214406611E+03  0.26214406611E+03  0.00000000000E+00 0.  1.
         21   -1    0    0  501  502 -0.00000000000E+00 -0.00000000000E+00 -0.14901157436E+02  0.14901157436E+02  0.00000000000E+00 0.  1.
         25    1    1    2    0    0  0.00000000000E+00  0.00000000000E+00  0.24724290868E+03  0.27704522355E+03  0.12500000000E+03 0.  0.
<mgrwt>
<rscale>  0 0.12500000E+03</rscale>
<asrwt>0</asrwt>
<pdfrwt beam="1">  1       21 0.40329853E-01 0.12500000E+03</pdfrwt>
<pdfrwt beam="2">  1       21 0.22924859E-02 0.12500000E+03</pdfrwt>
<totfact> 0.57419438E+06</totfact>
</mgrwt>
</event>
<event>
 3    1  0.1592492E-001  0.1250000E+03  0.7546771E-02  0.1235069E+00
         21   -1    0    0  502  501  0.00000000000E+00  0.00000000000E+00  0.93473098206E+01  0.93473098206E+01  0.00000000000E+00 0. -1.
         21   -1    0    0  501  502 -0.00000000000E+00 -0.00000000000E+00 -0.41790098702E+03  0.41790098702E+03  0.00000000000E+00 0. -1.
         25    1    1    2    0    0  0.00000000000E+00  0.00000000000E+00 -0.40855367720E+03  0.42724829684E+03  0.12500000000E+03 0.  0.
<mgrwt>
<rscale>  0 0.12500000E+03</rscale>
<asrwt>0</asrwt>
<pdfrwt beam="1">  1       21 0.14380477E-02 0.12500000E+03</pdfrwt>
<pdfrwt beam="2">  1       21 0.64292458E-01 0.12500000E+03</pdfrwt>
<totfact> 0.46285001E+06</totfact>
</mgrwt>
</event>
<event>
 3    1  0.1592492E-001  0.1250000E+03  0.7546771E-02  0.1235069E+00
         21   -1    0    0  502  501  0.00000000000E+00  0.00000000000E+00  0.13279577476E+02  0.13279577476E+02  0.00000000000E+00 0.  1.
         21   -1    0    0  501  502 -0.00000000000E+00 -0.00000000000E+00 -0.29415469031E+03  0.29415469031E+03  0.00000000000E+00 0.  1.
         25    1    1    2    0    0  0.00000000000E+00  0.00000000000E+00 -0.28087511284E+03  0.30743426779E+03  0.12500000000E+03 0.  0.
<mgrwt>
<rscale>  0 0.12500000E+03</rscale>
<asrwt>0</asrwt>
<pdfrwt beam="1">  1       21 0.20430121E-02 0.12500000E+03</pdfrwt>
<pdfrwt beam="2">  1       21 0.45254564E-01 0.12500000E+03</pdfrwt>
<totfact> 0.54843962E+06</totfact>
</mgrwt>
</event>
<event>
 3    1  0.1592492E-001  0.1250000E+03  0.7546771E-02  0.1235069E+00
         21   -1    0    0  502  501  0.00000000000E+00  0.00000000000E+00  0.14712123627E+03  0.14712123627E+03  0.00000000000E+00 0.  1.
         21   -1    0    0  501  502 -0.00000000000E+00 -0.00000000000E+00 -0.26551231482E+02  0.26551231482E+02  0.00000000000E+00 0.  1.
         25    1    1    2    0    0  0.00000000000E+00  0.00000000000E+00  0.12057000478E+03  0.17367246775E+03  0.12500000000E+03 0.  0.
<mgrwt>
<rscale>  0 0.12500000E+03</rscale>
<asrwt>0</asrwt>
<pdfrwt beam="1">  1       21 0.22634036E-01 0.12500000E+03</pdfrwt>
<pdfrwt beam="2">  1       21 0.40848049E-02 0.12500000E+03</pdfrwt>
<totfact> 0.67884930E+06</totfact>
</mgrwt>
</event>
<event>
 3    1  0.1592492E-001  0.1250000E+03  0.7546771E-02  0.1235069E+00
         21   -1    0    0  502  501  0.00000000000E+00  0.00000000000E+00  0.43594470829E+03  0.43594470829E+03  0.00000000000E+00 0. -1.
         21   -1    0    0  501  502 -0.00000000000E+00 -0.00000000000E+00 -0.89604253149E+01  0.89604253149E+01  0.00000000000E+00 0. -1.
         25    1    1    2    0    0  0.00000000000E+00  0.00000000000E+00  0.42698428297E+03  0.44490513360E+03  0.12500000000E+03 0.  0.
<mgrwt>
<rscale>  0 0.12500000E+03</rscale>
<asrwt>0</asrwt>
<pdfrwt beam="1">  1       21 0.67068400E-01 0.12500000E+03</pdfrwt>
<pdfrwt beam="2">  1       21 0.13785273E-02 0.12500000E+03</pdfrwt>
<totfact> 0.45198717E+06</totfact>
</mgrwt>
</event>
<event>
 3    1  0.1592492E-001  0.1250000E+03  0.7546771E-02  0.1235069E+00
         21   -1    0    0  502  501  0.00000000000E+00  0.00000000000E+00  0.35056605811E+03  0.35056605811E+03  0.00000000000E+00 0.  1.
         21   -1    0    0  501  502 -0.00000000000E+00 -0.00000000000E+00 -0.11142693109E+02  0.11142693109E+02  0.00000000000E+00 0.  1.
         25    1    1    2    0    0  0.00000000000E+00  0.00000000000E+00  0.33942336500E+03  0.36170875121E+03  0.12500000000E+03 0.  0.
<mgrwt>
<rscale>  0 0.12500000E+03</rscale>
<asrwt>0</asrwt>
<pdfrwt beam="1">  1       21 0.53933231E-01 0.12500000E+03</pdfrwt>
<pdfrwt beam="2">  1       21 0.17142607E-02 0.12500000E+03</pdfrwt>
<totfact> 0.50685167E+06</totfact>
</mgrwt>
</event>
<event>
 3    1  0.1592492E-001  0.1250000E+03  0.7546771E-02  0.1235069E+00
         21   -1    0    0  502  501  0.00000000000E+00  0.00000000000E+00  0.29003861281E+02  0.29003861281E+02  0.00000000000E+00 0.  1.
         21   -1    0    0  501  502 -0.00000000000E+00 -0.00000000000E+00 -0.13468034349E+03  0.13468034349E+03  0.00000000000E+00 0.  1.
         25    1    1    2    0    0  0.00000000000E+00  0.00000000000E+00 -0.10567648221E+03  0.16368420477E+03  0.12500000000E+03 0.  0.
<mgrwt>
<rscale>  0 0.12500000E+03</rscale>
<asrwt>0</asrwt>
<pdfrwt beam="1">  1       21 0.44621325E-02 0.12500000E+03</pdfrwt>
<pdfrwt beam="2">  1       21 0.20720053E-01 0.12500000E+03</pdfrwt>
<totfact> 0.69072105E+06</totfact>
</mgrwt>
</event>
<event>
 3    1  0.1592492E-001  0.1250000E+03  0.7546771E-02  0.1235069E+00
         21   -1    0    0  502  501  0.00000000000E+00  0.00000000000E+00  0.12656227310E+02  0.12656227310E+02  0.00000000000E+00 0.  1.
         21   -1    0    0  501  502 -0.00000000000E+00 -0.00000000000E+00 -0.30864252864E+03  0.30864252864E+03  0.00000000000E+00 0.  1.
         25    1    1    2    0    0  0.00000000000E+00  0.00000000000E+00 -0.29598630133E+03  0.32129875595E+03  0.12500000000E+03 0.  0.
<mgrwt>
<rscale>  0 0.12500000E+03</rscale>
<asrwt>0</asrwt>
<pdfrwt beam="1">  1       21 0.19471119E-02 0.12500000E+03</pdfrwt>
<pdfrwt beam="2">  1       21 0.47483465E-01 0.12500000E+03</pdfrwt>
<totfact> 0.53730583E+06</totfact>
</mgrwt>
</event>
<event>
 3    1  0.1592492E-001  0.1250000E+03  0.7546771E-02  0.1235069E+00
         21   -1    0    0  502  501  0.00000000000E+00  0.00000000000E+00  0.37491225043E+03  0.37491225043E+03  0.00000000000E+00 0. -1.
         21   -1    0    0  501  502 -0.00000000000E+00 -0.00000000000E+00 -0.10419104725E+02  0.10419104725E+02  0.00000000000E+00 0. -1.
         25    1    1    2    0    0  0.00000000000E+00  0.00000000000E+00  0.36449314571E+03  0.38533135516E+03  0.12500000000E+03 0.  0.
<mgrwt>
<rscale>  0 0.12500000E+03</rscale>
<asrwt>0</asrwt>
<pdfrwt beam="1">  1       21 0.57678797E-01 0.12500000E+03</pdfrwt>
<pdfrwt beam="2">  1       21 0.16029395E-02 0.12500000E+03</pdfrwt>
<totfact> 0.49029775E+06</totfact>
</mgrwt>
</event>
<event>
 3    1  0.1592492E-001  0.1250000E+03  0.7546771E-02  0.1235069E+00
         21   -1    0    0  502  501  0.00000000000E+00  0.00000000000E+00  0.13653172832E+02  0.13653172832E+02  0.00000000000E+00 0. -1.
         21   -1    0    0  501  502 -0.00000000000E+00 -0.00000000000E+00 -0.28610565823E+03  0.28610565823E+03  0.00000000000E+00 0. -1.
         25    1    1    2    0    0  0.00000000000E+00  0.00000000000E+00 -0.27245248540E+03  0.29975883106E+03  0.12500000000E+03 0.  0.
<mgrwt>
<rscale>  0 0.12500000E+03</rscale>
<asrwt>0</asrwt>
<pdfrwt beam="1">  1       21 0.21004881E-02 0.12500000E+03</pdfrwt>
<pdfrwt beam="2">  1       21 0.44016255E-01 0.12500000E+03</pdfrwt>
<totfact> 0.55476221E+06</totfact>
</mgrwt>
</event>
<event>
 3    1  0.1592492E-001  0.1250000E+03  0.7546771E-02  0.1235069E+00
         21   -1    0    0  502  501  0.00000000000E+00  0.00000000000E+00  0.33083825771E+02  0.33083825771E+02  0.00000000000E+00 0. -1.
         21   -1    0    0  501  502 -0.00000000000E+00 -0.00000000000E+00 -0.11807129040E+03  0.11807129040E+03  0.00000000000E+00 0. -1.
         25    1    1    2    0    0  0.00000000000E+00  0.00000000000E+00 -0.84987464624E+02  0.15115511617E+03  0.12500000000E+03 0.  0.
<mgrwt>
<rscale>  0 0.12500000E+03</rscale>
<asrwt>0</asrwt>
<pdfrwt beam="1">  1       21 0.50898193E-02 0.12500000E+03</pdfrwt>
<pdfrwt beam="2">  1       21 0.18164814E-01 0.12500000E+03</pdfrwt>
<totfact> 0.70614397E+06</totfact>
</mgrwt>
</event>
<event>
 3    1  0.1592492E-001  0.1250000E+03  0.7546771E-02  0.1235069E+00
         21   -1    0    0  502  501  0.00000000000E+00  0.00000000000E+00  0.18163980555E+02  0.18163980555E+02  0.00000000000E+00 0. -1.
         21   -1    0    0  501  502 -0.00000000000E+00 -0.00000000000E+00 -0.21505473364E+03  0.21505473364E+03  0.00000000000E+00 0. -1.
         25    1    1    2    0    0  0.00000000000E+00  0.00000000000E+00 -0.19689075308E+03  0.23321871419E+03  0.12500000000E+03 0.  0.
<mgrwt>
<rscale>  0 0.12500000E+03</rscale>
<asrwt>0</asrwt>
<pdfrwt beam="1">  1       21 0.27944586E-02 0.12500000E+03</pdfrwt>
<pdfrwt beam="2">  1       21 0.33085343E-01 0.12500000E+03</pdfrwt>
<totfact> 0.61495112E+06</totfact>
</mgrwt>
</event>
<event>
 3    1  0.1592492E-001  0.1250000E+03  0.7546771E-02  0.1235069E+00
         21   -1    0    0  502  501  0.00000000000E+00  0.00000000000E+00  0.46513820133E+02  0.46513820133E+02  0.00000000000E+00 0.  1.
         21   -1    0    0  501  502 -0.00000000000E+00 -0.00000000000E+00 -0.83980416763E+02  0.83980416763E+02  0.00000000000E+00 0.  1.
         25    1    1    2    0    0  0.00000000000E+00  0.00000000000E+00 -0.37466596630E+02  0.13049423690E+03  0.12500000000E+03 0.  0.
<mgrwt>
<rscale>  0 0.12500000E+03</rscale>
<asrwt>0</asrwt>
<pdfrwt beam="1">  1       21 0.71559724E-02 0.12500000E+03</pdfrwt>
<pdfrwt beam="2">  1       21 0.12920064E-01 0.12500000E+03</pdfrwt>
<totfact> 0.73298910E+06</totfact>
</mgrwt>
</event>
<event>
 3    1  0.1592492E-001  0.1250000E+03  0.7546771E-02  0.1235069E+00
         21   -1    0    0  502  501  0.00000000000E+00  0.00000000000E+00  0.27180326600E+02  0.27180326600E+02  0.00000000000E+00 0.  1.
         21   -1    0    0  501  502 -0.00000000000E+00 -0.00000000000E+00 -0.14371608029E+03  0.14371608029E+03  0.00000000000E+00 0.  1.
         25    1    1    2    0    0  0.00000000000E+00  0.00000000000E+00 -0.11653575369E+03  0.17089640689E+03  0.12500000000E+03 0.  0.
<mgrwt>
<rscale>  0 0.12500000E+03</rscale>
<asrwt>0</asrwt>
<pdfrwt beam="1">  1       21 0.41815888E-02 0.12500000E+03</pdfrwt>
<pdfrwt beam="2">  1       21 0.22110166E-01 0.12500000E+03</pdfrwt>
<totfact> 0.68211530E+06</totfact>
</mgrwt>
</event>
<event>
 3    1  0.1592492E-001  0.1250000E+03  0.7546771E-02  0.1235069E+00
         21   -1    0    0  502  501  0.00000000000E+00  0.00000000000E+00  0.32190217125E+03  0.32190217125E+03  0.00000000000E+00 0.  1.
         21   -1    0    0  501  502 -0.00000000000E+00 -0.00000000000E+00 -0.12134897956E+02  0.12134897956E+02  0.00000000000E+00 0.  1.
         25    1    1    2    0    0  0.00000000000E+00  0.00000000000E+00  0.30976727330E+03  0.33403706921E+03  0.12500000000E+03 0.  0.
<mgrwt>
<rscale>  0 0.12500000E+03</rscale>
<asrwt>0</asrwt>
<pdfrwt beam="1">  1       21 0.49523405E-01 0.12500000E+03</pdfrwt>
<pdfrwt beam="2">  1       21 0.18669076E-02 0.12500000E+03</pdfrwt>
<totfact> 0.52739394E+06</totfact>
</mgrwt>
</event>
<event>
 3    1  0.1592492E-001  0.1250000E+03  0.7546771E-02  0.1235069E+00
         21   -1    0    0  502  501  0.00000000000E+00  0.00000000000E+00  0.11467174262E+04  0.11467174262E+04  0.00000000000E+00 0. -1.
         21   -1    0    0  501  502 -0.00000000000E+00 -0.00000000000E+00 -0.34064625781E+01  0.34064625781E+01  0.00000000000E+00 0. -1.
         25    1    1    2    0    0  0.00000000000E+00  0.00000000000E+00  0.11433109636E+04  0.11501238888E+04  0.12500000000E+03 0.  0.
<mgrwt>
<rscale>  0 0.12500000E+03</rscale>
<asrwt>0</asrwt>
<pdfrwt beam="1">  1       21 0.17641776E+00 0.12500000E+03</pdfrwt>
<pdfrwt beam="2">  1       21 0.52407208E-03 0.12500000E+03</pdfrwt>
<totfact> 0.20166578E+06</totfact>
</mgrwt>
</event>
<event>
 3    1  0.1592492E-001  0.1250000E+03  0.7546771E-02  0.1235069E+00
         21   -1    0    0  502  501  0.00000000000E+00  0.00000000000E+00  0.69671750581E+01  0.69671750581E+01  0.00000000000E+00 0.  1.
         21   -1    0    0  501  502 -0.00000000000E+00 -0.00000000000E+00 -0.56066482719E+03  0.56066482719E+03  0.00000000000E+00 0.  1.
         25    1    1    2    0    0  0.00000000000E+00  0.00000000000E+00 -0.55369765214E+03  0.56763200225E+03  0.12500000000E+03 0.  0.
<mgrwt>
<rscale>  0 0.12500000E+03</rscale>
<asrwt>0</asrwt>
<pdfrwt beam="1">  1       21 0.10718729E-02 0.12500000E+03</pdfrwt>
<pdfrwt beam="2">  1       21 0.86256146E-01 0.12500000E+03</pdfrwt>
<totfact> 0.38598572E+06</totfact>
</mgrwt>
</event>
<event>
 3    1  0.1592492E-001  0.1250000E+03  0.7546771E-02  0.1235069E+00
         21   -1    0    0  502  501  0.00000000000E+00  0.00000000000E+00  0.10269833493E+03  0.10269833493E+03  0.00000000000E+00 0.  1.
         21   -1    0    0  501  502 -0.00000000000E+00 -0.00000000000E+00 -0.38036157088E+02  0.38036157088E+02  0.00000000000E+00 0.  1.
         25    1    1    2    0    0  0.00000000000E+00  0.00000000000E+00  0.64662177839E+02  0.14073449202E+03  0.12500000000E+03 0.  0.
<mgrwt>
<rscale>  0 0.12500000E+03</rscale>
<asrwt>0</asrwt>
<pdfrwt beam="1">  1       21 0.15799744E-01 0.12500000E+03</pdfrwt>
<pdfrwt beam="2">  1       21 0.58517165E-02 0.12500000E+03</pdfrwt>
<totfact> 0.71943567E+06</totfact>
</mgrwt>
</event>
<event>
 3    1  0.1592492E-001  0.1250000E+03  0.7546771E-02  0.1235069E+00
         21   -1    0    0  502  501  0.00000000000E+00  0.00000000000E+00  0.31067151551E+03  0.31067151551E+03  0.00000000000E+00 0. -1.
         21   -1    0    0  501  502 -0.00000000000E+00 -0.00000000000E+00 -0.12573569848E+02  0.12573569848E+02  0.00000000000E+00 0. -1.
         25    1    1    2    0    0  0.00000000000E+00  0.00000000000E+00  0.29809794566E+03  0.32324508536E+03  0.12500000000E+03 0.  0.
<mgrwt>
<rscale>  0 0.12500000E+03</rscale>
<asrwt>0</asrwt>
<pdfrwt beam="1">  1       21 0.47795612E-01 0.12500000E+03</pdfrwt>
<pdfrwt beam="2">  1       21 0.19343956E-02 0.12500000E+03</pdfrwt>
<totfact> 0.53577186E+06</totfact>
</mgrwt>
</event>
<event>
 3    1  0.1592492E-001  0.1250000E+03  0.7546771E-02  0.1235069E+00
         21   -1    0    0  502  501  0.00000000000E+00  0.00000000000E+00  0.32640307326E+02  0.32640307326E+02  0.00000000000E+00 0.  1.
         21   -1    0    0  501  502 -0.00000000000E+00 -0.00000000000E+00 -0.11967565014E+03  0.11967565014E+03  0.00000000000E+00 0.  1.
         25    1    1    2    0    0  0.00000000000E+00  0.00000000000E+00 -0.87035342812E+02  0.15231595746E+03  0.12500000000E+03 0.  0.
<mgrwt>
<rscale>  0 0.12500000E+03</rscale>
<asrwt>0</asrwt>
<pdfrwt beam="1">  1       21 0.50215858E-02 0.12500000E+03</pdfrwt>
<pdfrwt beam="2">  1       21 0.18411638E-01 0.12500000E+03</pdfrwt>
<totfact> 0.70469473E+06</totfact>
</mgrwt>
</event>
<event>
 3    1  0.1592492E-001  0.1250000E+03  0.7546771E-02  0.1235069E+00
         21   -1    0    0  502  501  0.00000000000E+00  0.00000000000E+00  0.10458421270E+02  0.10458421270E+02  0.00000000000E+00 0. -1.
         21   -1    0    0  501  502 -0.00000000000E+00 -0.00000000000E+00 -0.37350283559E+03  0.37350283559E+03  0.00000000000E+00 0. -1.
         25    1    1    2    0    0  0.00000000000E+00  0.00000000000E+00 -0.36304441432E+03  0.38396125686E+03  0.12500000000E+03 0.  0.
<mgrwt>
<rscale>  0 0.12500000E+03</rscale>
<asrwt>0</asrwt>
<pdfrwt beam="1">  1       21 0.16089878E-02 0.12500000E+03</pdfrwt>
<pdfrwt beam="2">  1       21 0.57461979E-01 0.12500000E+03</pdfrwt>
<totfact> 0.49123697E+06</totfact>
</mgrwt>
</event>
<event>
 3    1  0.1592492E-001  0.1250000E+03  0.7546771E-02  0.1235069E+00
         21   -1    0    0  502  501  0.00000000000E+00  0.00000000000E+00  0.19122696575E+04  0.19122696575E+04  0.00000000000E+00 0.  1.
         21   -1    0    0  501  502 -0.00000000000E+00 -0.00000000000E+00 -0.20427296875E+01  0.20427296875E+01  0.00000000000E+00 0.  1.
         25    1    1    2    0    0  0.00000000000E+00  0.00000000000E+00  0.19102269278E+04  0.19143123872E+04  0.12500000000E+03 0.  0.
<mgrwt>
<rscale>  0 0.12500000E+03</rscale>
<asrwt>0</asrwt>
<pdfrwt beam="1">  1       21 0.29419390E+00 0.12500000E+03</pdfrwt>
<pdfrwt beam="2">  1       21 0.31426764E-03 0.12500000E+03</pdfrwt>
<totfact> 0.88142728E+05</totfact>
</mgrwt>
</event>
<event>
 3    1  0.1592492E-001  0.1250000E+03  0.7546771E-02  0.1235069E+00
         21   -1    0    0  502  501  0.00000000000E+00  0.00000000000E+00  0.57620822731E+03  0.57620822731E+03  0.00000000000E+00 0.  1.
         21   -1    0    0  501  502 -0.00000000000E+00 -0.00000000000E+00 -0.67792332959E+01  0.67792332959E+01  0.00000000000E+00 0.  1.
         25    1    1    2    0    0  0.00000000000E+00  0.00000000000E+00  0.56942899402E+03  0.58298746061E+03  0.12500000000E+03 0.  0.
<mgrwt>
<rscale>  0 0.12500000E+03</rscale>
<asrwt>0</asrwt>
<pdfrwt beam="1">  1       21 0.88647381E-01 0.12500000E+03</pdfrwt>
<pdfrwt beam="2">  1       21 0.10429594E-02 0.12500000E+03</pdfrwt>
<totfact> 0.37873490E+06</totfact>
</mgrwt>
</event>
<event>
 3    1  0.1592492E-001  0.1250000E+03  0.7546771E-02  0.1235069E+00
         21   -1    0    0  502  501  0.00000000000E+00  0.00000000000E+00  0.65720924071E+01  0.65720924071E+01  0.00000000000E+00 0.  1.
         21   -1    0    0  501  502 -0.00000000000E+00 -0.00000000000E+00 -0.59436930555E+03  0.59436930555E+03  0.00000000000E+00 0.  1.
         25    1    1    2    0    0  0.00000000000E+00  0.00000000000E+00 -0.58779721314E+03  0.60094139795E+03  0.12500000000E+03 0.  0.
<mgrwt>
<rscale>  0 0.12500000E+03</rscale>
<asrwt>0</asrwt>
<pdfrwt beam="1">  1       21 0.10110908E-02 0.12500000E+03</pdfrwt>
<pdfrwt beam="2">  1       21 0.91441460E-01 0.12500000E+03</pdfrwt>
<totfact> 0.37050084E+06</totfact>
</mgrwt>
</event>
<event>
 3    1  0.1592492E-001  0.1250000E+03  0.7546771E-02  0.1235069E+00
         21   -1    0    0  502  501  0.00000000000E+00  0.00000000000E+00  0.94394990031E+01  0.94394990031E+01  0.00000000000E+00 0. -1.
         21   -1    0    0  501  502 -0.00000000000E+00 -0.00000000000E+00 -0.41381963160E+03  0.41381963160E+03  0.00000000000E+00 0. -1.
         25    1    1    2    0    0  0.00000000000E+00  0.00000000000E+00 -0.40438013260E+03  0.42325913061E+03  0.12500000000E+03 0.  0.
<mgrwt>
<rscale>  0 0.12500000E+03</rscale>
<asrwt>0</asrwt>
<pdfrwt beam="1">  1       21 0.14522302E-02 0.12500000E+03</pdfrwt>
<pdfrwt beam="2">  1       21 0.63664576E-01 0.12500000E+03</pdfrwt>
<totfact> 0.46535909E+06</totfact>
</mgrwt>
</event>
<event>
 3    1  0.1592492E-001  0.1250000E+03  0.7546771E-02  0.1235069E+00
         21   -1    0    0  502  501  0.00000000000E+00  0.00000000000E+00  0.65716955717E+01  0.65716955717E+01  0.00000000000E+00 0.  1.
         21   -1    0    0  501  502 -0.00000000000E+00 -0.00000000000E+00 -0.59440519686E+03  0.59440519686E+03  0.00000000000E+00 0.  1.
         25    1    1    2    0    0  0.00000000000E+00  0.00000000000E+00 -0.58783350129E+03  0.60097689243E+03  0.12500000000E+03 0.  0.
<mgrwt>
<rscale>  0 0.12500000E+03</rscale>
<asrwt>0</asrwt>
<pdfrwt beam="1">  1       21 0.10110299E-02 0.12500000E+03</pdfrwt>
<pdfrwt beam="2">  1       21 0.91446966E-01 0.12500000E+03</pdfrwt>
<totfact> 0.37048486E+06</totfact>
</mgrwt>
</event>
<event>
 3    1  0.1592492E-001  0.1250000E+03  0.7546771E-02  0.1235069E+00
         21   -1    0    0  502  501  0.00000000000E+00  0.00000000000E+00  0.16160906899E+02  0.16160906899E+02  0.00000000000E+00 0.  1.
         21   -1    0    0  501  502 -0.00000000000E+00 -0.00000000000E+00 -0.24170982634E+03  0.24170982634E+03  0.00000000000E+00 0.  1.
         25    1    1    2    0    0  0.00000000000E+00  0.00000000000E+00 -0.22554891944E+03  0.25787073324E+03  0.12500000000E+03 0.  0.
<mgrwt>
<rscale>  0 0.12500000E+03</rscale>
<asrwt>0</asrwt>
<pdfrwt beam="1">  1       21 0.24862937E-02 0.12500000E+03</pdfrwt>
<pdfrwt beam="2">  1       21 0.37186123E-01 0.12500000E+03</pdfrwt>
<totfact> 0.59144986E+06</totfact>
</mgrwt>
</event>
<event>
 3    1  0.1592492E-001  0.1250000E+03  0.7546771E-02  0.1235069E+00
         21   -1    0    0  502  501  0.00000000000E+00  0.00000000000E+00  0.51874104755E+02  0.51874104755E+02  0.00000000000E+00 0. -1.
         21   -1    0    0  501  502 -0.00000000000E+00 -0.00000000000E+00 -0.75302504370E+02  0.75302504370E+02  0.00000000000E+00 0. -1.
         25    1    1    2    0    0  0.00000000000E+00  0.00000000000E+00 -0.23428399614E+02  0.12717660912E+03  0.12500000000E+03 0.  0.
<mgrwt>
<rscale>  0 0.12500000E+03</rscale>
<asrwt>0</asrwt>
<pdfrwt beam="1">  1       21 0.79806315E-02 0.12500000E+03</pdfrwt>
<pdfrwt beam="2">  1       21 0.11585001E-01 0.12500000E+03</pdfrwt>
<totfact> 0.73745114E+06</totfact>
</mgrwt>
</event>
<event>
 3    1  0.1592492E-001  0.1250000E+03  0.7546771E-02  0.1235069E+00
         21   -1    0    0  502  501  0.00000000000E+00  0.00000000000E+00  0.21600254702E+03  0.21600254702E+03  0.00000000000E+00 0. -1.
         21   -1    0    0  501  502 -0.00000000000E+00 -0.00000000000E+00 -0.18084277495E+02  0.18084277495E+02  0.00000000000E+00 0. -1.
         25    1    1    2    0    0  0.00000000000E+00  0.00000000000E+00  0.19791826953E+03  0.23408682452E+03  0.12500000000E+03 0.  0.
<mgrwt>
<rscale>  0 0.12500000E+03</rscale>
<asrwt>0</asrwt>
<pdfrwt beam="1">  1       21 0.33231159E-01 0.12500000E+03</pdfrwt>
<pdfrwt beam="2">  1       21 0.27821967E-02 0.12500000E+03</pdfrwt>
<totfact> 0.61409606E+06</totfact>
</mgrwt>
</event>
<event>
 3    1  0.1592492E-001  0.1250000E+03  0.7546771E-02  0.1235069E+00
         21   -1    0    0  502  501  0.00000000000E+00  0.00000000000E+00  0.33828752272E+02  0.33828752272E+02  0.00000000000E+00 0. -1.
         21   -1    0    0  501  502 -0.00000000000E+00 -0.00000000000E+00 -0.11547129994E+03  0.11547129994E+03  0.00000000000E+00 0. -1.
         25    1    1    2    0    0  0.00000000000E+00  0.00000000000E+00 -0.81642547664E+02  0.14930005221E+03  0.12500000000E+03 0.  0.
<mgrwt>
<rscale>  0 0.12500000E+03</rscale>
<asrwt>0</asrwt>
<pdfrwt beam="1">  1       21 0.52044235E-02 0.12500000E+03</pdfrwt>
<pdfrwt beam="2">  1       21 0.17764815E-01 0.12500000E+03</pdfrwt>
<totfact> 0.70847238E+06</totfact>
</mgrwt>
</event>
<event>
 3    1  0.1592492E-001  0.1250000E+03  0.7546771E-02  0.1235069E+00
         21   -1    0    0  502  501  0.00000000000E+00  0.00000000000E+00  0.11293289618E+02  0.11293289618E+02  0.00000000000E+00 0.  1.
         21   -1    0    0  501  502 -0.00000000000E+00 -0.00000000000E+00 -0.34589124445E+03  0.34589124445E+03  0.00000000000E+00 0.  1.
         25    1    1    2    0    0  0.00000000000E+00  0.00000000000E+00 -0.33459795484E+03  0.35718453407E+03  0.12500000000E+03 0.  0.
<mgrwt>
<rscale>  0 0.12500000E+03</rscale>
<asrwt>0</asrwt>
<pdfrwt beam="1">  1       21 0.17374289E-02 0.12500000E+03</pdfrwt>
<pdfrwt beam="2">  1       21 0.53214045E-01 0.12500000E+03</pdfrwt>
<totfact> 0.51012169E+06</totfact>
</mgrwt>
</event>
<event>
 3    1  0.1592492E-001  0.1250000E+03  0.7546771E-02  0.1235069E+00
         21   -1    0    0  502  501  0.00000000000E+00  0.00000000000E+00  0.13806011358E+02  0.13806011358E+02  0.00000000000E+00 0. -1.
         21   -1    0    0  501  502 -0.00000000000E+00 -0.00000000000E+00 -0.28293834467E+03  0.28293834467E+03  0.00000000000E+00 0. -1.
         25    1    1    2    0    0  0.00000000000E+00  0.00000000000E+00 -0.26913233331E+03  0.29674435602E+03  0.12500000000E+03 0.  0.
<mgrwt>
<rscale>  0 0.12500000E+03</rscale>
<asrwt>0</asrwt>
<pdfrwt beam="1">  1       21 0.21240018E-02 0.12500000E+03</pdfrwt>
<pdfrwt beam="2">  1       21 0.43528975E-01 0.12500000E+03</pdfrwt>
<totfact> 0.55727820E+06</totfact>
</mgrwt>
</event>
<event>
 3    1  0.1592492E-001  0.1250000E+03  0.7546771E-02  0.1235069E+00
         21   -1    0    0  502  501  0.00000000000E+00  0.00000000000E+00  0.27869933212E+03  0.27869933212E+03  0.00000000000E+00 0.  1.
         21   -1    0    0  501  502 -0.00000000000E+00 -0.00000000000E+00 -0.14016000578E+02  0.14016000578E+02  0.00000000000E+00 0.  1.
         25    1    1    2    0    0  0.00000000000E+00  0.00000000000E+00  0.26468333154E+03  0.29271533269E+03  0.12500000000E+03 0.  0.
<mgrwt>
<rscale>  0 0.12500000E+03</rscale>
<asrwt>0</asrwt>
<pdfrwt beam="1">  1       21 0.42876816E-01 0.12500000E+03</pdfrwt>
<pdfrwt beam="2">  1       21 0.21563080E-02 0.12500000E+03</pdfrwt>
<totfact> 0.56067046E+06</totfact>
</mgrwt>
</event>
<event>
 3    1  0.1592492E-001  0.1250000E+03  0.7546771E-02  0.1235069E+00
         21   -1    0    0  502  501  0.00000000000E+00  0.00000000000E+00  0.93417579436E+02  0.93417579436E+02  0.00000000000E+00 0. -1.
         21   -1    0    0  501  502 -0.00000000000E+00 -0.00000000000E+00 -0.41814934872E+02  0.41814934872E+02  0.00000000000E+00 0. -1.
         25    1    1    2    0    0  0.00000000000E+00  0.00000000000E+00  0.51602644564E+02  0.13523251431E+03  0.12500000000E+03 0.  0.
<mgrwt>
<rscale>  0 0.12500000E+03</rscale>
<asrwt>0</asrwt>
<pdfrwt beam="1">  1       21 0.14371935E-01 0.12500000E+03</pdfrwt>
<pdfrwt beam="2">  1       21 0.64330669E-02 0.12500000E+03</pdfrwt>
<totfact> 0.72665700E+06</totfact>
</mgrwt>
</event>
<event>
 3    1  0.1592492E-001  0.1250000E+03  0.7546771E-02  0.1235069E+00
         21   -1    0    0  502  501  0.00000000000E+00  0.00000000000E+00  0.42424505341E+03  0.42424505341E+03  0.00000000000E+00 0. -1.
         21   -1    0    0  501  502 -0.00000000000E+00 -0.00000000000E+00 -0.92075322237E+01  0.92075322237E+01  0.00000000000E+00 0. -1.
         25    1    1    2    0    0  0.00000000000E+00  0.00000000000E+00  0.41503752118E+03  0.43345258563E+03  0.12500000000E+03 0.  0.
<mgrwt>
<rscale>  0 0.12500000E+03</rscale>
<asrwt>0</asrwt>
<pdfrwt beam="1">  1       21 0.65268455E-01 0.12500000E+03</pdfrwt>
<pdfrwt beam="2">  1       21 0.14165437E-02 0.12500000E+03</pdfrwt>
<totfact> 0.45898847E+06</totfact>
</mgrwt>
</event>
<event>
 3    1  0.1592492E-001  0.1250000E+03  0.7546771E-02  0.1235069E+00
         21   -1    0    0  502  501  0.00000000000E+00  0.00000000000E+00  0.54589853603E+02  0.54589853603E+02  0.00000000000E+00 0.  1.
         21   -1    0    0  501  502 -0.00000000000E+00 -0.00000000000E+00 -0.71556337711E+02  0.71556337711E+02  0.00000000000E+00 0.  1.
         25    1    1    2    0    0  0.00000000000E+00  0.00000000000E+00 -0.16966484108E+02  0.12614619131E+03  0.12500000000E+03 0.  0.
<mgrwt>
<rscale>  0 0.12500000E+03</rscale>
<asrwt>0</asrwt>
<pdfrwt beam="1">  1       21 0.83984390E-02 0.12500000E+03</pdfrwt>
<pdfrwt beam="2">  1       21 0.11008667E-01 0.12500000E+03</pdfrwt>
<totfact> 0.73885907E+06</totfact>
</mgrwt>
</event>
<event>
 3    1  0.1592492E-001  0.1250000E+03  0.7546771E-02  0.1235069E+00
         21   -1    0    0  502  501  0.00000000000E+00  0.00000000000E+00  0.17154283908E+02  0.17154283908E+02  0.00000000000E+00 0. -1.
         21   -1    0    0  501  502 -0.00000000000E+00 -0.00000000000E+00 -0.22771279879E+03  0.22771279879E+03  0.00000000000E+00 0. -1.
         25    1    1    2    0    0  0.00000000000E+00  0.00000000000E+00 -0.21055851488E+03  0.24486708270E+03  0.12500000000E+03 0.  0.
<mgrwt>
<rscale>  0 0.12500000E+03</rscale>
<asrwt>0</asrwt>
<pdfrwt beam="1">  1       21 0.26391206E-02 0.12500000E+03</pdfrwt>
<pdfrwt beam="2">  1       21 0.35032738E-01 0.12500000E+03</pdfrwt>
<totfact> 0.60364840E+06</totfact>
</mgrwt>
</event>
<event>
 3    1  0.1592492E-001  0.1250000E+03  0.7546771E-02  0.1235069E+00
         21   -1    0    0  502  501  0.00000000000E+00  0.00000000000E+00  0.40261570194E+03  0.40261570194E+03  0.00000000000E+00 0. -1.
         21   -1    0    0  501  502 -0.00000000000E+00 -0.00000000000E+00 -0.97021799726E+01  0.97021799726E+01  0.00000000000E+00 0. -1.
         25    1    1    2    0    0  0.00000000000E+00  0.00000000000E+00  0.39291352197E+03  0.41231788191E+03  0.12500000000E+03 0.  0.
<mgrwt>
<rscale>  0 0.12500000E+03</rscale>
<asrwt>0</asrwt>
<pdfrwt beam="1">  1       21 0.61940864E-01 0.12500000E+03</pdfrwt>
<pdfrwt beam="2">  1       21 0.14926434E-02 0.12500000E+03</pdfrwt>
<totfact> 0.47234915E+06</totfact>
</mgrwt>
</event>
<event>
 3    1  0.1592492E-001  0.1250000E+03  0.7546771E-02  0.1235069E+00
         21   -1    0    0  502  501  0.00000000000E+00  0.00000000000E+00  0.34988259369E+03  0.34988259369E+03  0.00000000000E+00 0. -1.
         21   -1    0    0  501  502 -0.00000000000E+00 -0.00000000000E+00 -0.11164459366E+02  0.11164459366E+02  0.00000000000E+00 0. -1.
         25    1    1    2    0    0  0.00000000000E+00  0.00000000000E+00  0.33871813433E+03  0.36104705306E+03  0.12500000000E+03 0.  0.
<mgrwt>
<rscale>  0 0.12500000E+03</rscale>
<asrwt>0</asrwt>
<pdfrwt beam="1">  1       21 0.53828083E-01 0.12500000E+03</pdfrwt>
<pdfrwt beam="2">  1       21 0.17176094E-02 0.12500000E+03</pdfrwt>
<totfact> 0.50732785E+06</totfact>
</mgrwt>
</event>
<event>
 3    1  0.1592492E-001  0.1250000E+03  0.7546771E-02  0.1235069E+00
         21   -1    0    0  502  501  0.00000000000E+00  0.00000000000E+00  0.13970963798E+03  0.13970963798E+03  0.00000000000E+00 0. -1.
         21   -1    0    0  501  502 -0.00000000000E+00 -0.00000000000E+00 -0.27959774689E+02  0.27959774689E+02  0.00000000000E+00 0. -1.
         25    1    1    2    0    0  0.00000000000E+00  0.00000000000E+00  0.11174986330E+03  0.16766941267E+03  0.12500000000E+03 0.  0.
<mgrwt>
<rscale>  0 0.12500000E+03</rscale>
<asrwt>0</asrwt>
<pdfrwt beam="1">  1       21 0.21493790E-01 0.12500000E+03</pdfrwt>
<pdfrwt beam="2">  1       21 0.43015039E-02 0.12500000E+03</pdfrwt>
<totfact> 0.68594308E+06</totfact>
</mgrwt>
</event>
<event>
 3    1  0.1592492E-001  0.1250000E+03  0.7546771E-02  0.1235069E+00
         21   -1    0    0  502  501  0.00000000000E+00  0.00000000000E+00  0.19934828785E+03  0.19934828785E+03  0.00000000000E+00 0.  1.
         21   -1    0    0  501  502 -0.00000000000E+00 -0.00000000000E+00 -0.19595101830E+02  0.19595101830E+02  0.00000000000E+00 0.  1.
         25    1    1    2    0    0  0.00000000000E+00  0.00000000000E+00  0.17975318602E+03  0.21894338968E+03  0.12500000000E+03 0.  0.
<mgrwt>
<rscale>  0 0.12500000E+03</rscale>
<asrwt>0</asrwt>
<pdfrwt beam="1">  1       21 0.30668966E-01 0.12500000E+03</pdfrwt>
<pdfrwt beam="2">  1       21 0.30146312E-02 0.12500000E+03</pdfrwt>
<totfact> 0.62930699E+06</totfact>
</mgrwt>
</event>
<event>
 3    1  0.1592492E-001  0.1250000E+03  0.7546771E-02  0.1235069E+00
         21   -1    0    0  502  501  0.00000000000E+00  0.00000000000E+00  0.36077767352E+03  0.36077767352E+03  0.00000000000E+00 0.  1.
         21   -1    0    0  501  502 -0.00000000000E+00 -0.00000000000E+00 -0.10827305254E+02  0.10827305254E+02  0.00000000000E+00 0.  1.
         25    1    1    2    0    0  0.00000000000E+00  0.00000000000E+00  0.34995036827E+03  0.37160497877E+03  0.12500000000E+03 0.  0.
<mgrwt>
<rscale>  0 0.12500000E+03</rscale>
<asrwt>0</asrwt>
<pdfrwt beam="1">  1       21 0.55504248E-01 0.12500000E+03</pdfrwt>
<pdfrwt beam="2">  1       21 0.16657395E-02 0.12500000E+03</pdfrwt>
<totfact> 0.49981364E+06</totfact>
</mgrwt>
</event>
<event>
 3    1  0.1592492E-001  0.1250000E+03  0.7546771E-02  0.1235069E+00
         21   -1    0    0  502  501  0.00000000000E+00  0.00000000000E+00  0.82810518726E+01  0.82810518726E+01  0.00000000000E+00 0. -1.
         21   -1    0    0  501  502 -0.00000000000E+00 -0.00000000000E+00 -0.47170939877E+03  0.47170939877E+03  0.00000000000E+00 0. -1.
         25    1    1    2    0    0  0.00000000000E+00  0.00000000000E+00 -0.46342834690E+03  0.47999045064E+03  0.12500000000E+03 0.  0.
<mgrwt>
<rscale>  0 0.12500000E+03</rscale>
<asrwt>0</asrwt>
<pdfrwt beam="1">  1       21 0.12740079E-02 0.12500000E+03</pdfrwt>
<pdfrwt beam="2">  1       21 0.72570683E-01 0.12500000E+03</pdfrwt>
<totfact> 0.43150442E+06</totfact>
</mgrwt>
</event>
<event>
 3    1  0.1592492E-001  0.1250000E+03  0.7546771E-02  0.1235069E+00
         21   -1    0    0  502  501  0.00000000000E+00  0.00000000000E+00  0.15528720926E+02  0.15528720926E+02  0.00000000000E+00 0. -1.
         21   -1    0    0  501  502 -0.00000000000E+00 -0.00000000000E+00 -0.25155001616E+03  0.25155001616E+03  0.00000000000E+00 0. -1.
         25    1    1    2    0    0  0.00000000000E+00  0.00000000000E+00 -0.23602129523E+03  0.26707873709E+03  0.12500000000E+03 0.  0.
<mgrwt>
<rscale>  0 0.12500000E+03</rscale>
<asrwt>0</asrwt>
<pdfrwt beam="1">  1       21 0.23890339E-02 0.12500000E+03</pdfrwt>
<pdfrwt beam="2">  1       21 0.38700003E-01 0.12500000E+03</pdfrwt>
<totfact> 0.58306481E+06</totfact>
</mgrwt>
</event>
<event>
 3    1  0.1592492E-001  0.1250000E+03  0.7546771E-02  0.1235069E+00
         21   -1    0    0  502  501  0.00000000000E+00  0.00000000000E+00  0.78709557160E+01  0.78709557160E+01  0.00000000000E+00 0.  1.
         21   -1    0    0  501  502 -0.00000000000E+00 -0.00000000000E+00 -0.49628661893E+03  0.49628661893E+03  0.00000000000E+00 0.  1.
         25    1    1    2    0    0  0.00000000000E+00  0.00000000000E+00 -0.48841566321E+03  0.50415757464E+03  0.12500000000E+03 0.  0.
<mgrwt>
<rscale>  0 0.12500000E+03</rscale>
<asrwt>0</asrwt>
<pdfrwt beam="1">  1       21 0.12109161E-02 0.12500000E+03</pdfrwt>
<pdfrwt beam="2">  1       21 0.76351797E-01 0.12500000E+03</pdfrwt>
<totfact> 0.41819486E+06</totfact>
</mgrwt>
</event>
<event>
 3    1  0.1592492E-001  0.1250000E+03  0.7546771E-02  0.1235069E+00
         21   -1    0    0  502  501  0.00000000000E+00  0.00000000000E+00  0.29010917297E+03  0.29010917297E+03  0.00000000000E+00 0. -1.
         21   -1    0    0  501  502 -0.00000000000E+00 -0.00000000000E+00 -0.13464758663E+02  0.13464758663E+02  0.00000000000E+00 0. -1.
         25    1    1    2    0    0  0.00000000000E+00  0.00000000000E+00  0.27664441431E+03  0.30357393164E+03  0.12500000000E+03 0.  0.
<mgrwt>
<rscale>  0 0.12500000E+03</rscale>
<asrwt>0</asrwt>
<pdfrwt beam="1">  1       21 0.44632176E-01 0.12500000E+03</pdfrwt>
<pdfrwt beam="2">  1       21 0.20715015E-02 0.12500000E+03</pdfrwt>
<totfact> 0.55160470E+06</totfact>
</mgrwt>
</event>
<event>
 3    1  0.1592492E-001  0.1250000E+03  0.7546771E-02  0.1235069E+00
         21   -1    0    0  502  501  0.00000000000E+00  0.00000000000E+00  0.32110165328E+02  0.32110165328E+02  0.00000000000E+00 0. -1.
         21   -1    0    0  501  502 -0.00000000000E+00 -0.00000000000E+00 -0.12165150693E+03  0.12165150693E+03  0.00000000000E+00 0. -1.
         25    1    1    2    0    0  0.00000000000E+00  0.00000000000E+00 -0.89541341603E+02  0.15376167226E+03  0.12500000000E+03 0.  0.
<mgrwt>
<rscale>  0 0.12500000E+03</rscale>
<asrwt>0</asrwt>
<pdfrwt beam="1">  1       21 0.49400255E-02 0.12500000E+03</pdfrwt>
<pdfrwt beam="2">  1       21 0.18715616E-01 0.12500000E+03</pdfrwt>
<totfact> 0.70289803E+06</totfact>
</mgrwt>
</event>
<event>
 3    1  0.1592492E-001  0.1250000E+03  0.7546771E-02  0.1235069E+00
         21   -1    0    0  502  501  0.00000000000E+00  0.00000000000E+00  0.24192470538E+03  0.24192470538E+03  0.00000000000E+00 0.  1.
         21   -1    0    0  501  502 -0.00000000000E+00 -0.00000000000E+00 -0.16146552680E+02  0.16146552680E+02  0.00000000000E+00 0.  1.
         25    1    1    2    0    0  0.00000000000E+00  0.00000000000E+00  0.22577815270E+03  0.25807125806E+03  0.12500000000E+03 0.  0.
<mgrwt>
<rscale>  0 0.12500000E+03</rscale>
<asrwt>0</asrwt>
<pdfrwt beam="1">  1       21 0.37219183E-01 0.12500000E+03</pdfrwt>
<pdfrwt beam="2">  1       21 0.24840852E-02 0.12500000E+03</pdfrwt>
<totfact> 0.59126507E+06</totfact>
</mgrwt>
</event>
<event>
 3    1  0.1592492E-001  0.1250000E+03  0.7546771E-02  0.1235069E+00
         21   -1    0    0  502  501  0.00000000000E+00  0.00000000000E+00  0.19771159394E+02  0.19771159394E+02  0.00000000000E+00 0. -1.
         21   -1    0    0  501  502 -0.00000000000E+00 -0.00000000000E+00 -0.19757313783E+03  0.19757313783E+03  0.00000000000E+00 0. -1.
         25    1    1    2    0    0  0.00000000000E+00  0.00000000000E+00 -0.17780197843E+03  0.21734429722E+03  0.12500000000E+03 0.  0.
<mgrwt>
<rscale>  0 0.12500000E+03</rscale>
<asrwt>0</asrwt>
<pdfrwt beam="1">  1       21 0.30417168E-02 0.12500000E+03</pdfrwt>
<pdfrwt beam="2">  1       21 0.30395868E-01 0.12500000E+03</pdfrwt>
<totfact> 0.63095019E+06</totfact>
</mgrwt>
</event>
<event>
 3    1  0.1592492E-001  0.1250000E+03  0.7546771E-02  0.1235069E+00
         21   -1    0    0  502  501  0.00000000000E+00  0.00000000000E+00  0.10623390165E+02  0.10623390165E+02  0.00000000000E+00 0. -1.
         21   -1    0    0  501  502 -0.00000000000E+00 -0.00000000000E+00 -0.36770277090E+03  0.36770277090E+03  0.00000000000E+00 0. -1.
         25    1    1    2    0    0  0.00000000000E+00  0.00000000000E+00 -0.35707938074E+03  0.37832616107E+03  0.12500000000E+03 0.  0.
<mgrwt>
<rscale>  0 0.12500000E+03</rscale>
<asrwt>0</asrwt>
<pdfrwt beam="1">  1       21 0.16343680E-02 0.12500000E+03</pdfrwt>
<pdfrwt beam="2">  1       21 0.56569648E-01 0.12500000E+03</pdfrwt>
<totfact> 0.49512123E+06</totfact>
</mgrwt>
</event>
<event>
 3    1  0.1592492E-001  0.1250000E+03  0.7546771E-02  0.1235069E+00
         21   -1    0    0  502  501  0.00000000000E+00  0.00000000000E+00  0.15814677301E+03  0.15814677301E+03  0.00000000000E+00 0.  1.
         21   -1    0    0  501  502 -0.00000000000E+00 -0.00000000000E+00 -0.24700156226E+02  0.24700156226E+02  0.00000000000E+00 0.  1.
         25    1    1    2    0    0  0.00000000000E+00  0.00000000000E+00  0.13344661679E+03  0.18284692924E+03  0.12500000000E+03 0.  0.
<mgrwt>
<rscale>  0 0.12500000E+03</rscale>
<asrwt>0</asrwt>
<pdfrwt beam="1">  1       21 0.24330272E-01 0.12500000E+03</pdfrwt>
<pdfrwt beam="2">  1       21 0.38000241E-02 0.12500000E+03</pdfrwt>
<totfact> 0.66826438E+06</totfact>
</mgrwt>
</event>
<event>
 3    1  0.1592492E-001  0.1250000E+03  0.7546771E-02  0.1235069E+00
         21   -1    0    0  502  501  0.00000000000E+00  0.00000000000E+00  0.11610908038E+02  0.11610908038E+02  0.00000000000E+00 0. -1.
         21   -1    0    0  501  502 -0.00000000000E+00 -0.00000000000E+00 -0.33642932897E+03  0.33642932897E+03  0.00000000000E+00 0. -1.
         25    1    1    2    0    0  0.00000000000E+00  0.00000000000E+00 -0.32481842093E+03  0.34804023701E+03  0.12500000000E+03 0.  0.
<mgrwt>
<rscale>  0 0.12500000E+03</rscale>
<asrwt>0</asrwt>
<pdfrwt beam="1">  1       21 0.17862940E-02 0.12500000E+03</pdfrwt>
<pdfrwt beam="2">  1       21 0.51758346E-01 0.12500000E+03</pdfrwt>
<totfact> 0.51683498E+06</totfact>
</mgrwt>
</event>
<event>
 3    1  0.1592492E-001  0.1250000E+03  0.7546771E-02  0.1235069E+00
         21   -1    0    0  502  501  0.00000000000E+00  0.00000000000E+00  0.10268742608E+03  0.10268742608E+03  0.00000000000E+00 0.  1.
         21   -1    0    0  501  502 -0.00000000000E+00 -0.00000000000E+00 -0.38040197803E+02  0.38040197803E+02  0.00000000000E+00 0.  1.
         25    1    1    2    0    0  0.00000000000E+00  0.00000000000E+00  0.64647228278E+02  0.14072762388E+03  0.12500000000E+03 0.  0.
<mgrwt>
<rscale>  0 0.12500000E+03</rscale>
<asrwt>0</asrwt>
<pdfrwt beam="1">  1       21 0.15798066E-01 0.12500000E+03</pdfrwt>
<pdfrwt beam="2">  1       21 0.58523381E-02 0.12500000E+03</pdfrwt>
<totfact> 0.71944460E+06</totfact>
</mgrwt>
</event>
<event>
 3    1  0.1592492E-001  0.1250000E+03  0.7546771E-02  0.1235069E+00
         21   -1    0    0  502  501  0.00000000000E+00  0.00000000000E+00  0.26515725328E+01  0.26515725328E+01  0.00000000000E+00 0.  1.
         21   -1    0    0  501  502 -0.00000000000E+00 -0.00000000000E+00 -0.14731824046E+04  0.14731824046E+04  0.00000000000E+00 0.  1.
         25    1    1    2    0    0  0.00000000000E+00  0.00000000000E+00 -0.14705308321E+04  0.14758339772E+04  0.12500000000E+03 0.  0.
<mgrwt>
<rscale>  0 0.12500000E+03</rscale>
<asrwt>0</asrwt>
<pdfrwt beam="1">  1       21 0.40793419E-03 0.12500000E+03</pdfrwt>
<pdfrwt beam="2">  1       21 0.22664347E+00 0.12500000E+03</pdfrwt>
<totfact> 0.14355142E+06</totfact>
</mgrwt>
</event>
<event>
 3    1  0.1592492E-001  0.1250000E+03  0.7546771E-02  0.1235069E+00
         21   -1    0    0  502  501  0.00000000000E+00  0.00000000000E+00  0.27475093226E+02  0.27475093226E+02  0.00000000000E+00 0. -1.
         21   -1    0    0  501  502 -0.00000000000E+00 -0.00000000000E+00 -0.14217422186E+03  0.14217422186E+03  0.00000000000E+00 0. -1.
         25    1    1    2    0    0  0.00000000000E+00  0.00000000000E+00 -0.11469912863E+03  0.16964931509E+03  0.12500000000E+03 0.  0.
<mgrwt>
<rscale>  0 0.12500000E+03</rscale>
<asrwt>0</asrwt>
<pdfrwt beam="1">  1       21 0.42269374E-02 0.12500000E+03</pdfrwt>
<pdfrwt beam="2">  1       21 0.21872957E-01 0.12500000E+03</pdfrwt>
<totfact> 0.68359231E+06</totfact>
</mgrwt>
</event>
<event>
 3    1  0.1592492E-001  0.1250000E+03  0.7546771E-02  0.1235069E+00
         21   -1    0    0  502  501  0.00000000000E+00  0.00000000000E+00  0.27748283028E+02  0.27748283028E+02  0.00000000000E+00 0.  1.
         21   -1    0    0  501  502 -0.00000000000E+00 -0.00000000000E+00 -0.14077447589E+03  0.14077447589E+03  0.00000000000E+00 0.  1.
         25    1    1    2    0    0  0.00000000000E+00  0.00000000000E+00 -0.11302619286E+03  0.16852275892E+03  0.12500000000E+03 0.  0.
<mgrwt>
<rscale>  0 0.12500000E+03</rscale>
<asrwt>0</asrwt>
<pdfrwt beam="1">  1       21 0.42689665E-02 0.12500000E+03</pdfrwt>
<pdfrwt beam="2">  1       21 0.21657612E-01 0.12500000E+03</pdfrwt>
<totfact> 0.68492811E+06</totfact>
</mgrwt>
</event>
<event>
 3    1  0.1592492E-001  0.1250000E+03  0.7546771E-02  0.1235069E+00
         21   -1    0    0  502  501  0.00000000000E+00  0.00000000000E+00  0.20827977979E+03  0.20827977979E+03  0.00000000000E+00 0. -1.
         21   -1    0    0  501  502 -0.00000000000E+00 -0.00000000000E+00 -0.18754821058E+02  0.18754821058E+02  0.00000000000E+00 0. -1.
         25    1    1    2    0    0  0.00000000000E+00  0.00000000000E+00  0.18952495874E+03  0.22703460085E+03  0.12500000000E+03 0.  0.
<mgrwt>
<rscale>  0 0.12500000E+03</rscale>
<asrwt>0</asrwt>
<pdfrwt beam="1">  1       21 0.32043041E-01 0.12500000E+03</pdfrwt>
<pdfrwt beam="2">  1       21 0.28853572E-02 0.12500000E+03</pdfrwt>
<totfact> 0.62110332E+06</totfact>
</mgrwt>
</event>
<event>
 3    1  0.1592492E-001  0.1250000E+03  0.7546771E-02  0.1235069E+00
         21   -1    0    0  502  501  0.00000000000E+00  0.00000000000E+00  0.73630255517E+03  0.73630255517E+03  0.00000000000E+00 0. -1.
         21   -1    0    0  501  502 -0.00000000000E+00 -0.00000000000E+00 -0.53052240177E+01  0.53052240177E+01  0.00000000000E+00 0. -1.
         25    1    1    2    0    0  0.00000000000E+00  0.00000000000E+00  0.73099733116E+03  0.74160777919E+03  0.12500000000E+03 0.  0.
<mgrwt>
<rscale>  0 0.12500000E+03</rscale>
<asrwt>0</asrwt>
<pdfrwt beam="1">  1       21 0.11327724E+00 0.12500000E+03</pdfrwt>
<pdfrwt beam="2">  1       21 0.81618889E-03 0.12500000E+03</pdfrwt>
<totfact> 0.31366269E+06</totfact>
</mgrwt>
</event>
<event>
 3    1  0.1592492E-001  0.1250000E+03  0.7546771E-02  0.1235069E+00
         21   -1    0    0  502  501  0.00000000000E+00  0.00000000000E+00  0.27735420200E+03  0.27735420200E+03  0.00000000000E+00 0. -1.
         21   -1    0    0  501  502 -0.00000000000E+00 -0.00000000000E+00 -0.14083976272E+02  0.14083976272E+02  0.00000000000E+00 0. -1.
         25    1    1    2    0    0  0.00000000000E+00  0.00000000000E+00  0.26327022573E+03  0.29143817827E+03  0.12500000000E+03 0.  0.
<mgrwt>
<rscale>  0 0.12500000E+03</rscale>
<asrwt>0</asrwt>
<pdfrwt beam="1">  1       21 0.42669873E-01 0.12500000E+03</pdfrwt>
<pdfrwt beam="2">  1       21 0.21667658E-02 0.12500000E+03</pdfrwt>
<totfact> 0.56175287E+06</totfact>
</mgrwt>
</event>
<event>
 3    1  0.1592492E-001  0.1250000E+03  0.7546771E-02  0.1235069E+00
         21   -1    0    0  502  501  0.00000000000E+00  0.00000000000E+00  0.99202730911E+01  0.99202730911E+01  0.00000000000E+00 0.  1.
         21   -1    0    0  501  502 -0.00000000000E+00 -0.00000000000E+00 -0.39376436154E+03  0.39376436154E+03  0.00000000000E+00 0.  1.
         25    1    1    2    0    0  0.00000000000E+00  0.00000000000E+00 -0.38384408845E+03  0.40368463463E+03  0.12500000000E+03 0.  0.
<mgrwt>
<rscale>  0 0.12500000E+03</rscale>
<asrwt>0</asrwt>
<pdfrwt beam="1">  1       21 0.15261960E-02 0.12500000E+03</pdfrwt>
<pdfrwt beam="2">  1       21 0.60579126E-01 0.12500000E+03</pdfrwt>
<totfact> 0.47797912E+06</totfact>
</mgrwt>
</event>
<event>
 3    1  0.1592492E-001  0.1250000E+03  0.7546771E-02  0.1235069E+00
         21   -1    0    0  502  501  0.00000000000E+00  0.00000000000E+00  0.20271078594E+03  0.20271078594E+03  0.00000000000E+00 0. -1.
         21   -1    0    0  501  502 -0.00000000000E+00 -0.00000000000E+00 -0.19270064895E+02  0.19270064895E+02  0.00000000000E+00 0. -1.
         25    1    1    2    0    0  0.00000000000E+00  0.00000000000E+00  0.18344072104E+03  0.22198085083E+03  0.12500000000E+03 0.  0.
<mgrwt>
<rscale>  0 0.12500000E+03</rscale>
<asrwt>0</asrwt>
<pdfrwt beam="1">  1       21 0.31186273E-01 0.12500000E+03</pdfrwt>
<pdfrwt beam="2">  1       21 0.29646255E-02 0.12500000E+03</pdfrwt>
<totfact> 0.62620639E+06</totfact>
</mgrwt>
</event>
<event>
 3    1  0.1592492E-001  0.1250000E+03  0.7546771E-02  0.1235069E+00
         21   -1    0    0  502  501  0.00000000000E+00  0.00000000000E+00  0.82872477767E+02  0.82872477767E+02  0.00000000000E+00 0.  1.
         21   -1    0    0  501  502 -0.00000000000E+00 -0.00000000000E+00 -0.47135672846E+02  0.47135672846E+02  0.00000000000E+00 0.  1.
         25    1    1    2    0    0  0.00000000000E+00  0.00000000000E+00  0.35736804921E+02  0.13000815061E+03  0.12500000000E+03 0.  0.
<mgrwt>
<rscale>  0 0.12500000E+03</rscale>
<asrwt>0</asrwt>
<pdfrwt beam="1">  1       21 0.12749612E-01 0.12500000E+03</pdfrwt>
<pdfrwt beam="2">  1       21 0.72516420E-02 0.12500000E+03</pdfrwt>
<totfact> 0.73363826E+06</totfact>
</mgrwt>
</event>
<event>
 3    1  0.1592492E-001  0.1250000E+03  0.7546771E-02  0.1235069E+00
         21   -1    0    0  502  501  0.00000000000E+00  0.00000000000E+00  0.12347173656E+04  0.12347173656E+04  0.00000000000E+00 0.  1.
         21   -1    0    0  501  502 -0.00000000000E+00 -0.00000000000E+00 -0.31636794855E+01  0.31636794855E+01  0.00000000000E+00 0.  1.
         25    1    1    2    0    0  0.00000000000E+00  0.00000000000E+00  0.12315536861E+04  0.12378810451E+04  0.12500000000E+03 0.  0.
<mgrwt>
<rscale>  0 0.12500000E+03</rscale>
<asrwt>0</asrwt>
<pdfrwt beam="1">  1       21 0.18995613E+00 0.12500000E+03</pdfrwt>
<pdfrwt beam="2">  1       21 0.48672091E-03 0.12500000E+03</pdfrwt>
<totfact> 0.18404515E+06</totfact>
</mgrwt>
</event>
<event>
 3    1  0.1592492E-001  0.1250000E+03  0.7546771E-02  0.1235069E+00
         21   -1    0    0  502  501  0.00000000000E+00  0.00000000000E+00  0.63362780865E+01  0.63362780865E+01  0.00000000000E+00 0.  1.
         21   -1    0    0  501  502 -0.00000000000E+00 -0.00000000000E+00 -0.61648967212E+03  0.61648967212E+03  0.00000000000E+00 0.  1.
         25    1    1    2    0    0  0.00000000000E+00  0.00000000000E+00 -0.61015339403E+03  0.62282595021E+03  0.12500000000E+03 0.  0.
<mgrwt>
<rscale>  0 0.12500000E+03</rscale>
<asrwt>0</asrwt>
<pdfrwt beam="1">  1       21 0.97481174E-03 0.12500000E+03</pdfrwt>
<pdfrwt beam="2">  1       21 0.94844592E-01 0.12500000E+03</pdfrwt>
<totfact> 0.36080279E+06</totfact>
</mgrwt>
</event>
<event>
 3    1  0.1592492E-001  0.1250000E+03  0.7546771E-02  0.1235069E+00
         21   -1    0    0  502  501  0.00000000000E+00  0.00000000000E+00  0.60658878946E+01  0.60658878946E+01  0.00000000000E+00 0. -1.
         21   -1    0    0  501  502 -0.00000000000E+00 -0.00000000000E+00 -0.64397002844E+03  0.64397002844E+03  0.00000000000E+00 0. -1.
         25    1    1    2    0    0  0.00000000000E+00  0.00000000000E+00 -0.63790414054E+03  0.65003591633E+03  0.12500000000E+03 0.  0.
<mgrwt>
<rscale>  0 0.12500000E+03</rscale>
<asrwt>0</asrwt>
<pdfrwt beam="1">  1       21 0.93321316E-03 0.12500000E+03</pdfrwt>
<pdfrwt beam="2">  1       21 0.99072350E-01 0.12500000E+03</pdfrwt>
<totfact> 0.34923028E+06</totfact>
</mgrwt>
</event>
<event>
 3    1  0.1592492E-001  0.1250000E+03  0.7546771E-02  0.1235069E+00
         21   -1    0    0  502  501  0.00000000000E+00  0.00000000000E+00  0.29589147353E+02  0.29589147353E+02  0.00000000000E+00 0.  1.
         21   -1    0    0  501  502 -0.00000000000E+00 -0.00000000000E+00 -0.13201630833E+03  0.13201630833E+03  0.00000000000E+00 0.  1.
         25    1    1    2    0    0  0.00000000000E+00  0.00000000000E+00 -0.10242716097E+03  0.16160545568E+03  0.12500000000E+03 0.  0.
<mgrwt>
<rscale>  0 0.12500000E+03</rscale>
<asrwt>0</asrwt>
<pdfrwt beam="1">  1       21 0.45521766E-02 0.12500000E+03</pdfrwt>
<pdfrwt beam="2">  1       21 0.20310201E-01 0.12500000E+03</pdfrwt>
<totfact> 0.69323857E+06</totfact>
</mgrwt>
</event>
<event>
 3    1  0.1592492E-001  0.1250000E+03  0.7546771E-02  0.1235069E+00
         21   -1    0    0  502  501  0.00000000000E+00  0.00000000000E+00  0.68280172635E+02  0.68280172635E+02  0.00000000000E+00 0. -1.
         21   -1    0    0  501  502 -0.00000000000E+00 -0.00000000000E+00 -0.57209140651E+02  0.57209140651E+02  0.00000000000E+00 0. -1.
         25    1    1    2    0    0  0.00000000000E+00  0.00000000000E+00  0.11071031984E+02  0.12548931329E+03  0.12500000000E+03 0.  0.
<mgrwt>
<rscale>  0 0.12500000E+03</rscale>
<asrwt>0</asrwt>
<pdfrwt beam="1">  1       21 0.10504642E-01 0.12500000E+03</pdfrwt>
<pdfrwt beam="2">  1       21 0.88014062E-02 0.12500000E+03</pdfrwt>
<totfact> 0.73976891E+06</totfact>
</mgrwt>
</event>
<event>
 3    1  0.1592492E-001  0.1250000E+03  0.7546771E-02  0.1235069E+00
         21   -1    0    0  502  501  0.00000000000E+00  0.00000000000E+00  0.10722812040E+02  0.10722812040E+02  0.00000000000E+00 0. -1.
         21   -1    0    0  501  502 -0.00000000000E+00 -0.00000000000E+00 -0.36429343211E+03  0.36429343211E+03  0.00000000000E+00 0. -1.
         25    1    1    2    0    0  0.00000000000E+00  0.00000000000E+00 -0.35357062007E+03  0.37501624415E+03  0.12500000000E+03 0.  0.
<mgrwt>
<rscale>  0 0.12500000E+03</rscale>
<asrwt>0</asrwt>
<pdfrwt beam="1">  1       21 0.16496634E-02 0.12500000E+03</pdfrwt>
<pdfrwt beam="2">  1       21 0.56045144E-01 0.12500000E+03</pdfrwt>
<totfact> 0.49742331E+06</totfact>
</mgrwt>
</event>
<event>
 3    1  0.1592492E-001  0.1250000E+03  0.7546771E-02  0.1235069E+00
         21   -1    0    0  502  501  0.00000000000E+00  0.00000000000E+00  0.59349840600E+02  0.59349840600E+02  0.00000000000E+00 0. -1.
         21   -1    0    0  501  502 -0.00000000000E+00 -0.00000000000E+00 -0.65817362954E+02  0.65817362954E+02  0.00000000000E+00 0. -1.
         25    1    1    2    0    0  0.00000000000E+00  0.00000000000E+00 -0.64675223541E+01  0.12516720355E+03  0.12500000000E+03 0.  0.
<mgrwt>
<rscale>  0 0.12500000E+03</rscale>
<asrwt>0</asrwt>
<pdfrwt beam="1">  1       21 0.91307447E-02 0.12500000E+03</pdfrwt>
<pdfrwt beam="2">  1       21 0.10125748E-01 0.12500000E+03</pdfrwt>
<totfact> 0.74021000E+06</totfact>
</mgrwt>
</event>
<event>
 3    1  0.1592492E-001  0.1250000E+03  0.7546771E-02  0.1235069E+00
         21   -1    0    0  502  501  0.00000000000E+00  0.00000000000E+00  0.48428377309E+03  0.48428377309E+03  0.00000000000E+00 0.  1.
         21   -1    0    0  501  502 -0.00000000000E+00 -0.00000000000E+00 -0.80660352815E+01  0.80660352815E+01  0.00000000000E+00 0.  1.
         25    1    1    2    0    0  0.00000000000E+00  0.00000000000E+00  0.47621773781E+03  0.49234980837E+03  0.12500000000E+03 0.  0.
<mgrwt>
<rscale>  0 0.12500000E+03</rscale>
<asrwt>0</asrwt>
<pdfrwt beam="1">  1       21 0.74505173E-01 0.12500000E+03</pdfrwt>
<pdfrwt beam="2">  1       21 0.12409289E-02 0.12500000E+03</pdfrwt>
<totfact> 0.42462028E+06</totfact>
</mgrwt>
</event>
<event>
 3    1  0.1592492E-001  0.1250000E+03  0.7546771E-02  0.1235069E+00
         21   -1    0    0  502  501  0.00000000000E+00  0.00000000000E+00  0.53510226647E+02  0.53510226647E+02  0.00000000000E+00 0. -1.
         21   -1    0    0  501  502 -0.00000000000E+00 -0.00000000000E+00 -0.73000064563E+02  0.73000064563E+02  0.00000000000E+00 0. -1.
         25    1    1    2    0    0  0.00000000000E+00  0.00000000000E+00 -0.19489837916E+02  0.12651029121E+03  0.12500000000E+03 0.  0.
<mgrwt>
<rscale>  0 0.12500000E+03</rscale>
<asrwt>0</asrwt>
<pdfrwt beam="1">  1       21 0.82323426E-02 0.12500000E+03</pdfrwt>
<pdfrwt beam="2">  1       21 0.11230779E-01 0.12500000E+03</pdfrwt>
<totfact> 0.73835965E+06</totfact>
</mgrwt>
</event>
<event>
 3    1  0.1592492E-001  0.1250000E+03  0.7546771E-02  0.1235069E+00
         21   -1    0    0  502  501  0.00000000000E+00  0.00000000000E+00  0.96889322562E+02  0.96889322562E+02  0.00000000000E+00 0.  1.
         21   -1    0    0  501  502 -0.00000000000E+00 -0.00000000000E+00 -0.40316620002E+02  0.40316620002E+02  0.00000000000E+00 0.  1.
         25    1    1    2    0    0  0.00000000000E+00  0.00000000000E+00  0.56572702559E+02  0.13720594256E+03  0.12500000000E+03 0.  0.
<mgrwt>
<rscale>  0 0.12500000E+03</rscale>
<asrwt>0</asrwt>
<pdfrwt beam="1">  1       21 0.14906050E-01 0.12500000E+03</pdfrwt>
<pdfrwt beam="2">  1       21 0.62025570E-02 0.12500000E+03</pdfrwt>
<totfact> 0.72405687E+06</totfact>
</mgrwt>
</event>
<event>
 3    1  0.1592492E-001  0.1250000E+03  0.7546771E-02  0.1235069E+00
         21   -1    0    0  502  501  0.00000000000E+00  0.00000000000E+00  0.72359252067E+01  0.72359252067E+01  0.00000000000E+00 0. -1.
         21   -1    0    0  501  502 -0.00000000000E+00 -0.00000000000E+00 -0.53984112444E+03  0.53984112444E+03  0.00000000000E+00 0. -1.
         25    1    1    2    0    0  0.00000000000E+00  0.00000000000E+00 -0.53260519924E+03  0.54707704965E+03  0.12500000000E+03 0.  0.
<mgrwt>
<rscale>  0 0.12500000E+03</rscale>
<asrwt>0</asrwt>
<pdfrwt beam="1">  1       21 0.11132195E-02 0.12500000E+03</pdfrwt>
<pdfrwt beam="2">  1       21 0.83052460E-01 0.12500000E+03</pdfrwt>
<totfact> 0.39600894E+06</totfact>
</mgrwt>
</event>
<event>
 3    1  0.1592492E-001  0.1250000E+03  0.7546771E-02  0.1235069E+00
         21   -1    0    0  502  501  0.00000000000E+00  0.00000000000E+00  0.60171372573E+02  0.60171372573E+02  0.00000000000E+00 0.  1.
         21   -1    0    0  501  502 -0.00000000000E+00 -0.00000000000E+00 -0.64918745127E+02  0.64918745127E+02  0.00000000000E+00 0.  1.
         25    1    1    2    0    0  0.00000000000E+00  0.00000000000E+00 -0.47473725547E+01  0.12509011770E+03  0.12500000000E+03 0.  0.
<mgrwt>
<rscale>  0 0.12500000E+03</rscale>
<asrwt>0</asrwt>
<pdfrwt beam="1">  1       21 0.92571342E-02 0.12500000E+03</pdfrwt>
<pdfrwt beam="2">  1       21 0.99874993E-02 0.12500000E+03</pdfrwt>
<totfact> 0.74031410E+06</totfact>
</mgrwt>
</event>
<event>
 3    1  0.1592492E-001  0.1250000E+03  0.7546771E-02  0.1235069E+00
         21   -1    0    0  502  501  0.00000000000E+00  0.00000000000E+00  0.16996964996E+02  0.16996964996E+02  0.00000000000E+00 0.  1.
         21   -1    0    0  501  502 -0.00000000000E+00 -0.00000000000E+00 -0.22982044152E+03  0.22982044152E+03  0.00000000000E+00 0.  1.
         25    1    1    2    0    0  0.00000000000E+00  0.00000000000E+00 -0.21282347653E+03  0.24681740652E+03  0.12500000000E+03 0.  0.
<mgrwt>
<rscale>  0 0.12500000E+03</rscale>
<asrwt>0</asrwt>
<pdfrwt beam="1">  1       21 0.26149179E-02 0.12500000E+03</pdfrwt>
<pdfrwt beam="2">  1       21 0.35356989E-01 0.12500000E+03</pdfrwt>
<totfact> 0.60179127E+06</totfact>
</mgrwt>
</event>
<event>
 3    1  0.1592492E-001  0.1250000E+03  0.7546771E-02  0.1235069E+00
         21   -1    0    0  502  501  0.00000000000E+00  0.00000000000E+00  0.75315701017E+02  0.75315701017E+02  0.00000000000E+00 0.  1.
         21   -1    0    0  501  502 -0.00000000000E+00 -0.00000000000E+00 -0.51865015491E+02  0.51865015491E+02  0.00000000000E+00 0.  1.
         25    1    1    2    0    0  0.00000000000E+00  0.00000000000E+00  0.23450685526E+02  0.12718071651E+03  0.12500000000E+03 0.  0.
<mgrwt>
<rscale>  0 0.12500000E+03</rscale>
<asrwt>0</asrwt>
<pdfrwt beam="1">  1       21 0.11587031E-01 0.12500000E+03</pdfrwt>
<pdfrwt beam="2">  1       21 0.79792331E-02 0.12500000E+03</pdfrwt>
<totfact> 0.73744555E+06</totfact>
</mgrwt>
</event>
<event>
 3    1  0.1592492E-001  0.1250000E+03  0.7546771E-02  0.1235069E+00
         21   -1    0    0  502  501  0.00000000000E+00  0.00000000000E+00  0.13857756475E+04  0.13857756475E+04  0.00000000000E+00 0. -1.
         21   -1    0    0  501  502 -0.00000000000E+00 -0.00000000000E+00 -0.28188184769E+01  0.28188184769E+01  0.00000000000E+00 0. -1.
         25    1    1    2    0    0  0.00000000000E+00  0.00000000000E+00  0.13829568290E+04  0.13885944660E+04  0.12500000000E+03 0.  0.
<mgrwt>
<rscale>  0 0.12500000E+03</rscale>
<asrwt>0</asrwt>
<pdfrwt beam="1">  1       21 0.21319571E+00 0.12500000E+03</pdfrwt>
<pdfrwt beam="2">  1       21 0.43366549E-03 0.12500000E+03</pdfrwt>
<totfact> 0.15731515E+06</totfact>
</mgrwt>
</event>
<event>
 3    1  0.1592492E-001  0.1250000E+03  0.7546771E-02  0.1235069E+00
         21   -1    0    0  502  501  0.00000000000E+00  0.00000000000E+00  0.92619289994E+01  0.92619289994E+01  0.00000000000E+00 0.  1.
         21   -1    0    0  501  502 -0.00000000000E+00 -0.00000000000E+00 -0.42175339503E+03  0.42175339503E+03  0.00000000000E+00 0.  1.
         25    1    1    2    0    0  0.00000000000E+00  0.00000000000E+00 -0.41249146603E+03  0.43101532403E+03  0.12500000000E+03 0.  0.
<mgrwt>
<rscale>  0 0.12500000E+03</rscale>
<asrwt>0</asrwt>
<pdfrwt beam="1">  1       21 0.14249119E-02 0.12500000E+03</pdfrwt>
<pdfrwt beam="2">  1       21 0.64885147E-01 0.12500000E+03</pdfrwt>
<totfact> 0.46049946E+06</totfact>
</mgrwt>
</event>
<event>
 3    1  0.1592492E-001  0.1250000E+03  0.7546771E-02  0.1235069E+00
         21   -1    0    0  502  501  0.00000000000E+00  0.00000000000E+00  0.21040980019E+02  0.21040980019E+02  0.00000000000E+00 0. -1.
         21   -1    0    0  501  502 -0.00000000000E+00 -0.00000000000E+00 -0.18564962261E+03  0.18564962261E+03  0.00000000000E+00 0. -1.
         25    1    1    2    0    0  0.00000000000E+00  0.00000000000E+00 -0.16460864260E+03  0.20669060263E+03  0.12500000000E+03 0.  0.
<mgrwt>
<rscale>  0 0.12500000E+03</rscale>
<asrwt>0</asrwt>
<pdfrwt beam="1">  1       21 0.32370739E-02 0.12500000E+03</pdfrwt>
<pdfrwt beam="2">  1       21 0.28561480E-01 0.12500000E+03</pdfrwt>
<totfact> 0.64209413E+06</totfact>
</mgrwt>
</event>
<event>
 3    1  0.1592492E-001  0.1250000E+03  0.7546771E-02  0.1235069E+00
         21   -1    0    0  502  501  0.00000000000E+00  0.00000000000E+00  0.25439221908E+02  0.25439221908E+02  0.00000000000E+00 0. -1.
         21   -1    0    0  501  502 -0.00000000000E+00 -0.00000000000E+00 -0.15355225935E+03  0.15355225935E+03  0.00000000000E+00 0. -1.
         25    1    1    2    0    0  0.00000000000E+00  0.00000000000E+00 -0.12811303744E+03  0.17899148125E+03  0.12500000000E+03 0.  0.
<mgrwt>
<rscale>  0 0.12500000E+03</rscale>
<asrwt>0</asrwt>
<pdfrwt beam="1">  1       21 0.39137264E-02 0.12500000E+03</pdfrwt>
<pdfrwt beam="2">  1       21 0.23623425E-01 0.12500000E+03</pdfrwt>
<totfact> 0.67267419E+06</totfact>
</mgrwt>
</event>
<event>
 3    1  0.1592492E-001  0.1250000E+03  0.7546771E-02  0.1235069E+00
         21   -1    0    0  502  501  0.00000000000E+00  0.00000000000E+00  0.99426702587E+02  0.99426702587E+02  0.00000000000E+00 0.  1.
         21   -1    0    0  501  502 -0.00000000000E+00 -0.00000000000E+00 -0.39287735572E+02  0.39287735572E+02  0.00000000000E+00 0.  1.
         25    1    1    2    0    0  0.00000000000E+00  0.00000000000E+00  0.60138967015E+02  0.13871443816E+03  0.12500000000E+03 0.  0.
<mgrwt>
<rscale>  0 0.12500000E+03</rscale>
<asrwt>0</asrwt>
<pdfrwt beam="1">  1       21 0.15296416E-01 0.12500000E+03</pdfrwt>
<pdfrwt beam="2">  1       21 0.60442671E-02 0.12500000E+03</pdfrwt>
<totfact> 0.72207583E+06</totfact>
</mgrwt>
</event>
<event>
 3    1  0.1592492E-001  0.1250000E+03  0.7546771E-02  0.1235069E+00
         21   -1    0    0  502  501  0.00000000000E+00  0.00000000000E+00  0.49811128242E+01  0.49811128242E+01  0.00000000000E+00 0.  1.
         21   -1    0    0  501  502 -0.00000000000E+00 -0.00000000000E+00 -0.78421231116E+03  0.78421231116E+03  0.00000000000E+00 0.  1.
         25    1    1    2    0    0  0.00000000000E+00  0.00000000000E+00 -0.77923119833E+03  0.78919342398E+03  0.12500000000E+03 0.  0.
<mgrwt>
<rscale>  0 0.12500000E+03</rscale>
<asrwt>0</asrwt>
<pdfrwt beam="1">  1       21 0.76632495E-03 0.12500000E+03</pdfrwt>
<pdfrwt beam="2">  1       21 0.12064806E+00 0.12500000E+03</pdfrwt>
<totfact> 0.29724005E+06</totfact>
</mgrwt>
</event>
<event>
 3    1  0.1592492E-001  0.1250000E+03  0.7546771E-02  0.1235069E+00
         21   -1    0    0  502  501  0.00000000000E+00  0.00000000000E+00  0.79163098436E+01  0.79163098436E+01  0.00000000000E+00 0.  1.
         21   -1    0    0  501  502 -0.00000000000E+00 -0.00000000000E+00 -0.49344329330E+03  0.49344329330E+03  0.00000000000E+00 0.  1.
         25    1    1    2    0    0  0.00000000000E+00  0.00000000000E+00 -0.48552698346E+03  0.50135960314E+03  0.12500000000E+03 0.  0.
<mgrwt>
<rscale>  0 0.12500000E+03</rscale>
<asrwt>0</asrwt>
<pdfrwt beam="1">  1       21 0.12178935E-02 0.12500000E+03</pdfrwt>
<pdfrwt beam="2">  1       21 0.75914371E-01 0.12500000E+03</pdfrwt>
<totfact> 0.41970426E+06</totfact>
</mgrwt>
</event>
<event>
 3    1  0.1592492E-001  0.1250000E+03  0.7546771E-02  0.1235069E+00
         21   -1    0    0  502  501  0.00000000000E+00  0.00000000000E+00  0.24791046226E+03  0.24791046226E+03  0.00000000000E+00 0.  1.
         21   -1    0    0  501  502 -0.00000000000E+00 -0.00000000000E+00 -0.15756696851E+02  0.15756696851E+02  0.00000000000E+00 0.  1.
         25    1    1    2    0    0  0.00000000000E+00  0.00000000000E+00  0.23215376541E+03  0.26366715911E+03  0.12500000000E+03 0.  0.
<mgrwt>
<rscale>  0 0.12500000E+03</rscale>
<asrwt>0</asrwt>
<pdfrwt beam="1">  1       21 0.38140068E-01 0.12500000E+03</pdfrwt>
<pdfrwt beam="2">  1       21 0.24241074E-02 0.12500000E+03</pdfrwt>
<totfact> 0.58614780E+06</totfact>
</mgrwt>
</event>
<event>
 3    1  0.1592492E-001  0.1250000E+03  0.7546771E-02  0.1235069E+00
         21   -1    0    0  502  501  0.00000000000E+00  0.00000000000E+00  0.69117581151E+03  0.69117581151E+03  0.00000000000E+00 0.  1.
         21   -1    0    0  501  502 -0.00000000000E+00 -0.00000000000E+00 -0.56516011338E+01  0.56516011338E+01  0.00000000000E+00 0.  1.
         25    1    1    2    0    0  0.00000000000E+00  0.00000000000E+00  0.68552421037E+03  0.69682741264E+03  0.12500000000E+03 0.  0.
<mgrwt>
<rscale>  0 0.12500000E+03</rscale>
<asrwt>0</asrwt>
<pdfrwt beam="1">  1       21 0.10633467E+00 0.12500000E+03</pdfrwt>
<pdfrwt beam="2">  1       21 0.86947765E-03 0.12500000E+03</pdfrwt>
<totfact> 0.33032829E+06</totfact>
</mgrwt>
</event>
<event>
 3    1  0.1592492E-001  0.1250000E+03  0.7546771E-02  0.1235069E+00
         21   -1    0    0  502  501  0.00000000000E+00  0.00000000000E+00  0.37630145620E+02  0.37630145620E+02  0.00000000000E+00 0. -1.
         21   -1    0    0  501  502 -0.00000000000E+00 -0.00000000000E+00 -0.10380640138E+03  0.10380640138E+03  0.00000000000E+00 0. -1.
         25    1    1    2    0    0  0.00000000000E+00  0.00000000000E+00 -0.66176255756E+02  0.14143654699E+03  0.12500000000E+03 0.  0.
<mgrwt>
<rscale>  0 0.12500000E+03</rscale>
<asrwt>0</asrwt>
<pdfrwt beam="1">  1       21 0.57892533E-02 0.12500000E+03</pdfrwt>
<pdfrwt beam="2">  1       21 0.15970215E-01 0.12500000E+03</pdfrwt>
<totfact> 0.71852321E+06</totfact>
</mgrwt>
</event>
<event>
 3    1  0.1592492E-001  0.1250000E+03  0.7546771E-02  0.1235069E+00
         21   -1    0    0  502  501  0.00000000000E+00  0.00000000000E+00  0.95674581037E+02  0.95674581037E+02  0.00000000000E+00 0. -1.
         21   -1    0    0  501  502 -0.00000000000E+00 -0.00000000000E+00 -0.40828503848E+02  0.40828503848E+02  0.00000000000E+00 0. -1.
         25    1    1    2    0    0  0.00000000000E+00  0.00000000000E+00  0.54846077189E+02  0.13650308488E+03  0.12500000000E+03 0.  0.
<mgrwt>
<rscale>  0 0.12500000E+03</rscale>
<asrwt>0</asrwt>
<pdfrwt beam="1">  1       21 0.14719166E-01 0.12500000E+03</pdfrwt>
<pdfrwt beam="2">  1       21 0.62813083E-02 0.12500000E+03</pdfrwt>
<totfact> 0.72498060E+06</totfact>
</mgrwt>
</event>
<event>
 3    1  0.1592492E-001  0.1250000E+03  0.7546771E-02  0.1235069E+00
         21   -1    0    0  502  501  0.00000000000E+00  0.00000000000E+00  0.52955504411E+02  0.52955504411E+02  0.00000000000E+00 0.  1.
         21   -1    0    0  501  502 -0.00000000000E+00 -0.00000000000E+00 -0.73764758612E+02  0.73764758612E+02  0.00000000000E+00 0.  1.
         25    1    1    2    0    0  0.00000000000E+00  0.00000000000E+00 -0.20809254201E+02  0.12672026302E+03  0.12500000000E+03 0.  0.
<mgrwt>
<rscale>  0 0.12500000E+03</rscale>
<asrwt>0</asrwt>
<pdfrwt beam="1">  1       21 0.81470007E-02 0.12500000E+03</pdfrwt>
<pdfrwt beam="2">  1       21 0.11348424E-01 0.12500000E+03</pdfrwt>
<totfact> 0.73807268E+06</totfact>
</mgrwt>
</event>
<event>
 3    1  0.1592492E-001  0.1250000E+03  0.7546771E-02  0.1235069E+00
         21   -1    0    0  502  501  0.00000000000E+00  0.00000000000E+00  0.38161879284E+02  0.38161879284E+02  0.00000000000E+00 0.  1.
         21   -1    0    0  501  502 -0.00000000000E+00 -0.00000000000E+00 -0.10236000096E+03  0.10236000096E+03  0.00000000000E+00 0.  1.
         25    1    1    2    0    0  0.00000000000E+00  0.00000000000E+00 -0.64198121672E+02  0.14052188024E+03  0.12500000000E+03 0.  0.
<mgrwt>
<rscale>  0 0.12500000E+03</rscale>
<asrwt>0</asrwt>
<pdfrwt beam="1">  1       21 0.58710584E-02 0.12500000E+03</pdfrwt>
<pdfrwt beam="2">  1       21 0.15747692E-01 0.12500000E+03</pdfrwt>
<totfact> 0.71971251E+06</totfact>
</mgrwt>
</event>
<event>
 3    1  0.1592492E-001  0.1250000E+03  0.7546771E-02  0.1235069E+00
         21   -1    0    0  502  501  0.00000000000E+00  0.00000000000E+00  0.67396129358E+02  0.67396129358E+02  0.00000000000E+00 0. -1.
         21   -1    0    0  501  502 -0.00000000000E+00 -0.00000000000E+00 -0.57959559951E+02  0.57959559951E+02  0.00000000000E+00 0. -1.
         25    1    1    2    0    0  0.00000000000E+00  0.00000000000E+00  0.94365694067E+01  0.12535568931E+03  0.12500000000E+03 0.  0.
<mgrwt>
<rscale>  0 0.12500000E+03</rscale>
<asrwt>0</asrwt>
<pdfrwt beam="1">  1       21 0.10368635E-01 0.12500000E+03</pdfrwt>
<pdfrwt beam="2">  1       21 0.89168554E-02 0.12500000E+03</pdfrwt>
<totfact> 0.73995554E+06</totfact>
</mgrwt>
</event>
<event>
 3    1  0.1592492E-001  0.1250000E+03  0.7546771E-02  0.1235069E+00
         21   -1    0    0  502  501  0.00000000000E+00  0.00000000000E+00  0.45826613610E+01  0.45826613610E+01  0.00000000000E+00 0.  1.
         21   -1    0    0  501  502 -0.00000000000E+00 -0.00000000000E+00 -0.85239769913E+03  0.85239769913E+03  0.00000000000E+00 0.  1.
         25    1    1    2    0    0  0.00000000000E+00  0.00000000000E+00 -0.84781503777E+03  0.85698036049E+03  0.12500000000E+03 0.  0.
<mgrwt>
<rscale>  0 0.12500000E+03</rscale>
<asrwt>0</asrwt>
<pdfrwt beam="1">  1       21 0.70502551E-03 0.12500000E+03</pdfrwt>
<pdfrwt beam="2">  1       21 0.13113798E+00 0.12500000E+03</pdfrwt>
<totfact> 0.27559683E+06</totfact>
</mgrwt>
</event>
<event>
 3    1  0.1592492E-001  0.1250000E+03  0.7546771E-02  0.1235069E+00
         21   -1    0    0  502  501  0.00000000000E+00  0.00000000000E+00  0.10946549563E+04  0.10946549563E+04  0.00000000000E+00 0. -1.
         21   -1    0    0  501  502 -0.00000000000E+00 -0.00000000000E+00 -0.35684760549E+01  0.35684760549E+01  0.00000000000E+00 0. -1.
         25    1    1    2    0    0  0.00000000000E+00  0.00000000000E+00  0.10910864803E+04  0.10982234324E+04  0.12500000000E+03 0.  0.
<mgrwt>
<rscale>  0 0.12500000E+03</rscale>
<asrwt>0</asrwt>
<pdfrwt beam="1">  1       21 0.16840819E+00 0.12500000E+03</pdfrwt>
<pdfrwt beam="2">  1       21 0.54899719E-03 0.12500000E+03</pdfrwt>
<totfact> 0.21290996E+06</totfact>
</mgrwt>
</event>
<event>
 3    1  0.1592492E-001  0.1250000E+03  0.7546771E-02  0.1235069E+00
         21   -1    0    0  502  501  0.00000000000E+00  0.00000000000E+00  0.63623602366E+02  0.63623602366E+02  0.00000000000E+00 0.  1.
         21   -1    0    0  501  502 -0.00000000000E+00 -0.00000000000E+00 -0.61396240620E+02  0.61396240620E+02  0.00000000000E+00 0.  1.
         25    1    1    2    0    0  0.00000000000E+00  0.00000000000E+00  0.22273617465E+01  0.12501984299E+03  0.12500000000E+03 0.  0.
<mgrwt>
<rscale>  0 0.12500000E+03</rscale>
<asrwt>0</asrwt>
<pdfrwt beam="1">  1       21 0.97882465E-02 0.12500000E+03</pdfrwt>
<pdfrwt beam="2">  1       21 0.94455755E-02 0.12500000E+03</pdfrwt>
<totfact> 0.74040901E+06</totfact>
</mgrwt>
</event>
<event>
 3    1  0.1592492E-001  0.1250000E+03  0.7546771E-02  0.1235069E+00
         21   -1    0    0  502  501  0.00000000000E+00  0.00000000000E+00  0.44533218332E+01  0.44533218332E+01  0.00000000000E+00 0. -1.
         21   -1    0    0  501  502 -0.00000000000E+00 -0.00000000000E+00 -0.87715421124E+03  0.87715421124E+03  0.00000000000E+00 0. -1.
         25    1    1    2    0    0  0.00000000000E+00  0.00000000000E+00 -0.87270088941E+03  0.88160753307E+03  0.12500000000E+03 0.  0.
<mgrwt>
<rscale>  0 0.12500000E+03</rscale>
<asrwt>0</asrwt>
<pdfrwt beam="1">  1       21 0.68512739E-03 0.12500000E+03</pdfrwt>
<pdfrwt beam="2">  1       21 0.13494661E+00 0.12500000E+03</pdfrwt>
<totfact> 0.26829828E+06</totfact>
</mgrwt>
</event>
<event>
 3    1  0.1592492E-001  0.1250000E+03  0.7546771E-02  0.1235069E+00
         21   -1    0    0  502  501  0.00000000000E+00  0.00000000000E+00  0.13903673849E+03  0.13903673849E+03  0.00000000000E+00 0.  1.
         21   -1    0    0  501  502 -0.00000000000E+00 -0.00000000000E+00 -0.28095092294E+02  0.28095092294E+02  0.00000000000E+00 0.  1.
         25    1    1    2    0    0  0.00000000000E+00  0.00000000000E+00  0.11094164619E+03  0.16713183078E+03  0.12500000000E+03 0.  0.
<mgrwt>
<rscale>  0 0.12500000E+03</rscale>
<asrwt>0</asrwt>
<pdfrwt beam="1">  1       21 0.21390267E-01 0.12500000E+03</pdfrwt>
<pdfrwt beam="2">  1       21 0.43223220E-02 0.12500000E+03</pdfrwt>
<totfact> 0.68658394E+06</totfact>
</mgrwt>
</event>
<event>
 3    1  0.1592492E-001  0.1250000E+03  0.7546771E-02  0.1235069E+00
         21   -1    0    0  502  501  0.00000000000E+00  0.00000000000E+00  0.26551985356E+02  0.26551985356E+02  0.00000000000E+00 0.  1.
         21   -1    0    0  501  502 -0.00000000000E+00 -0.00000000000E+00 -0.14711705914E+03  0.14711705914E+03  0.00000000000E+00 0.  1.
         25    1    1    2    0    0  0.00000000000E+00  0.00000000000E+00 -0.12056507379E+03  0.17366904450E+03  0.12500000000E+03 0.  0.
<mgrwt>
<rscale>  0 0.12500000E+03</rscale>
<asrwt>0</asrwt>
<pdfrwt beam="1">  1       21 0.40849209E-02 0.12500000E+03</pdfrwt>
<pdfrwt beam="2">  1       21 0.22633393E-01 0.12500000E+03</pdfrwt>
<totfact> 0.67885331E+06</totfact>
</mgrwt>
</event>
<event>
 3    1  0.1592492E-001  0.1250000E+03  0.7546771E-02  0.1235069E+00
         21   -1    0    0  502  501  0.00000000000E+00  0.00000000000E+00  0.12768186383E+02  0.12768186383E+02  0.00000000000E+00 0.  1.
         21   -1    0    0  501  502 -0.00000000000E+00 -0.00000000000E+00 -0.30593616688E+03  0.30593616688E+03  0.00000000000E+00 0.  1.
         25    1    1    2    0    0  0.00000000000E+00  0.00000000000E+00 -0.29316798050E+03  0.31870435326E+03  0.12500000000E+03 0.  0.
<mgrwt>
<rscale>  0 0.12500000E+03</rscale>
<asrwt>0</asrwt>
<pdfrwt beam="1">  1       21 0.19643365E-02 0.12500000E+03</pdfrwt>
<pdfrwt beam="2">  1       21 0.47067099E-01 0.12500000E+03</pdfrwt>
<totfact> 0.53936177E+06</totfact>
</mgrwt>
</event>
<event>
 3    1  0.1592492E-001  0.1250000E+03  0.7546771E-02  0.1235069E+00
         21   -1    0    0  502  501  0.00000000000E+00  0.00000000000E+00  0.24836420856E+03  0.24836420856E+03  0.00000000000E+00 0.  1.
         21   -1    0    0  501  502 -0.00000000000E+00 -0.00000000000E+00 -0.15727910325E+02  0.15727910325E+02  0.00000000000E+00 0.  1.
         25    1    1    2    0    0  0.00000000000E+00  0.00000000000E+00  0.23263629823E+03  0.26409211888E+03  0.12500000000E+03 0.  0.
<mgrwt>
<rscale>  0 0.12500000E+03</rscale>
<asrwt>0</asrwt>
<pdfrwt beam="1">  1       21 0.38209875E-01 0.12500000E+03</pdfrwt>
<pdfrwt beam="2">  1       21 0.24196787E-02 0.12500000E+03</pdfrwt>
<totfact> 0.58576227E+06</totfact>
</mgrwt>
</event>
<event>
 3    1  0.1592492E-001  0.1250000E+03  0.7546771E-02  0.1235069E+00
         21   -1    0    0  502  501  0.00000000000E+00  0.00000000000E+00  0.26278119621E+03  0.26278119621E+03  0.00000000000E+00 0. -1.
         21   -1    0    0  501  502 -0.00000000000E+00 -0.00000000000E+00 -0.14865028611E+02  0.14865028611E+02  0.00000000000E+00 0. -1.
         25    1    1    2    0    0  0.00000000000E+00  0.00000000000E+00  0.24791616760E+03  0.27764622482E+03  0.12500000000E+03 0.  0.
<mgrwt>
<rscale>  0 0.12500000E+03</rscale>
<asrwt>0</asrwt>
<pdfrwt beam="1">  1       21 0.40427873E-01 0.12500000E+03</pdfrwt>
<pdfrwt beam="2">  1       21 0.22869277E-02 0.12500000E+03</pdfrwt>
<totfact> 0.57366575E+06</totfact>
</mgrwt>
</event>
<event>
 3    1  0.1592492E-001  0.1250000E+03  0.7546771E-02  0.1235069E+00
         21   -1    0    0  502  501  0.00000000000E+00  0.00000000000E+00  0.29865339737E+03  0.29865339737E+03  0.00000000000E+00 0.  1.
         21   -1    0    0  501  502 -0.00000000000E+00 -0.00000000000E+00 -0.13079543158E+02  0.13079543158E+02  0.00000000000E+00 0.  1.
         25    1    1    2    0    0  0.00000000000E+00  0.00000000000E+00  0.28557385421E+03  0.31173294052E+03  0.12500000000E+03 0.  0.
<mgrwt>
<rscale>  0 0.12500000E+03</rscale>
<asrwt>0</asrwt>
<pdfrwt beam="1">  1       21 0.45946671E-01 0.12500000E+03</pdfrwt>
<pdfrwt beam="2">  1       21 0.20122376E-02 0.12500000E+03</pdfrwt>
<totfact> 0.54495001E+06</totfact>
</mgrwt>
</event>
<event>
 3    1  0.1592492E-001  0.1250000E+03  0.7546771E-02  0.1235069E+00
         21   -1    0    0  502  501  0.00000000000E+00  0.00000000000E+00  0.41914870724E+02  0.41914870724E+02  0.00000000000E+00 0.  1.
         21   -1    0    0  501  502 -0.00000000000E+00 -0.00000000000E+00 -0.93194847855E+02  0.93194847855E+02  0.00000000000E+00 0.  1.
         25    1    1    2    0    0  0.00000000000E+00  0.00000000000E+00 -0.51279977131E+02  0.13510971858E+03  0.12500000000E+03 0.  0.
<mgrwt>
<rscale>  0 0.12500000E+03</rscale>
<asrwt>0</asrwt>
<pdfrwt beam="1">  1       21 0.64484417E-02 0.12500000E+03</pdfrwt>
<pdfrwt beam="2">  1       21 0.14337669E-01 0.12500000E+03</pdfrwt>
<totfact> 0.72681948E+06</totfact>
</mgrwt>
</event>
<event>
 3    1  0.1592492E-001  0.1250000E+03  0.7546771E-02  0.1235069E+00
         21   -1    0    0  502  501  0.00000000000E+00  0.00000000000E+00  0.42754783032E+03  0.42754783032E+03  0.00000000000E+00 0. -1.
         21   -1    0    0  501  502 -0.00000000000E+00 -0.00000000000E+00 -0.91364046851E+01  0.91364046851E+01  0.00000000000E+00 0. -1.
         25    1    1    2    0    0  0.00000000000E+00  0.00000000000E+00  0.41841142563E+03  0.43668423500E+03  0.12500000000E+03 0.  0.
<mgrwt>
<rscale>  0 0.12500000E+03</rscale>
<asrwt>0</asrwt>
<pdfrwt beam="1">  1       21 0.65776574E-01 0.12500000E+03</pdfrwt>
<pdfrwt beam="2">  1       21 0.14056011E-02 0.12500000E+03</pdfrwt>
<totfact> 0.45699649E+06</totfact>
</mgrwt>
</event>
<event>
 3    1  0.1592492E-001  0.1250000E+03  0.7546771E-02  0.1235069E+00
         21   -1    0    0  502  501  0.00000000000E+00  0.00000000000E+00  0.18232604197E+03  0.18232604197E+03  0.00000000000E+00 0.  1.
         21   -1    0    0  501  502 -0.00000000000E+00 -0.00000000000E+00 -0.21424531338E+02  0.21424531338E+02  0.00000000000E+00 0.  1.
         25    1    1    2    0    0  0.00000000000E+00  0.00000000000E+00  0.16090151063E+03  0.20375057331E+03  0.12500000000E+03 0.  0.
<mgrwt>
<rscale>  0 0.12500000E+03</rscale>
<asrwt>0</asrwt>
<pdfrwt beam="1">  1       21 0.28050159E-01 0.12500000E+03</pdfrwt>
<pdfrwt beam="2">  1       21 0.32960819E-02 0.12500000E+03</pdfrwt>
<totfact> 0.64523105E+06</totfact>
</mgrwt>
</event>
<event>
 3    1  0.1592492E-001  0.1250000E+03  0.7546771E-02  0.1235069E+00
         21   -1    0    0  502  501  0.00000000000E+00  0.00000000000E+00  0.71386576381E+02  0.71386576381E+02  0.00000000000E+00 0.  1.
         21   -1    0    0  501  502 -0.00000000000E+00 -0.00000000000E+00 -0.54719671373E+02  0.54719671373E+02  0.00000000000E+00 0.  1.
         25    1    1    2    0    0  0.00000000000E+00  0.00000000000E+00  0.16666905008E+02  0.12610624775E+03  0.12500000000E+03 0.  0.
<mgrwt>
<rscale>  0 0.12500000E+03</rscale>
<asrwt>0</asrwt>
<pdfrwt beam="1">  1       21 0.10982550E-01 0.12500000E+03</pdfrwt>
<pdfrwt beam="2">  1       21 0.84184110E-02 0.12500000E+03</pdfrwt>
<totfact> 0.73891403E+06</totfact>
</mgrwt>
</event>
<event>
 3    1  0.1592492E-001  0.1250000E+03  0.7546771E-02  0.1235069E+00
         21   -1    0    0  502  501  0.00000000000E+00  0.00000000000E+00  0.15247265278E+02  0.15247265278E+02  0.00000000000E+00 0.  1.
         21   -1    0    0  501  502 -0.00000000000E+00 -0.00000000000E+00 -0.25619348315E+03  0.25619348315E+03  0.00000000000E+00 0.  1.
         25    1    1    2    0    0  0.00000000000E+00  0.00000000000E+00 -0.24094621788E+03  0.27144074843E+03  0.12500000000E+03 0.  0.
<mgrwt>
<rscale>  0 0.12500000E+03</rscale>
<asrwt>0</asrwt>
<pdfrwt beam="1">  1       21 0.23457334E-02 0.12500000E+03</pdfrwt>
<pdfrwt beam="2">  1       21 0.39414378E-01 0.12500000E+03</pdfrwt>
<totfact> 0.57916268E+06</totfact>
</mgrwt>
</event>
<event>
 3    1  0.1592492E-001  0.1250000E+03  0.7546771E-02  0.1235069E+00
         21   -1    0    0  502  501  0.00000000000E+00  0.00000000000E+00  0.23115127828E+03  0.23115127828E+03  0.00000000000E+00 0.  1.
         21   -1    0    0  501  502 -0.00000000000E+00 -0.00000000000E+00 -0.16899106200E+02  0.16899106200E+02  0.00000000000E+00 0.  1.
         25    1    1    2    0    0  0.00000000000E+00  0.00000000000E+00  0.21425217208E+03  0.24805038448E+03  0.12500000000E+03 0.  0.
<mgrwt>
<rscale>  0 0.12500000E+03</rscale>
<asrwt>0</asrwt>
<pdfrwt beam="1">  1       21 0.35561733E-01 0.12500000E+03</pdfrwt>
<pdfrwt beam="2">  1       21 0.25998627E-02 0.12500000E+03</pdfrwt>
<totfact> 0.60062231E+06</totfact>
</mgrwt>
</event>
<event>
 3    1  0.1592492E-001  0.1250000E+03  0.7546771E-02  0.1235069E+00
         21   -1    0    0  502  501  0.00000000000E+00  0.00000000000E+00  0.66445889398E+01  0.66445889398E+01  0.00000000000E+00 0.  1.
         21   -1    0    0  501  502 -0.00000000000E+00 -0.00000000000E+00 -0.58788437259E+03  0.58788437259E+03  0.00000000000E+00 0.  1.
         25    1    1    2    0    0  0.00000000000E+00  0.00000000000E+00 -0.58123978365E+03  0.59452896153E+03  0.12500000000E+03 0.  0.
<mgrwt>
<rscale>  0 0.12500000E+03</rscale>
<asrwt>0</asrwt>
<pdfrwt beam="1">  1       21 0.10222444E-02 0.12500000E+03</pdfrwt>
<pdfrwt beam="2">  1       21 0.90443758E-01 0.12500000E+03</pdfrwt>
<totfact> 0.37341223E+06</totfact>
</mgrwt>
</event>
<event>
 3    1  0.1592492E-001  0.1250000E+03  0.7546771E-02  0.1235069E+00
         21   -1    0    0  502  501  0.00000000000E+00  0.00000000000E+00  0.37881152673E+03  0.37881152673E+03  0.00000000000E+00 0. -1.
         21   -1    0    0  501  502 -0.00000000000E+00 -0.00000000000E+00 -0.10311856225E+02  0.10311856225E+02  0.00000000000E+00 0. -1.
         25    1    1    2    0    0  0.00000000000E+00  0.00000000000E+00  0.36849967051E+03  0.38912338296E+03  0.12500000000E+03 0.  0.
<mgrwt>
<rscale>  0 0.12500000E+03</rscale>
<asrwt>0</asrwt>
<pdfrwt beam="1">  1       21 0.58278686E-01 0.12500000E+03</pdfrwt>
<pdfrwt beam="2">  1       21 0.15864397E-02 0.12500000E+03</pdfrwt>
<totfact> 0.48771256E+06</totfact>
</mgrwt>
</event>
<event>
 3    1  0.1592492E-001  0.1250000E+03  0.7546771E-02  0.1235069E+00
         21   -1    0    0  502  501  0.00000000000E+00  0.00000000000E+00  0.83807249550E+02  0.83807249550E+02  0.00000000000E+00 0.  1.
         21   -1    0    0  501  502 -0.00000000000E+00 -0.00000000000E+00 -0.46609929582E+02  0.46609929582E+02  0.00000000000E+00 0.  1.
         25    1    1    2    0    0  0.00000000000E+00  0.00000000000E+00  0.37197319968E+02  0.13041717913E+03  0.12500000000E+03 0.  0.
<mgrwt>
<rscale>  0 0.12500000E+03</rscale>
<asrwt>0</asrwt>
<pdfrwt beam="1">  1       21 0.12893423E-01 0.12500000E+03</pdfrwt>
<pdfrwt beam="2">  1       21 0.71707584E-02 0.12500000E+03</pdfrwt>
<totfact> 0.73309211E+06</totfact>
</mgrwt>
</event>
<event>
 3    1  0.1592492E-001  0.1250000E+03  0.7546771E-02  0.1235069E+00
         21   -1    0    0  502  501  0.00000000000E+00  0.00000000000E+00  0.16575968640E+04  0.16575968640E+04  0.00000000000E+00 0. -1.
         21   -1    0    0  501  502 -0.00000000000E+00 -0.00000000000E+00 -0.23565741977E+01  0.23565741977E+01  0.00000000000E+00 0. -1.
         25    1    1    2    0    0  0.00000000000E+00  0.00000000000E+00  0.16552402898E+04  0.16599534382E+04  0.12500000000E+03 0.  0.
<mgrwt>
<rscale>  0 0.12500000E+03</rscale>
<asrwt>0</asrwt>
<pdfrwt beam="1">  1       21 0.25501397E+00 0.12500000E+03</pdfrwt>
<pdfrwt beam="2">  1       21 0.36255120E-03 0.12500000E+03</pdfrwt>
<totfact> 0.11778734E+06</totfact>
</mgrwt>
</event>
<event>
 3    1  0.1592492E-001  0.1250000E+03  0.7546771E-02  0.1235069E+00
         21   -1    0    0  502  501  0.00000000000E+00  0.00000000000E+00  0.69099597145E+02  0.69099597145E+02  0.00000000000E+00 0. -1.
         21   -1    0    0  501  502 -0.00000000000E+00 -0.00000000000E+00 -0.56530720314E+02  0.56530720314E+02  0.00000000000E+00 0. -1.
         25    1    1    2    0    0  0.00000000000E+00  0.00000000000E+00  0.12568876831E+02  0.12563031746E+03  0.12500000000E+03 0.  0.
<mgrwt>
<rscale>  0 0.12500000E+03</rscale>
<asrwt>0</asrwt>
<pdfrwt beam="1">  1       21 0.10630707E-01 0.12500000E+03</pdfrwt>
<pdfrwt beam="2">  1       21 0.86970339E-02 0.12500000E+03</pdfrwt>
<totfact> 0.73957222E+06</totfact>
</mgrwt>
</event>
<event>
 3    1  0.1592492E-001  0.1250000E+03  0.7546771E-02  0.1235069E+00
         21   -1    0    0  502  501  0.00000000000E+00  0.00000000000E+00  0.22915987352E+02  0.22915987352E+02  0.00000000000E+00 0.  1.
         21   -1    0    0  501  502 -0.00000000000E+00 -0.00000000000E+00 -0.17045959836E+03  0.17045959836E+03  0.00000000000E+00 0.  1.
         25    1    1    2    0    0  0.00000000000E+00  0.00000000000E+00 -0.14754361100E+03  0.19337558571E+03  0.12500000000E+03 0.  0.
<mgrwt>
<rscale>  0 0.12500000E+03</rscale>
<asrwt>0</asrwt>
<pdfrwt beam="1">  1       21 0.35255366E-02 0.12500000E+03</pdfrwt>
<pdfrwt beam="2">  1       21 0.26224553E-01 0.12500000E+03</pdfrwt>
<totfact> 0.65649250E+06</totfact>
</mgrwt>
</event>
<event>
 3    1  0.1592492E-001  0.1250000E+03  0.7546771E-02  0.1235069E+00
         21   -1    0    0  502  501  0.00000000000E+00  0.00000000000E+00  0.39535719406E+01  0.39535719406E+01  0.00000000000E+00 0. -1.
         21   -1    0    0  501  502 -0.00000000000E+00 -0.00000000000E+00 -0.98803058568E+03  0.98803058568E+03  0.00000000000E+00 0. -1.
         25    1    1    2    0    0  0.00000000000E+00  0.00000000000E+00 -0.98407701374E+03  0.99198415762E+03  0.12500000000E+03 0.  0.
<mgrwt>
<rscale>  0 0.12500000E+03</rscale>
<asrwt>0</asrwt>
<pdfrwt beam="1">  1       21 0.60824175E-03 0.12500000E+03</pdfrwt>
<pdfrwt beam="2">  1       21 0.15200473E+00 0.12500000E+03</pdfrwt>
<totfact> 0.23819974E+06</totfact>
</mgrwt>
</event>
<event>
 3    1  0.1592492E-001  0.1250000E+03  0.7546771E-02  0.1235069E+00
         21   -1    0    0  502  501  0.00000000000E+00  0.00000000000E+00  0.15287748966E+03  0.15287748966E+03  0.00000000000E+00 0. -1.
         21   -1    0    0  501  502 -0.00000000000E+00 -0.00000000000E+00 -0.25551505383E+02  0.25551505383E+02  0.00000000000E+00 0. -1.
         25    1    1    2    0    0  0.00000000000E+00  0.00000000000E+00  0.12732598428E+03  0.17842899504E+03  0.12500000000E+03 0.  0.
<mgrwt>
<rscale>  0 0.12500000E+03</rscale>
<asrwt>0</asrwt>
<pdfrwt beam="1">  1       21 0.23519613E-01 0.12500000E+03</pdfrwt>
<pdfrwt beam="2">  1       21 0.39310009E-02 0.12500000E+03</pdfrwt>
<totfact> 0.67332216E+06</totfact>
</mgrwt>
</event>
<event>
 3    1  0.1592492E-001  0.1250000E+03  0.7546771E-02  0.1235069E+00
         21   -1    0    0  502  501  0.00000000000E+00  0.00000000000E+00  0.80412729829E+01  0.80412729829E+01  0.00000000000E+00 0.  1.
         21   -1    0    0  501  502 -0.00000000000E+00 -0.00000000000E+00 -0.48577507669E+03  0.48577507669E+03  0.00000000000E+00 0.  1.
         25    1    1    2    0    0  0.00000000000E+00  0.00000000000E+00 -0.47773380371E+03  0.49381634968E+03  0.12500000000E+03 0.  0.
<mgrwt>
<rscale>  0 0.12500000E+03</rscale>
<asrwt>0</asrwt>
<pdfrwt beam="1">  1       21 0.12371186E-02 0.12500000E+03</pdfrwt>
<pdfrwt beam="2">  1       21 0.74734646E-01 0.12500000E+03</pdfrwt>
<totfact> 0.42381415E+06</totfact>
</mgrwt>
</event>
<event>
 3    1  0.1592492E-001  0.1250000E+03  0.7546771E-02  0.1235069E+00
         21   -1    0    0  502  501  0.00000000000E+00  0.00000000000E+00  0.21735100122E+02  0.21735100122E+02  0.00000000000E+00 0.  1.
         21   -1    0    0  501  502 -0.00000000000E+00 -0.00000000000E+00 -0.17972081923E+03  0.17972081923E+03  0.00000000000E+00 0.  1.
         25    1    1    2    0    0  0.00000000000E+00  0.00000000000E+00 -0.15798571911E+03  0.20145591935E+03  0.12500000000E+03 0.  0.
<mgrwt>
<rscale>  0 0.12500000E+03</rscale>
<asrwt>0</asrwt>
<pdfrwt beam="1">  1       21 0.33438616E-02 0.12500000E+03</pdfrwt>
<pdfrwt beam="2">  1       21 0.27649357E-01 0.12500000E+03</pdfrwt>
<totfact> 0.64769835E+06</totfact>
</mgrwt>
</event>
<event>
 3    1  0.1592492E-001  0.1250000E+03  0.7546771E-02  0.1235069E+00
         21   -1    0    0  502  501  0.00000000000E+00  0.00000000000E+00  0.12253255617E+02  0.12253255617E+02  0.00000000000E+00 0.  1.
         21   -1    0    0  501  502 -0.00000000000E+00 -0.00000000000E+00 -0.31879282716E+03  0.31879282716E+03  0.00000000000E+00 0.  1.
         25    1    1    2    0    0  0.00000000000E+00  0.00000000000E+00 -0.30653957154E+03  0.33104608278E+03  0.12500000000E+03 0.  0.
<mgrwt>
<rscale>  0 0.12500000E+03</rscale>
<asrwt>0</asrwt>
<pdfrwt beam="1">  1       21 0.18851160E-02 0.12500000E+03</pdfrwt>
<pdfrwt beam="2">  1       21 0.49045056E-01 0.12500000E+03</pdfrwt>
<totfact> 0.52969441E+06</totfact>
</mgrwt>
</event>
<event>
 3    1  0.1592492E-001  0.1250000E+03  0.7546771E-02  0.1235069E+00
         21   -1    0    0  502  501  0.00000000000E+00  0.00000000000E+00  0.54544442211E+03  0.54544442211E+03  0.00000000000E+00 0. -1.
         21   -1    0    0  501  502 -0.00000000000E+00 -0.00000000000E+00 -0.71615912486E+01  0.71615912486E+01  0.00000000000E+00 0. -1.
         25    1    1    2    0    0  0.00000000000E+00  0.00000000000E+00  0.53828283086E+03  0.55260601336E+03  0.12500000000E+03 0.  0.
<mgrwt>
<rscale>  0 0.12500000E+03</rscale>
<asrwt>0</asrwt>
<pdfrwt beam="1">  1       21 0.83914493E-01 0.12500000E+03</pdfrwt>
<pdfrwt beam="2">  1       21 0.11017837E-02 0.12500000E+03</pdfrwt>
<totfact> 0.39327623E+06</totfact>
</mgrwt>
</event>
<event>
 3    1  0.1592492E-001  0.1250000E+03  0.7546771E-02  0.1235069E+00
         21   -1    0    0  502  501  0.00000000000E+00  0.00000000000E+00  0.75211883749E+03  0.75211883749E+03  0.00000000000E+00 0.  1.
         21   -1    0    0  501  502 -0.00000000000E+00 -0.00000000000E+00 -0.51936606362E+01  0.51936606362E+01  0.00000000000E+00 0.  1.
         25    1    1    2    0    0  0.00000000000E+00  0.00000000000E+00  0.74692517685E+03  0.75731249813E+03  0.12500000000E+03 0.  0.
<mgrwt>
<rscale>  0 0.12500000E+03</rscale>
<asrwt>0</asrwt>
<pdfrwt beam="1">  1       21 0.11571050E+00 0.12500000E+03</pdfrwt>
<pdfrwt beam="2">  1       21 0.79902531E-03 0.12500000E+03</pdfrwt>
<totfact> 0.30813344E+06</totfact>
</mgrwt>
</event>
<event>
 3    1  0.1592492E-001  0.1250000E+03  0.7546771E-02  0.1235069E+00
         21   -1    0    0  502  501  0.00000000000E+00  0.00000000000E+00  0.69623110545E+01  0.69623110545E+01  0.00000000000E+00 0. -1.
         21   -1    0    0  501  502 -0.00000000000E+00 -0.00000000000E+00 -0.56105651836E+03  0.56105651836E+03  0.00000000000E+00 0. -1.
         25    1    1    2    0    0  0.00000000000E+00  0.00000000000E+00 -0.55409420731E+03  0.56801882941E+03  0.12500000000E+03 0.  0.
<mgrwt>
<rscale>  0 0.12500000E+03</rscale>
<asrwt>0</asrwt>
<pdfrwt beam="1">  1       21 0.10711247E-02 0.12500000E+03</pdfrwt>
<pdfrwt beam="2">  1       21 0.86316394E-01 0.12500000E+03</pdfrwt>
<totfact> 0.38580066E+06</totfact>
</mgrwt>
</event>
<event>
 3    1  0.1592492E-001  0.1250000E+03  0.7546771E-02  0.1235069E+00
         21   -1    0    0  502  501  0.00000000000E+00  0.00000000000E+00  0.48805059051E+03  0.48805059051E+03  0.00000000000E+00 0.  1.
         21   -1    0    0  501  502 -0.00000000000E+00 -0.00000000000E+00 -0.80037809111E+01  0.80037809111E+01  0.00000000000E+00 0.  1.
         25    1    1    2    0    0  0.00000000000E+00  0.00000000000E+00  0.48004680960E+03  0.49605437143E+03  0.12500000000E+03 0.  0.
<mgrwt>
<rscale>  0 0.12500000E+03</rscale>
<asrwt>0</asrwt>
<pdfrwt beam="1">  1       21 0.75084683E-01 0.12500000E+03</pdfrwt>
<pdfrwt beam="2">  1       21 0.12313513E-02 0.12500000E+03</pdfrwt>
<totfact> 0.42258870E+06</totfact>
</mgrwt>
</event>
<event>
 3    1  0.1592492E-001  0.1250000E+03  0.7546771E-02  0.1235069E+00
         21   -1    0    0  502  501  0.00000000000E+00  0.00000000000E+00  0.11070185210E+02  0.11070185210E+02  0.00000000000E+00 0. -1.
         21   -1    0    0  501  502 -0.00000000000E+00 -0.00000000000E+00 -0.35286220835E+03  0.35286220835E+03  0.00000000000E+00 0. -1.
         25    1    1    2    0    0  0.00000000000E+00  0.00000000000E+00 -0.34179202314E+03  0.36393239356E+03  0.12500000000E+03 0.  0.
<mgrwt>
<rscale>  0 0.12500000E+03</rscale>
<asrwt>0</asrwt>
<pdfrwt beam="1">  1       21 0.17031051E-02 0.12500000E+03</pdfrwt>
<pdfrwt beam="2">  1       21 0.54286503E-01 0.12500000E+03</pdfrwt>
<totfact> 0.50525655E+06</totfact>
</mgrwt>
</event>
<event>
 3    1  0.1592492E-001  0.1250000E+03  0.7546771E-02  0.1235069E+00
         21   -1    0    0  502  501  0.00000000000E+00  0.00000000000E+00  0.24413878718E+02  0.24413878718E+02  0.00000000000E+00 0. -1.
         21   -1    0    0  501  502 -0.00000000000E+00 -0.00000000000E+00 -0.16000120445E+03  0.16000120445E+03  0.00000000000E+00 0. -1.
         25    1    1    2    0    0  0.00000000000E+00  0.00000000000E+00 -0.13558732573E+03  0.18441508316E+03  0.12500000000E+03 0.  0.
<mgrwt>
<rscale>  0 0.12500000E+03</rscale>
<asrwt>0</asrwt>
<pdfrwt beam="1">  1       21 0.37559815E-02 0.12500000E+03</pdfrwt>
<pdfrwt beam="2">  1       21 0.24615569E-01 0.12500000E+03</pdfrwt>
<totfact> 0.66648627E+06</totfact>
</mgrwt>
</event>
<event>
 3    1  0.1592492E-001  0.1250000E+03  0.7546771E-02  0.1235069E+00
         21   -1    0    0  502  501  0.00000000000E+00  0.00000000000E+00  0.11261486273E+02  0.11261486273E+02  0.00000000000E+00 0. -1.
         21   -1    0    0  501  502 -0.00000000000E+00 -0.00000000000E+00 -0.34686806920E+03  0.34686806920E+03  0.00000000000E+00 0. -1.
         25    1    1    2    0    0  0.00000000000E+00  0.00000000000E+00 -0.33560658293E+03  0.35812955548E+03  0.12500000000E+03 0.  0.
<mgrwt>
<rscale>  0 0.12500000E+03</rscale>
<asrwt>0</asrwt>
<pdfrwt beam="1">  1       21 0.17325365E-02 0.12500000E+03</pdfrwt>
<pdfrwt beam="2">  1       21 0.53364313E-01 0.12500000E+03</pdfrwt>
<totfact> 0.50943591E+06</totfact>
</mgrwt>
</event>
<event>
 3    1  0.1592492E-001  0.1250000E+03  0.7546771E-02  0.1235069E+00
         21   -1    0    0  502  501  0.00000000000E+00  0.00000000000E+00  0.13827835765E+03  0.13827835765E+03  0.00000000000E+00 0.  1.
         21   -1    0    0  501  502 -0.00000000000E+00 -0.00000000000E+00 -0.28249178443E+02  0.28249178443E+02  0.00000000000E+00 0.  1.
         25    1    1    2    0    0  0.00000000000E+00  0.00000000000E+00  0.11002917921E+03  0.16652753609E+03  0.12500000000E+03 0.  0.
<mgrwt>
<rscale>  0 0.12500000E+03</rscale>
<asrwt>0</asrwt>
<pdfrwt beam="1">  1       21 0.21273593E-01 0.12500000E+03</pdfrwt>
<pdfrwt beam="2">  1       21 0.43460275E-02 0.12500000E+03</pdfrwt>
<totfact> 0.68730568E+06</totfact>
</mgrwt>
</event>
<event>
 3    1  0.1592492E-001  0.1250000E+03  0.7546771E-02  0.1235069E+00
         21   -1    0    0  502  501  0.00000000000E+00  0.00000000000E+00  0.22389657141E+02  0.22389657141E+02  0.00000000000E+00 0.  1.
         21   -1    0    0  501  502 -0.00000000000E+00 -0.00000000000E+00 -0.17446671807E+03  0.17446671807E+03  0.00000000000E+00 0.  1.
         25    1    1    2    0    0  0.00000000000E+00  0.00000000000E+00 -0.15207706093E+03  0.19685637521E+03  0.12500000000E+03 0.  0.
<mgrwt>
<rscale>  0 0.12500000E+03</rscale>
<asrwt>0</asrwt>
<pdfrwt beam="1">  1       21 0.34445626E-02 0.12500000E+03</pdfrwt>
<pdfrwt beam="2">  1       21 0.26841034E-01 0.12500000E+03</pdfrwt>
<totfact> 0.65268418E+06</totfact>
</mgrwt>
</event>
<event>
 3    1  0.1592492E-001  0.1250000E+03  0.7546771E-02  0.1235069E+00
         21   -1    0    0  502  501  0.00000000000E+00  0.00000000000E+00  0.69682732309E+02  0.69682732309E+02  0.00000000000E+00 0. -1.
         21   -1    0    0  501  502 -0.00000000000E+00 -0.00000000000E+00 -0.56057646860E+02  0.56057646860E+02  0.00000000000E+00 0. -1.
         25    1    1    2    0    0  0.00000000000E+00  0.00000000000E+00  0.13625085449E+02  0.12574037917E+03  0.12500000000E+03 0.  0.
<mgrwt>
<rscale>  0 0.12500000E+03</rscale>
<asrwt>0</asrwt>
<pdfrwt beam="1">  1       21 0.10720420E-01 0.12500000E+03</pdfrwt>
<pdfrwt beam="2">  1       21 0.86242533E-02 0.12500000E+03</pdfrwt>
<totfact> 0.73941934E+06</totfact>
</mgrwt>
</event>
<event>
 3    1  0.1592492E-001  0.1250000E+03  0.7546771E-02  0.1235069E+00
         21   -1    0    0  502  501  0.00000000000E+00  0.00000000000E+00  0.53073261434E+02  0.53073261434E+02  0.00000000000E+00 0. -1.
         21   -1    0    0  501  502 -0.00000000000E+00 -0.00000000000E+00 -0.73601092047E+02  0.73601092047E+02  0.00000000000E+00 0. -1.
         25    1    1    2    0    0  0.00000000000E+00  0.00000000000E+00 -0.20527830613E+02  0.12667435348E+03  0.12500000000E+03 0.  0.
<mgrwt>
<rscale>  0 0.12500000E+03</rscale>
<asrwt>0</asrwt>
<pdfrwt beam="1">  1       21 0.81651172E-02 0.12500000E+03</pdfrwt>
<pdfrwt beam="2">  1       21 0.11323245E-01 0.12500000E+03</pdfrwt>
<totfact> 0.73813537E+06</totfact>
</mgrwt>
</event>
<event>
 3    1  0.1592492E-001  0.1250000E+03  0.7546771E-02  0.1235069E+00
         21   -1    0    0  502  501  0.00000000000E+00  0.00000000000E+00  0.17087488964E+02  0.17087488964E+02  0.00000000000E+00 0.  1.
         21   -1    0    0  501  502 -0.00000000000E+00 -0.00000000000E+00 -0.22860292745E+03  0.22860292745E+03  0.00000000000E+00 0.  1.
         25    1    1    2    0    0  0.00000000000E+00  0.00000000000E+00 -0.21151543849E+03  0.24569041642E+03  0.12500000000E+03 0.  0.
<mgrwt>
<rscale>  0 0.12500000E+03</rscale>
<asrwt>0</asrwt>
<pdfrwt beam="1">  1       21 0.26288447E-02 0.12500000E+03</pdfrwt>
<pdfrwt beam="2">  1       21 0.35169678E-01 0.12500000E+03</pdfrwt>
<totfact> 0.60286321E+06</totfact>
</mgrwt>
</event>
<event>
 3    1  0.1592492E-001  0.1250000E+03  0.7546771E-02  0.1235069E+00
         21   -1    0    0  502  501  0.00000000000E+00  0.00000000000E+00  0.73061488450E+01  0.73061488450E+01  0.00000000000E+00 0. -1.
         21   -1    0    0  501  502 -0.00000000000E+00 -0.00000000000E+00 -0.53465239798E+03  0.53465239798E+03  0.00000000000E+00 0. -1.
         25    1    1    2    0    0  0.00000000000E+00  0.00000000000E+00 -0.52734624914E+03  0.54195854683E+03  0.12500000000E+03 0.  0.
<mgrwt>
<rscale>  0 0.12500000E+03</rscale>
<asrwt>0</asrwt>
<pdfrwt beam="1">  1       21 0.11240229E-02 0.12500000E+03</pdfrwt>
<pdfrwt beam="2">  1       21 0.82254218E-01 0.12500000E+03</pdfrwt>
<totfact> 0.39856303E+06</totfact>
</mgrwt>
</event>
<event>
 3    1  0.1592492E-001  0.1250000E+03  0.7546771E-02  0.1235069E+00
         21   -1    0    0  502  501  0.00000000000E+00  0.00000000000E+00  0.34395500368E+02  0.34395500368E+02  0.00000000000E+00 0.  1.
         21   -1    0    0  501  502 -0.00000000000E+00 -0.00000000000E+00 -0.11356863422E+03  0.11356863422E+03  0.00000000000E+00 0.  1.
         25    1    1    2    0    0  0.00000000000E+00  0.00000000000E+00 -0.79173133849E+02  0.14796413459E+03  0.12500000000E+03 0.  0.
<mgrwt>
<rscale>  0 0.12500000E+03</rscale>
<asrwt>0</asrwt>
<pdfrwt beam="1">  1       21 0.52916154E-02 0.12500000E+03</pdfrwt>
<pdfrwt beam="2">  1       21 0.17472098E-01 0.12500000E+03</pdfrwt>
<totfact> 0.71015889E+06</totfact>
</mgrwt>
</event>
<event>
 3    1  0.1592492E-001  0.1250000E+03  0.7546771E-02  0.1235069E+00
         21   -1    0    0  502  501  0.00000000000E+00  0.00000000000E+00  0.24170195157E+02  0.24170195157E+02  0.00000000000E+00 0.  1.
         21   -1    0    0  501  502 -0.00000000000E+00 -0.00000000000E+00 -0.16161433429E+03  0.16161433429E+03  0.00000000000E+00 0.  1.
         25    1    1    2    0    0  0.00000000000E+00  0.00000000000E+00 -0.13744413914E+03  0.18578452945E+03  0.12500000000E+03 0.  0.
<mgrwt>
<rscale>  0 0.12500000E+03</rscale>
<asrwt>0</asrwt>
<pdfrwt beam="1">  1       21 0.37184914E-02 0.12500000E+03</pdfrwt>
<pdfrwt beam="2">  1       21 0.24863745E-01 0.12500000E+03</pdfrwt>
<totfact> 0.66494068E+06</totfact>
</mgrwt>
</event>
<event>
 3    1  0.1592492E-001  0.1250000E+03  0.7546771E-02  0.1235069E+00
         21   -1    0    0  502  501  0.00000000000E+00  0.00000000000E+00  0.63457382805E+01  0.63457382805E+01  0.00000000000E+00 0.  1.
         21   -1    0    0  501  502 -0.00000000000E+00 -0.00000000000E+00 -0.61557061248E+03  0.61557061248E+03  0.00000000000E+00 0.  1.
         25    1    1    2    0    0  0.00000000000E+00  0.00000000000E+00 -0.60922487420E+03  0.62191635077E+03  0.12500000000E+03 0.  0.
<mgrwt>
<rscale>  0 0.12500000E+03</rscale>
<asrwt>0</asrwt>
<pdfrwt beam="1">  1       21 0.97626670E-03 0.12500000E+03</pdfrwt>
<pdfrwt beam="2">  1       21 0.94703241E-01 0.12500000E+03</pdfrwt>
<totfact> 0.36119861E+06</totfact>
</mgrwt>
</event>
<event>
 3    1  0.1592492E-001  0.1250000E+03  0.7546771E-02  0.1235069E+00
         21   -1    0    0  502  501  0.00000000000E+00  0.00000000000E+00  0.46395734874E+02  0.46395734874E+02  0.00000000000E+00 0. -1.
         21   -1    0    0  501  502 -0.00000000000E+00 -0.00000000000E+00 -0.84194161611E+02  0.84194161611E+02  0.00000000000E+00 0. -1.
         25    1    1    2    0    0  0.00000000000E+00  0.00000000000E+00 -0.37798426737E+02  0.13058989648E+03  0.12500000000E+03 0.  0.
<mgrwt>
<rscale>  0 0.12500000E+03</rscale>
<asrwt>0</asrwt>
<pdfrwt beam="1">  1       21 0.71378055E-02 0.12500000E+03</pdfrwt>
<pdfrwt beam="2">  1       21 0.12952948E-01 0.12500000E+03</pdfrwt>
<totfact> 0.73285991E+06</totfact>
</mgrwt>
</event>
<event>
 3    1  0.1592492E-001  0.1250000E+03  0.7546771E-02  0.1235069E+00
         21   -1    0    0  502  501  0.00000000000E+00  0.00000000000E+00  0.49299382368E+03  0.49299382368E+03  0.00000000000E+00 0.  1.
         21   -1    0    0  501  502 -0.00000000000E+00 -0.00000000000E+00 -0.79235272581E+01  0.79235272581E+01  0.00000000000E+00 0.  1.
         25    1    1    2    0    0  0.00000000000E+00  0.00000000000E+00  0.48507029642E+03  0.50091735094E+03  0.12500000000E+03 0.  0.
<mgrwt>
<rscale>  0 0.12500000E+03</rscale>
<asrwt>0</asrwt>
<pdfrwt beam="1">  1       21 0.75845180E-01 0.12500000E+03</pdfrwt>
<pdfrwt beam="2">  1       21 0.12190046E-02 0.12500000E+03</pdfrwt>
<totfact> 0.41994372E+06</totfact>
</mgrwt>
</event>
<event>
 3    1  0.1592492E-001  0.1250000E+03  0.7546771E-02  0.1235069E+00
         21   -1    0    0  502  501  0.00000000000E+00  0.00000000000E+00  0.10930143210E+03  0.10930143210E+03  0.00000000000E+00 0. -1.
         21   -1    0    0  501  502 -0.00000000000E+00 -0.00000000000E+00 -0.35738324053E+02  0.35738324053E+02  0.00000000000E+00 0. -1.
         25    1    1    2    0    0  0.00000000000E+00  0.00000000000E+00  0.73563108049E+02  0.14503975616E+03  0.12500000000E+03 0.  0.
<mgrwt>
<rscale>  0 0.12500000E+03</rscale>
<asrwt>0</asrwt>
<pdfrwt beam="1">  1       21 0.16815605E-01 0.12500000E+03</pdfrwt>
<pdfrwt beam="2">  1       21 0.54982037E-02 0.12500000E+03</pdfrwt>
<totfact> 0.71388011E+06</totfact>
</mgrwt>
</event>
<event>
 3    1  0.1592492E-001  0.1250000E+03  0.7546771E-02  0.1235069E+00
         21   -1    0    0  502  501  0.00000000000E+00  0.00000000000E+00  0.17374550740E+03  0.17374550740E+03  0.00000000000E+00 0. -1.
         21   -1    0    0  501  502 -0.00000000000E+00 -0.00000000000E+00 -0.22482595714E+02  0.22482595714E+02  0.00000000000E+00 0. -1.
         25    1    1    2    0    0  0.00000000000E+00  0.00000000000E+00  0.15126291169E+03  0.19622810311E+03  0.12500000000E+03 0.  0.
<mgrwt>
<rscale>  0 0.12500000E+03</rscale>
<asrwt>0</asrwt>
<pdfrwt beam="1">  1       21 0.26730077E-01 0.12500000E+03</pdfrwt>
<pdfrwt beam="2">  1       21 0.34588610E-02 0.12500000E+03</pdfrwt>
<totfact> 0.65336861E+06</totfact>
</mgrwt>
</event>
<event>
 3    1  0.1592492E-001  0.1250000E+03  0.7546771E-02  0.1235069E+00
         21   -1    0    0  502  501  0.00000000000E+00  0.00000000000E+00  0.28294651742E+02  0.28294651742E+02  0.00000000000E+00 0.  1.
         21   -1    0    0  501  502 -0.00000000000E+00 -0.00000000000E+00 -0.13805612579E+03  0.13805612579E+03  0.00000000000E+00 0.  1.
         25    1    1    2    0    0  0.00000000000E+00  0.00000000000E+00 -0.10976147405E+03  0.16635077753E+03  0.12500000000E+03 0.  0.
<mgrwt>
<rscale>  0 0.12500000E+03</rscale>
<asrwt>0</asrwt>
<pdfrwt beam="1">  1       21 0.43530232E-02 0.12500000E+03</pdfrwt>
<pdfrwt beam="2">  1       21 0.21239404E-01 0.12500000E+03</pdfrwt>
<totfact> 0.68751705E+06</totfact>
</mgrwt>
</event>
<event>
 3    1  0.1592492E-001  0.1250000E+03  0.7546771E-02  0.1235069E+00
         21   -1    0    0  502  501  0.00000000000E+00  0.00000000000E+00  0.14684523202E+02  0.14684523202E+02  0.00000000000E+00 0. -1.
         21   -1    0    0  501  502 -0.00000000000E+00 -0.00000000000E+00 -0.26601136081E+03  0.26601136081E+03  0.00000000000E+00 0. -1.
         25    1    1    2    0    0  0.00000000000E+00  0.00000000000E+00 -0.25132683761E+03  0.28069588402E+03  0.12500000000E+03 0.  0.
<mgrwt>
<rscale>  0 0.12500000E+03</rscale>
<asrwt>0</asrwt>
<pdfrwt beam="1">  1       21 0.22591575E-02 0.12500000E+03</pdfrwt>
<pdfrwt beam="2">  1       21 0.40924822E-01 0.12500000E+03</pdfrwt>
<totfact> 0.57099573E+06</totfact>
</mgrwt>
</event>
<event>
 3    1  0.1592492E-001  0.1250000E+03  0.7546771E-02  0.1235069E+00
         21   -1    0    0  502  501  0.00000000000E+00  0.00000000000E+00  0.14110475741E+03  0.14110475741E+03  0.00000000000E+00 0.  1.
         21   -1    0    0  501  502 -0.00000000000E+00 -0.00000000000E+00 -0.27683333089E+02  0.27683333089E+02  0.00000000000E+00 0.  1.
         25    1    1    2    0    0  0.00000000000E+00  0.00000000000E+00  0.11342142433E+03  0.16878809050E+03  0.12500000000E+03 0.  0.
<mgrwt>
<rscale>  0 0.12500000E+03</rscale>
<asrwt>0</asrwt>
<pdfrwt beam="1">  1       21 0.21708424E-01 0.12500000E+03</pdfrwt>
<pdfrwt beam="2">  1       21 0.42589744E-02 0.12500000E+03</pdfrwt>
<totfact> 0.68461311E+06</totfact>
</mgrwt>
</event>
<event>
 3    1  0.1592492E-001  0.1250000E+03  0.7546771E-02  0.1235069E+00
         21   -1    0    0  502  501  0.00000000000E+00  0.00000000000E+00  0.19835996003E+02  0.19835996003E+02  0.00000000000E+00 0. -1.
         21   -1    0    0  501  502 -0.00000000000E+00 -0.00000000000E+00 -0.19692734357E+03  0.19692734357E+03  0.00000000000E+00 0. -1.
         25    1    1    2    0    0  0.00000000000E+00  0.00000000000E+00 -0.17709134757E+03  0.21676333957E+03  0.12500000000E+03 0.  0.
<mgrwt>
<rscale>  0 0.12500000E+03</rscale>
<asrwt>0</asrwt>
<pdfrwt beam="1">  1       21 0.30516918E-02 0.12500000E+03</pdfrwt>
<pdfrwt beam="2">  1       21 0.30296514E-01 0.12500000E+03</pdfrwt>
<totfact> 0.63154905E+06</totfact>
</mgrwt>
</event>
<event>
 3    1  0.1592492E-001  0.1250000E+03  0.7546771E-02  0.1235069E+00
         21   -1    0    0  502  501  0.00000000000E+00  0.00000000000E+00  0.13194269215E+03  0.13194269215E+03  0.00000000000E+00 0.  1.
         21   -1    0    0  501  502 -0.00000000000E+00 -0.00000000000E+00 -0.29605656337E+02  0.29605656337E+02  0.00000000000E+00 0.  1.
         25    1    1    2    0    0  0.00000000000E+00  0.00000000000E+00  0.10233703581E+03  0.16154834849E+03  0.12500000000E+03 0.  0.
<mgrwt>
<rscale>  0 0.12500000E+03</rscale>
<asrwt>0</asrwt>
<pdfrwt beam="1">  1       21 0.20298875E-01 0.12500000E+03</pdfrwt>
<pdfrwt beam="2">  1       21 0.45547164E-02 0.12500000E+03</pdfrwt>
<totfact> 0.69330798E+06</totfact>
</mgrwt>
</event>
<event>
 3    1  0.1592492E-001  0.1250000E+03  0.7546771E-02  0.1235069E+00
         21   -1    0    0  502  501  0.00000000000E+00  0.00000000000E+00  0.13798260184E+04  0.13798260184E+04  0.00000000000E+00 0. -1.
         21   -1    0    0  501  502 -0.00000000000E+00 -0.00000000000E+00 -0.28309728531E+01  0.28309728531E+01  0.00000000000E+00 0. -1.
         25    1    1    2    0    0  0.00000000000E+00  0.00000000000E+00  0.13769950455E+04  0.13826569912E+04  0.12500000000E+03 0.  0.
<mgrwt>
<rscale>  0 0.12500000E+03</rscale>
<asrwt>0</asrwt>
<pdfrwt beam="1">  1       21 0.21228039E+00 0.12500000E+03</pdfrwt>
<pdfrwt beam="2">  1       21 0.43553539E-03 0.12500000E+03</pdfrwt>
<totfact> 0.15829535E+06</totfact>
</mgrwt>
</event>
<event>
 3    1  0.1592492E-001  0.1250000E+03  0.7546771E-02  0.1235069E+00
         21   -1    0    0  502  501  0.00000000000E+00  0.00000000000E+00  0.37447788509E+01  0.37447788509E+01  0.00000000000E+00 0.  1.
         21   -1    0    0  501  502 -0.00000000000E+00 -0.00000000000E+00 -0.10431190080E+04  0.10431190080E+04  0.00000000000E+00 0.  1.
         25    1    1    2    0    0  0.00000000000E+00  0.00000000000E+00 -0.10393742291E+04  0.10468637868E+04  0.12500000000E+03 0.  0.
<mgrwt>
<rscale>  0 0.12500000E+03</rscale>
<asrwt>0</asrwt>
<pdfrwt beam="1">  1       21 0.57612037E-03 0.12500000E+03</pdfrwt>
<pdfrwt beam="2">  1       21 0.16047969E+00 0.12500000E+03</pdfrwt>
<totfact> 0.22473481E+06</totfact>
</mgrwt>
</event>
<event>
 3    1  0.1592492E-001  0.1250000E+03  0.7546771E-02  0.1235069E+00
         21   -1    0    0  502  501  0.00000000000E+00  0.00000000000E+00  0.35642608283E+02  0.35642608283E+02  0.00000000000E+00 0.  1.
         21   -1    0    0  501  502 -0.00000000000E+00 -0.00000000000E+00 -0.10959495357E+03  0.10959495357E+03  0.00000000000E+00 0.  1.
         25    1    1    2    0    0  0.00000000000E+00  0.00000000000E+00 -0.73952345291E+02  0.14523756186E+03  0.12500000000E+03 0.  0.
<mgrwt>
<rscale>  0 0.12500000E+03</rscale>
<asrwt>0</asrwt>
<pdfrwt beam="1">  1       21 0.54834782E-02 0.12500000E+03</pdfrwt>
<pdfrwt beam="2">  1       21 0.16860762E-01 0.12500000E+03</pdfrwt>
<totfact> 0.71362710E+06</totfact>
</mgrwt>
</event>
<event>
 3    1  0.1592492E-001  0.1250000E+03  0.7546771E-02  0.1235069E+00
         21   -1    0    0  502  501  0.00000000000E+00  0.00000000000E+00  0.14337380794E+03  0.14337380794E+03  0.00000000000E+00 0.  1.
         21   -1    0    0  501  502 -0.00000000000E+00 -0.00000000000E+00 -0.27245213446E+02  0.27245213446E+02  0.00000000000E+00 0.  1.
         25    1    1    2    0    0  0.00000000000E+00  0.00000000000E+00  0.11612859450E+03  0.17061902139E+03  0.12500000000E+03 0.  0.
<mgrwt>
<rscale>  0 0.12500000E+03</rscale>
<asrwt>0</asrwt>
<pdfrwt beam="1">  1       21 0.22057508E-01 0.12500000E+03</pdfrwt>
<pdfrwt beam="2">  1       21 0.41915714E-02 0.12500000E+03</pdfrwt>
<totfact> 0.68244330E+06</totfact>
</mgrwt>
</event>
<event>
 3    1  0.1592492E-001  0.1250000E+03  0.7546771E-02  0.1235069E+00
         21   -1    0    0  502  501  0.00000000000E+00  0.00000000000E+00  0.58341717516E+02  0.58341717516E+02  0.00000000000E+00 0. -1.
         21   -1    0    0  501  502 -0.00000000000E+00 -0.00000000000E+00 -0.66954662398E+02  0.66954662398E+02  0.00000000000E+00 0. -1.
         25    1    1    2    0    0  0.00000000000E+00  0.00000000000E+00 -0.86129448829E+01  0.12529637991E+03  0.12500000000E+03 0.  0.
<mgrwt>
<rscale>  0 0.12500000E+03</rscale>
<asrwt>0</asrwt>
<pdfrwt beam="1">  1       21 0.89756488E-02 0.12500000E+03</pdfrwt>
<pdfrwt beam="2">  1       21 0.10300717E-01 0.12500000E+03</pdfrwt>
<totfact> 0.74003560E+06</totfact>
</mgrwt>
</event>
<event>
 3    1  0.1592492E-001  0.1250000E+03  0.7546771E-02  0.1235069E+00
         21   -1    0    0  502  501  0.00000000000E+00  0.00000000000E+00  0.15811029865E+03  0.15811029865E+03  0.00000000000E+00 0.  1.
         21   -1    0    0  501  502 -0.00000000000E+00 -0.00000000000E+00 -0.24705854289E+02  0.24705854289E+02  0.00000000000E+00 0.  1.
         25    1    1    2    0    0  0.00000000000E+00  0.00000000000E+00  0.13340444436E+03  0.18281615294E+03  0.12500000000E+03 0.  0.
<mgrwt>
<rscale>  0 0.12500000E+03</rscale>
<asrwt>0</asrwt>
<pdfrwt beam="1">  1       21 0.24324661E-01 0.12500000E+03</pdfrwt>
<pdfrwt beam="2">  1       21 0.38009008E-02 0.12500000E+03</pdfrwt>
<totfact> 0.66829936E+06</totfact>
</mgrwt>
</event>
<event>
 3    1  0.1592492E-001  0.1250000E+03  0.7546771E-02  0.1235069E+00
         21   -1    0    0  502  501  0.00000000000E+00  0.00000000000E+00  0.14369614182E+02  0.14369614182E+02  0.00000000000E+00 0.  1.
         21   -1    0    0  501  502 -0.00000000000E+00 -0.00000000000E+00 -0.27184097991E+03  0.27184097991E+03  0.00000000000E+00 0.  1.
         25    1    1    2    0    0  0.00000000000E+00  0.00000000000E+00 -0.25747136573E+03  0.28621059409E+03  0.12500000000E+03 0.  0.
<mgrwt>
<rscale>  0 0.12500000E+03</rscale>
<asrwt>0</asrwt>
<pdfrwt beam="1">  1       21 0.22107099E-02 0.12500000E+03</pdfrwt>
<pdfrwt beam="2">  1       21 0.41821688E-01 0.12500000E+03</pdfrwt>
<totfact> 0.56621957E+06</totfact>
</mgrwt>
</event>
<event>
 3    1  0.1592492E-001  0.1250000E+03  0.7546771E-02  0.1235069E+00
         21   -1    0    0  502  501  0.00000000000E+00  0.00000000000E+00  0.14386228919E+02  0.14386228919E+02  0.00000000000E+00 0. -1.
         21   -1    0    0  501  502 -0.00000000000E+00 -0.00000000000E+00 -0.27152702922E+03  0.27152702922E+03  0.00000000000E+00 0. -1.
         25    1    1    2    0    0  0.00000000000E+00  0.00000000000E+00 -0.25714080030E+03  0.28591325814E+03  0.12500000000E+03 0.  0.
<mgrwt>
<rscale>  0 0.12500000E+03</rscale>
<asrwt>0</asrwt>
<pdfrwt beam="1">  1       21 0.22132661E-02 0.12500000E+03</pdfrwt>
<pdfrwt beam="2">  1       21 0.41773387E-01 0.12500000E+03</pdfrwt>
<totfact> 0.56647540E+06</totfact>
</mgrwt>
</event>
<event>
 3    1  0.1592492E-001  0.1250000E+03  0.7546771E-02  0.1235069E+00
         21   -1    0    0  502  501  0.00000000000E+00  0.00000000000E+00  0.49864141144E+02  0.49864141144E+02  0.00000000000E+00 0.  1.
         21   -1    0    0  501  502 -0.00000000000E+00 -0.00000000000E+00 -0.78337857836E+02  0.78337857836E+02  0.00000000000E+00 0.  1.
         25    1    1    2    0    0  0.00000000000E+00  0.00000000000E+00 -0.28473716692E+02  0.12820199898E+03  0.12500000000E+03 0.  0.
<mgrwt>
<rscale>  0 0.12500000E+03</rscale>
<asrwt>0</asrwt>
<pdfrwt beam="1">  1       21 0.76714063E-02 0.12500000E+03</pdfrwt>
<pdfrwt beam="2">  1       21 0.12051978E-01 0.12500000E+03</pdfrwt>
<totfact> 0.73606290E+06</totfact>
</mgrwt>
</event>
<event>
 3    1  0.1592492E-001  0.1250000E+03  0.7546771E-02  0.1235069E+00
         21   -1    0    0  502  501  0.00000000000E+00  0.00000000000E+00  0.33857446892E+03  0.33857446892E+03  0.00000000000E+00 0.  1.
         21   -1    0    0  501  502 -0.00000000000E+00 -0.00000000000E+00 -0.11537343653E+02  0.11537343653E+02  0.00000000000E+00 0.  1.
         25    1    1    2    0    0  0.00000000000E+00  0.00000000000E+00  0.32703712527E+03  0.35011181257E+03  0.12500000000E+03 0.  0.
<mgrwt>
<rscale>  0 0.12500000E+03</rscale>
<asrwt>0</asrwt>
<pdfrwt beam="1">  1       21 0.52088372E-01 0.12500000E+03</pdfrwt>
<pdfrwt beam="2">  1       21 0.17749762E-02 0.12500000E+03</pdfrwt>
<totfact> 0.51530178E+06</totfact>
</mgrwt>
</event>
<event>
 3    1  0.1592492E-001  0.1250000E+03  0.7546771E-02  0.1235069E+00
         21   -1    0    0  502  501  0.00000000000E+00  0.00000000000E+00  0.92468734083E+03  0.92468734083E+03  0.00000000000E+00 0. -1.
         21   -1    0    0  501  502 -0.00000000000E+00 -0.00000000000E+00 -0.42244008624E+01  0.42244008624E+01  0.00000000000E+00 0. -1.
         25    1    1    2    0    0  0.00000000000E+00  0.00000000000E+00  0.92046293997E+03  0.92891174169E+03  0.12500000000E+03 0.  0.
<mgrwt>
<rscale>  0 0.12500000E+03</rscale>
<asrwt>0</asrwt>
<pdfrwt beam="1">  1       21 0.14225943E+00 0.12500000E+03</pdfrwt>
<pdfrwt beam="2">  1       21 0.64990856E-03 0.12500000E+03</pdfrwt>
<totfact> 0.25484670E+06</totfact>
</mgrwt>
</event>
<event>
 3    1  0.1592492E-001  0.1250000E+03  0.7546771E-02  0.1235069E+00
         21   -1    0    0  502  501  0.00000000000E+00  0.00000000000E+00  0.14846583941E+03  0.14846583941E+03  0.00000000000E+00 0.  1.
         21   -1    0    0  501  502 -0.00000000000E+00 -0.00000000000E+00 -0.26310766272E+02  0.26310766272E+02  0.00000000000E+00 0.  1.
         25    1    1    2    0    0  0.00000000000E+00  0.00000000000E+00  0.12215507314E+03  0.17477660568E+03  0.12500000000E+03 0.  0.
<mgrwt>
<rscale>  0 0.12500000E+03</rscale>
<asrwt>0</asrwt>
<pdfrwt beam="1">  1       21 0.22840898E-01 0.12500000E+03</pdfrwt>
<pdfrwt beam="2">  1       21 0.40478103E-02 0.12500000E+03</pdfrwt>
<totfact> 0.67755859E+06</totfact>
</mgrwt>
</event>
<event>
 3    1  0.1592492E-001  0.1250000E+03  0.7546771E-02  0.1235069E+00
         21   -1    0    0  502  501  0.00000000000E+00  0.00000000000E+00  0.12988971698E+03  0.12988971698E+03  0.00000000000E+00 0. -1.
         21   -1    0    0  501  502 -0.00000000000E+00 -0.00000000000E+00 -0.30073589280E+02  0.30073589280E+02  0.00000000000E+00 0. -1.
         25    1    1    2    0    0  0.00000000000E+00  0.00000000000E+00  0.99816127696E+02  0.15996330626E+03  0.12500000000E+03 0.  0.
<mgrwt>
<rscale>  0 0.12500000E+03</rscale>
<asrwt>0</asrwt>
<pdfrwt beam="1">  1       21 0.19983033E-01 0.12500000E+03</pdfrwt>
<pdfrwt beam="2">  1       21 0.46267061E-02 0.12500000E+03</pdfrwt>
<totfact> 0.69523980E+06</totfact>
</mgrwt>
</event>
<event>
 3    1  0.1592492E-001  0.1250000E+03  0.7546771E-02  0.1235069E+00
         21   -1    0    0  502  501  0.00000000000E+00  0.00000000000E+00  0.65797919308E+01  0.65797919308E+01  0.00000000000E+00 0. -1.
         21   -1    0    0  501  502 -0.00000000000E+00 -0.00000000000E+00 -0.59367378803E+03  0.59367378803E+03  0.00000000000E+00 0. -1.
         25    1    1    2    0    0  0.00000000000E+00  0.00000000000E+00 -0.58709399610E+03  0.60025357996E+03  0.12500000000E+03 0.  0.
<mgrwt>
<rscale>  0 0.12500000E+03</rscale>
<asrwt>0</asrwt>
<pdfrwt beam="1">  1       21 0.10122757E-02 0.12500000E+03</pdfrwt>
<pdfrwt beam="2">  1       21 0.91334429E-01 0.12500000E+03</pdfrwt>
<totfact> 0.37081166E+06</totfact>
</mgrwt>
</event>
<event>
 3    1  0.1592492E-001  0.1250000E+03  0.7546771E-02  0.1235069E+00
         21   -1    0    0  502  501  0.00000000000E+00  0.00000000000E+00  0.24261338541E+03  0.24261338541E+03  0.00000000000E+00 0. -1.
         21   -1    0    0  501  502 -0.00000000000E+00 -0.00000000000E+00 -0.16100719230E+02  0.16100719230E+02  0.00000000000E+00 0. -1.
         25    1    1    2    0    0  0.00000000000E+00  0.00000000000E+00  0.22651266618E+03  0.25871410464E+03  0.12500000000E+03 0.  0.
<mgrwt>
<rscale>  0 0.12500000E+03</rscale>
<asrwt>0</asrwt>
<pdfrwt beam="1">  1       21 0.37325134E-01 0.12500000E+03</pdfrwt>
<pdfrwt beam="2">  1       21 0.24770339E-02 0.12500000E+03</pdfrwt>
<totfact> 0.59067334E+06</totfact>
</mgrwt>
</event>
<event>
 3    1  0.1592492E-001  0.1250000E+03  0.7546771E-02  0.1235069E+00
         21   -1    0    0  502  501  0.00000000000E+00  0.00000000000E+00  0.45825200131E+03  0.45825200131E+03  0.00000000000E+00 0. -1.
         21   -1    0    0  501  502 -0.00000000000E+00 -0.00000000000E+00 -0.85242399134E+01  0.85242399134E+01  0.00000000000E+00 0. -1.
         25    1    1    2    0    0  0.00000000000E+00  0.00000000000E+00  0.44972776140E+03  0.46677624123E+03  0.12500000000E+03 0.  0.
<mgrwt>
<rscale>  0 0.12500000E+03</rscale>
<asrwt>0</asrwt>
<pdfrwt beam="1">  1       21 0.70500289E-01 0.12500000E+03</pdfrwt>
<pdfrwt beam="2">  1       21 0.13114219E-02 0.12500000E+03</pdfrwt>
<totfact> 0.43905148E+06</totfact>
</mgrwt>
</event>
<event>
 3    1  0.1592492E-001  0.1250000E+03  0.7546771E-02  0.1235069E+00
         21   -1    0    0  502  501  0.00000000000E+00  0.00000000000E+00  0.24687897347E+01  0.24687897347E+01  0.00000000000E+00 0.  1.
         21   -1    0    0  501  502 -0.00000000000E+00 -0.00000000000E+00 -0.15822530146E+04  0.15822530146E+04  0.00000000000E+00 0.  1.
         25    1    1    2    0    0  0.00000000000E+00  0.00000000000E+00 -0.15797842248E+04  0.15847218043E+04  0.12500000000E+03 0.  0.
<mgrwt>
<rscale>  0 0.12500000E+03</rscale>
<asrwt>0</asrwt>
<pdfrwt beam="1">  1       21 0.37981513E-03 0.12500000E+03</pdfrwt>
<pdfrwt beam="2">  1       21 0.24342269E+00 0.12500000E+03</pdfrwt>
<totfact> 0.12782530E+06</totfact>
</mgrwt>
</event>
<event>
 3    1  0.1592492E-001  0.1250000E+03  0.7546771E-02  0.1235069E+00
         21   -1    0    0  502  501  0.00000000000E+00  0.00000000000E+00  0.52301766142E+02  0.52301766142E+02  0.00000000000E+00 0. -1.
         21   -1    0    0  501  502 -0.00000000000E+00 -0.00000000000E+00 -0.74686770413E+02  0.74686770413E+02  0.00000000000E+00 0. -1.
         25    1    1    2    0    0  0.00000000000E+00  0.00000000000E+00 -0.22385004271E+02  0.12698853655E+03  0.12500000000E+03 0.  0.
<mgrwt>
<rscale>  0 0.12500000E+03</rscale>
<asrwt>0</asrwt>
<pdfrwt beam="1">  1       21 0.80464255E-02 0.12500000E+03</pdfrwt>
<pdfrwt beam="2">  1       21 0.11490272E-01 0.12500000E+03</pdfrwt>
<totfact> 0.73770697E+06</totfact>
</mgrwt>
</event>
<event>
 3    1  0.1592492E-001  0.1250000E+03  0.7546771E-02  0.1235069E+00
         21   -1    0    0  502  501  0.00000000000E+00  0.00000000000E+00  0.10378965622E+03  0.10378965622E+03  0.00000000000E+00 0. -1.
         21   -1    0    0  501  502 -0.00000000000E+00 -0.00000000000E+00 -0.37636216769E+02  0.37636216769E+02  0.00000000000E+00 0. -1.
         25    1    1    2    0    0  0.00000000000E+00  0.00000000000E+00  0.66153439454E+02  0.14142587299E+03  0.12500000000E+03 0.  0.
<mgrwt>
<rscale>  0 0.12500000E+03</rscale>
<asrwt>0</asrwt>
<pdfrwt beam="1">  1       21 0.15967639E-01 0.12500000E+03</pdfrwt>
<pdfrwt beam="2">  1       21 0.57901872E-02 0.12500000E+03</pdfrwt>
<totfact> 0.71853706E+06</totfact>
</mgrwt>
</event>
<event>
 3    1  0.1592492E-001  0.1250000E+03  0.7546771E-02  0.1235069E+00
         21   -1    0    0  502  501  0.00000000000E+00  0.00000000000E+00  0.10315398065E+03  0.10315398065E+03  0.00000000000E+00 0. -1.
         21   -1    0    0  501  502 -0.00000000000E+00 -0.00000000000E+00 -0.37868146001E+02  0.37868146001E+02  0.00000000000E+00 0. -1.
         25    1    1    2    0    0  0.00000000000E+00  0.00000000000E+00  0.65285834652E+02  0.14102212665E+03  0.12500000000E+03 0.  0.
<mgrwt>
<rscale>  0 0.12500000E+03</rscale>
<asrwt>0</asrwt>
<pdfrwt beam="1">  1       21 0.15869843E-01 0.12500000E+03</pdfrwt>
<pdfrwt beam="2">  1       21 0.58258687E-02 0.12500000E+03</pdfrwt>
<totfact> 0.71906151E+06</totfact>
</mgrwt>
</event>
<event>
 3    1  0.1592492E-001  0.1250000E+03  0.7546771E-02  0.1235069E+00
         21   -1    0    0  502  501  0.00000000000E+00  0.00000000000E+00  0.13016285122E+03  0.13016285122E+03  0.00000000000E+00 0.  1.
         21   -1    0    0  501  502 -0.00000000000E+00 -0.00000000000E+00 -0.30010482739E+02  0.30010482739E+02  0.00000000000E+00 0.  1.
         25    1    1    2    0    0  0.00000000000E+00  0.00000000000E+00  0.10015236849E+03  0.16017333396E+03  0.12500000000E+03 0.  0.
<mgrwt>
<rscale>  0 0.12500000E+03</rscale>
<asrwt>0</asrwt>
<pdfrwt beam="1">  1       21 0.20025054E-01 0.12500000E+03</pdfrwt>
<pdfrwt beam="2">  1       21 0.46169974E-02 0.12500000E+03</pdfrwt>
<totfact> 0.69498323E+06</totfact>
</mgrwt>
</event>
<event>
 3    1  0.1592492E-001  0.1250000E+03  0.7546771E-02  0.1235069E+00
         21   -1    0    0  502  501  0.00000000000E+00  0.00000000000E+00  0.20705137500E+02  0.20705137500E+02  0.00000000000E+00 0.  1.
         21   -1    0    0  501  502 -0.00000000000E+00 -0.00000000000E+00 -0.18866090602E+03  0.18866090602E+03  0.00000000000E+00 0.  1.
         25    1    1    2    0    0  0.00000000000E+00  0.00000000000E+00 -0.16795576852E+03  0.20936604352E+03  0.12500000000E+03 0.  0.
<mgrwt>
<rscale>  0 0.12500000E+03</rscale>
<asrwt>0</asrwt>
<pdfrwt beam="1">  1       21 0.31854057E-02 0.12500000E+03</pdfrwt>
<pdfrwt beam="2">  1       21 0.29024755E-01 0.12500000E+03</pdfrwt>
<totfact> 0.63926296E+06</totfact>
</mgrwt>
</event>
<event>
 3    1  0.1592492E-001  0.1250000E+03  0.7546771E-02  0.1235069E+00
         21   -1    0    0  502  501  0.00000000000E+00  0.00000000000E+00  0.72939682212E+02  0.72939682212E+02  0.00000000000E+00 0.  1.
         21   -1    0    0  501  502 -0.00000000000E+00 -0.00000000000E+00 -0.53554524527E+02  0.53554524527E+02  0.00000000000E+00 0.  1.
         25    1    1    2    0    0  0.00000000000E+00  0.00000000000E+00  0.19385157685E+02  0.12649420674E+03  0.12500000000E+03 0.  0.
<mgrwt>
<rscale>  0 0.12500000E+03</rscale>
<asrwt>0</asrwt>
<pdfrwt beam="1">  1       21 0.11221490E-01 0.12500000E+03</pdfrwt>
<pdfrwt beam="2">  1       21 0.82391576E-02 0.12500000E+03</pdfrwt>
<totfact> 0.73838166E+06</totfact>
</mgrwt>
</event>
<event>
 3    1  0.1592492E-001  0.1250000E+03  0.7546771E-02  0.1235069E+00
         21   -1    0    0  502  501  0.00000000000E+00  0.00000000000E+00  0.92525105688E+02  0.92525105688E+02  0.00000000000E+00 0.  1.
         21   -1    0    0  501  502 -0.00000000000E+00 -0.00000000000E+00 -0.42218271149E+02  0.42218271149E+02  0.00000000000E+00 0.  1.
         25    1    1    2    0    0  0.00000000000E+00  0.00000000000E+00  0.50306834540E+02  0.13474337684E+03  0.12500000000E+03 0.  0.
<mgrwt>
<rscale>  0 0.12500000E+03</rscale>
<asrwt>0</asrwt>
<pdfrwt beam="1">  1       21 0.14234632E-01 0.12500000E+03</pdfrwt>
<pdfrwt beam="2">  1       21 0.64951187E-02 0.12500000E+03</pdfrwt>
<totfact> 0.72730468E+06</totfact>
</mgrwt>
</event>
<event>
 3    1  0.1592492E-001  0.1250000E+03  0.7546771E-02  0.1235069E+00
         21   -1    0    0  502  501  0.00000000000E+00  0.00000000000E+00  0.90105389472E+03  0.90105389472E+03  0.00000000000E+00 0. -1.
         21   -1    0    0  501  502 -0.00000000000E+00 -0.00000000000E+00 -0.43352012825E+01  0.43352012825E+01  0.00000000000E+00 0. -1.
         25    1    1    2    0    0  0.00000000000E+00  0.00000000000E+00  0.89671869344E+03  0.90538909600E+03  0.12500000000E+03 0.  0.
<mgrwt>
<rscale>  0 0.12500000E+03</rscale>
<asrwt>0</asrwt>
<pdfrwt beam="1">  1       21 0.13862353E+00 0.12500000E+03</pdfrwt>
<pdfrwt beam="2">  1       21 0.66695476E-03 0.12500000E+03</pdfrwt>
<totfact> 0.26144780E+06</totfact>
</mgrwt>
</event>
<event>
 3    1  0.1592492E-001  0.1250000E+03  0.7546771E-02  0.1235069E+00
         21   -1    0    0  502  501  0.00000000000E+00  0.00000000000E+00  0.21437960250E+02  0.21437960250E+02  0.00000000000E+00 0. -1.
         21   -1    0    0  501  502 -0.00000000000E+00 -0.00000000000E+00 -0.18221183146E+03  0.18221183146E+03  0.00000000000E+00 0. -1.
         25    1    1    2    0    0  0.00000000000E+00  0.00000000000E+00 -0.16077387121E+03  0.20364979171E+03  0.12500000000E+03 0.  0.
<mgrwt>
<rscale>  0 0.12500000E+03</rscale>
<asrwt>0</asrwt>
<pdfrwt beam="1">  1       21 0.32981477E-02 0.12500000E+03</pdfrwt>
<pdfrwt beam="2">  1       21 0.28032590E-01 0.12500000E+03</pdfrwt>
<totfact> 0.64533905E+06</totfact>
</mgrwt>
</event>
<event>
 3    1  0.1592492E-001  0.1250000E+03  0.7546771E-02  0.1235069E+00
         21   -1    0    0  502  501  0.00000000000E+00  0.00000000000E+00  0.87051126152E+01  0.87051126152E+01  0.00000000000E+00 0. -1.
         21   -1    0    0  501  502 -0.00000000000E+00 -0.00000000000E+00 -0.44873055326E+03  0.44873055326E+03  0.00000000000E+00 0. -1.
         25    1    1    2    0    0  0.00000000000E+00  0.00000000000E+00 -0.44002544064E+03  0.45743566587E+03  0.12500000000E+03 0.  0.
<mgrwt>
<rscale>  0 0.12500000E+03</rscale>
<asrwt>0</asrwt>
<pdfrwt beam="1">  1       21 0.13392481E-02 0.12500000E+03</pdfrwt>
<pdfrwt beam="2">  1       21 0.69035468E-01 0.12500000E+03</pdfrwt>
<totfact> 0.44450653E+06</totfact>
</mgrwt>
</event>
<event>
 3    1  0.1592492E-001  0.1250000E+03  0.7546771E-02  0.1235069E+00
         21   -1    0    0  502  501  0.00000000000E+00  0.00000000000E+00  0.30005767710E+02  0.30005767710E+02  0.00000000000E+00 0.  1.
         21   -1    0    0  501  502 -0.00000000000E+00 -0.00000000000E+00 -0.13018330468E+03  0.13018330468E+03  0.00000000000E+00 0.  1.
         25    1    1    2    0    0  0.00000000000E+00  0.00000000000E+00 -0.10017753697E+03  0.16018907239E+03  0.12500000000E+03 0.  0.
<mgrwt>
<rscale>  0 0.12500000E+03</rscale>
<asrwt>0</asrwt>
<pdfrwt beam="1">  1       21 0.46162720E-02 0.12500000E+03</pdfrwt>
<pdfrwt beam="2">  1       21 0.20028201E-01 0.12500000E+03</pdfrwt>
<totfact> 0.69496401E+06</totfact>
</mgrwt>
</event>
<event>
 3    1  0.1592492E-001  0.1250000E+03  0.7546771E-02  0.1235069E+00
         21   -1    0    0  502  501  0.00000000000E+00  0.00000000000E+00  0.27664658486E+03  0.27664658486E+03  0.00000000000E+00 0. -1.
         21   -1    0    0  501  502 -0.00000000000E+00 -0.00000000000E+00 -0.14120000802E+02  0.14120000802E+02  0.00000000000E+00 0. -1.
         25    1    1    2    0    0  0.00000000000E+00  0.00000000000E+00  0.26252658405E+03  0.29076658566E+03  0.12500000000E+03 0.  0.
<mgrwt>
<rscale>  0 0.12500000E+03</rscale>
<asrwt>0</asrwt>
<pdfrwt beam="1">  1       21 0.42561009E-01 0.12500000E+03</pdfrwt>
<pdfrwt beam="2">  1       21 0.21723080E-02 0.12500000E+03</pdfrwt>
<totfact> 0.56232345E+06</totfact>
</mgrwt>
</event>
<event>
 3    1  0.1592492E-001  0.1250000E+03  0.7546771E-02  0.1235069E+00
         21   -1    0    0  502  501  0.00000000000E+00  0.00000000000E+00  0.80340776771E+02  0.80340776771E+02  0.00000000000E+00 0. -1.
         21   -1    0    0  501  502 -0.00000000000E+00 -0.00000000000E+00 -0.48621013600E+02  0.48621013600E+02  0.00000000000E+00 0. -1.
         25    1    1    2    0    0  0.00000000000E+00  0.00000000000E+00  0.31719763171E+02  0.12896179037E+03  0.12500000000E+03 0.  0.
<mgrwt>
<rscale>  0 0.12500000E+03</rscale>
<asrwt>0</asrwt>
<pdfrwt beam="1">  1       21 0.12360119E-01 0.12500000E+03</pdfrwt>
<pdfrwt beam="2">  1       21 0.74801560E-02 0.12500000E+03</pdfrwt>
<totfact> 0.73504013E+06</totfact>
</mgrwt>
</event>
<event>
 3    1  0.1592492E-001  0.1250000E+03  0.7546771E-02  0.1235069E+00
         21   -1    0    0  502  501  0.00000000000E+00  0.00000000000E+00  0.41764334876E+01  0.41764334876E+01  0.00000000000E+00 0.  1.
         21   -1    0    0  501  502 -0.00000000000E+00 -0.00000000000E+00 -0.93530760434E+03  0.93530760434E+03  0.00000000000E+00 0.  1.
         25    1    1    2    0    0  0.00000000000E+00  0.00000000000E+00 -0.93113117085E+03  0.93948403783E+03  0.12500000000E+03 0.  0.
<mgrwt>
<rscale>  0 0.12500000E+03</rscale>
<asrwt>0</asrwt>
<pdfrwt beam="1">  1       21 0.64252797E-03 0.12500000E+03</pdfrwt>
<pdfrwt beam="2">  1       21 0.14389354E+00 0.12500000E+03</pdfrwt>
<totfact> 0.25195078E+06</totfact>
</mgrwt>
</event>
<event>
 3    1  0.1592492E-001  0.1250000E+03  0.7546771E-02  0.1235069E+00
         21   -1    0    0  502  501  0.00000000000E+00  0.00000000000E+00  0.71569073156E+01  0.71569073156E+01  0.00000000000E+00 0. -1.
         21   -1    0    0  501  502 -0.00000000000E+00 -0.00000000000E+00 -0.54580139546E+03  0.54580139546E+03  0.00000000000E+00 0. -1.
         25    1    1    2    0    0  0.00000000000E+00  0.00000000000E+00 -0.53864448814E+03  0.55295830277E+03  0.12500000000E+03 0.  0.
<mgrwt>
<rscale>  0 0.12500000E+03</rscale>
<asrwt>0</asrwt>
<pdfrwt beam="1">  1       21 0.11010626E-02 0.12500000E+03</pdfrwt>
<pdfrwt beam="2">  1       21 0.83969453E-01 0.12500000E+03</pdfrwt>
<totfact> 0.39310291E+06</totfact>
</mgrwt>
</event>
<event>
 3    1  0.1592492E-001  0.1250000E+03  0.7546771E-02  0.1235069E+00
         21   -1    0    0  502  501  0.00000000000E+00  0.00000000000E+00  0.16122158198E+02  0.16122158198E+02  0.00000000000E+00 0. -1.
         21   -1    0    0  501  502 -0.00000000000E+00 -0.00000000000E+00 -0.24229076232E+03  0.24229076232E+03  0.00000000000E+00 0. -1.
         25    1    1    2    0    0  0.00000000000E+00  0.00000000000E+00 -0.22616860412E+03  0.25841292052E+03  0.12500000000E+03 0.  0.
<mgrwt>
<rscale>  0 0.12500000E+03</rscale>
<asrwt>0</asrwt>
<pdfrwt beam="1">  1       21 0.24803322E-02 0.12500000E+03</pdfrwt>
<pdfrwt beam="2">  1       21 0.37275500E-01 0.12500000E+03</pdfrwt>
<totfact> 0.59095044E+06</totfact>
</mgrwt>
</event>
<event>
 3    1  0.1592492E-001  0.1250000E+03  0.7546771E-02  0.1235069E+00
         21   -1    0    0  502  501  0.00000000000E+00  0.00000000000E+00  0.70778876393E+01  0.70778876393E+01  0.00000000000E+00 0. -1.
         21   -1    0    0  501  502 -0.00000000000E+00 -0.00000000000E+00 -0.55189488716E+03  0.55189488716E+03  0.00000000000E+00 0. -1.
         25    1    1    2    0    0  0.00000000000E+00  0.00000000000E+00 -0.54481699952E+03  0.55897277480E+03  0.12500000000E+03 0.  0.
<mgrwt>
<rscale>  0 0.12500000E+03</rscale>
<asrwt>0</asrwt>
<pdfrwt beam="1">  1       21 0.10889057E-02 0.12500000E+03</pdfrwt>
<pdfrwt beam="2">  1       21 0.84906911E-01 0.12500000E+03</pdfrwt>
<totfact> 0.39016299E+06</totfact>
</mgrwt>
</event>
<event>
 3    1  0.1592492E-001  0.1250000E+03  0.7546771E-02  0.1235069E+00
         21   -1    0    0  502  501  0.00000000000E+00  0.00000000000E+00  0.96128417870E+02  0.96128417870E+02  0.00000000000E+00 0. -1.
         21   -1    0    0  501  502 -0.00000000000E+00 -0.00000000000E+00 -0.40635746292E+02  0.40635746292E+02  0.00000000000E+00 0. -1.
         25    1    1    2    0    0  0.00000000000E+00  0.00000000000E+00  0.55492671578E+02  0.13676416416E+03  0.12500000000E+03 0.  0.
<mgrwt>
<rscale>  0 0.12500000E+03</rscale>
<asrwt>0</asrwt>
<pdfrwt beam="1">  1       21 0.14788987E-01 0.12500000E+03</pdfrwt>
<pdfrwt beam="2">  1       21 0.62516533E-02 0.12500000E+03</pdfrwt>
<totfact> 0.72463718E+06</totfact>
</mgrwt>
</event>
<event>
 3    1  0.1592492E-001  0.1250000E+03  0.7546771E-02  0.1235069E+00
         21   -1    0    0  502  501  0.00000000000E+00  0.00000000000E+00  0.25068551300E+03  0.25068551300E+03  0.00000000000E+00 0.  1.
         21   -1    0    0  501  502 -0.00000000000E+00 -0.00000000000E+00 -0.15582272598E+02  0.15582272598E+02  0.00000000000E+00 0.  1.
         25    1    1    2    0    0  0.00000000000E+00  0.00000000000E+00  0.23510324040E+03  0.26626778560E+03  0.12500000000E+03 0.  0.
<mgrwt>
<rscale>  0 0.12500000E+03</rscale>
<asrwt>0</asrwt>
<pdfrwt beam="1">  1       21 0.38566999E-01 0.12500000E+03</pdfrwt>
<pdfrwt beam="2">  1       21 0.23972729E-02 0.12500000E+03</pdfrwt>
<totfact> 0.58379517E+06</totfact>
</mgrwt>
</event>
<event>
 3    1  0.1592492E-001  0.1250000E+03  0.7546771E-02  0.1235069E+00
         21   -1    0    0  502  501  0.00000000000E+00  0.00000000000E+00  0.17694901468E+04  0.17694901468E+04  0.00000000000E+00 0. -1.
         21   -1    0    0  501  502 -0.00000000000E+00 -0.00000000000E+00 -0.22075567965E+01  0.22075567965E+01  0.00000000000E+00 0. -1.
         25    1    1    2    0    0  0.00000000000E+00  0.00000000000E+00  0.17672825900E+04  0.17716977036E+04  0.12500000000E+03 0.  0.
<mgrwt>
<rscale>  0 0.12500000E+03</rscale>
<asrwt>0</asrwt>
<pdfrwt beam="1">  1       21 0.27222812E+00 0.12500000E+03</pdfrwt>
<pdfrwt beam="2">  1       21 0.33962554E-03 0.12500000E+03</pdfrwt>
<totfact> 0.10399582E+06</totfact>
</mgrwt>
</event>
<event>
 3    1  0.1592492E-001  0.1250000E+03  0.7546771E-02  0.1235069E+00
         21   -1    0    0  502  501  0.00000000000E+00  0.00000000000E+00  0.22135797055E+03  0.22135797055E+03  0.00000000000E+00 0. -1.
         21   -1    0    0  501  502 -0.00000000000E+00 -0.00000000000E+00 -0.17646755571E+02  0.17646755571E+02  0.00000000000E+00 0. -1.
         25    1    1    2    0    0  0.00000000000E+00  0.00000000000E+00  0.20371121498E+03  0.23900472612E+03  0.12500000000E+03 0.  0.
<mgrwt>
<rscale>  0 0.12500000E+03</rscale>
<asrwt>0</asrwt>
<pdfrwt beam="1">  1       21 0.34055070E-01 0.12500000E+03</pdfrwt>
<pdfrwt beam="2">  1       21 0.27148856E-02 0.12500000E+03</pdfrwt>
<totfact> 0.60929107E+06</totfact>
</mgrwt>
</event>
<event>
 3    1  0.1592492E-001  0.1250000E+03  0.7546771E-02  0.1235069E+00
         21   -1    0    0  502  501  0.00000000000E+00  0.00000000000E+00  0.82595155245E+01  0.82595155245E+01  0.00000000000E+00 0. -1.
         21   -1    0    0  501  502 -0.00000000000E+00 -0.00000000000E+00 -0.47293936169E+03  0.47293936169E+03  0.00000000000E+00 0. -1.
         25    1    1    2    0    0  0.00000000000E+00  0.00000000000E+00 -0.46467984616E+03  0.48119887721E+03  0.12500000000E+03 0.  0.
<mgrwt>
<rscale>  0 0.12500000E+03</rscale>
<asrwt>0</asrwt>
<pdfrwt beam="1">  1       21 0.12706943E-02 0.12500000E+03</pdfrwt>
<pdfrwt beam="2">  1       21 0.72759926E-01 0.12500000E+03</pdfrwt>
<totfact> 0.43082393E+06</totfact>
</mgrwt>
</event>
<event>
 3    1  0.1592492E-001  0.1250000E+03  0.7546771E-02  0.1235069E+00
         21   -1    0    0  502  501  0.00000000000E+00  0.00000000000E+00  0.53074029782E+01  0.53074029782E+01  0.00000000000E+00 0.  1.
         21   -1    0    0  501  502 -0.00000000000E+00 -0.00000000000E+00 -0.73600026530E+03  0.73600026530E+03  0.00000000000E+00 0.  1.
         25    1    1    2    0    0  0.00000000000E+00  0.00000000000E+00 -0.73069286232E+03  0.74130766828E+03  0.12500000000E+03 0.  0.
<mgrwt>
<rscale>  0 0.12500000E+03</rscale>
<asrwt>0</asrwt>
<pdfrwt beam="1">  1       21 0.81652385E-03 0.12500000E+03</pdfrwt>
<pdfrwt beam="2">  1       21 0.11323077E+00 0.12500000E+03</pdfrwt>
<totfact> 0.31376979E+06</totfact>
</mgrwt>
</event>
<event>
 3    1  0.1592492E-001  0.1250000E+03  0.7546771E-02  0.1235069E+00
         21   -1    0    0  502  501  0.00000000000E+00  0.00000000000E+00  0.22636564191E+03  0.22636564191E+03  0.00000000000E+00 0. -1.
         21   -1    0    0  501  502 -0.00000000000E+00 -0.00000000000E+00 -0.17256373215E+02  0.17256373215E+02  0.00000000000E+00 0. -1.
         25    1    1    2    0    0  0.00000000000E+00  0.00000000000E+00  0.20910926870E+03  0.24362201513E+03  0.12500000000E+03 0.  0.
<mgrwt>
<rscale>  0 0.12500000E+03</rscale>
<asrwt>0</asrwt>
<pdfrwt beam="1">  1       21 0.34825481E-01 0.12500000E+03</pdfrwt>
<pdfrwt beam="2">  1       21 0.26548268E-02 0.12500000E+03</pdfrwt>
<totfact> 0.60483920E+06</totfact>
</mgrwt>
</event>
<event>
 3    1  0.1592492E-001  0.1250000E+03  0.7546771E-02  0.1235069E+00
         21   -1    0    0  502  501  0.00000000000E+00  0.00000000000E+00  0.12250400699E+02  0.12250400699E+02  0.00000000000E+00 0. -1.
         21   -1    0    0  501  502 -0.00000000000E+00 -0.00000000000E+00 -0.31886712084E+03  0.31886712084E+03  0.00000000000E+00 0. -1.
         25    1    1    2    0    0  0.00000000000E+00  0.00000000000E+00 -0.30661672015E+03  0.33111752154E+03  0.12500000000E+03 0.  0.
<mgrwt>
<rscale>  0 0.12500000E+03</rscale>
<asrwt>0</asrwt>
<pdfrwt beam="1">  1       21 0.18846773E-02 0.12500000E+03</pdfrwt>
<pdfrwt beam="2">  1       21 0.49056473E-01 0.12500000E+03</pdfrwt>
<totfact> 0.52963933E+06</totfact>
</mgrwt>
</event>
<event>
 3    1  0.1592492E-001  0.1250000E+03  0.7546771E-02  0.1235069E+00
         21   -1    0    0  502  501  0.00000000000E+00  0.00000000000E+00  0.39678627328E+02  0.39678627328E+02  0.00000000000E+00 0.  1.
         21   -1    0    0  501  502 -0.00000000000E+00 -0.00000000000E+00 -0.98447206042E+02  0.98447206042E+02  0.00000000000E+00 0.  1.
         25    1    1    2    0    0  0.00000000000E+00  0.00000000000E+00 -0.58768578714E+02  0.13812583337E+03  0.12500000000E+03 0.  0.
<mgrwt>
<rscale>  0 0.12500000E+03</rscale>
<asrwt>0</asrwt>
<pdfrwt beam="1">  1       21 0.61044042E-02 0.12500000E+03</pdfrwt>
<pdfrwt beam="2">  1       21 0.15145724E-01 0.12500000E+03</pdfrwt>
<totfact> 0.72284931E+06</totfact>
</mgrwt>
</event>
<event>
 3    1  0.1592492E-001  0.1250000E+03  0.7546771E-02  0.1235069E+00
         21   -1    0    0  502  501  0.00000000000E+00  0.00000000000E+00  0.49728916658E+02  0.49728916658E+02  0.00000000000E+00 0. -1.
         21   -1    0    0  501  502 -0.00000000000E+00 -0.00000000000E+00 -0.78550876683E+02  0.78550876683E+02  0.00000000000E+00 0. -1.
         25    1    1    2    0    0  0.00000000000E+00  0.00000000000E+00 -0.28821960025E+02  0.12827979334E+03  0.12500000000E+03 0.  0.
<mgrwt>
<rscale>  0 0.12500000E+03</rscale>
<asrwt>0</asrwt>
<pdfrwt beam="1">  1       21 0.76506026E-02 0.12500000E+03</pdfrwt>
<pdfrwt beam="2">  1       21 0.12084750E-01 0.12500000E+03</pdfrwt>
<totfact> 0.73595797E+06</totfact>
</mgrwt>
</event>
<event>
 3    1  0.1592492E-001  0.1250000E+03  0.7546771E-02  0.1235069E+00
         21   -1    0    0  502  501  0.00000000000E+00  0.00000000000E+00  0.87971196366E+02  0.87971196366E+02  0.00000000000E+00 0. -1.
         21   -1    0    0  501  502 -0.00000000000E+00 -0.00000000000E+00 -0.44403738511E+02  0.44403738511E+02  0.00000000000E+00 0. -1.
         25    1    1    2    0    0  0.00000000000E+00  0.00000000000E+00  0.43567457855E+02  0.13237493488E+03  0.12500000000E+03 0.  0.
<mgrwt>
<rscale>  0 0.12500000E+03</rscale>
<asrwt>0</asrwt>
<pdfrwt beam="1">  1       21 0.13534030E-01 0.12500000E+03</pdfrwt>
<pdfrwt beam="2">  1       21 0.68313444E-02 0.12500000E+03</pdfrwt>
<totfact> 0.73045981E+06</totfact>
</mgrwt>
</event>
<event>
 3    1  0.1592492E-001  0.1250000E+03  0.7546771E-02  0.1235069E+00
         21   -1    0    0  502  501  0.00000000000E+00  0.00000000000E+00  0.92168661115E+03  0.92168661115E+03  0.00000000000E+00 0.  1.
         21   -1    0    0  501  502 -0.00000000000E+00 -0.00000000000E+00 -0.42381542194E+01  0.42381542194E+01  0.00000000000E+00 0.  1.
         25    1    1    2    0    0  0.00000000000E+00  0.00000000000E+00  0.91744845693E+03  0.92592476537E+03  0.12500000000E+03 0.  0.
<mgrwt>
<rscale>  0 0.12500000E+03</rscale>
<asrwt>0</asrwt>
<pdfrwt beam="1">  1       21 0.14179778E+00 0.12500000E+03</pdfrwt>
<pdfrwt beam="2">  1       21 0.65202446E-03 0.12500000E+03</pdfrwt>
<totfact> 0.25567277E+06</totfact>
</mgrwt>
</event>
<event>
 3    1  0.1592492E-001  0.1250000E+03  0.7546771E-02  0.1235069E+00
         21   -1    0    0  502  501  0.00000000000E+00  0.00000000000E+00  0.53217822631E+02  0.53217822631E+02  0.00000000000E+00 0. -1.
         21   -1    0    0  501  502 -0.00000000000E+00 -0.00000000000E+00 -0.73401161620E+02  0.73401161620E+02  0.00000000000E+00 0. -1.
         25    1    1    2    0    0  0.00000000000E+00  0.00000000000E+00 -0.20183338989E+02  0.12661898425E+03  0.12500000000E+03 0.  0.
<mgrwt>
<rscale>  0 0.12500000E+03</rscale>
<asrwt>0</asrwt>
<pdfrwt beam="1">  1       21 0.81873574E-02 0.12500000E+03</pdfrwt>
<pdfrwt beam="2">  1       21 0.11292486E-01 0.12500000E+03</pdfrwt>
<totfact> 0.73821101E+06</totfact>
</mgrwt>
</event>
<event>
 3    1  0.1592492E-001  0.1250000E+03  0.7546771E-02  0.1235069E+00
         21   -1    0    0  502  501  0.00000000000E+00  0.00000000000E+00  0.73694790690E+02  0.73694790690E+02  0.00000000000E+00 0.  1.
         21   -1    0    0  501  502 -0.00000000000E+00 -0.00000000000E+00 -0.53005781866E+02  0.53005781866E+02  0.00000000000E+00 0.  1.
         25    1    1    2    0    0  0.00000000000E+00  0.00000000000E+00  0.20689008824E+02  0.12670057256E+03  0.12500000000E+03 0.  0.
<mgrwt>
<rscale>  0 0.12500000E+03</rscale>
<asrwt>0</asrwt>
<pdfrwt beam="1">  1       21 0.11337660E-01 0.12500000E+03</pdfrwt>
<pdfrwt beam="2">  1       21 0.81547357E-02 0.12500000E+03</pdfrwt>
<totfact> 0.73809957E+06</totfact>
</mgrwt>
</event>
<event>
 3    1  0.1592492E-001  0.1250000E+03  0.7546771E-02  0.1235069E+00
         21   -1    0    0  502  501  0.00000000000E+00  0.00000000000E+00  0.58889260413E+02  0.58889260413E+02  0.00000000000E+00 0.  1.
         21   -1    0    0  501  502 -0.00000000000E+00 -0.00000000000E+00 -0.66332128687E+02  0.66332128687E+02  0.00000000000E+00 0.  1.
         25    1    1    2    0    0  0.00000000000E+00  0.00000000000E+00 -0.74428682744E+01  0.12522138910E+03  0.12500000000E+03 0.  0.
<mgrwt>
<rscale>  0 0.12500000E+03</rscale>
<asrwt>0</asrwt>
<pdfrwt beam="1">  1       21 0.90598862E-02 0.12500000E+03</pdfrwt>
<pdfrwt beam="2">  1       21 0.10204943E-01 0.12500000E+03</pdfrwt>
<totfact> 0.74013684E+06</totfact>
</mgrwt>
</event>
<event>
 3    1  0.1592492E-001  0.1250000E+03  0.7546771E-02  0.1235069E+00
         21   -1    0    0  502  501  0.00000000000E+00  0.00000000000E+00  0.77558723401E+01  0.77558723401E+01  0.00000000000E+00 0. -1.
         21   -1    0    0  501  502 -0.00000000000E+00 -0.00000000000E+00 -0.50365063125E+03  0.50365063125E+03  0.00000000000E+00 0. -1.
         25    1    1    2    0    0  0.00000000000E+00  0.00000000000E+00 -0.49589475891E+03  0.51140650359E+03  0.12500000000E+03 0.  0.
<mgrwt>
<rscale>  0 0.12500000E+03</rscale>
<asrwt>0</asrwt>
<pdfrwt beam="1">  1       21 0.11932106E-02 0.12500000E+03</pdfrwt>
<pdfrwt beam="2">  1       21 0.77484745E-01 0.12500000E+03</pdfrwt>
<totfact> 0.41432139E+06</totfact>
</mgrwt>
</event>
<event>
 3    1  0.1592492E-001  0.1250000E+03  0.7546771E-02  0.1235069E+00
         21   -1    0    0  502  501  0.00000000000E+00  0.00000000000E+00  0.43106320377E+03  0.43106320377E+03  0.00000000000E+00 0. -1.
         21   -1    0    0  501  502 -0.00000000000E+00 -0.00000000000E+00 -0.90618961810E+01  0.90618961810E+01  0.00000000000E+00 0. -1.
         25    1    1    2    0    0  0.00000000000E+00  0.00000000000E+00  0.42200130759E+03  0.44012509995E+03  0.12500000000E+03 0.  0.
<mgrwt>
<rscale>  0 0.12500000E+03</rscale>
<asrwt>0</asrwt>
<pdfrwt beam="1">  1       21 0.66317400E-01 0.12500000E+03</pdfrwt>
<pdfrwt beam="2">  1       21 0.13941382E-02 0.12500000E+03</pdfrwt>
<totfact> 0.45488998E+06</totfact>
</mgrwt>
</event>
<event>
 3    1  0.1592492E-001  0.1250000E+03  0.7546771E-02  0.1235069E+00
         21   -1    0    0  502  501  0.00000000000E+00  0.00000000000E+00  0.81909911993E+03  0.81909911993E+03  0.00000000000E+00 0.  1.
         21   -1    0    0  501  502 -0.00000000000E+00 -0.00000000000E+00 -0.47689588536E+01  0.47689588536E+01  0.00000000000E+00 0.  1.
         25    1    1    2    0    0  0.00000000000E+00  0.00000000000E+00  0.81433016108E+03  0.82386807878E+03  0.12500000000E+03 0.  0.
<mgrwt>
<rscale>  0 0.12500000E+03</rscale>
<asrwt>0</asrwt>
<pdfrwt beam="1">  1       21 0.12601514E+00 0.12500000E+03</pdfrwt>
<pdfrwt beam="2">  1       21 0.73368663E-03 0.12500000E+03</pdfrwt>
<totfact> 0.28587156E+06</totfact>
</mgrwt>
</event>
<event>
 3    1  0.1592492E-001  0.1250000E+03  0.7546771E-02  0.1235069E+00
         21   -1    0    0  502  501  0.00000000000E+00  0.00000000000E+00  0.87585557006E+02  0.87585557006E+02  0.00000000000E+00 0.  1.
         21   -1    0    0  501  502 -0.00000000000E+00 -0.00000000000E+00 -0.44599248250E+02  0.44599248250E+02  0.00000000000E+00 0.  1.
         25    1    1    2    0    0  0.00000000000E+00  0.00000000000E+00  0.42986308756E+02  0.13218480526E+03  0.12500000000E+03 0.  0.
<mgrwt>
<rscale>  0 0.12500000E+03</rscale>
<asrwt>0</asrwt>
<pdfrwt beam="1">  1       21 0.13474701E-01 0.12500000E+03</pdfrwt>
<pdfrwt beam="2">  1       21 0.68614228E-02 0.12500000E+03</pdfrwt>
<totfact> 0.73071451E+06</totfact>
</mgrwt>
</event>
<event>
 3    1  0.1592492E-001  0.1250000E+03  0.7546771E-02  0.1235069E+00
         21   -1    0    0  502  501  0.00000000000E+00  0.00000000000E+00  0.15089825601E+03  0.15089825601E+03  0.00000000000E+00 0. -1.
         21   -1    0    0  501  502 -0.00000000000E+00 -0.00000000000E+00 -0.25886647754E+02  0.25886647754E+02  0.00000000000E+00 0. -1.
         25    1    1    2    0    0  0.00000000000E+00  0.00000000000E+00  0.12501160825E+03  0.17678490376E+03  0.12500000000E+03 0.  0.
<mgrwt>
<rscale>  0 0.12500000E+03</rscale>
<asrwt>0</asrwt>
<pdfrwt beam="1">  1       21 0.23215116E-01 0.12500000E+03</pdfrwt>
<pdfrwt beam="2">  1       21 0.39825613E-02 0.12500000E+03</pdfrwt>
<totfact> 0.67522290E+06</totfact>
</mgrwt>
</event>
<event>
 3    1  0.1592492E-001  0.1250000E+03  0.7546771E-02  0.1235069E+00
         21   -1    0    0  502  501  0.00000000000E+00  0.00000000000E+00  0.14657377857E+02  0.14657377857E+02  0.00000000000E+00 0.  1.
         21   -1    0    0  501  502 -0.00000000000E+00 -0.00000000000E+00 -0.26650401171E+03  0.26650401171E+03  0.00000000000E+00 0.  1.
         25    1    1    2    0    0  0.00000000000E+00  0.00000000000E+00 -0.25184663386E+03  0.28116138957E+03  0.12500000000E+03 0.  0.
<mgrwt>
<rscale>  0 0.12500000E+03</rscale>
<asrwt>0</asrwt>
<pdfrwt beam="1">  1       21 0.22549812E-02 0.12500000E+03</pdfrwt>
<pdfrwt beam="2">  1       21 0.41000618E-01 0.12500000E+03</pdfrwt>
<totfact> 0.57058997E+06</totfact>
</mgrwt>
</event>
<event>
 3    1  0.1592492E-001  0.1250000E+03  0.7546771E-02  0.1235069E+00
         21   -1    0    0  502  501  0.00000000000E+00  0.00000000000E+00  0.50607955717E+03  0.50607955717E+03  0.00000000000E+00 0. -1.
         21   -1    0    0  501  502 -0.00000000000E+00 -0.00000000000E+00 -0.77186480756E+01  0.77186480756E+01  0.00000000000E+00 0. -1.
         25    1    1    2    0    0  0.00000000000E+00  0.00000000000E+00  0.49836090909E+03  0.51379820524E+03  0.12500000000E+03 0.  0.
<mgrwt>
<rscale>  0 0.12500000E+03</rscale>
<asrwt>0</asrwt>
<pdfrwt beam="1">  1       21 0.77858367E-01 0.12500000E+03</pdfrwt>
<pdfrwt beam="2">  1       21 0.11874847E-02 0.12500000E+03</pdfrwt>
<totfact> 0.41305524E+06</totfact>
</mgrwt>
</event>
<event>
 3    1  0.1592492E-001  0.1250000E+03  0.7546771E-02  0.1235069E+00
         21   -1    0    0  502  501  0.00000000000E+00  0.00000000000E+00  0.87975108383E+03  0.87975108383E+03  0.00000000000E+00 0.  1.
         21   -1    0    0  501  502 -0.00000000000E+00 -0.00000000000E+00 -0.44401763997E+01  0.44401763997E+01  0.00000000000E+00 0.  1.
         25    1    1    2    0    0  0.00000000000E+00  0.00000000000E+00  0.87531090743E+03  0.88419126023E+03  0.12500000000E+03 0.  0.
<mgrwt>
<rscale>  0 0.12500000E+03</rscale>
<asrwt>0</asrwt>
<pdfrwt beam="1">  1       21 0.13534618E+00 0.12500000E+03</pdfrwt>
<pdfrwt beam="2">  1       21 0.68310476E-03 0.12500000E+03</pdfrwt>
<totfact> 0.26754832E+06</totfact>
</mgrwt>
</event>
<event>
 3    1  0.1592492E-001  0.1250000E+03  0.7546771E-02  0.1235069E+00
         21   -1    0    0  502  501  0.00000000000E+00  0.00000000000E+00  0.19172052380E+03  0.19172052380E+03  0.00000000000E+00 0. -1.
         21   -1    0    0  501  502 -0.00000000000E+00 -0.00000000000E+00 -0.20374709617E+02  0.20374709617E+02  0.00000000000E+00 0. -1.
         25    1    1    2    0    0  0.00000000000E+00  0.00000000000E+00  0.17134581418E+03  0.21209523341E+03  0.12500000000E+03 0.  0.
<mgrwt>
<rscale>  0 0.12500000E+03</rscale>
<asrwt>0</asrwt>
<pdfrwt beam="1">  1       21 0.29495464E-01 0.12500000E+03</pdfrwt>
<pdfrwt beam="2">  1       21 0.31345708E-02 0.12500000E+03</pdfrwt>
<totfact> 0.63639766E+06</totfact>
</mgrwt>
</event>
<event>
 3    1  0.1592492E-001  0.1250000E+03  0.7546771E-02  0.1235069E+00
         21   -1    0    0  502  501  0.00000000000E+00  0.00000000000E+00  0.82544850399E+03  0.82544850399E+03  0.00000000000E+00 0. -1.
         21   -1    0    0  501  502 -0.00000000000E+00 -0.00000000000E+00 -0.47322758247E+01  0.47322758247E+01  0.00000000000E+00 0. -1.
         25    1    1    2    0    0  0.00000000000E+00  0.00000000000E+00  0.82071622817E+03  0.83018077982E+03  0.12500000000E+03 0.  0.
<mgrwt>
<rscale>  0 0.12500000E+03</rscale>
<asrwt>0</asrwt>
<pdfrwt beam="1">  1       21 0.12699196E+00 0.12500000E+03</pdfrwt>
<pdfrwt beam="2">  1       21 0.72804309E-03 0.12500000E+03</pdfrwt>
<totfact> 0.28386996E+06</totfact>
</mgrwt>
</event>
<event>
 3    1  0.1592492E-001  0.1250000E+03  0.7546771E-02  0.1235069E+00
         21   -1    0    0  502  501  0.00000000000E+00  0.00000000000E+00  0.56208337840E+01  0.56208337840E+01  0.00000000000E+00 0. -1.
         21   -1    0    0  501  502 -0.00000000000E+00 -0.00000000000E+00 -0.69495917334E+03  0.69495917334E+03  0.00000000000E+00 0. -1.
         25    1    1    2    0    0  0.00000000000E+00  0.00000000000E+00 -0.68933833955E+03  0.70058000712E+03  0.12500000000E+03 0.  0.
<mgrwt>
<rscale>  0 0.12500000E+03</rscale>
<asrwt>0</asrwt>
<pdfrwt beam="1">  1       21 0.86474365E-03 0.12500000E+03</pdfrwt>
<pdfrwt beam="2">  1       21 0.10691680E+00 0.12500000E+03</pdfrwt>
<totfact> 0.32887790E+06</totfact>
</mgrwt>
</event>
<event>
 3    1  0.1592492E-001  0.1250000E+03  0.7546771E-02  0.1235069E+00
         21   -1    0    0  502  501  0.00000000000E+00  0.00000000000E+00  0.30028213584E+01  0.30028213584E+01  0.00000000000E+00 0.  1.
         21   -1    0    0  501  502 -0.00000000000E+00 -0.00000000000E+00 -0.13008599359E+04  0.13008599359E+04  0.00000000000E+00 0.  1.
         25    1    1    2    0    0  0.00000000000E+00  0.00000000000E+00 -0.12978571146E+04  0.13038627573E+04  0.12500000000E+03 0.  0.
<mgrwt>
<rscale>  0 0.12500000E+03</rscale>
<asrwt>0</asrwt>
<pdfrwt beam="1">  1       21 0.46197143E-03 0.12500000E+03</pdfrwt>
<pdfrwt beam="2">  1       21 0.20013277E+00 0.12500000E+03</pdfrwt>
<totfact> 0.17183068E+06</totfact>
</mgrwt>
</event>
<event>
 3    1  0.1592492E-001  0.1250000E+03  0.7546771E-02  0.1235069E+00
         21   -1    0    0  502  501  0.00000000000E+00  0.00000000000E+00  0.43361060960E+02  0.43361060960E+02  0.00000000000E+00 0. -1.
         21   -1    0    0  501  502 -0.00000000000E+00 -0.00000000000E+00 -0.90086587217E+02  0.90086587217E+02  0.00000000000E+00 0. -1.
         25    1    1    2    0    0  0.00000000000E+00  0.00000000000E+00 -0.46725526256E+02  0.13344764818E+03  0.12500000000E+03 0.  0.
<mgrwt>
<rscale>  0 0.12500000E+03</rscale>
<asrwt>0</asrwt>
<pdfrwt beam="1">  1       21 0.66709325E-02 0.12500000E+03</pdfrwt>
<pdfrwt beam="2">  1       21 0.13859475E-01 0.12500000E+03</pdfrwt>
<totfact> 0.72902680E+06</totfact>
</mgrwt>
</event>
<event>
 3    1  0.1592492E-001  0.1250000E+03  0.7546771E-02  0.1235069E+00
         21   -1    0    0  502  501  0.00000000000E+00  0.00000000000E+00  0.21919267528E+02  0.21919267528E+02  0.00000000000E+00 0.  1.
         21   -1    0    0  501  502 -0.00000000000E+00 -0.00000000000E+00 -0.17821079080E+03  0.17821079080E+03  0.00000000000E+00 0.  1.
         25    1    1    2    0    0  0.00000000000E+00  0.00000000000E+00 -0.15629152328E+03  0.20013005833E+03  0.12500000000E+03 0.  0.
<mgrwt>
<rscale>  0 0.12500000E+03</rscale>
<asrwt>0</asrwt>
<pdfrwt beam="1">  1       21 0.33721951E-02 0.12500000E+03</pdfrwt>
<pdfrwt beam="2">  1       21 0.27417044E-01 0.12500000E+03</pdfrwt>
<totfact> 0.64913163E+06</totfact>
</mgrwt>
</event>
<event>
 3    1  0.1592492E-001  0.1250000E+03  0.7546771E-02  0.1235069E+00
         21   -1    0    0  502  501  0.00000000000E+00  0.00000000000E+00  0.15130964671E+01  0.15130964671E+01  0.00000000000E+00 0.  1.
         21   -1    0    0  501  502 -0.00000000000E+00 -0.00000000000E+00 -0.25816265420E+04  0.25816265420E+04  0.00000000000E+00 0.  1.
         25    1    1    2    0    0  0.00000000000E+00  0.00000000000E+00 -0.25801134455E+04  0.25831396385E+04  0.12500000000E+03 0.  0.
<mgrwt>
<rscale>  0 0.12500000E+03</rscale>
<asrwt>0</asrwt>
<pdfrwt beam="1">  1       21 0.23278481E-03 0.12500000E+03</pdfrwt>
<pdfrwt beam="2">  1       21 0.39717205E+00 0.12500000E+03</pdfrwt>
<totfact> 0.35388300E+05</totfact>
</mgrwt>
</event>
<event>
 3    1  0.1592492E-001  0.1250000E+03  0.7546771E-02  0.1235069E+00
         21   -1    0    0  502  501  0.00000000000E+00  0.00000000000E+00  0.38786747245E+03  0.38786747245E+03  0.00000000000E+00 0. -1.
         21   -1    0    0  501  502 -0.00000000000E+00 -0.00000000000E+00 -0.10071094581E+02  0.10071094581E+02  0.00000000000E+00 0. -1.
         25    1    1    2    0    0  0.00000000000E+00  0.00000000000E+00  0.37779637787E+03  0.39793856703E+03  0.12500000000E+03 0.  0.
<mgrwt>
<rscale>  0 0.12500000E+03</rscale>
<asrwt>0</asrwt>
<pdfrwt beam="1">  1       21 0.59671907E-01 0.12500000E+03</pdfrwt>
<pdfrwt beam="2">  1       21 0.15493995E-02 0.12500000E+03</pdfrwt>
<totfact> 0.48178389E+06</totfact>
</mgrwt>
</event>
<event>
 3    1  0.1592492E-001  0.1250000E+03  0.7546771E-02  0.1235069E+00
         21   -1    0    0  502  501  0.00000000000E+00  0.00000000000E+00  0.78962714023E+02  0.78962714023E+02  0.00000000000E+00 0. -1.
         21   -1    0    0  501  502 -0.00000000000E+00 -0.00000000000E+00 -0.49469550893E+02  0.49469550893E+02  0.00000000000E+00 0. -1.
         25    1    1    2    0    0  0.00000000000E+00  0.00000000000E+00  0.29493163130E+02  0.12843226492E+03  0.12500000000E+03 0.  0.
<mgrwt>
<rscale>  0 0.12500000E+03</rscale>
<asrwt>0</asrwt>
<pdfrwt beam="1">  1       21 0.12148110E-01 0.12500000E+03</pdfrwt>
<pdfrwt beam="2">  1       21 0.76107001E-02 0.12500000E+03</pdfrwt>
<totfact> 0.73575246E+06</totfact>
</mgrwt>
</event>
<event>
 3    1  0.1592492E-001  0.1250000E+03  0.7546771E-02  0.1235069E+00
         21   -1    0    0  502  501  0.00000000000E+00  0.00000000000E+00  0.41842926770E+03  0.41842926770E+03  0.00000000000E+00 0. -1.
         21   -1    0    0  501  502 -0.00000000000E+00 -0.00000000000E+00 -0.93355085353E+01  0.93355085353E+01  0.00000000000E+00 0. -1.
         25    1    1    2    0    0  0.00000000000E+00  0.00000000000E+00  0.40909375916E+03  0.42776477623E+03  0.12500000000E+03 0.  0.
<mgrwt>
<rscale>  0 0.12500000E+03</rscale>
<asrwt>0</asrwt>
<pdfrwt beam="1">  1       21 0.64373719E-01 0.12500000E+03</pdfrwt>
<pdfrwt beam="2">  1       21 0.14362324E-02 0.12500000E+03</pdfrwt>
<totfact> 0.46252671E+06</totfact>
</mgrwt>
</event>
<event>
 3    1  0.1592492E-001  0.1250000E+03  0.7546771E-02  0.1235069E+00
         21   -1    0    0  502  501  0.00000000000E+00  0.00000000000E+00  0.77147503319E+01  0.77147503319E+01  0.00000000000E+00 0. -1.
         21   -1    0    0  501  502 -0.00000000000E+00 -0.00000000000E+00 -0.50633524507E+03  0.50633524507E+03  0.00000000000E+00 0. -1.
         25    1    1    2    0    0  0.00000000000E+00  0.00000000000E+00 -0.49862049474E+03  0.51404999540E+03  0.12500000000E+03 0.  0.
<mgrwt>
<rscale>  0 0.12500000E+03</rscale>
<asrwt>0</asrwt>
<pdfrwt beam="1">  1       21 0.11868847E-02 0.12500000E+03</pdfrwt>
<pdfrwt beam="2">  1       21 0.77897731E-01 0.12500000E+03</pdfrwt>
<totfact> 0.41292216E+06</totfact>
</mgrwt>
</event>
<event>
 3    1  0.1592492E-001  0.1250000E+03  0.7546771E-02  0.1235069E+00
         21   -1    0    0  502  501  0.00000000000E+00  0.00000000000E+00  0.31363691564E+02  0.31363691564E+02  0.00000000000E+00 0. -1.
         21   -1    0    0  501  502 -0.00000000000E+00 -0.00000000000E+00 -0.12454688224E+03  0.12454688224E+03  0.00000000000E+00 0. -1.
         25    1    1    2    0    0  0.00000000000E+00  0.00000000000E+00 -0.93183190679E+02  0.15591057381E+03  0.12500000000E+03 0.  0.
<mgrwt>
<rscale>  0 0.12500000E+03</rscale>
<asrwt>0</asrwt>
<pdfrwt beam="1">  1       21 0.48251833E-02 0.12500000E+03</pdfrwt>
<pdfrwt beam="2">  1       21 0.19161059E-01 0.12500000E+03</pdfrwt>
<totfact> 0.70022663E+06</totfact>
</mgrwt>
</event>
<event>
 3    1  0.1592492E-001  0.1250000E+03  0.7546771E-02  0.1235069E+00
         21   -1    0    0  502  501  0.00000000000E+00  0.00000000000E+00  0.14421711916E+03  0.14421711916E+03  0.00000000000E+00 0. -1.
         21   -1    0    0  501  502 -0.00000000000E+00 -0.00000000000E+00 -0.27085896755E+02  0.27085896755E+02  0.00000000000E+00 0. -1.
         25    1    1    2    0    0  0.00000000000E+00  0.00000000000E+00  0.11713122241E+03  0.17130301592E+03  0.12500000000E+03 0.  0.
<mgrwt>
<rscale>  0 0.12500000E+03</rscale>
<asrwt>0</asrwt>
<pdfrwt beam="1">  1       21 0.22187249E-01 0.12500000E+03</pdfrwt>
<pdfrwt beam="2">  1       21 0.41670611E-02 0.12500000E+03</pdfrwt>
<totfact> 0.68163506E+06</totfact>
</mgrwt>
</event>
<event>
 3    1  0.1592492E-001  0.1250000E+03  0.7546771E-02  0.1235069E+00
         21   -1    0    0  502  501  0.00000000000E+00  0.00000000000E+00  0.75513106512E+01  0.75513106512E+01  0.00000000000E+00 0. -1.
         21   -1    0    0  501  502 -0.00000000000E+00 -0.00000000000E+00 -0.51729430564E+03  0.51729430564E+03  0.00000000000E+00 0. -1.
         25    1    1    2    0    0  0.00000000000E+00  0.00000000000E+00 -0.50974299499E+03  0.52484561629E+03  0.12500000000E+03 0.  0.
<mgrwt>
<rscale>  0 0.12500000E+03</rscale>
<asrwt>0</asrwt>
<pdfrwt beam="1">  1       21 0.11617398E-02 0.12500000E+03</pdfrwt>
<pdfrwt beam="2">  1       21 0.79583758E-01 0.12500000E+03</pdfrwt>
<totfact> 0.40727909E+06</totfact>
</mgrwt>
</event>
<event>
 3    1  0.1592492E-001  0.1250000E+03  0.7546771E-02  0.1235069E+00
         21   -1    0    0  502  501  0.00000000000E+00  0.00000000000E+00  0.94450127179E+01  0.94450127179E+01  0.00000000000E+00 0.  1.
         21   -1    0    0  501  502 -0.00000000000E+00 -0.00000000000E+00 -0.41357805613E+03  0.41357805613E+03  0.00000000000E+00 0.  1.
         25    1    1    2    0    0  0.00000000000E+00  0.00000000000E+00 -0.40413304341E+03  0.42302306885E+03  0.12500000000E+03 0.  0.
<mgrwt>
<rscale>  0 0.12500000E+03</rscale>
<asrwt>0</asrwt>
<pdfrwt beam="1">  1       21 0.14530787E-02 0.12500000E+03</pdfrwt>
<pdfrwt beam="2">  1       21 0.63627403E-01 0.12500000E+03</pdfrwt>
<totfact> 0.46550825E+06</totfact>
</mgrwt>
</event>
<event>
 3    1  0.1592492E-001  0.1250000E+03  0.7546771E-02  0.1235069E+00
         21   -1    0    0  502  501  0.00000000000E+00  0.00000000000E+00  0.26162360204E+03  0.26162360204E+03  0.00000000000E+00 0.  1.
         21   -1    0    0  501  502 -0.00000000000E+00 -0.00000000000E+00 -0.14930801233E+02  0.14930801233E+02  0.00000000000E+00 0.  1.
         25    1    1    2    0    0  0.00000000000E+00  0.00000000000E+00  0.24669280081E+03  0.27655440327E+03  0.12500000000E+03 0.  0.
<mgrwt>
<rscale>  0 0.12500000E+03</rscale>
<asrwt>0</asrwt>
<pdfrwt beam="1">  1       21 0.40249782E-01 0.12500000E+03</pdfrwt>
<pdfrwt beam="2">  1       21 0.22970465E-02 0.12500000E+03</pdfrwt>
<totfact> 0.57462670E+06</totfact>
</mgrwt>
</event>
<event>
 3    1  0.1592492E-001  0.1250000E+03  0.7546771E-02  0.1235069E+00
         21   -1    0    0  502  501  0.00000000000E+00  0.00000000000E+00  0.41449431317E+02  0.41449431317E+02  0.00000000000E+00 0.  1.
         21   -1    0    0  501  502 -0.00000000000E+00 -0.00000000000E+00 -0.94241341217E+02  0.94241341217E+02  0.00000000000E+00 0.  1.
         25    1    1    2    0    0  0.00000000000E+00  0.00000000000E+00 -0.52791909900E+02  0.13569077253E+03  0.12500000000E+03 0.  0.
<mgrwt>
<rscale>  0 0.12500000E+03</rscale>
<asrwt>0</asrwt>
<pdfrwt beam="1">  1       21 0.63768356E-02 0.12500000E+03</pdfrwt>
<pdfrwt beam="2">  1       21 0.14498668E-01 0.12500000E+03</pdfrwt>
<totfact> 0.72605138E+06</totfact>
</mgrwt>
</event>
<event>
 3    1  0.1592492E-001  0.1250000E+03  0.7546771E-02  0.1235069E+00
         21   -1    0    0  502  501  0.00000000000E+00  0.00000000000E+00  0.23840469042E+01  0.23840469042E+01  0.00000000000E+00 0.  1.
         21   -1    0    0  501  502 -0.00000000000E+00 -0.00000000000E+00 -0.16384954478E+04  0.16384954478E+04  0.00000000000E+00 0.  1.
         25    1    1    2    0    0  0.00000000000E+00  0.00000000000E+00 -0.16361114009E+04  0.16408794947E+04  0.12500000000E+03 0.  0.
<mgrwt>
<rscale>  0 0.12500000E+03</rscale>
<asrwt>0</asrwt>
<pdfrwt beam="1">  1       21 0.36677603E-03 0.12500000E+03</pdfrwt>
<pdfrwt beam="2">  1       21 0.25207651E+00 0.12500000E+03</pdfrwt>
<totfact> 0.12027245E+06</totfact>
</mgrwt>
</event>
<event>
 3    1  0.1592492E-001  0.1250000E+03  0.7546771E-02  0.1235069E+00
         21   -1    0    0  502  501  0.00000000000E+00  0.00000000000E+00  0.20658835588E+03  0.20658835588E+03  0.00000000000E+00 0.  1.
         21   -1    0    0  501  502 -0.00000000000E+00 -0.00000000000E+00 -0.18908374499E+02  0.18908374499E+02  0.00000000000E+00 0.  1.
         25    1    1    2    0    0  0.00000000000E+00  0.00000000000E+00  0.18767998138E+03  0.22549673038E+03  0.12500000000E+03 0.  0.
<mgrwt>
<rscale>  0 0.12500000E+03</rscale>
<asrwt>0</asrwt>
<pdfrwt beam="1">  1       21 0.31782823E-01 0.12500000E+03</pdfrwt>
<pdfrwt beam="2">  1       21 0.29089808E-02 0.12500000E+03</pdfrwt>
<totfact> 0.62265008E+06</totfact>
</mgrwt>
</event>
<event>
 3    1  0.1592492E-001  0.1250000E+03  0.7546771E-02  0.1235069E+00
         21   -1    0    0  502  501  0.00000000000E+00  0.00000000000E+00  0.17164093816E+02  0.17164093816E+02  0.00000000000E+00 0.  1.
         21   -1    0    0  501  502 -0.00000000000E+00 -0.00000000000E+00 -0.22758265260E+03  0.22758265260E+03  0.00000000000E+00 0.  1.
         25    1    1    2    0    0  0.00000000000E+00  0.00000000000E+00 -0.21041855878E+03  0.24474674641E+03  0.12500000000E+03 0.  0.
<mgrwt>
<rscale>  0 0.12500000E+03</rscale>
<asrwt>0</asrwt>
<pdfrwt beam="1">  1       21 0.26406298E-02 0.12500000E+03</pdfrwt>
<pdfrwt beam="2">  1       21 0.35012716E-01 0.12500000E+03</pdfrwt>
<totfact> 0.60376331E+06</totfact>
</mgrwt>
</event>
<event>
 3    1  0.1592492E-001  0.1250000E+03  0.7546771E-02  0.1235069E+00
         21   -1    0    0  502  501  0.00000000000E+00  0.00000000000E+00  0.46323851206E+02  0.46323851206E+02  0.00000000000E+00 0.  1.
         21   -1    0    0  501  502 -0.00000000000E+00 -0.00000000000E+00 -0.84324811048E+02  0.84324811048E+02  0.00000000000E+00 0.  1.
         25    1    1    2    0    0  0.00000000000E+00  0.00000000000E+00 -0.38000959842E+02  0.13064866225E+03  0.12500000000E+03 0.  0.
<mgrwt>
<rscale>  0 0.12500000E+03</rscale>
<asrwt>0</asrwt>
<pdfrwt beam="1">  1       21 0.71267465E-02 0.12500000E+03</pdfrwt>
<pdfrwt beam="2">  1       21 0.12973048E-01 0.12500000E+03</pdfrwt>
<totfact> 0.73278057E+06</totfact>
</mgrwt>
</event>
<event>
 3    1  0.1592492E-001  0.1250000E+03  0.7546771E-02  0.1235069E+00
         21   -1    0    0  502  501  0.00000000000E+00  0.00000000000E+00  0.82532892522E+01  0.82532892522E+01  0.00000000000E+00 0. -1.
         21   -1    0    0  501  502 -0.00000000000E+00 -0.00000000000E+00 -0.47329614662E+03  0.47329614662E+03  0.00000000000E+00 0. -1.
         25    1    1    2    0    0  0.00000000000E+00  0.00000000000E+00 -0.46504285737E+03  0.48154943587E+03  0.12500000000E+03 0.  0.
<mgrwt>
<rscale>  0 0.12500000E+03</rscale>
<asrwt>0</asrwt>
<pdfrwt beam="1">  1       21 0.12697367E-02 0.12500000E+03</pdfrwt>
<pdfrwt beam="2">  1       21 0.72814799E-01 0.12500000E+03</pdfrwt>
<totfact> 0.43062690E+06</totfact>
</mgrwt>
</event>
<event>
 3    1  0.1592492E-001  0.1250000E+03  0.7546771E-02  0.1235069E+00
         21   -1    0    0  502  501  0.00000000000E+00  0.00000000000E+00  0.10847830685E+04  0.10847830685E+04  0.00000000000E+00 0.  1.
         21   -1    0    0  501  502 -0.00000000000E+00 -0.00000000000E+00 -0.36009503774E+01  0.36009503774E+01  0.00000000000E+00 0.  1.
         25    1    1    2    0    0  0.00000000000E+00  0.00000000000E+00  0.10811821181E+04  0.10883840189E+04  0.12500000000E+03 0.  0.
<mgrwt>
<rscale>  0 0.12500000E+03</rscale>
<asrwt>0</asrwt>
<pdfrwt beam="1">  1       21 0.16688944E+00 0.12500000E+03</pdfrwt>
<pdfrwt beam="2">  1       21 0.55399323E-03 0.12500000E+03</pdfrwt>
<totfact> 0.21511645E+06</totfact>
</mgrwt>
</event>
<event>
 3    1  0.1592492E-001  0.1250000E+03  0.7546771E-02  0.1235069E+00
         21   -1    0    0  502  501  0.00000000000E+00  0.00000000000E+00  0.27317396261E+02  0.27317396261E+02  0.00000000000E+00 0.  1.
         21   -1    0    0  501  502 -0.00000000000E+00 -0.00000000000E+00 -0.14299496052E+03  0.14299496052E+03  0.00000000000E+00 0.  1.
         25    1    1    2    0    0  0.00000000000E+00  0.00000000000E+00 -0.11567756426E+03  0.17031235679E+03  0.12500000000E+03 0.  0.
<mgrwt>
<rscale>  0 0.12500000E+03</rscale>
<asrwt>0</asrwt>
<pdfrwt beam="1">  1       21 0.42026764E-02 0.12500000E+03</pdfrwt>
<pdfrwt beam="2">  1       21 0.21999224E-01 0.12500000E+03</pdfrwt>
<totfact> 0.68280627E+06</totfact>
</mgrwt>
</event>
<event>
 3    1  0.1592492E-001  0.1250000E+03  0.7546771E-02  0.1235069E+00
         21   -1    0    0  502  501  0.00000000000E+00  0.00000000000E+00  0.13840605467E+03  0.13840605467E+03  0.00000000000E+00 0. -1.
         21   -1    0    0  501  502 -0.00000000000E+00 -0.00000000000E+00 -0.28223115016E+02  0.28223115016E+02  0.00000000000E+00 0. -1.
         25    1    1    2    0    0  0.00000000000E+00  0.00000000000E+00  0.11018293966E+03  0.16662916969E+03  0.12500000000E+03 0.  0.
<mgrwt>
<rscale>  0 0.12500000E+03</rscale>
<asrwt>0</asrwt>
<pdfrwt beam="1">  1       21 0.21293239E-01 0.12500000E+03</pdfrwt>
<pdfrwt beam="2">  1       21 0.43420178E-02 0.12500000E+03</pdfrwt>
<totfact> 0.68718419E+06</totfact>
</mgrwt>
</event>
<event>
 3    1  0.1592492E-001  0.1250000E+03  0.7546771E-02  0.1235069E+00
         21   -1    0    0  502  501  0.00000000000E+00  0.00000000000E+00  0.24420331735E+02  0.24420331735E+02  0.00000000000E+00 0. -1.
         21   -1    0    0  501  502 -0.00000000000E+00 -0.00000000000E+00 -0.15995892449E+03  0.15995892449E+03  0.00000000000E+00 0. -1.
         25    1    1    2    0    0  0.00000000000E+00  0.00000000000E+00 -0.13553859275E+03  0.18437925622E+03  0.12500000000E+03 0.  0.
<mgrwt>
<rscale>  0 0.12500000E+03</rscale>
<asrwt>0</asrwt>
<pdfrwt beam="1">  1       21 0.37569740E-02 0.12500000E+03</pdfrwt>
<pdfrwt beam="2">  1       21 0.24609066E-01 0.12500000E+03</pdfrwt>
<totfact> 0.66652678E+06</totfact>
</mgrwt>
</event>
<event>
 3    1  0.1592492E-001  0.1250000E+03  0.7546771E-02  0.1235069E+00
         21   -1    0    0  502  501  0.00000000000E+00  0.00000000000E+00  0.20766923891E+03  0.20766923891E+03  0.00000000000E+00 0.  1.
         21   -1    0    0  501  502 -0.00000000000E+00 -0.00000000000E+00 -0.18809959628E+02  0.18809959628E+02  0.00000000000E+00 0.  1.
         25    1    1    2    0    0  0.00000000000E+00  0.00000000000E+00  0.18885927928E+03  0.22647919854E+03  0.12500000000E+03 0.  0.
<mgrwt>
<rscale>  0 0.12500000E+03</rscale>
<asrwt>0</asrwt>
<pdfrwt beam="1">  1       21 0.31949112E-01 0.12500000E+03</pdfrwt>
<pdfrwt beam="2">  1       21 0.28938401E-02 0.12500000E+03</pdfrwt>
<totfact> 0.62166116E+06</totfact>
</mgrwt>
</event>
<event>
 3    1  0.1592492E-001  0.1250000E+03  0.7546771E-02  0.1235069E+00
         21   -1    0    0  502  501  0.00000000000E+00  0.00000000000E+00  0.12003377955E+03  0.12003377955E+03  0.00000000000E+00 0.  1.
         21   -1    0    0  501  502 -0.00000000000E+00 -0.00000000000E+00 -0.32542922622E+02  0.32542922622E+02  0.00000000000E+00 0.  1.
         25    1    1    2    0    0  0.00000000000E+00  0.00000000000E+00  0.87490856931E+02  0.15257670217E+03  0.12500000000E+03 0.  0.
<mgrwt>
<rscale>  0 0.12500000E+03</rscale>
<asrwt>0</asrwt>
<pdfrwt beam="1">  1       21 0.18466735E-01 0.12500000E+03</pdfrwt>
<pdfrwt beam="2">  1       21 0.50066035E-02 0.12500000E+03</pdfrwt>
<totfact> 0.70437001E+06</totfact>
</mgrwt>
</event>
<event>
 3    1  0.1592492E-001  0.1250000E+03  0.7546771E-02  0.1235069E+00
         21   -1    0    0  502  501  0.00000000000E+00  0.00000000000E+00  0.26209590733E+02  0.26209590733E+02  0.00000000000E+00 0.  1.
         21   -1    0    0  501  502 -0.00000000000E+00 -0.00000000000E+00 -0.14903895447E+03  0.14903895447E+03  0.00000000000E+00 0.  1.
         25    1    1    2    0    0  0.00000000000E+00  0.00000000000E+00 -0.12282936374E+03  0.17524854521E+03  0.12500000000E+03 0.  0.
<mgrwt>
<rscale>  0 0.12500000E+03</rscale>
<asrwt>0</asrwt>
<pdfrwt beam="1">  1       21 0.40322447E-02 0.12500000E+03</pdfrwt>
<pdfrwt beam="2">  1       21 0.22929070E-01 0.12500000E+03</pdfrwt>
<totfact> 0.67700833E+06</totfact>
</mgrwt>
</event>
<event>
 3    1  0.1592492E-001  0.1250000E+03  0.7546771E-02  0.1235069E+00
         21   -1    0    0  502  501  0.00000000000E+00  0.00000000000E+00  0.27788124303E+01  0.27788124303E+01  0.00000000000E+00 0.  1.
         21   -1    0    0  501  502 -0.00000000000E+00 -0.00000000000E+00 -0.14057264022E+04  0.14057264022E+04  0.00000000000E+00 0.  1.
         25    1    1    2    0    0  0.00000000000E+00  0.00000000000E+00 -0.14029475898E+04  0.14085052146E+04  0.12500000000E+03 0.  0.
<mgrwt>
<rscale>  0 0.12500000E+03</rscale>
<asrwt>0</asrwt>
<pdfrwt beam="1">  1       21 0.42751065E-03 0.12500000E+03</pdfrwt>
<pdfrwt beam="2">  1       21 0.21626507E+00 0.12500000E+03</pdfrwt>
<totfact> 0.15406985E+06</totfact>
</mgrwt>
</event>
